FOO
135168
    1MOL0     O    1   6.829   5.923   5.341 -0.7809 -0.1513  0.0877
    1MOL0     C    2   6.835   5.800   5.331 -0.7673  0.2009  1.1354
    1MOL0     O    3   6.727   5.719   5.343 -0.3239 -0.4074  0.0782
    1MOL0     C    4   6.620   5.750   5.421  0.0128  0.2247  0.2753
    1MOL0     C    5   6.506   5.818   5.368 -0.3927  0.6572 -0.9433
    1MOL0     C    6   6.399   5.844   5.458 -0.2039 -0.0186  0.8609
    1MOL0     C    7   6.407   5.801   5.593 -0.1903  0.3845 -0.2207
    1MOL0     O    8   6.300   5.824   5.672  0.1762 -0.6606 -0.9134
    1MOL0     C    9   6.229   5.698   5.680 -0.5520 -0.0799 -0.6277
    1MOL0     C   10   6.080   5.716   5.723 -0.7111 -0.1051 -0.1308
    1MOL0     C   11   6.008   5.584   5.689 -1.0999  0.9173  0.1505
    1MOL0     C   12   5.874   5.577   5.773  0.8387 -0.2931 -0.2695
    1MOL0     C   13   5.810   5.437   5.777 -0.3552  0.3191 -0.9155
    1MOL0     C   14   5.679   5.448   5.854  0.2030 -0.2160  0.0936
    1MOL0     C   15   5.606   5.314   5.869  0.4580 -0.8953  0.3191
    1MOL0     C   16   5.461   5.339   5.905 -0.9506  0.6192  0.3963
    1MOL0     N   17   5.381   5.203   5.902 -0.7880 -0.1844  0.3772
    1MOL0     C   18   5.292   5.178   6.002  0.0700 -0.4699  0.2044
    1MOL0     C   19   5.244   5.052   5.980 -0.2089  0.1417  0.5893
    1MOL0     C   20   5.142   4.993   6.072  0.1740 -0.7057  0.6572
    1MOL0     C   21   5.037   4.920   5.991 -0.4761  0.0825 -0.8128
    1MOL0     C   22   4.937   4.859   6.088  0.3650 -0.0265 -0.1348
    1MOL0     C   23   4.834   4.783   6.012 -0.3314 -0.0562  0.5533
    1MOL0     O   24   4.737   4.722   6.107  0.4560 -0.0530  1.1740
    1MOL0     C   25   4.613   4.772   6.094 -0.3518 -0.0535 -0.0667
    1MOL0     C   26   4.570   4.870   6.186  0.3461 -0.3461  0.0297
    1MOL0     C   27   4.445   4.927   6.162  0.5233 -0.9685  0.0138
    1MOL0     C   28   4.354   4.880   6.062  0.0729  0.8115  0.2900
    1MOL0     C   29   4.209   4.935   6.053 -0.5489 -0.0598 -0.2787
    1MOL0     O   30   4.136   4.892   5.956  0.3894  0.3306  0.4159
    1MOL0     C   31   4.006   4.916   5.936 -0.6592 -0.2824  0.3025
    1MOL0     C   32   3.912   4.908   6.038 -0.2167 -0.0884 -0.9925
    1MOL0     C   33   3.774   4.930   6.007 -0.4750 -0.4127  0.5916
    1MOL0     C   34   3.741   4.989   5.887  0.4999  0.5178  0.7942
    1MOL0     O   35   3.619   5.042   5.848 -0.1548 -0.2732  0.4386
    1MOL0     C   36   3.516   5.029   5.942  0.1877 -0.2073 -0.0288
    1MOL0     C   37   3.366   5.037   5.893 -0.5930  0.0488  0.3667
    1MOL0     C   38   3.332   4.917   5.805  0.4279 -0.0085  0.5869
    1MOL0     C   39   3.186   4.923   5.737  0.3057 -0.3760  0.2691
    1MOL0     C   40   3.160   4.828   5.622  0.2688 -0.0437  0.3389
    1MOL0     C   41   3.100   4.693   5.668  0.1100  0.7893  0.5904
    1MOL0     C   42   3.041   4.613   5.553 -0.5437  0.0108  0.0588
    1MOL0     C   43   2.905   4.549   5.587  0.2243 -0.7208  0.1159
    1MOL0    Cl   44   2.922   4.452   5.728 -0.1869  0.3784 -0.5322
    1MOL0     C   45   3.839   5.012   5.788  0.1112 -1.4903  0.0978
    1MOL0     C   46   3.974   4.976   5.817  0.0049  0.2636 -0.4775
    1MOL0     O   47   4.175   5.014   6.143  0.6001 -0.4140  0.0866
    1MOL0     C   48   4.408   4.784   5.973  0.2850  0.6716 -0.6274
    1MOL0     C   49   4.536   4.736   5.982 -0.1071  0.0798 -0.0143
    1MOL0     N   50   5.305   5.008   5.863 -1.1051  0.8899  0.9370
    1MOL0     N   51   5.397   5.091   5.825 -0.7336 -0.0280  0.2222
    1MOL0     C   52   6.523   5.735   5.639 -0.6018  0.0650 -0.0965
    1MOL0     C   53   6.635   5.709   5.552  0.5720 -0.2384 -0.8485
    1MOL0     C   54   6.964   5.722   5.314 -0.4623  0.5376  0.9689
    1MOL0     C   55   7.085   5.782   5.309 -0.4710  0.0050  0.4199
    1MOL0     C   56   7.210   5.710   5.286 -0.7173  0.0875 -0.0026
    1MOL0     C   57   7.215   5.573   5.282  0.0190 -0.1147 -0.3561
    1MOL0     O   58   7.336   5.505   5.277 -0.1759 -0.7052 -0.9533
    1MOL0     C   59   7.334   5.367   5.236 -0.0802  0.1585  0.1935
    1MOL0     C   60   7.339   5.275   5.352 -0.3627  0.6605  1.5136
    1MOL0     C   61   7.374   5.131   5.301  0.5003  0.3547 -0.3856
    1MOL0     C   62   7.343   5.040   5.423  1.0515  0.3409 -0.9409
    1MOL0     C   63   7.203   4.999   5.408  0.4910 -0.0972 -0.4441
    1MOL0     C   64   7.087   4.957   5.393  0.3133 -0.3114  0.0911
    1MOL0     C   65   7.090   5.507   5.301 -0.8404  0.2059 -0.8443
    1MOL0     C   66   6.969   5.577   5.309  0.2109  0.0225 -0.5949
    1MOL0     H   67   6.497   5.859   5.268 -2.4524 -0.8073 -1.4398
    1MOL0     H   68   6.321   5.911   5.423  0.8902  0.3561 -0.9661
    1MOL0     H   69   6.283   5.641   5.756 -0.4367  0.8794  0.0229
    1MOL0     H   70   6.225   5.643   5.585  0.3198 -1.9302  0.3575
    1MOL0     H   71   6.026   5.796   5.672 -1.2870  0.9409  1.9970
    1MOL0     H   72   6.078   5.741   5.830 -0.1390 -1.7226  0.2793
    1MOL0     H   73   6.081   5.504   5.703 -1.3101  0.7128  0.0971
    1MOL0     H   74   5.977   5.602   5.586 -5.2596  0.3106  1.1098
    1MOL0     H   75   5.890   5.611   5.876  3.8301 -1.4689 -0.2498
    1MOL0     H   76   5.804   5.645   5.723  1.0139  0.8465  0.9750
    1MOL0     H   77   5.869   5.365   5.835 -3.3363 -0.8732  0.8380
    1MOL0     H   78   5.798   5.395   5.677 -0.4444 -1.7234 -0.1097
    1MOL0     H   79   5.607   5.512   5.802 -0.3082 -1.1760 -0.3931
    1MOL0     H   80   5.699   5.500   5.948  1.8869  0.5573 -0.6438
    1MOL0     H   81   5.605   5.251   5.780 -0.6981 -2.0397  1.1013
    1MOL0     H   82   5.658   5.247   5.938 -1.2370 -1.5617  1.0022
    1MOL0     H   83   5.398   5.406   5.846 -4.1334 -3.1902 -0.9738
    1MOL0     H   84   5.454   5.380   6.006  0.7282 -0.0646  0.8298
    1MOL0     H   85   5.262   5.234   6.089 -0.4344  0.3329 -0.4779
    1MOL0     H   86   5.095   5.078   6.121  2.0540  2.7530 -2.9251
    1MOL0     H   87   5.199   4.934   6.144 -0.4717 -1.3706  0.6394
    1MOL0     H   88   5.082   4.845   5.926 -1.6916 -0.0916 -1.4759
    1MOL0     H   89   4.996   4.995   5.923  1.3752 -1.0483 -3.2996
    1MOL0     H   90   4.989   4.788   6.153 -1.1474 -1.6302 -0.6175
    1MOL0     H   91   4.888   4.933   6.152  0.6962  2.0215 -2.1260
    1MOL0     H   92   4.880   4.704   5.952 -1.0796  1.2307 -1.8652
    1MOL0     H   93   4.788   4.850   5.939  2.0836 -0.9236 -1.9366
    1MOL0     H   94   4.641   4.897   6.263 -1.4165  0.8914  1.3206
    1MOL0     H   95   4.420   5.010   6.227 -0.7470 -2.7915  1.9970
    1MOL0     H   96   3.934   4.860   6.132 -3.1251 -0.1241 -0.2386
    1MOL0     H   97   3.699   4.909   6.082 -1.0277  1.4658  0.6135
    1MOL0     H   98   3.538   5.106   6.016  1.5169 -2.0561  1.6026
    1MOL0     H   99   3.522   4.936   5.999  1.9996 -0.9355 -1.3040
    1MOL0     H  100   3.353   5.129   5.836 -2.0979 -0.6614 -0.5018
    1MOL0     H  101   3.293   5.038   5.974 -0.2813  3.0950  0.7030
    1MOL0     H  102   3.346   4.828   5.867  0.7134  0.8626  1.8138
    1MOL0     H  103   3.408   4.913   5.725 -0.5146 -0.2455 -0.3221
    1MOL0     H  104   3.115   4.892   5.815  0.2084  1.0145  0.7572
    1MOL0     H  105   3.167   5.027   5.709 -0.8801 -0.7607 -0.4577
    1MOL0     H  106   3.246   4.796   5.561 -0.7266 -2.2070 -0.0104
    1MOL0     H  107   3.098   4.883   5.550  0.7020 -0.2475 -0.2039
    1MOL0     H  108   3.017   4.711   5.736 -0.7630 -1.2056  0.1435
    1MOL0     H  109   3.163   4.632   5.733 -0.9830 -0.8194  0.1925
    1MOL0     H  110   3.039   4.684   5.470 -0.7554  1.5084  1.2886
    1MOL0     H  111   3.102   4.528   5.521 -0.3874  0.9606 -2.3619
    1MOL0     H  112   2.874   4.490   5.501  0.2854 -1.4327  0.5743
    1MOL0     H  113   2.827   4.625   5.603 -1.8005 -3.0898  2.4498
    1MOL0     H  114   3.825   5.060   5.692 -0.9701  0.2152  1.0669
    1MOL0     H  115   4.050   4.990   5.741 -0.2088  2.2281 -0.3674
    1MOL0     H  116   4.343   4.744   5.897 -1.7220  1.8575  0.3920
    1MOL0     H  117   4.576   4.669   5.906  1.1821  2.1089 -1.2053
    1MOL0     H  118   6.503   5.703   5.740 -2.3349  0.2643 -0.3363
    1MOL0     H  119   6.717   5.649   5.590 -0.1605 -0.7725 -0.0508
    1MOL0     H  120   7.078   5.891   5.314 -1.3742  0.0045 -0.5822
    1MOL0     H  121   7.301   5.768   5.272 -1.0074  0.3355 -0.9545
    1MOL0     H  122   7.425   5.354   5.177  0.6074  3.7328  0.2873
    1MOL0     H  123   7.252   5.346   5.166 -1.0672 -1.5384  1.7690
    1MOL0     H  124   7.412   5.300   5.429  1.0048  0.3079  0.3730
    1MOL0     H  125   7.241   5.278   5.400 -0.7813 -1.0829  0.8530
    1MOL0     H  126   7.479   5.120   5.272  0.4211 -1.0427 -0.1729
    1MOL0     H  127   7.311   5.111   5.214  1.1250  0.0577 -0.7736
    1MOL0     H  128   7.408   4.952   5.423  0.3639 -0.1798 -1.5580
    1MOL0     H  129   7.365   5.092   5.517  0.9598 -1.6765  0.2652
    1MOL0     H  130   6.990   4.914   5.376  0.2357 -0.1174  0.0481
    1MOL0     H  131   7.095   5.399   5.306 -2.8520 -0.0617 -3.1397
    1MOL0     H  132   6.880   5.515   5.316  2.3917 -3.1524  2.3951
    2MOL0     O  133   4.201   9.011   8.742  0.0493 -0.1345  0.1192
    2MOL0     C  134   4.248   8.940   8.831  0.8161 -0.5171  0.2406
    2MOL0     O  135   4.179   8.844   8.913  0.1257 -0.7607  0.2241
    2MOL0     C  136   4.044   8.863   8.900 -0.1567  0.1247 -0.1496
    2MOL0     C  137   3.966   8.798   8.793 -0.4269 -0.7675  0.6661
    2MOL0     C  138   3.823   8.821   8.783 -0.1678 -0.5752 -0.0219
    2MOL0     C  139   3.762   8.913   8.876 -0.0002 -0.2403 -0.4962
    2MOL0     O  140   3.633   8.936   8.907  0.4752 -0.3555  0.1633
    2MOL0     C  141   3.536   8.842   8.869 -0.7154  0.0459 -1.0361
    2MOL0     C  142   3.460   8.872   8.750 -0.8073  0.0331 -0.1051
    2MOL0     C  143   3.364   8.761   8.720  0.5702 -0.4664  0.2298
    2MOL0     C  144   3.314   8.773   8.574  0.4958  0.1176 -0.2198
    2MOL0     C  145   3.189   8.691   8.556  0.3066 -0.0892 -1.1615
    2MOL0     C  146   3.158   8.665   8.409 -0.6296 -0.1311 -1.2063
    2MOL0     C  147   3.020   8.609   8.379  0.3880 -0.2683 -0.2404
    2MOL0     C  148   2.905   8.719   8.362  0.3304 -0.0860  0.1681
    2MOL0     N  149   2.773   8.667   8.400  0.0975 -0.0706  0.3997
    2MOL0     C  150   2.655   8.694   8.331 -0.8071  0.2517  0.5236
    2MOL0     C  151   2.555   8.645   8.413 -0.2877 -0.7403 -0.3531
    2MOL0     C  152   2.409   8.670   8.381 -0.3134  0.3731 -0.3960
    2MOL0     C  153   2.319   8.559   8.438 -0.0900 -0.4749 -0.4077
    2MOL0     C  154   2.174   8.597   8.434  0.8939 -0.0031 -0.2311
    2MOL0     C  155   2.122   8.678   8.556 -0.2628 -0.4130 -0.3537
    2MOL0     O  156   2.023   8.606   8.623  0.2509  0.8128 -0.1939
    2MOL0     C  157   1.886   8.629   8.599 -0.1993 -0.4403  0.3512
    2MOL0     C  158   1.834   8.701   8.493  0.3507 -0.2145  0.1204
    2MOL0     C  159   1.696   8.729   8.479 -0.0268 -0.3190  0.4093
    2MOL0     C  160   1.608   8.708   8.585  0.1901  1.0629  0.2278
    2MOL0     C  161   1.462   8.728   8.573  0.2180 -0.4720  1.1506
    2MOL0     O  162   1.422   8.801   8.464  0.0101  0.3724 -0.3175
    2MOL0     C  163   1.292   8.810   8.432 -0.5484  0.3581  0.6155
    2MOL0     C  164   1.220   8.928   8.425  0.3424 -0.0196 -0.2222
    2MOL0     C  165   1.089   8.929   8.383  0.3987  0.4309  0.0396
    2MOL0     C  166   1.028   8.808   8.358 -0.2696 -0.5543  0.0754
    2MOL0     O  167   0.898   8.799   8.327  0.5030  0.0723  0.2221
    2MOL0     C  168   0.823   8.899   8.255  0.0845 -0.7244  0.1201
    2MOL0     C  169   0.700   8.838   8.180 -0.3305  0.1669  0.3957
    2MOL0     C  170   0.641   8.924   8.086  0.6565  0.1703 -0.3742
    2MOL0     C  171   0.516   8.857   8.017  0.1721 -0.7022 -0.0439
    2MOL0     C  172   0.443   8.945   7.910 -0.2720 -0.2784 -0.3054
    2MOL0     C  173   0.347   8.858   7.827 -0.4535  0.1718 -0.2861
    2MOL0     C  174   0.214   8.837   7.894 -0.6337 -0.1655  0.3188
    2MOL0     C  175   0.104   8.795   7.800  0.2311 -0.6302  0.2674
    2MOL0    Cl  176   0.147   8.657   7.694 -0.1789 -0.2925  0.0693
    2MOL0     C  177   1.102   8.693   8.361 -0.5220  0.0658  0.0902
    2MOL0     C  178   1.231   8.688   8.401 -0.0168  0.5683 -0.8878
    2MOL0     O  179   1.387   8.667   8.647  0.0613  0.3220  0.0742
    2MOL0     C  180   1.664   8.645   8.701 -0.5663  0.1687  0.7272
    2MOL0     C  181   1.802   8.610   8.706 -0.8109 -0.0988 -0.0535
    2MOL0     N  182   2.619   8.605   8.531  0.6818  0.9220  0.3997
    2MOL0     N  183   2.739   8.627   8.525  0.1108  0.7537 -1.1380
    2MOL0     C  184   3.847   8.980   8.978  1.4414  1.7536  0.4938
    2MOL0     C  185   3.982   8.952   8.987 -1.3996 -0.6257 -0.1117
    2MOL0     C  186   4.396   8.948   8.860 -0.0032  0.0786  0.2622
    2MOL0     C  187   4.460   8.865   8.952  0.1135 -0.8171 -0.5642
    2MOL0     C  188   4.597   8.870   8.980 -0.9385 -1.1641  0.7166
    2MOL0     C  189   4.669   8.978   8.933  0.2124  0.0489 -0.9876
    2MOL0     O  190   4.804   8.988   8.966  0.2965  0.0492 -0.1139
    2MOL0     C  191   4.891   8.954   8.858  0.2176  0.1108  0.7159
    2MOL0     C  192   5.034   8.994   8.908 -0.2635  0.1370 -0.4712
    2MOL0     C  193   5.137   8.968   8.797 -1.0024 -0.6748  0.0643
    2MOL0     C  194   5.274   8.986   8.841 -0.0066 -0.1887  0.2766
    2MOL0     C  195   5.372   9.004   8.729 -0.0911  0.9543  0.6362
    2MOL0     C  196   5.452   9.024   8.635  0.5297 -1.6272 -0.1446
    2MOL0     C  197   4.610   9.054   8.836  1.4843  0.3515  0.0312
    2MOL0     C  198   4.474   9.046   8.798  0.1411  0.0924 -0.3098
    2MOL0     H  199   4.014   8.722   8.732 -0.0570  1.4852 -2.0338
    2MOL0     H  200   3.759   8.765   8.715 -0.8623 -1.9538  1.6808
    2MOL0     H  201   3.468   8.829   8.954  0.7060 -0.0857  0.1242
    2MOL0     H  202   3.575   8.740   8.863 -3.4990 -1.1791  0.0112
    2MOL0     H  203   3.524   8.896   8.665 -1.9699  1.5306 -0.5886
    2MOL0     H  204   3.398   8.961   8.761  0.6690  0.9149  1.4333
    2MOL0     H  205   3.272   8.750   8.778 -1.7508 -2.8574 -3.4652
    2MOL0     H  206   3.413   8.663   8.720  0.7615 -0.3733 -0.2852
    2MOL0     H  207   3.290   8.877   8.549 -0.5387 -0.2360 -0.7417
    2MOL0     H  208   3.393   8.746   8.504 -0.2007 -0.9049 -0.6394
    2MOL0     H  209   3.120   8.753   8.614  2.5638  1.5897 -0.1032
    2MOL0     H  210   3.201   8.592   8.603 -0.5304  0.3393  0.0073
    2MOL0     H  211   3.233   8.590   8.382  2.0831  2.2854 -0.8037
    2MOL0     H  212   3.175   8.754   8.348 -0.1374 -0.2571 -1.2624
    2MOL0     H  213   3.036   8.537   8.298  2.1041 -0.5507  0.3186
    2MOL0     H  214   2.987   8.540   8.457  1.6734  0.1699  0.7200
    2MOL0     H  215   2.900   8.767   8.264 -1.1483 -0.7084 -0.0923
    2MOL0     H  216   2.920   8.801   8.432 -1.0033 -0.7297  1.2687
    2MOL0     H  217   2.659   8.724   8.226  1.9789 -0.9905  0.1654
    2MOL0     H  218   2.380   8.668   8.275 -2.0806 -0.7687  0.0642
    2MOL0     H  219   2.381   8.770   8.415 -2.2622  0.6647 -2.6033
    2MOL0     H  220   2.346   8.527   8.540 -1.6702 -0.3425  0.0780
    2MOL0     H  221   2.349   8.473   8.378  0.8416 -0.7104  0.3587
    2MOL0     H  222   2.144   8.646   8.340  0.8410 -1.4235 -0.9871
    2MOL0     H  223   2.135   8.495   8.447  0.8359  0.0691  0.1804
    2MOL0     H  224   2.074   8.771   8.526 -1.6831 -1.7217 -2.3980
    2MOL0     H  225   2.205   8.711   8.619 -0.1537 -0.7320 -0.3264
    2MOL0     H  226   1.903   8.723   8.412 -0.9215 -1.5516 -1.4123
    2MOL0     H  227   1.670   8.791   8.393  2.9380 -1.3680 -1.4262
    2MOL0     H  228   1.265   9.021   8.458 -2.4478  1.3051  0.1276
    2MOL0     H  229   1.023   9.014   8.394  0.0869  0.0598  1.1798
    2MOL0     H  230   0.889   8.933   8.174 -0.5572 -1.1867 -0.6142
    2MOL0     H  231   0.800   8.987   8.315  1.1382 -0.4643  0.1604
    2MOL0     H  232   0.626   8.808   8.255 -1.1213  1.2783  0.0733
    2MOL0     H  233   0.735   8.743   8.137 -2.4608  0.6906 -2.8019
    2MOL0     H  234   0.715   8.935   8.007  0.9161 -0.5373 -0.2323
    2MOL0     H  235   0.610   9.015   8.139 -2.0149 -1.2946  0.7965
    2MOL0     H  236   0.566   8.778   7.960  0.7524 -0.0596 -0.4301
    2MOL0     H  237   0.452   8.811   8.093  0.5377  0.1631  0.8017
    2MOL0     H  238   0.529   8.978   7.851  1.9359 -3.1683  1.0513
    2MOL0     H  239   0.398   9.033   7.956  0.6359  1.2301 -2.1953
    2MOL0     H  240   0.388   8.759   7.808  0.3195  0.2747  0.7973
    2MOL0     H  241   0.321   8.902   7.730 -0.0147 -3.5172 -2.2704
    2MOL0     H  242   0.225   8.758   7.969 -1.6087 -0.2319  0.4130
    2MOL0     H  243   0.179   8.926   7.948 -2.7576  0.8941 -2.5718
    2MOL0     H  244   0.077   8.880   7.737 -2.5246 -0.6867  1.2323
    2MOL0     H  245   0.016   8.768   7.860 -0.2224 -0.3498 -0.2553
    2MOL0     H  246   1.053   8.600   8.334 -1.3197  0.3876  0.4124
    2MOL0     H  247   1.277   8.590   8.404 -1.0608  0.0703 -0.1147
    2MOL0     H  248   1.603   8.622   8.788 -0.2775  4.2245  2.2238
    2MOL0     H  249   1.851   8.558   8.788  2.0524  1.8941 -0.3630
    2MOL0     H  250   3.793   9.040   9.051 -3.2504 -1.7596  0.4057
    2MOL0     H  251   4.039   8.993   9.069 -2.3844 -0.9896  0.7713
    2MOL0     H  252   4.407   8.790   9.011 -2.1193  2.2404  1.5929
    2MOL0     H  253   4.637   8.790   9.042  0.9668  0.6809  1.9879
    2MOL0     H  254   4.865   9.015   8.771 -0.3939  0.3492  1.0591
    2MOL0     H  255   4.894   8.847   8.837 -2.7285  0.1318 -0.3528
    2MOL0     H  256   5.032   9.101   8.929 -1.4076  0.4612 -2.0589
    2MOL0     H  257   5.058   8.932   8.995  0.5620 -0.0439 -0.8220
    2MOL0     H  258   5.116   9.046   8.724 -0.5426  1.0122  1.6521
    2MOL0     H  259   5.116   8.871   8.751  2.3520 -1.5028  0.0371
    2MOL0     H  260   5.276   9.078   8.900  1.7193  0.5481 -0.8696
    2MOL0     H  261   5.305   8.907   8.909 -1.4051 -0.1917  0.9518
    2MOL0     H  262   5.528   9.039   8.562  1.3613 -3.7714  0.1926
    2MOL0     H  263   4.669   9.143   8.812  3.9843 -0.0757  3.6978
    2MOL0     H  264   4.438   9.114   8.722  1.6743 -1.7017 -2.7587
    3MOL0     O  265   1.909   3.256   4.669  0.3012 -0.0796  0.3928
    3MOL0     C  266   1.973   3.359   4.682  0.1081  0.0824  0.2643
    3MOL0     O  267   1.924   3.480   4.736 -0.1391 -0.0024  0.3674
    3MOL0     C  268   1.792   3.505   4.760 -0.2466  0.6209 -0.0452
    3MOL0     C  269   1.686   3.412   4.778 -0.6342  0.2272  1.3679
    3MOL0     C  270   1.555   3.455   4.818 -0.6723  1.0807  0.3721
    3MOL0     C  271   1.526   3.594   4.842 -0.5673  0.6954  0.1660
    3MOL0     O  272   1.399   3.616   4.885  0.5464 -0.0595  0.3278
    3MOL0     C  273   1.343   3.751   4.897  1.0032  0.0056 -0.7866
    3MOL0     C  274   1.203   3.750   4.960 -0.6718  0.2959  0.5154
    3MOL0     C  275   1.192   3.640   5.067  0.2497  0.9394  0.2979
    3MOL0     C  276   1.056   3.638   5.141  0.0713 -0.1167 -0.5364
    3MOL0     C  277   1.011   3.496   5.183 -0.7982 -0.2067 -1.0367
    3MOL0     C  278   0.883   3.479   5.254 -0.6833  0.1930  0.8020
    3MOL0     C  279   0.753   3.525   5.174 -0.1391 -0.5369 -0.8219
    3MOL0     C  280   0.629   3.469   5.249 -0.1087  0.7264 -0.1566
    3MOL0     N  281   0.612   3.518   5.381  0.0780  0.1573  0.1064
    3MOL0     C  282   0.596   3.648   5.432  0.7401 -0.4952 -0.5366
    3MOL0     C  283   0.554   3.633   5.563 -0.7846  0.6526  0.2733
    3MOL0     C  284   0.529   3.746   5.663 -0.0166  1.1052  0.7692
    3MOL0     C  285   0.381   3.744   5.716  0.5891  0.8761 -0.5638
    3MOL0     C  286   0.271   3.725   5.606 -0.4041  0.5390 -0.0693
    3MOL0     C  287   0.135   3.752   5.667  0.2166 -0.5177 -0.0293
    3MOL0     O  288   0.047   3.764   5.552  0.4511  0.0259 -0.0104
    3MOL0     C  289  -0.087   3.729   5.580  0.7164  0.7940  0.0490
    3MOL0     C  290  -0.158   3.810   5.668  0.0991 -0.6217 -0.3728
    3MOL0     C  291  -0.290   3.780   5.698  0.1690 -0.0117  0.1724
    3MOL0     C  292  -0.353   3.664   5.646  0.3710 -1.0805 -0.1208
    3MOL0     C  293  -0.501   3.631   5.672 -0.8131  0.2926  0.5718
    3MOL0     O  294  -0.551   3.527   5.610 -0.0434  0.8348 -0.0300
    3MOL0     C  295  -0.682   3.486   5.647 -0.4384  0.2667  0.5358
    3MOL0     C  296  -0.704   3.424   5.772 -0.2359 -0.3943  0.3549
    3MOL0     C  297  -0.827   3.392   5.818  0.1703 -0.1475  0.0460
    3MOL0     C  298  -0.939   3.414   5.731  0.3011  0.2331  0.2897
    3MOL0     O  299  -1.063   3.383   5.777  0.4591  0.0891  0.1281
    3MOL0     C  300  -1.157   3.351   5.667  0.5177  0.0777  0.0131
    3MOL0     C  301  -1.288   3.285   5.708  0.3778 -0.2792  0.2496
    3MOL0     C  302  -1.258   3.169   5.806 -0.3188  0.5872 -0.6047
    3MOL0     C  303  -1.398   3.122   5.857  0.2448  0.2240 -0.3285
    3MOL0     C  304  -1.450   3.203   5.978  0.4932  0.6247 -0.3306
    3MOL0     C  305  -1.596   3.164   6.006 -0.0610  0.0873  0.0713
    3MOL0     C  306  -1.652   3.251   6.126  0.2099 -0.3897  0.1085
    3MOL0     C  307  -1.801   3.229   6.162 -1.1778  0.5096  0.2361
    3MOL0    Cl  308  -1.907   3.285   6.039 -0.0698  0.2082  0.0081
    3MOL0     C  309  -0.912   3.476   5.606 -0.0729  0.5183 -0.5228
    3MOL0     C  310  -0.787   3.513   5.563 -0.2242  0.3288 -0.6502
    3MOL0     O  311  -0.562   3.701   5.746 -0.3324 -1.1030  0.5104
    3MOL0     C  312  -0.271   3.580   5.565  0.3846  0.2517  1.2786
    3MOL0     C  313  -0.144   3.616   5.528  0.0975  0.0340  0.2442
    3MOL0     N  314   0.563   3.498   5.585 -0.3908 -0.3986  0.0494
    3MOL0     N  315   0.600   3.429   5.483  0.0644 -0.4709 -0.3519
    3MOL0     C  316   1.627   3.679   4.828 -0.7816  0.0648 -0.3169
    3MOL0     C  317   1.760   3.640   4.782  0.9588 -0.3987  0.0559
    3MOL0     C  318   2.122   3.365   4.646  0.5468  0.4354 -0.3001
    3MOL0     C  319   2.184   3.256   4.586  1.1142 -0.1175 -0.0978
    3MOL0     C  320   2.318   3.258   4.562 -0.1124  0.5931 -0.0215
    3MOL0     C  321   2.402   3.369   4.581 -0.0494  0.0772  0.3677
    3MOL0     O  322   2.523   3.377   4.518  0.3965 -0.3216 -0.4044
    3MOL0     C  323   2.567   3.509   4.482 -0.1868  0.1868 -0.9406
    3MOL0     C  324   2.708   3.497   4.423 -0.0632 -0.3351 -0.0149
    3MOL0     C  325   2.797   3.452   4.538 -0.0701 -0.1095  0.0471
    3MOL0     C  326   2.933   3.408   4.484  0.0350  0.4750 -0.1214
    3MOL0     C  327   3.039   3.427   4.588  0.2950  0.3598 -0.1570
    3MOL0     C  328   3.118   3.431   4.676  0.1358  0.4380  0.8566
    3MOL0     C  329   2.336   3.477   4.649 -0.0168 -0.8209  0.2505
    3MOL0     C  330   2.195   3.479   4.671 -0.1653  0.3638 -0.5900
    3MOL0     H  331   1.683   3.308   4.748 -1.9180  0.6142  0.0061
    3MOL0     H  332   1.474   3.384   4.834 -2.6783  2.5986 -2.1791
    3MOL0     H  333   1.339   3.802   4.801  2.1902  0.0995 -0.8106
    3MOL0     H  334   1.414   3.805   4.960  1.6474  1.2754 -2.5392
    3MOL0     H  335   1.126   3.723   4.888 -2.2139  0.3353  2.0972
    3MOL0     H  336   1.176   3.848   5.000 -3.6077 -0.1780 -0.0941
    3MOL0     H  337   1.275   3.641   5.138  0.2237  0.1392  0.3502
    3MOL0     H  338   1.196   3.545   5.012  1.7697  2.1839 -1.9154
    3MOL0     H  339   1.078   3.702   5.227  0.8031 -3.1774  1.7271
    3MOL0     H  340   0.978   3.678   5.076  1.1311 -1.5601 -2.8103
    3MOL0     H  341   1.096   3.443   5.227 -0.4919 -0.2282 -1.6311
    3MOL0     H  342   0.994   3.446   5.087  0.9469 -2.5481 -0.2300
    3MOL0     H  343   0.879   3.538   5.346 -0.1451  1.3952  0.0722
    3MOL0     H  344   0.875   3.372   5.277 -1.6687  0.0773  0.0078
    3MOL0     H  345   0.733   3.633   5.175 -0.8372 -0.6612 -0.2465
    3MOL0     H  346   0.762   3.497   5.069  1.2361 -2.5565 -0.2297
    3MOL0     H  347   0.637   3.361   5.235  0.2874  0.9434 -1.7548
    3MOL0     H  348   0.540   3.495   5.190  0.1031  0.4464 -0.6020
    3MOL0     H  349   0.615   3.747   5.391 -0.5201  0.3274  0.7947
    3MOL0     H  350   0.564   3.840   5.620  3.7059  0.1111  1.2104
    3MOL0     H  351   0.598   3.735   5.748  2.0278  1.7564 -0.7205
    3MOL0     H  352   0.369   3.843   5.762  3.6947  1.0682  0.0756
    3MOL0     H  353   0.374   3.674   5.800  0.2302  1.7849  0.1927
    3MOL0     H  354   0.296   3.798   5.528  0.9276  0.7676  0.5406
    3MOL0     H  355   0.287   3.633   5.548  2.5607  1.1936 -0.4249
    3MOL0     H  356   0.147   3.855   5.704  0.0532 -0.2005 -0.8305
    3MOL0     H  357   0.093   3.681   5.738 -4.8406  1.7394 -0.3080
    3MOL0     H  358  -0.115   3.901   5.710 -0.7358 -0.7965  0.9387
    3MOL0     H  359  -0.350   3.848   5.758  0.4766  0.3787  0.0384
    3MOL0     H  360  -0.621   3.410   5.840  0.1261  0.4766  0.0957
    3MOL0     H  361  -0.845   3.365   5.922  0.7364 -0.7715 -0.0083
    3MOL0     H  362  -1.119   3.278   5.594  1.3221  1.5655 -1.1284
    3MOL0     H  363  -1.178   3.447   5.618 -0.2582 -0.3322 -0.4822
    3MOL0     H  364  -1.333   3.232   5.624  0.8513 -0.1460 -0.0950
    3MOL0     H  365  -1.352   3.366   5.745  0.2797 -0.7214  1.0533
    3MOL0     H  366  -1.205   3.205   5.895 -0.5369 -1.5896  0.4829
    3MOL0     H  367  -1.201   3.092   5.753  0.5928  0.7818  0.0797
    3MOL0     H  368  -1.481   3.137   5.788  0.0051 -0.7298 -0.2597
    3MOL0     H  369  -1.385   3.014   5.868  1.8995  0.3250 -0.9875
    3MOL0     H  370  -1.440   3.310   5.958 -3.9245  1.5899  1.5702
    3MOL0     H  371  -1.399   3.170   6.069  0.7911  0.2228 -0.6382
    3MOL0     H  372  -1.612   3.057   6.019 -2.8112  0.1203 -2.0801
    3MOL0     H  373  -1.658   3.190   5.920 -0.3386 -2.8741 -0.7452
    3MOL0     H  374  -1.599   3.229   6.219 -2.2443  1.4841  2.0696
    3MOL0     H  375  -1.635   3.358   6.112 -2.0727 -0.1978 -1.6710
    3MOL0     H  376  -1.819   3.291   6.250 -0.1961 -0.3137  1.0505
    3MOL0     H  377  -1.822   3.125   6.189 -0.6019  0.7796  1.8214
    3MOL0     H  378  -0.996   3.484   5.539 -1.1251 -0.0235  0.6759
    3MOL0     H  379  -0.769   3.553   5.463  0.9347 -3.0579 -1.9267
    3MOL0     H  380  -0.308   3.485   5.528  1.0194  0.4990 -0.0574
    3MOL0     H  381  -0.094   3.565   5.446 -3.0160  1.1089 -2.5375
    3MOL0     H  382   1.611   3.781   4.860 -0.0093  0.6814 -1.8142
    3MOL0     H  383   1.840   3.712   4.793  1.4865 -0.9886  0.1328
    3MOL0     H  384   2.144   3.160   4.555  3.2497 -1.4183  0.9122
    3MOL0     H  385   2.346   3.174   4.498 -4.8551 -0.0409 -1.6735
    3MOL0     H  386   2.567   3.575   4.569 -0.5420  0.6160 -1.2627
    3MOL0     H  387   2.499   3.558   4.412 -0.9181  0.3183 -0.1595
    3MOL0     H  388   2.693   3.424   4.343 -0.4807  0.2854 -0.5171
    3MOL0     H  389   2.750   3.589   4.380  1.5626 -2.3543 -3.0766
    3MOL0     H  390   2.750   3.366   4.586  1.3603 -0.3059  1.1447
    3MOL0     H  391   2.812   3.537   4.605 -0.2721  1.1347 -1.4094
    3MOL0     H  392   2.927   3.304   4.451  1.2475  0.8511 -1.6554
    3MOL0     H  393   2.964   3.473   4.401  2.6079 -0.1048  0.3121
    3MOL0     H  394   3.186   3.426   4.759  0.2386 -0.6445  0.7241
    3MOL0     H  395   2.390   3.568   4.672 -0.2782 -0.8334  0.9402
    3MOL0     H  396   2.153   3.567   4.719 -3.9227 -0.1705 -2.5086
    4MOL0     O  397   5.470   4.884   3.605  0.1744 -0.7388  0.1123
    4MOL0     C  398   5.552   4.965   3.571  0.1778 -0.2341  0.1960
    4MOL0     O  399   5.529   5.100   3.565  0.6547 -0.1619 -0.2104
    4MOL0     C  400   5.403   5.159   3.560 -0.0896 -0.6255  0.6751
    4MOL0     C  401   5.286   5.091   3.508  0.1052  0.4226 -0.3034
    4MOL0     C  402   5.167   5.165   3.510 -0.7071  0.0790  0.1868
    4MOL0     C  403   5.154   5.297   3.566  1.0115  0.4950  0.1363
    4MOL0     O  404   5.038   5.372   3.576  0.4295 -0.6893  0.1686
    4MOL0     C  405   4.914   5.324   3.515  0.1178 -0.0935 -0.7872
    4MOL0     C  406   4.799   5.413   3.554  0.0197 -0.4067 -0.0518
    4MOL0     C  407   4.787   5.553   3.496  0.2437 -0.0188  0.5785
    4MOL0     C  408   4.681   5.622   3.577  0.7854 -0.2601 -0.4098
    4MOL0     C  409   4.546   5.537   3.592 -0.6787  0.4631 -0.6339
    4MOL0     C  410   4.428   5.619   3.646  0.5126 -0.1099  0.2857
    4MOL0     C  411   4.296   5.544   3.651 -0.2848  0.7969 -0.0828
    4MOL0     C  412   4.184   5.649   3.635  0.3926 -0.5115  0.1955
    4MOL0     N  413   4.054   5.582   3.643  0.2027  0.3216 -0.1536
    4MOL0     C  414   3.969   5.555   3.536 -0.0377 -0.0187 -0.0632
    4MOL0     C  415   3.865   5.476   3.585 -0.8046 -0.2397  0.7148
    4MOL0     C  416   3.746   5.414   3.517 -1.1961 -0.3191  0.3606
    4MOL0     C  417   3.647   5.528   3.475  0.2353 -0.8506 -0.0364
    4MOL0     C  418   3.596   5.633   3.588  1.7657  0.6014 -0.6733
    4MOL0     C  419   3.504   5.573   3.691 -0.0133  0.8091  0.3947
    4MOL0     O  420   3.376   5.542   3.625 -0.2528 -0.0658 -0.1185
    4MOL0     C  421   3.273   5.502   3.702 -0.2123 -0.4783  1.1816
    4MOL0     C  422   3.150   5.471   3.635  0.7460  0.0724  0.2524
    4MOL0     C  423   3.036   5.429   3.710  0.0024 -0.5163  0.3007
    4MOL0     C  424   3.049   5.411   3.848  0.6370 -0.0292  0.2721
    4MOL0     C  425   2.943   5.337   3.923  0.1718  0.0964  0.3903
    4MOL0     O  426   2.821   5.299   3.851 -0.6851 -0.1135 -0.2551
    4MOL0     C  427   2.729   5.218   3.909 -0.2768  0.4246  0.4064
    4MOL0     C  428   2.751   5.144   4.028 -0.1930  0.2110 -0.0387
    4MOL0     C  429   2.654   5.061   4.086 -0.2166  0.4215 -0.6850
    4MOL0     C  430   2.531   5.063   4.034  0.7554 -0.1414 -0.0080
    4MOL0     O  431   2.436   4.991   4.105  0.8087  0.2937  0.2406
    4MOL0     C  432   2.328   4.929   4.024 -0.5090 -0.3718  0.6053
    4MOL0     C  433   2.253   4.830   4.113  1.2577 -0.0728  0.5580
    4MOL0     C  434   2.147   4.755   4.032 -0.0044  0.0858 -0.0987
    4MOL0     C  435   2.027   4.711   4.113 -0.3182  0.4104  0.4388
    4MOL0     C  436   1.922   4.634   4.038  1.0523 -0.6178 -0.4420
    4MOL0     C  437   1.800   4.592   4.124 -1.2319 -1.3603 -0.0385
    4MOL0     C  438   1.727   4.481   4.044  0.5563  0.0938 -0.1171
    4MOL0     C  439   1.627   4.409   4.138  0.0386  0.1680  0.9586
    4MOL0    Cl  440   1.512   4.309   4.060  0.1012 -0.4503 -0.0195
    4MOL0     C  441   2.501   5.141   3.922  0.9510  0.7267  0.2129
    4MOL0     C  442   2.603   5.203   3.853 -0.2612 -0.7874 -0.6260
    4MOL0     O  443   2.958   5.342   4.046  0.7100  0.0686 -0.7398
    4MOL0     C  444   3.166   5.442   3.914 -0.4050  0.3597  0.3115
    4MOL0     C  445   3.278   5.483   3.843  0.6499  0.2837 -0.4506
    4MOL0     N  446   3.889   5.472   3.723  0.1595 -0.7707 -0.4206
    4MOL0     N  447   3.997   5.533   3.755 -0.0165 -0.2516  0.0581
    4MOL0     C  448   5.273   5.353   3.618  0.0937 -0.2043  1.0590
    4MOL0     C  449   5.395   5.284   3.618  0.1597  0.1141  0.2571
    4MOL0     C  450   5.692   4.924   3.556 -0.7297 -0.2072  0.4423
    4MOL0     C  451   5.794   5.020   3.556 -0.2197 -0.5867  1.3901
    4MOL0     C  452   5.927   4.983   3.537 -0.2412 -0.2516  0.4384
    4MOL0     C  453   5.960   4.847   3.515 -0.4709 -0.2175  0.3379
    4MOL0     O  454   6.097   4.818   3.504  0.4094 -0.1852  0.1966
    4MOL0     C  455   6.122   4.700   3.428 -0.2936 -0.1013  0.3910
    4MOL0     C  456   6.144   4.577   3.508  0.3003  0.1263 -0.2925
    4MOL0     C  457   6.256   4.600   3.613 -0.9076  0.2708  0.1362
    4MOL0     C  458   6.329   4.473   3.650  0.3917  1.7716 -0.2719
    4MOL0     C  459   6.464   4.481   3.703 -0.0364  0.0746 -0.4146
    4MOL0     C  460   6.577   4.508   3.740  0.6319  1.3701 -0.6164
    4MOL0     C  461   5.855   4.752   3.530  0.2422 -0.2262 -0.6006
    4MOL0     C  462   5.725   4.793   3.551 -0.1488  0.2521  1.3410
    4MOL0     H  463   5.294   4.992   3.465  0.9190  0.8779 -1.2207
    4MOL0     H  464   5.075   5.127   3.465 -0.7562 -2.6821  2.3667
    4MOL0     H  465   4.905   5.226   3.562  0.0312  1.5848  3.0126
    4MOL0     H  466   4.932   5.324   3.407 -0.6073  0.6313 -0.9237
    4MOL0     H  467   4.812   5.429   3.662  2.5400  1.3235 -0.5340
    4MOL0     H  468   4.709   5.352   3.542  0.6594 -1.9207  2.1368
    4MOL0     H  469   4.741   5.541   3.398 -1.5096 -0.0606  1.3644
    4MOL0     H  470   4.885   5.601   3.499  1.7675 -2.8858  3.1692
    4MOL0     H  471   4.723   5.641   3.677 -0.6570  0.2198  0.1343
    4MOL0     H  472   4.655   5.719   3.534 -3.4688 -1.5887 -1.3192
    4MOL0     H  473   4.566   5.448   3.651 -2.6305  1.1237  1.1695
    4MOL0     H  474   4.520   5.492   3.496 -1.6245  3.3956 -1.8582
    4MOL0     H  475   4.419   5.703   3.577 -2.8832 -0.2118  0.4648
    4MOL0     H  476   4.448   5.650   3.749  2.3634  0.6280 -0.2448
    4MOL0     H  477   4.285   5.481   3.562 -3.1831  1.2483 -0.1381
    4MOL0     H  478   4.273   5.483   3.738 -1.0658  2.1617  0.7049
    4MOL0     H  479   4.199   5.700   3.539  1.4586  1.3557  1.2879
    4MOL0     H  480   4.191   5.721   3.718  0.0292  0.2840 -0.4510
    4MOL0     H  481   3.985   5.571   3.430 -0.5432  1.6147  0.0790
    4MOL0     H  482   3.698   5.350   3.591 -0.9743 -1.6008 -0.5818
    4MOL0     H  483   3.781   5.343   3.441  0.5441 -3.1412  3.5247
    4MOL0     H  484   3.553   5.489   3.436  0.9559 -2.2519 -0.4415
    4MOL0     H  485   3.696   5.585   3.396 -0.0166 -0.4638  0.0838
    4MOL0     H  486   3.685   5.674   3.638  0.9446  0.1835  1.2008
    4MOL0     H  487   3.538   5.708   3.534  1.4094  0.3560 -0.6297
    4MOL0     H  488   3.492   5.642   3.775  1.9444  0.7026  0.7970
    4MOL0     H  489   3.548   5.485   3.738 -0.5141  1.9014  3.1065
    4MOL0     H  490   3.152   5.492   3.529  3.0293  0.9127  0.3880
    4MOL0     H  491   2.946   5.403   3.655 -1.1306  0.2198  1.7608
    4MOL0     H  492   2.848   5.147   4.076 -1.2429 -0.2742  2.2855
    4MOL0     H  493   2.680   5.016   4.181 -1.1390  2.6231  0.6962
    4MOL0     H  494   2.367   4.885   3.932 -1.5568  1.5238 -0.8277
    4MOL0     H  495   2.262   5.009   3.990 -0.6742 -0.7887 -0.0691
    4MOL0     H  496   2.193   4.886   4.185 -0.9113 -0.0480 -1.1828
    4MOL0     H  497   2.312   4.756   4.168  0.3397 -1.6914 -0.5578
    4MOL0     H  498   2.188   4.675   3.969  1.7060  1.4888 -0.8575
    4MOL0     H  499   2.121   4.821   3.949 -1.6766  1.1529  1.2211
    4MOL0     H  500   2.055   4.652   4.201 -2.1895 -1.3076 -0.0494
    4MOL0     H  501   1.978   4.797   4.160  0.4997  0.6289  0.9067
    4MOL0     H  502   1.981   4.547   4.008  4.6063  1.0533  1.1162
    4MOL0     H  503   1.873   4.678   3.951  1.7639  0.5616 -0.2601
    4MOL0     H  504   1.728   4.671   4.147 -1.0361 -1.5559  1.3112
    4MOL0     H  505   1.845   4.567   4.221  0.9325  5.4818  1.3016
    4MOL0     H  506   1.673   4.526   3.960 -0.2208 -1.6445 -0.5959
    4MOL0     H  507   1.793   4.402   4.006 -0.6333 -1.5257  1.0523
    4MOL0     H  508   1.577   4.492   4.189  1.0265  1.6033 -0.3310
    4MOL0     H  509   1.681   4.345   4.209  1.5359  0.5230  0.1693
    4MOL0     H  510   2.404   5.146   3.873  1.0644  0.1717 -0.0762
    4MOL0     H  511   2.573   5.264   3.769 -0.4173  2.4067  1.5602
    4MOL0     H  512   3.176   5.438   4.022 -1.0837  0.8483  0.3976
    4MOL0     H  513   3.363   5.515   3.903 -0.1407  0.1719  0.7372
    4MOL0     H  514   5.272   5.455   3.656 -1.5674  0.2132  0.0082
    4MOL0     H  515   5.483   5.333   3.658  1.3121 -0.4486 -1.4563
    4MOL0     H  516   5.779   5.126   3.575 -0.7868  0.2197 -2.6086
    4MOL0     H  517   6.007   5.057   3.538  0.5411 -1.0765  1.5067
    4MOL0     H  518   6.211   4.708   3.363 -0.7519 -1.9605 -0.5480
    4MOL0     H  519   6.044   4.682   3.354 -1.2005 -2.8136  1.8788
    4MOL0     H  520   6.051   4.537   3.550 -1.7986  0.6188 -4.0101
    4MOL0     H  521   6.178   4.505   3.433 -1.6436 -1.7115  0.4951
    4MOL0     H  522   6.205   4.624   3.707 -0.5025 -0.1520  0.4716
    4MOL0     H  523   6.326   4.676   3.578  0.5359 -1.8142 -1.8130
    4MOL0     H  524   6.269   4.426   3.729 -1.5147  0.5708 -2.3018
    4MOL0     H  525   6.338   4.413   3.559  0.5687 -0.1437  0.9525
    4MOL0     H  526   6.673   4.539   3.775  1.0546 -1.3982  0.8959
    4MOL0     H  527   5.886   4.648   3.532  3.5685  0.6427  1.9483
    4MOL0     H  528   5.656   4.710   3.564 -2.2120  2.1115  2.9573
    5MOL0     O  529   0.629   1.052   9.890 -0.2088  0.2920  0.2298
    5MOL0     C  530   0.702   1.020   9.796 -0.8687 -0.6315 -0.1879
    5MOL0     O  531   0.662   0.947   9.692  0.3081 -0.9129  0.0116
    5MOL0     C  532   0.530   0.913   9.682  0.8748  0.1743  0.7605
    5MOL0     C  533   0.454   0.856   9.792  0.5329  0.3968  0.1972
    5MOL0     C  534   0.320   0.814   9.781 -0.5665  0.6677  0.1179
    5MOL0     C  535   0.253   0.837   9.661  0.0991 -0.1018 -1.0204
    5MOL0     O  536   0.121   0.798   9.643  0.0184  0.0517 -0.4884
    5MOL0     C  537   0.030   0.876   9.559  0.1303 -0.7090  0.3726
    5MOL0     C  538  -0.104   0.835   9.575  0.3200 -0.4077 -0.0355
    5MOL0     C  539  -0.206   0.923   9.504  0.0917  0.0478  0.0093
    5MOL0     C  540  -0.342   0.893   9.541  0.6960 -0.4793  0.3359
    5MOL0     C  541  -0.437   0.990   9.467 -0.2694 -0.0948 -0.1956
    5MOL0     C  542  -0.469   0.941   9.326 -0.3009  0.6047 -0.3394
    5MOL0     C  543  -0.596   1.002   9.263 -0.0457 -0.3544 -0.3654
    5MOL0     C  544  -0.633   0.913   9.144 -0.0261  0.2980  0.4597
    5MOL0     N  545  -0.762   0.958   9.083  0.2873 -0.0285  0.4120
    5MOL0     C  546  -0.771   1.041   8.976 -0.2512  0.4744 -0.0357
    5MOL0     C  547  -0.905   1.058   8.951 -0.4728 -0.6485 -0.0312
    5MOL0     C  548  -0.962   1.127   8.826 -0.4097 -0.0252 -0.5113
    5MOL0     C  549  -1.113   1.127   8.834  0.4397 -1.0267 -0.9495
    5MOL0     C  550  -1.182   1.167   8.715  0.2217 -0.3976  0.0447
    5MOL0     C  551  -1.336   1.180   8.722  0.1152  1.2233  0.2759
    5MOL0     O  552  -1.401   1.058   8.771  0.4934  0.3307  0.3257
    5MOL0     C  553  -1.537   1.027   8.759 -0.8178  0.3963 -0.0606
    5MOL0     C  554  -1.574   0.901   8.810 -0.7459 -0.8816 -1.3172
    5MOL0     C  555  -1.703   0.856   8.787  1.1636 -0.2591  0.7328
    5MOL0     C  556  -1.802   0.940   8.724 -0.1460  0.1489  0.5372
    5MOL0     C  557  -1.943   0.902   8.709 -0.7143  0.1661 -0.0836
    5MOL0     O  558  -1.997   0.813   8.803 -0.7441  0.2622  0.0350
    5MOL0     C  559  -2.119   0.754   8.765  0.3418  1.0573  0.1549
    5MOL0     C  560  -2.240   0.786   8.829  0.1053  0.6429 -0.2588
    5MOL0     C  561  -2.360   0.712   8.797 -0.6122 -1.1221  0.2282
    5MOL0     C  562  -2.353   0.609   8.703 -0.0689 -0.3187 -0.4868
    5MOL0     O  563  -2.471   0.545   8.684 -0.1114  0.1818  0.6162
    5MOL0     C  564  -2.503   0.503   8.551 -0.1874  0.3703 -0.1677
    5MOL0     C  565  -2.644   0.447   8.553 -0.6396  0.7168 -0.2864
    5MOL0     C  566  -2.739   0.559   8.594  0.1173  0.5107 -0.2831
    5MOL0     C  567  -2.886   0.514   8.616 -0.8208 -0.1252 -0.1168
    5MOL0     C  568  -2.979   0.631   8.619 -0.7915 -0.3280 -0.7433
    5MOL0     C  569  -3.115   0.603   8.671  1.1642 -0.4073  0.5241
    5MOL0     C  570  -3.178   0.504   8.568 -0.9386 -0.1762  0.1371
    5MOL0     C  571  -3.326   0.488   8.604 -0.5694 -0.4179 -0.0535
    5MOL0    Cl  572  -3.399   0.410   8.470  0.2758 -0.2351  0.0462
    5MOL0     C  573  -2.228   0.575   8.647  0.1039  1.1309 -0.9533
    5MOL0     C  574  -2.116   0.649   8.679 -0.3437  0.5965 -0.4968
    5MOL0     O  575  -1.998   0.958   8.614 -0.0707  0.2322 -0.1429
    5MOL0     C  576  -1.759   1.074   8.676 -0.1502  0.2455  0.4399
    5MOL0     C  577  -1.623   1.107   8.691 -0.6842  0.1902  0.3507
    5MOL0     N  578  -0.972   1.004   9.059 -0.2809  0.2608 -0.7063
    5MOL0     N  579  -0.885   0.936   9.129 -0.4610  1.2996  0.1198
    5MOL0     C  580   0.323   0.906   9.561 -0.2171  0.1679 -0.0196
    5MOL0     C  581   0.461   0.926   9.562 -0.0603  0.0150 -1.1429
    5MOL0     C  582   0.835   1.079   9.795 -0.9781  0.8537 -0.1885
    5MOL0     C  583   0.907   1.077   9.674  0.3284 -0.2764 -0.3195
    5MOL0     C  584   1.032   1.134   9.673  0.2780 -0.1650 -0.1803
    5MOL0     C  585   1.099   1.177   9.783 -0.3320  0.4208  0.0505
    5MOL0     O  586   1.227   1.231   9.764 -0.0716 -0.4384 -0.3846
    5MOL0     C  587   1.304   1.257   9.886 -0.4870 -0.2801 -0.1274
    5MOL0     C  588   1.440   1.333   9.843 -0.3104  0.0190  0.3850
    5MOL0     C  589   1.540   1.353   9.960  0.2346  0.0010  0.5531
    5MOL0     C  590   1.650   1.463   9.931  0.4337 -0.0574 -0.0855
    5MOL0     C  591   1.584   1.589   9.899 -0.4331  0.8480 -0.1478
    5MOL0     C  592   1.514   1.679   9.862 -0.1999 -0.0459  0.2305
    5MOL0     C  593   1.034   1.163   9.909  0.4759 -0.3354  0.6857
    5MOL0     C  594   0.899   1.123   9.915 -0.3286 -0.4103  0.2272
    5MOL0     H  595   0.508   0.842   9.885 -0.2260  0.3741  0.6389
    5MOL0     H  596   0.273   0.758   9.861  0.5660 -0.6266 -0.0739
    5MOL0     H  597   0.050   0.869   9.452 -1.1010  1.0183 -0.0205
    5MOL0     H  598   0.038   0.982   9.587  2.4556 -1.2710  2.1330
    5MOL0     H  599  -0.116   0.851   9.683  0.1680  0.4800 -0.1760
    5MOL0     H  600  -0.115   0.731   9.540 -0.4927 -0.6592  0.9253
    5MOL0     H  601  -0.191   0.902   9.398  1.4703  2.5442 -0.3574
    5MOL0     H  602  -0.180   1.029   9.514  0.5053 -0.2008  1.9418
    5MOL0     H  603  -0.368   0.788   9.528  1.1656 -0.5409 -0.0993
    5MOL0     H  604  -0.349   0.916   9.648  2.0541 -2.6885  0.9652
    5MOL0     H  605  -0.389   1.088   9.460 -0.3250  0.1552  2.0637
    5MOL0     H  606  -0.529   1.006   9.524 -1.0059  0.3187 -1.4682
    5MOL0     H  607  -0.484   0.834   9.341  2.6467  0.0619 -0.7154
    5MOL0     H  608  -0.381   0.960   9.263 -0.2695  1.8328  0.0446
    5MOL0     H  609  -0.665   0.996   9.348  1.4809  0.0941  0.9445
    5MOL0     H  610  -0.580   1.106   9.232  2.0004  0.7068  3.6593
    5MOL0     H  611  -0.647   0.810   9.177 -0.3490  0.1059 -0.2566
    5MOL0     H  612  -0.552   0.915   9.070 -0.2705 -0.2445  0.1695
    5MOL0     H  613  -0.691   1.089   8.920  1.5088 -0.1160  1.8543
    5MOL0     H  614  -0.931   1.072   8.737 -0.6878 -3.1864  1.1849
    5MOL0     H  615  -0.919   1.227   8.818  0.0197 -0.2940 -1.7874
    5MOL0     H  616  -1.151   1.189   8.916  1.1461  1.9467 -2.7324
    5MOL0     H  617  -1.135   1.023   8.858  1.2848 -0.7225  1.4042
    5MOL0     H  618  -1.154   1.268   8.684 -2.8449  0.9792  1.3249
    5MOL0     H  619  -1.155   1.101   8.633 -0.2675  0.0580 -0.4909
    5MOL0     H  620  -1.367   1.205   8.620  0.3306  0.4733  0.0208
    5MOL0     H  621  -1.347   1.266   8.787 -0.1536  1.9299 -0.6767
    5MOL0     H  622  -1.492   0.846   8.854 -0.9609 -0.2537 -0.1018
    5MOL0     H  623  -1.733   0.758   8.825 -0.4456  0.3467  1.0724
    5MOL0     H  624  -2.243   0.874   8.892 -2.4850  1.4821 -1.4382
    5MOL0     H  625  -2.453   0.728   8.850 -0.8624  0.9253 -0.7239
    5MOL0     H  626  -2.441   0.418   8.524  0.5367 -0.0800  2.5471
    5MOL0     H  627  -2.486   0.574   8.471 -0.2069 -1.3940 -1.8071
    5MOL0     H  628  -2.640   0.363   8.624  1.7772  0.4382 -0.6445
    5MOL0     H  629  -2.663   0.407   8.453  0.9098 -2.0013  0.3860
    5MOL0     H  630  -2.726   0.632   8.513  1.8153 -1.9879 -2.3924
    5MOL0     H  631  -2.694   0.600   8.686 -0.4770  1.4293 -0.3852
    5MOL0     H  632  -2.913   0.444   8.535 -0.2369 -2.0809  1.3073
    5MOL0     H  633  -2.893   0.463   8.712  1.5568 -1.5475 -0.6153
    5MOL0     H  634  -2.981   0.664   8.514 -1.7982 -0.3999 -0.7571
    5MOL0     H  635  -2.938   0.713   8.678 -2.3172 -0.2069  0.2000
    5MOL0     H  636  -3.176   0.692   8.686 -1.1860 -1.8553  0.0492
    5MOL0     H  637  -3.099   0.556   8.768  0.9138 -0.7355  0.4071
    5MOL0     H  638  -3.170   0.534   8.463 -0.0236  0.7176  0.4360
    5MOL0     H  639  -3.131   0.405   8.573 -0.8243 -0.1024  4.6725
    5MOL0     H  640  -3.383   0.581   8.611  0.7404  0.3883  0.2737
    5MOL0     H  641  -3.335   0.442   8.703 -3.6847 -1.2081 -0.5937
    5MOL0     H  642  -2.215   0.509   8.561  0.1284  0.2081 -0.2537
    5MOL0     H  643  -2.030   0.613   8.624 -1.8482 -3.5651 -0.4361
    5MOL0     H  644  -1.813   1.157   8.630  1.3128  0.5231 -0.8635
    5MOL0     H  645  -1.596   1.208   8.663 -2.7161  0.8041  0.4175
    5MOL0     H  646   0.273   0.940   9.471  0.8500  2.2926  0.1267
    5MOL0     H  647   0.525   0.972   9.487 -0.1769 -0.2556 -1.4098
    5MOL0     H  648   0.870   1.039   9.580  1.1338 -2.3239  0.1321
    5MOL0     H  649   1.072   1.143   9.572 -1.3320 -0.4733 -0.8795
    5MOL0     H  650   1.339   1.170   9.943 -1.3412  1.1195  2.7198
    5MOL0     H  651   1.252   1.321   9.957 -0.3492  0.6290 -0.8378
    5MOL0     H  652   1.501   1.274   9.774 -1.4476  0.5649 -1.1366
    5MOL0     H  653   1.399   1.418   9.787 -1.4198 -0.1347  0.9446
    5MOL0     H  654   1.589   1.259   9.985 -1.4389 -0.4334  2.4630
    5MOL0     H  655   1.485   1.383  10.050 -1.8751 -0.1160 -0.6370
    5MOL0     H  656   1.714   1.485  10.017 -0.3856  3.3112 -0.2176
    5MOL0     H  657   1.705   1.412   9.851  0.0605 -0.4386 -0.1006
    5MOL0     H  658   1.459   1.768   9.837  1.6283  1.9783  2.8769
    5MOL0     H  659   1.087   1.197   9.998 -0.0173  2.7252 -0.0617
    5MOL0     H  660   0.855   1.115  10.014  2.4673 -1.1866  1.5128
    6MOL0     O  661   6.047   4.300   3.041  0.0040 -0.2587 -0.4425
    6MOL0     C  662   6.099   4.395   3.094 -0.0745  0.5523 -0.2409
    6MOL0     O  663   6.037   4.489   3.169  0.4308 -0.0065 -0.0176
    6MOL0     C  664   5.922   4.454   3.231 -0.2951  0.0656  0.7297
    6MOL0     C  665   5.918   4.374   3.349 -0.2926 -0.2058  0.0796
    6MOL0     C  666   5.803   4.365   3.429  0.0448  0.2057  0.0487
    6MOL0     C  667   5.685   4.409   3.382  0.6845 -0.4093 -0.2066
    6MOL0     O  668   5.565   4.388   3.457  0.4802  0.6130  0.2346
    6MOL0     C  669   5.563   4.286   3.559  0.6834 -0.1672  0.2953
    6MOL0     C  670   5.417   4.273   3.592 -0.6153  0.6434  0.2811
    6MOL0     C  671   5.329   4.203   3.487  0.4163  0.0138 -0.0089
    6MOL0     C  672   5.183   4.216   3.543 -0.1370 -0.2038  0.5593
    6MOL0     C  673   5.069   4.160   3.460  0.5952 -0.1484 -0.1397
    6MOL0     C  674   5.094   4.014   3.443 -0.0907 -0.4509 -0.6744
    6MOL0     C  675   4.973   3.934   3.398  0.1210 -0.0424 -0.3465
    6MOL0     C  676   4.844   3.953   3.475 -0.3254 -0.3021 -0.4489
    6MOL0     N  677   4.739   3.871   3.414  0.2784 -0.5116 -0.2880
    6MOL0     C  678   4.623   3.914   3.355  0.1920 -0.6941 -0.1679
    6MOL0     C  679   4.564   3.800   3.336  0.6611  0.3126  0.0402
    6MOL0     C  680   4.424   3.784   3.277 -0.0903  0.2095 -1.1142
    6MOL0     C  681   4.319   3.726   3.375 -0.1628  0.0209  0.3650
    6MOL0     C  682   4.197   3.704   3.291  0.5896 -0.7658  0.0580
    6MOL0     C  683   4.076   3.650   3.365  0.7220  0.0160 -0.2582
    6MOL0     O  684   3.953   3.642   3.287 -0.3504 -0.2799 -0.8176
    6MOL0     C  685   3.848   3.582   3.358  0.0394 -0.5269 -0.6849
    6MOL0     C  686   3.857   3.500   3.475 -0.4195  0.0484  0.1519
    6MOL0     C  687   3.739   3.456   3.540 -0.4024  0.3067 -0.3930
    6MOL0     C  688   3.612   3.497   3.501 -0.6876 -0.0354  0.3305
    6MOL0     C  689   3.488   3.456   3.569  0.0775 -0.1176  0.1663
    6MOL0     O  690   3.385   3.550   3.569 -0.5931  0.5832  0.4382
    6MOL0     C  691   3.278   3.555   3.658 -0.4405  0.4514 -0.4113
    6MOL0     C  692   3.227   3.676   3.704 -0.2088 -0.3605 -0.6337
    6MOL0     C  693   3.114   3.679   3.788  0.0115 -0.8882  0.0629
    6MOL0     C  694   3.057   3.561   3.832 -0.7860  0.0579 -0.1646
    6MOL0     O  695   2.947   3.569   3.911 -0.2862  0.7060  0.0165
    6MOL0     C  696   2.844   3.484   3.888 -0.1087  0.9793 -0.4309
    6MOL0     C  697   2.734   3.515   3.991  0.1204  0.3487  0.2574
    6MOL0     C  698   2.633   3.622   3.954 -0.5258 -0.5423  0.0536
    6MOL0     C  699   2.697   3.763   3.958 -0.0902 -0.1826  0.1054
    6MOL0     C  700   2.585   3.863   3.937  0.1306  0.2709 -0.1418
    6MOL0     C  701   2.632   4.005   3.965 -0.0076 -0.6470  0.3024
    6MOL0     C  702   2.525   4.119   3.970  0.2813  0.4751  0.3392
    6MOL0     C  703   2.585   4.245   4.015  1.4132  1.2165  0.5838
    6MOL0    Cl  704   2.582   4.245   4.190  0.5203  0.0356 -0.0592
    6MOL0     C  705   3.115   3.445   3.802 -0.1419 -0.3306  0.1072
    6MOL0     C  706   3.217   3.443   3.710  0.7156  0.4384  0.7046
    6MOL0     O  707   3.489   3.365   3.648 -0.1394  0.3211  0.2771
    6MOL0     C  708   3.603   3.565   3.379  0.7354 -0.3052  0.1239
    6MOL0     C  709   3.718   3.595   3.304 -0.1339  0.1004 -0.1073
    6MOL0     N  710   4.635   3.687   3.369  0.1167 -0.3209 -0.3773
    6MOL0     N  711   4.743   3.733   3.416 -0.5481 -0.0961 -0.6171
    6MOL0     C  712   5.681   4.463   3.247  0.1331  0.3338  0.3722
    6MOL0     C  713   5.798   4.488   3.182 -0.4527 -0.7580  0.3590
    6MOL0     C  714   6.243   4.399   3.073  0.0758  0.2356  0.1795
    6MOL0     C  715   6.327   4.477   3.152  0.4933 -0.4840 -0.6332
    6MOL0     C  716   6.461   4.506   3.117  0.6684  0.0777 -0.0438
    6MOL0     C  717   6.518   4.432   3.015 -0.5884  0.6730 -0.1571
    6MOL0     O  718   6.647   4.467   2.974 -0.3827 -0.3499 -0.5594
    6MOL0     C  719   6.733   4.357   2.948  0.3538  0.1284  0.6945
    6MOL0     C  720   6.875   4.415   2.957 -0.3631  0.3288 -0.6179
    6MOL0     C  721   6.895   4.537   2.873  0.5739 -1.1342 -0.1205
    6MOL0     C  722   7.027   4.600   2.904  0.4661  0.0426 -0.0554
    6MOL0     C  723   7.028   4.736   2.859  0.7097  0.0076  0.0849
    6MOL0     C  724   7.011   4.853   2.846 -0.6017  0.0368  0.7449
    6MOL0     C  725   6.451   4.339   2.951  1.0529  0.5066  0.0913
    6MOL0     C  726   6.314   4.322   2.986 -0.6878  0.1065  0.5013
    6MOL0     H  727   6.009   4.323   3.379 -0.4461 -0.4012  0.2219
    6MOL0     H  728   5.821   4.321   3.527  0.7577  1.7169  0.6226
    6MOL0     H  729   5.628   4.307   3.644 -0.0547 -2.7172  1.5802
    6MOL0     H  730   5.595   4.189   3.521 -2.1896 -1.1045  0.0593
    6MOL0     H  731   5.372   4.372   3.604  0.6912  1.2477  0.3445
    6MOL0     H  732   5.407   4.234   3.694  1.5338 -0.6464  0.0713
    6MOL0     H  733   5.361   4.099   3.477 -3.9127 -1.3907 -1.2365
    6MOL0     H  734   5.335   4.253   3.390 -1.0009 -0.0243 -0.1360
    6MOL0     H  735   5.184   4.173   3.644 -3.0374  2.0794  1.7003
    6MOL0     H  736   5.155   4.322   3.547 -3.0509 -0.8337 -0.4108
    6MOL0     H  737   5.054   4.205   3.362 -2.4887  0.7486  0.6408
    6MOL0     H  738   4.977   4.176   3.516  1.1981 -0.5721  1.0012
    6MOL0     H  739   5.119   3.968   3.539 -1.6917 -0.2749 -0.1545
    6MOL0     H  740   5.171   3.992   3.368  0.4493  2.5902 -1.1466
    6MOL0     H  741   4.943   3.962   3.296 -0.5857 -0.4521 -0.2562
    6MOL0     H  742   4.996   3.828   3.388 -1.1829 -0.2874 -1.0614
    6MOL0     H  743   4.830   4.061   3.459  1.8679 -0.2017 -2.1635
    6MOL0     H  744   4.836   3.935   3.583 -0.1510  0.7478 -0.2449
    6MOL0     H  745   4.599   4.016   3.329  0.9730 -0.5222 -0.2231
    6MOL0     H  746   4.427   3.722   3.187 -0.2375 -0.2326 -0.8191
    6MOL0     H  747   4.387   3.881   3.244 -0.9178 -0.1028 -1.1174
    6MOL0     H  748   4.284   3.789   3.457 -1.9308 -1.2546  0.6406
    6MOL0     H  749   4.355   3.627   3.406 -3.8421 -1.9009 -0.8912
    6MOL0     H  750   4.184   3.804   3.249  0.8097  0.8507  3.4729
    6MOL0     H  751   4.224   3.632   3.213 -3.1617 -0.8642 -1.3254
    6MOL0     H  752   4.061   3.718   3.450  3.3579 -1.7044  1.7705
    6MOL0     H  753   4.115   3.553   3.397 -0.7342 -0.1276  1.2283
    6MOL0     H  754   3.952   3.486   3.524  0.0300  2.5541  0.1058
    6MOL0     H  755   3.764   3.393   3.624  0.7093 -0.7342 -1.4581
    6MOL0     H  756   3.266   3.770   3.665 -0.6462  1.8604  3.6983
    6MOL0     H  757   3.077   3.779   3.812  0.2975 -0.4200 -1.3320
    6MOL0     H  758   2.865   3.379   3.911 -0.4881  0.6742 -1.4114
    6MOL0     H  759   2.804   3.489   3.786 -4.6226 -2.8537  0.7534
    6MOL0     H  760   2.776   3.530   4.091  0.3331  1.9738 -0.0451
    6MOL0     H  761   2.668   3.428   3.997 -2.2280  1.9913 -0.4742
    6MOL0     H  762   2.551   3.620   4.026  1.3212  1.2699  2.4273
    6MOL0     H  763   2.594   3.614   3.853 -0.1553  3.2309 -0.5227
    6MOL0     H  764   2.749   3.787   4.052 -1.0662  0.3209  0.5369
    6MOL0     H  765   2.772   3.754   3.880 -0.6957 -3.6284 -0.2243
    6MOL0     H  766   2.505   3.834   4.006 -1.2619  4.0842  0.1090
    6MOL0     H  767   2.547   3.861   3.835  1.0991  0.7867 -0.5194
    6MOL0     H  768   2.702   4.025   3.883 -0.8033  0.2787 -0.1689
    6MOL0     H  769   2.680   3.999   4.063  2.4502 -0.0099 -0.7752
    6MOL0     H  770   2.491   4.135   3.867  1.6395 -1.2721 -0.4409
    6MOL0     H  771   2.444   4.085   4.035  1.3306  0.0456  1.4506
    6MOL0     H  772   2.527   4.330   3.977 -1.4682 -0.7262  0.3106
    6MOL0     H  773   2.689   4.244   3.982  1.3891 -3.2357  0.0409
    6MOL0     H  774   3.067   3.356   3.843  0.3773 -0.7346 -0.1562
    6MOL0     H  775   3.242   3.341   3.683  1.7050  0.2580  2.2183
    6MOL0     H  776   3.502   3.578   3.343  0.5494 -2.0712 -0.0862
    6MOL0     H  777   3.705   3.638   3.205  2.6247  0.2048 -0.5233
    6MOL0     H  778   5.582   4.490   3.211  0.0437  2.3030  1.9029
    6MOL0     H  779   5.800   4.524   3.079  2.0533  0.4395  0.7636
    6MOL0     H  780   6.279   4.536   3.229 -2.1185 -0.9316 -1.8093
    6MOL0     H  781   6.504   4.592   3.166 -0.7199 -0.0496  1.5033
    6MOL0     H  782   6.717   4.315   2.848  2.0393 -3.7971  1.8424
    6MOL0     H  783   6.720   4.279   3.024 -4.6332  1.3833  1.4887
    6MOL0     H  784   6.893   4.442   3.062  0.9797 -1.7942 -0.2181
    6MOL0     H  785   6.948   4.335   2.939  0.8707  0.8502  1.6823
    6MOL0     H  786   6.812   4.608   2.879 -1.6637 -3.4325 -2.0385
    6MOL0     H  787   6.905   4.503   2.769  0.0440  0.7336 -0.8209
    6MOL0     H  788   7.039   4.612   3.012 -1.1882  3.3391 -0.1013
    6MOL0     H  789   7.115   4.546   2.867  0.8580  0.7163 -0.1367
    6MOL0     H  790   7.009   4.961   2.844 -0.5068  0.0527  1.3877
    6MOL0     H  791   6.494   4.254   2.898 -2.8326 -1.4914 -0.2139
    6MOL0     H  792   6.268   4.239   2.933 -2.2818 -1.0295  3.4432
    7MOL0     O  793   9.245   3.693   9.536 -0.0378 -0.6687 -0.5660
    7MOL0     C  794   9.317   3.678   9.642  0.0944 -0.2060  0.4556
    7MOL0     O  795   9.281   3.719   9.766 -0.1938 -0.5108  0.6219
    7MOL0     C  796   9.161   3.782   9.777  0.1431  0.3088 -0.2758
    7MOL0     C  797   9.154   3.902   9.846  0.0338 -0.7450 -0.4337
    7MOL0     C  798   9.030   3.938   9.897 -0.3218 -0.3812 -0.4064
    7MOL0     C  799   8.915   3.860   9.893  0.2850 -0.1630  0.2419
    7MOL0     O  800   8.805   3.920   9.953 -0.3507 -0.2792  0.0182
    7MOL0     C  801   8.685   3.842   9.943  0.0645 -0.8017  0.6779
    7MOL0     C  802   8.571   3.925  10.004  0.1571  0.1380  0.3299
    7MOL0     C  803   8.432   3.868  10.000 -1.0409  0.2994  0.4729
    7MOL0     C  804   8.343   3.969  10.061  0.2172 -0.4496 -0.0201
    7MOL0     C  805   8.211   3.894  10.098  0.0838  0.0475  0.3841
    7MOL0     C  806   8.092   3.986  10.117 -0.4567  0.1102  0.2868
    7MOL0     C  807   7.978   3.911  10.184 -0.1044 -0.3135 -0.8365
    7MOL0     C  808   7.917   3.800  10.092  0.2956 -0.6054 -1.1482
    7MOL0     N  809   7.793   3.834  10.034  0.1886  0.6178 -0.0232
    7MOL0     C  810   7.764   3.953   9.971 -0.2929 -0.2841  0.5749
    7MOL0     C  811   7.630   3.946   9.944 -0.9431  0.0916  0.4210
    7MOL0     C  812   7.564   4.045   9.855 -0.3075 -0.5820 -0.2468
    7MOL0     C  813   7.518   4.166   9.946  0.4163  0.5331  0.4081
    7MOL0     C  814   7.444   4.136  10.072  0.0655 -0.1421  0.5104
    7MOL0     C  815   7.305   4.073  10.041  0.2111  0.3996  0.2261
    7MOL0     O  816   7.233   4.066  10.168  0.4525 -0.7112  1.0848
    7MOL0     C  817   7.100   4.037  10.162  0.0213 -0.6298 -0.3645
    7MOL0     C  818   7.039   4.007  10.042  0.4241  0.8966 -0.3966
    7MOL0     C  819   6.898   4.015  10.028  0.3427  0.0825 -0.0374
    7MOL0     C  820   6.824   4.023  10.149  0.0443  0.7371 -0.6305
    7MOL0     C  821   6.668   4.046  10.145 -0.7714 -0.0308  0.3820
    7MOL0     O  822   6.609   3.989  10.035 -0.1832  0.1615  0.0431
    7MOL0     C  823   6.470   3.992  10.023 -0.1296  0.4496 -0.0774
    7MOL0     C  824   6.380   3.974  10.131  0.2491 -0.1464 -0.5077
    7MOL0     C  825   6.236   3.959  10.108  0.0268  0.7864  0.5619
    7MOL0     C  826   6.185   3.991   9.977  0.0800  0.4207 -0.4893
    7MOL0     O  827   6.053   3.982   9.945 -0.1139  0.0773 -0.8599
    7MOL0     C  828   5.958   4.009  10.058 -0.2612 -1.0696  0.0106
    7MOL0     C  829   5.825   4.028   9.985  0.4615 -0.3841 -0.4375
    7MOL0     C  830   5.709   4.035  10.088 -0.7368 -0.5432  0.1066
    7MOL0     C  831   5.577   3.999  10.003 -0.1375 -0.6293 -0.2807
    7MOL0     C  832   5.442   4.045  10.077  0.0785 -0.6796  0.4166
    7MOL0     C  833   5.309   4.046   9.982  0.2764  0.4971 -0.2342
    7MOL0     C  834   5.323   4.127   9.854 -0.0484 -0.0392  0.5662
    7MOL0     C  835   5.185   4.178   9.808 -0.4883  0.1401 -0.0443
    7MOL0    Cl  836   5.086   4.042   9.751 -0.1735  0.1605  0.6150
    7MOL0     C  837   6.277   4.013   9.869 -0.7848 -0.1126 -0.4299
    7MOL0     C  838   6.417   4.012   9.897 -0.2903  0.0922 -0.2914
    7MOL0     O  839   6.612   4.108  10.237  0.1099  0.2883  0.4714
    7MOL0     C  840   6.884   4.042  10.277  0.3290  0.4315  0.1482
    7MOL0     C  841   7.022   4.056  10.280 -0.9015 -0.4897  0.4280
    7MOL0     N  842   7.576   3.832  10.002 -0.3196  0.2707 -0.3230
    7MOL0     N  843   7.677   3.759  10.048 -0.0987 -0.0817 -0.4705
    7MOL0     C  844   8.923   3.744   9.817  0.1028  0.1531  0.0131
    7MOL0     C  845   9.042   3.711   9.752 -0.4147  0.1227 -0.5013
    7MOL0     C  846   9.457   3.639   9.615  0.0581 -0.8285  0.2305
    7MOL0     C  847   9.552   3.652   9.719 -0.0007  0.1855 -0.1763
    7MOL0     C  848   9.680   3.634   9.686 -0.1813 -0.8051  0.6440
    7MOL0     C  849   9.723   3.598   9.564 -0.7563  0.1120 -0.7847
    7MOL0     O  850   9.860   3.573   9.561 -0.1664  0.1593 -0.4309
    7MOL0     C  851   9.915   3.563   9.428 -0.5512  0.3729 -0.0145
    7MOL0     C  852  10.062   3.596   9.440  0.9066  0.3109  0.2852
    7MOL0     C  853  10.157   3.487   9.505  0.3705  0.2939 -0.0337
    7MOL0     C  854  10.154   3.489   9.656 -0.1710 -0.4898  0.2214
    7MOL0     C  855  10.257   3.399   9.715 -0.4840  0.2108 -0.1408
    7MOL0     C  856  10.333   3.323   9.769 -0.5649 -0.2409 -0.1652
    7MOL0     C  857   9.634   3.577   9.463  0.2625 -0.4734 -0.0795
    7MOL0     C  858   9.499   3.605   9.487 -0.4110 -0.3421 -0.7758
    7MOL0     H  859   9.249   3.950   9.865 -1.3518  1.1033  2.6855
    7MOL0     H  860   9.016   4.031   9.950 -2.9391 -1.2156  0.5248
    7MOL0     H  861   8.687   3.751  10.004 -0.2776 -2.2700 -1.3930
    7MOL0     H  862   8.655   3.816   9.842 -2.5911 -0.4388  1.3119
    7MOL0     H  863   8.559   4.025   9.963  0.7367  1.1803  2.5549
    7MOL0     H  864   8.608   3.943  10.106 -0.8540 -0.5578  0.8385
    7MOL0     H  865   8.428   3.776  10.058 -4.8354  2.4762  4.2115
    7MOL0     H  866   8.396   3.847   9.899 -2.0333 -2.8384  1.3879
    7MOL0     H  867   8.380   4.009  10.155 -1.0123 -0.9382  0.6981
    7MOL0     H  868   8.333   4.050   9.988  1.1835  0.6243  0.9884
    7MOL0     H  869   8.231   3.824  10.179 -0.6530 -0.8120 -0.1546
    7MOL0     H  870   8.187   3.834  10.010 -1.0961  2.1606 -0.8214
    7MOL0     H  871   8.066   4.024  10.018 -0.1830 -1.5332 -0.4443
    7MOL0     H  872   8.113   4.071  10.182 -1.9396  1.4486 -0.9050
    7MOL0     H  873   8.022   3.878  10.279  2.0821  1.3485 -1.1965
    7MOL0     H  874   7.901   3.983  10.213 -0.3251 -1.7084  2.5665
    7MOL0     H  875   7.902   3.709  10.153 -1.5893  1.4979  1.8179
    7MOL0     H  876   7.987   3.785  10.010  1.3739  0.3272 -0.4150
    7MOL0     H  877   7.824   4.036   9.937 -0.3110 -0.7009 -0.5135
    7MOL0     H  878   7.484   4.005   9.792  0.4118  1.3368 -2.4930
    7MOL0     H  879   7.631   4.082   9.777 -1.0935  0.3473 -0.5022
    7MOL0     H  880   7.461   4.241   9.889  2.8594  4.0095  2.1297
    7MOL0     H  881   7.603   4.222   9.986  2.2271 -1.3751 -0.6214
    7MOL0     H  882   7.503   4.056  10.118  0.7975  0.6121  0.9095
    7MOL0     H  883   7.438   4.220  10.143 -0.3353 -0.7700  1.2447
    7MOL0     H  884   7.315   3.972  10.001  4.0106  1.4326 -1.9367
    7MOL0     H  885   7.265   4.138   9.962 -0.0912 -0.6963 -0.5486
    7MOL0     H  886   7.099   3.985   9.955  1.7715 -2.9395  1.3093
    7MOL0     H  887   6.844   4.006   9.934  2.0851  0.1579 -1.0894
    7MOL0     H  888   6.421   3.956  10.230 -0.7004 -3.3156 -0.5901
    7MOL0     H  889   6.169   3.941  10.191  0.8901  1.2321  1.3824
    7MOL0     H  890   5.980   4.104  10.107 -0.8817 -0.6568 -0.4901
    7MOL0     H  891   5.960   3.921  10.123  0.5695 -1.0929 -0.0329
    7MOL0     H  892   5.807   3.946   9.914  1.1762 -1.0821  0.1765
    7MOL0     H  893   5.829   4.119   9.924  0.0399  0.0006  0.1011
    7MOL0     H  894   5.709   4.127  10.147 -0.0261 -1.7749  2.1399
    7MOL0     H  895   5.721   3.956  10.163  2.8564 -3.0750 -2.7498
    7MOL0     H  896   5.603   4.052   9.911  3.1318  1.3286  1.5929
    7MOL0     H  897   5.571   3.891   9.984 -2.1683 -0.0479 -3.9232
    7MOL0     H  898   5.460   4.148  10.112 -4.2162  1.7855 -3.5406
    7MOL0     H  899   5.431   3.974  10.159  1.8331 -0.6018  0.7708
    7MOL0     H  900   5.227   4.070  10.051  0.6057 -1.9288  1.1031
    7MOL0     H  901   5.292   3.941   9.955 -1.8744  0.3953  1.2021
    7MOL0     H  902   5.401   4.203   9.870  2.3484 -2.5357  1.4884
    7MOL0     H  903   5.369   4.062   9.780  1.5862  0.9877  0.6085
    7MOL0     H  904   5.186   4.254   9.729  0.4202 -1.2971 -1.4774
    7MOL0     H  905   5.140   4.211   9.902 -2.6433 -0.4448 -0.8092
    7MOL0     H  906   6.234   4.028   9.771 -0.0284 -2.5075 -1.1879
    7MOL0     H  907   6.483   4.044   9.817 -0.1063 -1.6034 -0.8493
    7MOL0     H  908   6.814   4.057  10.359 -1.3076 -2.6334 -0.5037
    7MOL0     H  909   7.063   4.095  10.373  2.4870  1.1539 -1.5443
    7MOL0     H  910   8.834   3.685   9.801  0.8337 -0.7562 -0.8365
    7MOL0     H  911   9.042   3.615   9.702 -0.0778  0.3642 -0.9711
    7MOL0     H  912   9.521   3.689   9.816 -1.1034  0.3824 -0.5800
    7MOL0     H  913   9.752   3.636   9.767 -2.2791 -0.2692  2.5958
    7MOL0     H  914   9.869   3.634   9.359  2.4978  0.7665 -1.8223
    7MOL0     H  915   9.905   3.468   9.374 -1.4779  0.9669 -0.9190
    7MOL0     H  916  10.080   3.608   9.333 -1.1662 -0.2530 -0.1707
    7MOL0     H  917  10.070   3.688   9.500  1.5630 -0.3509  1.2478
    7MOL0     H  918  10.253   3.527   9.472  1.2286 -2.0911 -0.6955
    7MOL0     H  919  10.134   3.385   9.471 -0.8274 -0.0827  1.7771
    7MOL0     H  920  10.171   3.592   9.691 -2.0758 -0.7336  2.0870
    7MOL0     H  921  10.050   3.466   9.680 -0.7382  2.5451  1.2002
    7MOL0     H  922  10.419   3.273   9.806  1.0234  2.3355 -0.1463
    7MOL0     H  923   9.662   3.544   9.364 -2.0061 -1.9997 -0.2898
    7MOL0     H  924   9.433   3.594   9.401 -0.3429  0.6081 -0.9579
    8MOL0     O  925   4.440   9.607   1.611 -0.5382 -0.1606 -0.6262
    8MOL0     C  926   4.539   9.650   1.552 -0.5369  0.2036  0.3908
    8MOL0     O  927   4.540   9.769   1.487 -0.9101 -0.0014 -0.1546
    8MOL0     C  928   4.440   9.862   1.508 -0.2188 -0.2822 -0.3392
    8MOL0     C  929   4.386   9.896   1.629 -0.3947  0.6174 -0.6764
    8MOL0     C  930   4.292  10.002   1.636 -0.1584  0.4839 -1.0251
    8MOL0     C  931   4.247  10.069   1.523  0.2069  0.1525  0.2728
    8MOL0     O  932   4.142  10.159   1.529  0.7450 -0.3693  0.2683
    8MOL0     C  933   4.078  10.205   1.409  0.2412  0.9053 -0.4840
    8MOL0     C  934   3.975  10.308   1.461  0.7490 -0.3779 -0.0686
    8MOL0     C  935   3.845  10.250   1.526 -0.1299 -0.1318  0.2071
    8MOL0     C  936   3.753  10.349   1.590 -0.3027 -0.6632  0.1737
    8MOL0     C  937   3.620  10.372   1.507  0.0886 -0.4437 -0.6281
    8MOL0     C  938   3.533  10.247   1.497  0.7226 -0.3375 -0.1514
    8MOL0     C  939   3.378  10.266   1.509 -0.6414 -1.2144 -0.1488
    8MOL0     C  940   3.328  10.291   1.649 -0.0260  0.2459 -0.6711
    8MOL0     N  941   3.180  10.295   1.655 -0.5199  0.0679 -0.3549
    8MOL0     C  942   3.109  10.320   1.771  0.4542 -0.8226 -0.6618
    8MOL0     C  943   2.982  10.335   1.723 -0.2479 -0.5481  0.1874
    8MOL0     C  944   2.860  10.358   1.816 -0.1950 -0.2127 -0.6276
    8MOL0     C  945   2.808  10.228   1.879  0.3662  0.1559  0.0554
    8MOL0     C  946   2.706  10.236   1.995 -0.9272  0.9954  0.5299
    8MOL0     C  947   2.583  10.314   1.972 -0.6468  0.1713  0.5017
    8MOL0     O  948   2.486  10.282   2.066 -0.2123 -0.4086  0.1180
    8MOL0     C  949   2.357  10.289   2.020  0.2465 -0.1646  0.7274
    8MOL0     C  950   2.298  10.379   1.925 -0.5956  0.8769  0.7242
    8MOL0     C  951   2.169  10.374   1.873  0.1444 -0.2190 -1.0785
    8MOL0     C  952   2.088  10.273   1.922 -0.0610 -0.2373 -0.4265
    8MOL0     C  953   1.956  10.259   1.870  0.1418 -0.2755 -0.1366
    8MOL0     O  954   1.871  10.184   1.944 -0.5219  0.5708 -0.2009
    8MOL0     C  955   1.744  10.162   1.897 -0.3773 -0.3499  0.4552
    8MOL0     C  956   1.638  10.247   1.935 -0.3515  0.6888 -0.3479
    8MOL0     C  957   1.516  10.234   1.873 -0.6796  0.4483 -0.2318
    8MOL0     C  958   1.495  10.135   1.777  0.2870  0.5284  0.5103
    8MOL0     O  959   1.374  10.125   1.700 -0.3231  0.5128  0.3852
    8MOL0     C  960   1.267  10.204   1.744 -0.7033 -0.5744  0.3594
    8MOL0     C  961   1.140  10.158   1.664 -0.1149  0.1264  0.2716
    8MOL0     C  962   1.150  10.185   1.515  0.4458 -0.9076  0.0523
    8MOL0     C  963   1.011  10.184   1.451 -0.3391  0.3747  0.6406
    8MOL0     C  964   1.020  10.194   1.303  0.9219 -1.2669 -0.0862
    8MOL0     C  965   0.881  10.174   1.238  0.3571 -0.2374  0.5833
    8MOL0     C  966   0.893  10.079   1.111  0.0904 -0.6048  0.9215
    8MOL0     C  967   0.764  10.087   1.024  0.5650  0.0100  0.1896
    8MOL0    Cl  968   0.619  10.034   1.126 -0.3956  0.3943 -0.1760
    8MOL0     C  969   1.601  10.047   1.743 -0.0777 -0.0861 -0.0005
    8MOL0     C  970   1.727  10.061   1.802  0.0739  0.3283  0.6493
    8MOL0     O  971   1.923  10.320   1.765  0.0800 -0.3462  0.1816
    8MOL0     C  972   2.136  10.187   2.022 -0.6289 -0.2756 -0.1566
    8MOL0     C  973   2.269  10.193   2.070 -0.5155 -0.3246 -0.1295
    8MOL0     N  974   2.970  10.301   1.588  0.7261  0.1963 -0.9188
    8MOL0     N  975   3.089  10.289   1.555 -0.3667 -0.6133  0.3434
    8MOL0     C  976   4.301  10.032   1.397 -0.2724 -0.6255 -0.6741
    8MOL0     C  977   4.400   9.933   1.393  0.3310 -0.2035  0.6055
    8MOL0     C  978   4.652   9.566   1.535 -0.8073  0.0438 -0.4486
    8MOL0     C  979   4.637   9.427   1.549  0.6451 -0.2292 -0.0551
    8MOL0     C  980   4.740   9.339   1.520  0.7769  0.3986 -0.1975
    8MOL0     C  981   4.864   9.393   1.487  0.3606 -0.1089  0.0840
    8MOL0     O  982   4.970   9.304   1.468  0.1729 -0.5687 -0.0905
    8MOL0     C  983   5.051   9.289   1.578 -0.6306  0.0086  0.5682
    8MOL0     C  984   5.170   9.194   1.559  0.2112 -0.1472  0.5654
    8MOL0     C  985   5.262   9.238   1.439  0.4346 -0.0653 -0.8491
    8MOL0     C  986   5.348   9.365   1.461 -0.5835  0.3816  0.1716
    8MOL0     C  987   5.281   9.492   1.424 -0.0446 -0.3876  0.6761
    8MOL0     C  988   5.235   9.599   1.396  1.5435 -0.8298 -0.5867
    8MOL0     C  989   4.879   9.529   1.474  0.0659  0.2149 -0.0068
    8MOL0     C  990   4.778   9.613   1.492  0.1126 -0.3064 -0.4428
    8MOL0     H  991   4.411   9.841   1.719  0.9250  0.2489 -1.2360
    8MOL0     H  992   4.252  10.028   1.734  0.2097  2.9684 -1.4600
    8MOL0     H  993   4.025  10.120   1.367 -0.2134  1.4793 -1.0930
    8MOL0     H  994   4.156  10.252   1.348  0.7489 -2.6619 -2.8895
    8MOL0     H  995   3.946  10.368   1.374 -6.0889 -2.1815  0.4120
    8MOL0     H  996   4.017  10.372   1.538 -3.2572 -0.2403  2.2930
    8MOL0     H  997   3.869  10.170   1.596  0.4046 -1.1351 -1.0653
    8MOL0     H  998   3.800  10.206   1.436  1.6788  0.7756 -1.2119
    8MOL0     H  999   3.728  10.310   1.689  0.3342 -2.8444 -0.4492
    8MOL0     H 1000   3.807  10.443   1.577 -0.0126 -1.0820 -2.0331
    8MOL0     H 1001   3.641  10.417   1.409 -0.5518  0.6774 -0.2677
    8MOL0     H 1002   3.558  10.444   1.561  2.7405  1.4716  0.0562
    8MOL0     H 1003   3.571  10.181   1.576  0.5432 -0.8433 -0.4832
    8MOL0     H 1004   3.551  10.188   1.407  1.8223  1.8641 -1.4527
    8MOL0     H 1005   3.350  10.350   1.446  0.1044  0.8936  2.1496
    8MOL0     H 1006   3.329  10.175   1.472  0.2929 -2.2890  1.1147
    8MOL0     H 1007   3.370  10.379   1.698 -1.4359 -0.5119  2.0704
    8MOL0     H 1008   3.356  10.199   1.701  2.8281  1.0089 -0.6670
    8MOL0     H 1009   3.140  10.338   1.874 -0.6974  1.9413 -0.6904
    8MOL0     H 1010   2.781  10.416   1.768 -2.4400  1.8159  4.7930
    8MOL0     H 1011   2.884  10.432   1.893 -0.6882  1.1050 -1.7001
    8MOL0     H 1012   2.894  10.176   1.922  0.7796  2.7376  2.6162
    8MOL0     H 1013   2.757  10.165   1.806 -1.7548  1.7280  0.0847
    8MOL0     H 1014   2.681  10.131   2.009  0.8489  0.4377 -0.2638
    8MOL0     H 1015   2.747  10.281   2.086  0.4064  0.2785  0.3086
    8MOL0     H 1016   2.552  10.311   1.867  0.9691 -0.4064  0.0130
    8MOL0     H 1017   2.611  10.420   1.982  1.0985 -0.1032 -0.8756
    8MOL0     H 1018   2.358  10.449   1.868 -1.1447  1.1198  0.4344
    8MOL0     H 1019   2.143  10.441   1.791 -0.3301  0.3319 -0.4914
    8MOL0     H 1020   1.655  10.323   2.010  0.9079  1.6321 -1.5453
    8MOL0     H 1021   1.446  10.314   1.894 -0.1637 -0.0654  4.3777
    8MOL0     H 1022   1.288  10.307   1.715 -2.4484 -0.2195  0.2632
    8MOL0     H 1023   1.261  10.188   1.852  0.1094 -0.8474  0.3744
    8MOL0     H 1024   1.049  10.206   1.703 -0.2315  1.1062 -1.1632
    8MOL0     H 1025   1.125  10.050   1.677 -1.8518  0.5165  1.9628
    8MOL0     H 1026   1.220  10.123   1.458  1.1455  1.3439 -1.7190
    8MOL0     H 1027   1.195  10.285   1.509  0.6793 -0.8957  1.6169
    8MOL0     H 1028   0.978  10.081   1.468 -2.5293  0.8262 -0.5105
    8MOL0     H 1029   0.946  10.253   1.505  0.0834  0.3204  1.2323
    8MOL0     H 1030   1.098  10.132   1.259  2.0383  0.9719 -1.4303
    8MOL0     H 1031   1.047  10.296   1.276  1.0292 -1.2095  0.2390
    8MOL0     H 1032   0.839  10.267   1.200  2.9918 -0.1738 -2.6727
    8MOL0     H 1033   0.816  10.122   1.310 -3.5624  0.5034 -2.1136
    8MOL0     H 1034   0.973  10.114   1.046 -0.3385 -0.9186  0.2208
    8MOL0     H 1035   0.919   9.977   1.144 -0.3116 -0.2053  2.5688
    8MOL0     H 1036   0.777  10.027   0.933 -1.1581 -1.5429  0.9047
    8MOL0     H 1037   0.748  10.190   0.991 -4.0186 -0.4459  0.3133
    8MOL0     H 1038   1.588   9.976   1.663  0.1936 -2.1554  1.6852
    8MOL0     H 1039   1.815  10.017   1.757  0.1734 -0.8669  1.9449
    8MOL0     H 1040   2.082  10.113   2.079  0.0434  0.1536  1.0928
    8MOL0     H 1041   2.302  10.118   2.141 -2.3084  0.5052  1.6570
    8MOL0     H 1042   4.264  10.067   1.301  1.0859 -2.4176 -1.9364
    8MOL0     H 1043   4.431   9.895   1.296 -0.1408 -2.5998  1.3056
    8MOL0     H 1044   4.540   9.391   1.583  1.6650 -0.8170  2.5010
    8MOL0     H 1045   4.721   9.237   1.552  0.3357  0.3817 -0.5110
    8MOL0     H 1046   4.998   9.266   1.671 -2.7421  0.9524 -0.3341
    8MOL0     H 1047   5.096   9.388   1.593  1.3310 -0.7587  0.0286
    8MOL0     H 1048   5.234   9.204   1.647  2.2303  0.2955 -0.8689
    8MOL0     H 1049   5.140   9.089   1.546 -0.3394  0.1853 -1.0445
    8MOL0     H 1050   5.216   9.246   1.340  0.6433  0.5266 -0.8994
    8MOL0     H 1051   5.335   9.157   1.427 -2.4675 -2.8164 -1.4623
    8MOL0     H 1052   5.370   9.376   1.567 -1.1290  0.8752  0.2394
    8MOL0     H 1053   5.438   9.364   1.399  0.5312  2.3081  1.6491
    8MOL0     H 1054   5.189   9.688   1.356  1.6266 -0.7546 -0.5172
    8MOL0     H 1055   4.982   9.563   1.465  1.3798 -3.4685 -0.6948
    8MOL0     H 1056   4.797   9.720   1.489 -0.3670 -0.1736  0.9875
    9MOL0     O 1057   0.191   8.851   8.267 -0.1054  0.0012  0.1861
    9MOL0     C 1058   0.131   8.926   8.339 -0.0386 -0.3827 -0.6532
    9MOL0     O 1059   0.171   8.974   8.457  0.1364 -0.5551 -0.2033
    9MOL0     C 1060   0.301   8.946   8.504 -0.0657 -0.5771  0.4297
    9MOL0     C 1061   0.404   8.985   8.425 -0.4886  0.7582 -0.2836
    9MOL0     C 1062   0.533   9.001   8.486 -0.4744 -0.4008 -0.3671
    9MOL0     C 1063   0.557   8.980   8.620 -0.5360  1.0881 -0.5768
    9MOL0     O 1064   0.678   9.011   8.695  0.2635  0.2569  1.2124
    9MOL0     C 1065   0.789   8.935   8.633  0.2140 -0.5234 -0.6776
    9MOL0     C 1066   0.881   8.879   8.740 -0.4977  1.3466  0.7020
    9MOL0     C 1067   0.805   8.781   8.834 -0.8290 -0.0407  0.6258
    9MOL0     C 1068   0.894   8.733   8.948  0.3600  0.3823  0.1020
    9MOL0     C 1069   0.810   8.681   9.069  0.0975  0.3327  0.3684
    9MOL0     C 1070   0.728   8.561   9.046  0.1735  1.6967  0.5058
    9MOL0     C 1071   0.593   8.589   8.986 -0.8481  0.1498 -0.5081
    9MOL0     C 1072   0.506   8.466   8.988 -0.3213 -0.1018 -0.3838
    9MOL0     N 1073   0.375   8.503   8.925 -0.5110  0.6897 -0.5565
    9MOL0     C 1074   0.325   8.455   8.805  0.8949  0.1384  0.5162
    9MOL0     C 1075   0.200   8.499   8.806 -0.2077 -0.2562  0.4018
    9MOL0     C 1076   0.111   8.466   8.697  0.0382  0.2403 -0.9663
    9MOL0     C 1077   0.068   8.592   8.628  0.0714  0.6645 -0.4972
    9MOL0     C 1078  -0.039   8.563   8.516  0.4048 -0.7209 -0.2417
    9MOL0     C 1079  -0.187   8.529   8.562  0.2437 -0.9531  0.1721
    9MOL0     O 1080  -0.274   8.535   8.445  0.7807 -0.3230 -0.0849
    9MOL0     C 1081  -0.417   8.529   8.466  0.2941  0.0319  0.8062
    9MOL0     C 1082  -0.488   8.519   8.591 -0.2132  0.2660 -0.0650
    9MOL0     C 1083  -0.628   8.517   8.594  0.0052  0.0423 -0.0392
    9MOL0     C 1084  -0.700   8.511   8.468 -0.1105  0.2226 -0.0329
    9MOL0     C 1085  -0.851   8.502   8.473  0.7628  0.3030  0.3960
    9MOL0     O 1086  -0.912   8.475   8.349 -0.1692  0.0309  0.3239
    9MOL0     C 1087  -1.046   8.452   8.331 -0.6883  0.2319 -0.3599
    9MOL0     C 1088  -1.110   8.488   8.202 -0.1760 -0.5230 -0.3685
    9MOL0     C 1089  -1.250   8.475   8.180 -0.0773  0.6803  0.7446
    9MOL0     C 1090  -1.337   8.440   8.282 -0.3470 -0.3176  0.6002
    9MOL0     O 1091  -1.471   8.445   8.247  0.0909  0.5725 -0.6997
    9MOL0     C 1092  -1.562   8.423   8.352  0.0469 -0.8192  0.1638
    9MOL0     C 1093  -1.705   8.423   8.295 -0.0384  0.0811  0.6794
    9MOL0     C 1094  -1.705   8.316   8.178  0.9685  0.0648  0.3356
    9MOL0     C 1095  -1.846   8.293   8.117  0.2873 -0.1774  0.4805
    9MOL0     C 1096  -1.902   8.421   8.055  0.0072  0.4636 -0.4452
    9MOL0     C 1097  -1.849   8.439   7.912  0.0174  0.0378  0.4158
    9MOL0     C 1098  -1.937   8.549   7.844 -1.3013 -0.7586  0.9603
    9MOL0     C 1099  -1.891   8.568   7.694 -1.4686  0.0056 -0.2360
    9MOL0    Cl 1100  -1.711   8.595   7.658 -0.2682 -0.1597  0.0559
    9MOL0     C 1101  -1.281   8.386   8.398 -0.2532  0.3735 -0.0047
    9MOL0     C 1102  -1.138   8.399   8.429  0.7423  1.1265  0.4930
    9MOL0     O 1103  -0.913   8.527   8.575  0.1539 -0.6366 -0.0932
    9MOL0     C 1104  -0.625   8.512   8.344 -0.6703 -0.1667 -0.9342
    9MOL0     C 1105  -0.485   8.521   8.344  0.3409  0.4033 -0.1832
    9MOL0     N 1106   0.183   8.570   8.916  0.3741 -0.3450  0.5601
    9MOL0     N 1107   0.280   8.556   8.997  0.1939  0.3569  0.6738
    9MOL0     C 1108   0.446   8.942   8.689  0.8009  0.1800 -0.3996
    9MOL0     C 1109   0.322   8.916   8.635  0.3933  0.8642 -0.4824
    9MOL0     C 1110  -0.004   8.952   8.300  0.0703 -0.3771  0.4718
    9MOL0     C 1111  -0.081   9.033   8.376  0.3065  0.2963  0.7371
    9MOL0     C 1112  -0.207   9.077   8.335  0.2303 -0.4857 -0.2620
    9MOL0     C 1113  -0.255   9.036   8.207 -0.6184  0.3082  0.0005
    9MOL0     O 1114  -0.370   9.080   8.148 -0.0497 -0.4411  0.5758
    9MOL0     C 1115  -0.494   9.090   8.226  0.5836 -0.2846  0.3517
    9MOL0     C 1116  -0.538   8.968   8.301 -0.5809  0.6636 -0.3916
    9MOL0     C 1117  -0.620   9.002   8.426 -0.6785 -0.9201  0.0763
    9MOL0     C 1118  -0.596   8.906   8.543 -1.0382  0.5728 -0.7496
    9MOL0     C 1119  -0.459   8.900   8.603  0.3947 -0.0137 -0.3527
    9MOL0     C 1120  -0.348   8.910   8.643  0.0433  0.4746 -0.3853
    9MOL0     C 1121  -0.174   8.948   8.133  0.1553  0.3216 -0.0949
    9MOL0     C 1122  -0.052   8.907   8.176  0.6488  0.3233 -0.8545
    9MOL0     H 1123   0.400   9.013   8.320  0.5404  1.0533 -0.2560
    9MOL0     H 1124   0.618   9.037   8.429 -0.1920 -1.3204 -0.5429
    9MOL0     H 1125   0.845   9.011   8.577 -0.8410 -0.5358 -1.7928
    9MOL0     H 1126   0.755   8.863   8.558  0.3116 -1.6582  0.3397
    9MOL0     H 1127   0.922   8.960   8.799 -0.3136  1.1517  0.8415
    9MOL0     H 1128   0.962   8.825   8.690  0.0248 -1.8114  4.4633
    9MOL0     H 1129   0.768   8.697   8.774 -1.1540  1.7273 -1.8250
    9MOL0     H 1130   0.720   8.832   8.880 -0.7344  0.5416  0.1676
    9MOL0     H 1131   0.946   8.647   8.904  1.3425  1.1987 -0.3597
    9MOL0     H 1132   0.971   8.803   8.981  0.6403 -1.0297  2.7548
    9MOL0     H 1133   0.751   8.765   9.105  0.8627  0.6430  0.9413
    9MOL0     H 1134   0.877   8.666   9.155  1.7117  0.9850 -0.7283
    9MOL0     H 1135   0.715   8.512   9.143  0.8508 -0.7240 -0.5406
    9MOL0     H 1136   0.789   8.495   8.984 -4.1778  0.2740 -2.8413
    9MOL0     H 1137   0.540   8.661   9.048  0.8752 -0.3109  1.6258
    9MOL0     H 1138   0.596   8.627   8.883 -1.1316  0.6657 -0.3291
    9MOL0     H 1139   0.486   8.432   9.090  1.2537  2.5364  0.9239
    9MOL0     H 1140   0.550   8.385   8.930  1.4669  0.3867  0.1980
    9MOL0     H 1141   0.376   8.386   8.739 -1.1633  0.1279 -1.1624
    9MOL0     H 1142   0.030   8.410   8.745 -1.7315  2.0875 -1.6586
    9MOL0     H 1143   0.156   8.405   8.618  1.3225  1.3778 -1.1474
    9MOL0     H 1144   0.159   8.641   8.593  0.2159 -0.4783 -1.7944
    9MOL0     H 1145   0.025   8.661   8.701  4.8842  2.6450  0.8398
    9MOL0     H 1146  -0.042   8.649   8.450  0.7825 -2.0099 -2.0014
    9MOL0     H 1147  -0.017   8.474   8.455  0.0027  0.2884 -1.9071
    9MOL0     H 1148  -0.221   8.605   8.634 -3.5957 -0.8809 -1.4712
    9MOL0     H 1149  -0.177   8.432   8.611 -0.5896 -0.6919  0.8721
    9MOL0     H 1150  -0.430   8.536   8.681  2.8753  0.5706 -1.9878
    9MOL0     H 1151  -0.674   8.537   8.690  2.2083 -0.0357  1.1019
    9MOL0     H 1152  -1.045   8.542   8.134  0.5406  0.1907  0.8557
    9MOL0     H 1153  -1.289   8.492   8.080 -0.0810 -0.2926  0.5660
    9MOL0     H 1154  -1.564   8.509   8.420 -0.3891 -0.0910 -0.7334
    9MOL0     H 1155  -1.538   8.335   8.412  4.1554 -0.2826 -0.4056
    9MOL0     H 1156  -1.739   8.517   8.250 -0.9503 -1.3447 -1.8160
    9MOL0     H 1157  -1.788   8.404   8.364 -1.0663  1.6554 -0.0466
    9MOL0     H 1158  -1.673   8.221   8.222 -1.8613 -1.5328 -0.7918
    9MOL0     H 1159  -1.638   8.345   8.097  0.0441 -1.6695 -1.1145
    9MOL0     H 1160  -1.843   8.216   8.039  0.0160  0.4023 -0.1081
    9MOL0     H 1161  -1.924   8.267   8.189 -0.1568  0.4928  0.2468
    9MOL0     H 1162  -1.895   8.513   8.114  0.9832 -0.8987  1.6515
    9MOL0     H 1163  -2.009   8.402   8.055  0.2043 -0.8761  1.6327
    9MOL0     H 1164  -1.860   8.343   7.861  1.2056 -0.8273  1.6957
    9MOL0     H 1165  -1.741   8.456   7.912 -0.2940  2.9690  2.7266
    9MOL0     H 1166  -2.046   8.535   7.851 -1.2446 -0.6384  2.1285
    9MOL0     H 1167  -1.917   8.643   7.895 -0.5482  0.6814 -1.8048
    9MOL0     H 1168  -1.947   8.651   7.650 -0.0427  1.7642  1.0736
    9MOL0     H 1169  -1.915   8.474   7.645 -0.1825 -1.0632  1.0650
    9MOL0     H 1170  -1.355   8.345   8.465 -0.7782 -0.9247 -1.3061
    9MOL0     H 1171  -1.113   8.362   8.528  4.3498  1.0943 -0.2930
    9MOL0     H 1172  -0.674   8.523   8.248  1.0796  1.6183 -1.6898
    9MOL0     H 1173  -0.434   8.520   8.248 -0.5744  0.7360 -0.6787
    9MOL0     H 1174   0.454   8.935   8.797  1.2964 -0.9519 -0.4940
    9MOL0     H 1175   0.245   8.874   8.700 -0.4721 -0.7984 -2.4617
    9MOL0     H 1176  -0.047   9.074   8.470  3.2075  0.1753 -0.1648
    9MOL0     H 1177  -0.256   9.156   8.390  2.5320  0.2485  0.8245
    9MOL0     H 1178  -0.579   9.122   8.165  2.3863  0.8262 -1.7428
    9MOL0     H 1179  -0.481   9.167   8.302  0.4855  2.8195 -2.5277
    9MOL0     H 1180  -0.598   8.898   8.242 -0.0312 -0.5502  0.4480
    9MOL0     H 1181  -0.445   8.918   8.329  0.2616  3.1881  1.6864
    9MOL0     H 1182  -0.727   8.997   8.402 -0.3128  2.5207 -3.0682
    9MOL0     H 1183  -0.605   9.102   8.469 -0.1119 -1.2750  0.7233
    9MOL0     H 1184  -0.665   8.931   8.624 -1.2906  0.1550 -0.8277
    9MOL0     H 1185  -0.620   8.802   8.517  3.6966 -0.4517 -2.0141
    9MOL0     H 1186  -0.246   8.907   8.676  0.3653  0.4878 -1.3439
    9MOL0     H 1187  -0.221   8.921   8.039  0.9114 -2.7173  0.2953
    9MOL0     H 1188  -0.002   8.828   8.121 -2.1482 -1.8811 -0.4108
   10MOL0     O 1189   6.592   4.531   7.465 -0.5158  0.5045  0.3891
   10MOL0     C 1190   6.563   4.558   7.347  0.0204  0.6878 -1.0168
   10MOL0     O 1191   6.445   4.605   7.304 -0.3552 -1.2703 -0.3015
   10MOL0     C 1192   6.335   4.640   7.381  0.4205 -0.3933  0.6016
   10MOL0     C 1193   6.275   4.771   7.363 -0.4781 -0.7597 -0.4942
   10MOL0     C 1194   6.151   4.788   7.433  0.1201  0.8156  0.2726
   10MOL0     C 1195   6.091   4.678   7.512 -0.0743 -0.5683  0.5295
   10MOL0     O 1196   5.988   4.693   7.600 -0.2509  0.2205  0.1029
   10MOL0     C 1197   5.887   4.790   7.564 -0.0186 -0.7465  0.2047
   10MOL0     C 1198   5.787   4.813   7.670  0.4772  0.5736 -0.2092
   10MOL0     C 1199   5.669   4.725   7.656  0.9803 -0.4598 -0.2986
   10MOL0     C 1200   5.571   4.768   7.764  0.5179 -0.4579  1.4579
   10MOL0     C 1201   5.582   4.700   7.902 -0.2411 -0.0343  0.3445
   10MOL0     C 1202   5.552   4.555   7.880 -0.9220 -0.5036  0.4662
   10MOL0     C 1203   5.501   4.487   8.005  0.1246 -0.2368 -1.1381
   10MOL0     C 1204   5.604   4.385   8.072 -0.6759 -0.2028  0.0528
   10MOL0     N 1205   5.709   4.471   8.138  0.0110 -0.0873 -0.3840
   10MOL0     C 1206   5.821   4.512   8.071 -0.1043  0.1120 -0.1538
   10MOL0     C 1207   5.900   4.571   8.160 -1.1157  1.0434  0.2135
   10MOL0     C 1208   6.044   4.606   8.133  0.5768 -0.0058  0.4593
   10MOL0     C 1209   6.068   4.724   8.040 -0.1685 -0.3039  0.8264
   10MOL0     C 1210   6.182   4.686   7.938 -0.6499 -0.1355 -0.1080
   10MOL0     C 1211   6.314   4.665   8.017  0.3411 -0.3156 -1.1388
   10MOL0     O 1212   6.415   4.646   7.914  0.2841 -0.1044 -0.2023
   10MOL0     C 1213   6.537   4.601   7.943 -0.0066 -0.4837 -0.2317
   10MOL0     C 1214   6.624   4.585   7.835  0.0665 -0.2092 -0.2025
   10MOL0     C 1215   6.756   4.542   7.846  0.5334  0.6647 -0.7418
   10MOL0     C 1216   6.808   4.523   7.977  0.1354  0.1348 -0.2332
   10MOL0     C 1217   6.945   4.478   8.001 -1.1374 -0.6118  0.7617
   10MOL0     O 1218   7.003   4.438   7.878 -0.1065 -0.3489 -0.2296
   10MOL0     C 1219   7.134   4.408   7.885 -0.4486  0.0431  0.0784
   10MOL0     C 1220   7.238   4.501   7.912  0.6734  0.2270 -0.0990
   10MOL0     C 1221   7.368   4.467   7.916 -0.4248  0.7052  0.0607
   10MOL0     C 1222   7.410   4.339   7.888 -1.1493 -0.4283 -0.4469
   10MOL0     O 1223   7.542   4.324   7.908  0.3848 -0.5962 -0.5589
   10MOL0     C 1224   7.599   4.197   7.864 -0.5531 -0.6410 -0.4750
   10MOL0     C 1225   7.754   4.209   7.843  0.6392  0.2071  0.1470
   10MOL0     C 1226   7.783   4.321   7.744  0.5221  0.0871  0.1151
   10MOL0     C 1227   7.918   4.309   7.679  0.3997 -0.3732  0.0497
   10MOL0     C 1228   7.926   4.421   7.580 -0.4709  0.6946  0.1145
   10MOL0     C 1229   8.074   4.441   7.526 -1.0094 -0.2583 -0.0475
   10MOL0     C 1230   8.187   4.445   7.637  0.1754  0.0325  1.1018
   10MOL0     C 1231   8.323   4.477   7.568  0.3504  0.1540  0.0037
   10MOL0    Cl 1232   8.300   4.624   7.468  0.0047  0.0782  0.6175
   10MOL0     C 1233   7.309   4.239   7.862 -0.1532 -0.3766 -0.5980
   10MOL0     C 1234   7.174   4.271   7.864 -0.2419 -0.2377 -0.5518
   10MOL0     O 1235   6.999   4.488   8.107 -0.5842 -0.5133 -1.1450
   10MOL0     C 1236   6.723   4.552   8.092 -0.1890  0.4492  0.8095
   10MOL0     C 1237   6.589   4.589   8.076  0.3917  1.1669  0.4561
   10MOL0     N 1238   5.836   4.566   8.283 -0.0636 -0.0771 -0.8660
   10MOL0     N 1239   5.721   4.508   8.272  0.3922  0.5181  0.4586
   10MOL0     C 1240   6.158   4.552   7.514 -0.0433 -0.1629  0.4262
   10MOL0     C 1241   6.274   4.535   7.453  1.0514 -0.7619 -0.5062
   10MOL0     C 1242   6.671   4.526   7.259 -0.0578 -0.3465 -0.0452
   10MOL0     C 1243   6.641   4.542   7.118 -0.2205 -0.5647 -0.6067
   10MOL0     C 1244   6.738   4.523   7.017  0.7909 -0.0080 -0.8269
   10MOL0     C 1245   6.868   4.495   7.066 -0.0705 -1.0365  0.4528
   10MOL0     O 1246   6.970   4.507   6.974  0.0427 -0.6166  0.5898
   10MOL0     C 1247   7.096   4.462   7.015  0.4683 -0.0923 -0.5929
   10MOL0     C 1248   7.185   4.448   6.900 -0.4319 -0.0686 -0.0133
   10MOL0     C 1249   7.329   4.431   6.954  0.0593  0.7811 -0.0795
   10MOL0     C 1250   7.436   4.394   6.842  0.3617  0.0506 -0.0569
   10MOL0     C 1251   7.425   4.254   6.788  0.9699  0.0050  0.9830
   10MOL0     C 1252   7.416   4.140   6.741 -0.1740 -0.0342  0.1446
   10MOL0     C 1253   6.897   4.479   7.207  0.3702 -0.2356  0.1875
   10MOL0     C 1254   6.801   4.501   7.298  0.0043  0.2901 -0.5170
   10MOL0     H 1255   6.329   4.841   7.300  0.6881 -0.6224  0.6231
   10MOL0     H 1256   6.111   4.887   7.412 -0.2485  0.3477 -1.3603
   10MOL0     H 1257   5.836   4.749   7.476  0.8875 -0.9955 -0.2167
   10MOL0     H 1258   5.944   4.882   7.547 -0.4188 -0.5635 -0.1758
   10MOL0     H 1259   5.757   4.918   7.666 -4.1058 -0.3733  1.9119
   10MOL0     H 1260   5.831   4.794   7.769 -2.7190 -0.1347  1.2247
   10MOL0     H 1261   5.702   4.621   7.667 -1.6862 -1.4797 -1.1936
   10MOL0     H 1262   5.622   4.737   7.557  0.2882 -1.6883 -0.1299
   10MOL0     H 1263   5.580   4.876   7.783 -1.0353  0.1851 -0.9845
   10MOL0     H 1264   5.471   4.751   7.724  1.1482 -3.0644  0.8340
   10MOL0     H 1265   5.503   4.745   7.962  0.7343  1.7747  0.3569
   10MOL0     H 1266   5.679   4.719   7.949 -0.3560  4.7568 -0.8982
   10MOL0     H 1267   5.636   4.498   7.839 -2.5377 -0.3210 -3.4995
   10MOL0     H 1268   5.481   4.547   7.797 -0.8029  1.0666  0.1775
   10MOL0     H 1269   5.466   4.553   8.084 -0.2193 -2.2914  0.5143
   10MOL0     H 1270   5.421   4.420   7.971 -0.5027 -0.2051  0.2370
   10MOL0     H 1271   5.656   4.319   8.003  0.6708  0.3478  0.5090
   10MOL0     H 1272   5.552   4.319   8.143  3.6996 -1.6476  2.3002
   10MOL0     H 1273   5.850   4.496   7.968 -0.0130  1.3220 -0.3196
   10MOL0     H 1274   6.086   4.519   8.081  1.8051  0.7268  0.1667
   10MOL0     H 1275   6.086   4.617   8.233 -1.1347 -0.7117  1.2891
   10MOL0     H 1276   6.093   4.818   8.091  0.5532 -0.0495  0.0469
   10MOL0     H 1277   5.976   4.740   7.983 -0.9136  1.3034  2.3932
   10MOL0     H 1278   6.157   4.599   7.877 -1.8011 -0.4222  0.7132
   10MOL0     H 1279   6.190   4.765   7.863 -0.3768 -0.6208 -0.5950
   10MOL0     H 1280   6.296   4.572   8.072 -2.0809  0.3123 -0.7346
   10MOL0     H 1281   6.338   4.749   8.082  0.0781 -0.9820 -0.1618
   10MOL0     H 1282   6.588   4.613   7.737  2.2233  1.5662 -0.5846
   10MOL0     H 1283   6.809   4.533   7.752  1.5460  0.3683 -0.1585
   10MOL0     H 1284   7.214   4.606   7.921 -0.2221  0.3650 -2.9953
   10MOL0     H 1285   7.446   4.539   7.942 -1.1250  1.3288  0.4757
   10MOL0     H 1286   7.562   4.160   7.768  1.8420 -0.1986 -1.6297
   10MOL0     H 1287   7.572   4.111   7.926 -3.0175 -0.8450 -1.7047
   10MOL0     H 1288   7.793   4.114   7.806  4.3662  0.5589  2.5727
   10MOL0     H 1289   7.794   4.225   7.944 -0.8586  1.0405  0.6444
   10MOL0     H 1290   7.767   4.415   7.797  0.2804  1.6885 -2.6300
   10MOL0     H 1291   7.709   4.314   7.664  1.5687 -1.4770 -0.7720
   10MOL0     H 1292   7.995   4.319   7.755  1.7685 -4.2681 -0.5945
   10MOL0     H 1293   7.930   4.206   7.644 -1.1420 -0.9014  0.9803
   10MOL0     H 1294   7.892   4.510   7.634 -0.3722  1.5687 -1.2259
   10MOL0     H 1295   7.865   4.387   7.496  1.5332 -0.8116 -0.8127
   10MOL0     H 1296   8.080   4.537   7.475  0.9458  0.3674  1.2527
   10MOL0     H 1297   8.098   4.371   7.446  1.8682  1.7356 -1.0911
   10MOL0     H 1298   8.164   4.528   7.705  1.6282  1.0858  0.3766
   10MOL0     H 1299   8.200   4.351   7.691  1.6214 -0.5536 -0.1993
   10MOL0     H 1300   8.351   4.399   7.497  0.9348  0.5630 -0.2219
   10MOL0     H 1301   8.410   4.492   7.634  2.6095 -2.3927 -2.1830
   10MOL0     H 1302   7.328   4.134   7.841  1.9498 -0.4161  1.0863
   10MOL0     H 1303   7.101   4.191   7.855 -1.4686  0.7879  0.0137
   10MOL0     H 1304   6.765   4.532   8.190  3.1609 -2.6113 -1.0463
   10MOL0     H 1305   6.515   4.603   8.154 -0.7603  0.6970 -0.5025
   10MOL0     H 1306   6.127   4.479   7.589 -0.9492  0.8389  1.0551
   10MOL0     H 1307   6.321   4.437   7.448 -0.2673 -1.3444 -4.1108
   10MOL0     H 1308   6.545   4.581   7.088 -0.1312  1.8655  1.8462
   10MOL0     H 1309   6.712   4.543   6.914  1.2639 -0.4936 -1.0458
   10MOL0     H 1310   7.089   4.365   7.065 -1.9392  0.4351  0.2326
   10MOL0     H 1311   7.137   4.528   7.092 -0.6581  0.8461 -0.7659
   10MOL0     H 1312   7.144   4.359   6.853  0.7041 -0.7474  0.2196
   10MOL0     H 1313   7.178   4.533   6.832 -1.6466  1.4472  1.8717
   10MOL0     H 1314   7.343   4.352   7.029 -2.3077  0.0885 -0.2577
   10MOL0     H 1315   7.361   4.522   7.005  2.7396  0.2388 -0.6402
   10MOL0     H 1316   7.423   4.464   6.759 -4.7721 -0.3932  0.0254
   10MOL0     H 1317   7.539   4.406   6.876  0.6420 -1.7953 -0.1663
   10MOL0     H 1318   7.419   4.042   6.696 -0.8193 -0.4734  1.0338
   10MOL0     H 1319   6.991   4.452   7.254 -1.4636 -1.5730  3.4337
   10MOL0     H 1320   6.817   4.486   7.404  0.5478  1.4196 -0.4297
   11MOL0     O 1321   3.613   0.901   0.606 -0.1369  0.4626 -0.5780
   11MOL0     C 1322   3.686   0.869   0.695 -0.0973  0.3084 -1.1205
   11MOL0     O 1323   3.649   0.840   0.820 -0.1407 -0.3431  0.1562
   11MOL0     C 1324   3.519   0.826   0.867 -0.4113 -0.8511 -0.0987
   11MOL0     C 1325   3.498   0.891   0.989 -0.2966  0.7369 -0.3344
   11MOL0     C 1326   3.377   0.895   1.054 -0.8206 -0.2899  0.4370
   11MOL0     C 1327   3.266   0.838   0.996  0.0292 -0.3217 -0.9565
   11MOL0     O 1328   3.137   0.822   1.035  0.2890 -0.3836 -0.7595
   11MOL0     C 1329   3.079   0.905   1.132 -0.3036 -1.3937  0.0682
   11MOL0     C 1330   2.961   0.836   1.198  0.5553 -0.1108  0.1638
   11MOL0     C 1331   2.844   0.803   1.105 -1.0205  0.1071 -0.2887
   11MOL0     C 1332   2.748   0.702   1.166 -0.0040 -0.4893  0.0636
   11MOL0     C 1333   2.690   0.752   1.296 -0.0452 -0.7432 -0.2026
   11MOL0     C 1334   2.585   0.656   1.357  0.3308  0.0772  0.9744
   11MOL0     C 1335   2.464   0.617   1.259  0.7371  0.9374  0.0564
   11MOL0     C 1336   2.371   0.506   1.303 -0.0603  0.3770 -0.5197
   11MOL0     N 1337   2.290   0.545   1.421  0.1110  0.2815  0.1728
   11MOL0     C 1338   2.197   0.647   1.414 -1.0829  0.3304  0.3150
   11MOL0     C 1339   2.144   0.657   1.536 -0.0119 -0.4989 -0.4287
   11MOL0     C 1340   2.043   0.743   1.582  0.0736 -0.3645 -0.0290
   11MOL0     C 1341   1.902   0.701   1.533  0.5564  0.0614 -0.5096
   11MOL0     C 1342   1.867   0.559   1.578 -0.0906  0.5197 -1.0653
   11MOL0     C 1343   1.727   0.508   1.541  0.6344  0.3554  0.2783
   11MOL0     O 1344   1.707   0.388   1.621  0.7902 -0.1505  0.5479
   11MOL0     C 1345   1.578   0.326   1.631  0.3722  0.3280 -0.1468
   11MOL0     C 1346   1.457   0.396   1.654 -0.3453 -0.0119 -0.2601
   11MOL0     C 1347   1.333   0.327   1.675 -0.4027  0.2739 -0.3190
   11MOL0     C 1348   1.334   0.194   1.703  0.7260  0.2531 -0.2712
   11MOL0     C 1349   1.208   0.129   1.750 -0.8628  0.3238  0.1766
   11MOL0     O 1350   1.211  -0.008   1.743 -0.1925  0.3721 -0.8612
   11MOL0     C 1351   1.108  -0.076   1.805 -0.0791  0.6130 -0.6914
   11MOL0     C 1352   0.978  -0.067   1.752 -0.6654  0.3884 -0.1239
   11MOL0     C 1353   0.874  -0.137   1.819 -0.0853 -0.5679  0.6559
   11MOL0     C 1354   0.891  -0.206   1.939 -0.1535 -0.2887 -0.1023
   11MOL0     O 1355   0.797  -0.279   2.011  0.3084 -0.7962 -0.2861
   11MOL0     C 1356   0.664  -0.284   1.959  0.1817 -0.7394 -0.1318
   11MOL0     C 1357   0.565  -0.365   2.050  0.1405 -0.3400 -0.1809
   11MOL0     C 1358   0.616  -0.510   2.087 -0.1450  0.4282  0.7470
   11MOL0     C 1359   0.529  -0.582   2.190 -0.7895  0.1091  0.5972
   11MOL0     C 1360   0.398  -0.618   2.120 -0.2884 -0.1060  0.2265
   11MOL0     C 1361   0.324  -0.733   2.191 -0.1971 -0.0358  0.0296
   11MOL0     C 1362   0.186  -0.742   2.137  0.0262  0.3356  0.2272
   11MOL0     C 1363   0.073  -0.679   2.212 -0.4264  0.1639 -0.6401
   11MOL0    Cl 1364   0.076  -0.747   2.385  0.4398  0.2470 -0.0603
   11MOL0     C 1365   1.021  -0.213   1.985  0.2196 -0.4012 -0.2875
   11MOL0     C 1366   1.127  -0.155   1.920  0.0567  0.7678 -0.5801
   11MOL0     O 1367   1.112   0.199   1.788  0.1735  0.0783  0.5006
   11MOL0     C 1368   1.447   0.125   1.676 -0.2662 -0.0723 -0.4941
   11MOL0     C 1369   1.574   0.189   1.652  1.0161 -0.3737 -0.4798
   11MOL0     N 1370   2.197   0.548   1.612 -0.3741  0.1562 -0.2139
   11MOL0     N 1371   2.297   0.492   1.543  0.5953 -0.6741  0.5755
   11MOL0     C 1372   3.290   0.765   0.871  0.2087  1.0239  1.5054
   11MOL0     C 1373   3.416   0.762   0.804 -0.1133 -0.3487  1.0721
   11MOL0     C 1374   3.824   0.857   0.657 -0.3822 -0.8674  0.1237
   11MOL0     C 1375   3.921   0.838   0.765  0.0458 -0.0991  0.2984
   11MOL0     C 1376   4.061   0.823   0.741  1.2097  0.0185  0.1167
   11MOL0     C 1377   4.115   0.833   0.617  0.6647 -0.2975  0.8510
   11MOL0     O 1378   4.245   0.831   0.576 -0.4297 -0.1567 -0.6062
   11MOL0     C 1379   4.358   0.819   0.671 -0.6099 -0.7646  0.1934
   11MOL0     C 1380   4.384   0.961   0.742 -0.2939  0.0149  0.6094
   11MOL0     C 1381   4.425   1.080   0.653 -0.3432  0.2787 -0.2380
   11MOL0     C 1382   4.568   1.069   0.603  0.5210 -0.2780 -0.3320
   11MOL0     C 1383   4.608   1.178   0.513  0.8268  0.3648  0.2545
   11MOL0     C 1384   4.629   1.259   0.423  0.6101  0.3870 -0.3111
   11MOL0     C 1385   4.017   0.855   0.512 -0.0737  0.2160 -0.2943
   11MOL0     C 1386   3.876   0.863   0.533 -0.9839  0.9223  0.6058
   11MOL0     H 1387   3.586   0.938   1.033 -0.4624 -0.4482  1.3913
   11MOL0     H 1388   3.377   0.958   1.142  1.0914 -1.3500  1.2620
   11MOL0     H 1389   3.045   0.999   1.087 -0.4101 -1.1871  0.5698
   11MOL0     H 1390   3.156   0.923   1.208 -0.4810 -1.6343  0.3044
   11MOL0     H 1391   2.923   0.899   1.279 -0.9099 -1.4786  0.5846
   11MOL0     H 1392   2.986   0.738   1.238 -0.3584  0.2788  1.7823
   11MOL0     H 1393   2.880   0.768   1.008 -2.9068  2.4815 -1.9636
   11MOL0     H 1394   2.799   0.898   1.074  0.6427  0.3183 -2.2455
   11MOL0     H 1395   2.675   0.677   1.088  0.3883 -1.5269  0.0222
   11MOL0     H 1396   2.808   0.614   1.189  0.2655 -0.3053  0.0678
   11MOL0     H 1397   2.650   0.852   1.278 -0.4161 -1.3000 -2.8655
   11MOL0     H 1398   2.760   0.769   1.378  0.4950 -1.6088 -0.4756
   11MOL0     H 1399   2.541   0.709   1.442 -1.5796  2.9768 -1.5884
   11MOL0     H 1400   2.627   0.560   1.389 -1.3729 -1.6937 -1.7482
   11MOL0     H 1401   2.403   0.706   1.246 -1.2123 -0.4481 -0.8240
   11MOL0     H 1402   2.496   0.578   1.162  0.6557 -0.4835  0.5707
   11MOL0     H 1403   2.446   0.430   1.328 -0.3523  0.3549  0.3311
   11MOL0     H 1404   2.317   0.466   1.217 -1.3037 -0.6325  0.6905
   11MOL0     H 1405   2.178   0.707   1.326  1.1641  2.4031  1.0979
   11MOL0     H 1406   2.054   0.840   1.533 -0.2308  0.6029  1.7582
   11MOL0     H 1407   2.047   0.737   1.691 -0.1284  0.1377  0.0075
   11MOL0     H 1408   1.890   0.707   1.424  2.2062  2.6116 -0.6386
   11MOL0     H 1409   1.825   0.768   1.573 -0.0723  0.4655 -2.2827
   11MOL0     H 1410   1.939   0.497   1.525 -0.3752 -0.8274  0.0715
   11MOL0     H 1411   1.878   0.553   1.687  0.3136  1.1798 -1.0656
   11MOL0     H 1412   1.719   0.485   1.434  0.2727  1.0347  0.1489
   11MOL0     H 1413   1.657   0.589   1.564 -0.6532 -0.8628  0.7555
   11MOL0     H 1414   1.450   0.504   1.652  1.7273  0.2214  1.5147
   11MOL0     H 1415   1.241   0.384   1.680 -1.2740 -1.1467  3.4166
   11MOL0     H 1416   0.968  -0.006   1.663 -1.2490 -1.2256 -1.2215
   11MOL0     H 1417   0.779  -0.125   1.768  0.4911 -0.0735 -0.3284
   11MOL0     H 1418   0.657  -0.334   1.862  2.2317  0.9595 -1.2445
   11MOL0     H 1419   0.623  -0.183   1.949  2.3333  0.1727 -0.3381
   11MOL0     H 1420   0.466  -0.368   2.003 -0.6286 -1.0342  1.3969
   11MOL0     H 1421   0.561  -0.315   2.147 -4.2537 -1.9824  0.7409
   11MOL0     H 1422   0.706  -0.489   2.146  0.8544  2.5474 -1.3804
   11MOL0     H 1423   0.637  -0.572   2.000 -2.0432  1.0325 -0.2068
   11MOL0     H 1424   0.569  -0.677   2.227  0.8998 -0.4222 -2.2618
   11MOL0     H 1425   0.514  -0.511   2.272  1.0798  3.0216 -1.3552
   11MOL0     H 1426   0.421  -0.653   2.019  1.9902  1.5765  0.0827
   11MOL0     H 1427   0.333  -0.530   2.117 -2.2097 -1.4858 -0.2385
   11MOL0     H 1428   0.324  -0.727   2.300  1.6096  1.2158 -0.0047
   11MOL0     H 1429   0.381  -0.824   2.171  2.5803  0.7120  3.5633
   11MOL0     H 1430   0.184  -0.698   2.037  0.0189  1.9155  0.8866
   11MOL0     H 1431   0.164  -0.849   2.139 -0.0101  0.3230 -0.6650
   11MOL0     H 1432  -0.019  -0.694   2.154 -0.0553  0.8683 -1.4409
   11MOL0     H 1433   0.094  -0.572   2.220  0.1496 -0.0715  1.7261
   11MOL0     H 1434   1.038  -0.273   2.073 -2.1508  1.0341  1.2762
   11MOL0     H 1435   1.229  -0.161   1.954  0.2077  1.6440 -0.8537
   11MOL0     H 1436   1.460   0.017   1.673 -0.4926 -0.0818 -1.7014
   11MOL0     H 1437   1.667   0.134   1.635 -0.0015 -1.9371 -1.1917
   11MOL0     H 1438   3.214   0.705   0.822  2.2838  0.1584 -0.8368
   11MOL0     H 1439   3.421   0.721   0.703  0.4869  2.8067 -0.2775
   11MOL0     H 1440   3.881   0.851   0.865  1.4434  3.5741  0.5747
   11MOL0     H 1441   4.125   0.811   0.828  0.1896  0.7687  0.9974
   11MOL0     H 1442   4.446   0.788   0.614  1.0238 -0.5285  2.4718
   11MOL0     H 1443   4.334   0.746   0.749  1.8148 -1.4015  0.4073
   11MOL0     H 1444   4.298   0.994   0.801  0.6232  0.3015  1.8463
   11MOL0     H 1445   4.458   0.936   0.819  1.1156 -1.6960 -1.1801
   11MOL0     H 1446   4.416   1.169   0.717  1.8212 -1.3305  2.5475
   11MOL0     H 1447   4.353   1.088   0.571 -3.4191 -0.9681  2.1455
   11MOL0     H 1448   4.638   1.070   0.688  0.6736 -2.2183 -0.3833
   11MOL0     H 1449   4.592   0.979   0.544  1.6247  0.2261 -0.6851
   11MOL0     H 1450   4.642   1.325   0.340 -1.3254  3.3033  1.5050
   11MOL0     H 1451   4.059   0.858   0.412 -0.0072 -0.2863 -0.2844
   11MOL0     H 1452   3.813   0.858   0.445 -0.1424 -2.1031  0.0628
   12MOL0     O 1453   5.719   6.390   8.661  0.3990 -0.4427 -0.4873
   12MOL0     C 1454   5.777   6.416   8.762 -0.3014 -0.4500  0.6525
   12MOL0     O 1455   5.734   6.372   8.886  0.4335  0.6485 -0.8655
   12MOL0     C 1456   5.623   6.295   8.887  1.1619  0.8690 -0.6770
   12MOL0     C 1457   5.514   6.344   8.952  0.1837 -0.2937  0.5972
   12MOL0     C 1458   5.398   6.259   8.974 -0.7341 -0.3401 -0.0240
   12MOL0     C 1459   5.403   6.124   8.940 -0.1385 -0.2366  0.5696
   12MOL0     O 1460   5.293   6.053   8.979 -0.0501 -0.3776 -0.8646
   12MOL0     C 1461   5.219   5.970   8.885  1.0787  0.4450  0.2086
   12MOL0     C 1462   5.067   5.993   8.909  0.4708 -0.1725  0.0718
   12MOL0     C 1463   5.015   5.942   9.048 -0.0503  0.0894  0.8495
   12MOL0     C 1464   4.870   5.996   9.065 -0.9054 -0.3635  0.3252
   12MOL0     C 1465   4.791   5.967   9.196  0.0986 -0.1774 -0.1502
   12MOL0     C 1466   4.878   5.990   9.320  0.3556  0.1475  0.5292
   12MOL0     C 1467   4.809   5.948   9.451 -0.1835 -0.2117 -0.6095
   12MOL0     C 1468   4.674   6.023   9.480  0.0157  0.2798  0.3563
   12MOL0     N 1469   4.616   6.005   9.618 -0.2834  0.3226  0.7265
   12MOL0     C 1470   4.582   5.878   9.663 -0.1438  0.4196 -0.2475
   12MOL0     C 1471   4.503   5.899   9.763 -0.0653  0.2138 -0.4508
   12MOL0     C 1472   4.444   5.773   9.823 -0.1998  0.8869 -0.1659
   12MOL0     C 1473   4.319   5.794   9.902  0.3832  0.5065 -1.1324
   12MOL0     C 1474   4.211   5.881   9.835 -0.0482  0.5516  0.0301
   12MOL0     C 1475   4.109   5.931   9.946  0.0706 -0.1101  0.0803
   12MOL0     O 1476   4.053   5.827  10.026 -0.3704 -0.6630 -0.9864
   12MOL0     C 1477   3.943   5.838  10.101 -0.3056 -0.0579 -0.3797
   12MOL0     C 1478   3.892   5.969  10.129 -0.2024 -0.4687 -0.7536
   12MOL0     C 1479   3.769   5.983  10.196  0.5141  0.1628  0.0544
   12MOL0     C 1480   3.710   5.865  10.248 -0.1219 -0.2763  1.2258
   12MOL0     C 1481   3.573   5.879  10.305 -0.1808 -0.5285 -0.2995
   12MOL0     O 1482   3.493   5.769  10.293  0.0447  0.1062  0.3016
   12MOL0     C 1483   3.361   5.779  10.333 -0.2381 -0.7669 -0.5466
   12MOL0     C 1484   3.324   5.811  10.463 -0.7062  0.5133  0.4012
   12MOL0     C 1485   3.196   5.833  10.498  0.4304  0.5975 -0.1209
   12MOL0     C 1486   3.091   5.812  10.398 -0.2292  0.8306 -0.8891
   12MOL0     O 1487   2.956   5.843  10.415 -0.2983  0.6105  0.3280
   12MOL0     C 1488   2.920   5.903  10.543  0.5467  0.4486 -0.4228
   12MOL0     C 1489   2.770   5.923  10.535 -0.4047 -0.8012  0.2213
   12MOL0     C 1490   2.708   5.972  10.670  0.3590  0.1428 -0.8662
   12MOL0     C 1491   2.556   6.006  10.664 -0.0095  0.2639  0.1089
   12MOL0     C 1492   2.496   6.059  10.790  0.2114  0.3613 -0.4963
   12MOL0     C 1493   2.470   5.942  10.896 -0.2042 -1.1172  0.2106
   12MOL0     C 1494   2.392   5.990  11.016  0.0632 -0.4377  0.1548
   12MOL0     C 1495   2.386   5.886  11.126 -0.9940 -0.6512 -0.4854
   12MOL0    Cl 1496   2.336   5.973  11.275  0.2155 -0.3063 -0.5081
   12MOL0     C 1497   3.127   5.772  10.269  0.8371  0.3693 -0.4637
   12MOL0     C 1498   3.264   5.752  10.236  0.9543 -0.7173 -0.7581
   12MOL0     O 1499   3.540   5.979  10.363  0.2575  0.3996 -0.1338
   12MOL0     C 1500   3.764   5.737  10.211 -0.9963 -0.6252  0.0042
   12MOL0     C 1501   3.879   5.725  10.141 -0.1187 -0.3018 -0.9478
   12MOL0     N 1502   4.499   6.031   9.797 -0.0555  0.3736  0.8097
   12MOL0     N 1503   4.564   6.093   9.706  0.9635  0.1309 -0.3340
   12MOL0     C 1504   5.512   6.075   8.877  0.3958 -0.0639 -0.0873
   12MOL0     C 1505   5.622   6.159   8.853 -0.5137 -0.2747  0.6199
   12MOL0     C 1506   5.914   6.468   8.758  0.0410 -0.3397  0.6100
   12MOL0     C 1507   5.995   6.438   8.866 -0.0610 -0.7141  0.6589
   12MOL0     C 1508   6.131   6.480   8.862 -0.0700  0.4265  0.6893
   12MOL0     C 1509   6.186   6.557   8.764 -0.2517  0.1381 -0.0945
   12MOL0     O 1510   6.316   6.587   8.778 -0.3056 -0.4719 -0.2726
   12MOL0     C 1511   6.374   6.694   8.703 -0.6836  0.3320 -0.2445
   12MOL0     C 1512   6.436   6.648   8.577 -0.5198  0.3951  0.2248
   12MOL0     C 1513   6.559   6.732   8.537  0.3388  0.7002  0.1296
   12MOL0     C 1514   6.690   6.662   8.561  0.2133  0.2350  0.1501
   12MOL0     C 1515   6.801   6.751   8.529  0.1161  0.0130  0.6453
   12MOL0     C 1516   6.894   6.823   8.491  0.1309  1.4673 -0.6075
   12MOL0     C 1517   6.104   6.577   8.648  0.1303  0.6980  0.4331
   12MOL0     C 1518   5.971   6.537   8.648  1.1567  0.3654  0.3894
   12MOL0     H 1519   5.505   6.451   8.967  4.5701  0.3111  0.2982
   12MOL0     H 1520   5.308   6.294   9.025  1.2961  2.7637  1.8067
   12MOL0     H 1521   5.244   5.866   8.905  1.2402  0.6057  0.8766
   12MOL0     H 1522   5.244   6.010   8.787 -3.7404 -1.1995 -1.9881
   12MOL0     H 1523   5.010   5.943   8.830  1.0081 -0.3750 -0.1893
   12MOL0     H 1524   5.054   6.102   8.900 -0.2163 -0.1104  1.5470
   12MOL0     H 1525   5.076   5.979   9.131  1.8198 -0.0150 -0.4144
   12MOL0     H 1526   5.022   5.833   9.053 -0.1606  0.0616  0.3866
   12MOL0     H 1527   4.870   6.105   9.052 -0.3948  0.0079  2.9630
   12MOL0     H 1528   4.821   5.950   8.979  1.5091 -1.1267 -0.7270
   12MOL0     H 1529   4.773   5.860   9.181  0.8929  0.0271 -3.2681
   12MOL0     H 1530   4.695   6.018   9.198  0.4262  0.4359  0.3220
   12MOL0     H 1531   4.892   6.098   9.326  0.1105  0.1244  2.1851
   12MOL0     H 1532   4.974   5.939   9.312 -0.5166 -1.3124 -1.6798
   12MOL0     H 1533   4.794   5.840   9.457  0.9263 -0.3404  0.0892
   12MOL0     H 1534   4.880   5.968   9.531  2.1269  2.1753 -3.0442
   12MOL0     H 1535   4.599   5.993   9.406  0.3545  0.4482 -0.0595
   12MOL0     H 1536   4.671   6.131   9.462  1.6716 -0.1318 -3.2557
   12MOL0     H 1537   4.585   5.782   9.612  1.5091  0.1212  0.3412
   12MOL0     H 1538   4.511   5.720   9.892 -1.7538  0.7427  1.2887
   12MOL0     H 1539   4.439   5.704   9.739  0.4297  3.1597 -2.1772
   12MOL0     H 1540   4.350   5.852   9.989 -0.2699  0.9229 -1.1642
   12MOL0     H 1541   4.276   5.703   9.943  2.4713  0.1066  0.3287
   12MOL0     H 1542   4.252   5.963   9.775  3.3530 -1.7643 -1.1075
   12MOL0     H 1543   4.166   5.808   9.768  0.7545  1.0528 -1.0901
   12MOL0     H 1544   4.040   5.995   9.888  2.0239 -0.8035 -3.2801
   12MOL0     H 1545   4.164   5.999  10.011 -0.0349  0.1946 -0.1429
   12MOL0     H 1546   3.937   6.065  10.106 -0.7990  0.5622  1.9946
   12MOL0     H 1547   3.723   6.082  10.198 -0.3099 -0.1090 -2.3742
   12MOL0     H 1548   3.395   5.839  10.540  0.1000  1.7287 -0.7315
   12MOL0     H 1549   3.181   5.884  10.592 -1.6326 -0.0860 -0.0452
   12MOL0     H 1550   2.977   5.993  10.570  1.4439 -0.7650  2.0401
   12MOL0     H 1551   2.937   5.829  10.622  0.2913 -0.2006 -0.9678
   12MOL0     H 1552   2.725   5.832  10.494 -0.8411 -0.3180 -0.3911
   12MOL0     H 1553   2.762   6.002  10.460  0.6883  2.1305  2.9790
   12MOL0     H 1554   2.768   6.056  10.707  0.1057  0.6691 -1.6291
   12MOL0     H 1555   2.719   5.888  10.739  2.5670  1.5555  0.6451
   12MOL0     H 1556   2.543   6.083  10.588  0.7031  1.3153  1.0134
   12MOL0     H 1557   2.498   5.920  10.631  1.6072 -0.7995 -0.0928
   12MOL0     H 1558   2.401   6.106  10.765 -0.3324  0.1460  1.0226
   12MOL0     H 1559   2.572   6.127  10.829  0.7165 -1.0377  1.1195
   12MOL0     H 1560   2.565   5.892  10.917  2.2976  1.9033 -2.7272
   12MOL0     H 1561   2.401   5.875  10.844 -1.8896  1.5949 -1.2775
   12MOL0     H 1562   2.452   6.076  11.045  0.5961 -0.8515  0.2922
   12MOL0     H 1563   2.288   6.017  10.992 -0.4946 -2.7582 -0.3649
   12MOL0     H 1564   2.484   5.842  11.147 -1.3931 -0.4338  2.1719
   12MOL0     H 1565   2.307   5.818  11.095 -1.4036 -0.8180  0.8663
   12MOL0     H 1566   3.054   5.761  10.190 -0.4859  2.0785  0.4543
   12MOL0     H 1567   3.285   5.722  10.133  2.0996  0.4087 -0.8812
   12MOL0     H 1568   3.722   5.644  10.249  1.0584 -2.6955 -2.4471
   12MOL0     H 1569   3.933   5.631  10.130 -1.3817 -1.2868  0.8632
   12MOL0     H 1570   5.526   5.969   8.860  0.6289  0.2214 -1.8873
   12MOL0     H 1571   5.716   6.122   8.815  0.2318  2.3546 -0.3149
   12MOL0     H 1572   5.957   6.381   8.950 -1.0080  1.2879  1.6622
   12MOL0     H 1573   6.199   6.456   8.942  1.9244 -0.5443 -1.1878
   12MOL0     H 1574   6.447   6.739   8.771 -1.7531  1.7704 -0.0021
   12MOL0     H 1575   6.302   6.774   8.684 -1.1972 -0.3646 -1.3094
   12MOL0     H 1576   6.461   6.543   8.593  0.0287  0.5834  0.6420
   12MOL0     H 1577   6.361   6.661   8.498 -0.7936 -1.4298  0.1409
   12MOL0     H 1578   6.566   6.822   8.599  0.3691  2.0322 -1.7132
   12MOL0     H 1579   6.553   6.767   8.434 -1.3403 -1.6608 -0.6686
   12MOL0     H 1580   6.684   6.642   8.668  2.2416  3.5815  1.0407
   12MOL0     H 1581   6.697   6.566   8.508  0.9159  0.1396  0.4012
   12MOL0     H 1582   6.983   6.865   8.450  0.6499  0.5748 -0.4180
   12MOL0     H 1583   6.138   6.621   8.555 -2.1274  0.9058 -0.3561
   12MOL0     H 1584   5.905   6.557   8.565 -0.7379  0.8741  1.9530
   13MOL0     O 1585   0.458   0.387   5.977 -0.4447 -0.0937 -0.3818
   13MOL0     C 1586   0.501   0.342   6.092  0.0716  0.8333 -0.5891
   13MOL0     O 1587   0.418   0.292   6.191 -0.3338  0.3145  0.6385
   13MOL0     C 1588   0.284   0.261   6.171  0.2844 -0.1168 -0.3156
   13MOL0     C 1589   0.218   0.227   6.049 -0.3687 -0.0843  0.1197
   13MOL0     C 1590   0.077   0.223   6.048  0.4083  0.5551  0.1493
   13MOL0     C 1591   0.003   0.220   6.165 -0.1198  0.1307 -0.0863
   13MOL0     O 1592  -0.132   0.211   6.176 -0.1126  0.2291 -0.7068
   13MOL0     C 1593  -0.215   0.214   6.056 -0.5654 -0.3544 -0.3628
   13MOL0     C 1594  -0.347   0.271   6.102  0.5531  0.0782  0.4928
   13MOL0     C 1595  -0.333   0.423   6.123 -0.3182 -0.2265 -0.2554
   13MOL0     C 1596  -0.475   0.472   6.151  0.3232 -1.0275 -0.5272
   13MOL0     C 1597  -0.545   0.447   6.290 -0.7772  0.1610  0.1248
   13MOL0     C 1598  -0.479   0.482   6.426  0.3234 -0.4678  0.0504
   13MOL0     C 1599  -0.581   0.463   6.537 -0.3393 -0.7376 -0.1955
   13MOL0     C 1600  -0.511   0.483   6.668 -0.4100 -0.1684  0.3674
   13MOL0     N 1601  -0.601   0.472   6.779  0.0807  0.2671  0.4156
   13MOL0     C 1602  -0.720   0.541   6.809  0.1008  0.0841  0.0777
   13MOL0     C 1603  -0.763   0.502   6.939  0.3453 -1.0860  1.2374
   13MOL0     C 1604  -0.880   0.571   7.008 -0.2650 -0.0994  0.4055
   13MOL0     C 1605  -1.025   0.523   6.955  0.0352  0.1198  0.1468
   13MOL0     C 1606  -1.036   0.365   6.965 -0.6885  0.1079 -0.6909
   13MOL0     C 1607  -1.171   0.304   6.916  0.6272  0.6851  0.3201
   13MOL0     O 1608  -1.275   0.354   7.002  0.0649  0.4747  0.0082
   13MOL0     C 1609  -1.411   0.353   6.959 -0.5331 -0.5343 -0.0288
   13MOL0     C 1610  -1.451   0.283   6.844 -0.0002 -0.1635  0.7839
   13MOL0     C 1611  -1.585   0.303   6.799  0.1569 -0.1658 -0.3721
   13MOL0     C 1612  -1.680   0.387   6.868 -0.6696 -0.0267  0.1043
   13MOL0     C 1613  -1.822   0.389   6.834  0.1241 -0.2890 -0.7579
   13MOL0     O 1614  -1.902   0.476   6.900  0.2619 -0.0897 -0.5574
   13MOL0     C 1615  -2.028   0.494   6.856  0.2942  0.2832  0.0408
   13MOL0     C 1616  -2.085   0.623   6.870  0.5529  1.0397 -1.0927
   13MOL0     C 1617  -2.222   0.647   6.841 -1.0313  1.2930 -0.7679
   13MOL0     C 1618  -2.301   0.540   6.796 -0.2830 -0.3528 -0.5316
   13MOL0     O 1619  -2.436   0.550   6.762 -0.1436 -0.2948 -0.1812
   13MOL0     C 1620  -2.508   0.677   6.742 -0.0494  0.6069 -0.3615
   13MOL0     C 1621  -2.652   0.650   6.705 -0.5100  0.0005 -0.6826
   13MOL0     C 1622  -2.709   0.764   6.628 -1.0734 -0.4350  0.7825
   13MOL0     C 1623  -2.856   0.747   6.577  0.0411  0.9178 -0.5415
   13MOL0     C 1624  -2.952   0.771   6.691 -0.1996  0.0236 -0.3762
   13MOL0     C 1625  -3.096   0.730   6.651  0.2344  0.6850  0.1998
   13MOL0     C 1626  -3.156   0.802   6.536  0.3765 -0.5918 -0.3975
   13MOL0     C 1627  -3.202   0.942   6.578  0.5534  0.3357  0.2474
   13MOL0    Cl 1628  -3.240   1.017   6.430 -0.4377  0.0987  0.3193
   13MOL0     C 1629  -2.250   0.412   6.799 -0.2801 -0.9390 -0.4988
   13MOL0     C 1630  -2.115   0.393   6.830 -0.9347 -0.1384 -0.5170
   13MOL0     O 1631  -1.865   0.319   6.744 -0.5358 -0.2130  0.2447
   13MOL0     C 1632  -1.640   0.443   6.990  0.2464  0.4911  1.4263
   13MOL0     C 1633  -1.503   0.427   7.026  0.7592 -0.5394 -0.7211
   13MOL0     N 1634  -0.684   0.401   6.975 -0.2705  0.2206 -0.2615
   13MOL0     N 1635  -0.588   0.397   6.890 -0.5370 -0.9278  0.3712
   13MOL0     C 1636   0.068   0.252   6.285  0.5134 -0.0643  0.4406
   13MOL0     C 1637   0.204   0.265   6.289 -0.1776 -0.0971  1.3738
   13MOL0     C 1638   0.635   0.349   6.131 -0.0505 -0.4645 -0.8428
   13MOL0     C 1639   0.671   0.312   6.264 -0.8883 -0.0393 -0.9324
   13MOL0     C 1640   0.806   0.337   6.305  0.4902 -0.0327  0.6969
   13MOL0     C 1641   0.903   0.396   6.226  0.2688  0.4658 -0.1690
   13MOL0     O 1642   1.023   0.405   6.278 -0.0398  0.3348 -0.4675
   13MOL0     C 1643   1.110   0.299   6.242  0.2097  0.1665  0.6367
   13MOL0     C 1644   1.197   0.254   6.355 -0.8202 -0.0640  0.3320
   13MOL0     C 1645   1.281   0.365   6.419 -0.1250  0.4015  0.4133
   13MOL0     C 1646   1.347   0.460   6.332  0.1730  1.0929 -0.4911
   13MOL0     C 1647   1.444   0.392   6.252  0.0488 -0.0454  0.5394
   13MOL0     C 1648   1.524   0.307   6.195  0.6137 -0.4161 -0.6555
   13MOL0     C 1649   0.867   0.427   6.094  0.1169 -0.3046  0.4625
   13MOL0     C 1650   0.732   0.405   6.050 -0.6566  0.4957 -0.3898
   13MOL0     H 1651   0.275   0.234   5.957  3.6630  1.5591  2.4762
   13MOL0     H 1652   0.023   0.225   5.954 -3.0487 -0.7313  1.9395
   13MOL0     H 1653  -0.217   0.109   6.023  1.8468 -0.5693  0.0099
   13MOL0     H 1654  -0.180   0.271   5.970 -0.4977 -1.3957 -1.0506
   13MOL0     H 1655  -0.393   0.222   6.189 -1.7514  0.5955 -0.3493
   13MOL0     H 1656  -0.416   0.269   6.018 -0.0602  0.8227  0.9597
   13MOL0     H 1657  -0.302   0.480   6.035 -0.0153  0.4935  0.3042
   13MOL0     H 1658  -0.250   0.448   6.191 -0.9603  4.7057 -0.9317
   13MOL0     H 1659  -0.478   0.581   6.140 -1.7984 -0.7047  2.2955
   13MOL0     H 1660  -0.540   0.430   6.074  0.8857 -0.2381 -1.4659
   13MOL0     H 1661  -0.562   0.339   6.296  1.0692 -0.1035  1.3657
   13MOL0     H 1662  -0.648   0.484   6.294 -1.2582 -1.0040 -0.8759
   13MOL0     H 1663  -0.456   0.589   6.424 -0.6265 -0.1654  2.0283
   13MOL0     H 1664  -0.383   0.429   6.437  3.1691  4.3243  1.3829
   13MOL0     H 1665  -0.661   0.536   6.524  0.9918  1.0744  1.2679
   13MOL0     H 1666  -0.624   0.363   6.528 -1.3727 -0.2207 -1.2730
   13MOL0     H 1667  -0.467   0.582   6.677 -1.6130  0.5573 -1.1514
   13MOL0     H 1668  -0.430   0.410   6.672 -2.7583 -3.0560 -0.4964
   13MOL0     H 1669  -0.770   0.619   6.752 -1.5160  0.1889  1.5422
   13MOL0     H 1670  -0.865   0.674   6.973  1.5353 -0.6128 -0.4836
   13MOL0     H 1671  -0.873   0.552   7.115 -0.4020  0.0865  0.4478
   13MOL0     H 1672  -1.034   0.548   6.848 -0.5580 -0.0426  0.1557
   13MOL0     H 1673  -1.099   0.568   7.022  0.7953 -1.2314  1.9778
   13MOL0     H 1674  -0.964   0.311   6.903 -1.4109 -1.2944 -0.3499
   13MOL0     H 1675  -1.003   0.341   7.066  0.5864  1.9414 -0.6328
   13MOL0     H 1676  -1.176   0.197   6.935  1.5656  0.2856 -1.5363
   13MOL0     H 1677  -1.182   0.331   6.811  0.9241  1.2405  0.4237
   13MOL0     H 1678  -1.386   0.210   6.797  1.3644  2.2276 -1.2878
   13MOL0     H 1679  -1.610   0.258   6.703  0.5690  0.5193 -0.8132
   13MOL0     H 1680  -2.014   0.698   6.903  2.6136 -1.3472  0.2260
   13MOL0     H 1681  -2.250   0.752   6.846  4.5378  3.1054 -0.5568
   13MOL0     H 1682  -2.472   0.724   6.650 -0.2465 -0.7484 -1.1471
   13MOL0     H 1683  -2.494   0.747   6.825 -1.0228 -0.2586  0.5560
   13MOL0     H 1684  -2.711   0.623   6.793 -2.2402 -2.1496 -2.3490
   13MOL0     H 1685  -2.658   0.563   6.637  0.6995 -0.3486 -0.3588
   13MOL0     H 1686  -2.638   0.783   6.547 -0.5072  0.2458  1.4301
   13MOL0     H 1687  -2.702   0.848   6.697  0.9499  0.4056 -0.3569
   13MOL0     H 1688  -2.876   0.813   6.492  0.1204  0.1521 -1.1658
   13MOL0     H 1689  -2.862   0.644   6.539 -0.5590  0.5215  0.5802
   13MOL0     H 1690  -2.953   0.874   6.728 -0.0298  0.6416 -2.0102
   13MOL0     H 1691  -2.925   0.701   6.770  0.2323 -0.8727 -1.2974
   13MOL0     H 1692  -3.159   0.743   6.740 -0.2434  2.9519 -0.4131
   13MOL0     H 1693  -3.080   0.624   6.629  2.7628  1.0127  0.0897
   13MOL0     H 1694  -3.082   0.820   6.457  1.7851  0.4262  1.0965
   13MOL0     H 1695  -3.238   0.742   6.495 -2.0828  1.2435  1.4877
   13MOL0     H 1696  -3.116   0.988   6.629  0.2865 -1.1558  2.1698
   13MOL0     H 1697  -3.288   0.945   6.645  1.1741 -0.9788  1.1408
   13MOL0     H 1698  -2.315   0.327   6.781 -0.9664 -1.2588  2.8250
   13MOL0     H 1699  -2.083   0.290   6.822 -1.9815 -0.3698 -2.2016
   13MOL0     H 1700  -1.711   0.491   7.056  0.6224 -0.2933  2.4324
   13MOL0     H 1701  -1.475   0.479   7.117 -2.4634  0.9836 -0.4822
   13MOL0     H 1702   0.007   0.257   6.375  1.5037 -2.3477  1.3158
   13MOL0     H 1703   0.248   0.295   6.383 -0.4291  3.9354  0.4187
   13MOL0     H 1704   0.611   0.278   6.348 -0.4533 -0.4840 -0.7945
   13MOL0     H 1705   0.830   0.305   6.406 -1.2311  1.1504  1.5297
   13MOL0     H 1706   1.172   0.335   6.159 -2.0412 -1.1122 -1.7567
   13MOL0     H 1707   1.056   0.210   6.209  1.0790 -0.1491  0.0008
   13MOL0     H 1708   1.131   0.222   6.436  0.3486  1.6225  2.0319
   13MOL0     H 1709   1.262   0.172   6.324  1.7880  2.1863 -0.4503
   13MOL0     H 1710   1.355   0.314   6.481  0.5965  0.6625 -0.2248
   13MOL0     H 1711   1.211   0.415   6.487 -0.4212 -1.1380  1.2929
   13MOL0     H 1712   1.279   0.522   6.272  2.3519  3.4240 -0.7281
   13MOL0     H 1713   1.410   0.524   6.394  1.6237  0.4472 -1.2664
   13MOL0     H 1714   1.599   0.241   6.155 -0.4927 -0.5482 -2.6610
   13MOL0     H 1715   0.942   0.468   6.026 -0.1123 -0.7780 -0.0826
   13MOL0     H 1716   0.696   0.442   5.955 -1.2300  0.5822 -0.1406
   14MOL0     O 1717   5.440   2.916   0.249  0.1278  0.0783  0.1932
   14MOL0     C 1718   5.451   2.894   0.127 -0.1413 -0.7310 -0.1511
   14MOL0     O 1719   5.351   2.883   0.038 -0.4985  0.2708  0.6910
   14MOL0     C 1720   5.219   2.911   0.069  0.6526  0.1076 -0.1059
   14MOL0     C 1721   5.134   2.816   0.021 -0.2912 -0.0733  0.2780
   14MOL0     C 1722   5.004   2.832   0.024  0.1691  0.6472 -0.1287
   14MOL0     C 1723   4.941   2.938   0.090  0.1997 -0.3924  0.6090
   14MOL0     O 1724   4.806   2.936   0.089  0.3439 -0.1882  0.3148
   14MOL0     C 1725   4.738   3.041   0.155  0.2631 -0.3156 -0.0307
   14MOL0     C 1726   4.581   3.034   0.126 -0.5651  0.1793 -0.1130
   14MOL0     C 1727   4.533   2.887   0.148 -0.3333 -0.5855 -0.4934
   14MOL0     C 1728   4.531   2.849   0.296 -0.2658 -0.5283 -0.2527
   14MOL0     C 1729   4.405   2.779   0.343 -0.1296 -0.0904  0.1959
   14MOL0     C 1730   4.416   2.639   0.292  0.3687 -0.6678 -0.6158
   14MOL0     C 1731   4.304   2.555   0.335  0.0896 -0.5124 -0.4106
   14MOL0     C 1732   4.320   2.404   0.299  0.1100  0.2826 -0.1156
   14MOL0     N 1733   4.228   2.311   0.372 -0.0859  0.3216 -0.6943
   14MOL0     C 1734   4.122   2.255   0.307  0.5197 -0.5159  0.4587
   14MOL0     C 1735   4.069   2.158   0.390  0.0649  0.1299  0.5825
   14MOL0     C 1736   3.938   2.072   0.389  0.1155  0.2766  0.0740
   14MOL0     C 1737   3.936   1.943   0.318  0.1522 -0.4017 -0.3539
   14MOL0     C 1738   4.024   1.837   0.378  0.9405 -0.1790 -0.7181
   14MOL0     C 1739   4.028   1.698   0.304  0.1485 -0.0316  0.2822
   14MOL0     O 1740   4.131   1.679   0.203 -0.8255  0.0654 -1.0757
   14MOL0     C 1741   4.186   1.553   0.188 -0.3399  0.1232  0.0123
   14MOL0     C 1742   4.133   1.445   0.254 -1.5934 -0.0547 -0.4597
   14MOL0     C 1743   4.209   1.331   0.267  0.4974  0.7086 -0.7130
   14MOL0     C 1744   4.315   1.302   0.185 -0.5766 -0.6945 -0.7341
   14MOL0     C 1745   4.374   1.161   0.179  0.3302  0.7735 -0.5428
   14MOL0     O 1746   4.304   1.064   0.242  0.6777  0.0267  0.5850
   14MOL0     C 1747   4.317   0.937   0.197  0.1617 -0.2902  0.2605
   14MOL0     C 1748   4.221   0.888   0.105 -0.1164 -0.2815 -1.0900
   14MOL0     C 1749   4.223   0.757   0.059 -0.6825 -0.3031 -0.0837
   14MOL0     C 1750   4.329   0.679   0.094  0.0019 -0.6733 -0.4951
   14MOL0     O 1751   4.333   0.549   0.056 -0.0995 -0.2586 -0.6177
   14MOL0     C 1752   4.266   0.449   0.137  0.3943  0.5540 -0.0482
   14MOL0     C 1753   4.280   0.313   0.073  0.3294  0.3446  0.0740
   14MOL0     C 1754   4.186   0.276  -0.042  0.8584 -0.0095  0.3083
   14MOL0     C 1755   4.201   0.124  -0.085 -0.6400  0.5586 -0.4978
   14MOL0     C 1756   4.107   0.095  -0.209  0.0613  0.2193 -0.2087
   14MOL0     C 1757   3.955   0.083  -0.168 -0.4922 -0.0953  0.5518
   14MOL0     C 1758   3.874  -0.007  -0.260  0.2959 -0.1422  0.6088
   14MOL0     C 1759   3.726  -0.021  -0.211  0.2892  0.1365 -0.3213
   14MOL0    Cl 1760   3.723  -0.127  -0.063 -0.3514 -0.0641 -0.3313
   14MOL0     C 1761   4.424   0.718   0.191  0.0820 -0.5863 -0.1406
   14MOL0     C 1762   4.416   0.850   0.247  0.3203  0.0580 -0.1250
   14MOL0     O 1763   4.469   1.135   0.102  0.5731  0.3099  0.2335
   14MOL0     C 1764   4.357   1.414   0.105 -0.6822 -0.1228  0.2071
   14MOL0     C 1765   4.295   1.544   0.103  0.1841  0.6010 -0.3107
   14MOL0     N 1766   4.155   2.153   0.503 -0.0994 -0.6109 -0.4982
   14MOL0     N 1767   4.240   2.250   0.497 -0.4381 -0.8341  0.4670
   14MOL0     C 1768   5.030   3.037   0.149  1.4433 -0.0931  1.0640
   14MOL0     C 1769   5.170   3.028   0.136  0.5372 -1.1053  0.0039
   14MOL0     C 1770   5.585   2.917   0.075 -0.1378 -0.8116 -0.4465
   14MOL0     C 1771   5.684   2.975   0.159  0.6403 -0.0925  0.0711
   14MOL0     C 1772   5.818   2.983   0.127  0.7284 -0.0012 -0.7540
   14MOL0     C 1773   5.861   2.935   0.005 -0.0522  0.3298 -0.4524
   14MOL0     O 1774   5.993   2.942  -0.023 -0.4142 -0.0728 -0.3392
   14MOL0     C 1775   6.035   2.865  -0.138  1.1665  0.0435  0.2630
   14MOL0     C 1776   6.191   2.871  -0.152  0.5253  0.6160 -0.3517
   14MOL0     C 1777   6.282   2.796  -0.058 -0.6332 -0.0517  0.2299
   14MOL0     C 1778   6.423   2.786  -0.113 -0.2397 -0.5904  0.8174
   14MOL0     C 1779   6.491   2.915  -0.149  0.3451  0.1862 -0.5659
   14MOL0     C 1780   6.555   3.015  -0.159 -0.4409 -0.0749  0.3870
   14MOL0     C 1781   5.764   2.877  -0.082  0.6665 -0.0602 -0.0497
   14MOL0     C 1782   5.627   2.862  -0.042  0.0434 -0.1171  0.5909
   14MOL0     H 1783   5.180   2.736  -0.036 -0.9182  0.8826 -1.6795
   14MOL0     H 1784   4.941   2.763  -0.031  0.2884 -1.0316  1.7250
   14MOL0     H 1785   4.770   3.138   0.117  1.1981 -0.8981 -0.7666
   14MOL0     H 1786   4.750   3.031   0.263 -3.9395 -2.0070  0.4860
   14MOL0     H 1787   4.558   3.060   0.022  0.7785 -0.0403 -0.4915
   14MOL0     H 1788   4.535   3.103   0.198  1.6714  0.8739  0.7672
   14MOL0     H 1789   4.601   2.815   0.102  0.0962  0.7380 -2.0112
   14MOL0     H 1790   4.428   2.876   0.119 -1.3139  0.7416  2.1797
   14MOL0     H 1791   4.622   2.810   0.342 -0.4450 -1.2257 -0.4837
   14MOL0     H 1792   4.515   2.949   0.339 -0.3363  0.8191 -3.1692
   14MOL0     H 1793   4.312   2.831   0.318 -1.1776 -2.0393 -0.2334
   14MOL0     H 1794   4.401   2.778   0.452 -0.3049  2.9428  0.3000
   14MOL0     H 1795   4.513   2.599   0.321  0.8506 -0.7283 -2.2207
   14MOL0     H 1796   4.413   2.636   0.183  0.4333 -0.6441 -0.6185
   14MOL0     H 1797   4.277   2.568   0.441 -2.7829 -1.2263 -0.9820
   14MOL0     H 1798   4.218   2.605   0.289  1.2388  0.4625 -1.5595
   14MOL0     H 1799   4.422   2.367   0.311  0.2109 -0.2065 -2.0685
   14MOL0     H 1800   4.295   2.388   0.194 -2.9112 -0.1123  0.5789
   14MOL0     H 1801   4.084   2.284   0.209 -1.1974 -1.1572  0.9044
   14MOL0     H 1802   3.859   2.133   0.344 -1.8261 -0.8706  1.7344
   14MOL0     H 1803   3.900   2.049   0.489 -3.3436  1.5994 -0.7862
   14MOL0     H 1804   3.963   1.970   0.216  1.7409 -0.7204 -0.0347
   14MOL0     H 1805   3.834   1.902   0.315  0.3193 -0.8331 -0.1629
   14MOL0     H 1806   4.126   1.877   0.377  0.6381  0.8263  1.9099
   14MOL0     H 1807   4.001   1.819   0.483  0.6069  1.0135 -0.5632
   14MOL0     H 1808   3.926   1.672   0.276  0.0637  0.8767 -0.2958
   14MOL0     H 1809   4.049   1.630   0.387 -0.2180  0.1049  0.4902
   14MOL0     H 1810   4.033   1.452   0.296 -0.3003  1.2498  2.6259
   14MOL0     H 1811   4.164   1.260   0.336  3.7551  0.5599  1.4867
   14MOL0     H 1812   4.142   0.957   0.080 -0.3151 -0.5203 -1.1312
   14MOL0     H 1813   4.143   0.720  -0.004 -0.4121 -0.3051 -0.4274
   14MOL0     H 1814   4.166   0.492   0.140  0.7886  2.0413 -3.4258
   14MOL0     H 1815   4.301   0.428   0.239 -1.6052 -2.0558  0.1835
   14MOL0     H 1816   4.247   0.252   0.158  0.2884  3.6408  2.6425
   14MOL0     H 1817   4.381   0.283   0.048 -0.3938 -1.3857 -0.9111
   14MOL0     H 1818   4.208   0.334  -0.132  1.4374 -1.0546 -0.2472
   14MOL0     H 1819   4.080   0.288  -0.018  0.9085  0.8077  0.1649
   14MOL0     H 1820   4.303   0.103  -0.116 -0.8167 -1.8440  0.2995
   14MOL0     H 1821   4.179   0.058   0.000 -2.3012  0.6398 -0.8227
   14MOL0     H 1822   4.146  -0.001  -0.244 -1.1057  0.1987 -1.4998
   14MOL0     H 1823   4.122   0.165  -0.292 -1.0616  0.3156 -0.3502
   14MOL0     H 1824   3.914   0.183  -0.180 -1.1284 -0.4469 -0.2388
   14MOL0     H 1825   3.951   0.043  -0.066 -0.9315 -4.1248 -0.8484
   14MOL0     H 1826   3.866   0.037  -0.360 -0.3398  2.0007  1.5431
   14MOL0     H 1827   3.913  -0.108  -0.273 -0.9344 -0.4958 -0.5586
   14MOL0     H 1828   3.674  -0.070  -0.293  4.1243  0.5030 -3.2292
   14MOL0     H 1829   3.677   0.074  -0.187  3.7403  2.1142 -0.3582
   14MOL0     H 1830   4.503   0.651   0.225 -0.4255 -0.1373  2.1306
   14MOL0     H 1831   4.481   0.907   0.314  2.2853  1.6583 -3.1686
   14MOL0     H 1832   4.439   1.391   0.038 -2.8469 -1.7888 -2.0265
   14MOL0     H 1833   4.332   1.619   0.034 -1.7059  0.6818 -1.3298
   14MOL0     H 1834   4.991   3.130   0.188 -0.9316  0.0942 -1.4143
   14MOL0     H 1835   5.229   3.113   0.168 -2.6765  1.4781 -0.3572
   14MOL0     H 1836   5.644   3.005   0.256  0.6230  1.8317 -0.4781
   14MOL0     H 1837   5.898   3.025   0.187 -0.5548  0.9666  0.3449
   14MOL0     H 1838   5.998   2.916  -0.228  0.0672 -1.0569  0.0656
   14MOL0     H 1839   6.004   2.760  -0.151  2.1918  0.0885 -4.1562
   14MOL0     H 1840   6.193   2.830  -0.254 -4.9629 -1.8695  0.2161
   14MOL0     H 1841   6.218   2.977  -0.150 -1.7056  1.2069  1.1929
   14MOL0     H 1842   6.247   2.697  -0.027  3.0463 -1.2287  1.1154
   14MOL0     H 1843   6.291   2.852   0.036 -1.1762  0.2146  0.1230
   14MOL0     H 1844   6.492   2.742  -0.041  2.0559  0.0333 -0.8865
   14MOL0     H 1845   6.425   2.716  -0.197 -2.0181  0.4904 -0.2050
   14MOL0     H 1846   6.625   3.096  -0.169  0.8272 -1.2285 -0.2739
   14MOL0     H 1847   5.781   2.849  -0.185 -0.3573  0.4220 -0.3619
   14MOL0     H 1848   5.552   2.819  -0.108 -0.5241  2.0285 -0.2726
   15MOL0     O 1849  10.342   8.758   3.399 -0.1495 -0.3773 -0.5499
   15MOL0     C 1850  10.394   8.825   3.496  0.1804  0.6485  0.0477
   15MOL0     O 1851  10.329   8.873   3.599  0.1186 -0.0777  0.0246
   15MOL0     C 1852  10.192   8.852   3.611  0.6500 -0.8095  0.0972
   15MOL0     C 1853  10.105   8.960   3.614  0.6801 -0.2218  0.2098
   15MOL0     C 1854   9.966   8.931   3.612  0.5979 -0.2518 -0.4174
   15MOL0     C 1855   9.923   8.796   3.622  0.2107  0.1533  0.2984
   15MOL0     O 1856   9.792   8.758   3.618  1.1336  0.1526 -0.3701
   15MOL0     C 1857   9.711   8.818   3.713 -0.1622  0.1649  0.5561
   15MOL0     C 1858   9.568   8.754   3.701  0.0637 -0.2063 -0.9512
   15MOL0     C 1859   9.452   8.837   3.775 -0.1638 -0.0136  0.1997
   15MOL0     C 1860   9.479   8.849   3.924  0.9423  0.1560  0.4199
   15MOL0     C 1861   9.360   8.879   4.012  0.2021 -0.7115 -0.1383
   15MOL0     C 1862   9.284   9.004   3.959 -0.9330  0.4798 -0.4671
   15MOL0     C 1863   9.173   9.025   4.058 -0.4384  0.0414  0.2922
   15MOL0     C 1864   9.051   8.938   4.022 -0.0272  0.3584  0.3469
   15MOL0     N 1865   8.946   8.954   4.120  0.2574 -0.3217 -0.0038
   15MOL0     C 1866   8.949   8.944   4.257  0.2025  0.3254 -0.2487
   15MOL0     C 1867   8.829   8.983   4.313  0.6880 -0.3730  0.7677
   15MOL0     C 1868   8.790   8.999   4.457 -0.2061 -0.0080 -0.5600
   15MOL0     C 1869   8.666   8.912   4.475  0.9022  0.7235  0.0541
   15MOL0     C 1870   8.646   8.876   4.626  0.2379  0.1830 -0.2056
   15MOL0     C 1871   8.621   8.989   4.725  0.4974  0.9373 -0.2016
   15MOL0     O 1872   8.545   9.102   4.671  0.2047 -0.3307  0.2401
   15MOL0     C 1873   8.409   9.087   4.674  0.1380 -0.1744  0.2201
   15MOL0     C 1874   8.345   9.134   4.556 -0.4344 -0.3299 -0.1785
   15MOL0     C 1875   8.206   9.100   4.541 -0.9987  0.1032  0.0754
   15MOL0     C 1876   8.133   9.037   4.642 -0.4195 -0.0304  0.6078
   15MOL0     C 1877   7.989   9.011   4.634 -0.4413  0.3550 -0.5401
   15MOL0     O 1878   7.930   9.026   4.516 -0.3618 -0.4220  0.1454
   15MOL0     C 1879   7.797   8.988   4.497 -0.4196  0.5231  0.1838
   15MOL0     C 1880   7.691   9.006   4.594 -0.0878  0.4933 -0.0404
   15MOL0     C 1881   7.562   8.958   4.561 -0.1663 -0.1781 -0.3130
   15MOL0     C 1882   7.532   8.899   4.438  0.0239 -0.0792 -0.5005
   15MOL0     O 1883   7.400   8.872   4.403  0.2474  0.2511 -0.5773
   15MOL0     C 1884   7.297   8.911   4.496 -0.7259 -0.2201  0.3836
   15MOL0     C 1885   7.168   8.893   4.431 -0.7007  0.3794 -0.2122
   15MOL0     C 1886   7.065   8.961   4.524 -0.1487 -0.0258 -0.3153
   15MOL0     C 1887   6.922   8.921   4.490  0.4089 -0.9427 -0.8942
   15MOL0     C 1888   6.809   8.982   4.576 -0.3719 -0.5958  0.3326
   15MOL0     C 1889   6.810   8.940   4.722  0.1418 -0.1010 -0.1477
   15MOL0     C 1890   6.736   9.047   4.806 -0.1048  0.6314  0.4129
   15MOL0     C 1891   6.582   9.053   4.766 -0.5244  0.1458  0.4946
   15MOL0    Cl 1892   6.497   8.908   4.823 -0.0318 -0.2368  0.4433
   15MOL0     C 1893   7.631   8.880   4.348 -0.4238 -0.3019  0.0663
   15MOL0     C 1894   7.761   8.918   4.380 -0.1727 -1.3384 -0.4678
   15MOL0     O 1895   7.938   8.971   4.738 -0.3695  0.4915 -0.6367
   15MOL0     C 1896   8.202   9.002   4.762 -0.6423 -1.5281 -0.3423
   15MOL0     C 1897   8.340   9.028   4.776  0.0165 -0.1943  0.3657
   15MOL0     N 1898   8.750   9.010   4.201  0.1261 -0.3688  0.0525
   15MOL0     N 1899   8.823   9.003   4.085  0.4106  1.0239 -0.0876
   15MOL0     C 1900  10.012   8.694   3.609 -0.7510  0.4028 -1.6762
   15MOL0     C 1901  10.146   8.720   3.617 -1.0770  0.0893 -0.6498
   15MOL0     C 1902  10.548   8.856   3.488  0.2707  0.5862 -0.1727
   15MOL0     C 1903  10.589   8.973   3.546 -1.0162 -0.4807  0.3136
   15MOL0     C 1904  10.722   9.004   3.542  0.3659  0.8283  0.5080
   15MOL0     C 1905  10.813   8.913   3.489 -0.2062  0.1463 -0.2883
   15MOL0     O 1906  10.950   8.926   3.476 -0.1124 -0.3030 -0.1089
   15MOL0     C 1907  11.019   9.051   3.480  0.4169 -0.0695 -0.3687
   15MOL0     C 1908  11.081   9.078   3.620  1.5079 -0.3625  0.9032
   15MOL0     C 1909  11.156   8.953   3.678 -0.0364 -0.0714  0.0886
   15MOL0     C 1910  11.204   8.967   3.817 -0.3649  0.2604 -0.3866
   15MOL0     C 1911  11.319   9.051   3.839 -0.2070 -0.5383  0.0588
   15MOL0     C 1912  11.401   9.125   3.877  0.1627 -0.3475 -0.3606
   15MOL0     C 1913  10.765   8.801   3.416 -0.2222 -0.7065  0.8653
   15MOL0     C 1914  10.630   8.775   3.418 -0.1609  0.1548  0.1855
   15MOL0     H 1915  10.140   9.063   3.612 -1.6285  0.6581  1.7029
   15MOL0     H 1916   9.895   9.013   3.617  0.1023 -0.7594  1.9145
   15MOL0     H 1917   9.706   8.922   3.681 -0.4287 -0.0283 -0.0393
   15MOL0     H 1918   9.756   8.831   3.812  0.4195  1.1452  0.1714
   15MOL0     H 1919   9.574   8.652   3.742  0.6099  0.8432  1.7752
   15MOL0     H 1920   9.543   8.739   3.596  0.5498 -0.0748 -1.0874
   15MOL0     H 1921   9.358   8.783   3.760 -0.1518 -0.0794  0.3533
   15MOL0     H 1922   9.437   8.933   3.726 -0.7695 -1.9130 -3.7522
   15MOL0     H 1923   9.506   8.748   3.958 -2.7835 -0.8903  0.7469
   15MOL0     H 1924   9.565   8.911   3.953  0.0288  1.3262  0.6943
   15MOL0     H 1925   9.404   8.901   4.109 -3.0003 -0.1979  1.3111
   15MOL0     H 1926   9.294   8.793   4.027  0.5957 -0.5041  3.6721
   15MOL0     H 1927   9.240   8.990   3.860 -3.3047  3.4643 -0.0022
   15MOL0     H 1928   9.355   9.088   3.952 -0.6532  0.0977 -3.6610
   15MOL0     H 1929   9.209   9.007   4.160  2.2756  0.7658 -0.4518
   15MOL0     H 1930   9.138   9.129   4.057 -0.6202 -0.0241 -0.9324
   15MOL0     H 1931   9.082   8.837   3.994 -0.6407  0.1228  0.5011
   15MOL0     H 1932   9.011   8.982   3.930 -0.4649 -0.7774 -0.0225
   15MOL0     H 1933   9.040   8.930   4.316  0.5941  1.7022 -0.4887
   15MOL0     H 1934   8.769   9.104   4.480  1.4102  0.0558  0.8637
   15MOL0     H 1935   8.877   8.966   4.515 -1.3554 -0.9070  0.7010
   15MOL0     H 1936   8.677   8.816   4.424 -0.6125 -1.5595  3.5874
   15MOL0     H 1937   8.572   8.952   4.436  0.6837  1.9270  1.6906
   15MOL0     H 1938   8.571   8.798   4.636  2.7558 -2.1970  1.6503
   15MOL0     H 1939   8.740   8.833   4.664 -0.7189 -0.6547  1.2887
   15MOL0     H 1940   8.720   9.031   4.743  0.9419  0.3241 -1.0849
   15MOL0     H 1941   8.580   8.951   4.819  0.1113 -0.4116 -0.8795
   15MOL0     H 1942   8.406   9.178   4.477  2.2196  0.6786  2.2609
   15MOL0     H 1943   8.149   9.124   4.451 -1.4752  1.8093  0.7740
   15MOL0     H 1944   7.705   9.062   4.685  0.9202  1.5395 -0.8124
   15MOL0     H 1945   7.482   8.991   4.627  0.0883  0.7977 -0.4717
   15MOL0     H 1946   7.291   9.019   4.513 -1.6758 -0.2459  0.2290
   15MOL0     H 1947   7.308   8.838   4.576  0.7445 -2.3716 -1.6374
   15MOL0     H 1948   7.149   8.786   4.422  1.0971 -0.1588  1.6121
   15MOL0     H 1949   7.164   8.936   4.331  0.9216  2.6301  0.6016
   15MOL0     H 1950   7.082   9.069   4.528 -1.1825  0.1494 -0.3250
   15MOL0     H 1951   7.080   8.921   4.624 -0.9000  1.1864  0.3044
   15MOL0     H 1952   6.893   8.957   4.390  0.0692 -2.4685 -1.3802
   15MOL0     H 1953   6.901   8.814   4.494 -0.2387 -0.7783  0.4303
   15MOL0     H 1954   6.714   8.951   4.532  0.6125 -0.8976 -1.6853
   15MOL0     H 1955   6.815   9.091   4.576  0.4585 -0.5818  2.3876
   15MOL0     H 1956   6.913   8.934   4.757  0.4398  0.6887 -0.8501
   15MOL0     H 1957   6.758   8.844   4.734  0.5863 -0.6570 -2.1675
   15MOL0     H 1958   6.763   9.027   4.910 -0.3667  0.6743  0.4904
   15MOL0     H 1959   6.785   9.142   4.783  3.0419 -0.3281  2.4652
   15MOL0     H 1960   6.561   9.068   4.659  0.6697  1.5229  0.4292
   15MOL0     H 1961   6.540   9.136   4.823 -0.6224 -0.2489  0.9985
   15MOL0     H 1962   7.607   8.819   4.261 -0.3415  2.1734 -1.8133
   15MOL0     H 1963   7.832   8.879   4.307  0.3264 -1.3079 -0.0060
   15MOL0     H 1964   8.163   8.948   4.848 -1.0416  0.4207  0.7787
   15MOL0     H 1965   8.391   8.995   4.867 -0.6984  0.8002  1.1451
   15MOL0     H 1966   9.978   8.593   3.592 -2.3657  0.8634 -1.3600
   15MOL0     H 1967  10.214   8.637   3.602 -2.5843 -1.2109 -0.5538
   15MOL0     H 1968  10.519   9.042   3.592  0.6341  2.1689 -0.9472
   15MOL0     H 1969  10.750   9.090   3.601  1.4771 -2.1586  4.8422
   15MOL0     H 1970  10.941   9.127   3.469 -0.2928 -0.9881 -1.9372
   15MOL0     H 1971  11.090   9.061   3.397 -0.2845 -1.0260 -1.1105
   15MOL0     H 1972  11.160   9.152   3.603 -0.6633  1.3884 -2.7207
   15MOL0     H 1973  10.999   9.106   3.687  0.8682 -0.1564  0.0529
   15MOL0     H 1974  11.238   8.924   3.611 -0.9009  1.0425 -1.5310
   15MOL0     H 1975  11.084   8.871   3.678 -1.7229  1.3466  0.0131
   15MOL0     H 1976  11.118   9.003   3.874 -0.9917 -2.9484  0.8975
   15MOL0     H 1977  11.218   8.869   3.862 -0.5551 -0.2301 -1.3591
   15MOL0     H 1978  11.468   9.191   3.928 -0.7922 -1.9328  3.2414
   15MOL0     H 1979  10.824   8.721   3.373  0.8349  1.8347 -2.8729
   15MOL0     H 1980  10.590   8.684   3.374 -1.4312  0.5096  0.5492
   16MOL0     O 1981   8.659   9.978   0.897  1.1375 -0.0322 -0.1660
   16MOL0     C 1982   8.723  10.028   0.803  0.7289  0.7896 -1.1842
   16MOL0     O 1983   8.671  10.073   0.690 -0.3098 -0.2107 -0.8076
   16MOL0     C 1984   8.542  10.120   0.679 -1.0822 -0.1441  0.4601
   16MOL0     C 1985   8.499  10.144   0.549 -0.7516 -0.5399  1.0702
   16MOL0     C 1986   8.364  10.179   0.522 -0.2547 -0.1766  0.7359
   16MOL0     C 1987   8.276  10.215   0.630  0.6478  0.0830 -0.3509
   16MOL0     O 1988   8.141  10.248   0.598  0.0007 -0.1699 -0.0143
   16MOL0     C 1989   8.051  10.271   0.707  0.5148 -0.2087 -0.2171
   16MOL0     C 1990   7.902  10.271   0.669 -0.3662  0.0951 -0.1369
   16MOL0     C 1991   7.857  10.410   0.653  0.4299  0.1960  0.0870
   16MOL0     C 1992   7.708  10.402   0.609 -0.1888  0.5037  0.5101
   16MOL0     C 1993   7.661  10.543   0.576 -0.7935 -0.0738 -0.0031
   16MOL0     C 1994   7.520  10.565   0.522 -0.0414  0.1428 -0.1234
   16MOL0     C 1995   7.502  10.507   0.379 -0.9976 -0.5087  0.9370
   16MOL0     C 1996   7.611  10.534   0.272  1.4182  0.4384 -0.3848
   16MOL0     N 1997   7.564  10.505   0.136 -0.3509 -0.5737  1.0741
   16MOL0     C 1998   7.513  10.382   0.090 -0.6023  0.3074 -0.8352
   16MOL0     C 1999   7.468  10.413  -0.031 -0.1478  1.0610  0.4249
   16MOL0     C 2000   7.410  10.305  -0.122  0.9235 -0.7047 -0.0404
   16MOL0     C 2001   7.258  10.304  -0.105  0.0425  0.3300  0.3574
   16MOL0     C 2002   7.196  10.177  -0.145 -0.1012  0.4774 -0.8459
   16MOL0     C 2003   7.056  10.155  -0.084  0.7981 -0.0657  1.2079
   16MOL0     O 2004   6.957  10.240  -0.138 -0.4151 -0.3415  0.0344
   16MOL0     C 2005   6.834  10.242  -0.074  0.2978  0.3299 -0.1029
   16MOL0     C 2006   6.820  10.294   0.056 -1.1854 -0.1086  0.4426
   16MOL0     C 2007   6.689  10.296   0.109  0.4049  0.5860 -0.9617
   16MOL0     C 2008   6.577  10.247   0.039  0.1559  0.2187  1.0299
   16MOL0     C 2009   6.454  10.239   0.099  0.3692  0.0263 -0.5493
   16MOL0     O 2010   6.351  10.191   0.026  0.2371  0.1939  0.5338
   16MOL0     C 2011   6.218  10.205   0.064  0.0028 -0.2863 -0.6203
   16MOL0     C 2012   6.165  10.136   0.168 -0.4382  0.9481 -0.4909
   16MOL0     C 2013   6.029  10.147   0.201  0.0032  0.0952 -0.7769
   16MOL0     C 2014   5.938  10.227   0.129 -1.0631 -1.2950 -0.0714
   16MOL0     O 2015   5.810  10.243   0.157  0.2061 -0.1423 -0.1481
   16MOL0     C 2016   5.734  10.131   0.205 -0.6987  0.2408  0.0056
   16MOL0     C 2017   5.585  10.154   0.167  0.1026 -0.4338 -0.5250
   16MOL0     C 2018   5.523  10.264   0.250 -0.1571 -0.2984 -0.1699
   16MOL0     C 2019   5.365  10.266   0.235 -0.6320 -0.3653  0.1116
   16MOL0     C 2020   5.302  10.145   0.304  0.2789  0.0255 -0.2259
   16MOL0     C 2021   5.151  10.180   0.335  0.1281  0.4902 -0.3448
   16MOL0     C 2022   5.125  10.243   0.475 -0.0032  0.7698  0.3381
   16MOL0     C 2023   4.991  10.291   0.478 -0.4472 -0.7623 -0.3502
   16MOL0    Cl 2024   4.995  10.455   0.416  0.0199  0.0341  0.3708
   16MOL0     C 2025   6.000  10.305   0.018  0.5597  0.0227 -0.7135
   16MOL0     C 2026   6.142  10.298  -0.005  0.6653 -0.7045 -0.1317
   16MOL0     O 2027   6.448  10.283   0.213 -0.1183 -0.0210 -1.0884
   16MOL0     C 2028   6.594  10.200  -0.093  0.3568 -0.0534 -1.0526
   16MOL0     C 2029   6.722  10.202  -0.145  0.1597 -0.2845 -0.5420
   16MOL0     N 2030   7.492  10.543  -0.061 -0.0831 -0.1068 -0.3091
   16MOL0     N 2031   7.546  10.599   0.043 -0.0979  0.1655  1.0907
   16MOL0     C 2032   8.332  10.204   0.761  0.2745 -0.2126 -0.2165
   16MOL0     C 2033   8.457  10.157   0.782 -0.3248 -0.8498  0.3345
   16MOL0     C 2034   8.868  10.029   0.817 -0.2181 -0.2621 -0.0718
   16MOL0     C 2035   8.936   9.971   0.933  0.6892 -0.2736  0.2677
   16MOL0     C 2036   9.075   9.978   0.949  0.0927 -0.1433 -0.2504
   16MOL0     C 2037   9.162  10.029   0.851  0.1281 -0.0966 -0.0040
   16MOL0     O 2038   9.294  10.048   0.865  0.1234  0.4955  1.0352
   16MOL0     C 2039   9.360  10.006   0.982 -0.7450  0.0363 -1.0687
   16MOL0     C 2040   9.515  10.033   0.958  0.1755  0.2465 -0.4674
   16MOL0     C 2041   9.557  10.004   0.819 -0.2858  0.0222 -0.0333
   16MOL0     C 2042   9.713  10.021   0.801  0.9835 -0.3277 -0.1354
   16MOL0     C 2043   9.764  10.059   0.673 -0.5646 -0.3024 -0.2064
   16MOL0     C 2044   9.821  10.092   0.567 -0.0798 -0.2954 -0.6755
   16MOL0     C 2045   9.099  10.073   0.734  0.4335 -0.9818 -0.5741
   16MOL0     C 2046   8.950  10.072   0.718  0.3809  0.4647 -0.4877
   16MOL0     H 2047   8.563  10.133   0.462  0.1995 -1.1390  1.8224
   16MOL0     H 2048   8.322  10.185   0.422  1.1740  1.0006  0.1699
   16MOL0     H 2049   8.076  10.365   0.756 -3.2234  1.2652 -0.8050
   16MOL0     H 2050   8.059  10.190   0.780  0.2552 -1.4356 -1.5028
   16MOL0     H 2051   7.852  10.215   0.748  0.7900  3.1823  3.0467
   16MOL0     H 2052   7.888  10.211   0.578  0.9195 -0.0588 -0.2499
   16MOL0     H 2053   7.910  10.472   0.580  0.3554  0.7961  0.5309
   16MOL0     H 2054   7.858  10.464   0.749  1.2673  1.0250 -0.3701
   16MOL0     H 2055   7.714  10.339   0.520  0.0714 -0.6389  1.3093
   16MOL0     H 2056   7.636  10.357   0.678  0.6436  0.0504  1.0939
   16MOL0     H 2057   7.725  10.588   0.499 -0.2964 -2.4597 -1.0908
   16MOL0     H 2058   7.684  10.602   0.665 -2.0828  0.6852 -0.1479
   16MOL0     H 2059   7.509  10.674   0.513 -0.1509  0.1284 -0.1801
   16MOL0     H 2060   7.450  10.522   0.594  0.3461  2.6901  1.8922
   16MOL0     H 2061   7.500  10.398   0.387 -1.5080 -0.5944 -0.1993
   16MOL0     H 2062   7.407  10.543   0.337  0.1036  0.8839 -0.4873
   16MOL0     H 2063   7.701  10.473   0.286  2.5232  1.2188 -3.2403
   16MOL0     H 2064   7.637  10.636   0.298  0.4087  0.8732 -1.0286
   16MOL0     H 2065   7.516  10.281   0.130  1.4051 -0.5900 -3.0640
   16MOL0     H 2066   7.453  10.205  -0.109  2.9381 -0.2771 -2.5588
   16MOL0     H 2067   7.429  10.333  -0.225  1.3321 -1.2391 -0.1147
   16MOL0     H 2068   7.219  10.382  -0.172 -0.5092  0.0407  0.3403
   16MOL0     H 2069   7.224  10.323  -0.003  0.9149 -0.3760  0.7904
   16MOL0     H 2070   7.204  10.158  -0.252 -0.7549  0.0826 -0.8272
   16MOL0     H 2071   7.253  10.089  -0.115  2.0042  1.8819 -0.4402
   16MOL0     H 2072   7.053  10.157   0.025 -0.8732 -3.0316  1.3224
   16MOL0     H 2073   7.014  10.059  -0.114  2.0955 -0.3735  0.3104
   16MOL0     H 2074   6.910  10.339   0.098 -0.4859  0.5760 -1.6778
   16MOL0     H 2075   6.680  10.334   0.210 -1.4605  4.6910 -2.4438
   16MOL0     H 2076   6.240  10.083   0.225  0.4118  1.8146 -0.7706
   16MOL0     H 2077   6.003  10.081   0.283  2.0993 -0.8242 -0.7845
   16MOL0     H 2078   5.762  10.112   0.309  0.2059 -1.6161 -0.5320
   16MOL0     H 2079   5.770  10.049   0.141  1.4271  2.3887 -1.7464
   16MOL0     H 2080   5.525  10.065   0.187 -0.9388  0.6599  1.5442
   16MOL0     H 2081   5.566  10.190   0.066  1.4499  1.0619 -0.2891
   16MOL0     H 2082   5.555  10.362   0.212  1.0092 -1.5672 -2.6517
   16MOL0     H 2083   5.558  10.264   0.354  0.7141 -1.3407 -0.4527
   16MOL0     H 2084   5.325  10.359   0.278  2.0137  1.4784 -1.1470
   16MOL0     H 2085   5.331  10.272   0.131 -3.5248  1.9682  1.0430
   16MOL0     H 2086   5.343  10.119   0.402  0.3262  1.7216  0.2439
   16MOL0     H 2087   5.306  10.067   0.227  2.0348 -1.7059  1.5207
   16MOL0     H 2088   5.091  10.088   0.336  0.0329  0.4409  3.0945
   16MOL0     H 2089   5.125  10.251   0.256  2.8621  1.3953 -0.5089
   16MOL0     H 2090   5.119  10.158   0.544 -1.9416  2.0755  1.9097
   16MOL0     H 2091   5.196  10.316   0.515 -1.7850  1.5340  2.2601
   16MOL0     H 2092   4.953  10.274   0.579  1.2746  0.9934  0.6718
   16MOL0     H 2093   4.930  10.226   0.414  1.9635 -0.9617 -2.6656
   16MOL0     H 2094   5.944  10.372  -0.047  0.2144 -0.0838 -0.5272
   16MOL0     H 2095   6.186  10.352  -0.088  0.9668 -0.2057  0.3431
   16MOL0     H 2096   6.512  10.159  -0.151 -1.4603 -2.7135  2.9713
   16MOL0     H 2097   6.737  10.172  -0.248  1.2322  1.6723 -0.9923
   16MOL0     H 2098   8.279  10.240   0.848  3.2948  0.7820  1.3660
   16MOL0     H 2099   8.488  10.156   0.886 -2.4723  2.5139  1.1656
   16MOL0     H 2100   8.870   9.925   1.005 -0.3807 -1.1198 -1.1929
   16MOL0     H 2101   9.120   9.929   1.034  2.4908  1.4612 -0.5081
   16MOL0     H 2102   9.351   9.900   1.009  4.5803 -0.7090 -1.1697
   16MOL0     H 2103   9.336  10.067   1.069  1.5407 -0.8413  0.2552
   16MOL0     H 2104   9.540  10.137   0.978  2.0810 -0.0315 -1.1802
   16MOL0     H 2105   9.579   9.984   1.033  1.7642 -0.7741 -2.4041
   16MOL0     H 2106   9.508  10.075   0.751  2.5919 -0.4992 -2.9071
   16MOL0     H 2107   9.542   9.900   0.789 -0.6309 -0.3605  1.4094
   16MOL0     H 2108   9.749  10.086   0.881  4.1847 -1.2626 -0.6994
   16MOL0     H 2109   9.752   9.920   0.818  0.6656 -0.6074 -1.0118
   16MOL0     H 2110   9.866  10.121   0.474 -0.9058  0.5811 -0.8147
   16MOL0     H 2111   9.161  10.118   0.657  0.8042 -1.7593 -0.7376
   16MOL0     H 2112   8.906  10.111   0.626 -3.5823 -0.1057  0.9604
   17MOL0     O 2113   5.247   9.746   7.111 -0.8935 -0.1911 -0.6151
   17MOL0     C 2114   5.158   9.773   7.031  1.0762  0.0019  0.2736
   17MOL0     O 2115   5.180   9.841   6.916  0.4012  0.6167 -0.2917
   17MOL0     C 2116   5.305   9.886   6.880  0.3398 -1.1336  0.5235
   17MOL0     C 2117   5.397   9.818   6.792 -0.0237 -0.2038  0.5519
   17MOL0     C 2118   5.529   9.868   6.773  0.2304 -0.3780  0.7441
   17MOL0     C 2119   5.556  10.005   6.809  0.4744 -0.5329 -0.2570
   17MOL0     O 2120   5.683  10.041   6.784  0.1769 -0.7058 -0.3286
   17MOL0     C 2121   5.724  10.180   6.800  0.1658 -1.3331  0.4322
   17MOL0     C 2122   5.876  10.194   6.797 -0.4548  1.0165  0.7434
   17MOL0     C 2123   5.938  10.339   6.813  0.2998  0.2578  0.3686
   17MOL0     C 2124   6.088  10.337   6.776 -0.3399  1.0601  0.3144
   17MOL0     C 2125   6.149  10.479   6.779 -0.7313 -0.4986  1.2772
   17MOL0     C 2126   6.295  10.488   6.718 -0.3770  0.1868  0.2106
   17MOL0     C 2127   6.325  10.636   6.699  0.6485 -0.4429  0.0693
   17MOL0     C 2128   6.245  10.703   6.579 -0.3432 -0.0711  0.4895
   17MOL0     N 2129   6.309  10.827   6.535 -0.4784 -0.2148 -0.3583
   17MOL0     C 2130   6.439  10.813   6.486  0.8770  0.3075 -1.2755
   17MOL0     C 2131   6.489  10.943   6.493 -0.5553  0.0207  0.1735
   17MOL0     C 2132   6.624  10.981   6.468  0.2293 -0.7386  0.5445
   17MOL0     C 2133   6.689  10.907   6.351 -0.2752  0.0463 -1.1397
   17MOL0     C 2134   6.845  10.932   6.368  0.6232 -0.1040  0.1247
   17MOL0     C 2135   6.924  10.831   6.292 -0.0999  0.1973  0.1992
   17MOL0     O 2136   6.893  10.837   6.153  0.1788 -0.1647 -0.8377
   17MOL0     C 2137   6.823  10.733   6.099  1.3091  0.1017  0.3898
   17MOL0     C 2138   6.749  10.631   6.156 -0.4125 -0.5133 -0.0003
   17MOL0     C 2139   6.676  10.533   6.092  0.4991  0.8572 -0.5533
   17MOL0     C 2140   6.679  10.529   5.956  0.0362 -1.0334 -0.3721
   17MOL0     C 2141   6.597  10.430   5.874  0.3555 -0.1614 -1.0002
   17MOL0     O 2142   6.502  10.367   5.947 -0.4455  1.4280  0.1798
   17MOL0     C 2143   6.414  10.281   5.901  0.3543  0.5505 -0.6980
   17MOL0     C 2144   6.367  10.270   5.768  0.6132 -0.4860  0.3793
   17MOL0     C 2145   6.254  10.182   5.746 -0.0858  0.3952 -0.2994
   17MOL0     C 2146   6.184  10.115   5.851  0.7068  0.7149  1.1439
   17MOL0     O 2147   6.071  10.034   5.821  0.1217 -0.2467 -0.4624
   17MOL0     C 2148   6.060   9.980   5.692 -0.0824 -0.7767 -0.3704
   17MOL0     C 2149   5.978   9.849   5.675  0.0910 -0.1716  0.4182
   17MOL0     C 2150   5.831   9.876   5.691  0.5441  0.0777 -0.8272
   17MOL0     C 2151   5.760   9.746   5.699 -0.0170 -0.4602  0.7666
   17MOL0     C 2152   5.605   9.781   5.714 -0.4746  0.1127  0.2749
   17MOL0     C 2153   5.532   9.665   5.795 -0.0671 -0.0749  0.0478
   17MOL0     C 2154   5.380   9.693   5.807  0.1276 -0.5161  0.4665
   17MOL0     C 2155   5.317   9.572   5.877  0.0424 -0.6702  0.9286
   17MOL0    Cl 2156   5.283   9.623   6.050 -0.0961 -0.0106  0.1533
   17MOL0     C 2157   6.239  10.129   5.973  0.6747 -0.3927 -0.5750
   17MOL0     C 2158   6.341  10.217   6.003  0.0178  0.1648  0.0148
   17MOL0     O 2159   6.622  10.405   5.758 -0.2421  0.0974  0.0640
   17MOL0     C 2160   6.747  10.636   5.888 -0.1607 -0.3537 -0.3090
   17MOL0     C 2161   6.826  10.729   5.958 -0.2793 -0.1576  0.1662
   17MOL0     N 2162   6.385  11.024   6.541  0.9854 -0.2333  0.7866
   17MOL0     N 2163   6.281  10.953   6.564 -0.1456 -0.7240  0.4597
   17MOL0     C 2164   5.457  10.085   6.867  0.2258  0.2097  0.4437
   17MOL0     C 2165   5.334  10.020   6.900 -0.3638  0.4871  0.9034
   17MOL0     C 2166   5.016   9.740   7.072 -0.4182  0.3536  0.2123
   17MOL0     C 2167   4.997   9.641   7.172 -0.1662 -0.0417  0.5943
   17MOL0     C 2168   4.868   9.599   7.194 -0.4332  0.9152 -0.5499
   17MOL0     C 2169   4.757   9.649   7.129  0.5948  0.5436  0.3118
   17MOL0     O 2170   4.634   9.598   7.158  0.2870 -0.2815 -0.0742
   17MOL0     C 2171   4.523   9.608   7.064  0.3932 -0.6112 -0.1472
   17MOL0     C 2172   4.470   9.458   7.035  0.0265  0.3566  0.0751
   17MOL0     C 2173   4.365   9.410   7.137 -0.4161  0.4949 -0.3078
   17MOL0     C 2174   4.285   9.286   7.092 -0.4379  0.0184  0.3576
   17MOL0     C 2175   4.188   9.302   6.987  0.3929  0.1633  0.4117
   17MOL0     C 2176   4.097   9.315   6.897  0.3182 -0.3624  0.0624
   17MOL0     C 2177   4.771   9.754   7.040 -0.1148  0.2808  0.2567
   17MOL0     C 2178   4.904   9.787   7.007 -0.6572 -1.0740 -0.1502
   17MOL0     H 2179   5.369   9.716   6.768 -0.8911  0.1763 -0.0791
   17MOL0     H 2180   5.602   9.805   6.722  2.8505  0.8445  2.7663
   17MOL0     H 2181   5.686  10.209   6.898  1.2472  0.3738  0.3883
   17MOL0     H 2182   5.682  10.249   6.726 -0.8222  0.0460  2.2030
   17MOL0     H 2183   5.922  10.146   6.710 -2.3484 -1.7279  1.1249
   17MOL0     H 2184   5.911  10.140   6.886  0.5226  1.3485  0.5739
   17MOL0     H 2185   5.914  10.387   6.908 -1.8493  2.0796 -1.0136
   17MOL0     H 2186   5.888  10.403   6.740  0.5220 -1.3239 -1.2355
   17MOL0     H 2187   6.152  10.279   6.843 -0.2684  0.2686 -0.4196
   17MOL0     H 2188   6.096  10.292   6.677 -2.0975  0.9189  0.1995
   17MOL0     H 2189   6.148  10.529   6.876  0.0620 -1.4384  1.7827
   17MOL0     H 2190   6.082  10.543   6.720 -0.2112 -2.5274 -1.7426
   17MOL0     H 2191   6.298  10.429   6.626  1.6476  0.2538  0.1862
   17MOL0     H 2192   6.365  10.443   6.790  0.1664  1.7728  0.7115
   17MOL0     H 2193   6.310  10.693   6.791 -0.3307  0.4083 -0.5947
   17MOL0     H 2194   6.433  10.635   6.679  0.1896 -0.8626 -2.7631
   17MOL0     H 2195   6.139  10.714   6.599 -0.3080 -2.0229  2.0517
   17MOL0     H 2196   6.257  10.627   6.500 -0.9226 -0.1018  0.4315
   17MOL0     H 2197   6.494  10.722   6.462  1.2537 -0.4821  2.1320
   17MOL0     H 2198   6.677  10.951   6.559  1.9021 -0.4985 -0.3185
   17MOL0     H 2199   6.640  11.088   6.456  2.7684 -0.8734  2.1605
   17MOL0     H 2200   6.657  10.936   6.250 -1.0904 -2.4899 -1.6932
   17MOL0     H 2201   6.671  10.799   6.352  1.3759 -0.2910 -2.5883
   17MOL0     H 2202   6.855  11.039   6.350 -2.8141 -0.0419 -2.2245
   17MOL0     H 2203   6.862  10.924   6.476  2.0963  3.5433  0.2809
   17MOL0     H 2204   6.908  10.733   6.338 -2.3185  1.3301  1.9882
   17MOL0     H 2205   7.032  10.848   6.301 -0.3452  2.0417  0.0224
   17MOL0     H 2206   6.741  10.605   6.261 -2.7407 -1.1627 -0.2891
   17MOL0     H 2207   6.608  10.460   6.135  0.4462 -0.7072 -3.0835
   17MOL0     H 2208   6.397  10.327   5.681  1.5450 -1.3840  0.0859
   17MOL0     H 2209   6.203  10.177   5.650 -2.0901  2.0975  0.5804
   17MOL0     H 2210   6.153   9.954   5.640 -0.1454 -0.6716 -0.5336
   17MOL0     H 2211   6.005  10.051   5.630 -2.1477 -0.9607  1.1448
   17MOL0     H 2212   6.009   9.768   5.742 -2.0057 -1.0366  0.4140
   17MOL0     H 2213   5.999   9.798   5.580  0.5104 -2.2947  1.5919
   17MOL0     H 2214   5.795   9.923   5.599  0.6799 -0.9241 -1.4052
   17MOL0     H 2215   5.817   9.938   5.779  1.5897 -3.0414  1.7173
   17MOL0     H 2216   5.773   9.689   5.606 -0.2819 -2.5833  1.9476
   17MOL0     H 2217   5.792   9.680   5.779 -0.6136 -0.8530  0.6956
   17MOL0     H 2218   5.554   9.809   5.621  0.1322 -0.5480 -0.2711
   17MOL0     H 2219   5.618   9.868   5.778  3.8821 -0.1353  0.0556
   17MOL0     H 2220   5.574   9.658   5.896  2.1726  0.7976 -0.7490
   17MOL0     H 2221   5.558   9.574   5.741  0.2203  0.6557 -1.0844
   17MOL0     H 2222   5.352   9.786   5.856 -1.7378  0.5690 -2.3514
   17MOL0     H 2223   5.344   9.709   5.705 -2.5337  2.2480  1.6856
   17MOL0     H 2224   5.377   9.481   5.886 -1.0733 -1.2247  3.7331
   17MOL0     H 2225   5.216   9.547   5.841  0.5433 -1.5540  0.0776
   17MOL0     H 2226   6.184  10.082   6.053 -1.5844 -1.3110 -2.5644
   17MOL0     H 2227   6.396  10.222   6.096 -1.8137 -0.6828  1.2052
   17MOL0     H 2228   6.741  10.644   5.780 -2.9996 -1.6051 -0.3393
   17MOL0     H 2229   6.873  10.815   5.912 -3.4231  1.1197 -0.9147
   17MOL0     H 2230   5.456  10.191   6.890 -1.8945  0.3520 -0.0456
   17MOL0     H 2231   5.259  10.084   6.945 -1.1364  1.4681 -1.5613
   17MOL0     H 2232   5.086   9.601   7.220 -0.0140  0.1855  0.5054
   17MOL0     H 2233   4.855   9.517   7.264 -2.4184  1.4609 -0.2063
   17MOL0     H 2234   4.543   9.661   6.971 -1.4421 -1.4455 -1.0797
   17MOL0     H 2235   4.441   9.657   7.118 -0.8236 -1.9914 -0.6796
   17MOL0     H 2236   4.418   9.465   6.939 -0.0327  1.4076  0.1734
   17MOL0     H 2237   4.547   9.382   7.021  1.6853  2.3033 -2.1095
   17MOL0     H 2238   4.298   9.491   7.166 -0.8298 -0.3668  1.2469
   17MOL0     H 2239   4.420   9.389   7.230  0.8332  2.5766 -0.5192
   17MOL0     H 2240   4.352   9.202   7.071 -1.7923 -0.8207 -0.7601
   17MOL0     H 2241   4.227   9.246   7.176 -3.0982 -2.9106 -2.5630
   17MOL0     H 2242   4.024   9.334   6.821  0.3719  0.2602  0.1542
   17MOL0     H 2243   4.688   9.815   7.006 -0.1831  0.8213  1.3396
   17MOL0     H 2244   4.917   9.875   6.944 -1.4005 -0.2731  0.7744
   18MOL0     O 2245   4.773   2.602   1.980 -0.1672 -0.2472  0.4181
   18MOL0     C 2246   4.871   2.605   2.058  0.7700 -0.7507 -0.9430
   18MOL0     O 2247   4.954   2.498   2.079 -0.2824  0.0046 -0.1514
   18MOL0     C 2248   4.976   2.392   1.992  0.6424 -0.3702  0.6317
   18MOL0     C 2249   5.060   2.287   2.045 -0.8755 -0.8783  0.3037
   18MOL0     C 2250   5.105   2.182   1.966 -0.0993 -0.3086 -0.6341
   18MOL0     C 2251   5.070   2.170   1.834 -0.3517  0.4581 -0.1308
   18MOL0     O 2252   5.106   2.065   1.751 -0.1327  0.2301  0.3549
   18MOL0     C 2253   5.240   2.012   1.775 -0.5127  1.0499  0.5498
   18MOL0     C 2254   5.273   1.939   1.645 -0.7681  0.0365 -0.7781
   18MOL0     C 2255   5.292   2.032   1.527  0.7376  1.0953  0.5661
   18MOL0     C 2256   5.338   1.942   1.402  0.4960  0.8320 -0.2346
   18MOL0     C 2257   5.208   1.886   1.334  0.2248  0.3235 -0.0688
   18MOL0     C 2258   5.227   1.787   1.215  0.1294 -0.2360 -1.0357
   18MOL0     C 2259   5.093   1.721   1.178  0.1539  0.5027 -0.0480
   18MOL0     C 2260   4.979   1.817   1.139  0.1135 -0.0962 -0.5116
   18MOL0     N 2261   4.858   1.740   1.100 -0.2902  0.1686 -0.2354
   18MOL0     C 2262   4.757   1.699   1.187 -0.0528 -0.2968 -0.5235
   18MOL0     C 2263   4.662   1.648   1.110 -0.3593 -0.3947  0.0638
   18MOL0     C 2264   4.525   1.613   1.166 -0.2377  0.1430  0.6353
   18MOL0     C 2265   4.411   1.709   1.110 -0.5585  0.7055 -0.5937
   18MOL0     C 2266   4.274   1.671   1.151 -0.2646 -0.3764  0.1050
   18MOL0     C 2267   4.193   1.659   1.022  0.5820 -0.0724 -0.6189
   18MOL0     O 2268   4.087   1.560   1.049  0.5135  0.2166 -0.3591
   18MOL0     C 2269   3.976   1.596   1.129  0.9042 -0.0476 -0.2814
   18MOL0     C 2270   3.955   1.719   1.196 -0.7386  0.2201  0.2183
   18MOL0     C 2271   3.832   1.747   1.261  0.6099 -1.4263  0.4875
   18MOL0     C 2272   3.730   1.645   1.262 -0.7519 -0.7243 -0.2957
   18MOL0     C 2273   3.603   1.671   1.330 -0.3245  0.6773 -0.2130
   18MOL0     O 2274   3.488   1.601   1.299  0.2106 -0.6238 -0.2179
   18MOL0     C 2275   3.371   1.639   1.356 -0.4700 -0.3735  0.1522
   18MOL0     C 2276   3.343   1.636   1.491 -0.2357 -0.1460  0.1004
   18MOL0     C 2277   3.213   1.658   1.535  0.1309 -0.0347  1.1613
   18MOL0     C 2278   3.108   1.692   1.446  0.0724  0.1065  0.5395
   18MOL0     O 2279   2.974   1.724   1.484 -0.3817 -0.2543  0.0477
   18MOL0     C 2280   2.918   1.657   1.595 -0.6868  0.1712  0.2954
   18MOL0     C 2281   2.762   1.672   1.594 -0.1005 -0.5467  0.2896
   18MOL0     C 2282   2.687   1.635   1.480  0.1013 -0.2419  0.6175
   18MOL0     C 2283   2.540   1.674   1.501  0.0888 -0.2536  0.5335
   18MOL0     C 2284   2.481   1.665   1.364 -0.9058  0.1009  0.1829
   18MOL0     C 2285   2.365   1.558   1.353 -0.5614  0.2178  0.4961
   18MOL0     C 2286   2.326   1.539   1.209 -0.0731 -0.3047  0.2088
   18MOL0     C 2287   2.214   1.431   1.211  0.2830  0.1317  0.4077
   18MOL0    Cl 2288   2.058   1.498   1.244  0.1041  0.2023  0.0075
   18MOL0     C 2289   3.134   1.697   1.307 -0.1053  0.4755  0.5430
   18MOL0     C 2290   3.264   1.663   1.265 -0.3662  0.6424 -0.3782
   18MOL0     O 2291   3.606   1.758   1.407  0.8647 -0.0071  0.7066
   18MOL0     C 2292   3.755   1.521   1.202 -0.3311  0.3104  0.0335
   18MOL0     C 2293   3.878   1.496   1.129  0.0078 -0.0106 -0.0826
   18MOL0     N 2294   4.706   1.639   0.979 -0.5161  0.5430  0.5525
   18MOL0     N 2295   4.821   1.707   0.982  1.0972  1.1260 -0.5523
   18MOL0     C 2296   4.995   2.279   1.782  0.2254 -0.3438  0.1208
   18MOL0     C 2297   4.939   2.384   1.857  0.1782 -0.3049 -0.1567
   18MOL0     C 2298   4.905   2.740   2.116  0.0916 -0.2307  0.1246
   18MOL0     C 2299   5.036   2.763   2.152  0.0755 -0.7735 -0.0264
   18MOL0     C 2300   5.072   2.888   2.200 -0.0877  0.2798 -0.2289
   18MOL0     C 2301   4.970   2.989   2.230 -0.7280  0.5615  0.4171
   18MOL0     O 2302   4.984   3.111   2.278  0.2753 -0.0106 -0.0480
   18MOL0     C 2303   5.113   3.178   2.298 -1.3125  0.5422 -0.0087
   18MOL0     C 2304   5.110   3.317   2.365 -0.0539 -0.0429  0.1678
   18MOL0     C 2305   5.247   3.349   2.421 -0.3648 -0.0174 -0.1161
   18MOL0     C 2306   5.352   3.420   2.338  0.1347  0.5456  0.1599
   18MOL0     C 2307   5.456   3.468   2.424 -0.0249  0.0563  0.0857
   18MOL0     C 2308   5.552   3.511   2.494 -0.4065  0.7772  0.6989
   18MOL0     C 2309   4.841   2.955   2.205 -0.0403 -0.2607 -0.5958
   18MOL0     C 2310   4.805   2.835   2.141  0.0779  0.8169  0.6704
   18MOL0     H 2311   5.097   2.292   2.147  0.9297 -0.7448 -0.3068
   18MOL0     H 2312   5.167   2.106   2.015 -0.9356  0.9578  2.6860
   18MOL0     H 2313   5.246   1.933   1.852  1.1573  1.2908  0.7141
   18MOL0     H 2314   5.317   2.083   1.806 -0.9494  1.7541  0.0380
   18MOL0     H 2315   5.193   1.874   1.610 -1.1291  0.5037 -0.8321
   18MOL0     H 2316   5.368   1.885   1.652 -0.9763 -0.3560 -1.0160
   18MOL0     H 2317   5.360   2.116   1.549 -0.4656  2.3478 -0.3370
   18MOL0     H 2318   5.192   2.070   1.507 -0.8480 -3.2447 -0.6562
   18MOL0     H 2319   5.376   2.003   1.319  0.1518  0.6741 -0.5152
   18MOL0     H 2320   5.415   1.869   1.426  2.4329  2.7243 -0.3729
   18MOL0     H 2321   5.142   1.967   1.300 -1.4523 -0.7864  0.3942
   18MOL0     H 2322   5.149   1.845   1.417  1.7035  1.2921  1.5363
   18MOL0     H 2323   5.294   1.710   1.253  1.0487  1.7262  1.6050
   18MOL0     H 2324   5.268   1.827   1.122 -0.0410  1.3578 -0.4494
   18MOL0     H 2325   5.111   1.656   1.092  0.3333  0.0939  0.2936
   18MOL0     H 2326   5.061   1.650   1.255  1.6712 -0.3093 -0.1266
   18MOL0     H 2327   5.016   1.874   1.053  1.5330  0.3943  0.3833
   18MOL0     H 2328   4.953   1.896   1.211  0.3326  0.4908 -1.0701
   18MOL0     H 2329   4.768   1.716   1.293  1.7297 -0.7780 -0.5953
   18MOL0     H 2330   4.526   1.624   1.275  0.1279 -1.8465  0.8715
   18MOL0     H 2331   4.508   1.509   1.138  2.1629 -0.0493 -0.2989
   18MOL0     H 2332   4.432   1.721   1.003 -1.2246 -0.5088 -0.8720
   18MOL0     H 2333   4.421   1.809   1.155 -0.5041  0.1459  0.6857
   18MOL0     H 2334   4.279   1.570   1.191  0.2515 -0.3244  0.1751
   18MOL0     H 2335   4.222   1.734   1.225 -0.9840 -1.5351  0.6139
   18MOL0     H 2336   4.250   1.615   0.939 -1.8341  1.5353 -3.3082
   18MOL0     H 2337   4.160   1.763   1.009  0.9165  0.0071 -0.8479
   18MOL0     H 2338   4.037   1.790   1.195  1.6968 -2.3011 -3.1807
   18MOL0     H 2339   3.820   1.836   1.322  1.2001 -0.1087 -1.2477
   18MOL0     H 2340   3.425   1.618   1.561 -1.0369 -3.6660  0.3237
   18MOL0     H 2341   3.199   1.655   1.642 -1.9694  0.1797  0.9260
   18MOL0     H 2342   2.968   1.690   1.686  0.6162  0.5541 -0.5431
   18MOL0     H 2343   2.941   1.550   1.589  1.7847  0.6852 -0.3162
   18MOL0     H 2344   2.748   1.779   1.611 -1.2730 -0.3216 -1.7309
   18MOL0     H 2345   2.720   1.629   1.686  0.9037 -1.0394  0.5361
   18MOL0     H 2346   2.687   1.527   1.463  0.4978  0.1822 -2.8207
   18MOL0     H 2347   2.733   1.683   1.393 -1.2577 -2.4096 -1.4151
   18MOL0     H 2348   2.488   1.597   1.559  2.1117 -4.0397 -2.1900
   18MOL0     H 2349   2.542   1.776   1.540 -0.5731 -0.2159  0.4953
   18MOL0     H 2350   2.556   1.638   1.290 -2.0732 -3.0509 -0.0096
   18MOL0     H 2351   2.430   1.754   1.327  0.8512  0.3314 -1.8429
   18MOL0     H 2352   2.280   1.596   1.410 -1.2776  0.5137 -0.7470
   18MOL0     H 2353   2.399   1.462   1.394 -1.6065 -0.4109 -0.0724
   18MOL0     H 2354   2.294   1.631   1.161  8.4566  3.1101 -0.7843
   18MOL0     H 2355   2.406   1.496   1.148  1.7845 -1.0813  2.9769
   18MOL0     H 2356   2.231   1.346   1.277  1.6481 -1.5338 -1.9231
   18MOL0     H 2357   2.208   1.391   1.109  1.0716 -0.2957  0.5195
   18MOL0     H 2358   3.056   1.711   1.233  0.1628 -0.8714 -0.0298
   18MOL0     H 2359   3.282   1.659   1.158  1.9316  1.0735 -0.0537
   18MOL0     H 2360   3.671   1.453   1.195  0.8919 -1.1258 -1.6533
   18MOL0     H 2361   3.907   1.410   1.069 -0.2824 -0.8765  0.9975
   18MOL0     H 2362   4.962   2.276   1.678  3.1090  1.7813 -0.9909
   18MOL0     H 2363   4.869   2.444   1.799 -0.9378 -1.8449 -0.4631
   18MOL0     H 2364   5.113   2.687   2.163  2.0261  1.1623  0.3249
   18MOL0     H 2365   5.175   2.914   2.222 -0.1446 -0.1148  0.5511
   18MOL0     H 2366   5.167   3.181   2.203  0.5844  0.3818  1.0144
   18MOL0     H 2367   5.165   3.104   2.359 -3.9469 -0.6524  0.9499
   18MOL0     H 2368   5.070   3.387   2.291 -0.9379 -2.3280 -1.6315
   18MOL0     H 2369   5.045   3.309   2.452  0.4081  0.0093  0.5242
   18MOL0     H 2370   5.289   3.257   2.464 -1.7493 -0.4788  0.2946
   18MOL0     H 2371   5.219   3.413   2.505 -0.4868  0.9188 -0.8560
   18MOL0     H 2372   5.391   3.356   2.258  1.5485  0.9193  0.5252
   18MOL0     H 2373   5.296   3.508   2.305 -0.2361 -0.3380 -1.7210
   18MOL0     H 2374   5.646   3.544   2.534 -1.6672  2.7178  2.2486
   18MOL0     H 2375   4.766   3.029   2.231  2.6401  2.6239 -0.3644
   18MOL0     H 2376   4.701   2.810   2.118  0.8516 -2.3214  0.1535
   19MOL0     O 2377   9.228   9.385   8.373  0.1969 -0.3181 -0.0894
   19MOL0     C 2378   9.257   9.356   8.488 -0.0642  1.0176  0.4609
   19MOL0     O 2379   9.181   9.381   8.599  0.3488 -0.0375 -0.1766
   19MOL0     C 2380   9.052   9.417   8.586  0.7155  0.1466  0.4689
   19MOL0     C 2381   8.967   9.341   8.502  0.0588  0.2963 -0.1058
   19MOL0     C 2382   8.838   9.372   8.482  0.7958 -0.0401  0.3701
   19MOL0     C 2383   8.773   9.488   8.538  0.9592 -0.0095 -0.3751
   19MOL0     O 2384   8.639   9.505   8.527 -0.5307  0.6761 -0.0215
   19MOL0     C 2385   8.562   9.391   8.545 -1.2075  0.7814  0.6950
   19MOL0     C 2386   8.572   9.328   8.688 -0.5795 -0.1483  0.3299
   19MOL0     C 2387   8.483   9.202   8.690 -0.0995 -0.1022  0.7388
   19MOL0     C 2388   8.488   9.127   8.823  0.1088  0.3484 -0.4286
   19MOL0     C 2389   8.387   9.012   8.836  0.6951 -0.0660  0.7270
   19MOL0     C 2390   8.412   8.905   8.728  0.8817  0.5303 -0.4038
   19MOL0     C 2391   8.316   8.783   8.727 -0.6715 -0.3747 -0.5295
   19MOL0     C 2392   8.195   8.814   8.645  0.0281  0.1171 -0.4961
   19MOL0     N 2393   8.079   8.859   8.727  0.4620  0.5234 -0.1923
   19MOL0     C 2394   8.014   8.782   8.816  0.0740 -0.1652  0.2763
   19MOL0     C 2395   7.937   8.862   8.891 -0.0548 -0.4660 -0.6223
   19MOL0     C 2396   7.852   8.823   9.000 -0.6060  0.0155 -0.3134
   19MOL0     C 2397   7.719   8.755   8.965 -0.5293 -0.3080  0.5713
   19MOL0     C 2398   7.632   8.820   8.857 -0.4550 -1.0369  0.0936
   19MOL0     C 2399   7.593   8.964   8.900 -0.0096 -0.5940  0.9330
   19MOL0     O 2400   7.513   8.971   9.024 -1.0736  0.7431 -0.1658
   19MOL0     C 2401   7.415   8.881   9.043  0.7537 -0.2434  0.9289
   19MOL0     C 2402   7.314   8.866   8.941 -0.3633  0.3876  0.6166
   19MOL0     C 2403   7.207   8.774   8.958 -1.0705 -0.8581  0.4105
   19MOL0     C 2404   7.200   8.698   9.074  0.8766 -0.0513 -0.8201
   19MOL0     C 2405   7.089   8.602   9.103 -0.8548 -0.6431  0.0608
   19MOL0     O 2406   7.028   8.565   8.990  0.0719  0.3686 -0.2180
   19MOL0     C 2407   6.897   8.516   9.006  0.1206 -0.3214 -0.1838
   19MOL0     C 2408   6.851   8.440   8.909 -0.4526  0.5577  0.5788
   19MOL0     C 2409   6.722   8.381   8.916 -0.6293  0.1749 -0.5208
   19MOL0     C 2410   6.630   8.414   9.018 -1.0001 -0.0914 -0.7273
   19MOL0     O 2411   6.509   8.344   9.025  0.2354 -1.4585 -0.7428
   19MOL0     C 2412   6.410   8.374   9.125  0.2668  0.5664  0.3504
   19MOL0     C 2413   6.291   8.296   9.102  0.1623  0.4625  0.3761
   19MOL0     C 2414   6.162   8.346   9.156 -0.4850 -0.3242  1.1342
   19MOL0     C 2415   6.047   8.255   9.111 -0.0785  0.2224  0.1108
   19MOL0     C 2416   5.939   8.259   9.217  0.8098 -0.5951 -0.8620
   19MOL0     C 2417   5.825   8.155   9.182 -1.0459 -0.4458  0.2110
   19MOL0     C 2418   5.743   8.125   9.305  0.4146 -0.8926 -0.0622
   19MOL0     C 2419   5.673   8.249   9.364  0.1340  0.5713 -0.9828
   19MOL0    Cl 2420   5.558   8.308   9.241  0.2116  0.7772 -0.0123
   19MOL0     C 2421   6.676   8.504   9.107 -0.9683  0.3634 -1.4360
   19MOL0     C 2422   6.810   8.551   9.103  0.5907  0.6036 -0.7527
   19MOL0     O 2423   7.060   8.564   9.222 -0.2583 -0.2953 -0.9429
   19MOL0     C 2424   7.289   8.725   9.179 -0.6390  0.0347  0.6094
   19MOL0     C 2425   7.404   8.809   9.166  0.3792  0.4863  0.6082
   19MOL0     N 2426   7.951   8.995   8.849 -0.1912 -0.5375  0.3319
   19MOL0     N 2427   8.041   8.990   8.752 -0.4695  0.3650  0.8349
   19MOL0     C 2428   8.854   9.565   8.618  0.1135 -0.6237  0.1462
   19MOL0     C 2429   8.983   9.528   8.650 -0.5634  0.6444  0.3622
   19MOL0     C 2430   9.392   9.283   8.497  0.7034 -0.3072  0.4046
   19MOL0     C 2431   9.472   9.254   8.381 -0.2156  0.4841 -0.6022
   19MOL0     C 2432   9.603   9.199   8.399  0.2194 -0.4013 -0.7231
   19MOL0     C 2433   9.654   9.175   8.526 -0.3850 -0.0409 -1.0521
   19MOL0     O 2434   9.791   9.132   8.534  0.4252 -0.1127 -0.2349
   19MOL0     C 2435   9.851   9.154   8.654  0.3165  0.4109 -0.7017
   19MOL0     C 2436   9.995   9.102   8.643 -0.4229  0.9612  0.2301
   19MOL0     C 2437  10.073   9.150   8.528 -0.7198  0.0284  0.5622
   19MOL0     C 2438  10.216   9.094   8.536  0.3314 -0.2301 -0.0584
   19MOL0     C 2439  10.305   9.176   8.617  0.3202 -0.3158 -0.6064
   19MOL0     C 2440  10.385   9.244   8.682  0.1631  0.4563 -0.1208
   19MOL0     C 2441   9.566   9.196   8.642  0.7745 -0.1225 -0.9923
   19MOL0     C 2442   9.437   9.245   8.626  0.2315 -0.6404 -0.1742
   19MOL0     H 2443   9.007   9.256   8.448  0.5486 -0.1484  0.9245
   19MOL0     H 2444   8.786   9.309   8.410 -0.2149  0.1992  0.8709
   19MOL0     H 2445   8.602   9.317   8.476  0.9804 -0.5828  3.2181
   19MOL0     H 2446   8.460   9.424   8.521 -0.4667  1.6746 -1.4186
   19MOL0     H 2447   8.535   9.410   8.750  0.2766  1.3202 -1.0281
   19MOL0     H 2448   8.675   9.306   8.718  0.3167 -1.7568 -3.3301
   19MOL0     H 2449   8.526   9.133   8.617 -0.3306  0.3149  0.1954
   19MOL0     H 2450   8.382   9.220   8.650  0.9567 -2.3131 -3.5409
   19MOL0     H 2451   8.592   9.097   8.841 -0.2104  0.7037  2.4727
   19MOL0     H 2452   8.467   9.199   8.902  0.4767 -2.2196  2.1815
   19MOL0     H 2453   8.293   9.064   8.815  1.4371  0.4546 -1.6410
   19MOL0     H 2454   8.396   8.967   8.935  0.5837 -0.4683  0.5570
   19MOL0     H 2455   8.509   8.859   8.749  0.3346  0.0041  1.0763
   19MOL0     H 2456   8.421   8.958   8.633  1.2216  1.6233  0.2269
   19MOL0     H 2457   8.368   8.703   8.672  0.6662  0.4106 -0.4661
   19MOL0     H 2458   8.292   8.743   8.825 -0.2927 -1.7000 -0.9599
   19MOL0     H 2459   8.165   8.721   8.595 -2.2919 -1.0000  2.6318
   19MOL0     H 2460   8.225   8.894   8.577  1.2091  1.1848  1.1976
   19MOL0     H 2461   8.030   8.676   8.835 -0.5762 -0.4588 -0.7180
   19MOL0     H 2462   7.825   8.911   9.060  2.5350 -0.7684  2.5400
   19MOL0     H 2463   7.903   8.749   9.063  0.6741 -0.6034 -2.0118
   19MOL0     H 2464   7.656   8.757   9.054 -0.4505  1.1271  0.6229
   19MOL0     H 2465   7.746   8.651   8.949  3.3934  0.6317  0.0917
   19MOL0     H 2466   7.696   8.816   8.768 -1.2030  0.7312 -0.5806
   19MOL0     H 2467   7.539   8.768   8.836 -0.6622 -0.0850 -1.5472
   19MOL0     H 2468   7.524   9.005   8.827  1.5390 -0.3527 -0.4568
   19MOL0     H 2469   7.674   9.038   8.902 -2.8620  2.7753  0.5865
   19MOL0     H 2470   7.329   8.932   8.856  3.1512  1.1120  1.6074
   19MOL0     H 2471   7.141   8.759   8.873  3.0679 -2.2360 -2.8785
   19MOL0     H 2472   6.906   8.410   8.820 -2.3092  1.0837 -0.7934
   19MOL0     H 2473   6.686   8.302   8.851  1.2205 -0.9267 -0.2866
   19MOL0     H 2474   6.390   8.482   9.120  2.0515  0.8677 -2.9148
   19MOL0     H 2475   6.441   8.359   9.229 -1.1630  0.5336  0.8059
   19MOL0     H 2476   6.307   8.197   9.148 -1.4316  0.1296  0.2469
   19MOL0     H 2477   6.285   8.283   8.994  0.7592  1.0008  0.2682
   19MOL0     H 2478   6.150   8.449   9.122 -3.1375 -0.5000  1.3185
   19MOL0     H 2479   6.160   8.352   9.265 -2.0238 -0.8951  1.1657
   19MOL0     H 2480   5.999   8.285   9.018 -2.4570 -1.4986  0.6820
   19MOL0     H 2481   6.087   8.153   9.099  0.7193  0.3458  1.4356
   19MOL0     H 2482   5.898   8.357   9.242 -1.7906 -1.9118  0.4822
   19MOL0     H 2483   5.976   8.233   9.317 -0.3858  1.2469  0.1203
   19MOL0     H 2484   5.874   8.066   9.141 -1.7943 -0.6724 -0.2121
   19MOL0     H 2485   5.766   8.198   9.100 -0.3803 -0.3514 -0.2253
   19MOL0     H 2486   5.670   8.048   9.278 -0.2633 -1.3859  2.8615
   19MOL0     H 2487   5.811   8.074   9.373  2.2546  0.6129 -0.7009
   19MOL0     H 2488   5.738   8.329   9.401  0.9997 -0.9488  0.9521
   19MOL0     H 2489   5.604   8.228   9.447  2.2187 -0.0399  0.7002
   19MOL0     H 2490   6.624   8.530   9.199  0.3031 -0.5964 -0.4186
   19MOL0     H 2491   6.832   8.620   9.184 -2.8761 -1.8628  2.7223
   19MOL0     H 2492   7.277   8.684   9.279 -0.8838 -1.7040 -0.0958
   19MOL0     H 2493   7.476   8.808   9.247 -0.8735  0.7432  1.7781
   19MOL0     H 2494   8.817   9.645   8.681  3.6207  0.9779  0.4202
   19MOL0     H 2495   9.047   9.578   8.722 -0.3470  2.8017 -1.2298
   19MOL0     H 2496   9.459   9.300   8.283  1.0576  0.0202 -1.0062
   19MOL0     H 2497   9.668   9.207   8.312 -0.8428  1.6724 -1.3926
   19MOL0     H 2498   9.814   9.101   8.743  2.8895 -0.1451  0.1171
   19MOL0     H 2499   9.871   9.260   8.672 -1.3309  0.6000  0.2786
   19MOL0     H 2500  10.058   9.123   8.730  3.3983 -2.3534 -1.4254
   19MOL0     H 2501   9.986   8.993   8.638  2.4370  0.4595  2.8976
   19MOL0     H 2502  10.076   9.259   8.529  1.8033  0.0757  3.1832
   19MOL0     H 2503  10.024   9.115   8.437 -1.0749 -0.4167  0.9171
   19MOL0     H 2504  10.215   8.989   8.567  0.8611  0.1063  1.1980
   19MOL0     H 2505  10.257   9.086   8.435  3.5706  0.3303  1.0920
   19MOL0     H 2506  10.453   9.306   8.737 -0.9827  1.4699  0.1928
   19MOL0     H 2507   9.589   9.164   8.743  3.8121 -2.9898 -2.3974
   19MOL0     H 2508   9.373   9.262   8.712  0.8200 -0.4207  0.2342
   20MOL0     O 2509   7.271   5.619   9.322  0.8723  0.1351 -0.0829
   20MOL0     C 2510   7.295   5.629   9.440  0.0531 -1.4306 -0.1345
   20MOL0     O 2511   7.208   5.601   9.541  0.0673 -0.1368 -0.4794
   20MOL0     C 2512   7.085   5.542   9.523  0.6238  0.0891 -0.5886
   20MOL0     C 2513   7.043   5.487   9.640  0.1614  0.4810  0.4355
   20MOL0     C 2514   6.925   5.416   9.651 -0.3671  0.0244 -0.2600
   20MOL0     C 2515   6.836   5.408   9.543 -0.4668  0.2992  0.2179
   20MOL0     O 2516   6.713   5.337   9.545 -0.2363  0.5732  0.1901
   20MOL0     C 2517   6.606   5.416   9.598  0.2081 -0.0323  0.6205
   20MOL0     C 2518   6.478   5.339   9.555 -0.5504 -0.9963  1.2218
   20MOL0     C 2519   6.353   5.388   9.633  0.0440 -0.5578  0.8494
   20MOL0     C 2520   6.218   5.321   9.583 -0.1408 -0.1122  0.1478
   20MOL0     C 2521   6.084   5.390   9.608  0.7066 -0.6658  0.2412
   20MOL0     C 2522   6.092   5.447   9.756  0.5362 -0.0999 -0.0694
   20MOL0     C 2523   5.950   5.455   9.816 -0.4244  0.4495 -0.0363
   20MOL0     C 2524   5.932   5.499   9.959 -0.1623  0.4326 -0.3921
   20MOL0     N 2525   6.002   5.624   9.984 -0.0684 -0.1445  0.2720
   20MOL0     C 2526   5.949   5.746   9.956 -0.0645  0.0035 -0.4297
   20MOL0     C 2527   6.050   5.832   9.982 -0.4671 -0.3332  0.6480
   20MOL0     C 2528   6.044   5.978   9.990  0.0703 -0.6536 -0.0699
   20MOL0     C 2529   5.983   6.033  10.118  0.2934  0.5366 -0.3419
   20MOL0     C 2530   5.973   6.183  10.138 -0.1370  0.2813  0.3637
   20MOL0     C 2531   5.908   6.204  10.275  0.0099  0.0661 -0.7642
   20MOL0     O 2532   5.883   6.346  10.300  0.1663  0.1319  0.1584
   20MOL0     C 2533   5.762   6.381  10.357 -0.2899  0.3640  0.3556
   20MOL0     C 2534   5.721   6.339  10.479 -0.0593 -0.1429  0.1808
   20MOL0     C 2535   5.614   6.397  10.546 -0.0572  0.7692  0.2372
   20MOL0     C 2536   5.534   6.489  10.485 -0.2527  0.4986 -0.4872
   20MOL0     C 2537   5.418   6.543  10.555  0.5593  0.4690  0.5392
   20MOL0     O 2538   5.343   6.631  10.489 -0.2252 -0.3625 -0.1406
   20MOL0     C 2539   5.252   6.710  10.552 -0.3613  0.4750 -0.2545
   20MOL0     C 2540   5.120   6.712  10.503  0.0081 -0.0339 -0.3050
   20MOL0     C 2541   5.020   6.779  10.574  0.5264 -0.3851  0.3902
   20MOL0     C 2542   5.054   6.856  10.683  0.1743  0.8529  0.0920
   20MOL0     O 2543   4.944   6.913  10.740 -0.1188 -0.0127 -0.2463
   20MOL0     C 2544   4.981   7.007  10.840  0.3994 -0.1780 -0.5618
   20MOL0     C 2545   4.873   7.090  10.899 -0.2305 -0.5400 -1.2634
   20MOL0     C 2546   4.817   7.187  10.795 -0.1494 -0.1190 -0.1793
   20MOL0     C 2547   4.729   7.290  10.856 -0.0432 -1.1406  0.0080
   20MOL0     C 2548   4.600   7.242  10.911 -0.7559 -0.2229  0.7482
   20MOL0     C 2549   4.478   7.345  10.916  0.6744 -0.1273  0.5577
   20MOL0     C 2550   4.346   7.301  10.990  0.1371 -0.5334  0.7787
   20MOL0     C 2551   4.237   7.403  10.966 -0.7512 -0.0640 -0.4991
   20MOL0    Cl 2552   4.109   7.377  11.095  0.3334 -0.0073  0.4695
   20MOL0     C 2553   5.184   6.851  10.732  0.1553  0.4174 -0.0780
   20MOL0     C 2554   5.286   6.786  10.663  0.4953 -0.4064  0.5604
   20MOL0     O 2555   5.407   6.513  10.672 -0.1821 -0.0307 -1.0917
   20MOL0     C 2556   5.582   6.544  10.369 -1.0273 -0.0866  0.5583
   20MOL0     C 2557   5.688   6.483  10.298  0.2407 -0.3519 -0.0976
   20MOL0     N 2558   6.166   5.757  10.020  0.1914  0.0696  0.0021
   20MOL0     N 2559   6.135   5.637  10.028 -0.3278  0.6262 -0.8338
   20MOL0     C 2560   6.882   5.464   9.426 -0.4230  0.4638  0.1565
   20MOL0     C 2561   7.003   5.531   9.407 -0.8808 -0.4465 -0.5523
   20MOL0     C 2562   7.433   5.639   9.488  0.4703  0.2458  0.3088
   20MOL0     C 2563   7.528   5.640   9.388  0.0329 -0.2505  0.4978
   20MOL0     C 2564   7.668   5.622   9.414  0.3584  0.2730 -0.0593
   20MOL0     C 2565   7.712   5.627   9.545 -0.3601  0.7081  0.2205
   20MOL0     O 2566   7.839   5.615   9.592 -0.3170  0.2372  0.4434
   20MOL0     C 2567   7.935   5.569   9.505  0.3755  0.0499  0.6281
   20MOL0     C 2568   8.070   5.527   9.577  0.3304 -0.1686  0.5422
   20MOL0     C 2569   8.171   5.483   9.464 -0.2379 -0.3998 -0.2809
   20MOL0     C 2570   8.324   5.502   9.504 -0.8490 -0.2057 -0.4041
   20MOL0     C 2571   8.364   5.403   9.602 -0.3175  0.2812  0.8857
   20MOL0     C 2572   8.393   5.335   9.701  0.3321  0.2011 -0.4563
   20MOL0     C 2573   7.614   5.641   9.648  0.6723  1.0410 -0.5161
   20MOL0     C 2574   7.474   5.640   9.619 -0.2532 -0.0490  0.4301
   20MOL0     H 2575   7.104   5.507   9.727  0.8810 -0.2702  0.1095
   20MOL0     H 2576   6.886   5.383   9.747 -1.6969  0.6262 -0.5660
   20MOL0     H 2577   6.602   5.517   9.556 -0.8637 -1.5009 -3.2434
   20MOL0     H 2578   6.610   5.423   9.707 -0.7487  1.9215  0.5774
   20MOL0     H 2579   6.494   5.232   9.575  1.5108 -0.4751  2.5485
   20MOL0     H 2580   6.473   5.356   9.447  1.1267  1.9988  1.5181
   20MOL0     H 2581   6.344   5.496   9.617  0.6043 -0.2776  2.2403
   20MOL0     H 2582   6.375   5.369   9.739  3.1342  2.9357  1.0679
   20MOL0     H 2583   6.216   5.304   9.474  1.5679 -0.7743  0.1872
   20MOL0     H 2584   6.212   5.223   9.631 -1.2226 -1.0072 -1.6689
   20MOL0     H 2585   5.999   5.323   9.594  0.6764 -0.3269 -1.3458
   20MOL0     H 2586   6.077   5.465   9.529  0.4680 -1.3486 -0.3944
   20MOL0     H 2587   6.137   5.546   9.755  1.6284 -0.4485  2.8590
   20MOL0     H 2588   6.152   5.380   9.819  2.9681  1.8926 -0.1192
   20MOL0     H 2589   5.901   5.525   9.748  1.7970  1.8081 -0.3466
   20MOL0     H 2590   5.903   5.357   9.802  1.9312 -0.7580 -0.0256
   20MOL0     H 2591   5.958   5.417  10.025  0.8932 -0.3766 -1.7613
   20MOL0     H 2592   5.825   5.516   9.969 -0.1417 -0.1308  0.9575
   20MOL0     H 2593   5.849   5.755   9.914  0.0735 -2.1991 -1.3271
   20MOL0     H 2594   5.972   5.998   9.910 -0.6250 -1.5635  0.2985
   20MOL0     H 2595   6.141   6.027   9.982 -0.9858  2.4533  3.5492
   20MOL0     H 2596   6.042   5.997  10.203 -2.3688 -0.2741  1.2616
   20MOL0     H 2597   5.887   5.982  10.129  1.8967 -3.1552 -1.6847
   20MOL0     H 2598   6.073   6.225  10.126  0.6655 -1.5243  0.5174
   20MOL0     H 2599   5.914   6.223  10.055 -0.5182  1.0906  1.0160
   20MOL0     H 2600   5.981   6.183  10.353  1.8038  3.4542 -1.3534
   20MOL0     H 2601   5.816   6.147  10.289  0.9854 -1.4504 -0.3859
   20MOL0     H 2602   5.762   6.250  10.523 -0.9181 -0.0995  1.1046
   20MOL0     H 2603   5.584   6.356  10.642  1.3562  0.8795  0.7503
   20MOL0     H 2604   5.092   6.636  10.431 -1.0804 -2.1834  2.2242
   20MOL0     H 2605   4.915   6.774  10.547 -0.2354  0.6111  2.8492
   20MOL0     H 2606   5.058   7.072  10.797  0.7863 -2.3532 -3.4729
   20MOL0     H 2607   5.028   6.960  10.927  0.1154  1.2664  0.4251
   20MOL0     H 2608   4.892   7.145  10.991 -1.6511  2.4911 -2.6165
   20MOL0     H 2609   4.796   7.016  10.926  0.0558  0.5364  3.2128
   20MOL0     H 2610   4.761   7.139  10.714  1.4323  0.2475 -1.5453
   20MOL0     H 2611   4.899   7.235  10.741  0.2485  1.6218  1.8478
   20MOL0     H 2612   4.777   7.363  10.923 -1.6743  1.5815 -1.5988
   20MOL0     H 2613   4.690   7.354  10.776 -1.4756 -1.5921  0.3378
   20MOL0     H 2614   4.617   7.206  11.013  2.0652 -1.0986  0.0629
   20MOL0     H 2615   4.568   7.153  10.855 -1.5529  0.0474  0.7665
   20MOL0     H 2616   4.441   7.370  10.816 -1.5239 -1.4429  0.9766
   20MOL0     H 2617   4.514   7.437  10.963  2.6470 -1.3156  1.5151
   20MOL0     H 2618   4.314   7.199  10.966 -2.0009  0.5369 -1.3925
   20MOL0     H 2619   4.374   7.304  11.095 -0.1607 -0.7198  0.8635
   20MOL0     H 2620   4.190   7.405  10.868 -4.4730  1.9823  1.0931
   20MOL0     H 2621   4.268   7.505  10.991  1.7631 -1.1288  1.1401
   20MOL0     H 2622   5.224   6.931  10.794 -0.4991  0.6494  0.0494
   20MOL0     H 2623   5.389   6.785  10.698  0.2315 -0.3665  1.3658
   20MOL0     H 2624   5.533   6.626  10.318  2.2566 -0.0964 -3.0812
   20MOL0     H 2625   5.709   6.517  10.197  1.1091 -1.1043 -0.1853
   20MOL0     H 2626   6.812   5.460   9.343 -0.4255  0.7307  0.1448
   20MOL0     H 2627   7.036   5.574   9.313 -0.6267  0.5229 -0.0276
   20MOL0     H 2628   7.508   5.642   9.282  0.3663  1.2966  0.4403
   20MOL0     H 2629   7.739   5.613   9.332  0.6074 -1.5803  0.3166
   20MOL0     H 2630   7.954   5.651   9.435  1.8157  0.0910  1.0301
   20MOL0     H 2631   7.893   5.476   9.466 -0.8198  0.8101  0.0617
   20MOL0     H 2632   8.108   5.616   9.627  2.2285 -0.2666 -0.6430
   20MOL0     H 2633   8.056   5.448   9.651 -1.1864  1.4464  2.0964
   20MOL0     H 2634   8.158   5.530   9.366 -0.5813 -1.3475 -0.7079
   20MOL0     H 2635   8.150   5.379   9.436 -1.2356  0.2263 -2.0257
   20MOL0     H 2636   8.396   5.497   9.422  1.9656  1.0015  1.7994
   20MOL0     H 2637   8.334   5.598   9.557 -0.3083 -1.1176  1.2260
   20MOL0     H 2638   8.426   5.262   9.771 -3.4500 -3.2089 -1.8575
   20MOL0     H 2639   7.645   5.641   9.751 -0.3832  1.0418 -0.1821
   20MOL0     H 2640   7.403   5.645   9.700  0.4115 -2.0947  1.2174
   21MOL0     O 2641   2.743   6.063   5.270  0.9162  0.1517  0.5275
   21MOL0     C 2642   2.830   6.097   5.348  0.2330  0.3164  0.6855
   21MOL0     O 2643   2.828   6.089   5.485 -0.6929  0.3791 -0.3209
   21MOL0     C 2644   2.709   6.055   5.537  0.4487 -0.3503 -0.3417
   21MOL0     C 2645   2.612   6.150   5.534  0.1860 -0.2224  0.6292
   21MOL0     C 2646   2.497   6.135   5.612  0.4284 -0.4028 -0.0215
   21MOL0     C 2647   2.483   6.017   5.683 -0.4813 -0.3679 -0.9213
   21MOL0     O 2648   2.377   6.007   5.771 -0.0209 -0.4250 -0.1913
   21MOL0     C 2649   2.245   6.005   5.708 -0.3093  0.8578 -0.0669
   21MOL0     C 2650   2.158   6.128   5.700  0.0881 -1.0660 -0.2587
   21MOL0     C 2651   2.124   6.177   5.841  0.4691  0.1405  0.3165
   21MOL0     C 2652   2.217   6.294   5.883  0.7445  0.2452  0.2492
   21MOL0     C 2653   2.190   6.338   6.028 -0.8754  0.8925 -0.1368
   21MOL0     C 2654   2.040   6.358   6.073 -0.7376  0.7617  0.0635
   21MOL0     C 2655   2.031   6.445   6.199  0.5745 -0.5416  0.2219
   21MOL0     C 2656   1.885   6.444   6.258 -0.5634 -0.3875  0.4241
   21MOL0     N 2657   1.873   6.518   6.387  0.0308  1.1167 -0.2191
   21MOL0     C 2658   1.976   6.556   6.469  0.0014  0.5839  0.3677
   21MOL0     C 2659   1.921   6.624   6.572  0.4363 -0.3549  0.7021
   21MOL0     C 2660   1.992   6.665   6.692  0.1919 -0.1206 -0.1844
   21MOL0     C 2661   2.005   6.551   6.801 -0.6439 -0.4213  0.6340
   21MOL0     C 2662   1.869   6.479   6.837  0.2209  0.9009 -0.8151
   21MOL0     C 2663   1.773   6.578   6.895 -0.2731 -0.5535 -0.5022
   21MOL0     O 2664   1.662   6.496   6.932 -0.0853 -1.1158 -0.8429
   21MOL0     C 2665   1.566   6.567   7.004  0.8192  0.2231 -0.0354
   21MOL0     C 2666   1.449   6.498   7.009 -0.0182  0.3687 -0.5184
   21MOL0     C 2667   1.335   6.540   7.082  0.7356  0.0707 -0.1752
   21MOL0     C 2668   1.341   6.672   7.141  0.0992  0.0413 -0.0140
   21MOL0     C 2669   1.228   6.722   7.227 -0.0492 -0.3784  0.4550
   21MOL0     O 2670   1.121   6.644   7.251 -0.5754  0.0280 -0.0903
   21MOL0     C 2671   1.012   6.701   7.308  1.3549 -0.1656 -0.5330
   21MOL0     C 2672   0.894   6.679   7.240 -0.1129  0.3184  0.4004
   21MOL0     C 2673   0.770   6.728   7.281  0.3586  0.0080 -0.1405
   21MOL0     C 2674   0.757   6.792   7.408 -0.2346 -0.5720 -0.5165
   21MOL0     O 2675   0.634   6.835   7.464  0.0503 -0.0264  0.3894
   21MOL0     C 2676   0.516   6.803   7.386 -0.2309 -0.5100 -0.1348
   21MOL0     C 2677   0.405   6.882   7.443  0.3127 -0.1903  0.1079
   21MOL0     C 2678   0.394   6.851   7.588  0.1668 -0.0960 -0.8925
   21MOL0     C 2679   0.277   6.930   7.655 -0.7703 -0.4124 -0.2540
   21MOL0     C 2680   0.243   6.882   7.792  0.0070 -0.0740 -0.0246
   21MOL0     C 2681   0.359   6.873   7.896 -0.1291 -0.9797 -0.1331
   21MOL0     C 2682   0.437   7.012   7.908 -0.2546  0.1388  0.0461
   21MOL0     C 2683   0.526   7.038   8.034  0.2829  0.4980  0.6455
   21MOL0    Cl 2684   0.605   7.206   8.031 -0.0613  0.4127 -0.1845
   21MOL0     C 2685   0.873   6.816   7.481 -0.5144  0.6758 -0.3582
   21MOL0     C 2686   0.998   6.768   7.437  0.3122 -0.4216 -0.2407
   21MOL0     O 2687   1.249   6.834   7.267 -0.4822  0.0449 -0.2485
   21MOL0     C 2688   1.463   6.746   7.132  0.1936  0.6582 -0.0337
   21MOL0     C 2689   1.572   6.694   7.074 -0.1060  0.0217 -0.1722
   21MOL0     N 2690   1.789   6.628   6.542  0.7179  0.5282  0.6077
   21MOL0     N 2691   1.755   6.568   6.436  1.0098 -0.1631 -0.3845
   21MOL0     C 2692   2.576   5.913   5.679 -0.6508  0.3968  0.2267
   21MOL0     C 2693   2.695   5.940   5.604 -0.2522  0.0713  0.9852
   21MOL0     C 2694   2.951   6.150   5.281  0.2744  0.5480 -0.0751
   21MOL0     C 2695   3.052   6.204   5.351  0.3406 -0.4227  0.5945
   21MOL0     C 2696   3.164   6.243   5.286  0.1549  0.6862  1.3563
   21MOL0     C 2697   3.188   6.221   5.151 -0.1368  0.5743 -0.2225
   21MOL0     O 2698   3.322   6.244   5.110 -0.0569 -0.2544 -0.0913
   21MOL0     C 2699   3.360   6.175   5.000  0.3695  0.2551  0.2016
   21MOL0     C 2700   3.499   6.213   4.963  1.0859 -0.8898 -0.0865
   21MOL0     C 2701   3.557   6.117   4.858 -0.1737 -0.0052  0.2323
   21MOL0     C 2702   3.669   6.175   4.775 -0.3343 -0.7282  0.5448
   21MOL0     C 2703   3.738   6.065   4.699  0.2422 -0.0957 -1.2078
   21MOL0     C 2704   3.805   5.981   4.656  0.0435 -1.1347  0.1252
   21MOL0     C 2705   3.077   6.170   5.074 -0.0048 -0.4979 -0.1102
   21MOL0     C 2706   2.957   6.137   5.141 -0.4848  0.8688  0.1589
   21MOL0     H 2707   2.608   6.242   5.476 -4.4768 -0.0497  0.8427
   21MOL0     H 2708   2.429   6.218   5.629 -0.1490 -1.4013  3.2405
   21MOL0     H 2709   2.185   5.936   5.768  1.0932 -0.1725  0.2092
   21MOL0     H 2710   2.249   5.955   5.611  1.9775 -0.4894  0.6498
   21MOL0     H 2711   2.063   6.099   5.656 -1.2245  2.7704 -0.2710
   21MOL0     H 2712   2.196   6.212   5.640  0.5981 -0.0837  1.3881
   21MOL0     H 2713   2.132   6.091   5.909  2.0531 -0.0256 -0.0329
   21MOL0     H 2714   2.022   6.215   5.842  1.2696  2.4698  0.0347
   21MOL0     H 2715   2.317   6.266   5.849 -0.1697 -0.6310 -1.9426
   21MOL0     H 2716   2.179   6.378   5.824  0.0812 -0.9188 -1.0419
   21MOL0     H 2717   2.240   6.432   6.052  0.0176  0.0787  1.3016
   21MOL0     H 2718   2.246   6.260   6.081  0.0031  0.9829 -0.9057
   21MOL0     H 2719   1.990   6.261   6.082 -1.1809  0.6272 -2.8974
   21MOL0     H 2720   1.992   6.412   5.991  0.2499 -0.4170 -1.3399
   21MOL0     H 2721   2.110   6.401   6.261  0.6780  0.8642  1.1421
   21MOL0     H 2722   2.049   6.549   6.169 -2.4923 -0.6237 -2.4205
   21MOL0     H 2723   1.843   6.345   6.276  0.4216 -1.6871 -3.5493
   21MOL0     H 2724   1.813   6.486   6.186 -1.0155  2.0686  2.1592
   21MOL0     H 2725   2.076   6.514   6.461 -0.0571  0.6418 -0.8138
   21MOL0     H 2726   1.937   6.749   6.735  0.7425  0.9970 -1.6087
   21MOL0     H 2727   2.088   6.703   6.656 -0.4471 -0.4720 -2.4205
   21MOL0     H 2728   2.052   6.590   6.892  1.8514 -2.7256  0.4649
   21MOL0     H 2729   2.083   6.483   6.766  2.1244  2.3492  0.9971
   21MOL0     H 2730   1.829   6.425   6.751 -1.5914 -0.3989  0.7783
   21MOL0     H 2731   1.886   6.409   6.919  0.0538 -0.5042 -1.9365
   21MOL0     H 2732   1.740   6.653   6.822 -1.3567  0.5628  1.0831
   21MOL0     H 2733   1.824   6.622   6.981 -1.0020 -1.0042  0.1689
   21MOL0     H 2734   1.456   6.399   6.967 -2.9638 -1.8408  3.4213
   21MOL0     H 2735   1.253   6.470   7.091 -0.1472  1.0150 -0.6852
   21MOL0     H 2736   0.897   6.621   7.148  3.4960  1.8609 -0.6554
   21MOL0     H 2737   0.683   6.710   7.217  0.8313 -3.3315  0.0147
   21MOL0     H 2738   0.492   6.696   7.394 -0.9469 -0.2555  1.4857
   21MOL0     H 2739   0.529   6.827   7.280 -1.2079 -2.0274 -0.6437
   21MOL0     H 2740   0.316   6.861   7.383  1.7124  2.1219 -3.0911
   21MOL0     H 2741   0.429   6.988   7.426 -0.4080 -0.1607 -0.8421
   21MOL0     H 2742   0.484   6.887   7.638 -1.3157  0.6846  1.3908
   21MOL0     H 2743   0.382   6.742   7.595 -1.3786  0.0975  0.2714
   21MOL0     H 2744   0.306   7.035   7.668  0.0459 -0.5720 -0.7083
   21MOL0     H 2745   0.184   6.927   7.599 -0.6475 -0.4211 -0.4586
   21MOL0     H 2746   0.201   6.781   7.792  0.9812 -0.4839 -0.0651
   21MOL0     H 2747   0.161   6.936   7.840  0.5805 -0.5743  1.5717
   21MOL0     H 2748   0.425   6.789   7.872  1.3474 -0.1639  0.9053
   21MOL0     H 2749   0.321   6.853   7.996 -0.9093 -0.6462 -0.3547
   21MOL0     H 2750   0.506   7.019   7.824  1.1430  0.1611  1.1709
   21MOL0     H 2751   0.368   7.097   7.906  0.1045  0.4661 -3.3593
   21MOL0     H 2752   0.604   6.961   8.035  0.0103  0.0903 -1.8978
   21MOL0     H 2753   0.479   7.041   8.133 -1.0445  2.4546  0.0127
   21MOL0     H 2754   0.857   6.863   7.577  0.6828  0.2369  0.0698
   21MOL0     H 2755   1.083   6.789   7.501  0.8755  1.1508 -1.4247
   21MOL0     H 2756   1.482   6.845   7.174 -2.0437  0.8876  0.5668
   21MOL0     H 2757   1.657   6.762   7.079 -1.4570  1.7185  3.3917
   21MOL0     H 2758   2.556   5.816   5.724 -1.0461  1.9461  3.7384
   21MOL0     H 2759   2.774   5.866   5.597  0.3845  0.5921  2.3381
   21MOL0     H 2760   3.067   6.205   5.459  1.5864 -1.0266  0.4449
   21MOL0     H 2761   3.237   6.293   5.349  0.4212  3.8415 -1.2096
   21MOL0     H 2762   3.292   6.198   4.917  0.3363 -0.9589 -0.1288
   21MOL0     H 2763   3.343   6.069   5.019 -2.4843  0.3973 -1.0377
   21MOL0     H 2764   3.492   6.318   4.935  0.6791 -0.3189  2.0384
   21MOL0     H 2765   3.558   6.206   5.055 -1.5797 -3.2728  1.6156
   21MOL0     H 2766   3.475   6.093   4.790  0.7097 -0.3229 -0.7449
   21MOL0     H 2767   3.567   6.021   4.909 -1.4295  0.3638  1.2440
   21MOL0     H 2768   3.632   6.243   4.698  1.6009 -0.4711 -0.2043
   21MOL0     H 2769   3.754   6.211   4.832  0.5827 -2.8954  0.6497
   21MOL0     H 2770   3.856   5.902   4.606  2.1005 -0.6942  1.3863
   21MOL0     H 2771   3.074   6.171   4.965  1.1826  2.8960 -0.2396
   21MOL0     H 2772   2.882   6.092   5.076 -0.8218  1.1813  0.3260
   22MOL0     O 2773   0.207   1.651   4.274  0.0526 -0.9048 -0.2321
   22MOL0     C 2774   0.234   1.762   4.228  0.1253  0.5117 -0.4879
   22MOL0     O 2775   0.147   1.864   4.211  0.2472 -0.8442 -0.8201
   22MOL0     C 2776   0.010   1.841   4.223  0.4684 -0.2179 -0.0676
   22MOL0     C 2777  -0.057   1.760   4.318  0.0990 -0.1496 -0.6776
   22MOL0     C 2778  -0.196   1.743   4.313 -0.2324  0.6515  0.4487
   22MOL0     C 2779  -0.274   1.816   4.220  0.4501  0.2714 -0.1062
   22MOL0     O 2780  -0.414   1.815   4.234 -0.5270 -0.0436 -0.1856
   22MOL0     C 2781  -0.499   1.833   4.121  0.0292  0.4013 -0.5357
   22MOL0     C 2782  -0.619   1.747   4.150 -0.3937  0.3727 -0.1747
   22MOL0     C 2783  -0.705   1.747   4.028  0.3715  0.7993 -1.6523
   22MOL0     C 2784  -0.798   1.621   4.042  1.0622  0.2299  0.0193
   22MOL0     C 2785  -0.884   1.600   3.916 -0.0346  0.4176  0.3249
   22MOL0     C 2786  -1.000   1.705   3.904 -0.1546 -0.0794  0.4346
   22MOL0     C 2787  -1.087   1.677   3.782  0.6665  0.2008 -0.0031
   22MOL0     C 2788  -1.161   1.547   3.811  0.4738  0.1727 -0.2888
   22MOL0     N 2789  -1.286   1.554   3.733  0.0947 -0.6296 -0.9895
   22MOL0     C 2790  -1.302   1.560   3.591  0.2603  0.3777 -0.3003
   22MOL0     C 2791  -1.436   1.604   3.576 -0.8796 -0.3811 -0.6197
   22MOL0     C 2792  -1.520   1.629   3.455 -0.0516  0.3392 -0.0280
   22MOL0     C 2793  -1.430   1.717   3.364 -0.0315 -0.6277 -0.2224
   22MOL0     C 2794  -1.498   1.753   3.228 -0.1198  0.0206 -1.1735
   22MOL0     C 2795  -1.630   1.837   3.252 -0.2276 -0.4773 -0.1149
   22MOL0     O 2796  -1.679   1.883   3.118  0.1291  0.0475  0.3542
   22MOL0     C 2797  -1.806   1.937   3.121 -0.6040 -0.1916  0.4155
   22MOL0     C 2798  -1.850   2.021   3.012  0.0337  0.3176 -0.4487
   22MOL0     C 2799  -1.966   2.101   3.008  0.1028  0.0802  0.5135
   22MOL0     C 2800  -2.045   2.110   3.122  0.3193  0.2911 -0.0145
   22MOL0     C 2801  -2.166   2.201   3.125 -0.2040 -0.0869  1.0476
   22MOL0     O 2802  -2.184   2.292   3.019 -0.2492  1.0207  0.5236
   22MOL0     C 2803  -2.291   2.376   3.030  0.3558  0.0284  0.1145
   22MOL0     C 2804  -2.276   2.504   3.087 -0.5648 -0.0464  0.4508
   22MOL0     C 2805  -2.378   2.595   3.099  0.6496 -0.6331  0.5204
   22MOL0     C 2806  -2.505   2.562   3.049 -0.8125 -0.5462 -0.4202
   22MOL0     O 2807  -2.620   2.642   3.054 -0.1968 -0.1385  0.6024
   22MOL0     C 2808  -2.592   2.774   3.013  0.4517 -1.1593  0.6688
   22MOL0     C 2809  -2.718   2.863   2.994 -0.3760  1.2543 -0.4565
   22MOL0     C 2810  -2.808   2.820   2.870  0.3720  0.1554 -0.9867
   22MOL0     C 2811  -2.736   2.835   2.739 -0.2050  0.4953  0.3899
   22MOL0     C 2812  -2.807   2.758   2.621  0.3668 -0.2992 -0.6120
   22MOL0     C 2813  -2.767   2.820   2.480  0.2418  0.0471  0.8296
   22MOL0     C 2814  -2.833   2.738   2.366 -0.1833  0.6136 -0.1604
   22MOL0     C 2815  -2.830   2.807   2.235  0.5259 -0.6940  0.6828
   22MOL0    Cl 2816  -2.668   2.838   2.188 -0.0352 -0.5120 -0.0800
   22MOL0     C 2817  -2.516   2.434   2.986  0.4076 -0.1564  0.0354
   22MOL0     C 2818  -2.418   2.341   2.981 -0.4530  0.8741  0.2895
   22MOL0     O 2819  -2.231   2.201   3.224  0.3112  0.0408 -0.1152
   22MOL0     C 2820  -2.010   2.026   3.234 -0.3027 -0.4627 -0.3150
   22MOL0     C 2821  -1.889   1.942   3.229 -0.3059 -0.6814 -0.3903
   22MOL0     N 2822  -1.482   1.618   3.701 -0.1373  0.2153  0.3563
   22MOL0     N 2823  -1.396   1.590   3.786 -0.4441  0.1329 -0.1257
   22MOL0     C 2824  -0.211   1.907   4.137  0.2745 -0.0250  0.0861
   22MOL0     C 2825  -0.072   1.918   4.138  0.0031  0.0094 -0.2530
   22MOL0     C 2826   0.373   1.776   4.180  0.3312  0.7133 -0.1953
   22MOL0     C 2827   0.476   1.690   4.207  0.3065 -0.2773 -0.2942
   22MOL0     C 2828   0.603   1.696   4.155  0.2916 -0.3197  1.4877
   22MOL0     C 2829   0.626   1.781   4.046 -0.2386 -0.1485  0.1895
   22MOL0     O 2830   0.755   1.790   3.996  0.3783  0.1455 -0.3320
   22MOL0     C 2831   0.829   1.900   4.038 -0.6402 -0.6783 -0.4056
   22MOL0     C 2832   0.899   1.883   4.169 -0.5073 -0.1166  0.2694
   22MOL0     C 2833   0.986   1.762   4.188 -0.2834 -0.2636 -0.0972
   22MOL0     C 2834   1.026   1.729   4.331  0.7518 -1.0118  0.2310
   22MOL0     C 2835   0.908   1.654   4.388 -0.2727 -1.4749 -0.6160
   22MOL0     C 2836   0.806   1.598   4.421 -0.1028 -0.7616 -0.0295
   22MOL0     C 2837   0.525   1.870   4.008  0.0934  0.3034 -0.6561
   22MOL0     C 2838   0.401   1.861   4.069  0.3987 -0.0745 -0.5261
   22MOL0     H 2839   0.010   1.709   4.386  0.7609  2.4071  0.6995
   22MOL0     H 2840  -0.236   1.668   4.381  1.2509 -1.1019 -0.5240
   22MOL0     H 2841  -0.449   1.801   4.029  1.2591  0.7807 -0.0212
   22MOL0     H 2842  -0.521   1.940   4.109 -2.4858 -0.0785 -0.7690
   22MOL0     H 2843  -0.665   1.796   4.236  1.6023  0.1367  1.0912
   22MOL0     H 2844  -0.595   1.645   4.182  2.9742  1.4121  1.1305
   22MOL0     H 2845  -0.644   1.758   3.938 -0.3578  0.2616 -2.2298
   22MOL0     H 2846  -0.762   1.841   4.027 -0.8824  0.0623 -1.8730
   22MOL0     H 2847  -0.732   1.536   4.063  0.1029 -0.4478  0.3466
   22MOL0     H 2848  -0.859   1.643   4.130  0.4452 -1.2392 -0.0141
   22MOL0     H 2849  -0.910   1.495   3.930  1.7994 -0.1462 -0.2790
   22MOL0     H 2850  -0.817   1.602   3.830  2.8083 -2.1047  2.2834
   22MOL0     H 2851  -0.954   1.803   3.894  1.6676 -1.0578 -1.7775
   22MOL0     H 2852  -1.064   1.702   3.992  0.5171 -1.8012  0.9180
   22MOL0     H 2853  -1.163   1.756   3.781  0.5557  0.1230 -1.6011
   22MOL0     H 2854  -1.032   1.679   3.687  1.2390 -1.3943  0.2598
   22MOL0     H 2855  -1.181   1.537   3.918  1.8794  1.3848  0.1124
   22MOL0     H 2856  -1.107   1.455   3.788  1.2043  0.5687 -0.1931
   22MOL0     H 2857  -1.233   1.535   3.511  1.3506  1.9334  0.0914
   22MOL0     H 2858  -1.617   1.673   3.480  0.1994  0.9812 -0.1720
   22MOL0     H 2859  -1.534   1.533   3.405  1.7729  1.6739 -3.4127
   22MOL0     H 2860  -1.340   1.660   3.340  1.2984  1.7433 -1.1358
   22MOL0     H 2861  -1.402   1.813   3.408 -0.7941 -0.5442  0.0982
   22MOL0     H 2862  -1.427   1.822   3.181  1.3061  2.0946  3.4507
   22MOL0     H 2863  -1.515   1.655   3.181 -0.4275 -1.4270  1.7674
   22MOL0     H 2864  -1.619   1.922   3.320  0.5822  0.3727 -1.2751
   22MOL0     H 2865  -1.707   1.773   3.296 -1.1569  1.0806  0.6104
   22MOL0     H 2866  -1.788   2.013   2.923  0.7740  1.5563 -0.0664
   22MOL0     H 2867  -2.006   2.158   2.925  1.3839  2.6172  1.5103
   22MOL0     H 2868  -2.177   2.531   3.122 -0.6249  1.7529 -0.6580
   22MOL0     H 2869  -2.358   2.678   3.166  1.5236 -0.6898  0.3481
   22MOL0     H 2870  -2.529   2.766   2.923  0.1582  1.0546  0.2126
   22MOL0     H 2871  -2.528   2.829   3.083  0.4425 -0.2601 -0.0216
   22MOL0     H 2872  -2.684   2.964   2.970  0.8138  0.4775 -2.2603
   22MOL0     H 2873  -2.774   2.863   3.088  1.4580 -0.4875  0.7209
   22MOL0     H 2874  -2.900   2.880   2.868  0.5048  0.4111 -0.0291
   22MOL0     H 2875  -2.836   2.716   2.887 -2.1242  0.6815 -1.5283
   22MOL0     H 2876  -2.726   2.941   2.716  2.6867  0.6525  1.9231
   22MOL0     H 2877  -2.637   2.789   2.745 -0.9830 -1.4195 -0.4719
   22MOL0     H 2878  -2.914   2.771   2.639  0.8784  0.5608  2.4427
   22MOL0     H 2879  -2.791   2.650   2.628 -0.6069 -0.4324 -0.2368
   22MOL0     H 2880  -2.660   2.812   2.463 -0.1840 -0.3078 -2.2479
   22MOL0     H 2881  -2.804   2.923   2.481  0.9648  0.3298 -0.2563
   22MOL0     H 2882  -2.780   2.644   2.355  0.9360  1.2195 -0.0443
   22MOL0     H 2883  -2.935   2.711   2.395 -0.6028 -0.9371 -2.7733
   22MOL0     H 2884  -2.895   2.895   2.241 -2.0858 -2.2263 -1.9517
   22MOL0     H 2885  -2.877   2.746   2.158  0.0245  2.3435 -1.6156
   22MOL0     H 2886  -2.613   2.416   2.942  0.2438 -2.2036  1.1162
   22MOL0     H 2887  -2.435   2.239   2.948  0.8912  0.7881 -0.1760
   22MOL0     H 2888  -2.073   2.038   3.321 -0.0041  2.7415 -0.4141
   22MOL0     H 2889  -1.880   1.890   3.324 -3.3016 -0.5929  0.0500
   22MOL0     H 2890  -0.267   1.966   4.066  2.1230  0.1979 -1.2671
   22MOL0     H 2891  -0.033   1.993   4.070  2.5966  0.6057  1.7390
   22MOL0     H 2892   0.456   1.612   4.281  2.3660  1.1186  1.8734
   22MOL0     H 2893   0.684   1.633   4.192  1.7568 -0.7366 -2.0024
   22MOL0     H 2894   0.768   1.991   4.042  0.7068  0.2314  1.0973
   22MOL0     H 2895   0.906   1.926   3.965  1.2128 -2.5005  0.7805
   22MOL0     H 2896   0.951   1.977   4.190 -0.9675  0.3314 -0.5418
   22MOL0     H 2897   0.823   1.881   4.247  0.2126 -1.1516  0.9669
   22MOL0     H 2898   1.080   1.788   4.138 -1.1061 -3.3092 -3.7297
   22MOL0     H 2899   0.957   1.673   4.132  0.6882 -0.6961  0.0769
   22MOL0     H 2900   1.124   1.681   4.339  1.6261  0.3753 -1.5743
   22MOL0     H 2901   1.030   1.828   4.378  0.6431 -0.2437 -1.3349
   22MOL0     H 2902   0.709   1.557   4.441 -0.1746 -0.3152  0.5913
   22MOL0     H 2903   0.541   1.942   3.928  2.2058 -0.4412 -0.9898
   22MOL0     H 2904   0.330   1.932   4.028  0.4766  1.7119  2.1869
   23MOL0     O 2905   8.620   5.964   5.946  0.4163  0.1062 -0.6004
   23MOL0     C 2906   8.557   5.952   6.058 -0.4935  0.2824  0.2896
   23MOL0     O 2907   8.427   5.925   6.060 -0.8093 -0.0596  0.3655
   23MOL0     C 2908   8.337   5.960   5.953 -0.2623 -0.0628  0.2311
   23MOL0     C 2909   8.371   5.948   5.821  0.1259 -0.5093  0.4846
   23MOL0     C 2910   8.277   5.981   5.723  0.9491  0.1490  1.0495
   23MOL0     C 2911   8.151   6.027   5.756 -0.2881 -0.7212  0.1585
   23MOL0     O 2912   8.064   6.082   5.660 -0.2269 -0.2392 -0.1333
   23MOL0     C 2913   8.070   6.025   5.526 -0.2177  0.3435  0.7419
   23MOL0     C 2914   7.951   6.084   5.441 -0.3137  0.1685  0.0218
   23MOL0     C 2915   7.815   6.052   5.503 -0.0392 -0.1324 -1.1606
   23MOL0     C 2916   7.704   6.128   5.432 -1.0238  0.2288  0.9342
   23MOL0     C 2917   7.562   6.112   5.494 -0.0852 -0.5402  0.1475
   23MOL0     C 2918   7.505   5.982   5.457  0.2618  0.7341 -0.6026
   23MOL0     C 2919   7.350   5.979   5.465  0.0374 -0.1842 -0.2792
   23MOL0     C 2920   7.279   6.094   5.544  0.1081  0.1697 -0.1169
   23MOL0     N 2921   7.143   6.043   5.573 -0.4350 -0.0829  0.2941
   23MOL0     C 2922   7.027   6.096   5.539  0.3916 -0.4427 -0.6170
   23MOL0     C 2923   6.941   6.043   5.628 -0.0035 -0.1325 -0.3755
   23MOL0     C 2924   6.798   6.076   5.624  1.0517  0.4413 -0.6769
   23MOL0     C 2925   6.753   6.180   5.740 -0.5903  0.3695  0.8237
   23MOL0     C 2926   6.776   6.129   5.882  0.1554 -0.3749  0.8112
   23MOL0     C 2927   6.706   5.994   5.917  0.9480  0.2127 -0.0358
   23MOL0     O 2928   6.564   6.001   5.881 -0.6454  0.1380  1.1667
   23MOL0     C 2929   6.464   5.957   5.958  0.5980  0.1575 -0.3112
   23MOL0     C 2930   6.476   5.856   6.057  0.2639 -1.1091  0.3004
   23MOL0     C 2931   6.355   5.795   6.105  0.4105  0.1313  0.2859
   23MOL0     C 2932   6.221   5.833   6.064  0.1033  0.8272  0.4069
   23MOL0     C 2933   6.099   5.774   6.116 -0.2240  0.8513 -0.3999
   23MOL0     O 2934   6.120   5.664   6.192 -0.4360 -0.0625 -0.4653
   23MOL0     C 2935   6.015   5.578   6.211 -0.5604 -0.3742 -0.6150
   23MOL0     C 2936   5.906   5.615   6.284  0.9173 -0.2546  0.2280
   23MOL0     C 2937   5.799   5.524   6.301  0.2090 -0.7105  0.1504
   23MOL0     C 2938   5.801   5.398   6.235  0.4302 -0.4167  0.6674
   23MOL0     O 2939   5.689   5.317   6.249 -0.2249  0.5316 -1.0482
   23MOL0     C 2940   5.722   5.184   6.276  0.1577 -0.6611  0.3771
   23MOL0     C 2941   5.597   5.124   6.339  0.1117 -0.4768  0.2534
   23MOL0     C 2942   5.520   5.187   6.463 -0.0914 -0.0991  0.5088
   23MOL0     C 2943   5.404   5.095   6.518  0.5033  0.4261 -0.9699
   23MOL0     C 2944   5.281   5.075   6.429 -0.2707 -0.3621 -0.7342
   23MOL0     C 2945   5.165   5.018   6.513 -0.3108  0.1939  0.4066
   23MOL0     C 2946   5.045   4.991   6.429  0.2191  0.0301  0.2816
   23MOL0     C 2947   4.924   4.992   6.519 -0.5072  0.2383  0.1893
   23MOL0    Cl 2948   4.921   4.846   6.622  0.2216  0.3288  0.9109
   23MOL0     C 2949   5.916   5.363   6.157  0.4096 -0.2359 -0.3527
   23MOL0     C 2950   6.027   5.453   6.151 -0.8405  0.0667  0.0502
   23MOL0     O 2951   5.986   5.817   6.072  0.7069  0.3581 -0.0032
   23MOL0     C 2952   6.217   5.932   5.967 -0.4719  0.4512  0.6748
   23MOL0     C 2953   6.330   5.994   5.913 -1.1128  0.5938  0.4211
   23MOL0     N 2954   7.001   5.950   5.709  0.8772  0.0284  0.4259
   23MOL0     N 2955   7.121   5.949   5.677  0.6641  0.2522  0.4199
   23MOL0     C 2956   8.113   6.032   5.886  0.1031 -0.3700 -0.0715
   23MOL0     C 2957   8.201   5.997   5.989  0.5218 -0.9877 -0.2741
   23MOL0     C 2958   8.631   5.941   6.185  0.0244 -0.0460  0.2624
   23MOL0     C 2959   8.757   5.996   6.186 -0.0557  0.0946  0.7897
   23MOL0     C 2960   8.823   6.017   6.310  0.0896  0.0366  0.7379
   23MOL0     C 2961   8.781   5.970   6.432 -0.0155  0.1737  0.3767
   23MOL0     O 2962   8.856   5.983   6.545 -0.1311  0.2118  0.2750
   23MOL0     C 2963   8.987   6.030   6.529 -0.0457 -0.2782 -0.2987
   23MOL0     C 2964   9.048   6.041   6.667 -0.5363  0.5967  0.7029
   23MOL0     C 2965   9.191   6.092   6.670  0.7722 -0.0254 -0.6437
   23MOL0     C 2966   9.288   6.001   6.599 -0.7889 -0.2652  0.1397
   23MOL0     C 2967   9.419   6.031   6.649  0.5443 -0.0044  0.1777
   23MOL0     C 2968   9.522   6.068   6.703  0.1645 -0.0930 -0.2715
   23MOL0     C 2969   8.650   5.910   6.433  0.2027  0.1514  0.6487
   23MOL0     C 2970   8.574   5.894   6.308  0.4409  0.6041 -0.1062
   23MOL0     H 2971   8.470   5.926   5.784 -0.0388 -0.0354 -0.2616
   23MOL0     H 2972   8.309   5.987   5.619 -0.0988  0.8234  0.7485
   23MOL0     H 2973   8.047   5.918   5.526  0.5619  0.1730  0.8396
   23MOL0     H 2974   8.163   6.033   5.470 -1.5451  1.7579 -1.3897
   23MOL0     H 2975   7.964   6.045   5.340  0.9525  2.8602 -0.9643
   23MOL0     H 2976   7.972   6.191   5.448  1.7721 -0.3086  2.6155
   23MOL0     H 2977   7.813   6.096   5.603 -1.4864 -2.8134  0.0968
   23MOL0     H 2978   7.796   5.944   5.507  1.2879 -0.3566  0.4827
   23MOL0     H 2979   7.725   6.235   5.423  1.6234 -0.3876 -2.9435
   23MOL0     H 2980   7.709   6.098   5.326  2.2517  1.5035  0.6088
   23MOL0     H 2981   7.494   6.186   5.452  0.8880  0.6756  0.6569
   23MOL0     H 2982   7.561   6.121   5.603  1.9590  1.0170  0.0941
   23MOL0     H 2983   7.550   5.914   5.530 -0.6286  0.7905  0.0142
   23MOL0     H 2984   7.545   5.951   5.359  1.1770  3.4677 -1.1650
   23MOL0     H 2985   7.327   5.984   5.358  0.8018  1.4303 -0.4099
   23MOL0     H 2986   7.326   5.880   5.505 -1.2677 -0.8676 -2.5665
   23MOL0     H 2987   7.276   6.183   5.481 -2.3207  0.8826  0.8903
   23MOL0     H 2988   7.323   6.108   5.643 -1.7007  1.4717  0.5456
   23MOL0     H 2989   6.991   6.178   5.477 -0.9057  1.8371  2.8614
   23MOL0     H 2990   6.732   5.989   5.626  0.0271  1.1140  2.8521
   23MOL0     H 2991   6.785   6.123   5.526  1.9778 -1.2904 -1.6693
   23MOL0     H 2992   6.648   6.206   5.728 -1.1513 -1.0298  2.3150
   23MOL0     H 2993   6.810   6.272   5.722 -2.2831  1.2332 -0.3807
   23MOL0     H 2994   6.883   6.115   5.900  0.2867 -2.0433 -0.9362
   23MOL0     H 2995   6.741   6.210   5.947 -0.9106 -0.0293 -0.1604
   23MOL0     H 2996   6.717   5.980   6.025  4.2010  1.8031 -0.0480
   23MOL0     H 2997   6.760   5.910   5.872  3.6214  1.1686  1.1869
   23MOL0     H 2998   6.572   5.814   6.084  1.4270 -0.4128 -2.4192
   23MOL0     H 2999   6.362   5.709   6.171 -1.0198  0.2565  0.6457
   23MOL0     H 3000   5.902   5.711   6.333 -0.2866 -0.4347  0.5320
   23MOL0     H 3001   5.707   5.551   6.351  0.6118  0.5099  0.2742
   23MOL0     H 3002   5.809   5.167   6.341 -0.2037 -1.4603  0.6725
   23MOL0     H 3003   5.743   5.130   6.183 -0.5420 -0.2247 -0.0431
   23MOL0     H 3004   5.624   5.021   6.366  1.3907  0.0160  0.9045
   23MOL0     H 3005   5.527   5.128   6.255 -0.4913  1.8012  0.7982
   23MOL0     H 3006   5.474   5.281   6.430  1.3766  0.6859  0.6240
   23MOL0     H 3007   5.599   5.207   6.536 -0.1170  0.4451  0.3964
   23MOL0     H 3008   5.444   4.998   6.548  1.0243  1.6883  3.1523
   23MOL0     H 3009   5.380   5.144   6.613 -1.9673  1.1871 -1.8994
   23MOL0     H 3010   5.310   5.015   6.342  0.3411 -1.9747  0.5170
   23MOL0     H 3011   5.238   5.169   6.394 -1.9089 -0.3404  1.1463
   23MOL0     H 3012   5.143   5.089   6.593 -1.3553  0.2592  0.0833
   23MOL0     H 3013   5.187   4.920   6.556  2.8424  2.2551  4.1227
   23MOL0     H 3014   5.022   5.066   6.353 -2.7437 -0.8276  0.2367
   23MOL0     H 3015   5.062   4.893   6.383 -1.0926 -0.2500  0.3544
   23MOL0     H 3016   4.840   4.994   6.449 -0.8043  2.2163  0.5316
   23MOL0     H 3017   4.919   5.072   6.593  0.1375  0.5027 -0.0397
   23MOL0     H 3018   5.906   5.265   6.113  0.7016 -0.7926  0.7657
   23MOL0     H 3019   6.117   5.440   6.092 -0.9628 -1.3778  0.1519
   23MOL0     H 3020   6.118   5.963   5.936 -0.1812 -1.3771 -2.4687
   23MOL0     H 3021   6.315   6.067   5.834  0.7838  2.7087  1.8751
   23MOL0     H 3022   8.010   6.062   5.902  0.3101  0.5722 -0.4213
   23MOL0     H 3023   8.171   6.007   6.093 -1.4234  1.7936 -1.0056
   23MOL0     H 3024   8.797   6.035   6.092 -1.1143  2.4965  1.2689
   23MOL0     H 3025   8.913   6.077   6.300 -1.0088  1.2668 -3.2089
   23MOL0     H 3026   8.986   6.133   6.492  0.0623  1.2058  3.4544
   23MOL0     H 3027   9.055   5.970   6.467 -0.1954 -2.7408  1.7632
   23MOL0     H 3028   8.984   6.093   6.739 -3.4783 -1.5977 -0.1479
   23MOL0     H 3029   9.035   5.940   6.707 -2.3590  0.5427  0.0708
   23MOL0     H 3030   9.218   6.099   6.775  0.0099 -1.9040 -0.2916
   23MOL0     H 3031   9.191   6.189   6.618  3.6899 -0.1778 -1.0680
   23MOL0     H 3032   9.263   5.896   6.617  0.4925 -0.9204 -1.6115
   23MOL0     H 3033   9.302   6.007   6.490  0.8549 -0.8665  0.2910
   23MOL0     H 3034   9.604   6.095   6.766 -0.2361 -1.3533  0.8537
   23MOL0     H 3035   8.589   5.874   6.515  0.3440  1.1518  1.2074
   23MOL0     H 3036   8.471   5.865   6.323 -0.2201  1.9276 -1.7609
   24MOL0     O 3037   3.293   9.562   0.725  0.2446 -0.4080 -0.3013
   24MOL0     C 3038   3.346   9.532   0.829 -0.0651  0.6375  0.6427
   24MOL0     O 3039   3.294   9.512   0.952  0.0357  0.4812  0.3596
   24MOL0     C 3040   3.159   9.529   0.968 -0.3399 -0.3500  0.0854
   24MOL0     C 3041   3.077   9.447   0.903  0.2442 -0.6953  0.7480
   24MOL0     C 3042   2.938   9.437   0.917 -0.6618  0.1751 -0.1738
   24MOL0     C 3043   2.877   9.523   1.009 -0.1530 -0.2296  0.4295
   24MOL0     O 3044   2.738   9.519   1.027  0.6099 -0.4787  0.3967
   24MOL0     C 3045   2.639   9.483   0.921  0.6264  0.6490 -1.5002
   24MOL0     C 3046   2.502   9.537   0.962 -0.3840  0.3114  0.4322
   24MOL0     C 3047   2.444   9.468   1.084  0.1118 -0.7120  0.8599
   24MOL0     C 3048   2.306   9.523   1.106  0.2179  0.0113  0.4798
   24MOL0     C 3049   2.246   9.435   1.231  0.7239 -0.8660  0.6084
   24MOL0     C 3050   2.094   9.464   1.243 -0.4559 -0.0300 -0.7919
   24MOL0     C 3051   2.034   9.370   1.344 -0.0821 -0.1534 -0.5215
   24MOL0     C 3052   2.095   9.368   1.482 -1.1037 -0.2751 -0.0743
   24MOL0     N 3053   2.011   9.336   1.594  0.7245  0.6744  0.8065
   24MOL0     C 3054   1.923   9.223   1.606 -1.2038 -0.5076 -0.0085
   24MOL0     C 3055   1.891   9.216   1.736  1.1875 -0.0545 -0.1397
   24MOL0     C 3056   1.813   9.099   1.805  0.3302  0.0043 -0.0087
   24MOL0     C 3057   1.900   9.003   1.894 -0.3962 -0.3384  0.3319
   24MOL0     C 3058   1.833   8.870   1.908  0.4031 -0.1611 -0.4218
   24MOL0     C 3059   1.902   8.779   2.012 -0.3154  0.5252 -0.3197
   24MOL0     O 3060   1.827   8.657   2.008  0.5422  0.2865  0.4001
   24MOL0     C 3061   1.821   8.565   2.112  0.6585  0.6118  0.1363
   24MOL0     C 3062   1.705   8.485   2.106 -0.6761  0.1137 -0.0392
   24MOL0     C 3063   1.675   8.390   2.212  0.1980  0.2081 -0.1798
   24MOL0     C 3064   1.758   8.378   2.325 -0.1616 -0.2147 -0.4932
   24MOL0     C 3065   1.733   8.288   2.437 -0.2394 -1.0443  0.3806
   24MOL0     O 3066   1.820   8.296   2.541  0.1625 -0.0605 -0.3152
   24MOL0     C 3067   1.804   8.235   2.662  0.1524 -0.3023  0.8413
   24MOL0     C 3068   1.894   8.271   2.758  0.1990 -0.0323  0.6847
   24MOL0     C 3069   1.878   8.223   2.891  0.2978  0.0519  0.1857
   24MOL0     C 3070   1.764   8.149   2.923 -0.1610  0.1182  0.3290
   24MOL0     O 3071   1.740   8.098   3.048 -0.1809 -0.0074  0.2865
   24MOL0     C 3072   1.607   8.084   3.105 -0.4041 -0.2627 -0.1406
   24MOL0     C 3073   1.610   8.054   3.256 -0.4608 -0.3683  0.0548
   24MOL0     C 3074   1.642   8.176   3.337 -0.5603 -0.2819 -0.4640
   24MOL0     C 3075   1.786   8.189   3.381 -0.3277  0.5461 -1.2858
   24MOL0     C 3076   1.798   8.259   3.520 -0.3050 -0.3815  0.4373
   24MOL0     C 3077   1.951   8.241   3.568  0.1916 -0.5933  0.2297
   24MOL0     C 3078   1.981   8.102   3.630 -0.1966  0.7459  0.1166
   24MOL0     C 3079   2.120   8.072   3.654 -0.4235 -0.5356  0.8063
   24MOL0    Cl 3080   2.206   8.033   3.502 -0.4652  0.0520 -0.3123
   24MOL0     C 3081   1.674   8.099   2.822 -0.5437 -0.5526 -0.2250
   24MOL0     C 3082   1.708   8.135   2.696  0.5720 -0.4361 -0.0267
   24MOL0     O 3083   1.622   8.228   2.443 -0.5319 -0.3532 -0.0704
   24MOL0     C 3084   1.865   8.461   2.328  0.2707  0.4877 -0.2249
   24MOL0     C 3085   1.890   8.558   2.227 -0.4183  0.1850 -0.2485
   24MOL0     N 3086   1.951   9.324   1.802 -0.4067 -0.2443  0.3002
   24MOL0     N 3087   2.024   9.389   1.714 -0.1222 -0.2109  0.0084
   24MOL0     C 3088   2.961   9.607   1.084  0.2132  0.2732 -1.2822
   24MOL0     C 3089   3.103   9.600   1.078  0.4939 -0.0251  0.5489
   24MOL0     C 3090   3.496   9.518   0.822  0.1490  0.7233 -0.3074
   24MOL0     C 3091   3.565   9.451   0.923  0.9177 -0.2772  0.3414
   24MOL0     C 3092   3.704   9.446   0.920  0.0488 -0.3577  0.0264
   24MOL0     C 3093   3.766   9.493   0.805 -0.6329 -0.5237 -0.1706
   24MOL0     O 3094   3.904   9.480   0.812  0.5177 -0.3612 -0.4346
   24MOL0     C 3095   3.987   9.530   0.715  0.1432 -0.1942 -0.6703
   24MOL0     C 3096   4.023   9.676   0.732 -0.2263 -0.3964 -0.7492
   24MOL0     C 3097   4.109   9.720   0.614 -0.0523 -0.8804  0.2005
   24MOL0     C 3098   4.213   9.836   0.644  0.2185  0.6083 -0.8345
   24MOL0     C 3099   4.165   9.971   0.665  0.1639 -1.0347  0.8668
   24MOL0     C 3100   4.130  10.087   0.681 -0.3193 -0.3263  0.0043
   24MOL0     C 3101   3.697   9.560   0.704 -0.4358 -0.5527 -0.1321
   24MOL0     C 3102   3.562   9.573   0.711  0.4766 -0.0791 -0.6684
   24MOL0     H 3103   3.113   9.377   0.827  2.3090  1.1575 -0.1108
   24MOL0     H 3104   2.871   9.369   0.865 -3.6716  3.5296 -1.1109
   24MOL0     H 3105   2.632   9.374   0.908  1.9651  0.5241 -1.3166
   24MOL0     H 3106   2.655   9.529   0.824  1.3926  1.1031 -1.1674
   24MOL0     H 3107   2.439   9.537   0.873  1.9347  3.2548 -1.4092
   24MOL0     H 3108   2.512   9.639   1.000  0.7444 -0.3449  2.0592
   24MOL0     H 3109   2.506   9.494   1.170  2.2464  0.3287 -0.9088
   24MOL0     H 3110   2.440   9.359   1.073  0.7742 -0.9876  2.9042
   24MOL0     H 3111   2.307   9.629   1.134  0.9036 -0.3552  1.9233
   24MOL0     H 3112   2.248   9.501   1.017  0.0929  1.6786  0.1031
   24MOL0     H 3113   2.306   9.458   1.319 -1.5304 -0.6083  2.1611
   24MOL0     H 3114   2.255   9.328   1.212 -3.3503 -0.9154 -2.2985
   24MOL0     H 3115   2.037   9.459   1.149 -1.1560  1.4466 -0.4739
   24MOL0     H 3116   2.074   9.564   1.282 -0.5051 -0.7381  1.0825
   24MOL0     H 3117   1.930   9.401   1.355 -0.7452 -2.3259 -0.1457
   24MOL0     H 3118   2.030   9.264   1.317  2.0632 -0.4730  0.1989
   24MOL0     H 3119   2.148   9.461   1.504 -1.3638  0.1094 -1.0182
   24MOL0     H 3120   2.166   9.285   1.474 -2.0781 -1.0913 -0.5615
   24MOL0     H 3121   1.882   9.157   1.530 -1.4686 -1.1355  0.6749
   24MOL0     H 3122   1.774   9.049   1.716  1.9753 -1.8383  0.2320
   24MOL0     H 3123   1.729   9.131   1.867 -0.2891 -1.5500  0.0043
   24MOL0     H 3124   1.920   9.054   1.988  0.5146  0.3148 -0.1957
   24MOL0     H 3125   1.996   8.987   1.844 -1.7889  1.1411 -3.2249
   24MOL0     H 3126   1.727   8.871   1.937  1.0676  0.5082  2.2074
   24MOL0     H 3127   1.827   8.815   1.813 -3.8791 -1.4305  0.3385
   24MOL0     H 3128   1.905   8.825   2.111 -0.2362 -1.6182  0.7479
   24MOL0     H 3129   2.005   8.755   1.983 -0.8047 -0.1647 -1.5857
   24MOL0     H 3130   1.640   8.490   2.019 -0.7901  1.7553  0.1035
   24MOL0     H 3131   1.585   8.331   2.201  0.5552 -0.0180 -2.5137
   24MOL0     H 3132   1.977   8.333   2.724  2.9954 -2.0416  3.2717
   24MOL0     H 3133   1.935   8.242   2.981 -0.8897 -1.3784  1.2799
   24MOL0     H 3134   1.564   7.990   3.069 -0.0098 -0.8038  0.7757
   24MOL0     H 3135   1.531   8.161   3.086 -1.3723 -1.3082 -0.5675
   24MOL0     H 3136   1.685   7.974   3.264 -0.2518 -0.0221  2.0325
   24MOL0     H 3137   1.514   8.011   3.287 -0.7732  0.6857  0.5527
   24MOL0     H 3138   1.587   8.176   3.432  1.6253  0.9740  0.8821
   24MOL0     H 3139   1.617   8.268   3.282 -2.0364 -1.3206 -1.6325
   24MOL0     H 3140   1.832   8.091   3.391 -1.2603  0.1697 -0.5240
   24MOL0     H 3141   1.827   8.257   3.306 -0.5894  3.8953  1.3188
   24MOL0     H 3142   1.726   8.225   3.595  1.1843  0.7388  2.5019
   24MOL0     H 3143   1.776   8.365   3.500 -0.7564 -0.5194  0.2083
   24MOL0     H 3144   1.964   8.324   3.638  1.5266 -1.2784  0.8196
   24MOL0     H 3145   2.020   8.257   3.485 -0.6031 -0.4023 -0.4089
   24MOL0     H 3146   1.932   8.105   3.727  1.2484 -0.0120  0.9112
   24MOL0     H 3147   1.937   8.025   3.566  1.6455 -0.6911  0.4845
   24MOL0     H 3148   2.134   7.981   3.713 -0.6965 -0.5671  0.8207
   24MOL0     H 3149   2.173   8.154   3.703 -1.5573  1.2498 -0.8147
   24MOL0     H 3150   1.585   8.040   2.838  0.0439 -1.8116 -1.3797
   24MOL0     H 3151   1.636   8.094   2.626  0.8728 -1.7573  0.3957
   24MOL0     H 3152   1.943   8.458   2.404  0.0699 -0.1269 -0.0468
   24MOL0     H 3153   1.981   8.617   2.236  2.3679 -3.8938  1.7596
   24MOL0     H 3154   2.916   9.658   1.169  0.2596 -0.6105 -0.7173
   24MOL0     H 3155   3.159   9.660   1.149 -2.4236  1.6253  1.6540
   24MOL0     H 3156   3.519   9.412   1.013  1.1324  1.5125  1.2658
   24MOL0     H 3157   3.755   9.404   1.006  0.4843 -1.7375 -0.8641
   24MOL0     H 3158   3.942   9.514   0.616  3.6277  0.0044 -2.4373
   24MOL0     H 3159   4.076   9.467   0.709 -1.3853 -2.4092 -1.7849
   24MOL0     H 3160   3.931   9.735   0.721 -0.8150 -0.8262  1.4448
   24MOL0     H 3161   4.075   9.703   0.824  1.3937  0.8891 -1.9627
   24MOL0     H 3162   4.042   9.749   0.533  1.8969 -1.3776 -1.6836
   24MOL0     H 3163   4.172   9.640   0.574 -0.4685  0.0895 -2.5985
   24MOL0     H 3164   4.257   9.809   0.741 -0.2640 -1.3016 -1.1081
   24MOL0     H 3165   4.292   9.839   0.568  1.7018  2.0387  0.6796
   24MOL0     H 3166   4.117  10.192   0.698  2.9579  0.2668 -0.5875
   24MOL0     H 3167   3.745   9.601   0.616 -0.3789 -2.1101 -0.8594
   24MOL0     H 3168   3.501   9.632   0.645  0.3478  0.4300 -0.1064
   25MOL0     O 3169   6.383  10.285  10.375  0.3471 -0.1416 -0.5595
   25MOL0     C 3170   6.473  10.210  10.341 -0.2838  0.5900 -0.3501
   25MOL0     O 3171   6.466  10.081  10.308  0.1382 -0.1123 -1.0318
   25MOL0     C 3172   6.333  10.033  10.296 -0.8193 -0.2059  0.6691
   25MOL0     C 3173   6.243  10.047  10.402 -0.4017 -0.8692 -0.0258
   25MOL0     C 3174   6.107  10.016  10.384 -0.4688  0.5319 -0.8690
   25MOL0     C 3175   6.059   9.972  10.258  0.1257 -0.1043  0.1629
   25MOL0     O 3176   5.927   9.948  10.260  0.4046 -0.1278  0.2649
   25MOL0     C 3177   5.862   9.942  10.133 -0.4088 -0.3200 -0.2020
   25MOL0     C 3178   5.714   9.999  10.145  0.6348 -0.2786  0.1042
   25MOL0     C 3179   5.692  10.139  10.215  0.2745 -0.8221  0.2083
   25MOL0     C 3180   5.547  10.170  10.245  1.1263 -0.0687 -0.3875
   25MOL0     C 3181   5.528  10.285  10.348  0.3349 -0.2163  0.4634
   25MOL0     C 3182   5.388  10.305  10.404  0.3648  0.9414  0.6388
   25MOL0     C 3183   5.399  10.372  10.545 -1.1911 -0.3940  0.6107
   25MOL0     C 3184   5.258  10.390  10.608 -0.4239  0.2576 -0.2572
   25MOL0     N 3185   5.158  10.471  10.524  0.2162  0.2367 -1.1749
   25MOL0     C 3186   5.038  10.426  10.472  0.1897  0.0821  0.5108
   25MOL0     C 3187   5.009  10.531  10.393 -0.5243 -0.0757 -0.2287
   25MOL0     C 3188   4.885  10.534  10.311  0.3111  0.0354 -0.4799
   25MOL0     C 3189   4.847  10.668  10.257 -0.1292  0.0411 -0.3495
   25MOL0     C 3190   4.715  10.663  10.180  0.2385  0.7062 -0.6809
   25MOL0     C 3191   4.686  10.805  10.138 -0.1841  0.1715 -1.0953
   25MOL0     O 3192   4.570  10.794  10.064  0.3160  0.0026 -0.1075
   25MOL0     C 3193   4.450  10.814  10.127 -0.4046  1.2713  0.6899
   25MOL0     C 3194   4.424  10.840  10.262 -0.0924  0.2771 -0.7437
   25MOL0     C 3195   4.296  10.864  10.313 -0.3310  0.0361  0.3338
   25MOL0     C 3196   4.187  10.863  10.232  0.9725  0.1318 -0.0102
   25MOL0     C 3197   4.054  10.892  10.275  1.1549 -0.4721  0.3964
   25MOL0     O 3198   4.040  10.938  10.397 -0.2165  0.6442 -0.3719
   25MOL0     C 3199   3.918  10.963  10.464 -0.5500 -0.3645  1.0237
   25MOL0     C 3200   3.794  10.989  10.396  0.1255  0.4958 -0.0172
   25MOL0     C 3201   3.677  11.016  10.479  0.2159  0.1686 -0.9193
   25MOL0     C 3202   3.686  11.010  10.617 -0.6242  0.8078  0.7283
   25MOL0     O 3203   3.580  11.038  10.699  0.5471 -0.0656  0.0301
   25MOL0     C 3204   3.452  10.974  10.669  0.1337  0.0606 -0.4443
   25MOL0     C 3205   3.349  11.009  10.775 -0.8220  0.4266 -0.0490
   25MOL0     C 3206   3.353  11.166  10.795 -0.2204 -0.4889 -0.0485
   25MOL0     C 3207   3.245  11.219  10.899 -0.1175  0.1290  0.5080
   25MOL0     C 3208   3.115  11.214  10.833  1.5205 -0.4427  0.2881
   25MOL0     C 3209   3.001  11.299  10.910  0.5620 -0.3123 -0.5005
   25MOL0     C 3210   2.861  11.303  10.835 -0.7063  0.5332  0.4135
   25MOL0     C 3211   2.861  11.371  10.698  0.3694  0.4033 -0.2743
   25MOL0    Cl 3212   2.914  11.542  10.705  0.0200 -0.5963  0.0057
   25MOL0     C 3213   3.812  10.988  10.678 -1.5394  0.2035  0.1354
   25MOL0     C 3214   3.920  10.966  10.602  0.8161  0.2068  0.7345
   25MOL0     O 3215   3.965  10.841  10.208 -1.2200  0.4413 -0.3532
   25MOL0     C 3216   4.207  10.814  10.098 -0.1089  0.8698  0.5687
   25MOL0     C 3217   4.338  10.805  10.046  0.3637 -0.3677 -0.3730
   25MOL0     N 3218   5.099  10.636  10.408 -0.3276 -0.0622 -0.3875
   25MOL0     N 3219   5.193  10.592  10.477  0.3242 -0.1478  0.2017
   25MOL0     C 3220   6.154   9.955  10.155  0.0692 -1.0244 -0.2110
   25MOL0     C 3221   6.287   9.990  10.176 -0.6279  0.2396 -0.0019
   25MOL0     C 3222   6.603  10.284  10.328 -0.4182 -0.3034  0.1576
   25MOL0     C 3223   6.709  10.224  10.257  0.7514  0.1879 -0.3161
   25MOL0     C 3224   6.825  10.292  10.233  0.3023  0.6443 -0.3138
   25MOL0     C 3225   6.850  10.415  10.297  0.7349  0.0779 -1.0441
   25MOL0     O 3226   6.971  10.483  10.301 -0.1455 -0.7014  0.1541
   25MOL0     C 3227   7.095  10.419  10.267 -0.3503  0.2063  0.0910
   25MOL0     C 3228   7.197  10.527  10.299  0.7424  0.2017 -0.3610
   25MOL0     C 3229   7.335  10.470  10.285 -0.9891 -0.1348 -0.2080
   25MOL0     C 3230   7.439  10.583  10.305  0.1314  0.5187 -0.0455
   25MOL0     C 3231   7.574  10.531  10.291 -0.3187  0.4857  0.4598
   25MOL0     C 3232   7.689  10.486  10.274  0.9625 -0.5324 -0.1551
   25MOL0     C 3233   6.752  10.468  10.383  0.4280  0.3548 -0.5214
   25MOL0     C 3234   6.633  10.400  10.394  0.6917 -0.3028  0.2083
   25MOL0     H 3235   6.281  10.078  10.499  1.9792 -1.5457 -0.6866
   25MOL0     H 3236   6.040  10.016  10.470 -0.6933  0.5964 -1.0444
   25MOL0     H 3237   5.877   9.840  10.097  4.4816  0.7334 -1.8904
   25MOL0     H 3238   5.921   9.996  10.058  2.3385  2.5045  3.5805
   25MOL0     H 3239   5.660   9.930  10.211  1.3254 -0.1271  0.8427
   25MOL0     H 3240   5.667  10.009  10.047  1.6396  0.5376 -0.3159
   25MOL0     H 3241   5.736  10.222  10.160  1.0615  0.1618  2.2128
   25MOL0     H 3242   5.753  10.147  10.306 -0.8616  0.0020  0.9295
   25MOL0     H 3243   5.496  10.189  10.150  1.0751 -4.4637 -1.4325
   25MOL0     H 3244   5.503  10.077  10.280 -1.5731  0.5938 -1.7663
   25MOL0     H 3245   5.555  10.385  10.312  1.7529 -0.7816 -0.1165
   25MOL0     H 3246   5.591  10.263  10.435  1.9023  0.9674 -0.3194
   25MOL0     H 3247   5.332  10.212  10.407  2.7017 -0.5818  0.1387
   25MOL0     H 3248   5.341  10.374  10.333  2.2333  2.4851  0.7993
   25MOL0     H 3249   5.468  10.321  10.613  0.7508  0.6312 -0.4767
   25MOL0     H 3250   5.442  10.472  10.537 -1.5225 -0.1723  1.5072
   25MOL0     H 3251   5.265  10.445  10.702 -1.5922  0.4166 -0.2499
   25MOL0     H 3252   5.231  10.290  10.640  5.2363 -0.1273  5.4445
   25MOL0     H 3253   4.981  10.334  10.480  1.9692 -1.3508 -1.7612
   25MOL0     H 3254   4.801  10.501  10.373  1.1050  1.6125  1.5660
   25MOL0     H 3255   4.905  10.466  10.228 -1.1174  1.5810 -2.1674
   25MOL0     H 3256   4.926  10.692  10.185 -0.6806 -0.6117 -1.1954
   25MOL0     H 3257   4.857  10.743  10.336 -3.0686  0.9364 -0.7259
   25MOL0     H 3258   4.712  10.596  10.094  0.2507  1.0265 -0.9326
   25MOL0     H 3259   4.646  10.629  10.258  0.5337  1.8724  0.1250
   25MOL0     H 3260   4.775  10.829  10.079  0.1859  3.8304  0.6538
   25MOL0     H 3261   4.684  10.876  10.221  2.7392 -1.1059  0.2020
   25MOL0     H 3262   4.502  10.836  10.337  0.0940 -1.1773 -0.9909
   25MOL0     H 3263   4.278  10.875  10.419 -0.8028  1.4781  0.1192
   25MOL0     H 3264   3.783  10.994  10.288 -1.1280 -2.4197 -0.0960
   25MOL0     H 3265   3.589  11.045  10.421 -0.8642 -2.0935 -0.5089
   25MOL0     H 3266   3.458  10.866  10.649  0.1434  0.5100 -3.2477
   25MOL0     H 3267   3.409  11.004  10.573  1.2577 -0.8249 -1.2638
   25MOL0     H 3268   3.367  10.959  10.870 -1.3521  1.0900  0.4077
   25MOL0     H 3269   3.249  10.978  10.743 -2.4138  4.1511  0.7915
   25MOL0     H 3270   3.344  11.219  10.700 -0.1528 -1.0000 -0.3434
   25MOL0     H 3271   3.450  11.180  10.844  0.5534 -1.2434 -1.3026
   25MOL0     H 3272   3.257  11.153  10.985 -1.2379 -0.6250  0.1170
   25MOL0     H 3273   3.265  11.322  10.929 -0.5448 -0.1212  1.7157
   25MOL0     H 3274   3.082  11.110  10.826  1.3758 -0.2795 -3.3023
   25MOL0     H 3275   3.133  11.239  10.728  3.6452 -2.2286  0.1675
   25MOL0     H 3276   3.042  11.400  10.917  1.5953 -0.8416  1.9253
   25MOL0     H 3277   2.984  11.254  11.008  1.5584  0.5672  0.0965
   25MOL0     H 3278   2.837  11.198  10.813 -0.8100  0.9691 -1.8240
   25MOL0     H 3279   2.790  11.353  10.902 -1.1395  0.9831 -0.3652
   25MOL0     H 3280   2.760  11.370  10.655 -0.4784 -0.7504  1.6115
   25MOL0     H 3281   2.924  11.326  10.621  0.3734 -0.5847  0.2867
   25MOL0     H 3282   3.824  10.992  10.785 -1.4759  0.4050  0.1213
   25MOL0     H 3283   4.017  10.960  10.649  0.8698 -2.2233  0.4742
   25MOL0     H 3284   4.129  10.793  10.026  0.6157 -1.5060  0.3833
   25MOL0     H 3285   4.360  10.756   9.951  0.6530 -0.4038 -0.2905
   25MOL0     H 3286   6.131   9.919  10.056  2.3620 -0.5341 -0.9772
   25MOL0     H 3287   6.343   9.960  10.088 -3.5541 -0.1599 -1.8535
   25MOL0     H 3288   6.690  10.136  10.197 -1.0356  0.3597 -0.0408
   25MOL0     H 3289   6.897  10.243  10.170  0.2620 -0.6796  0.6305
   25MOL0     H 3290   7.116  10.401  10.161  1.8902  0.0850  0.5198
   25MOL0     H 3291   7.105  10.327  10.324  1.6636 -0.6162 -1.4768
   25MOL0     H 3292   7.177  10.599  10.219 -0.9203 -0.5832 -0.6965
   25MOL0     H 3293   7.179  10.572  10.397 -0.2268  1.5127 -1.1037
   25MOL0     H 3294   7.341  10.437  10.180 -1.7244  1.6886 -0.8703
   25MOL0     H 3295   7.354  10.391  10.358  2.8746  0.7109 -0.0736
   25MOL0     H 3296   7.416  10.658  10.229 -0.4318  1.2882  0.8543
   25MOL0     H 3297   7.430  10.636  10.401  4.1737  0.1269  0.7300
   25MOL0     H 3298   7.788  10.448  10.255  1.5377  0.0591  1.4466
   25MOL0     H 3299   6.769  10.567  10.424  0.3142  1.1448 -2.2994
   25MOL0     H 3300   6.550  10.441  10.451  2.1803 -0.1273  2.3667
   26MOL0     O 3301   2.580   8.678   0.587 -0.2002 -0.7951  0.0500
   26MOL0     C 3302   2.635   8.625   0.685  0.2255 -0.2345  0.0149
   26MOL0     O 3303   2.578   8.531   0.767  0.2731  0.0776  0.0495
   26MOL0     C 3304   2.446   8.498   0.755 -1.3204  0.2724  0.2186
   26MOL0     C 3305   2.370   8.489   0.626 -1.2966  0.0979  0.0808
   26MOL0     C 3306   2.242   8.441   0.622  1.0629  0.3118  0.0671
   26MOL0     C 3307   2.180   8.412   0.743  0.2540 -0.2029 -0.0214
   26MOL0     O 3308   2.053   8.369   0.727 -0.0096  0.0455  0.0172
   26MOL0     C 3309   1.976   8.340   0.851 -0.8377 -0.5143  0.3680
   26MOL0     C 3310   1.840   8.290   0.801  0.6772 -0.1212  0.6941
   26MOL0     C 3311   1.765   8.384   0.693  0.1927  0.1407 -1.1231
   26MOL0     C 3312   1.612   8.344   0.694 -0.6668  0.4581 -0.4146
   26MOL0     C 3313   1.547   8.415   0.579 -0.1640  0.4186 -0.3556
   26MOL0     C 3314   1.407   8.368   0.552 -0.7822 -0.3190  0.1872
   26MOL0     C 3315   1.383   8.224   0.505 -0.2280 -0.0028  0.1252
   26MOL0     C 3316   1.226   8.189   0.504  0.4135 -0.0214 -0.1447
   26MOL0     N 3317   1.176   8.123   0.624 -0.2784  0.1214  0.2875
   26MOL0     C 3318   1.168   8.168   0.749 -0.1673  0.0215 -1.3111
   26MOL0     C 3319   1.108   8.071   0.826  1.4721  0.1531  0.5053
   26MOL0     C 3320   1.049   8.077   0.958 -1.1056  0.0882  1.0469
   26MOL0     C 3321   0.932   8.175   0.977  0.2326 -0.0542 -0.5461
   26MOL0     C 3322   0.823   8.151   0.873  0.7965  0.5039 -0.3288
   26MOL0     C 3323   0.746   8.027   0.896  0.2584  1.0044 -0.8535
   26MOL0     O 3324   0.670   7.993   0.782 -0.0791  0.0245  0.7354
   26MOL0     C 3325   0.545   8.045   0.768 -0.2737 -0.0679 -0.1335
   26MOL0     C 3326   0.481   8.140   0.847  0.4531  0.3786 -0.5099
   26MOL0     C 3327   0.348   8.185   0.817 -0.5090  0.9661  0.1321
   26MOL0     C 3328   0.280   8.130   0.707  0.3206  0.5352  0.6748
   26MOL0     C 3329   0.142   8.160   0.662  0.0296  0.8082  0.4708
   26MOL0     O 3330   0.069   8.229   0.748  0.2578 -0.0323  0.2370
   26MOL0     C 3331  -0.069   8.221   0.745  0.6250  0.4720  0.3064
   26MOL0     C 3332  -0.129   8.192   0.874 -0.7611 -0.5161 -0.3463
   26MOL0     C 3333  -0.261   8.190   0.899  0.2924 -0.0022 -0.5537
   26MOL0     C 3334  -0.346   8.203   0.790 -0.3485  0.3803 -0.9618
   26MOL0     O 3335  -0.486   8.196   0.801  0.3823  0.9478 -0.4627
   26MOL0     C 3336  -0.551   8.237   0.921 -0.4445 -0.9082 -0.8774
   26MOL0     C 3337  -0.698   8.186   0.935 -0.3822 -0.0043  0.1290
   26MOL0     C 3338  -0.691   8.047   0.995 -0.3396  1.1396 -0.1949
   26MOL0     C 3339  -0.825   7.983   0.990 -0.0354  0.4818 -0.8554
   26MOL0     C 3340  -0.814   7.852   1.069 -1.0354  0.4258  0.4802
   26MOL0     C 3341  -0.959   7.798   1.094 -0.3644 -0.2961  0.1797
   26MOL0     C 3342  -0.957   7.645   1.098 -0.2674  0.2941 -0.0875
   26MOL0     C 3343  -0.928   7.584   0.951  0.1956 -0.6476 -0.1376
   26MOL0    Cl 3344  -0.909   7.412   0.976  0.3468 -0.3147  0.2369
   26MOL0     C 3345  -0.296   8.226   0.663 -1.0171 -0.2646 -0.5853
   26MOL0     C 3346  -0.161   8.235   0.635  0.2824 -0.6150  0.3903
   26MOL0     O 3347   0.102   8.107   0.557 -0.6205  0.5263  0.1659
   26MOL0     C 3348   0.356   8.054   0.620 -0.0333  0.5665 -0.0989
   26MOL0     C 3349   0.480   8.006   0.655 -0.1141 -0.4424  0.0164
   26MOL0     N 3350   1.080   7.965   0.741 -0.5882 -0.3837  0.1520
   26MOL0     N 3351   1.133   7.994   0.623 -0.4143  0.5409 -0.3580
   26MOL0     C 3352   2.246   8.413   0.870  0.1439 -0.0126  0.2597
   26MOL0     C 3353   2.378   8.458   0.872  1.4250  0.0780 -0.0511
   26MOL0     C 3354   2.778   8.636   0.700  0.1525 -0.4792 -0.0926
   26MOL0     C 3355   2.852   8.730   0.632  0.6816 -0.5199  0.0790
   26MOL0     C 3356   2.991   8.741   0.633 -0.3278  0.2578 -0.4046
   26MOL0     C 3357   3.063   8.644   0.714  0.4293  0.0156 -0.7278
   26MOL0     O 3358   3.200   8.650   0.712  0.2490  0.1426  0.7536
   26MOL0     C 3359   3.274   8.523   0.712 -0.2229  0.1798 -0.5507
   26MOL0     C 3360   3.421   8.553   0.732  0.0663 -0.0624 -0.4718
   26MOL0     C 3361   3.516   8.429   0.712 -0.2293  0.4065 -0.5406
   26MOL0     C 3362   3.659   8.477   0.678  0.8550  0.0721 -0.0372
   26MOL0     C 3363   3.715   8.573   0.773 -1.0629  0.0413 -0.2861
   26MOL0     C 3364   3.764   8.660   0.832 -0.4213  0.6397 -0.1712
   26MOL0     C 3365   2.993   8.546   0.778  0.8662  0.2476 -0.4070
   26MOL0     C 3366   2.853   8.540   0.776  0.0942  0.2676  0.1210
   26MOL0     H 3367   2.420   8.515   0.534  0.2566 -0.1596  0.8192
   26MOL0     H 3368   2.188   8.427   0.528  2.1083 -4.2079 -0.1264
   26MOL0     H 3369   1.966   8.432   0.911  0.2366 -0.0115 -0.1992
   26MOL0     H 3370   2.021   8.262   0.912 -1.1139  0.5512  1.9946
   26MOL0     H 3371   1.771   8.275   0.884 -1.7863 -1.1627 -1.4153
   26MOL0     H 3372   1.844   8.195   0.747 -2.4232  1.6643 -3.1746
   26MOL0     H 3373   1.805   8.375   0.591 -0.0077 -3.4408 -1.0195
   26MOL0     H 3374   1.766   8.491   0.715 -1.2892 -0.1814  0.7122
   26MOL0     H 3375   1.608   8.236   0.678 -2.2929  0.8204 -2.9288
   26MOL0     H 3376   1.564   8.376   0.787 -1.8861  1.7595 -1.4458
   26MOL0     H 3377   1.602   8.404   0.485  1.6035 -0.9097  0.7740
   26MOL0     H 3378   1.551   8.521   0.605  4.1447  0.0879  1.0205
   26MOL0     H 3379   1.363   8.437   0.480 -0.8224 -0.2449  0.2818
   26MOL0     H 3380   1.353   8.378   0.647 -1.0486  0.4384 -0.0332
   26MOL0     H 3381   1.418   8.217   0.402 -0.6474  0.3949 -0.0488
   26MOL0     H 3382   1.447   8.162   0.567  2.9700  0.9857 -1.9326
   26MOL0     H 3383   1.204   8.112   0.429  1.6009  0.4179 -0.9718
   26MOL0     H 3384   1.171   8.281   0.483 -0.7470 -0.4158  1.0160
   26MOL0     H 3385   1.179   8.273   0.775 -1.1994  0.2691 -1.8031
   26MOL0     H 3386   1.125   8.119   1.024  2.4913 -0.8340 -2.2122
   26MOL0     H 3387   1.016   7.975   0.981 -0.8424 -1.1267 -3.0921
   26MOL0     H 3388   0.963   8.278   0.956 -0.8419  0.5329  0.6509
   26MOL0     H 3389   0.888   8.176   1.077 -2.1362  0.3192 -1.5160
   26MOL0     H 3390   0.749   8.231   0.880 -1.0657 -1.2595  1.6021
   26MOL0     H 3391   0.866   8.157   0.772  0.7818 -0.9921 -0.4500
   26MOL0     H 3392   0.680   8.038   0.982  0.2203  1.2434 -0.9130
   26MOL0     H 3393   0.814   7.944   0.917 -2.3620 -1.4244 -1.3111
   26MOL0     H 3394   0.529   8.188   0.931 -2.3823  0.6680  1.0846
   26MOL0     H 3395   0.301   8.250   0.889 -3.4899  0.5937 -1.3385
   26MOL0     H 3396  -0.062   8.185   0.960  0.2358 -1.0920 -1.1395
   26MOL0     H 3397  -0.290   8.178   1.003  0.8362  0.1320 -0.3863
   26MOL0     H 3398  -0.563   8.345   0.915  0.6550 -0.6938  0.2343
   26MOL0     H 3399  -0.512   8.199   1.016 -0.1764 -0.9214 -0.9922
   26MOL0     H 3400  -0.748   8.183   0.838 -0.5658  1.3294  0.1636
   26MOL0     H 3401  -0.756   8.245   1.007  1.3583  3.6385 -1.2714
   26MOL0     H 3402  -0.649   8.039   1.095  0.7616 -0.9957 -0.7546
   26MOL0     H 3403  -0.634   7.983   0.928 -1.5540  0.0487 -0.2381
   26MOL0     H 3404  -0.903   8.046   1.035  0.5393 -0.9243  2.3502
   26MOL0     H 3405  -0.853   7.966   0.886 -1.4208 -0.8625 -0.3040
   26MOL0     H 3406  -0.763   7.863   1.165  0.2004 -0.1294 -0.0993
   26MOL0     H 3407  -0.747   7.784   1.017  1.5070  1.7891  1.8071
   26MOL0     H 3408  -1.032   7.838   1.023 -0.0705 -2.0289 -1.1725
   26MOL0     H 3409  -0.973   7.831   1.198  0.4118  4.3240 -0.9320
   26MOL0     H 3410  -0.882   7.626   1.175 -0.4018 -0.6538 -0.1751
   26MOL0     H 3411  -1.056   7.618   1.137 -0.1105 -1.6101 -0.9025
   26MOL0     H 3412  -0.835   7.620   0.907 -0.1145  1.3518  0.7468
   26MOL0     H 3413  -1.016   7.594   0.886  0.2793  0.5335 -0.0855
   26MOL0     H 3414  -0.365   8.250   0.583 -0.9496 -0.2674 -0.6444
   26MOL0     H 3415  -0.127   8.258   0.535 -2.7687 -1.0953 -0.8466
   26MOL0     H 3416   0.311   8.032   0.523 -0.0448  2.2626 -0.5084
   26MOL0     H 3417   0.541   7.950   0.584 -1.7252 -1.4493 -0.6263
   26MOL0     H 3418   2.201   8.366   0.957  2.7770  1.0615  2.3654
   26MOL0     H 3419   2.420   8.453   0.972  2.4110  0.0695 -0.4561
   26MOL0     H 3420   2.801   8.792   0.559 -2.3314 -2.7437  0.0756
   26MOL0     H 3421   3.043   8.812   0.569  0.8914  0.6326  0.9606
   26MOL0     H 3422   3.253   8.463   0.623 -2.2505 -0.3547  0.2291
   26MOL0     H 3423   3.245   8.465   0.800  3.6678 -0.2407  0.6103
   26MOL0     H 3424   3.439   8.633   0.659 -0.9215 -0.1497 -0.8193
   26MOL0     H 3425   3.439   8.606   0.827 -0.3732 -0.2656 -0.2763
   26MOL0     H 3426   3.467   8.360   0.642 -0.7824 -1.0643  1.2214
   26MOL0     H 3427   3.532   8.382   0.809 -0.6667  1.8460  0.2547
   26MOL0     H 3428   3.726   8.391   0.673 -3.5710 -3.8053  0.6194
   26MOL0     H 3429   3.659   8.521   0.577  3.6020 -0.2060 -0.2294
   26MOL0     H 3430   3.810   8.737   0.891  1.4283 -0.0032 -0.6823
   26MOL0     H 3431   3.049   8.464   0.824  0.1275  0.0103  0.0855
   26MOL0     H 3432   2.788   8.466   0.820  0.8560  0.0008  0.8203
   27MOL0     O 3433   1.786  10.526   4.640 -0.0424  0.1058  0.8926
   27MOL0     C 3434   1.807  10.469   4.744  0.0909  0.1413  0.4695
   27MOL0     O 3435   1.727  10.456   4.852  0.1638  0.4481 -0.1186
   27MOL0     C 3436   1.592  10.500   4.854 -0.7005 -0.1970 -0.2866
   27MOL0     C 3437   1.532  10.584   4.759 -0.3630 -0.0833 -0.4907
   27MOL0     C 3438   1.413  10.648   4.787 -0.1994  0.6710  0.4301
   27MOL0     C 3439   1.343  10.620   4.908 -0.0723  0.4960  0.8485
   27MOL0     O 3440   1.214  10.660   4.940 -1.0515 -0.1663 -0.1136
   27MOL0     C 3441   1.154  10.766   4.852 -0.6501 -0.5198 -0.0827
   27MOL0     C 3442   1.021  10.813   4.884  0.7554 -0.3574 -0.3532
   27MOL0     C 3443   0.913  10.716   4.862  0.1303 -0.1658  0.2261
   27MOL0     C 3444   0.783  10.764   4.916 -0.5205 -0.0410 -0.1523
   27MOL0     C 3445   0.775  10.783   5.066 -0.2801 -0.1072  0.3483
   27MOL0     C 3446   0.631  10.790   5.114 -0.4518 -0.3741 -0.3251
   27MOL0     C 3447   0.633  10.838   5.263  0.1195 -1.1327  0.1923
   27MOL0     C 3448   0.497  10.835   5.331 -0.1653 -0.0383 -0.2152
   27MOL0     N 3449   0.386  10.858   5.245  0.1476 -0.6043 -0.6458
   27MOL0     C 3450   0.319  10.770   5.164  0.0834  0.1722  0.2351
   27MOL0     C 3451   0.214  10.847   5.113  0.3883  0.7605 -0.6071
   27MOL0     C 3452   0.117  10.818   5.006 -0.3221  0.9635 -0.0801
   27MOL0     C 3453  -0.020  10.886   5.017  0.4584  0.2785 -0.1802
   27MOL0     C 3454  -0.088  10.890   4.875  0.7383  0.4279 -0.1540
   27MOL0     C 3455  -0.231  10.934   4.880  0.2210  0.2860  0.1657
   27MOL0     O 3456  -0.312  10.861   4.976  1.0292  0.1413 -0.3106
   27MOL0     C 3457  -0.442  10.899   5.004 -0.0138 -0.5400  0.6289
   27MOL0     C 3458  -0.530  10.958   4.907 -0.3684 -1.0500  0.0514
   27MOL0     C 3459  -0.663  10.981   4.937  0.4070  0.0127  0.0712
   27MOL0     C 3460  -0.719  10.947   5.063 -0.5039 -0.2761  0.7813
   27MOL0     C 3461  -0.849  10.999   5.100 -0.4728  0.4878  0.2101
   27MOL0     O 3462  -0.936  11.006   4.995  0.2753 -0.6348 -0.2289
   27MOL0     C 3463  -1.066  11.019   5.032  0.3804 -0.1080 -0.3662
   27MOL0     C 3464  -1.142  10.929   5.113 -0.5773  0.2747 -0.4531
   27MOL0     C 3465  -1.279  10.934   5.124  0.1758  0.0420 -0.8989
   27MOL0     C 3466  -1.347  11.043   5.056 -0.0393 -0.2608 -0.0502
   27MOL0     O 3467  -1.486  11.058   5.055  0.4228  0.0775  0.2524
   27MOL0     C 3468  -1.581  10.948   5.074 -0.8220 -0.1125 -0.3546
   27MOL0     C 3469  -1.722  11.013   5.084 -0.1967  0.9557 -0.2790
   27MOL0     C 3470  -1.768  11.057   4.940 -0.4115 -0.9223 -0.8338
   27MOL0     C 3471  -1.907  11.127   4.945  0.0494  1.0142  1.0774
   27MOL0     C 3472  -2.033  11.051   5.013 -0.6618 -0.1225 -1.2924
   27MOL0     C 3473  -2.068  10.932   4.939 -0.0319  0.0711  0.4282
   27MOL0     C 3474  -2.183  10.860   5.011  0.8004 -0.2562  0.8376
   27MOL0     C 3475  -2.315  10.929   5.012  0.5816 -0.3023  0.1229
   27MOL0    Cl 3476  -2.380  10.951   4.843 -0.4744 -0.0173  0.1094
   27MOL0     C 3477  -1.272  11.135   4.984  0.9421 -0.2306 -0.3384
   27MOL0     C 3478  -1.136  11.123   4.979  0.3006  0.3105  0.3804
   27MOL0     O 3479  -0.869  11.026   5.219 -0.7345 -0.1442  0.2909
   27MOL0     C 3480  -0.632  10.899   5.156 -0.1352  0.3818 -0.4140
   27MOL0     C 3481  -0.495  10.873   5.130 -0.3576  0.6985  0.6503
   27MOL0     N 3482   0.218  10.970   5.179  0.0043 -0.7499 -0.2993
   27MOL0     N 3483   0.318  10.971   5.257 -0.3300  0.0761 -0.3113
   27MOL0     C 3484   1.399  10.525   4.994  0.2403 -0.5530 -0.2644
   27MOL0     C 3485   1.519  10.457   4.964  0.5150 -0.4989  0.2491
   27MOL0     C 3486   1.947  10.414   4.761  0.1361 -0.3534 -0.2872
   27MOL0     C 3487   2.018  10.413   4.887  0.1085  0.3975 -0.1716
   27MOL0     C 3488   2.148  10.362   4.895  0.0342  0.5837  0.4565
   27MOL0     C 3489   2.208  10.296   4.781  0.2872 -0.0567  0.7096
   27MOL0     O 3490   2.331  10.238   4.772 -0.0120 -0.1930 -0.2379
   27MOL0     C 3491   2.445  10.267   4.856  0.8402  0.0765  0.5293
   27MOL0     C 3492   2.569  10.237   4.769 -0.3457 -0.1128  0.0081
   27MOL0     C 3493   2.590  10.088   4.735 -0.4069 -0.3287 -0.6318
   27MOL0     C 3494   2.625  10.012   4.862  0.0231  0.0948  0.1160
   27MOL0     C 3495   2.740   9.917   4.852 -0.6853 -0.7649  0.6526
   27MOL0     C 3496   2.840   9.854   4.866 -0.0331  0.1459 -0.2744
   27MOL0     C 3497   2.131  10.283   4.673  0.6575  0.2017  0.8009
   27MOL0     C 3498   2.000  10.334   4.658 -0.3970 -0.8364  0.5492
   27MOL0     H 3499   1.566  10.604   4.657 -0.3353 -3.8510 -1.3521
   27MOL0     H 3500   1.368  10.711   4.711  2.9170  1.6425 -0.7795
   27MOL0     H 3501   1.163  10.722   4.752  4.6617 -3.8835  1.4265
   27MOL0     H 3502   1.219  10.853   4.845  0.2516 -1.1091  0.7122
   27MOL0     H 3503   0.994  10.907   4.835  1.9368 -0.0296 -0.3892
   27MOL0     H 3504   1.030  10.834   4.990 -0.2881  0.2611 -0.3735
   27MOL0     H 3505   0.942  10.620   4.906 -0.4175 -1.6765 -2.5297
   27MOL0     H 3506   0.914  10.706   4.753  0.3124  0.5502  0.1571
   27MOL0     H 3507   0.780  10.860   4.864  3.0469 -0.9176 -2.3357
   27MOL0     H 3508   0.705  10.693   4.886 -1.2498  1.2630 -1.5186
   27MOL0     H 3509   0.810  10.882   5.096 -4.3610  2.0739 -1.3209
   27MOL0     H 3510   0.831  10.715   5.131 -2.9526  0.5909  3.7146
   27MOL0     H 3511   0.607  10.684   5.107  1.3180 -0.7790 -0.8355
   27MOL0     H 3512   0.563  10.852   5.055  0.8279  1.2952 -0.1470
   27MOL0     H 3513   0.703  10.778   5.322  0.2696 -1.3635 -0.2161
   27MOL0     H 3514   0.674  10.940   5.266 -0.8069 -0.7276 -0.4775
   27MOL0     H 3515   0.492  10.894   5.423 -0.6684 -0.0300 -0.2462
   27MOL0     H 3516   0.489  10.729   5.357 -0.6462  0.1430  0.4005
   27MOL0     H 3517   0.343  10.667   5.140  2.8941  0.8933 -0.4643
   27MOL0     H 3518   0.100  10.711   4.990  1.2671  0.5666  0.6840
   27MOL0     H 3519   0.173  10.851   4.918  0.6372 -0.0062  0.1467
   27MOL0     H 3520  -0.031  10.990   5.049  0.3613  0.4127 -0.6335
   27MOL0     H 3521  -0.078  10.837   5.095 -0.4179  2.3735  0.5520
   27MOL0     H 3522  -0.029  10.960   4.814 -1.5104  1.5726 -1.1624
   27MOL0     H 3523  -0.079  10.793   4.826  1.0655  0.1394  0.4762
   27MOL0     H 3524  -0.275  10.921   4.780 -0.6169  2.2829  0.2303
   27MOL0     H 3525  -0.234  11.040   4.904  1.3914  0.8733 -2.0486
   27MOL0     H 3526  -0.496  10.969   4.805 -2.9085 -2.7141 -1.0705
   27MOL0     H 3527  -0.723  11.026   4.859  0.4802 -1.1888 -0.7034
   27MOL0     H 3528  -1.092  10.844   5.159  2.1553  0.7381 -2.3876
   27MOL0     H 3529  -1.339  10.863   5.179  0.0398  1.0522  0.3096
   27MOL0     H 3530  -1.556  10.893   5.165 -0.5854  2.2388  1.0629
   27MOL0     H 3531  -1.568  10.872   4.996  1.0213 -0.8949  0.6561
   27MOL0     H 3532  -1.723  11.101   5.149  0.9529  0.5489  0.3274
   27MOL0     H 3533  -1.786  10.942   5.138 -0.2515  2.4516  1.7383
   27MOL0     H 3534  -1.767  10.972   4.871  1.0878 -3.0029  1.5734
   27MOL0     H 3535  -1.702  11.139   4.910  0.7075 -0.2232  2.9556
   27MOL0     H 3536  -1.890  11.220   4.999  1.9286  0.1624  2.0340
   27MOL0     H 3537  -1.950  11.153   4.848  0.2148 -0.4835  0.5749
   27MOL0     H 3538  -2.117  11.121   5.020 -0.3829  0.0179  2.3548
   27MOL0     H 3539  -2.010  11.024   5.116 -2.1057  0.7181 -0.7221
   27MOL0     H 3540  -1.979  10.868   4.935  0.3507  0.6077  0.0839
   27MOL0     H 3541  -2.092  10.968   4.838  2.7702  1.7795  0.2495
   27MOL0     H 3542  -2.201  10.761   4.966 -0.1035 -0.5799  1.8514
   27MOL0     H 3543  -2.150  10.846   5.114  1.2530  4.6248  1.5711
   27MOL0     H 3544  -2.302  11.021   5.070  0.6795 -1.3535  1.8286
   27MOL0     H 3545  -2.380  10.868   5.075  1.0084  1.0116  1.8918
   27MOL0     H 3546  -1.319  11.226   4.946 -1.4924  0.0753  2.9545
   27MOL0     H 3547  -1.083  11.205   4.931 -0.7960  0.9994  0.3028
   27MOL0     H 3548  -0.662  10.891   5.259 -1.7949  0.4349 -0.8688
   27MOL0     H 3549  -0.435  10.827   5.208  0.1089 -0.3269 -0.2862
   27MOL0     H 3550   1.349  10.505   5.088 -3.6813  1.4978 -1.6715
   27MOL0     H 3551   1.568  10.384   5.028  1.5071 -2.2956 -2.4023
   27MOL0     H 3552   1.974  10.450   4.979  2.9624  0.5644  1.2317
   27MOL0     H 3553   2.199  10.376   4.989 -1.3810  2.1824  1.0495
   27MOL0     H 3554   2.451  10.198   4.940  1.4199  0.2828  0.6691
   27MOL0     H 3555   2.442  10.371   4.891 -0.9490  0.4047 -0.4866
   27MOL0     H 3556   2.574  10.301   4.681  0.9618  0.1094  0.2182
   27MOL0     H 3557   2.658  10.257   4.831 -0.3529  2.0999 -0.6000
   27MOL0     H 3558   2.667  10.070   4.660 -0.0888 -0.5034 -0.2657
   27MOL0     H 3559   2.496  10.046   4.696 -0.9659  1.3695 -1.2396
   27MOL0     H 3560   2.643  10.067   4.955 -0.0740  1.1522 -0.4695
   27MOL0     H 3561   2.537   9.951   4.883 -1.3822  0.3361 -4.0909
   27MOL0     H 3562   2.925   9.788   4.865  1.2506  1.6787 -3.0778
   27MOL0     H 3563   2.169  10.239   4.581  1.1512  2.9923 -0.4077
   27MOL0     H 3564   1.935  10.311   4.574  0.2459 -0.4514 -0.0652
   28MOL0     O 3565   8.019   2.615   7.459  0.5853  0.1774  0.3103
   28MOL0     C 3566   8.034   2.579   7.339  0.6709 -0.3928  0.3381
   28MOL0     O 3567   7.940   2.564   7.242 -0.0886 -0.2932  0.0215
   28MOL0     C 3568   7.810   2.532   7.273 -0.7121  0.7404 -0.0084
   28MOL0     C 3569   7.757   2.496   7.398  0.2329  0.4848  0.4224
   28MOL0     C 3570   7.622   2.471   7.412  0.6795 -0.4571  0.3806
   28MOL0     C 3571   7.535   2.461   7.298  0.6344 -0.4620 -0.6252
   28MOL0     O 3572   7.400   2.443   7.299  0.1011 -0.1874 -0.0203
   28MOL0     C 3573   7.330   2.447   7.427 -0.2691  0.5425  0.5685
   28MOL0     C 3574   7.182   2.480   7.401 -0.4456 -0.9331  0.2797
   28MOL0     C 3575   7.088   2.474   7.519 -0.3590  0.0414 -0.4586
   28MOL0     C 3576   6.936   2.458   7.478  0.0435  0.1785  0.1159
   28MOL0     C 3577   6.831   2.493   7.586 -0.0933  0.0712  0.1059
   28MOL0     C 3578   6.690   2.454   7.545 -1.4680  0.1637  0.4599
   28MOL0     C 3579   6.592   2.477   7.664 -0.7045 -0.1383  1.3103
   28MOL0     C 3580   6.447   2.434   7.626  0.3041  0.1038  0.7399
   28MOL0     N 3581   6.414   2.287   7.624  0.5824 -0.4411 -0.4640
   28MOL0     C 3582   6.350   2.222   7.730  0.3142  0.1368 -0.9177
   28MOL0     C 3583   6.334   2.089   7.686 -0.0572  0.2528  1.0276
   28MOL0     C 3584   6.286   1.976   7.764  0.8676 -0.0516  0.1677
   28MOL0     C 3585   6.376   1.911   7.873 -0.8216  0.5407 -0.3632
   28MOL0     C 3586   6.395   2.004   7.995  0.2018 -0.3432 -0.2433
   28MOL0     C 3587   6.265   2.023   8.079 -0.0338  0.2071  0.6964
   28MOL0     O 3588   6.194   1.906   8.100  0.3927  0.0540  0.1357
   28MOL0     C 3589   6.054   1.915   8.124 -0.3663 -0.4938 -0.6756
   28MOL0     C 3590   5.971   1.803   8.095  0.1977 -0.6754  0.4044
   28MOL0     C 3591   5.834   1.812   8.113  0.4033  0.2771 -0.1084
   28MOL0     C 3592   5.767   1.927   8.160  0.3594  0.0634  0.3923
   28MOL0     C 3593   5.628   1.926   8.185  0.6556  0.2374 -0.2225
   28MOL0     O 3594   5.565   2.045   8.171 -0.4854  0.2950  0.5250
   28MOL0     C 3595   5.426   2.031   8.178 -0.4923  0.1941 -1.0006
   28MOL0     C 3596   5.379   2.052   8.303  1.0028 -0.0524  0.6783
   28MOL0     C 3597   5.237   2.049   8.325 -0.1663  0.1283  0.9135
   28MOL0     C 3598   5.147   2.037   8.219  1.3880  0.6634  0.4154
   28MOL0     O 3599   5.009   2.051   8.234  0.1430 -0.6116 -0.2654
   28MOL0     C 3600   4.935   2.003   8.344  0.4611 -0.9619 -0.4160
   28MOL0     C 3601   4.802   1.955   8.288 -0.2885  0.8785  0.2754
   28MOL0     C 3602   4.683   1.945   8.383  0.1225  0.1722 -0.2720
   28MOL0     C 3603   4.565   1.901   8.299  0.3214 -0.3697 -0.2238
   28MOL0     C 3604   4.436   1.919   8.375  0.0674  0.1222 -0.3724
   28MOL0     C 3605   4.311   1.841   8.339 -0.6015  0.3927  0.5558
   28MOL0     C 3606   4.182   1.913   8.403  0.0073 -0.0188  0.5160
   28MOL0     C 3607   4.052   1.857   8.369  0.3722 -0.4724 -0.6240
   28MOL0    Cl 3608   4.040   1.817   8.191 -0.5151  0.3674  0.3830
   28MOL0     C 3609   5.199   2.007   8.091  0.7119  0.2538  0.4558
   28MOL0     C 3610   5.339   2.010   8.071  0.3714  0.0348 -0.0174
   28MOL0     O 3611   5.571   1.815   8.215  0.6721 -0.8442  0.3928
   28MOL0     C 3612   5.851   2.042   8.186  0.3910  0.5649  0.2199
   28MOL0     C 3613   5.986   2.030   8.176 -0.4693  0.1070  0.3888
   28MOL0     N 3614   6.375   2.089   7.554  0.6221  0.2937  0.0376
   28MOL0     N 3615   6.421   2.208   7.518  0.8787 -0.8027  0.5144
   28MOL0     C 3616   7.588   2.506   7.173  0.0312  0.1957 -0.2066
   28MOL0     C 3617   7.719   2.547   7.163 -0.6032  0.5510  0.7288
   28MOL0     C 3618   8.173   2.570   7.302 -0.4362  0.4175  0.2431
   28MOL0     C 3619   8.276   2.567   7.397  0.7332 -0.3474 -0.4875
   28MOL0     C 3620   8.407   2.543   7.358 -0.2733  1.1477  0.5358
   28MOL0     C 3621   8.446   2.539   7.224  0.7380 -0.4456  0.3644
   28MOL0     O 3622   8.582   2.534   7.197 -0.6377  0.2420 -0.0966
   28MOL0     C 3623   8.618   2.528   7.062  0.7716  0.0853 -0.5585
   28MOL0     C 3624   8.767   2.556   7.057  1.0954 -0.3136 -0.0608
   28MOL0     C 3625   8.848   2.476   7.153 -0.3818 -0.2626  0.0378
   28MOL0     C 3626   8.995   2.501   7.115 -0.9620  0.9015 -0.3247
   28MOL0     C 3627   9.079   2.446   7.228 -0.4189 -0.2199  0.2609
   28MOL0     C 3628   9.134   2.386   7.318  0.3297 -0.2559 -0.0898
   28MOL0     C 3629   8.347   2.553   7.133  0.7867 -0.7887  0.2663
   28MOL0     C 3630   8.210   2.559   7.167  0.8006 -0.3716  0.1281
   28MOL0     H 3631   7.815   2.506   7.489 -0.8105  3.4511  0.8839
   28MOL0     H 3632   7.580   2.476   7.511 -0.8858  1.7808 -0.3291
   28MOL0     H 3633   7.364   2.526   7.495 -2.4180  0.4195  1.8894
   28MOL0     H 3634   7.334   2.345   7.469 -2.6237 -0.8400 -2.2032
   28MOL0     H 3635   7.155   2.422   7.313 -1.2343  0.5450 -0.5055
   28MOL0     H 3636   7.165   2.583   7.367 -0.8392 -0.8629  0.6663
   28MOL0     H 3637   7.110   2.559   7.585  1.0786 -0.7014  0.0655
   28MOL0     H 3638   7.115   2.383   7.574 -3.5970 -0.1527  1.0468
   28MOL0     H 3639   6.917   2.520   7.389 -0.6168 -0.3051 -0.0802
   28MOL0     H 3640   6.914   2.355   7.450 -1.1116  0.0342  1.4548
   28MOL0     H 3641   6.824   2.602   7.586  0.6652  0.1529 -1.5771
   28MOL0     H 3642   6.862   2.456   7.684 -1.7541  2.6793  1.7489
   28MOL0     H 3643   6.692   2.353   7.503 -2.3611  0.0977  0.5548
   28MOL0     H 3644   6.649   2.521   7.469 -2.3530 -0.1185  0.6856
   28MOL0     H 3645   6.619   2.420   7.753 -1.4291 -2.1799  0.2750
   28MOL0     H 3646   6.591   2.586   7.676 -0.3745  0.1257 -0.7550
   28MOL0     H 3647   6.425   2.469   7.525 -3.2074  1.5291  1.8413
   28MOL0     H 3648   6.384   2.486   7.699 -1.8138  0.3835 -1.1957
   28MOL0     H 3649   6.321   2.259   7.828  1.0234 -2.1957  0.2235
   28MOL0     H 3650   6.272   1.908   7.679  2.5099 -0.3586  0.0980
   28MOL0     H 3651   6.187   1.991   7.808  0.3430 -2.2540 -0.1171
   28MOL0     H 3652   6.478   1.896   7.838 -0.5888 -0.5469  0.7112
   28MOL0     H 3653   6.334   1.814   7.904  1.7871 -1.3392 -2.3104
   28MOL0     H 3654   6.479   1.971   8.056 -0.5473 -2.1893 -0.1614
   28MOL0     H 3655   6.428   2.100   7.954  0.9618 -1.1182 -1.5248
   28MOL0     H 3656   6.211   2.093   8.014  1.0357 -1.1977 -1.8622
   28MOL0     H 3657   6.289   2.079   8.170  4.1239 -1.0988  0.5923
   28MOL0     H 3658   6.011   1.716   8.044 -0.2613 -1.1776  0.8831
   28MOL0     H 3659   5.770   1.724   8.107  0.9550 -0.2930  1.7309
   28MOL0     H 3660   5.441   2.075   8.389  0.8637  3.0088  0.0939
   28MOL0     H 3661   5.207   2.065   8.428  0.1721 -3.0627  1.6159
   28MOL0     H 3662   4.917   2.084   8.415 -3.5162 -4.0789  2.6395
   28MOL0     H 3663   4.992   1.922   8.391  0.5652 -1.2373 -1.0068
   28MOL0     H 3664   4.813   1.849   8.263 -2.2534  0.2469  1.7843
   28MOL0     H 3665   4.763   2.005   8.199 -1.6811 -0.6543 -0.0300
   28MOL0     H 3666   4.677   2.042   8.432  1.8390 -0.4002  1.1858
   28MOL0     H 3667   4.698   1.882   8.471 -0.1143 -0.5508 -0.7392
   28MOL0     H 3668   4.556   1.952   8.203 -2.5327 -1.7334 -0.7758
   28MOL0     H 3669   4.579   1.794   8.278 -3.2767 -0.9308 -0.3870
   28MOL0     H 3670   4.410   2.026   8.379 -0.0505  0.0560  1.9159
   28MOL0     H 3671   4.463   1.886   8.475 -0.4455 -1.6485 -0.7907
   28MOL0     H 3672   4.312   1.737   8.372 -0.6132 -0.5290 -2.0804
   28MOL0     H 3673   4.308   1.821   8.231 -0.1872 -3.0599  1.0651
   28MOL0     H 3674   4.205   1.919   8.510 -0.2102  2.3695  0.4906
   28MOL0     H 3675   4.177   2.019   8.377 -1.2260 -0.3608 -0.7899
   28MOL0     H 3676   3.983   1.933   8.405  0.8805 -0.8729  1.3180
   28MOL0     H 3677   4.036   1.767   8.429 -2.5872  1.3000  1.4897
   28MOL0     H 3678   5.136   1.978   8.007  0.4320 -2.0674  1.3982
   28MOL0     H 3679   5.381   1.988   7.974 -0.0124 -0.9176  0.0147
   28MOL0     H 3680   5.795   2.126   8.224  0.8608 -0.2710  2.9783
   28MOL0     H 3681   6.051   2.103   8.223  2.9935 -1.9178 -0.8790
   28MOL0     H 3682   7.524   2.522   7.087 -0.3322 -1.4058 -0.2759
   28MOL0     H 3683   7.762   2.570   7.066  1.6393 -1.9190  1.0194
   28MOL0     H 3684   8.270   2.593   7.502  1.7200 -1.1142 -0.2307
   28MOL0     H 3685   8.480   2.527   7.436 -1.5960 -0.1796  1.5524
   28MOL0     H 3686   8.568   2.589   6.987  0.5003  0.1297 -0.3442
   28MOL0     H 3687   8.598   2.424   7.035 -0.6729  0.2375 -0.1645
   28MOL0     H 3688   8.794   2.535   6.954  2.6332 -1.8003  0.6009
   28MOL0     H 3689   8.783   2.664   7.072 -1.2011  0.7581 -4.0516
   28MOL0     H 3690   8.824   2.370   7.163  0.5570 -0.5192 -0.3213
   28MOL0     H 3691   8.828   2.528   7.247 -3.8372  1.6708 -1.5561
   28MOL0     H 3692   9.022   2.448   7.023 -1.0342 -2.7317  1.5461
   28MOL0     H 3693   9.015   2.608   7.113 -0.7356  0.9212  1.3207
   28MOL0     H 3694   9.197   2.357   7.400 -0.5272 -2.7080 -0.2072
   28MOL0     H 3695   8.355   2.552   7.025  0.1663  2.3434  0.1196
   28MOL0     H 3696   8.134   2.558   7.090 -1.6510  0.5766  2.3615
   29MOL0     O 3697   6.768   6.226   4.778  0.2105  0.5404  0.7333
   29MOL0     C 3698   6.814   6.147   4.855  0.0180  0.6791 -0.0485
   29MOL0     O 3699   6.739   6.052   4.933 -0.1908  0.1355 -0.2351
   29MOL0     C 3700   6.605   6.038   4.912 -0.1447  0.1469 -0.0915
   29MOL0     C 3701   6.534   6.027   5.032 -0.4443 -0.3075 -0.4182
   29MOL0     C 3702   6.398   6.008   5.033  0.4631 -0.4352  1.0579
   29MOL0     C 3703   6.331   5.999   4.904 -0.6477 -0.0701 -0.3743
   29MOL0     O 3704   6.193   5.992   4.920 -0.0838 -0.5268  0.0636
   29MOL0     C 3705   6.110   5.985   4.807 -0.2900 -0.2975  0.4360
   29MOL0     C 3706   5.965   5.985   4.851  0.2299  0.0250 -0.3801
   29MOL0     C 3707   5.936   6.103   4.944  1.2673  0.3874  0.3840
   29MOL0     C 3708   5.802   6.082   5.026  0.1649 -0.5218  0.1025
   29MOL0     C 3709   5.664   6.117   4.958  0.1497 -0.1471  0.6664
   29MOL0     C 3710   5.541   6.119   5.048 -0.2826  0.4072  0.0533
   29MOL0     C 3711   5.491   5.979   5.078  0.0958  0.7730  0.3537
   29MOL0     C 3712   5.450   5.893   4.961  0.3359  0.3615  0.1460
   29MOL0     N 3713   5.374   5.773   5.015  0.7194 -0.1395  0.2603
   29MOL0     C 3714   5.413   5.693   5.118  0.0391 -0.2122  0.7865
   29MOL0     C 3715   5.324   5.589   5.118 -0.2300  0.5711 -0.5159
   29MOL0     C 3716   5.346   5.454   5.183 -0.4404 -0.9715  0.6985
   29MOL0     C 3717   5.370   5.456   5.344 -0.0824  0.0760  0.8279
   29MOL0     C 3718   5.381   5.313   5.383  0.1954 -0.9410  0.4588
   29MOL0     C 3719   5.410   5.300   5.531  0.8299 -0.1072 -0.1290
   29MOL0     O 3720   5.327   5.390   5.608 -0.0665  0.4365 -0.0359
   29MOL0     C 3721   5.203   5.358   5.646  0.2597 -0.5484 -0.9417
   29MOL0     C 3722   5.127   5.246   5.604 -0.0846  0.1374 -0.5802
   29MOL0     C 3723   4.993   5.237   5.650  0.4059  0.7306  0.3897
   29MOL0     C 3724   4.937   5.330   5.735 -0.4274 -0.3778  0.3371
   29MOL0     C 3725   4.798   5.323   5.762 -0.2658 -0.2546 -0.2748
   29MOL0     O 3726   4.746   5.193   5.775 -0.8862  0.1468  0.0696
   29MOL0     C 3727   4.630   5.167   5.725 -0.0783 -0.5891 -0.4213
   29MOL0     C 3728   4.515   5.173   5.811 -0.3889 -0.4630  1.0231
   29MOL0     C 3729   4.390   5.147   5.756  0.6913 -0.7558  0.2527
   29MOL0     C 3730   4.373   5.111   5.623 -0.5302 -1.2526 -0.7827
   29MOL0     O 3731   4.245   5.080   5.585 -0.0604 -0.5583  0.0559
   29MOL0     C 3732   4.211   5.071   5.446  0.2620 -0.2280 -0.7276
   29MOL0     C 3733   4.215   5.201   5.374  0.6119 -0.9926 -0.0349
   29MOL0     C 3734   4.139   5.323   5.438 -0.5208  0.3770  0.2283
   29MOL0     C 3735   3.995   5.295   5.449  0.1549 -0.2439 -0.3785
   29MOL0     C 3736   3.906   5.326   5.319  0.3471 -0.2046  0.3546
   29MOL0     C 3737   3.749   5.338   5.328 -0.2083  0.3798  0.2762
   29MOL0     C 3738   3.676   5.242   5.427 -0.1793  0.7568  0.6873
   29MOL0     C 3739   3.694   5.091   5.400 -0.4158 -0.2973  0.9924
   29MOL0    Cl 3740   3.559   5.007   5.489  0.1233 -0.2609  0.1144
   29MOL0     C 3741   4.486   5.108   5.544  0.4583  0.1450 -0.8831
   29MOL0     C 3742   4.616   5.140   5.592 -0.7934  0.3652  0.2980
   29MOL0     O 3743   4.732   5.430   5.745 -0.0824  0.9247  0.2759
   29MOL0     C 3744   5.011   5.432   5.787 -0.6645 -0.3668  0.2536
   29MOL0     C 3745   5.146   5.444   5.744  0.2471 -0.4786 -0.5792
   29MOL0     N 3746   5.218   5.619   5.032 -0.9813 -0.3097  0.1414
   29MOL0     N 3747   5.257   5.727   4.969 -0.0364 -0.0232  0.0492
   29MOL0     C 3748   6.407   6.008   4.783  0.0075  1.3348 -0.6753
   29MOL0     C 3749   6.547   6.029   4.781  0.6643  0.3578  0.1237
   29MOL0     C 3750   6.955   6.153   4.898 -0.3560  0.1252  0.1155
   29MOL0     C 3751   6.998   6.120   5.031  0.0293 -0.1598  0.1536
   29MOL0     C 3752   7.126   6.118   5.069  0.0746 -0.0828 -0.0795
   29MOL0     C 3753   7.228   6.151   4.980 -0.1680  0.0085 -0.3982
   29MOL0     O 3754   7.359   6.159   5.031  0.5608  0.2106  0.0472
   29MOL0     C 3755   7.447   6.255   4.980  0.3287  0.3421 -1.0401
   29MOL0     C 3756   7.571   6.234   5.070 -0.9278 -1.0598  0.1591
   29MOL0     C 3757   7.693   6.330   5.027  0.2978 -0.2532 -0.1806
   29MOL0     C 3758   7.809   6.309   5.118 -0.5877 -0.0381 -0.1724
   29MOL0     C 3759   7.918   6.407   5.088  0.0642 -0.2132  0.3853
   29MOL0     C 3760   8.017   6.474   5.054 -0.0972  0.0280  0.4652
   29MOL0     C 3761   7.194   6.183   4.851 -0.3293  0.4504 -0.5094
   29MOL0     C 3762   7.061   6.180   4.806 -0.2653  0.6622 -0.3308
   29MOL0     H 3763   6.594   6.022   5.122 -0.2478 -1.0443 -0.5906
   29MOL0     H 3764   6.339   5.989   5.123  0.4231 -0.6893  0.9796
   29MOL0     H 3765   6.121   5.892   4.751  0.8369  0.0495  0.0475
   29MOL0     H 3766   6.124   6.070   4.740  1.3255 -1.2780 -0.5345
   29MOL0     H 3767   5.947   5.894   4.908 -1.0209  0.6802  0.3230
   29MOL0     H 3768   5.900   5.983   4.763  2.2364  2.2185 -2.0585
   29MOL0     H 3769   5.936   6.204   4.901  1.5881 -0.6362 -2.2243
   29MOL0     H 3770   6.011   6.094   5.023  0.8397 -0.8646  0.6630
   29MOL0     H 3771   5.801   5.982   5.070  1.0312 -0.5602  0.0452
   29MOL0     H 3772   5.802   6.156   5.107 -2.3639 -0.0239 -0.2643
   29MOL0     H 3773   5.646   6.057   4.868 -2.0052  1.2382  0.0927
   29MOL0     H 3774   5.679   6.218   4.918 -0.5507 -0.5793 -0.7464
   29MOL0     H 3775   5.452   6.174   5.016  0.3323  0.8422 -0.9337
   29MOL0     H 3776   5.568   6.168   5.142  0.7022  1.2266 -0.6358
   29MOL0     H 3777   5.573   5.927   5.130  2.8380  2.2216 -2.1964
   29MOL0     H 3778   5.407   5.984   5.147  1.4963  1.2045  2.1146
   29MOL0     H 3779   5.540   5.869   4.904  0.4661  0.1745  0.4297
   29MOL0     H 3780   5.391   5.951   4.889  1.7358 -0.1862 -1.5072
   29MOL0     H 3781   5.514   5.697   5.158  0.0611 -0.2456  0.7348
   29MOL0     H 3782   5.430   5.402   5.135 -1.7482 -0.1025 -2.8611
   29MOL0     H 3783   5.261   5.386   5.168 -2.0025  0.5607  2.2913
   29MOL0     H 3784   5.286   5.515   5.382 -1.3201 -1.0488 -0.0984
   29MOL0     H 3785   5.463   5.502   5.380 -0.3938 -0.8415  2.9648
   29MOL0     H 3786   5.280   5.279   5.357  0.8284 -0.5461 -2.9941
   29MOL0     H 3787   5.452   5.252   5.326  1.3998  2.3275 -1.8467
   29MOL0     H 3788   5.509   5.337   5.561  0.5848  0.0870  0.4752
   29MOL0     H 3789   5.399   5.198   5.568 -0.2232  0.6829  1.9168
   29MOL0     H 3790   5.164   5.175   5.531  0.1258  0.3319 -0.6624
   29MOL0     H 3791   4.929   5.160   5.608 -0.8472 -0.8345  4.7189
   29MOL0     H 3792   4.535   5.202   5.914  1.3396 -1.1364  0.9067
   29MOL0     H 3793   4.298   5.151   5.814 -1.5113  1.3735 -3.0594
   29MOL0     H 3794   4.112   5.027   5.435  0.5988 -0.6759 -2.0863
   29MOL0     H 3795   4.269   4.994   5.396  0.3278 -1.4859  1.1918
   29MOL0     H 3796   4.204   5.180   5.267  1.5775 -0.1912 -0.3130
   29MOL0     H 3797   4.316   5.243   5.370  1.7766 -3.6346 -3.0002
   29MOL0     H 3798   4.154   5.402   5.364 -0.1790 -2.6073 -3.1405
   29MOL0     H 3799   4.191   5.324   5.534  0.7645  0.1359 -0.4392
   29MOL0     H 3800   3.973   5.194   5.483 -0.0833 -0.1851 -0.3583
   29MOL0     H 3801   3.965   5.364   5.528 -0.6515 -0.4480 -0.5048
   29MOL0     H 3802   3.932   5.264   5.232 -0.8395  2.1895 -1.8398
   29MOL0     H 3803   3.931   5.426   5.281 -0.5839 -0.8499 -2.1652
   29MOL0     H 3804   3.728   5.314   5.224  5.3332  1.0955 -1.3277
   29MOL0     H 3805   3.727   5.442   5.353 -2.6467  0.1793 -0.8237
   29MOL0     H 3806   3.700   5.268   5.531 -0.4731  1.5557  0.5571
   29MOL0     H 3807   3.572   5.272   5.412  0.5636  2.7622 -1.0450
   29MOL0     H 3808   3.789   5.050   5.436  0.5414 -1.2666 -2.2471
   29MOL0     H 3809   3.678   5.076   5.293 -3.8323  2.4580  0.9358
   29MOL0     H 3810   4.459   5.082   5.442 -3.1344 -1.9217  0.4374
   29MOL0     H 3811   4.703   5.137   5.527 -0.8327  0.2255  0.2505
   29MOL0     H 3812   4.980   5.516   5.849  1.0572  0.8268 -0.4067
   29MOL0     H 3813   5.203   5.529   5.783  0.5899 -1.3109  0.8160
   29MOL0     H 3814   6.350   5.997   4.692 -0.1078  1.5044 -0.6245
   29MOL0     H 3815   6.613   6.019   4.695 -0.0246 -0.8412 -0.2793
   29MOL0     H 3816   6.923   6.090   5.104  0.1866 -4.0571 -1.0335
   29MOL0     H 3817   7.155   6.103   5.172  0.8902 -0.4107 -0.3515
   29MOL0     H 3818   7.408   6.356   4.996 -0.4751 -0.3762  2.0909
   29MOL0     H 3819   7.480   6.237   4.877  1.4057  3.0251 -1.2541
   29MOL0     H 3820   7.547   6.254   5.174  0.7360  1.3696  0.1449
   29MOL0     H 3821   7.607   6.131   5.060  2.1809 -0.1094  0.5400
   29MOL0     H 3822   7.659   6.434   5.030  0.2443 -0.2466 -0.8936
   29MOL0     H 3823   7.721   6.294   4.928  1.8767 -1.3034  0.6055
   29MOL0     H 3824   7.771   6.316   5.220 -0.7647 -1.0530 -0.1592
   29MOL0     H 3825   7.846   6.207   5.110  2.0421  0.6827  1.4867
   29MOL0     H 3826   8.096   6.525   5.003 -0.7328  0.6447  0.0803
   29MOL0     H 3827   7.277   6.217   4.790 -1.2565  0.5568 -1.7651
   29MOL0     H 3828   7.044   6.207   4.702 -0.8403  3.8285  0.4937
   30MOL0     O 3829   1.412   3.400   5.899  0.3992 -0.3487 -0.1038
   30MOL0     C 3830   1.475   3.306   5.868 -0.5904 -0.1718  0.8749
   30MOL0     O 3831   1.442   3.174   5.874  0.4074  0.2729 -0.8214
   30MOL0     C 3832   1.318   3.120   5.903  0.8742  0.5512  0.3542
   30MOL0     C 3833   1.218   3.185   5.974 -0.4461  0.3297  0.4813
   30MOL0     C 3834   1.103   3.119   6.015 -0.3011 -0.1861  0.5072
   30MOL0     C 3835   1.080   2.987   5.982  0.4860  0.0282 -0.4060
   30MOL0     O 3836   0.958   2.921   6.018 -0.0621 -0.1871  0.3935
   30MOL0     C 3837   0.910   2.968   6.146  0.3061 -0.7280  0.8962
   30MOL0     C 3838   0.824   2.868   6.219  0.2516 -0.2074 -0.8053
   30MOL0     C 3839   0.698   2.824   6.138 -0.6710 -0.1709  0.1455
   30MOL0     C 3840   0.596   2.760   6.229  0.2536 -0.6344  0.0707
   30MOL0     C 3841   0.463   2.738   6.154 -1.3610  0.0194  0.3142
   30MOL0     C 3842   0.364   2.667   6.252  0.1231 -0.0364  0.2165
   30MOL0     C 3843   0.241   2.622   6.185 -0.6108  0.6116  0.8741
   30MOL0     C 3844   0.139   2.566   6.294  0.3621 -0.0864 -0.3507
   30MOL0     N 3845   0.013   2.506   6.246  0.2027 -0.2434 -0.0381
   30MOL0     C 3846  -0.004   2.491   6.107  0.4795 -0.6471 -0.4516
   30MOL0     C 3847  -0.115   2.409   6.100 -0.4164  0.8677 -0.3168
   30MOL0     C 3848  -0.162   2.329   5.977  0.4562  0.2020  0.1416
   30MOL0     C 3849  -0.307   2.273   5.997 -0.0938 -0.1865 -1.0168
   30MOL0     C 3850  -0.413   2.386   6.000 -0.3363  0.9169 -0.4732
   30MOL0     C 3851  -0.557   2.338   6.009 -0.5199  0.6100 -0.8034
   30MOL0     O 3852  -0.574   2.228   5.922 -0.5039  0.3641  0.7071
   30MOL0     C 3853  -0.697   2.170   5.927  0.0744 -0.4414  0.1633
   30MOL0     C 3854  -0.810   2.201   6.015  0.0932  0.4321  0.2210
   30MOL0     C 3855  -0.927   2.131   6.023 -1.2205  0.3965 -0.3075
   30MOL0     C 3856  -0.942   2.025   5.932 -0.1200 -0.1293 -0.2627
   30MOL0     C 3857  -1.068   1.947   5.941  0.5323 -0.2959  0.1785
   30MOL0     O 3858  -1.077   1.845   5.850 -0.0618 -0.6604  0.3924
   30MOL0     C 3859  -1.183   1.759   5.851  0.2535 -0.6395 -0.3209
   30MOL0     C 3860  -1.193   1.660   5.954  0.3551  0.0009 -0.6114
   30MOL0     C 3861  -1.302   1.578   5.964  0.6243  0.4569  0.2607
   30MOL0     C 3862  -1.397   1.585   5.857  0.6206 -0.3793  0.2466
   30MOL0     O 3863  -1.507   1.504   5.867 -0.1571  0.5296  0.1588
   30MOL0     C 3864  -1.593   1.480   5.749  0.1532 -0.1684 -0.3620
   30MOL0     C 3865  -1.709   1.585   5.753 -0.8102  0.2353 -0.4869
   30MOL0     C 3866  -1.792   1.571   5.878  0.1632  0.3864 -0.4582
   30MOL0     C 3867  -1.925   1.636   5.850 -0.0177  0.1245  0.2808
   30MOL0     C 3868  -2.027   1.632   5.961 -0.7068 -0.2535 -0.7639
   30MOL0     C 3869  -2.170   1.642   5.914  0.3718  0.1889  0.5301
   30MOL0     C 3870  -2.272   1.632   6.022  0.4072  0.1639 -0.2503
   30MOL0     C 3871  -2.244   1.735   6.127 -0.0871  0.3122 -0.6372
   30MOL0    Cl 3872  -2.235   1.910   6.058 -0.4817  0.3170 -0.3778
   30MOL0     C 3873  -1.383   1.681   5.754  0.6197  0.9256 -0.2339
   30MOL0     C 3874  -1.280   1.769   5.753  0.2309  0.6353 -0.9214
   30MOL0     O 3875  -1.150   1.980   6.024 -0.3915 -0.2036  0.3529
   30MOL0     C 3876  -0.844   1.993   5.841 -0.6988 -0.4533  0.8528
   30MOL0     C 3877  -0.720   2.068   5.837 -0.2644  0.1703  0.1138
   30MOL0     N 3878  -0.176   2.398   6.225 -0.3647 -0.6693 -0.1186
   30MOL0     N 3879  -0.095   2.459   6.309 -0.9165  0.2942 -0.3473
   30MOL0     C 3880   1.167   2.930   5.887 -0.1669  0.0230 -0.6476
   30MOL0     C 3881   1.279   2.998   5.847  0.1634 -0.0489 -0.1652
   30MOL0     C 3882   1.599   3.342   5.793 -0.2534  0.4569  0.5049
   30MOL0     C 3883   1.648   3.469   5.758  0.2879  0.3251 -0.9075
   30MOL0     C 3884   1.768   3.493   5.685  0.3488 -0.7528  0.0988
   30MOL0     C 3885   1.838   3.385   5.624  1.4520 -0.0188  0.2312
   30MOL0     O 3886   1.951   3.396   5.553  0.0431  0.1072 -0.4320
   30MOL0     C 3887   2.015   3.523   5.514 -0.4731  0.0745  0.2871
   30MOL0     C 3888   2.141   3.498   5.417 -0.1358  0.3101  0.1145
   30MOL0     C 3889   2.270   3.457   5.486 -0.1529 -0.0180  0.0371
   30MOL0     C 3890   2.379   3.442   5.382 -0.6061  0.2703 -1.5202
   30MOL0     C 3891   2.503   3.494   5.428 -0.2731  0.6289 -0.5709
   30MOL0     C 3892   2.608   3.543   5.471  0.1328 -0.6019 -0.6339
   30MOL0     C 3893   1.775   3.257   5.637  0.6141  0.1542 -0.2402
   30MOL0     C 3894   1.667   3.238   5.726  0.6199 -0.0851  0.9286
   30MOL0     H 3895   1.228   3.282   6.022  0.1461  1.1252 -1.1642
   30MOL0     H 3896   1.033   3.179   6.072 -0.4026 -0.5706  0.7859
   30MOL0     H 3897   0.848   3.055   6.122 -1.1555 -2.3452 -1.8158
   30MOL0     H 3898   0.989   2.980   6.220 -0.4597 -2.6121  2.1134
   30MOL0     H 3899   0.789   2.908   6.314  0.8230 -0.0963 -0.6395
   30MOL0     H 3900   0.884   2.779   6.237 -3.4604 -3.0305 -1.1374
   30MOL0     H 3901   0.744   2.750   6.072  1.4157  0.2295  1.0592
   30MOL0     H 3902   0.662   2.911   6.083 -0.9269  0.5840  1.4667
   30MOL0     H 3903   0.634   2.663   6.262 -2.7460 -2.6055 -1.7875
   30MOL0     H 3904   0.589   2.823   6.318 -1.1072 -2.0815  1.0307
   30MOL0     H 3905   0.490   2.672   6.071 -0.0826  0.0998  0.6609
   30MOL0     H 3906   0.418   2.832   6.120 -0.4191 -0.2843 -1.9759
   30MOL0     H 3907   0.344   2.735   6.336 -3.9330 -0.7888  0.0738
   30MOL0     H 3908   0.420   2.582   6.292  0.0497 -0.6406 -0.9319
   30MOL0     H 3909   0.198   2.701   6.122 -0.5582 -0.7901 -1.0171
   30MOL0     H 3910   0.267   2.545   6.112 -1.6318  0.0915  1.0426
   30MOL0     H 3911   0.119   2.642   6.371 -0.8387 -1.7182  1.0405
   30MOL0     H 3912   0.187   2.480   6.340  0.8501 -0.8750 -2.2831
   30MOL0     H 3913   0.063   2.513   6.024  0.3836 -0.9730 -0.6174
   30MOL0     H 3914  -0.088   2.251   5.957  1.8073  1.7873 -1.3802
   30MOL0     H 3915  -0.158   2.399   5.893 -0.6128  0.9104  0.6536
   30MOL0     H 3916  -0.311   2.208   6.084  1.0496  0.2306 -0.6308
   30MOL0     H 3917  -0.318   2.215   5.905  0.2206  3.7289 -3.7853
   30MOL0     H 3918  -0.376   2.460   6.072  0.4028 -0.3786  0.5099
   30MOL0     H 3919  -0.415   2.433   5.900 -0.7024  3.3946  0.6123
   30MOL0     H 3920  -0.631   2.412   5.976  1.7655  2.1238 -2.8696
   30MOL0     H 3921  -0.569   2.303   6.112  2.4073 -3.2254 -1.5669
   30MOL0     H 3922  -0.801   2.280   6.089 -0.1027  3.2682 -2.5585
   30MOL0     H 3923  -0.993   2.155   6.105 -2.2745  0.6545 -1.1969
   30MOL0     H 3924  -1.108   1.647   6.020 -0.7616 -1.5916  0.5752
   30MOL0     H 3925  -1.299   1.501   6.040 -1.5702  0.0500  0.0097
   30MOL0     H 3926  -1.638   1.380   5.749 -3.8361  1.4453  0.2441
   30MOL0     H 3927  -1.540   1.480   5.653  1.0336 -1.0005  0.1026
   30MOL0     H 3928  -1.774   1.569   5.667  0.4077  1.0967 -1.6136
   30MOL0     H 3929  -1.674   1.688   5.763 -0.8998  0.0568  2.8062
   30MOL0     H 3930  -1.740   1.619   5.962  1.1940  1.4529 -1.6716
   30MOL0     H 3931  -1.800   1.465   5.905 -0.7709  1.5292  5.0920
   30MOL0     H 3932  -1.913   1.740   5.818  2.3422 -0.7548 -2.0798
   30MOL0     H 3933  -1.966   1.578   5.767  0.8471 -1.2227  0.7606
   30MOL0     H 3934  -2.003   1.696   6.047 -1.1743 -1.4154  0.2653
   30MOL0     H 3935  -2.011   1.531   6.001  0.9380  0.1156 -0.4025
   30MOL0     H 3936  -2.190   1.556   5.850  0.2576  0.5510  0.0720
   30MOL0     H 3937  -2.187   1.733   5.855  0.0767 -1.0266 -1.3344
   30MOL0     H 3938  -2.372   1.649   5.980 -1.2499  0.7086  3.4665
   30MOL0     H 3939  -2.271   1.528   6.056 -1.0456 -0.7879 -2.8727
   30MOL0     H 3940  -2.153   1.709   6.183 -1.3051 -1.4433  0.6404
   30MOL0     H 3941  -2.325   1.729   6.200  1.1933  1.4373  0.9535
   30MOL0     H 3942  -1.448   1.691   5.668  0.8657  2.4904 -0.2724
   30MOL0     H 3943  -1.299   1.841   5.675 -2.0038  1.8935  0.6754
   30MOL0     H 3944  -0.864   1.919   5.764  1.4405  2.3535 -2.7515
   30MOL0     H 3945  -0.654   2.047   5.754  0.6349  1.9588  0.3250
   30MOL0     H 3946   1.144   2.837   5.837 -0.7741 -1.3910  2.0394
   30MOL0     H 3947   1.345   2.960   5.770 -0.8862 -0.6026 -0.8192
   30MOL0     H 3948   1.587   3.549   5.800  0.2740 -0.0379 -0.2365
   30MOL0     H 3949   1.811   3.590   5.660 -1.5662  0.1613  0.2160
   30MOL0     H 3950   2.050   3.580   5.601  0.3785  0.2890 -0.1851
   30MOL0     H 3951   1.949   3.592   5.460  2.6184  3.0776  0.0038
   30MOL0     H 3952   2.125   3.429   5.334  2.8427  1.1434 -1.2833
   30MOL0     H 3953   2.151   3.589   5.357  1.8591 -0.4557 -0.8026
   30MOL0     H 3954   2.253   3.374   5.555 -0.6912 -0.5281 -0.6918
   30MOL0     H 3955   2.295   3.535   5.558  0.7658 -1.8075  1.7498
   30MOL0     H 3956   2.378   3.335   5.360 -1.9229 -0.7787  2.7885
   30MOL0     H 3957   2.352   3.488   5.287  1.8065 -0.6159 -2.7376
   30MOL0     H 3958   2.694   3.594   5.509 -0.6225  0.4726 -0.3077
   30MOL0     H 3959   1.820   3.171   5.588  2.1504 -1.7409  4.0329
   30MOL0     H 3960   1.635   3.134   5.735  0.0902 -0.0174 -0.0266
   31MOL0     O 3961  10.110   6.234   5.352 -0.4150  0.0918  0.0987
   31MOL0     C 3962  10.130   6.116   5.404  0.0384 -0.3988 -0.0068
   31MOL0     O 3963  10.035   6.043   5.468  0.3378  0.2486  0.7636
   31MOL0     C 3964   9.956   6.115   5.547 -0.1722  0.7828 -0.2069
   31MOL0     C 3965   9.859   6.212   5.500  0.1688  0.7397 -0.7149
   31MOL0     C 3966   9.786   6.288   5.591  0.0855  0.5019 -0.7241
   31MOL0     C 3967   9.814   6.283   5.726 -0.8124  0.1623  0.0330
   31MOL0     O 3968   9.761   6.364   5.820  0.6108 -0.7878  0.6646
   31MOL0     C 3969   9.634   6.437   5.805  0.0282  0.3078  0.7286
   31MOL0     C 3970   9.521   6.329   5.796  0.5266  1.0543 -0.6096
   31MOL0     C 3971   9.397   6.387   5.736  1.0615  0.0350 -0.5722
   31MOL0     C 3972   9.330   6.482   5.835  0.4047  0.3628  0.4783
   31MOL0     C 3973   9.191   6.518   5.791  0.6409 -0.0879  0.9220
   31MOL0     C 3974   9.137   6.638   5.860  0.6281 -0.1944  1.0354
   31MOL0     C 3975   9.013   6.703   5.785  0.2550  0.0472 -0.3349
   31MOL0     C 3976   8.880   6.634   5.795 -0.5039 -0.4838  0.0811
   31MOL0     N 3977   8.756   6.725   5.789 -0.2978  0.8597  0.4285
   31MOL0     C 3978   8.694   6.783   5.888 -0.3092  0.3618  0.1454
   31MOL0     C 3979   8.595   6.859   5.830  0.2624  0.6438 -0.0928
   31MOL0     C 3980   8.492   6.942   5.905 -1.1327  0.0935  0.5735
   31MOL0     C 3981   8.396   6.854   5.991 -0.4557  0.7423 -0.7273
   31MOL0     C 3982   8.320   6.751   5.902  0.1307 -0.8292 -0.1577
   31MOL0     C 3983   8.190   6.831   5.862 -0.9105  0.2349  0.2775
   31MOL0     O 3984   8.098   6.854   5.975 -0.5536 -0.2255 -0.3686
   31MOL0     C 3985   7.997   6.940   5.952 -0.7538 -0.2979 -0.1834
   31MOL0     C 3986   7.957   6.999   5.831  0.1526  1.4990 -0.2697
   31MOL0     C 3987   7.841   7.069   5.817  0.4603 -0.2905  0.8766
   31MOL0     C 3988   7.760   7.093   5.930  0.2107  0.3934  0.2790
   31MOL0     C 3989   7.635   7.157   5.924  0.6084 -0.6312  0.4662
   31MOL0     O 3990   7.561   7.174   5.806 -0.7757  0.5130  0.4560
   31MOL0     C 3991   7.432   7.225   5.803  0.0957  0.3089 -0.4556
   31MOL0     C 3992   7.387   7.278   5.682 -0.8552  0.1588  0.5309
   31MOL0     C 3993   7.251   7.318   5.671 -0.6910 -0.4731  0.0199
   31MOL0     C 3994   7.160   7.308   5.777 -0.2617  0.7299 -0.7328
   31MOL0     O 3995   7.039   7.352   5.782  0.2606  0.3620 -0.1786
   31MOL0     C 3996   7.003   7.460   5.694 -0.6036  0.6260 -0.5210
   31MOL0     C 3997   6.897   7.546   5.765 -0.2394 -0.2677  0.5365
   31MOL0     C 3998   6.775   7.456   5.814 -0.4976 -0.0230  0.8532
   31MOL0     C 3999   6.709   7.366   5.706 -0.1946 -0.0444 -0.1116
   31MOL0     C 4000   6.619   7.449   5.610 -0.7761  0.7321  0.6132
   31MOL0     C 4001   6.497   7.500   5.675  0.1886 -0.2914 -0.4157
   31MOL0     C 4002   6.406   7.390   5.738  0.6041  0.0116 -0.0690
   31MOL0     C 4003   6.273   7.447   5.781  0.0445 -1.2727  0.0183
   31MOL0    Cl 4004   6.159   7.505   5.664 -0.3054  0.0144 -0.2378
   31MOL0     C 4005   7.205   7.251   5.894  0.6918 -0.1510  0.1700
   31MOL0     C 4006   7.335   7.212   5.908 -0.5680  0.1967  0.1324
   31MOL0     O 4007   7.599   7.204   6.025  0.1541  0.1462 -0.5671
   31MOL0     C 4008   7.805   7.046   6.057 -0.1943 -1.0295 -1.2348
   31MOL0     C 4009   7.926   6.975   6.067  0.1718 -0.2161  1.3054
   31MOL0     N 4010   8.606   6.845   5.694 -0.4129  0.2721 -0.4784
   31MOL0     N 4011   8.705   6.757   5.663  0.4335 -0.1590  1.0342
   31MOL0     C 4012   9.916   6.194   5.772  0.6824  0.0495 -0.8832
   31MOL0     C 4013   9.980   6.105   5.685 -0.7598 -0.2180  0.3415
   31MOL0     C 4014  10.261   6.053   5.386 -0.0092  0.6334  0.4950
   31MOL0     C 4015  10.289   5.928   5.437 -0.5178 -0.3943 -0.2792
   31MOL0     C 4016  10.417   5.872   5.422 -0.1707  0.2126  0.1849
   31MOL0     C 4017  10.525   5.940   5.358 -0.2616  0.3547  0.0342
   31MOL0     O 4018  10.646   5.877   5.372  0.0284 -0.1801  0.0302
   31MOL0     C 4019  10.764   5.963   5.372 -0.6692  0.1361  0.4755
   31MOL0     C 4020  10.843   5.976   5.232 -0.4150 -0.6856  0.3453
   31MOL0     C 4021  10.859   5.849   5.159 -0.6928 -0.1927  0.3366
   31MOL0     C 4022  10.933   5.867   5.032  0.2913  0.4691  0.2231
   31MOL0     C 4023  10.976   5.742   4.971  0.3219  0.7735 -0.6388
   31MOL0     C 4024  11.010   5.632   4.929  0.6041  0.2645  0.2867
   31MOL0     C 4025  10.499   6.065   5.294 -0.2694  0.0732  0.4720
   31MOL0     C 4026  10.366   6.118   5.311  0.1010 -0.1891 -0.3624
   31MOL0     H 4027   9.843   6.216   5.393 -2.5874  2.5017 -0.3218
   31MOL0     H 4028   9.714   6.356   5.549  1.2901  2.5277  0.3470
   31MOL0     H 4029   9.635   6.492   5.711 -0.8164  0.2069  0.6455
   31MOL0     H 4030   9.623   6.504   5.891  1.2173  1.2259  0.1914
   31MOL0     H 4031   9.517   6.291   5.899  4.0688  1.4043 -0.2419
   31MOL0     H 4032   9.554   6.250   5.728 -1.5791  0.8403 -1.4611
   31MOL0     H 4033   9.341   6.299   5.706  0.9210 -0.7147  1.6578
   31MOL0     H 4034   9.418   6.442   5.644 -1.6445  1.2199 -0.5807
   31MOL0     H 4035   9.325   6.436   5.934 -0.5621 -0.5697  0.0041
   31MOL0     H 4036   9.385   6.572   5.864 -1.6799  1.1449  2.3005
   31MOL0     H 4037   9.118   6.439   5.811  0.1270 -0.3556 -1.6234
   31MOL0     H 4038   9.193   6.534   5.683  3.1181  0.7404  1.0296
   31MOL0     H 4039   9.212   6.718   5.863  2.2487 -1.7005  2.3236
   31MOL0     H 4040   9.112   6.617   5.965 -1.0537 -3.0945  0.1578
   31MOL0     H 4041   8.996   6.803   5.825 -2.9189  0.3617 -2.1814
   31MOL0     H 4042   9.030   6.699   5.677 -1.4931  1.5488 -0.7100
   31MOL0     H 4043   8.874   6.566   5.880  1.1501 -0.6876  0.0769
   31MOL0     H 4044   8.888   6.560   5.714 -1.0335  1.7394 -2.1182
   31MOL0     H 4045   8.712   6.775   5.995 -1.5087  3.2767  0.6799
   31MOL0     H 4046   8.433   6.998   5.832  0.4669  1.2300  0.0844
   31MOL0     H 4047   8.530   7.026   5.964  0.3439  1.3115 -1.9397
   31MOL0     H 4048   8.328   6.918   6.048  0.5591 -0.6190  2.1996
   31MOL0     H 4049   8.454   6.804   6.069  1.0783  1.1847 -1.5260
   31MOL0     H 4050   8.367   6.721   5.808  0.6281  2.4301 -1.0717
   31MOL0     H 4051   8.309   6.657   5.956  4.5713 -0.6811  1.4282
   31MOL0     H 4052   8.146   6.788   5.771  1.9314 -0.1771 -1.0070
   31MOL0     H 4053   8.226   6.928   5.827  0.3096  0.5561  2.2780
   31MOL0     H 4054   8.006   6.979   5.736 -0.8013 -0.3193 -0.4285
   31MOL0     H 4055   7.805   7.101   5.720  1.4923 -1.2766  0.1504
   31MOL0     H 4056   7.447   7.286   5.592 -1.8767  1.4074 -0.0671
   31MOL0     H 4057   7.233   7.364   5.575  3.6548  0.7798 -0.3838
   31MOL0     H 4058   6.961   7.433   5.597 -1.9830  2.6129 -0.5588
   31MOL0     H 4059   7.083   7.530   5.668 -1.4588  2.9106  2.3407
   31MOL0     H 4060   6.859   7.617   5.691  1.2511 -1.4493 -1.4753
   31MOL0     H 4061   6.938   7.604   5.847  1.9369 -1.6532  0.4972
   31MOL0     H 4062   6.700   7.525   5.852  0.2224  1.6890 -0.6605
   31MOL0     H 4063   6.804   7.392   5.898  1.1802  0.1685  0.4608
   31MOL0     H 4064   6.786   7.316   5.647 -1.9216 -0.3203 -2.2863
   31MOL0     H 4065   6.650   7.290   5.757  0.1975 -2.0164 -2.4095
   31MOL0     H 4066   6.585   7.402   5.517 -0.0757  2.8612 -0.7730
   31MOL0     H 4067   6.678   7.533   5.574  0.7606  0.3939  2.2125
   31MOL0     H 4068   6.433   7.560   5.610  1.8914  1.5553 -0.4961
   31MOL0     H 4069   6.537   7.569   5.749  2.5402 -0.1089 -1.7282
   31MOL0     H 4070   6.387   7.315   5.662 -2.4204  2.4005 -1.9161
   31MOL0     H 4071   6.461   7.350   5.824  1.8621 -0.9471 -1.2827
   31MOL0     H 4072   6.295   7.525   5.854 -3.2828 -2.2643  2.3065
   31MOL0     H 4073   6.226   7.370   5.842 -2.9014  0.9050  0.7120
   31MOL0     H 4074   7.125   7.233   5.965  2.1777 -3.0183  1.2782
   31MOL0     H 4075   7.373   7.160   5.995 -0.1249  1.0956  0.4898
   31MOL0     H 4076   7.754   7.070   6.150 -1.7395  1.0793 -2.5464
   31MOL0     H 4077   7.957   6.940   6.165 -0.0684 -1.4555  0.9538
   31MOL0     H 4078   9.935   6.188   5.879 -1.5733 -2.2882 -0.5085
   31MOL0     H 4079  10.061   6.045   5.725  2.9277  3.1320 -1.4193
   31MOL0     H 4080  10.212   5.873   5.491  1.9601 -2.3911  1.4408
   31MOL0     H 4081  10.450   5.772   5.448  0.6854  0.0182 -1.5222
   31MOL0     H 4082  10.819   5.907   5.448 -1.1304 -1.0069 -0.0091
   31MOL0     H 4083  10.752   6.059   5.422 -1.6649 -0.0530  0.6259
   31MOL0     H 4084  10.791   6.056   5.178 -0.2937  0.9149  2.4652
   31MOL0     H 4085  10.943   6.013   5.256 -1.0162  0.4730  1.1690
   31MOL0     H 4086  10.756   5.815   5.145 -1.7363  2.7205  0.3316
   31MOL0     H 4087  10.903   5.771   5.222 -1.1025  1.0860  2.3187
   31MOL0     H 4088  10.864   5.916   4.963  1.2710 -0.0320 -1.1758
   31MOL0     H 4089  11.024   5.928   5.036  1.6402 -1.4640  0.9218
   31MOL0     H 4090  11.043   5.538   4.890 -0.1318  0.3235 -0.5039
   31MOL0     H 4091  10.574   6.110   5.230 -0.4265 -0.0712  0.1824
   31MOL0     H 4092  10.337   6.211   5.262  0.6028 -1.6822 -3.7297
   32MOL0     O 4093   1.772   8.171   9.764 -0.0630 -0.1797 -0.1293
   32MOL0     C 4094   1.841   8.087   9.816  0.3529 -0.0508  0.9608
   32MOL0     O 4095   1.817   7.947   9.811  0.0246 -0.0340  0.2884
   32MOL0     C 4096   1.743   7.887   9.720 -0.7028 -0.2442  0.1037
   32MOL0     C 4097   1.712   7.941   9.592  0.6172  0.8122 -0.3876
   32MOL0     C 4098   1.634   7.867   9.503 -0.0838 -1.5128 -0.1826
   32MOL0     C 4099   1.598   7.735   9.528  0.3519  0.0329 -0.1238
   32MOL0     O 4100   1.528   7.666   9.426 -0.1904 -0.4515  0.2319
   32MOL0     C 4101   1.434   7.564   9.473 -0.1790  0.6729  0.1607
   32MOL0     C 4102   1.484   7.421   9.466 -0.3967 -0.6481 -1.2351
   32MOL0     C 4103   1.499   7.374   9.317  0.4069 -0.2015  0.1825
   32MOL0     C 4104   1.436   7.231   9.284 -0.5396  0.4801  0.2930
   32MOL0     C 4105   1.480   7.198   9.146  0.8040  0.3873 -0.8890
   32MOL0     C 4106   1.404   7.068   9.097  0.2082  0.9316  0.5348
   32MOL0     C 4107   1.425   7.046   8.949 -1.2798 -0.1556  0.1988
   32MOL0     C 4108   1.401   6.903   8.901 -0.6781  0.5283 -1.2282
   32MOL0     N 4109   1.266   6.902   8.854 -0.7156 -0.1885  0.7416
   32MOL0     C 4110   1.213   6.937   8.730 -0.1757  0.6700 -0.1271
   32MOL0     C 4111   1.079   6.916   8.742  0.2252 -0.8291 -0.3035
   32MOL0     C 4112   0.973   6.936   8.635  0.2494  0.4308  0.7236
   32MOL0     C 4113   0.892   7.072   8.644 -1.2715  0.0878 -0.4859
   32MOL0     C 4114   0.781   7.062   8.749 -0.0740  0.9713  0.3655
   32MOL0     C 4115   0.660   6.987   8.697  0.5073 -0.4550 -0.0701
   32MOL0     O 4116   0.579   7.065   8.616  0.1986  0.0731  0.0439
   32MOL0     C 4117   0.452   7.101   8.660 -1.3062 -1.0129 -0.7046
   32MOL0     C 4118   0.368   7.145   8.559 -0.6039 -0.4823  0.5392
   32MOL0     C 4119   0.238   7.184   8.579 -0.0573  0.4750 -0.2324
   32MOL0     C 4120   0.182   7.173   8.711  0.8382 -0.3848  0.1728
   32MOL0     C 4121   0.037   7.198   8.735  0.2645 -0.1622 -0.6558
   32MOL0     O 4122  -0.036   7.214   8.625 -0.0988  0.1071  0.0095
   32MOL0     C 4123  -0.178   7.212   8.639 -0.6004  0.1408  0.0791
   32MOL0     C 4124  -0.235   7.255   8.520 -0.0424  0.7234 -0.6061
   32MOL0     C 4125  -0.371   7.251   8.503 -0.2147  0.6412 -0.6272
   32MOL0     C 4126  -0.455   7.216   8.603  0.2489  0.4225 -0.7132
   32MOL0     O 4127  -0.593   7.187   8.590 -0.5327 -0.2549 -0.1413
   32MOL0     C 4128  -0.668   7.240   8.477  0.5805  0.8150  0.6212
   32MOL0     C 4129  -0.808   7.183   8.488  0.3952  0.1441  0.7315
   32MOL0     C 4130  -0.876   7.225   8.361  0.3897  0.8251 -0.3174
   32MOL0     C 4131  -1.014   7.165   8.336 -0.3730  0.0318 -0.2587
   32MOL0     C 4132  -1.116   7.206   8.437 -0.1793 -0.0215  0.5025
   32MOL0     C 4133  -1.241   7.101   8.435 -0.3920  0.2282 -0.0127
   32MOL0     C 4134  -1.362   7.164   8.504 -0.2630  0.3456 -0.3572
   32MOL0     C 4135  -1.491   7.072   8.495 -0.9628 -0.1325  0.3508
   32MOL0    Cl 4136  -1.473   6.928   8.584 -0.1695  0.4302 -0.0008
   32MOL0     C 4137  -0.401   7.162   8.716 -0.9746  0.3671 -1.2098
   32MOL0     C 4138  -0.260   7.166   8.738  0.8655 -0.0663  0.4203
   32MOL0     O 4139   0.003   7.205   8.857 -0.0658 -0.3276  0.2263
   32MOL0     C 4140   0.259   7.124   8.814 -0.1729  0.0455  0.7213
   32MOL0     C 4141   0.399   7.104   8.793 -0.7644 -0.5762 -0.1244
   32MOL0     N 4142   1.053   6.883   8.874 -0.2846  0.9392 -0.9678
   32MOL0     N 4143   1.167   6.863   8.935  0.0942 -0.2005  1.1018
   32MOL0     C 4144   1.632   7.678   9.647  0.3229  0.1008 -0.7377
   32MOL0     C 4145   1.697   7.754   9.740  0.4535 -0.4711 -1.1240
   32MOL0     C 4146   1.961   8.135   9.889 -0.1989  0.3843  0.4046
   32MOL0     C 4147   2.012   8.266   9.875 -0.0005  0.4167 -0.7046
   32MOL0     C 4148   2.136   8.297   9.932  0.4136  0.2886 -0.1364
   32MOL0     C 4149   2.204   8.199  10.017 -0.0179 -0.5968 -0.5564
   32MOL0     O 4150   2.319   8.245  10.077  0.1315 -0.0832  0.2106
   32MOL0     C 4151   2.364   8.186  10.196  0.3019  0.7057  0.2883
   32MOL0     C 4152   2.501   8.228  10.224  1.0640  0.1846 -0.6871
   32MOL0     C 4153   2.516   8.380  10.220 -0.0430  0.2197 -0.1801
   32MOL0     C 4154   2.645   8.432  10.290 -0.5374 -0.0279  0.4868
   32MOL0     C 4155   2.767   8.382  10.225 -0.2926  0.4955 -0.2833
   32MOL0     C 4156   2.879   8.350  10.176  0.3674 -0.6852  0.5099
   32MOL0     C 4157   2.147   8.075  10.044 -0.6160 -0.4295 -0.2083
   32MOL0     C 4158   2.031   8.042   9.968 -0.1749 -0.7890  0.0207
   32MOL0     H 4159   1.726   8.046   9.568  2.0687  0.2286 -2.3111
   32MOL0     H 4160   1.594   7.915   9.414 -4.5660 -0.4439  2.1031
   32MOL0     H 4161   1.343   7.559   9.413  0.2700 -1.6242 -0.4246
   32MOL0     H 4162   1.395   7.589   9.572 -0.6099  1.4600 -0.1952
   32MOL0     H 4163   1.402   7.368   9.514 -1.9150  1.8174 -0.9291
   32MOL0     H 4164   1.579   7.418   9.522 -0.1055 -1.6955 -1.7700
   32MOL0     H 4165   1.605   7.378   9.289  0.3010  0.1184 -0.1678
   32MOL0     H 4166   1.445   7.448   9.257 -1.6210 -1.6347  0.1270
   32MOL0     H 4167   1.478   7.153   9.348 -1.9956  0.6802  1.5662
   32MOL0     H 4168   1.327   7.242   9.285 -0.5992 -0.0204 -0.4263
   32MOL0     H 4169   1.589   7.192   9.143  0.8743  0.5284  0.6176
   32MOL0     H 4170   1.457   7.285   9.085 -0.2192  1.3327  0.7737
   32MOL0     H 4171   1.297   7.087   9.102  0.0734 -0.0442  1.5998
   32MOL0     H 4172   1.430   6.979   9.155  1.2132 -0.5725 -2.0489
   32MOL0     H 4173   1.371   7.122   8.891  1.4930  0.2282 -2.1060
   32MOL0     H 4174   1.530   7.062   8.926 -1.2296  0.2848  0.7090
   32MOL0     H 4175   1.406   6.834   8.985 -1.1701  2.5038  0.5059
   32MOL0     H 4176   1.475   6.881   8.824  1.0286  4.3086 -0.9068
   32MOL0     H 4177   1.277   6.954   8.644  0.6382 -0.7425  0.1641
   32MOL0     H 4178   0.916   6.844   8.627  0.9172  0.1238 -0.9961
   32MOL0     H 4179   1.023   6.958   8.540  0.3402  1.0061  0.8979
   32MOL0     H 4180   0.868   7.118   8.548 -3.7219 -1.2364 -0.5777
   32MOL0     H 4181   0.963   7.142   8.688 -2.0337  0.7410 -0.2731
   32MOL0     H 4182   0.820   7.009   8.836 -0.5953 -1.1045 -0.5906
   32MOL0     H 4183   0.761   7.160   8.793  2.7659  1.1515  1.4181
   32MOL0     H 4184   0.606   6.942   8.781 -2.9252  0.0280 -1.8213
   32MOL0     H 4185   0.701   6.911   8.631  0.1920  1.2012 -2.3226
   32MOL0     H 4186   0.405   7.152   8.458 -0.6792 -0.5578  0.5064
   32MOL0     H 4187   0.164   7.210   8.503 -3.7514  2.8123  3.7201
   32MOL0     H 4188  -0.164   7.296   8.450 -1.0188  1.5514 -1.1470
   32MOL0     H 4189  -0.403   7.275   8.402  1.0613  0.3198 -1.1270
   32MOL0     H 4190  -0.626   7.210   8.381 -0.4745  0.9682  0.0931
   32MOL0     H 4191  -0.663   7.349   8.468  1.3652  0.6267 -2.9790
   32MOL0     H 4192  -0.846   7.224   8.582 -0.5511 -1.5874  1.1454
   32MOL0     H 4193  -0.821   7.075   8.491 -0.4614  0.2468  0.9154
   32MOL0     H 4194  -0.816   7.194   8.274  0.9746  2.2923 -0.4658
   32MOL0     H 4195  -0.888   7.334   8.360 -6.1278  0.5259  1.5165
   32MOL0     H 4196  -1.048   7.197   8.237  1.1490 -3.4952 -2.1314
   32MOL0     H 4197  -1.004   7.056   8.330 -1.1462  0.0296 -3.5858
   32MOL0     H 4198  -1.154   7.306   8.416 -0.9274  0.4568  3.6421
   32MOL0     H 4199  -1.061   7.212   8.532  1.0700 -3.4529  0.1514
   32MOL0     H 4200  -1.221   7.007   8.486 -0.0283  0.4499  0.2562
   32MOL0     H 4201  -1.258   7.087   8.328  1.8256 -0.7774 -0.2821
   32MOL0     H 4202  -1.338   7.181   8.610  1.2014  2.2616 -0.9287
   32MOL0     H 4203  -1.380   7.258   8.450  0.8712  0.0233 -1.3421
   32MOL0     H 4204  -1.514   7.051   8.390 -0.1850 -0.0182  0.1509
   32MOL0     H 4205  -1.582   7.117   8.537 -0.8086  1.6869 -1.1024
   32MOL0     H 4206  -0.457   7.108   8.791  1.0121  2.3076  1.9002
   32MOL0     H 4207  -0.215   7.121   8.826 -0.2303 -4.1797 -0.8810
   32MOL0     H 4208   0.222   7.115   8.915 -1.2423  4.2000  0.8649
   32MOL0     H 4209   0.458   7.069   8.877  0.4700  0.7462 -0.3983
   32MOL0     H 4210   1.603   7.575   9.667  1.1312 -0.1733 -0.9504
   32MOL0     H 4211   1.706   7.701   9.835 -3.7826  3.0036  1.6092
   32MOL0     H 4212   1.965   8.338   9.809  1.0475  0.6749 -1.1833
   32MOL0     H 4213   2.189   8.388   9.908 -1.5533  1.5993  0.2365
   32MOL0     H 4214   2.370   8.077  10.191 -0.7533  0.6526 -0.0552
   32MOL0     H 4215   2.292   8.208  10.276  1.2124 -0.9843  1.6489
   32MOL0     H 4216   2.535   8.191  10.321 -2.0527 -2.5883 -0.4908
   32MOL0     H 4217   2.569   8.180  10.153  0.8910 -0.2702 -0.5491
   32MOL0     H 4218   2.426   8.420  10.269  1.2390  3.3033 -0.1177
   32MOL0     H 4219   2.526   8.395  10.112 -0.4347 -1.8442 -0.5482
   32MOL0     H 4220   2.634   8.541  10.284 -1.6885 -0.1972 -3.7281
   32MOL0     H 4221   2.646   8.406  10.396  3.0630 -1.2474  0.3057
   32MOL0     H 4222   2.972   8.305  10.145  0.6787 -0.6053  1.2981
   32MOL0     H 4223   2.203   7.991  10.083 -2.2927 -1.1539  0.7487
   32MOL0     H 4224   1.985   7.944   9.972 -1.7642 -0.2779 -2.6020
   33MOL0     O 4225   7.673   2.757   4.289 -0.3358 -0.4828 -0.4464
   33MOL0     C 4226   7.633   2.814   4.393 -0.3642  1.2730  0.3679
   33MOL0     O 4227   7.707   2.858   4.493  0.5017 -0.6506 -0.8585
   33MOL0     C 4228   7.845   2.876   4.481 -0.1127  1.0427  0.4983
   33MOL0     C 4229   7.933   2.785   4.427 -0.4759  0.6545  0.1183
   33MOL0     C 4230   8.076   2.812   4.410  0.3275 -0.0516  0.5598
   33MOL0     C 4231   8.124   2.932   4.465  0.1089 -1.4123  0.0989
   33MOL0     O 4232   8.255   2.970   4.456  0.1663 -0.1716 -0.0149
   33MOL0     C 4233   8.362   2.863   4.451  0.0213  0.9455  0.2154
   33MOL0     C 4234   8.494   2.930   4.483  0.7809 -0.7024  0.4128
   33MOL0     C 4235   8.614   2.838   4.474 -0.0132  0.9204  0.5744
   33MOL0     C 4236   8.741   2.896   4.535 -0.0624  0.2070  0.0738
   33MOL0     C 4237   8.859   2.800   4.529  0.3262  0.1433 -0.0318
   33MOL0     C 4238   8.927   2.793   4.395  0.2602 -0.2282  0.5649
   33MOL0     C 4239   9.038   2.690   4.389 -0.6241 -0.1954  0.2233
   33MOL0     C 4240   9.139   2.705   4.271 -0.1099  0.2352 -0.0389
   33MOL0     N 4241   9.077   2.693   4.136 -0.3535  0.8140 -0.1930
   33MOL0     C 4242   8.994   2.596   4.088  0.2033  0.3268  0.8477
   33MOL0     C 4243   8.995   2.610   3.949 -0.5760  0.3198 -0.2583
   33MOL0     C 4244   8.915   2.520   3.854 -0.4675 -0.7290 -0.0380
   33MOL0     C 4245   8.768   2.562   3.880 -0.3581  0.4708  0.1110
   33MOL0     C 4246   8.742   2.698   3.809  1.1929 -0.5668  0.0407
   33MOL0     C 4247   8.594   2.726   3.806  0.2739  0.0930  0.2211
   33MOL0     O 4248   8.553   2.855   3.758 -0.0896 -0.4984  0.1130
   33MOL0     C 4249   8.426   2.891   3.775 -0.9048  0.6150 -0.6664
   33MOL0     C 4250   8.395   3.022   3.779  0.5631 -0.2790 -0.8681
   33MOL0     C 4251   8.258   3.056   3.771  0.9194  0.4811  0.2998
   33MOL0     C 4252   8.151   2.967   3.796  0.0056  0.2436 -0.1739
   33MOL0     C 4253   8.010   3.009   3.793  0.8275  0.4514 -1.2067
   33MOL0     O 4254   7.928   2.909   3.805 -0.3114  0.0351 -0.0085
   33MOL0     C 4255   7.790   2.937   3.792 -0.5960  0.4255 -0.2458
   33MOL0     C 4256   7.719   2.950   3.914  0.6444  0.4093  0.2504
   33MOL0     C 4257   7.580   2.975   3.904  0.9093 -0.3679  0.7493
   33MOL0     C 4258   7.511   2.993   3.780  0.3025 -0.0826  0.1436
   33MOL0     O 4259   7.377   3.009   3.775  0.1453 -0.4558  0.3125
   33MOL0     C 4260   7.315   3.101   3.877 -0.8353 -0.0268  0.9537
   33MOL0     C 4261   7.170   3.121   3.839 -0.6010 -1.2448  0.0165
   33MOL0     C 4262   7.102   3.209   3.942 -0.4090  0.6794  0.0999
   33MOL0     C 4263   6.969   3.266   3.883 -0.6743  0.4489 -0.3455
   33MOL0     C 4264   6.862   3.309   3.989  0.2194 -0.1160 -0.8352
   33MOL0     C 4265   6.732   3.351   3.924  0.5583  0.0998 -1.1271
   33MOL0     C 4266   6.731   3.486   3.874 -0.7893  0.9075  0.3006
   33MOL0     C 4267   6.615   3.504   3.779 -0.6738  0.3652  0.0330
   33MOL0    Cl 4268   6.468   3.471   3.859 -0.4397  0.3135 -0.3065
   33MOL0     C 4269   7.586   2.983   3.661 -0.3769  0.8024  0.2359
   33MOL0     C 4270   7.729   2.953   3.672 -0.2433  0.0245 -0.1018
   33MOL0     O 4271   7.979   3.127   3.780 -0.7415 -0.5408 -0.5092
   33MOL0     C 4272   8.189   2.830   3.819 -0.3212 -0.3656  0.1203
   33MOL0     C 4273   8.325   2.797   3.799 -0.1860  0.3684 -0.6297
   33MOL0     N 4274   9.082   2.714   3.918  0.8228 -0.0007 -0.1655
   33MOL0     N 4275   9.130   2.759   4.031 -0.1166 -0.1552  0.2766
   33MOL0     C 4276   8.037   3.026   4.531 -0.5107  0.6715  0.4661
   33MOL0     C 4277   7.898   2.990   4.543  0.2665 -0.0243  0.4650
   33MOL0     C 4278   7.490   2.796   4.421  0.8357 -0.0440  0.0853
   33MOL0     C 4279   7.406   2.731   4.330  0.4853  0.3627 -0.1734
   33MOL0     C 4280   7.272   2.712   4.358  0.3697 -0.0033 -0.1333
   33MOL0     C 4281   7.211   2.746   4.478  0.6896 -0.1482  0.3095
   33MOL0     O 4282   7.080   2.744   4.510  0.1622  0.3012  0.9479
   33MOL0     C 4283   6.991   2.678   4.431 -0.3925  0.8967  0.4345
   33MOL0     C 4284   6.858   2.675   4.516 -0.3668  0.0815 -0.3299
   33MOL0     C 4285   6.777   2.799   4.509  0.0520 -0.5553 -1.5315
   33MOL0     C 4286   6.660   2.798   4.615 -0.6457  0.3218  0.4299
   33MOL0     C 4287   6.590   2.933   4.631 -0.4281 -0.3795 -0.4458
   33MOL0     C 4288   6.522   3.035   4.646 -0.4292  0.5420  0.9071
   33MOL0     C 4289   7.298   2.816   4.575 -0.2477 -0.1160  0.3093
   33MOL0     C 4290   7.434   2.829   4.544  0.5446 -0.0954  0.1532
   33MOL0     H 4291   7.894   2.692   4.388 -0.1414 -0.1388  1.5909
   33MOL0     H 4292   8.150   2.747   4.366  2.4874  1.3217  1.9776
   33MOL0     H 4293   8.364   2.823   4.350  4.0535  0.0436  0.4869
   33MOL0     H 4294   8.340   2.794   4.533  1.7002  0.9412  0.7071
   33MOL0     H 4295   8.493   2.979   4.581 -0.2946  0.2384 -0.0472
   33MOL0     H 4296   8.514   3.007   4.408  0.5088  0.6346  1.6750
   33MOL0     H 4297   8.627   2.825   4.366  0.4113 -1.7316  0.8788
   33MOL0     H 4298   8.587   2.742   4.520  1.3305 -0.7910 -1.9891
   33MOL0     H 4299   8.766   2.989   4.484  1.0416 -1.5349 -2.7760
   33MOL0     H 4300   8.724   2.922   4.640 -0.6369  0.0273  0.0271
   33MOL0     H 4301   8.823   2.700   4.551  0.6156 -0.0680 -0.5179
   33MOL0     H 4302   8.930   2.830   4.607  2.2479 -1.5900 -1.0257
   33MOL0     H 4303   8.979   2.888   4.380 -0.3914 -0.0495 -0.7107
   33MOL0     H 4304   8.850   2.785   4.318 -0.1871  2.5799  0.6154
   33MOL0     H 4305   9.093   2.694   4.483  0.1581 -2.3912 -0.0811
   33MOL0     H 4306   9.001   2.587   4.386  1.0459 -0.9518  2.6410
   33MOL0     H 4307   9.227   2.642   4.286  0.6648  1.4212  0.5201
   33MOL0     H 4308   9.172   2.805   4.300 -0.0364 -0.8439  4.2190
   33MOL0     H 4309   8.935   2.519   4.138  1.3278  0.6246  2.7680
   33MOL0     H 4310   8.926   2.413   3.874 -0.0836 -0.6334  0.2752
   33MOL0     H 4311   8.939   2.551   3.752 -1.7414  1.4607  0.2525
   33MOL0     H 4312   8.758   2.567   3.989 -0.4319  0.4755  0.1044
   33MOL0     H 4313   8.701   2.481   3.848 -2.9959  2.3717  0.4764
   33MOL0     H 4314   8.791   2.789   3.846  0.6203  0.6418 -1.9683
   33MOL0     H 4315   8.773   2.691   3.704 -1.4404 -3.9693 -0.6725
   33MOL0     H 4316   8.565   2.714   3.910 -1.4739 -2.1168 -0.4449
   33MOL0     H 4317   8.544   2.642   3.757 -0.6893 -0.3760  1.9479
   33MOL0     H 4318   8.477   3.093   3.777  0.6031 -0.2933 -3.2024
   33MOL0     H 4319   8.240   3.163   3.760 -1.0269  0.1878  0.3320
   33MOL0     H 4320   7.771   2.924   4.005  1.9401 -2.3669 -1.1410
   33MOL0     H 4321   7.530   2.993   3.999 -1.0607  0.7489 -0.4219
   33MOL0     H 4322   7.360   3.196   3.848  0.8765 -1.2727 -0.7832
   33MOL0     H 4323   7.323   3.075   3.983 -1.9903 -0.8048  0.8708
   33MOL0     H 4324   7.110   3.029   3.839 -0.1654 -1.5777  2.0896
   33MOL0     H 4325   7.176   3.170   3.742  2.6160  0.2003  0.8329
   33MOL0     H 4326   7.171   3.289   3.971  0.6960 -0.5210  0.9057
   33MOL0     H 4327   7.076   3.157   4.034 -0.5527 -0.7462 -0.7082
   33MOL0     H 4328   6.986   3.352   3.817 -0.2850  1.8449  1.5035
   33MOL0     H 4329   6.919   3.188   3.824  1.0580 -0.2657 -0.9469
   33MOL0     H 4330   6.895   3.390   4.056  0.0213  0.8794 -1.9155
   33MOL0     H 4331   6.837   3.228   4.058  0.1674  1.6945  1.4314
   33MOL0     H 4332   6.649   3.335   3.993  0.0171 -2.1153 -2.2014
   33MOL0     H 4333   6.703   3.276   3.850 -2.4446  1.6542 -1.6466
   33MOL0     H 4334   6.717   3.546   3.964 -0.5446  0.5151  0.6015
   33MOL0     H 4335   6.820   3.514   3.817  0.2250  0.1512  1.4692
   33MOL0     H 4336   6.620   3.448   3.685 -3.0173  0.8321 -0.4193
   33MOL0     H 4337   6.602   3.612   3.762  0.3382  0.2481 -1.6627
   33MOL0     H 4338   7.543   3.006   3.565  0.5327  3.3496  0.3743
   33MOL0     H 4339   7.791   2.942   3.584  0.1338  0.6386  0.0811
   33MOL0     H 4340   8.119   2.756   3.856 -1.3434  0.4226 -0.1750
   33MOL0     H 4341   8.344   2.691   3.793 -1.2403  0.2158 -1.6420
   33MOL0     H 4342   8.082   3.117   4.570  0.3410 -0.7746  3.1743
   33MOL0     H 4343   7.831   3.049   4.604  0.7084  3.4332 -2.0706
   33MOL0     H 4344   7.448   2.701   4.234  0.4351  1.7877 -0.6627
   33MOL0     H 4345   7.211   2.678   4.275 -0.8736 -0.3702  0.8992
   33MOL0     H 4346   7.036   2.581   4.407 -1.1099  1.3270 -3.3096
   33MOL0     H 4347   6.980   2.735   4.338  0.5247  2.9386  1.5152
   33MOL0     H 4348   6.793   2.596   4.477  0.6261 -0.8353 -0.1865
   33MOL0     H 4349   6.885   2.649   4.619  0.2669  2.6680  0.2442
   33MOL0     H 4350   6.735   2.813   4.409 -1.6333 -2.0626 -1.0874
   33MOL0     H 4351   6.843   2.884   4.526 -0.4951 -0.6096  1.2630
   33MOL0     H 4352   6.590   2.716   4.600  1.1893 -1.8620  2.8457
   33MOL0     H 4353   6.715   2.797   4.710 -1.1013  2.9235  0.8033
   33MOL0     H 4354   6.464   3.124   4.656 -1.3651  0.2057 -1.0440
   33MOL0     H 4355   7.274   2.881   4.658  1.2263  0.1484  0.5447
   33MOL0     H 4356   7.488   2.875   4.626 -1.1460  1.8459  0.2541
   34MOL0     O 4357   8.457   2.163  10.558 -1.1919 -0.4176 -0.0529
   34MOL0     C 4358   8.533   2.110  10.476  0.7290  0.6531  0.2435
   34MOL0     O 4359   8.512   1.981  10.421 -0.4606 -0.2419 -0.1374
   34MOL0     C 4360   8.384   1.923  10.412  0.0250 -0.4015  0.8182
   34MOL0     C 4361   8.267   1.968  10.478 -0.2693  0.2500  0.2837
   34MOL0     C 4362   8.149   1.882  10.478  0.2602 -0.1696  0.1563
   34MOL0     C 4363   8.147   1.757  10.406 -1.7390 -0.3890  0.0567
   34MOL0     O 4364   8.032   1.677  10.378 -0.2506  0.7531 -0.3168
   34MOL0     C 4365   8.052   1.527  10.382 -0.3380 -1.7842 -0.8509
   34MOL0     C 4366   7.921   1.455  10.398  0.0423  0.2157  0.3361
   34MOL0     C 4367   7.822   1.489  10.293 -0.0333 -0.4538  0.1955
   34MOL0     C 4368   7.715   1.384  10.272  0.6015 -0.4585 -0.3671
   34MOL0     C 4369   7.626   1.362  10.391 -0.0023  0.3272  0.3250
   34MOL0     C 4370   7.568   1.491  10.437 -0.0126 -0.7514 -0.2567
   34MOL0     C 4371   7.427   1.470  10.503 -0.2777  0.6104 -0.2292
   34MOL0     C 4372   7.373   1.596  10.570 -0.6654 -0.4407  0.1974
   34MOL0     N 4373   7.231   1.563  10.610  0.1999  0.1488  0.9677
   34MOL0     C 4374   7.129   1.538  10.522  0.2686  0.7643 -0.1946
   34MOL0     C 4375   7.030   1.502  10.604  1.0035  0.6108  0.5448
   34MOL0     C 4376   6.885   1.469  10.569  0.8562  0.4821 -1.4208
   34MOL0     C 4377   6.840   1.334  10.627 -0.7367 -0.5717  0.0129
   34MOL0     C 4378   6.748   1.324  10.741  0.2117  0.0272 -0.5552
   34MOL0     C 4379   6.749   1.442  10.839  0.1970  0.3505 -0.8187
   34MOL0     O 4380   6.669   1.407  10.956  0.0662 -0.0248  0.3812
   34MOL0     C 4381   6.532   1.420  10.935 -0.2719 -0.4191 -0.5211
   34MOL0     C 4382   6.447   1.305  10.922 -0.3498 -0.2050 -0.0733
   34MOL0     C 4383   6.312   1.317  10.911  0.4254 -0.7815  0.3561
   34MOL0     C 4384   6.254   1.447  10.896 -1.6076 -1.1031 -0.3370
   34MOL0     C 4385   6.106   1.443  10.878 -0.1072 -0.0908 -0.2256
   34MOL0     O 4386   6.048   1.554  10.838  0.2814  0.0730  0.3765
   34MOL0     C 4387   5.908   1.571  10.847 -0.2532  0.2425 -0.3498
   34MOL0     C 4388   5.835   1.660  10.760  0.5412  0.8999  1.2277
   34MOL0     C 4389   5.694   1.676  10.776  1.0486  0.1163  0.1925
   34MOL0     C 4390   5.626   1.616  10.888 -0.1330 -0.5334 -0.6225
   34MOL0     O 4391   5.489   1.625  10.883  0.3237  0.1504 -0.1181
   34MOL0     C 4392   5.410   1.598  11.001 -0.3056 -0.8085 -1.1278
   34MOL0     C 4393   5.274   1.559  10.944  0.1409 -0.0206 -1.0582
   34MOL0     C 4394   5.172   1.537  11.057 -0.8720 -0.2100 -0.7675
   34MOL0     C 4395   5.024   1.538  11.007  0.0101 -0.3444 -0.1269
   34MOL0     C 4396   4.924   1.517  11.119  1.0686 -0.6852  0.1828
   34MOL0     C 4397   4.941   1.626  11.229  0.5888 -0.0025 -0.5160
   34MOL0     C 4398   4.834   1.623  11.346 -0.3662 -0.0875 -0.9637
   34MOL0     C 4399   4.815   1.481  11.397  0.3299 -0.0067  0.2108
   34MOL0    Cl 4400   4.703   1.386  11.292 -0.2232  0.0143  0.3696
   34MOL0     C 4401   5.701   1.553  10.987 -0.0006 -0.3363  0.3169
   34MOL0     C 4402   5.841   1.527  10.970  0.1089  0.7529 -0.0519
   34MOL0     O 4403   6.044   1.338  10.903 -0.9085 -0.5232 -0.1262
   34MOL0     C 4404   6.331   1.564  10.911 -0.1794  0.1705 -0.2456
   34MOL0     C 4405   6.471   1.546  10.927  0.3783  0.0718  0.0142
   34MOL0     N 4406   7.078   1.518  10.728  0.2182 -0.3964 -0.2115
   34MOL0     N 4407   7.194   1.548  10.740  0.0384 -0.3729 -0.2127
   34MOL0     C 4408   8.268   1.723  10.342 -0.2107  0.0699 -0.0718
   34MOL0     C 4409   8.381   1.796  10.352 -0.3169 -0.0025  0.9796
   34MOL0     C 4410   8.664   2.175  10.439 -0.1666  1.0632  0.1404
   34MOL0     C 4411   8.711   2.302  10.485 -0.0245 -0.1566 -0.7069
   34MOL0     C 4412   8.816   2.363  10.418 -0.3816  0.3965  0.4489
   34MOL0     C 4413   8.877   2.301  10.312 -1.1796 -0.0778 -0.6637
   34MOL0     O 4414   8.978   2.359  10.237 -0.0734  0.1197  0.5265
   34MOL0     C 4415   9.029   2.489  10.270  0.3141  0.4964  0.0861
   34MOL0     C 4416   9.153   2.499  10.187 -0.4307  0.1079  0.2245
   34MOL0     C 4417   9.280   2.420  10.241 -0.3616 -0.7509  0.4368
   34MOL0     C 4418   9.382   2.402  10.132 -0.3350 -0.0500 -0.0648
   34MOL0     C 4419   9.464   2.281  10.167  0.1027 -1.1177 -0.4592
   34MOL0     C 4420   9.538   2.188  10.203 -0.0031  0.3199 -1.3509
   34MOL0     C 4421   8.838   2.173  10.273  0.2254  0.0981  0.0013
   34MOL0     C 4422   8.727   2.116  10.327 -0.9962 -0.7239  0.0584
   34MOL0     H 4423   8.264   2.055  10.544  3.9040  1.8178 -1.2475
   34MOL0     H 4424   8.056   1.926  10.512 -1.3306 -2.7793 -0.5640
   34MOL0     H 4425   8.108   1.497  10.471  0.0420  1.5851  0.1972
   34MOL0     H 4426   8.098   1.487  10.292 -0.0432 -2.9642 -0.2011
   34MOL0     H 4427   7.890   1.489  10.498  0.0558 -0.9751  0.7590
   34MOL0     H 4428   7.931   1.346  10.404 -3.0338 -0.0806  2.3977
   34MOL0     H 4429   7.871   1.503  10.196  0.9133  0.7326  0.8137
   34MOL0     H 4430   7.782   1.587  10.323  1.2115  0.3545 -0.6934
   34MOL0     H 4431   7.653   1.403  10.184 -2.3983  1.6109  2.0061
   34MOL0     H 4432   7.760   1.285  10.259  1.4532 -0.8841  4.1768
   34MOL0     H 4433   7.676   1.307  10.471  0.3037  0.7149  0.4029
   34MOL0     H 4434   7.544   1.296  10.362  1.6482 -0.7966 -2.1363
   34MOL0     H 4435   7.554   1.564  10.357  0.9686  0.0236  0.2579
   34MOL0     H 4436   7.639   1.540  10.505  1.8385  2.2602 -3.9306
   34MOL0     H 4437   7.365   1.430  10.422 -1.7734  1.3623  0.5018
   34MOL0     H 4438   7.437   1.391  10.578 -1.3510  0.6385 -0.0315
   34MOL0     H 4439   7.379   1.672  10.492 -1.4805 -0.6381 -0.0775
   34MOL0     H 4440   7.435   1.640  10.648 -0.1843  2.2115 -1.5427
   34MOL0     H 4441   7.125   1.554  10.415  0.8957  2.4169 -0.0035
   34MOL0     H 4442   6.870   1.464  10.461 -3.0227 -0.2801 -0.9790
   34MOL0     H 4443   6.816   1.544  10.607 -1.7852 -1.5215 -2.0072
   34MOL0     H 4444   6.931   1.277  10.646 -0.3680 -0.0726 -0.2237
   34MOL0     H 4445   6.795   1.277  10.545  0.3396 -1.7773  0.2447
   34MOL0     H 4446   6.651   1.327  10.690 -0.4029 -1.2965  0.4673
   34MOL0     H 4447   6.749   1.230  10.797 -1.3359  0.4650  0.2496
   34MOL0     H 4448   6.726   1.540  10.797  1.2285  0.5293 -0.9935
   34MOL0     H 4449   6.848   1.442  10.886  0.0353 -2.3609 -0.3069
   34MOL0     H 4450   6.482   1.204  10.938  1.6645  0.8445  3.0499
   34MOL0     H 4451   6.258   1.224  10.898  0.6800 -0.9125  0.2293
   34MOL0     H 4452   5.879   1.701  10.670 -2.2256  3.3248  0.8203
   34MOL0     H 4453   5.636   1.734  10.706  0.9605  0.4623  0.5485
   34MOL0     H 4454   5.394   1.697  11.046 -0.2352 -0.9777 -0.7246
   34MOL0     H 4455   5.436   1.516  11.069 -3.2002 -0.6678  0.3452
   34MOL0     H 4456   5.287   1.464  10.892  0.2235 -1.3526  1.2640
   34MOL0     H 4457   5.234   1.637  10.877  0.8585  3.2993  2.0422
   34MOL0     H 4458   5.182   1.607  11.140  0.3092 -0.2679 -0.8510
   34MOL0     H 4459   5.199   1.445  11.108 -2.0181 -0.7337 -1.0659
   34MOL0     H 4460   5.008   1.633  10.956  1.5378 -0.1700 -0.3201
   34MOL0     H 4461   5.012   1.452  10.940 -3.2306 -0.5595  0.5670
   34MOL0     H 4462   4.960   1.426  11.168 -0.9431 -1.5628  0.1394
   34MOL0     H 4463   4.820   1.512  11.086  0.6304  0.7729  1.2371
   34MOL0     H 4464   4.920   1.721  11.179 -5.1606 -0.8589 -0.4501
   34MOL0     H 4465   5.042   1.634  11.270  0.0674  0.4674  0.7245
   34MOL0     H 4466   4.891   1.673  11.424 -0.9797 -2.4242  1.1284
   34MOL0     H 4467   4.742   1.678  11.325  1.1802  3.1419  0.1780
   34MOL0     H 4468   4.771   1.486  11.498  1.2417 -0.7919  0.6583
   34MOL0     H 4469   4.915   1.437  11.396 -0.0882 -1.0377  1.0201
   34MOL0     H 4470   5.659   1.517  11.081  1.5105 -1.6252  0.5531
   34MOL0     H 4471   5.891   1.468  11.046 -0.1365 -2.5057 -2.2318
   34MOL0     H 4472   6.280   1.657  10.892  0.7098  0.0003 -4.5666
   34MOL0     H 4473   6.530   1.638  10.925 -1.7193  1.4611 -1.1691
   34MOL0     H 4474   8.276   1.629  10.288  1.7686  0.9625 -1.4781
   34MOL0     H 4475   8.475   1.753  10.319 -1.3322 -1.2973 -0.3751
   34MOL0     H 4476   8.654   2.351  10.563 -1.0650  1.0061 -2.1434
   34MOL0     H 4477   8.850   2.463  10.447  2.2702 -0.7878  1.7633
   34MOL0     H 4478   9.053   2.508  10.375  0.5898 -2.5743  0.6899
   34MOL0     H 4479   8.958   2.563  10.231  2.1042  1.6168 -1.1942
   34MOL0     H 4480   9.130   2.477  10.083  1.3653 -2.6363  0.2938
   34MOL0     H 4481   9.183   2.604  10.186  0.4371 -0.1103 -1.6185
   34MOL0     H 4482   9.235   2.323  10.264  2.5014 -2.1702  0.5282
   34MOL0     H 4483   9.322   2.463  10.333 -0.2191 -0.3323  0.1833
   34MOL0     H 4484   9.327   2.378  10.040 -0.1999  0.7637 -0.3625
   34MOL0     H 4485   9.441   2.492  10.113 -0.2621 -0.1142 -0.1445
   34MOL0     H 4486   9.608   2.109  10.218  0.6793  0.8810 -1.5270
   34MOL0     H 4487   8.884   2.129  10.185  0.9355 -1.1113  0.9401
   34MOL0     H 4488   8.692   2.031  10.270 -3.7509  0.2757  0.1387
   35MOL0     O 4489   3.216   5.162   7.242 -0.1229  0.1394 -0.0971
   35MOL0     C 4490   3.309   5.144   7.166 -0.1583 -0.0147  0.7646
   35MOL0     O 4491   3.366   5.021   7.127 -0.1969  0.0682  0.1196
   35MOL0     C 4492   3.317   4.896   7.167 -0.3896  0.0020 -0.0726
   35MOL0     C 4493   3.179   4.869   7.158  0.0262  0.0342  0.0920
   35MOL0     C 4494   3.137   4.737   7.200  0.5589 -0.4137  0.2060
   35MOL0     C 4495   3.233   4.643   7.238 -0.4424  0.1233  0.0473
   35MOL0     O 4496   3.198   4.522   7.295 -0.4802  0.8162 -0.6647
   35MOL0     C 4497   3.132   4.418   7.220  0.2468 -0.2271 -0.5384
   35MOL0     C 4498   3.026   4.345   7.314  0.2308 -0.5090  0.2625
   35MOL0     C 4499   2.892   4.418   7.311  0.0027  0.7828  0.6076
   35MOL0     C 4500   2.790   4.329   7.381  0.7820  0.2205 -0.7950
   35MOL0     C 4501   2.640   4.368   7.346 -0.6541 -0.2928  0.9887
   35MOL0     C 4502   2.535   4.321   7.440  0.0575  0.2842  1.0093
   35MOL0     C 4503   2.386   4.338   7.377  0.7842  0.2674 -0.6036
   35MOL0     C 4504   2.311   4.460   7.421  0.3845 -0.3582  0.5769
   35MOL0     N 4505   2.172   4.454   7.380 -0.4863  0.6606  0.3392
   35MOL0     C 4506   2.123   4.516   7.270 -0.3429 -0.6025 -0.1072
   35MOL0     C 4507   1.998   4.471   7.256  0.4358  0.5755  0.1879
   35MOL0     C 4508   1.890   4.495   7.155  0.4139  0.6571 -0.2780
   35MOL0     C 4509   1.805   4.616   7.192  0.5162 -1.5842 -0.1619
   35MOL0     C 4510   1.710   4.581   7.306 -0.1402 -0.6043 -0.4006
   35MOL0     C 4511   1.616   4.693   7.348  0.3251  1.0496  0.1590
   35MOL0     O 4512   1.536   4.648   7.461 -0.5635  0.2880  0.0118
   35MOL0     C 4513   1.418   4.710   7.485  0.2901  0.4013  0.9758
   35MOL0     C 4514   1.314   4.734   7.393 -0.4300  0.9177 -0.2893
   35MOL0     C 4515   1.191   4.787   7.435  0.0552 -0.2106 -0.1471
   35MOL0     C 4516   1.166   4.817   7.568 -0.3369 -0.6888 -0.2871
   35MOL0     C 4517   1.028   4.865   7.607 -0.2537 -1.0007 -0.0815
   35MOL0     O 4518   0.972   4.964   7.530 -0.3290  0.1979  0.2638
   35MOL0     C 4519   0.855   5.030   7.546  0.0515  0.3038 -0.6766
   35MOL0     C 4520   0.731   4.973   7.502 -0.2244 -0.0216  1.0820
   35MOL0     C 4521   0.613   5.038   7.521  1.3746 -0.6402 -0.6527
   35MOL0     C 4522   0.608   5.163   7.591 -0.8486  0.0936  0.4263
   35MOL0     O 4523   0.495   5.223   7.638 -0.3401  0.6889  0.0102
   35MOL0     C 4524   0.368   5.180   7.598  0.6303 -0.2627  0.9821
   35MOL0     C 4525   0.261   5.259   7.683  0.4012 -0.2041  0.0871
   35MOL0     C 4526   0.123   5.218   7.636  0.0603 -0.0276  0.6094
   35MOL0     C 4527   0.083   5.271   7.503  0.2511 -0.5535  0.8164
   35MOL0     C 4528  -0.066   5.284   7.505 -0.3525 -0.2526  0.9991
   35MOL0     C 4529  -0.127   5.319   7.367 -0.2508 -0.0584 -0.0129
   35MOL0     C 4530  -0.277   5.346   7.381 -0.4582  0.8370 -0.0809
   35MOL0     C 4531  -0.329   5.339   7.238 -0.4345 -0.2167  1.2588
   35MOL0    Cl 4532  -0.260   5.458   7.122  0.3567 -0.2042  0.7105
   35MOL0     C 4533   0.730   5.219   7.635  0.1388 -0.4210  0.0119
   35MOL0     C 4534   0.854   5.158   7.613 -0.8216 -0.2742 -0.0141
   35MOL0     O 4535   0.978   4.822   7.705  0.4383 -0.0337  0.3858
   35MOL0     C 4536   1.267   4.791   7.665 -0.2302 -0.0629  0.5979
   35MOL0     C 4537   1.391   4.746   7.623  0.3389 -0.2636 -0.1377
   35MOL0     N 4538   1.974   4.379   7.363 -0.1574  0.4058  0.5062
   35MOL0     N 4539   2.077   4.385   7.438 -0.3432  0.7524  0.3051
   35MOL0     C 4540   3.368   4.668   7.224 -0.7328 -0.1262 -0.6733
   35MOL0     C 4541   3.415   4.798   7.185  0.0459  0.1262 -0.7076
   35MOL0     C 4542   3.372   5.257   7.097  0.2530  0.3919 -0.2782
   35MOL0     C 4543   3.362   5.389   7.155 -0.0176  0.6238 -0.3688
   35MOL0     C 4544   3.422   5.499   7.089  0.2254 -0.4516 -0.9107
   35MOL0     C 4545   3.498   5.480   6.975  0.5760  1.2253 -0.1268
   35MOL0     O 4546   3.536   5.590   6.905 -0.0669  0.1720 -0.0066
   35MOL0     C 4547   3.595   5.574   6.773  0.3595 -0.9814 -0.3932
   35MOL0     C 4548   3.599   5.714   6.711 -0.1953  0.5147 -0.5326
   35MOL0     C 4549   3.645   5.713   6.565 -0.3457 -0.6027 -0.1400
   35MOL0     C 4550   3.698   5.842   6.524  0.4244  0.3354  0.2127
   35MOL0     C 4551   3.780   5.831   6.405 -0.2702 -0.4389 -0.0902
   35MOL0     C 4552   3.860   5.833   6.312 -0.8658  0.6434 -0.0483
   35MOL0     C 4553   3.521   5.348   6.926 -0.0514  0.3881  0.3145
   35MOL0     C 4554   3.462   5.234   6.993 -0.8943  0.3417  0.9394
   35MOL0     H 4555   3.109   4.948   7.132  0.7535  1.3441  1.8335
   35MOL0     H 4556   3.030   4.717   7.204  0.4254  0.3572  0.7153
   35MOL0     H 4557   3.209   4.346   7.190  0.7388 -0.1486  0.4983
   35MOL0     H 4558   3.081   4.435   7.124  2.7299  1.0006 -1.7363
   35MOL0     H 4559   3.058   4.351   7.418  0.7685  0.4282  0.0498
   35MOL0     H 4560   3.013   4.240   7.286 -1.8720 -1.0537  2.8621
   35MOL0     H 4561   2.851   4.433   7.210 -1.2136  1.8335  1.2248
   35MOL0     H 4562   2.895   4.519   7.354 -3.5215  1.0490  0.5332
   35MOL0     H 4563   2.802   4.221   7.368  1.3503  0.3280 -1.2235
   35MOL0     H 4564   2.808   4.351   7.486 -1.7385 -1.6935  0.1410
   35MOL0     H 4565   2.617   4.343   7.242  2.5209 -2.0088  0.5833
   35MOL0     H 4566   2.629   4.477   7.351  2.3965  0.2919 -1.7234
   35MOL0     H 4567   2.545   4.386   7.527 -0.8236  2.6688 -0.5498
   35MOL0     H 4568   2.562   4.216   7.457  3.5483  0.3373 -2.6609
   35MOL0     H 4569   2.391   4.329   7.268 -0.6497 -0.9435 -0.6029
   35MOL0     H 4570   2.321   4.252   7.398 -0.4544  0.8777 -1.7960
   35MOL0     H 4571   2.353   4.552   7.379  1.5425 -1.2180 -0.2238
   35MOL0     H 4572   2.316   4.472   7.530 -2.0112  1.4384  0.5610
   35MOL0     H 4573   2.160   4.600   7.213 -3.2898  1.1576  0.3437
   35MOL0     H 4574   1.825   4.407   7.143  2.0622 -0.2722 -3.0949
   35MOL0     H 4575   1.937   4.513   7.059 -0.8653  2.1818 -0.6786
   35MOL0     H 4576   1.755   4.660   7.105  0.9679 -1.1709 -0.2192
   35MOL0     H 4577   1.883   4.688   7.220  0.5353 -2.6908  2.9565
   35MOL0     H 4578   1.653   4.495   7.273 -0.7474  0.5940 -2.6900
   35MOL0     H 4579   1.772   4.539   7.386  0.3576 -1.8718 -1.4161
   35MOL0     H 4580   1.564   4.727   7.258  0.3193  0.6150 -0.0079
   35MOL0     H 4581   1.674   4.779   7.382  0.7781  1.9622 -2.6751
   35MOL0     H 4582   1.316   4.700   7.291 -0.2085 -1.8183  0.5474
   35MOL0     H 4583   1.110   4.784   7.363  0.3810 -1.9390 -0.4911
   35MOL0     H 4584   0.734   4.875   7.457 -1.6833  0.0991  0.6853
   35MOL0     H 4585   0.521   4.990   7.489  1.3674  0.1683 -1.9302
   35MOL0     H 4586   0.356   5.074   7.619  0.3602 -0.7348 -1.3134
   35MOL0     H 4587   0.373   5.197   7.490  1.2704 -1.8782  0.7350
   35MOL0     H 4588   0.274   5.368   7.675 -2.6250  0.1958 -0.3363
   35MOL0     H 4589   0.278   5.234   7.788 -0.0249 -1.7752 -0.1944
   35MOL0     H 4590   0.054   5.253   7.714 -3.0620 -3.8894 -0.0668
   35MOL0     H 4591   0.113   5.110   7.652  2.4168 -0.4920 -0.7270
   35MOL0     H 4592   0.136   5.365   7.482  0.8683 -0.2596  3.3849
   35MOL0     H 4593   0.115   5.202   7.425  0.0231  1.0795 -0.7998
   35MOL0     H 4594  -0.094   5.370   7.566 -1.3584 -0.7011  1.1708
   35MOL0     H 4595  -0.115   5.191   7.533 -1.3641  0.6600  2.4310
   35MOL0     H 4596  -0.108   5.238   7.296 -1.3862 -0.2335 -0.1405
   35MOL0     H 4597  -0.080   5.413   7.337 -0.6608  0.8086  1.9280
   35MOL0     H 4598  -0.327   5.263   7.433  0.7517 -0.8161 -1.4501
   35MOL0     H 4599  -0.295   5.443   7.428 -0.2708  0.0302  1.7583
   35MOL0     H 4600  -0.438   5.343   7.242 -0.4691 -0.0413  5.6455
   35MOL0     H 4601  -0.300   5.239   7.205 -3.2230 -2.2683  4.4440
   35MOL0     H 4602   0.716   5.314   7.685 -1.0825 -0.2425 -0.6320
   35MOL0     H 4603   0.942   5.211   7.650 -0.1812 -1.4711  0.2358
   35MOL0     H 4604   1.240   4.813   7.768  0.8308 -1.6825  1.2736
   35MOL0     H 4605   1.466   4.718   7.696 -0.4860  0.6840  1.1018
   35MOL0     H 4606   3.440   4.588   7.239 -0.1939  0.1944 -1.4449
   35MOL0     H 4607   3.523   4.806   7.185  0.2106 -1.2876  1.3626
   35MOL0     H 4608   3.296   5.405   7.241 -1.3094 -0.0925 -1.1905
   35MOL0     H 4609   3.404   5.602   7.116 -1.6487 -0.6402 -1.3254
   35MOL0     H 4610   3.530   5.511   6.712 -2.0323  1.2416 -0.2891
   35MOL0     H 4611   3.695   5.529   6.773  1.8222  1.9952  0.0230
   35MOL0     H 4612   3.501   5.760   6.726 -1.4316 -2.1347  0.0443
   35MOL0     H 4613   3.660   5.767   6.785 -1.2515  0.9371  0.0600
   35MOL0     H 4614   3.557   5.699   6.500 -0.2200  3.7061 -1.5561
   35MOL0     H 4615   3.709   5.626   6.549  1.3056  0.6284 -0.5046
   35MOL0     H 4616   3.603   5.894   6.510 -0.1736 -0.6893  0.3402
   35MOL0     H 4617   3.747   5.888   6.609 -1.9033  1.2030  1.1634
   35MOL0     H 4618   3.935   5.845   6.237  0.1167  0.9675  0.9624
   35MOL0     H 4619   3.592   5.328   6.846  1.9310  0.0760  2.0648
   35MOL0     H 4620   3.469   5.134   6.952 -0.3374  1.1029 -0.9549
   36MOL0     O 4621   7.935   1.924   0.331 -0.4060 -0.1008  0.3515
   36MOL0     C 4622   8.001   2.009   0.393  0.2094  0.4666  0.0774
   36MOL0     O 4623   7.947   2.114   0.467  0.0880 -0.0139  0.7653
   36MOL0     C 4624   7.808   2.117   0.461  0.0530 -1.1726  0.7020
   36MOL0     C 4625   7.749   2.238   0.440 -0.7925 -0.5656 -0.1245
   36MOL0     C 4626   7.611   2.252   0.432 -0.6793  0.1165  0.1373
   36MOL0     C 4627   7.522   2.146   0.443  0.1156  0.1914  0.2632
   36MOL0     O 4628   7.382   2.156   0.425 -0.2799 -0.0231 -0.2048
   36MOL0     C 4629   7.331   2.289   0.391  0.5699  0.1660 -0.3081
   36MOL0     C 4630   7.181   2.291   0.370  0.5429  0.3465 -0.1136
   36MOL0     C 4631   7.134   2.416   0.294 -0.0407 -0.2169  0.3723
   36MOL0     C 4632   6.982   2.424   0.306  0.8225  0.0294  0.7729
   36MOL0     C 4633   6.930   2.547   0.240  0.7875  0.4502 -0.3860
   36MOL0     C 4634   6.913   2.549   0.082 -1.3562  0.9814 -0.4443
   36MOL0     C 4635   6.826   2.662   0.030 -0.0214 -0.0066  0.0217
   36MOL0     C 4636   6.872   2.794   0.067 -0.2180  0.1368  0.4831
   36MOL0     N 4637   6.979   2.836  -0.027 -0.2204  1.0224 -0.1867
   36MOL0     C 4638   6.947   2.870  -0.157  0.0167  0.0970  0.0161
   36MOL0     C 4639   7.064   2.891  -0.220 -0.3454 -0.2392 -0.2559
   36MOL0     C 4640   7.094   2.932  -0.359  0.8648  0.2708 -0.5108
   36MOL0     C 4641   6.983   2.920  -0.466 -0.8236 -0.2964 -0.1751
   36MOL0     C 4642   6.887   3.040  -0.464 -0.0055 -0.9008  0.5568
   36MOL0     C 4643   6.825   3.068  -0.607 -0.5188  0.2268  0.3858
   36MOL0     O 4644   6.771   2.946  -0.658 -0.2424 -0.7546 -0.0302
   36MOL0     C 4645   6.640   2.911  -0.630  0.3092 -0.7900 -0.3679
   36MOL0     C 4646   6.581   2.821  -0.717  0.9438 -0.2358 -0.5696
   36MOL0     C 4647   6.445   2.789  -0.701  1.0279  0.0325  0.3953
   36MOL0     C 4648   6.366   2.842  -0.595 -0.4030 -0.2974  0.5879
   36MOL0     C 4649   6.224   2.815  -0.582 -0.5348 -0.2434 -1.2100
   36MOL0     O 4650   6.156   2.752  -0.685  0.0607  0.0704 -0.5882
   36MOL0     C 4651   6.021   2.759  -0.711 -0.2131 -0.9085 -0.2832
   36MOL0     C 4652   5.915   2.836  -0.641  0.6817  0.1483 -0.2588
   36MOL0     C 4653   5.788   2.844  -0.701  1.1174 -0.2227  0.2136
   36MOL0     C 4654   5.754   2.775  -0.818 -0.0621 -0.2013 -0.3192
   36MOL0     O 4655   5.634   2.779  -0.880  0.5170 -0.1589  0.7244
   36MOL0     C 4656   5.513   2.755  -0.807  0.6301 -0.7972  0.2989
   36MOL0     C 4657   5.394   2.766  -0.904 -0.1438  1.1172  0.0872
   36MOL0     C 4658   5.258   2.749  -0.818 -0.9098 -0.8612  0.4098
   36MOL0     C 4659   5.146   2.789  -0.915 -0.5501  0.5354 -0.1392
   36MOL0     C 4660   5.015   2.711  -0.885  1.0032  0.2353  0.7767
   36MOL0     C 4661   4.963   2.713  -0.740 -0.3629  0.3355 -0.1491
   36MOL0     C 4662   4.830   2.646  -0.714  0.4886  0.3524  0.7273
   36MOL0     C 4663   4.798   2.650  -0.566  0.4867  0.4675  0.4573
   36MOL0    Cl 4664   4.803   2.817  -0.504  0.2920  0.1629  0.4098
   36MOL0     C 4665   5.849   2.689  -0.872  0.0723  0.3678 -0.7727
   36MOL0     C 4666   5.981   2.686  -0.824 -0.2292 -0.0394  0.1197
   36MOL0     O 4667   6.178   2.847  -0.478  0.2028 -0.4417 -0.6202
   36MOL0     C 4668   6.436   2.933  -0.515 -0.2964 -0.8607 -0.1685
   36MOL0     C 4669   6.565   2.965  -0.528  0.2853  0.1895  0.4247
   36MOL0     N 4670   7.165   2.862  -0.129 -0.7400 -0.4160  0.6511
   36MOL0     N 4671   7.113   2.824  -0.021 -0.9774 -0.2113  0.0857
   36MOL0     C 4672   7.580   2.021   0.471 -0.6731  0.3232 -0.4081
   36MOL0     C 4673   7.719   2.010   0.484 -0.5909 -0.3720 -0.1267
   36MOL0     C 4674   8.147   1.985   0.383 -0.0606  1.0159  0.2688
   36MOL0     C 4675   8.240   2.039   0.477  0.1267 -0.8993  0.3599
   36MOL0     C 4676   8.379   2.019   0.459  0.4364 -0.5910 -0.1084
   36MOL0     C 4677   8.432   1.935   0.352 -0.3448 -0.3022  0.6475
   36MOL0     O 4678   8.562   1.907   0.337  0.0540 -0.6524 -0.4844
   36MOL0     C 4679   8.656   1.933   0.439  0.1121  0.4244 -0.1137
   36MOL0     C 4680   8.637   1.849   0.560  0.4635 -0.7153 -0.5205
   36MOL0     C 4681   8.774   1.830   0.632 -0.3706  0.5459 -0.5106
   36MOL0     C 4682   8.866   1.713   0.590 -0.2029  0.5476 -0.5376
   36MOL0     C 4683   9.012   1.733   0.621 -0.1255 -0.1772 -0.1645
   36MOL0     C 4684   9.133   1.735   0.660 -0.5652 -0.1311  0.9803
   36MOL0     C 4685   8.340   1.883   0.258 -0.2742 -0.1175 -0.0047
   36MOL0     C 4686   8.194   1.902   0.277 -0.6360 -0.3891  0.1574
   36MOL0     H 4687   7.817   2.322   0.447  0.3529 -1.4824  0.0163
   36MOL0     H 4688   7.578   2.355   0.420 -0.8168 -0.0956 -1.4804
   36MOL0     H 4689   7.383   2.323   0.300  3.2654 -1.5161  0.4764
   36MOL0     H 4690   7.360   2.353   0.475  1.5333 -0.7201  0.0652
   36MOL0     H 4691   7.131   2.276   0.467 -1.1727  2.4825 -0.5872
   36MOL0     H 4692   7.151   2.201   0.316 -2.1759  1.7430 -1.1609
   36MOL0     H 4693   7.169   2.399   0.192  1.0613  2.9106  0.1328
   36MOL0     H 4694   7.179   2.512   0.321  0.1688  0.2645 -1.5001
   36MOL0     H 4695   6.935   2.329   0.280  3.0768 -1.0829  0.5255
   36MOL0     H 4696   6.956   2.433   0.412  4.8672 -1.3669  2.0616
   36MOL0     H 4697   6.990   2.632   0.274  0.3978  0.8864 -0.7760
   36MOL0     H 4698   6.834   2.567   0.287  0.4992  0.6795 -1.0577
   36MOL0     H 4699   6.869   2.452   0.059  0.9883 -0.1270 -0.5266
   36MOL0     H 4700   7.016   2.563   0.049 -0.4769  0.3749  1.8340
   36MOL0     H 4701   6.815   2.658  -0.079 -0.5300  2.5199 -0.0907
   36MOL0     H 4702   6.729   2.644   0.076 -0.4613 -2.5891 -1.7175
   36MOL0     H 4703   6.915   2.783   0.168  1.2697 -1.0050 -0.2306
   36MOL0     H 4704   6.783   2.858   0.070 -1.2581 -1.1916 -0.6108
   36MOL0     H 4705   6.852   2.906  -0.194 -0.3265 -1.0761 -0.2472
   36MOL0     H 4706   7.184   2.875  -0.382  0.4787 -0.9299  0.8078
   36MOL0     H 4707   7.114   3.039  -0.349 -0.1680  0.4064  0.4034
   36MOL0     H 4708   6.930   2.825  -0.452 -2.8185  0.8372  0.2350
   36MOL0     H 4709   7.031   2.921  -0.565 -2.4213  0.9207 -0.9908
   36MOL0     H 4710   6.810   3.032  -0.387  1.6283  0.3011  2.4014
   36MOL0     H 4711   6.953   3.125  -0.448  0.5515 -1.0137 -0.9675
   36MOL0     H 4712   6.906   3.090  -0.677 -0.4167 -1.8909 -0.2515
   36MOL0     H 4713   6.744   3.141  -0.609 -1.6086 -0.8140  2.9807
   36MOL0     H 4714   6.649   2.777  -0.790  4.0059 -1.0830  2.5588
   36MOL0     H 4715   6.412   2.725  -0.782  1.7259  1.6775 -1.2627
   36MOL0     H 4716   5.929   2.888  -0.548 -1.2137  1.0801 -0.4443
   36MOL0     H 4717   5.715   2.917  -0.666  3.5633  2.4291  0.0956
   36MOL0     H 4718   5.510   2.829  -0.726  1.1503 -2.9964  2.4383
   36MOL0     H 4719   5.512   2.661  -0.751  2.2109 -0.5718  0.7727
   36MOL0     H 4720   5.413   2.680  -0.969  0.9865  1.8355 -0.5579
   36MOL0     H 4721   5.398   2.856  -0.966  0.5326 -0.2861 -2.0076
   36MOL0     H 4722   5.250   2.816  -0.732 -3.5000 -1.6966  0.9012
   36MOL0     H 4723   5.246   2.645  -0.785 -0.1768 -1.4624 -1.1088
   36MOL0     H 4724   5.145   2.898  -0.913  1.1075  0.6334  3.3501
   36MOL0     H 4725   5.162   2.769  -1.021 -4.5460  0.7986 -0.9410
   36MOL0     H 4726   5.025   2.609  -0.923  0.7408  0.2141  0.7596
   36MOL0     H 4727   4.936   2.760  -0.943 -0.2522 -1.6986  0.7430
   36MOL0     H 4728   4.969   2.818  -0.709 -1.2283  0.7847 -1.4260
   36MOL0     H 4729   5.033   2.656  -0.678 -1.1652  0.0585  0.5226
   36MOL0     H 4730   4.753   2.690  -0.778  0.3927  1.3431  1.5022
   36MOL0     H 4731   4.837   2.541  -0.742  1.6210  0.5660  0.1472
   36MOL0     H 4732   4.853   2.576  -0.509  0.7148 -1.9051 -2.5608
   36MOL0     H 4733   4.694   2.618  -0.557  0.3743  0.0231 -1.7264
   36MOL0     H 4734   5.822   2.622  -0.953  0.4016 -1.2061  0.3754
   36MOL0     H 4735   6.057   2.615  -0.855 -2.6692 -2.6572 -0.2661
   36MOL0     H 4736   6.391   2.985  -0.431  3.1750  0.1653  1.2576
   36MOL0     H 4737   6.599   3.045  -0.464 -0.3132 -0.2700  1.3586
   36MOL0     H 4738   7.512   1.940   0.498  1.4392 -0.3774  3.5807
   36MOL0     H 4739   7.747   1.909   0.511  1.8150  0.6187  1.3647
   36MOL0     H 4740   8.209   2.101   0.560  2.4295 -0.0951  0.6958
   36MOL0     H 4741   8.433   2.073   0.536 -2.0337  2.1576 -0.1394
   36MOL0     H 4742   8.652   2.039   0.466 -0.9385  0.3708 -0.0336
   36MOL0     H 4743   8.753   1.906   0.397 -0.1759  1.0618 -1.2228
   36MOL0     H 4744   8.549   1.875   0.619 -1.2878 -1.8497 -2.5020
   36MOL0     H 4745   8.618   1.748   0.522 -0.3869 -0.5594 -0.5275
   36MOL0     H 4746   8.759   1.815   0.739  3.3581  0.5232  0.1243
   36MOL0     H 4747   8.837   1.918   0.619  0.3493  0.2261  0.6691
   36MOL0     H 4748   8.819   1.621   0.626  3.8126 -1.6159 -0.2241
   36MOL0     H 4749   8.858   1.715   0.481 -3.0686  1.2725 -0.3978
   36MOL0     H 4750   9.235   1.754   0.687 -1.0308  2.2375  1.3051
   36MOL0     H 4751   8.362   1.828   0.167 -1.9002  0.3725 -0.7330
   36MOL0     H 4752   8.126   1.866   0.200  0.3269  1.6042 -1.7315
   37MOL0     O 4753   3.514   6.804   4.475 -0.0261 -0.5546  0.7378
   37MOL0     C 4754   3.542   6.809   4.355 -0.1391  0.3930  0.9665
   37MOL0     O 4755   3.448   6.807   4.259  0.9265  0.8266  0.3129
   37MOL0     C 4756   3.318   6.799   4.302 -0.4856  0.3419 -0.2982
   37MOL0     C 4757   3.244   6.685   4.260  0.0287  0.0305 -0.0215
   37MOL0     C 4758   3.098   6.681   4.275 -0.0171  0.1336 -0.1477
   37MOL0     C 4759   3.042   6.789   4.345  0.4926 -0.2630 -0.7269
   37MOL0     O 4760   2.908   6.807   4.365 -0.0854 -0.1321  0.4909
   37MOL0     C 4761   2.812   6.706   4.322 -1.0021  0.5506  0.4386
   37MOL0     C 4762   2.776   6.727   4.174 -0.4795  0.1322 -0.5546
   37MOL0     C 4763   2.669   6.635   4.120  0.4065  0.1858  0.2169
   37MOL0     C 4764   2.679   6.611   3.970  0.8435 -0.8269  0.3469
   37MOL0     C 4765   2.565   6.516   3.919 -0.4827 -0.6538  1.0355
   37MOL0     C 4766   2.508   6.543   3.780 -0.0784  0.5566 -0.6218
   37MOL0     C 4767   2.365   6.491   3.755 -0.1901  0.4587 -0.2335
   37MOL0     C 4768   2.368   6.337   3.747  0.6218 -0.8428  0.3398
   37MOL0     N 4769   2.235   6.281   3.707 -0.1817  0.1398  0.3509
   37MOL0     C 4770   2.182   6.304   3.580 -0.0143 -0.4618 -0.3514
   37MOL0     C 4771   2.056   6.255   3.592 -0.1779 -0.0587  0.5303
   37MOL0     C 4772   1.956   6.265   3.474 -0.5573 -0.6806 -0.0261
   37MOL0     C 4773   1.966   6.398   3.388  0.2930  0.0413  1.2423
   37MOL0     C 4774   1.830   6.443   3.338  0.4839  0.0488  1.0466
   37MOL0     C 4775   1.853   6.569   3.248  0.0767 -0.1804 -0.4520
   37MOL0     O 4776   1.726   6.587   3.183 -0.2131 -0.0976 -0.3181
   37MOL0     C 4777   1.695   6.715   3.132  1.8085 -0.5717  0.5747
   37MOL0     C 4778   1.787   6.813   3.101  0.3651  0.3240 -0.1553
   37MOL0     C 4779   1.746   6.940   3.050  0.4556  0.9124  0.8513
   37MOL0     C 4780   1.604   6.973   3.049 -0.4917  0.7226  0.1372
   37MOL0     C 4781   1.554   7.099   3.012  1.1330  0.2433  0.0121
   37MOL0     O 4782   1.412   7.123   3.017 -0.6805  0.2235 -0.4510
   37MOL0     C 4783   1.367   7.228   2.946  0.2045  0.1820  0.3001
   37MOL0     C 4784   1.311   7.330   3.015  0.3984  0.0816  0.1938
   37MOL0     C 4785   1.249   7.431   2.935 -0.0680 -1.0016 -0.0507
   37MOL0     C 4786   1.258   7.438   2.791 -0.1495 -0.5231  0.4175
   37MOL0     O 4787   1.216   7.554   2.741  0.8112 -0.2533  0.8464
   37MOL0     C 4788   1.287   7.607   2.626 -0.1482  0.4399 -0.3885
   37MOL0     C 4789   1.210   7.717   2.565  0.7884 -1.1858 -0.9747
   37MOL0     C 4790   1.295   7.763   2.447  0.4900 -0.7008  0.9500
   37MOL0     C 4791   1.201   7.849   2.348 -0.4581  0.1345  0.0323
   37MOL0     C 4792   1.286   7.920   2.238 -0.0259  0.0060 -1.1018
   37MOL0     C 4793   1.330   7.814   2.134 -0.2259  0.5167 -0.7946
   37MOL0     C 4794   1.390   7.884   2.003 -0.5814 -0.3879 -0.6629
   37MOL0     C 4795   1.449   7.788   1.896 -0.3947  0.7197 -0.2458
   37MOL0    Cl 4796   1.304   7.713   1.822  0.1704 -0.0550 -0.3048
   37MOL0     C 4797   1.317   7.329   2.728  0.7284  0.3976  0.3557
   37MOL0     C 4798   1.369   7.226   2.806  0.2074 -0.5986  0.9369
   37MOL0     O 4799   1.643   7.168   2.962  0.7818 -0.2211 -0.0893
   37MOL0     C 4800   1.518   6.864   3.069 -0.8542 -0.1174  0.2275
   37MOL0     C 4801   1.559   6.737   3.108 -0.0387  0.7877 -0.2371
   37MOL0     N 4802   2.024   6.208   3.717 -0.4254 -0.4578 -1.2588
   37MOL0     N 4803   2.137   6.227   3.787 -0.6041 -0.3425  0.9835
   37MOL0     C 4804   3.117   6.891   4.392 -0.4451 -0.2582  0.6604
   37MOL0     C 4805   3.254   6.902   4.372  0.0366 -0.6081  0.2856
   37MOL0     C 4806   3.686   6.815   4.310 -0.8242  1.0500 -0.0684
   37MOL0     C 4807   3.713   6.855   4.178 -0.1833  0.1144  0.0276
   37MOL0     C 4808   3.847   6.854   4.134 -0.4049  0.2731  0.0311
   37MOL0     C 4809   3.949   6.791   4.200 -0.6705  0.5543  0.1028
   37MOL0     O 4810   4.080   6.776   4.160 -0.4773  0.2074  0.1360
   37MOL0     C 4811   4.126   6.779   4.019 -0.1720  0.3802 -0.3020
   37MOL0     C 4812   4.106   6.640   3.959  0.5747 -0.5960 -0.4820
   37MOL0     C 4813   4.188   6.637   3.823  0.1911  0.2965  0.6321
   37MOL0     C 4814   4.181   6.755   3.716  0.3461 -0.2521 -0.7315
   37MOL0     C 4815   4.043   6.790   3.672 -0.2775 -0.0473 -0.3126
   37MOL0     C 4816   3.928   6.817   3.635  0.3036 -0.1838  0.0867
   37MOL0     C 4817   3.917   6.753   4.327 -0.3109 -0.0729 -0.6903
   37MOL0     C 4818   3.789   6.759   4.386  0.3569 -0.7824  0.6117
   37MOL0     H 4819   3.289   6.604   4.204  1.3302  1.2437 -0.8063
   37MOL0     H 4820   3.042   6.592   4.247  0.4013  0.2736 -1.5055
   37MOL0     H 4821   2.719   6.712   4.380 -1.5480  0.3135 -0.3915
   37MOL0     H 4822   2.852   6.605   4.330 -0.3439  0.5016 -2.2732
   37MOL0     H 4823   2.868   6.716   4.116 -1.0472 -1.1088 -1.2422
   37MOL0     H 4824   2.742   6.828   4.151 -0.9802  0.2873  0.7547
   37MOL0     H 4825   2.566   6.662   4.146  0.0831 -0.6478 -0.1446
   37MOL0     H 4826   2.671   6.535   4.165 -1.6260  0.2700  0.6309
   37MOL0     H 4827   2.677   6.700   3.907  3.1144 -2.2971 -2.0045
   37MOL0     H 4828   2.774   6.565   3.942 -0.9137 -2.1065 -4.6707
   37MOL0     H 4829   2.488   6.543   3.993 -0.0484 -0.5377  1.4474
   37MOL0     H 4830   2.589   6.410   3.931  1.8446 -0.6496 -2.3989
   37MOL0     H 4831   2.571   6.506   3.699 -1.6529  0.6566 -1.9608
   37MOL0     H 4832   2.500   6.652   3.774 -0.0757  0.6227  0.5264
   37MOL0     H 4833   2.304   6.523   3.841 -0.9855  2.2722 -1.4212
   37MOL0     H 4834   2.330   6.544   3.667 -2.2005  0.4370  0.4864
   37MOL0     H 4835   2.397   6.310   3.849  1.5276  2.1336  0.9888
   37MOL0     H 4836   2.451   6.306   3.684  0.1147  0.1256 -0.8512
   37MOL0     H 4837   2.230   6.362   3.502 -1.8577 -0.8334 -1.8529
   37MOL0     H 4838   1.856   6.247   3.513 -0.4579 -1.8648 -0.2822
   37MOL0     H 4839   1.984   6.179   3.412  2.0920 -0.7182  1.0701
   37MOL0     H 4840   2.032   6.386   3.302 -1.0403  0.7638  0.0763
   37MOL0     H 4841   2.002   6.484   3.444 -0.6862  2.1486 -1.1865
   37MOL0     H 4842   1.781   6.368   3.275 -0.9274  2.6845 -1.2321
   37MOL0     H 4843   1.763   6.467   3.420 -0.9037 -0.4155  0.0839
   37MOL0     H 4844   1.933   6.548   3.177  0.8798  1.4522 -0.0471
   37MOL0     H 4845   1.890   6.649   3.313  5.5738 -1.1499 -1.8950
   37MOL0     H 4846   1.894   6.792   3.106  0.2627 -0.0564  0.7828
   37MOL0     H 4847   1.828   7.009   3.031 -0.1769  1.0379 -1.7163
   37MOL0     H 4848   1.307   7.326   3.123 -3.4616  4.5173  0.5358
   37MOL0     H 4849   1.200   7.511   2.989  0.4666  0.0578 -1.1046
   37MOL0     H 4850   1.301   7.529   2.550  2.0802  1.1025 -0.7248
   37MOL0     H 4851   1.389   7.638   2.649 -0.0601 -0.1149 -0.0097
   37MOL0     H 4852   1.185   7.794   2.638  0.1877 -1.5108 -0.8310
   37MOL0     H 4853   1.112   7.680   2.531 -0.1684 -0.1426  0.5550
   37MOL0     H 4854   1.333   7.680   2.386  1.3930 -0.0965  0.6689
   37MOL0     H 4855   1.369   7.832   2.489 -0.9850  1.8409 -0.4333
   37MOL0     H 4856   1.124   7.780   2.309 -2.9778  2.0934  1.2334
   37MOL0     H 4857   1.139   7.918   2.406 -1.5690 -1.0762  0.3589
   37MOL0     H 4858   1.378   7.963   2.280 -1.0057 -0.2324  1.5243
   37MOL0     H 4859   1.234   8.002   2.187  2.4669  1.8483 -0.8429
   37MOL0     H 4860   1.249   7.747   2.104  0.5013 -0.4709 -0.5961
   37MOL0     H 4861   1.405   7.748   2.178 -3.3655 -0.6159  3.6306
   37MOL0     H 4862   1.317   7.955   1.962  0.9757  0.7922 -1.5333
   37MOL0     H 4863   1.478   7.940   2.038  1.3916 -3.4375 -0.3548
   37MOL0     H 4864   1.512   7.708   1.936 -0.8472  0.1558 -0.6547
   37MOL0     H 4865   1.503   7.845   1.820 -1.2573 -0.6832 -1.9599
   37MOL0     H 4866   1.321   7.321   2.620  1.6686  0.5601  0.3623
   37MOL0     H 4867   1.411   7.144   2.749 -2.0265 -0.9827 -0.2353
   37MOL0     H 4868   1.412   6.888   3.075 -1.0990 -1.3367  1.2603
   37MOL0     H 4869   1.483   6.663   3.131 -0.2684  1.5035  1.4431
   37MOL0     H 4870   3.064   6.972   4.440 -3.6661 -1.1224 -1.0981
   37MOL0     H 4871   3.303   6.996   4.393 -0.4039 -0.7424  2.1001
   37MOL0     H 4872   3.643   6.906   4.113  1.1950  0.6666 -1.0742
   37MOL0     H 4873   3.868   6.906   4.042  2.5099  0.5084  0.7405
   37MOL0     H 4874   4.230   6.813   4.022 -1.0009  3.4542 -2.1663
   37MOL0     H 4875   4.063   6.844   3.957 -0.9470  0.7246  0.8282
   37MOL0     H 4876   4.153   6.569   4.027  1.2560 -1.9801 -2.2980
   37MOL0     H 4877   4.000   6.614   3.953 -0.4379  2.6505  0.9031
   37MOL0     H 4878   4.176   6.547   3.762 -0.3994  2.6306 -3.0250
   37MOL0     H 4879   4.288   6.639   3.866  0.5805  1.4562 -0.2594
   37MOL0     H 4880   4.225   6.841   3.767  2.7397 -0.7144 -1.8845
   37MOL0     H 4881   4.247   6.737   3.631  2.9594  4.0140  0.0898
   37MOL0     H 4882   3.831   6.848   3.599  0.2422 -2.0761 -1.5049
   37MOL0     H 4883   3.994   6.712   4.391 -2.5237 -0.9750  1.5924
   37MOL0     H 4884   3.769   6.724   4.487 -4.3594 -1.8449 -0.4307
   38MOL0     O 4885   9.079   6.056   8.476 -0.2656 -0.4751 -0.1778
   38MOL0     C 4886   9.030   6.056   8.590 -0.8365  0.0099 -0.4622
   38MOL0     O 4887   8.896   6.074   8.627  0.0088  0.1246 -0.1820
   38MOL0     C 4888   8.801   6.109   8.533 -0.2407 -0.3271  0.0284
   38MOL0     C 4889   8.806   6.069   8.399  0.1676  0.1634  0.2373
   38MOL0     C 4890   8.710   6.093   8.302  0.5332 -0.4883  0.3950
   38MOL0     C 4891   8.594   6.163   8.341 -0.1666 -1.5652  0.4569
   38MOL0     O 4892   8.488   6.172   8.255 -0.2311  0.0797 -0.2134
   38MOL0     C 4893   8.406   6.058   8.236 -0.3975  0.3971  0.8211
   38MOL0     C 4894   8.315   6.063   8.111  0.3107  0.2776  0.3162
   38MOL0     C 4895   8.180   6.134   8.143  0.3714  0.3347  0.1957
   38MOL0     C 4896   8.079   6.032   8.198 -0.6466  0.4304  0.4760
   38MOL0     C 4897   7.931   6.084   8.206 -0.5917  0.9485 -0.2385
   38MOL0     C 4898   7.851   6.077   8.071 -0.1456  0.5597  0.0768
   38MOL0     C 4899   7.706   6.114   8.098  0.5576  0.0490 -0.6072
   38MOL0     C 4900   7.614   6.133   7.979 -0.6531 -0.5376  0.4433
   38MOL0     N 4901   7.634   6.246   7.887  0.6554 -0.5293 -0.4283
   38MOL0     C 4902   7.614   6.243   7.751  0.5042  0.7812 -0.1197
   38MOL0     C 4903   7.635   6.370   7.705 -0.2396  0.3340  0.1818
   38MOL0     C 4904   7.623   6.434   7.565  0.1375  0.6835 -0.6317
   38MOL0     C 4905   7.506   6.371   7.487  0.4185  0.2376  0.0145
   38MOL0     C 4906   7.501   6.440   7.352 -0.6270 -0.4850  0.6998
   38MOL0     C 4907   7.364   6.444   7.293  0.4786 -0.0739  0.0292
   38MOL0     O 4908   7.339   6.305   7.257  0.0357  1.0270 -0.5689
   38MOL0     C 4909   7.216   6.277   7.231  0.5049 -0.2261 -0.1611
   38MOL0     C 4910   7.166   6.164   7.298  0.2353 -0.6141  0.1835
   38MOL0     C 4911   7.036   6.124   7.268 -0.2519  1.3074  0.3957
   38MOL0     C 4912   6.946   6.205   7.193  0.5771  0.5413 -0.1812
   38MOL0     C 4913   6.805   6.162   7.180  0.3780 -0.3400  0.6453
   38MOL0     O 4914   6.745   6.197   7.065 -0.6224 -0.5030 -0.0782
   38MOL0     C 4915   6.612   6.190   7.049  0.3720 -0.7185  0.3371
   38MOL0     C 4916   6.540   6.320   7.030  0.6640  0.0751  0.0004
   38MOL0     C 4917   6.400   6.314   7.019  0.3684  0.3444  0.3883
   38MOL0     C 4918   6.327   6.191   7.021  0.5880 -0.4459 -0.1687
   38MOL0     O 4919   6.197   6.208   6.997  0.1648  0.0530 -0.2726
   38MOL0     C 4920   6.104   6.120   7.068 -1.0680  0.5963  0.9393
   38MOL0     C 4921   5.958   6.140   7.014 -0.2730 -0.3347 -0.1377
   38MOL0     C 4922   5.855   6.052   7.088  0.7715 -0.1716  0.4800
   38MOL0     C 4923   5.714   6.103   7.031 -0.3828 -0.0465  0.1689
   38MOL0     C 4924   5.608   6.018   7.090  0.9938  0.1464 -1.0883
   38MOL0     C 4925   5.461   6.068   7.044  0.2110 -0.3822 -0.2289
   38MOL0     C 4926   5.348   5.978   7.098 -0.2154  0.1342  0.2740
   38MOL0     C 4927   5.217   6.040   7.052 -0.5943 -0.1277 -0.0009
   38MOL0    Cl 4928   5.173   6.206   7.123  0.2212 -0.2576 -0.1452
   38MOL0     C 4929   6.390   6.068   7.034 -0.2336 -0.0047 -0.6123
   38MOL0     C 4930   6.532   6.074   7.052 -0.7692  0.3039  0.1927
   38MOL0     O 4931   6.756   6.098   7.272  0.3190 -0.0387  0.0932
   38MOL0     C 4932   6.999   6.315   7.117  0.6696  0.4509  0.0725
   38MOL0     C 4933   7.133   6.353   7.145  0.1459 -0.2278  0.2038
   38MOL0     N 4934   7.667   6.440   7.819  0.3930 -0.8358  0.3059
   38MOL0     N 4935   7.658   6.372   7.928  0.0659  0.2511 -0.4720
   38MOL0     C 4936   8.586   6.211   8.473  0.5217 -1.7469  0.0761
   38MOL0     C 4937   8.692   6.190   8.567  1.0249 -0.5193 -0.3567
   38MOL0     C 4938   9.127   6.067   8.695 -0.7101  0.5658 -0.4920
   38MOL0     C 4939   9.247   5.997   8.697 -0.9320 -0.1571  0.1313
   38MOL0     C 4940   9.331   5.985   8.813 -1.1692  0.6645  0.0521
   38MOL0     C 4941   9.301   6.058   8.924  0.5914 -0.6503 -0.0475
   38MOL0     O 4942   9.365   6.050   9.045 -0.4998  0.2285  0.0948
   38MOL0     C 4943   9.436   5.923   9.084  0.5672 -0.1986  0.6875
   38MOL0     C 4944   9.357   5.877   9.204 -0.5272 -0.2594 -0.2096
   38MOL0     C 4945   9.407   5.746   9.262  0.3014  0.5334 -0.1323
   38MOL0     C 4946   9.529   5.756   9.347 -0.7026 -1.0232  0.0770
   38MOL0     C 4947   9.653   5.811   9.276  1.1064  0.1292 -0.0121
   38MOL0     C 4948   9.742   5.871   9.233 -0.2516  1.6129  0.0657
   38MOL0     C 4949   9.188   6.132   8.924 -0.1739 -0.5624 -0.3420
   38MOL0     C 4950   9.098   6.133   8.816  0.8232 -0.0980 -0.0703
   38MOL0     H 4951   8.891   6.019   8.355  1.8091  3.3117 -0.4994
   38MOL0     H 4952   8.716   6.072   8.195 -0.3943  0.4495  0.1302
   38MOL0     H 4953   8.353   6.037   8.329 -0.5214 -0.2090  0.6137
   38MOL0     H 4954   8.469   5.970   8.218  1.8755  2.3716 -1.9590
   38MOL0     H 4955   8.303   5.963   8.069  1.9945  0.8625 -1.7955
   38MOL0     H 4956   8.369   6.119   8.034  1.4251 -0.7703  0.3129
   38MOL0     H 4957   8.132   6.164   8.049  0.2585 -1.7857 -0.4721
   38MOL0     H 4958   8.190   6.223   8.205 -1.3455  0.4813  0.3148
   38MOL0     H 4959   8.080   5.937   8.144  2.4583  0.4686  0.2867
   38MOL0     H 4960   8.103   6.006   8.302 -3.3094  0.6971  1.2305
   38MOL0     H 4961   7.926   6.187   8.243 -0.2302  0.2825  1.8115
   38MOL0     H 4962   7.890   6.027   8.290 -0.0431  0.4111 -0.3308
   38MOL0     H 4963   7.857   5.977   8.027  0.7307  0.4699  0.3684
   38MOL0     H 4964   7.887   6.152   8.000 -1.0582  0.2810 -0.7026
   38MOL0     H 4965   7.659   6.050   8.174  2.3284 -1.7524 -0.9362
   38MOL0     H 4966   7.716   6.214   8.140 -1.1827  1.2135 -2.7608
   38MOL0     H 4967   7.518   6.156   8.027 -0.0198  0.8564  1.1045
   38MOL0     H 4968   7.613   6.045   7.914  2.3247  0.4879 -1.1800
   38MOL0     H 4969   7.588   6.157   7.691  1.3442 -0.4070  1.1408
   38MOL0     H 4970   7.718   6.413   7.516  2.0785 -2.9804  3.9155
   38MOL0     H 4971   7.619   6.543   7.574  1.8613  0.7647 -0.5973
   38MOL0     H 4972   7.411   6.382   7.539  1.8181 -2.0570  3.4402
   38MOL0     H 4973   7.538   6.267   7.479  0.4913  0.2401  0.2490
   38MOL0     H 4974   7.556   6.534   7.354 -1.6343  0.1215  0.2961
   38MOL0     H 4975   7.565   6.375   7.291  1.0554  0.7683  1.0528
   38MOL0     H 4976   7.363   6.505   7.202  1.5900  2.4044  1.5519
   38MOL0     H 4977   7.299   6.483   7.372 -2.7716 -0.8661 -2.0636
   38MOL0     H 4978   7.225   6.111   7.372  1.0135  0.5970  0.4700
   38MOL0     H 4979   7.004   6.042   7.332 -1.2392  1.0371 -0.4078
   38MOL0     H 4980   6.591   6.416   7.025 -0.3960  0.5947 -1.3380
   38MOL0     H 4981   6.342   6.405   7.005 -1.2938 -0.8953 -1.3099
   38MOL0     H 4982   6.112   6.137   7.176  2.1634 -0.3033  0.9353
   38MOL0     H 4983   6.122   6.013   7.051 -2.9147  0.2952  0.5765
   38MOL0     H 4984   5.952   6.125   6.906 -1.1835 -0.8789 -0.0276
   38MOL0     H 4985   5.926   6.244   7.021  1.3562  0.1271  0.9564
   38MOL0     H 4986   5.852   6.076   7.194 -3.4060  0.7330  0.3413
   38MOL0     H 4987   5.868   5.946   7.065  1.6008  0.1880 -0.8317
   38MOL0     H 4988   5.696   6.209   7.047 -2.6899 -0.7096  2.6400
   38MOL0     H 4989   5.712   6.084   6.923  1.5783  0.1498  0.0537
   38MOL0     H 4990   5.606   6.037   7.198  2.3008  2.1264 -1.3670
   38MOL0     H 4991   5.615   5.911   7.072 -0.2781 -0.8739  3.2596
   38MOL0     H 4992   5.455   6.057   6.935  0.8667 -0.5250 -0.2549
   38MOL0     H 4993   5.446   6.173   7.070  0.0907 -1.0839  2.7961
   38MOL0     H 4994   5.354   5.880   7.049  0.3079 -1.0530  2.5741
   38MOL0     H 4995   5.344   5.960   7.206  2.0246 -1.5290  0.1465
   38MOL0     H 4996   5.142   5.967   7.086  0.0806 -0.0421  1.7707
   38MOL0     H 4997   5.226   6.063   6.945  2.3291  0.0218  0.1969
   38MOL0     H 4998   6.331   5.978   7.047 -1.9242  0.9978 -1.0355
   38MOL0     H 4999   6.587   5.980   7.051 -0.6620  0.3608 -1.6190
   38MOL0     H 5000   6.937   6.358   7.040  1.2304  2.5922  0.7638
   38MOL0     H 5001   7.167   6.436   7.084  0.5254  0.2126  0.9950
   38MOL0     H 5002   8.504   6.271   8.510  3.4825  3.3868 -0.6603
   38MOL0     H 5003   8.692   6.229   8.669  0.9145 -2.1809  0.3117
   38MOL0     H 5004   9.280   5.938   8.613 -0.0304 -2.8694  2.2392
   38MOL0     H 5005   9.419   5.923   8.812 -0.6016  1.4491  0.4994
   38MOL0     H 5006   9.541   5.945   9.104  1.4749 -4.1142  1.0760
   38MOL0     H 5007   9.434   5.841   9.012  0.6619 -0.5803  1.1158
   38MOL0     H 5008   9.370   5.951   9.284  2.5606 -1.2007  0.3014
   38MOL0     H 5009   9.251   5.866   9.183 -0.7492 -2.3514  1.6331
   38MOL0     H 5010   9.410   5.671   9.182 -1.9176 -1.0899  1.1774
   38MOL0     H 5011   9.339   5.696   9.331  1.6870 -0.9526  0.2357
   38MOL0     H 5012   9.496   5.825   9.425 -1.6298 -1.4259  0.0484
   38MOL0     H 5013   9.556   5.658   9.389 -0.3930 -1.5751 -1.3517
   38MOL0     H 5014   9.829   5.926   9.202  1.0497  0.5351  1.6198
   38MOL0     H 5015   9.152   6.180   9.014 -2.4533 -2.7403  0.0052
   38MOL0     H 5016   9.011   6.189   8.849  1.4292  1.8129 -1.5183
   39MOL0     O 5017   4.320   7.865  10.301 -0.1447  0.4684  0.2787
   39MOL0     C 5018   4.408   7.943  10.274  1.0427 -0.0161  0.7802
   39MOL0     O 5019   4.408   8.029  10.175 -0.3532 -0.6893  0.4610
   39MOL0     C 5020   4.288   8.056  10.109  0.4842 -0.1426 -0.6399
   39MOL0     C 5021   4.285   8.064   9.971  0.9661  0.0839  0.3650
   39MOL0     C 5022   4.167   8.083   9.901 -1.0210  0.3532 -0.4821
   39MOL0     C 5023   4.038   8.085   9.967 -0.1773 -0.8640 -0.0532
   39MOL0     O 5024   3.922   8.089   9.898  0.0430  0.8384 -0.5857
   39MOL0     C 5025   3.794   8.073   9.965 -0.0406 -0.6007  0.1188
   39MOL0     C 5026   3.686   8.092   9.862  0.2654  0.0643 -0.8604
   39MOL0     C 5027   3.593   7.972   9.842 -0.9372  0.1724  0.3095
   39MOL0     C 5028   3.458   8.006   9.768 -0.5516  0.0285 -1.4269
   39MOL0     C 5029   3.364   7.883   9.776  0.1846 -0.2469 -0.1839
   39MOL0     C 5030   3.244   7.901   9.683 -0.5662 -0.4705 -1.1257
   39MOL0     C 5031   3.148   7.791   9.696  1.3760 -1.0049 -0.2086
   39MOL0     C 5032   3.013   7.835   9.621 -0.0544  0.0661 -0.9284
   39MOL0     N 5033   2.928   7.923   9.698 -0.1352  0.5252 -0.1135
   39MOL0     C 5034   2.904   7.918   9.833 -0.0890 -0.6580  0.1306
   39MOL0     C 5035   2.805   8.007   9.853  0.3820  0.1349 -0.1675
   39MOL0     C 5036   2.741   8.018   9.987 -0.5625 -0.3959 -0.0276
   39MOL0     C 5037   2.645   7.908  10.025  0.5474 -0.0268  0.0137
   39MOL0     C 5038   2.516   7.920   9.940 -0.8838  0.0744  0.1221
   39MOL0     C 5039   2.411   7.810   9.965  0.2902  0.6248  0.4172
   39MOL0     O 5040   2.294   7.818   9.882  0.6935 -0.3871  0.5947
   39MOL0     C 5041   2.204   7.717   9.876 -0.6107 -0.2710 -1.3245
   39MOL0     C 5042   2.201   7.615   9.965 -0.4779 -0.4498 -0.2361
   39MOL0     C 5043   2.119   7.506   9.941  0.0535  1.0009 -0.2027
   39MOL0     C 5044   2.010   7.507   9.850 -0.8360  0.7247  0.0058
   39MOL0     C 5045   1.929   7.389   9.836  0.3917  0.5421 -0.1741
   39MOL0     O 5046   1.868   7.377   9.713  0.3406  0.6249  0.3037
   39MOL0     C 5047   1.783   7.275   9.686 -0.1619  1.0414 -0.9862
   39MOL0     C 5048   1.686   7.221   9.780  0.2548 -0.8355  0.1616
   39MOL0     C 5049   1.580   7.145   9.732 -0.4115  0.6953 -0.0253
   39MOL0     C 5050   1.576   7.103   9.602  0.5859  0.0027  0.0135
   39MOL0     O 5051   1.475   7.040   9.540 -0.1668  0.8548 -0.7237
   39MOL0     C 5052   1.363   7.004   9.621 -0.3872  0.4697  0.2205
   39MOL0     C 5053   1.229   6.961   9.547 -0.6393  0.0171  0.4064
   39MOL0     C 5054   1.245   6.826   9.475 -0.2430 -0.8537  0.6131
   39MOL0     C 5055   1.118   6.757   9.439  0.4028 -0.4402 -0.4609
   39MOL0     C 5056   1.030   6.852   9.337 -0.1831  0.0260 -0.6218
   39MOL0     C 5057   0.918   6.763   9.278 -0.0624  0.3106  0.1995
   39MOL0     C 5058   0.820   6.853   9.209  0.8720 -0.1544 -0.1767
   39MOL0     C 5059   0.679   6.784   9.168  0.3836 -0.0275  0.4774
   39MOL0    Cl 5060   0.566   6.884   9.068  0.4423 -0.2408  0.1509
   39MOL0     C 5061   1.687   7.132   9.527  0.6712 -0.9483  0.0056
   39MOL0     C 5062   1.789   7.225   9.562  0.6603  0.7712 -0.0992
   39MOL0     O 5063   1.920   7.307   9.928 -1.3581 -0.3217  0.8133
   39MOL0     C 5064   2.010   7.615   9.759 -0.9030  0.4090  2.2510
   39MOL0     C 5065   2.109   7.720   9.775  0.8063  1.1323  0.1066
   39MOL0     N 5066   2.768   8.062   9.731  0.0248 -0.5206  0.3179
   39MOL0     N 5067   2.842   8.010   9.641 -0.4491  0.3976 -0.4732
   39MOL0     C 5068   4.043   8.091  10.110  0.5295 -0.6641 -0.2179
   39MOL0     C 5069   4.168   8.078  10.173  0.5786 -0.5019 -0.1738
   39MOL0     C 5070   4.518   7.960  10.368  0.2955 -0.7628 -0.7292
   39MOL0     C 5071   4.638   8.020  10.326 -0.3412 -0.3802 -0.5935
   39MOL0     C 5072   4.750   8.029  10.417 -0.2132 -0.2937 -0.2307
   39MOL0     C 5073   4.734   7.993  10.548  0.0662 -0.1807 -0.5992
   39MOL0     O 5074   4.849   8.007  10.633  0.9615  0.0480  0.1712
   39MOL0     C 5075   4.943   8.108  10.602 -0.6690 -0.5977  0.5506
   39MOL0     C 5076   5.023   8.124  10.735  1.2902 -0.6282  0.3445
   39MOL0     C 5077   4.953   8.215  10.841 -0.4162 -0.2956  0.3242
   39MOL0     C 5078   4.946   8.367  10.801  0.3171  0.0598 -0.4866
   39MOL0     C 5079   5.077   8.419  10.764 -0.6903 -0.3965  0.3452
   39MOL0     C 5080   5.188   8.453  10.733 -0.8413 -0.6236 -0.3343
   39MOL0     C 5081   4.615   7.944  10.594  0.4126  0.0911 -0.1530
   39MOL0     C 5082   4.512   7.923  10.505  0.3220 -0.7789  0.5575
   39MOL0     H 5083   4.374   8.053   9.909 -1.5359 -4.3942 -3.0929
   39MOL0     H 5084   4.180   8.085   9.793  0.4037  1.7906 -0.3172
   39MOL0     H 5085   3.789   8.151  10.041  1.6288  1.2623 -1.5617
   39MOL0     H 5086   3.776   7.976  10.013 -2.5861 -0.2827 -0.0781
   39MOL0     H 5087   3.730   8.131   9.770 -1.1126  1.1627 -1.0699
   39MOL0     H 5088   3.621   8.175   9.893 -0.8887 -1.2295  0.3003
   39MOL0     H 5089   3.560   7.933   9.939 -0.5830 -1.7075 -0.2984
   39MOL0     H 5090   3.641   7.883   9.802 -0.1031  0.7011  0.1108
   39MOL0     H 5091   3.415   8.093   9.820  0.2377 -0.2403 -0.2953
   39MOL0     H 5092   3.471   8.032   9.662  1.5297  0.2969 -1.1432
   39MOL0     H 5093   3.342   7.866   9.882  1.7845  0.0382  0.2255
   39MOL0     H 5094   3.406   7.789   9.737 -0.5202 -1.2544  1.3739
   39MOL0     H 5095   3.275   7.904   9.579  1.4755  1.5235 -0.5404
   39MOL0     H 5096   3.197   7.997   9.710 -0.7621 -0.9301  0.2564
   39MOL0     H 5097   3.185   7.703   9.643  2.2331 -0.6198 -0.2654
   39MOL0     H 5098   3.129   7.758   9.798  2.2778 -1.3825 -0.1511
   39MOL0     H 5099   2.958   7.745   9.592 -0.2617  1.1185 -4.2097
   39MOL0     H 5100   3.045   7.880   9.526 -1.9433 -1.0442 -2.1761
   39MOL0     H 5101   2.944   7.853   9.910  0.8636  0.1045  0.3004
   39MOL0     H 5102   2.693   8.116   9.995  1.4445  0.5182  2.2840
   39MOL0     H 5103   2.819   8.024  10.064 -0.3989 -0.4107 -0.1891
   39MOL0     H 5104   2.618   7.919  10.130 -0.7582  1.2355 -0.4118
   39MOL0     H 5105   2.692   7.811  10.008  0.1242 -0.6804  2.2774
   39MOL0     H 5106   2.469   8.015   9.968 -3.2981 -0.8058 -0.6652
   39MOL0     H 5107   2.537   7.924   9.833  1.4627 -1.1561  0.4784
   39MOL0     H 5108   2.369   7.824  10.065  1.8636  0.7265  1.1009
   39MOL0     H 5109   2.454   7.709   9.968 -0.1934  0.2155 -2.9103
   39MOL0     H 5110   2.262   7.614  10.054 -0.9040 -2.5970  0.0757
   39MOL0     H 5111   2.128   7.426  10.014 -1.6054  0.6766 -0.3099
   39MOL0     H 5112   1.690   7.259   9.881  1.5194 -1.1210  0.2440
   39MOL0     H 5113   1.503   7.121   9.805 -0.4250 -2.2184 -0.8494
   39MOL0     H 5114   1.336   7.086   9.688  0.6387 -0.2157  1.5361
   39MOL0     H 5115   1.394   6.917   9.680  2.1380  0.4748 -0.9849
   39MOL0     H 5116   1.191   7.042   9.485  0.2624  0.5888  0.5877
   39MOL0     H 5117   1.157   6.941   9.628  0.3876  0.7457  1.5414
   39MOL0     H 5118   1.293   6.758   9.546 -0.5301  1.6410  3.3764
   39MOL0     H 5119   1.299   6.839   9.381 -0.9465 -0.3387  0.2710
   39MOL0     H 5120   1.152   6.670   9.383  3.0446 -1.2635  2.1657
   39MOL0     H 5121   1.062   6.713   9.523 -0.2865  1.7282  0.2986
   39MOL0     H 5122   1.090   6.897   9.257 -0.2297 -1.4528 -1.5411
   39MOL0     H 5123   0.987   6.941   9.384 -0.9317 -1.3504  1.4238
   39MOL0     H 5124   0.863   6.709   9.356 -2.2759  0.3166 -1.2440
   39MOL0     H 5125   0.954   6.697   9.199  1.2951  1.1244  0.1205
   39MOL0     H 5126   0.784   6.917   9.290  0.4244  0.0038 -0.4956
   39MOL0     H 5127   0.861   6.900   9.119  2.1956 -0.3977  0.2863
   39MOL0     H 5128   0.625   6.746   9.255  0.4561  1.9254  1.4426
   39MOL0     H 5129   0.689   6.695   9.106 -3.2077  0.3151 -0.8545
   39MOL0     H 5130   1.689   7.085   9.429 -0.3323  0.1763 -0.5890
   39MOL0     H 5131   1.866   7.261   9.495  1.4532  0.6923  0.7446
   39MOL0     H 5132   1.935   7.625   9.681  1.2802  1.0808  0.1219
   39MOL0     H 5133   2.121   7.799   9.702  1.0963  1.2568  0.2870
   39MOL0     H 5134   3.952   8.102  10.169  1.1558 -1.6859  0.9675
   39MOL0     H 5135   4.157   8.076  10.281 -2.4681  0.4611 -0.3488
   39MOL0     H 5136   4.646   8.057  10.224 -3.2959  1.1423 -0.3899
   39MOL0     H 5137   4.841   8.075  10.380 -0.8321  3.9584  2.7716
   39MOL0     H 5138   4.897   8.200  10.567 -1.4941 -1.3208 -0.3045
   39MOL0     H 5139   5.015   8.070  10.529  1.5772  0.5037  2.0601
   39MOL0     H 5140   5.026   8.021  10.772 -2.3080 -0.7433  0.6266
   39MOL0     H 5141   5.124   8.164  10.720  0.1389  2.3021 -0.2585
   39MOL0     H 5142   5.021   8.212  10.927 -0.2096 -2.7439  0.1471
   39MOL0     H 5143   4.851   8.186  10.866 -1.9510  2.9946 -1.4159
   39MOL0     H 5144   4.872   8.385  10.722 -2.0700 -2.7884  0.9124
   39MOL0     H 5145   4.913   8.432  10.882  1.3415 -0.3439  0.2824
   39MOL0     H 5146   5.293   8.475  10.724 -0.8269 -1.0235 -1.2043
   39MOL0     H 5147   4.603   7.939  10.702 -0.5956  0.7766 -0.2158
   39MOL0     H 5148   4.420   7.884  10.547 -2.3455  4.9328  0.9555
   40MOL0     O 5149   2.656   6.073   7.350 -0.2463  0.2017  0.7172
   40MOL0     C 5150   2.679   6.162   7.430  0.4947 -0.2377 -0.9650
   40MOL0     O 5151   2.583   6.240   7.498  0.1936  0.3348  0.0518
   40MOL0     C 5152   2.470   6.175   7.554  0.7416 -0.2861 -1.1572
   40MOL0     C 5153   2.429   6.046   7.547 -0.4259  1.2951  0.3123
   40MOL0     C 5154   2.308   5.990   7.599 -0.2255  0.6111 -0.1192
   40MOL0     C 5155   2.229   6.087   7.666  0.3757 -0.8624 -0.2797
   40MOL0     O 5156   2.114   6.076   7.736 -0.6388  0.4029 -0.5798
   40MOL0     C 5157   2.067   5.948   7.758  0.4794  1.0110  0.3375
   40MOL0     C 5158   1.984   5.889   7.647 -0.5644  0.3133  0.6293
   40MOL0     C 5159   1.864   5.973   7.616 -0.2353  0.1195  0.2486
   40MOL0     C 5160   1.784   5.900   7.518  0.5018  0.8234  0.0754
   40MOL0     C 5161   1.638   5.900   7.544 -0.2457 -0.1670 -1.1084
   40MOL0     C 5162   1.572   6.021   7.486 -0.1554 -0.5673 -0.0367
   40MOL0     C 5163   1.456   6.078   7.571  0.2780 -0.2394 -0.5251
   40MOL0     C 5164   1.377   6.202   7.522 -0.5436  0.5292 -0.3010
   40MOL0     N 5165   1.250   6.177   7.444 -0.0846 -0.1725  0.1039
   40MOL0     C 5166   1.161   6.281   7.429  1.3164 -0.8698  1.3185
   40MOL0     C 5167   1.062   6.220   7.360 -0.9717 -0.2099  0.1365
   40MOL0     C 5168   0.933   6.285   7.311  0.6090  0.1067  0.6641
   40MOL0     C 5169   0.832   6.333   7.431  0.6289 -0.4368  1.2350
   40MOL0     C 5170   0.708   6.401   7.380 -0.7288 -0.0727 -0.1464
   40MOL0     C 5171   0.601   6.295   7.345  0.2139 -0.1679  0.1420
   40MOL0     O 5172   0.481   6.379   7.336  0.9240  0.0191  0.5872
   40MOL0     C 5173   0.365   6.320   7.288 -0.5445 -0.6606 -0.0933
   40MOL0     C 5174   0.255   6.403   7.290  0.5872 -0.2030  1.0051
   40MOL0     C 5175   0.131   6.365   7.234  0.4711 -0.1155  0.0506
   40MOL0     C 5176   0.117   6.236   7.181 -0.3041  0.3258  0.1477
   40MOL0     C 5177  -0.009   6.201   7.114 -0.4625  0.8959  0.2735
   40MOL0     O 5178  -0.101   6.302   7.096  0.7503  0.4534 -0.0394
   40MOL0     C 5179  -0.223   6.288   7.030 -0.3708  0.7545 -0.1272
   40MOL0     C 5180  -0.286   6.404   6.975 -0.7104  0.4605  0.2571
   40MOL0     C 5181  -0.391   6.406   6.886 -0.5248  0.1772 -0.0017
   40MOL0     C 5182  -0.458   6.284   6.845  0.5379 -0.4360 -0.1365
   40MOL0     O 5183  -0.562   6.294   6.752  0.4889 -0.5171  0.6145
   40MOL0     C 5184  -0.617   6.173   6.696  0.6163  0.0773 -0.3761
   40MOL0     C 5185  -0.720   6.207   6.586  0.5895  0.7632  0.5495
   40MOL0     C 5186  -0.847   6.268   6.634 -0.2020 -1.1446 -0.2755
   40MOL0     C 5187  -0.940   6.165   6.697 -0.1246 -0.3378  0.3272
   40MOL0     C 5188  -1.042   6.245   6.763  0.3878  0.0734  0.9290
   40MOL0     C 5189  -1.154   6.146   6.795 -0.2740 -0.3291  0.1501
   40MOL0     C 5190  -1.272   6.225   6.868  0.0789  0.3512 -0.0222
   40MOL0     C 5191  -1.346   6.321   6.776  0.6019  0.6213 -0.4536
   40MOL0    Cl 5192  -1.506   6.364   6.841  0.1991  0.2689  0.2385
   40MOL0     C 5193  -0.405   6.164   6.907 -0.0709  0.7402  0.1171
   40MOL0     C 5194  -0.287   6.164   6.992  1.1421  0.4330  0.0911
   40MOL0     O 5195  -0.027   6.083   7.082  0.1690 -0.8994  0.6503
   40MOL0     C 5196   0.224   6.141   7.186  0.3298 -0.2118 -0.0058
   40MOL0     C 5197   0.347   6.186   7.239  0.3515 -0.0779  0.7267
   40MOL0     N 5198   1.093   6.085   7.348  0.7429  0.1001 -0.6689
   40MOL0     N 5199   1.217   6.059   7.394  0.0413 -0.7203 -0.2332
   40MOL0     C 5200   2.271   6.220   7.672 -0.3238  0.0670 -0.0318
   40MOL0     C 5201   2.391   6.268   7.619  0.9306  0.6326 -0.0493
   40MOL0     C 5202   2.818   6.206   7.465 -0.1188  0.4185  0.2831
   40MOL0     C 5203   2.926   6.146   7.394 -0.4861  0.0294  1.2810
   40MOL0     C 5204   3.062   6.176   7.425 -0.4756  0.1971 -0.5736
   40MOL0     C 5205   3.087   6.272   7.533  0.3167 -0.5562  0.0782
   40MOL0     O 5206   3.220   6.297   7.558  0.1863 -0.3136  0.8068
   40MOL0     C 5207   3.272   6.416   7.636  0.1840  0.0978 -0.5841
   40MOL0     C 5208   3.291   6.517   7.515  0.5699  0.3687 -0.9731
   40MOL0     C 5209   3.399   6.463   7.419 -0.5118  0.2244 -0.1206
   40MOL0     C 5210   3.476   6.574   7.348  0.1922  0.3083  0.0041
   40MOL0     C 5211   3.562   6.641   7.445  0.0115  1.0826 -0.2598
   40MOL0     C 5212   3.636   6.706   7.513 -0.0129 -0.5371 -0.7089
   40MOL0     C 5213   2.983   6.324   7.607 -0.6057 -0.0459  0.4465
   40MOL0     C 5214   2.851   6.290   7.572 -0.8677  0.3796  0.5930
   40MOL0     H 5215   2.491   5.971   7.500 -1.9781 -0.3737  0.8320
   40MOL0     H 5216   2.273   5.890   7.575 -1.7558  1.6347 -2.5152
   40MOL0     H 5217   1.997   5.965   7.840  0.2640 -2.2538  0.9500
   40MOL0     H 5218   2.145   5.879   7.790  1.4319  1.7394 -0.3488
   40MOL0     H 5219   1.954   5.787   7.672 -0.3698 -1.2990 -4.4772
   40MOL0     H 5220   2.055   5.882   7.564  0.7208  5.7757  0.8909
   40MOL0     H 5221   1.892   6.073   7.580 -1.1689  1.3418  2.7200
   40MOL0     H 5222   1.805   5.998   7.704 -1.7679  1.5300 -1.0980
   40MOL0     H 5223   1.796   5.958   7.426  1.3309 -0.1003 -0.4153
   40MOL0     H 5224   1.810   5.795   7.506 -0.2073  0.6242  0.2126
   40MOL0     H 5225   1.625   5.901   7.653  0.0399  0.4944 -1.0796
   40MOL0     H 5226   1.601   5.801   7.516  0.2086  0.0417 -2.5250
   40MOL0     H 5227   1.538   5.990   7.387 -1.9976  0.5101  0.2079
   40MOL0     H 5228   1.637   6.109   7.483  0.8281 -1.2436 -3.9594
   40MOL0     H 5229   1.378   6.006   7.597 -0.7162  0.8844 -0.3381
   40MOL0     H 5230   1.508   6.102   7.664 -1.9524 -0.9095  0.9790
   40MOL0     H 5231   1.449   6.256   7.461  2.3630 -2.4199  0.2666
   40MOL0     H 5232   1.347   6.263   7.608  0.5587 -0.6363  0.9685
   40MOL0     H 5233   1.187   6.386   7.439  0.4240 -0.8267  4.1697
   40MOL0     H 5234   0.873   6.216   7.251  0.2413  0.5654  0.5064
   40MOL0     H 5235   0.963   6.376   7.259  1.7763 -1.1971 -1.0811
   40MOL0     H 5236   0.882   6.415   7.484 -1.9993  1.3873  1.0684
   40MOL0     H 5237   0.803   6.249   7.496 -0.0247 -1.4108 -0.2664
   40MOL0     H 5238   0.661   6.457   7.462  3.1731 -1.3940  3.3370
   40MOL0     H 5239   0.727   6.467   7.295  0.5674 -0.9604 -0.5874
   40MOL0     H 5240   0.581   6.221   7.423 -1.5541 -0.2347 -0.3414
   40MOL0     H 5241   0.635   6.248   7.252  1.3177 -0.0165  0.4452
   40MOL0     H 5242   0.268   6.495   7.347  3.2446 -0.3118  0.7195
   40MOL0     H 5243   0.045   6.430   7.225  1.5772  1.0876 -5.9996
   40MOL0     H 5244  -0.246   6.500   7.005 -1.2654  0.6707  0.3164
   40MOL0     H 5245  -0.431   6.499   6.848  0.2052 -0.1928 -1.7432
   40MOL0     H 5246  -0.670   6.117   6.773  1.4886  0.0587  0.2176
   40MOL0     H 5247  -0.538   6.107   6.660  0.1073  0.6610 -2.7159
   40MOL0     H 5248  -0.752   6.126   6.519 -1.9007  2.2677 -0.1734
   40MOL0     H 5249  -0.665   6.283   6.530  2.8970 -1.4304 -0.3666
   40MOL0     H 5250  -0.895   6.322   6.552 -1.1610  0.6097  1.3429
   40MOL0     H 5251  -0.820   6.346   6.706 -0.2713  0.2083 -1.6573
   40MOL0     H 5252  -0.973   6.089   6.625  1.2574 -1.4966  0.8550
   40MOL0     H 5253  -0.894   6.101   6.773  0.2323 -3.3370 -2.2039
   40MOL0     H 5254  -1.092   6.313   6.692 -1.1746 -0.3390  1.5802
   40MOL0     H 5255  -0.998   6.287   6.854 -0.8552 -0.8568  1.9988
   40MOL0     H 5256  -1.119   6.079   6.874  1.1322  0.5748  0.3274
   40MOL0     H 5257  -1.192   6.084   6.712 -2.8503  0.0028  0.9740
   40MOL0     H 5258  -1.349   6.163   6.914  1.3997  0.4351  2.4875
   40MOL0     H 5259  -1.232   6.282   6.952  0.5019 -1.6615  1.2003
   40MOL0     H 5260  -1.360   6.284   6.674 -1.7975  1.5855 -0.5470
   40MOL0     H 5261  -1.288   6.414   6.776 -0.2274  1.1536  0.3588
   40MOL0     H 5262  -0.458   6.077   6.868  1.5315  0.8046 -2.4156
   40MOL0     H 5263  -0.247   6.066   7.019  2.4601  0.2125 -2.3678
   40MOL0     H 5264   0.215   6.037   7.159  4.4069 -0.5540 -0.6000
   40MOL0     H 5265   0.432   6.119   7.235  0.9282  0.6779 -1.6821
   40MOL0     H 5266   2.199   6.285   7.720 -2.7195 -2.2287 -0.2769
   40MOL0     H 5267   2.415   6.374   7.617  1.1516  0.5742 -0.4934
   40MOL0     H 5268   2.900   6.078   7.314  0.7497  0.1242  0.7676
   40MOL0     H 5269   3.152   6.142   7.374  1.0253  0.9072  1.4715
   40MOL0     H 5270   3.370   6.395   7.679  1.6483 -0.6205 -3.9169
   40MOL0     H 5271   3.192   6.444   7.705 -0.6561 -0.2629 -1.3856
   40MOL0     H 5272   3.203   6.526   7.450  1.2456 -1.0818 -2.1363
   40MOL0     H 5273   3.307   6.616   7.559 -0.3156  0.3111 -0.5068
   40MOL0     H 5274   3.348   6.403   7.343  1.1362 -1.8867  0.3240
   40MOL0     H 5275   3.467   6.400   7.476  0.3738 -0.2649 -1.6484
   40MOL0     H 5276   3.533   6.518   7.273  0.6091  2.7293 -1.6101
   40MOL0     H 5277   3.415   6.639   7.284 -1.8135 -1.9043 -0.4748
   40MOL0     H 5278   3.685   6.781   7.573  0.4864  0.4014 -2.2326
   40MOL0     H 5279   2.991   6.409   7.673 -2.3113  2.6510 -2.5113
   40MOL0     H 5280   2.773   6.342   7.626  1.0277  2.1410  1.8364
   41MOL0     O 5281   7.462   5.398   7.345 -0.7758 -0.4957  0.1750
   41MOL0     C 5282   7.390   5.344   7.430  0.2046  0.1642 -0.3918
   41MOL0     O 5283   7.420   5.327   7.563 -0.2909 -0.0694  0.7851
   41MOL0     C 5284   7.549   5.328   7.612 -0.9609 -0.2854  0.1262
   41MOL0     C 5285   7.657   5.302   7.524 -0.9086  0.1614  0.1631
   41MOL0     C 5286   7.783   5.315   7.572  0.2924 -0.4558 -0.4740
   41MOL0     C 5287   7.812   5.366   7.702 -0.4580  0.9889  0.4538
   41MOL0     O 5288   7.936   5.376   7.757  0.6958 -0.5437 -0.1035
   41MOL0     C 5289   8.060   5.330   7.691  0.6304  0.9669  0.2400
   41MOL0     C 5290   8.184   5.401   7.745  0.0389 -0.6269  0.5686
   41MOL0     C 5291   8.305   5.328   7.690 -0.2624 -0.5234  0.9263
   41MOL0     C 5292   8.443   5.398   7.687  0.3239  0.3594 -0.2909
   41MOL0     C 5293   8.565   5.301   7.667 -0.5075  0.2416  0.4683
   41MOL0     C 5294   8.701   5.377   7.646 -1.1395  0.0422 -0.3562
   41MOL0     C 5295   8.816   5.280   7.638 -0.2839 -0.2150 -0.4262
   41MOL0     C 5296   8.840   5.203   7.772 -0.0621  0.1277  0.5667
   41MOL0     N 5297   8.868   5.303   7.880  0.6066  0.4644 -0.1285
   41MOL0     C 5298   8.775   5.344   7.967  0.1800 -0.0259  0.6823
   41MOL0     C 5299   8.844   5.411   8.063 -0.0807  0.2325  0.7434
   41MOL0     C 5300   8.811   5.479   8.191  0.3821  0.5024  0.0739
   41MOL0     C 5301   8.661   5.523   8.187  0.0146 -0.2164 -0.7442
   41MOL0     C 5302   8.640   5.660   8.117  0.3724 -0.2129  0.5325
   41MOL0     C 5303   8.493   5.670   8.073 -0.0097 -0.2648  0.3292
   41MOL0     O 5304   8.408   5.682   8.184 -0.5503 -0.3693  0.5423
   41MOL0     C 5305   8.273   5.653   8.175  0.3905  1.5743  0.7802
   41MOL0     C 5306   8.203   5.630   8.050 -0.3588  0.2263 -0.4398
   41MOL0     C 5307   8.064   5.606   8.055 -0.0103  0.5211 -0.1037
   41MOL0     C 5308   8.003   5.595   8.185 -0.2095  0.7941  0.6015
   41MOL0     C 5309   7.858   5.574   8.189  0.2483 -0.6953  0.3312
   41MOL0     O 5310   7.786   5.611   8.074  0.2805 -0.3284  0.1594
   41MOL0     C 5311   7.649   5.602   8.086 -0.0141 -0.7345 -0.4775
   41MOL0     C 5312   7.586   5.708   8.040 -0.5069  0.4313  0.2457
   41MOL0     C 5313   7.447   5.727   8.039  0.4932 -0.3130 -0.4260
   41MOL0     C 5314   7.366   5.627   8.103  0.8093  0.4174 -0.1708
   41MOL0     O 5315   7.228   5.661   8.116  0.1583  0.6438 -0.2967
   41MOL0     C 5316   7.138   5.567   8.176  0.0581  0.9390  0.6540
   41MOL0     C 5317   7.000   5.638   8.187  0.3219 -0.7550  0.0884
   41MOL0     C 5318   6.873   5.567   8.233 -0.5029  0.0707  0.6228
   41MOL0     C 5319   6.760   5.669   8.207 -0.3562 -0.9130  0.3070
   41MOL0     C 5320   6.628   5.625   8.232  1.0159 -0.1514  0.3592
   41MOL0     C 5321   6.514   5.729   8.205 -0.3085 -0.0783 -0.3671
   41MOL0     C 5322   6.499   5.825   8.329 -0.7482 -0.3933  1.1161
   41MOL0     C 5323   6.386   5.935   8.309 -0.4845  0.1114 -0.3598
   41MOL0    Cl 5324   6.224   5.868   8.314 -0.3267 -0.1401  0.4567
   41MOL0     C 5325   7.430   5.508   8.150  0.9274  0.2805 -0.0166
   41MOL0     C 5326   7.568   5.493   8.131  0.1592 -0.4362  0.0230
   41MOL0     O 5327   7.813   5.528   8.294  0.6147 -0.2590 -0.1444
   41MOL0     C 5328   8.079   5.608   8.304 -0.2193 -0.3038  0.6982
   41MOL0     C 5329   8.214   5.633   8.293  0.4083 -0.1631 -0.2668
   41MOL0     N 5330   8.979   5.399   8.030 -0.4157  0.0258  0.3842
   41MOL0     N 5331   8.989   5.333   7.927  0.2110  0.9462 -0.2126
   41MOL0     C 5332   7.706   5.397   7.789  0.7606  0.2508 -0.6086
   41MOL0     C 5333   7.571   5.378   7.742  0.0106 -0.0013  0.0010
   41MOL0     C 5334   7.257   5.291   7.377  0.0620  0.4518  0.2560
   41MOL0     C 5335   7.173   5.220   7.457  0.1056 -0.5351  0.7253
   41MOL0     C 5336   7.045   5.181   7.423  0.1786  0.2997  0.0675
   41MOL0     C 5337   7.003   5.210   7.294  0.4324  0.0311  0.5985
   41MOL0     O 5338   6.874   5.163   7.261  0.3180 -0.2003 -0.5871
   41MOL0     C 5339   6.861   5.077   7.148 -0.0979 -0.1354  1.5735
   41MOL0     C 5340   6.713   5.045   7.124  0.3995 -0.3286  0.3625
   41MOL0     C 5341   6.689   4.946   7.004 -0.2421 -0.3450  0.5175
   41MOL0     C 5342   6.541   4.950   6.987  0.5405 -0.0061 -0.0164
   41MOL0     C 5343   6.508   4.842   6.892  0.7104 -0.3480  0.3300
   41MOL0     C 5344   6.491   4.767   6.804 -1.3034 -0.4279 -0.4685
   41MOL0     C 5345   7.085   5.289   7.213 -0.1079  0.3286 -0.1139
   41MOL0     C 5346   7.212   5.330   7.251  0.9072 -0.0028  0.0199
   41MOL0     H 5347   7.647   5.268   7.421 -1.5651 -0.0979  0.3042
   41MOL0     H 5348   7.864   5.276   7.511  0.0954 -1.4834 -0.0939
   41MOL0     H 5349   8.058   5.362   7.586 -1.8627  0.3128  0.0465
   41MOL0     H 5350   8.067   5.221   7.695  1.6472  0.8660 -2.1902
   41MOL0     H 5351   8.190   5.406   7.854 -0.5788  2.7057  0.5439
   41MOL0     H 5352   8.185   5.505   7.712  1.3406 -0.6648  0.4228
   41MOL0     H 5353   8.295   5.287   7.589 -2.1799  0.1285  0.7917
   41MOL0     H 5354   8.314   5.238   7.750  1.2590  0.1806  1.8070
   41MOL0     H 5355   8.447   5.476   7.610  0.4607  1.3828  0.7218
   41MOL0     H 5356   8.460   5.450   7.782 -0.8145 -0.6482  0.4902
   41MOL0     H 5357   8.547   5.240   7.577 -0.6659 -0.0333  0.6814
   41MOL0     H 5358   8.568   5.232   7.752 -3.1073  0.7567  1.0699
   41MOL0     H 5359   8.719   5.458   7.717  1.3254 -0.1696 -0.6767
   41MOL0     H 5360   8.685   5.431   7.552  0.7380 -2.1738 -2.0683
   41MOL0     H 5361   8.790   5.207   7.560  1.0085 -0.9189 -0.2192
   41MOL0     H 5362   8.901   5.340   7.606  0.5624 -0.4397  1.2894
   41MOL0     H 5363   8.924   5.136   7.754 -0.5636 -0.4150  0.2179
   41MOL0     H 5364   8.750   5.143   7.789  0.1521 -0.0549  1.1018
   41MOL0     H 5365   8.667   5.331   7.964  0.3106 -2.0261  2.1626
   41MOL0     H 5366   8.866   5.573   8.201 -1.6242  1.7142  0.3073
   41MOL0     H 5367   8.839   5.420   8.279 -0.5926 -1.6819 -1.0047
   41MOL0     H 5368   8.616   5.535   8.286  0.8106 -4.1029  0.2828
   41MOL0     H 5369   8.600   5.450   8.134 -0.3407 -2.0945  2.0326
   41MOL0     H 5370   8.683   5.744   8.172  2.3991  0.7178 -2.2360
   41MOL0     H 5371   8.710   5.663   8.033 -1.6501 -0.1784 -1.2542
   41MOL0     H 5372   8.463   5.583   8.013  4.1455 -1.9258  0.3563
   41MOL0     H 5373   8.487   5.753   8.002 -0.0053 -1.9781 -1.7771
   41MOL0     H 5374   8.253   5.644   7.955 -0.5676 -2.0873 -0.9482
   41MOL0     H 5375   8.014   5.582   7.962 -0.6979 -5.4301  1.4370
   41MOL0     H 5376   7.642   5.796   8.009 -0.5505  1.1667  2.1180
   41MOL0     H 5377   7.428   5.820   7.986  2.2937 -0.7416 -1.9367
   41MOL0     H 5378   7.179   5.534   8.272  0.3630 -1.2147 -0.1470
   41MOL0     H 5379   7.135   5.479   8.111  0.9868  0.4699  1.2240
   41MOL0     H 5380   6.978   5.663   8.083 -0.0250  0.1317  0.3685
   41MOL0     H 5381   7.024   5.726   8.247  2.3858 -0.6732 -0.7524
   41MOL0     H 5382   6.888   5.542   8.338  2.1858 -3.0870 -0.3304
   41MOL0     H 5383   6.852   5.479   8.171  0.3258  0.6715 -0.5372
   41MOL0     H 5384   6.774   5.754   8.275 -0.4969 -0.4051 -0.2952
   41MOL0     H 5385   6.756   5.696   8.102 -0.1064  0.3723  0.6146
   41MOL0     H 5386   6.618   5.602   8.339 -2.9033  1.1780  0.4358
   41MOL0     H 5387   6.611   5.546   8.158 -3.7109  1.5445 -0.7115
   41MOL0     H 5388   6.418   5.677   8.218 -2.5943  3.2647 -2.1699
   41MOL0     H 5389   6.511   5.769   8.103 -1.1826 -2.5056 -1.3593
   41MOL0     H 5390   6.473   5.763   8.416  2.1661  1.6148  3.6484
   41MOL0     H 5391   6.593   5.878   8.349 -1.2201  0.7636  0.3612
   41MOL0     H 5392   6.402   5.990   8.216 -1.5876  0.4257 -0.3701
   41MOL0     H 5393   6.409   5.998   8.396  4.0692 -1.3664 -0.2064
   41MOL0     H 5394   7.367   5.425   8.180 -0.1332  0.9770 -0.2425
   41MOL0     H 5395   7.628   5.408   8.163  1.0497  0.4777  0.8073
   41MOL0     H 5396   8.037   5.592   8.402  3.2295 -1.1213  2.2135
   41MOL0     H 5397   8.273   5.660   8.380  0.9993  4.1843 -1.8007
   41MOL0     H 5398   7.711   5.431   7.892 -0.2181  1.9563 -1.0907
   41MOL0     H 5399   7.485   5.403   7.803 -1.7000 -2.8096 -1.0702
   41MOL0     H 5400   7.215   5.196   7.554  0.6193  1.6798  1.1201
   41MOL0     H 5401   6.977   5.124   7.486  0.8193 -1.8592 -1.0696
   41MOL0     H 5402   6.905   4.978   7.166 -1.6332 -1.0989  0.3183
   41MOL0     H 5403   6.908   5.112   7.057 -3.7590 -1.5187 -1.1067
   41MOL0     H 5404   6.669   5.004   7.216 -0.0437 -1.0585 -0.1657
   41MOL0     H 5405   6.670   5.144   7.103  3.7600  1.2779  0.4560
   41MOL0     H 5406   6.721   4.848   7.039 -1.1499  0.0559  2.6411
   41MOL0     H 5407   6.748   4.977   6.917 -0.7353 -2.1927 -0.5101
   41MOL0     H 5408   6.491   4.933   7.083 -0.5581  3.6182  0.1838
   41MOL0     H 5409   6.489   5.038   6.946 -0.3712  0.8017  2.6822
   41MOL0     H 5410   6.453   4.695   6.734  0.1595 -1.4326 -0.2682
   41MOL0     H 5411   7.060   5.310   7.109 -1.1847 -0.0630  0.0516
   41MOL0     H 5412   7.275   5.388   7.184  0.7925 -0.0572 -0.1365
   42MOL0     O 5413   8.928   6.531   6.927  0.2280  0.5632 -0.2703
   42MOL0     C 5414   8.976   6.460   6.836 -0.1682 -0.0265 -0.6832
   42MOL0     O 5415   9.103   6.407   6.832 -0.2094 -0.2157 -0.4986
   42MOL0     C 5416   9.197   6.418   6.930 -1.0275 -0.0318 -0.0685
   42MOL0     C 5417   9.165   6.428   7.070 -0.0587  0.0116  0.7759
   42MOL0     C 5418   9.270   6.424   7.167  0.3579 -0.1801 -0.2751
   42MOL0     C 5419   9.397   6.387   7.132 -0.2080  1.0195 -0.0180
   42MOL0     O 5420   9.489   6.388   7.231  0.1237  0.8333  0.1581
   42MOL0     C 5421   9.626   6.369   7.190 -0.1956 -0.1924  0.1416
   42MOL0     C 5422   9.719   6.411   7.309  0.3152 -0.5459  0.3230
   42MOL0     C 5423   9.853   6.355   7.310  0.5123  0.5991 -0.0340
   42MOL0     C 5424   9.856   6.210   7.355 -0.1431  0.6105 -0.0476
   42MOL0     C 5425   9.983   6.147   7.292 -0.1181  0.0639  0.2843
   42MOL0     C 5426  10.024   6.030   7.376  0.1143 -0.1078 -1.1159
   42MOL0     C 5427  10.157   6.042   7.456  0.5943 -0.0439 -0.3355
   42MOL0     C 5428  10.144   6.142   7.569  0.2555 -0.2392 -0.0381
   42MOL0     N 5429  10.267   6.162   7.645 -0.2830 -0.4237 -0.4635
   42MOL0     C 5430  10.324   6.093   7.742 -0.4483 -0.4821 -0.6070
   42MOL0     C 5431  10.445   6.162   7.773  0.9664  0.5596 -0.3132
   42MOL0     C 5432  10.527   6.111   7.883  0.4427  0.3694  0.2555
   42MOL0     C 5433  10.476   6.175   8.016  0.4946  0.2378  0.8110
   42MOL0     C 5434  10.531   6.112   8.142 -0.2847  0.4139  0.5330
   42MOL0     C 5435  10.488   6.187   8.267  0.3265 -0.0400 -0.2144
   42MOL0     O 5436  10.364   6.116   8.309 -0.0651  0.0797 -0.1157
   42MOL0     C 5437  10.284   6.165   8.411  0.0486 -0.6530 -0.0553
   42MOL0     C 5438  10.328   6.257   8.508  0.4923  0.3228 -0.6087
   42MOL0     C 5439  10.241   6.294   8.620  0.3565 -1.1861  0.4342
   42MOL0     C 5440  10.109   6.231   8.629 -0.2565  0.8712  0.8975
   42MOL0     C 5441  10.025   6.261   8.747  0.6778  0.2173 -0.5644
   42MOL0     O 5442   9.944   6.160   8.799 -0.6898  0.4577 -0.2080
   42MOL0     C 5443   9.860   6.197   8.903  1.0935  1.0297  0.3880
   42MOL0     C 5444   9.910   6.189   9.030  1.5928  0.0054  0.2786
   42MOL0     C 5445   9.833   6.232   9.143  0.1110 -0.4221 -0.1262
   42MOL0     C 5446   9.695   6.266   9.131  0.5596 -0.2755 -0.3373
   42MOL0     O 5447   9.611   6.290   9.243  0.1887 -0.4882  0.3070
   42MOL0     C 5448   9.653   6.218   9.361 -0.3573  0.6654 -0.2805
   42MOL0     C 5449   9.550   6.179   9.460 -0.0189 -0.8929 -0.1354
   42MOL0     C 5450   9.623   6.134   9.591 -0.7275  0.2226  1.1108
   42MOL0     C 5451   9.715   6.015   9.571  0.3961 -0.4499 -0.9270
   42MOL0     C 5452   9.799   5.988   9.691 -0.7800  0.2014 -0.1541
   42MOL0     C 5453   9.739   5.913   9.802 -0.1234 -1.0193 -0.5995
   42MOL0     C 5454   9.834   5.897   9.923  1.3649  0.1067 -0.1779
   42MOL0     C 5455   9.775   5.802  10.032  0.3442  0.6186 -0.1732
   42MOL0    Cl 5456   9.896   5.736  10.148 -0.3349  0.1710  0.4357
   42MOL0     C 5457   9.643   6.269   9.003 -1.1475  1.0679 -0.7885
   42MOL0     C 5458   9.724   6.243   8.893  0.1167  0.1706 -0.2578
   42MOL0     O 5459  10.018   6.381   8.779  0.8804  0.6567  0.1089
   42MOL0     C 5460  10.075   6.141   8.533  0.7240 -0.0481  0.6998
   42MOL0     C 5461  10.161   6.112   8.428 -0.3039  0.1376  0.6029
   42MOL0     N 5462  10.445   6.278   7.702 -0.5188 -0.2059 -0.3093
   42MOL0     N 5463  10.341   6.275   7.619 -0.5406 -0.1689 -0.4705
   42MOL0     C 5464   9.426   6.380   6.997 -0.6027  0.4689 -0.1901
   42MOL0     C 5465   9.332   6.394   6.891  0.0532  0.0373  0.3159
   42MOL0     C 5466   8.894   6.416   6.723  1.0011  0.4970 -0.0676
   42MOL0     C 5467   8.950   6.395   6.595 -0.3009 -0.4853  0.2146
   42MOL0     C 5468   8.872   6.359   6.479 -0.5642 -0.2151  0.7719
   42MOL0     C 5469   8.736   6.344   6.499 -0.0700 -0.4759 -0.7750
   42MOL0     O 5470   8.657   6.314   6.391 -0.7874 -0.5163 -0.1976
   42MOL0     C 5471   8.517   6.293   6.396 -0.6160  0.0860 -0.2371
   42MOL0     C 5472   8.442   6.431   6.413 -0.4508 -0.5929 -0.2800
   42MOL0     C 5473   8.505   6.548   6.332  1.0769 -0.7047 -0.3419
   42MOL0     C 5474   8.449   6.688   6.374 -0.1379 -0.7930  0.2272
   42MOL0     C 5475   8.304   6.689   6.382  0.4466  0.2794  0.3834
   42MOL0     C 5476   8.183   6.712   6.386 -0.0607 -0.8625 -0.3879
   42MOL0     C 5477   8.676   6.356   6.624  0.3258 -0.0491 -0.0209
   42MOL0     C 5478   8.754   6.396   6.730 -0.0863  0.6329 -0.1019
   42MOL0     H 5479   9.061   6.433   7.101  0.8266 -0.7216  4.3339
   42MOL0     H 5480   9.252   6.461   7.268  2.6630 -2.3605  1.0426
   42MOL0     H 5481   9.647   6.434   7.104 -2.3009  0.7078  0.2523
   42MOL0     H 5482   9.650   6.277   7.137 -0.1445  2.8494 -5.9499
   42MOL0     H 5483   9.674   6.393   7.407 -0.6091 -1.6161 -0.2773
   42MOL0     H 5484   9.724   6.520   7.315 -1.2940 -0.4235 -0.1676
   42MOL0     H 5485   9.913   6.413   7.381  1.5621 -1.1354  0.5646
   42MOL0     H 5486   9.896   6.366   7.210 -1.7127 -0.0875 -1.1211
   42MOL0     H 5487   9.856   6.202   7.465  2.2374 -0.2571 -0.0483
   42MOL0     H 5488   9.775   6.150   7.312  1.3193 -0.2101 -1.7551
   42MOL0     H 5489  10.067   6.217   7.286 -0.3184  1.0958  5.0785
   42MOL0     H 5490   9.948   6.100   7.200  0.5545  1.0664 -0.5039
   42MOL0     H 5491  10.036   5.936   7.321 -1.0758 -0.5650 -0.6157
   42MOL0     H 5492   9.950   6.006   7.453  2.0376 -2.4752  0.1467
   42MOL0     H 5493  10.170   5.949   7.512 -0.0251 -1.2040 -2.0110
   42MOL0     H 5494  10.250   6.067   7.403  1.7471  0.0009  1.5982
   42MOL0     H 5495  10.073   6.112   7.648  1.6918  0.9484  1.7911
   42MOL0     H 5496  10.106   6.235   7.527 -0.7898 -0.7335 -0.2165
   42MOL0     H 5497  10.286   6.005   7.792  0.2672  0.2131  1.2460
   42MOL0     H 5498  10.621   6.164   7.863 -0.0738  1.0843 -0.3260
   42MOL0     H 5499  10.520   6.003   7.897 -0.3491  0.4913  0.8309
   42MOL0     H 5500  10.367   6.175   8.018  0.2340  1.1874 -3.6243
   42MOL0     H 5501  10.514   6.278   8.015  2.3945 -0.2678 -3.6150
   42MOL0     H 5502  10.493   6.009   8.139  0.9997 -0.0714 -0.1212
   42MOL0     H 5503  10.640   6.109   8.131 -0.2716 -1.9698  0.7259
   42MOL0     H 5504  10.461   6.291   8.248 -2.8889 -0.4894  1.2009
   42MOL0     H 5505  10.568   6.197   8.340  0.1508 -0.5737  0.0588
   42MOL0     H 5506  10.427   6.299   8.494  1.8151 -1.5172  2.2984
   42MOL0     H 5507  10.272   6.365   8.695  2.9869 -1.1847 -0.5469
   42MOL0     H 5508  10.013   6.159   9.044  0.8710 -1.6179  2.8661
   42MOL0     H 5509   9.879   6.233   9.242 -0.0016 -2.9207  0.0172
   42MOL0     H 5510   9.737   6.272   9.405 -0.1007  1.2319 -1.4374
   42MOL0     H 5511   9.685   6.121   9.323 -2.8188  1.2161 -4.3626
   42MOL0     H 5512   9.473   6.109   9.424  0.3037 -0.9626 -0.7011
   42MOL0     H 5513   9.484   6.262   9.486  0.9655 -0.0732 -0.2129
   42MOL0     H 5514   9.552   6.112   9.671  1.0789  1.1224  3.0734
   42MOL0     H 5515   9.687   6.213   9.630 -1.0318 -0.3058  2.7584
   42MOL0     H 5516   9.655   5.932   9.531  0.7392 -0.6091 -1.1124
   42MOL0     H 5517   9.776   6.058   9.492 -1.2666  0.1045 -1.9719
   42MOL0     H 5518   9.837   6.084   9.729 -3.3450  0.8012  1.0885
   42MOL0     H 5519   9.886   5.941   9.645 -0.5722  0.2854  0.1489
   42MOL0     H 5520   9.717   5.815   9.759 -1.4706  0.1889 -2.8557
   42MOL0     H 5521   9.644   5.959   9.831  1.5170  0.6383  2.6604
   42MOL0     H 5522   9.929   5.851   9.893 -0.3708 -2.6903 -1.7936
   42MOL0     H 5523   9.845   5.999   9.962 -2.4665  0.9828 -1.0434
   42MOL0     H 5524   9.724   5.720   9.982  0.2965  0.2139  0.5242
   42MOL0     H 5525   9.697   5.856  10.087  1.0330  2.3294 -0.8059
   42MOL0     H 5526   9.536   6.289   9.001 -1.3177  0.4565  0.5815
   42MOL0     H 5527   9.682   6.257   8.794 -0.5695  0.2480  0.0419
   42MOL0     H 5528   9.981   6.087   8.530  0.0376  1.1667 -0.4641
   42MOL0     H 5529  10.144   6.026   8.364  0.9528 -0.4159  0.9775
   42MOL0     H 5530   9.520   6.373   6.943  0.1571 -0.4080  1.1753
   42MOL0     H 5531   9.352   6.388   6.784  0.7148 -3.2422  0.4934
   42MOL0     H 5532   9.057   6.401   6.580 -0.3883  0.6258 -0.0130
   42MOL0     H 5533   8.920   6.344   6.383  0.3348  2.2539  0.7485
   42MOL0     H 5534   8.479   6.222   6.470 -0.2620  0.6139  0.4558
   42MOL0     H 5535   8.488   6.259   6.296 -1.7638  1.2974 -0.3433
   42MOL0     H 5536   8.336   6.431   6.387 -0.6302 -1.5626  0.3733
   42MOL0     H 5537   8.431   6.460   6.518  1.8069 -4.4536  1.2295
   42MOL0     H 5538   8.469   6.543   6.229 -0.3808  2.5357 -0.1329
   42MOL0     H 5539   8.614   6.547   6.329  1.1236  0.4146  0.1972
   42MOL0     H 5540   8.493   6.719   6.469  0.2563  0.1127 -0.2361
   42MOL0     H 5541   8.498   6.763   6.311 -0.7401 -1.0899 -0.6160
   42MOL0     H 5542   8.077   6.724   6.391  0.0806  1.4104 -1.6628
   42MOL0     H 5543   8.573   6.323   6.636  0.1483  0.3339 -0.4604
   42MOL0     H 5544   8.702   6.414   6.824  1.8611 -0.2765  1.2330
   43MOL0     O 5545   2.906   0.468   1.345  0.4410  0.1556  0.7867
   43MOL0     C 5546   2.993   0.385   1.374 -0.2573  0.2559  0.6384
   43MOL0     O 5547   2.975   0.266   1.434  0.4835  0.5683 -0.2671
   43MOL0     C 5548   2.850   0.229   1.482  0.2174 -0.2114 -0.7103
   43MOL0     C 5549   2.811   0.098   1.468  0.0631  0.1433 -0.0305
   43MOL0     C 5550   2.688   0.053   1.517  0.0656 -0.2445  0.1187
   43MOL0     C 5551   2.588   0.139   1.569 -0.5302 -0.9553  0.8951
   43MOL0     O 5552   2.468   0.085   1.594 -0.2738 -0.1428  0.0540
   43MOL0     C 5553   2.362   0.179   1.638 -0.1622  0.3040  0.4502
   43MOL0     C 5554   2.256   0.092   1.709  0.0139  0.0234 -0.0194
   43MOL0     C 5555   2.163   0.179   1.804  0.3260 -0.0437 -0.4845
   43MOL0     C 5556   2.059   0.083   1.876 -0.6537 -0.2464  0.0483
   43MOL0     C 5557   1.964   0.136   1.980  0.3165 -0.7922 -0.1707
   43MOL0     C 5558   1.866   0.245   1.925  0.3620  0.6505 -0.1487
   43MOL0     C 5559   1.758   0.268   2.029  0.3957  1.0031  0.5647
   43MOL0     C 5560   1.673   0.387   1.987  0.0429  0.3437  0.2458
   43MOL0     N 5561   1.581   0.428   2.101  0.4370 -0.4948  0.1687
   43MOL0     C 5562   1.461   0.377   2.136 -0.0210  0.9781  0.6097
   43MOL0     C 5563   1.414   0.450   2.243  0.5486  0.3267 -0.6698
   43MOL0     C 5564   1.276   0.430   2.306  0.3704 -0.4471 -0.3005
   43MOL0     C 5565   1.277   0.368   2.444  0.5274  0.7306 -0.6977
   43MOL0     C 5566   1.136   0.359   2.496 -0.0549 -0.2056 -0.2738
   43MOL0     C 5567   1.051   0.487   2.517 -0.7392  0.3311 -0.6281
   43MOL0     O 5568   0.986   0.526   2.390  0.2430  0.3554 -0.3592
   43MOL0     C 5569   0.857   0.498   2.360  0.7414  0.5827 -0.2794
   43MOL0     C 5570   0.768   0.471   2.454  0.3731  0.0804 -0.2668
   43MOL0     C 5571   0.632   0.462   2.423 -0.8172  0.2529 -0.1294
   43MOL0     C 5572   0.576   0.493   2.292  0.3334 -0.4027 -0.2213
   43MOL0     C 5573   0.435   0.461   2.265  0.7266  0.3083  0.2651
   43MOL0     O 5574   0.381   0.520   2.159 -0.0611  0.5554  0.4582
   43MOL0     C 5575   0.248   0.491   2.119 -0.4421  0.1044 -0.3973
   43MOL0     C 5576   0.213   0.350   2.112 -0.0669  0.2119  0.3869
   43MOL0     C 5577   0.085   0.319   2.072  0.3162  0.0117 -0.0876
   43MOL0     C 5578  -0.012   0.415   2.048  0.9166 -0.8333 -0.0444
   43MOL0     O 5579  -0.129   0.368   2.000  0.3143  0.4521  0.2485
   43MOL0     C 5580  -0.213   0.453   1.913 -0.1752 -0.6995  0.2830
   43MOL0     C 5581  -0.287   0.373   1.811 -0.4404  0.1742 -0.8097
   43MOL0     C 5582  -0.398   0.300   1.874 -0.4214 -0.4906 -0.6001
   43MOL0     C 5583  -0.529   0.373   1.868 -0.6495 -0.8369 -0.3463
   43MOL0     C 5584  -0.646   0.291   1.920 -0.1635  0.0047  0.0128
   43MOL0     C 5585  -0.767   0.377   1.908 -0.2279  0.5621 -0.1917
   43MOL0     C 5586  -0.893   0.307   1.965  0.2111  0.1048  0.3291
   43MOL0     C 5587  -0.884   0.295   2.117  0.2487  0.0543 -0.1717
   43MOL0    Cl 5588  -0.847   0.118   2.148 -0.5127 -0.2232  0.0596
   43MOL0     C 5589   0.026   0.545   2.051 -0.2483 -0.0845  0.7953
   43MOL0     C 5590   0.158   0.590   2.071 -0.2915  0.2870  0.0238
   43MOL0     O 5591   0.379   0.377   2.335 -0.8991 -0.2624 -0.2968
   43MOL0     C 5592   0.674   0.542   2.195  0.2020  0.1202  0.5010
   43MOL0     C 5593   0.809   0.537   2.235 -0.6790 -0.2896 -0.9523
   43MOL0     N 5594   1.514   0.542   2.271  0.6274 -0.5538 -0.0982
   43MOL0     N 5595   1.615   0.523   2.188 -0.1457  0.6055  0.2105
   43MOL0     C 5596   2.615   0.274   1.562 -0.4312 -0.4239 -1.3482
   43MOL0     C 5597   2.748   0.320   1.538  0.7228  0.2175  0.2146
   43MOL0     C 5598   3.129   0.418   1.336  0.4584  0.1490 -0.0484
   43MOL0     C 5599   3.210   0.317   1.276 -0.6975 -0.8178  0.3703
   43MOL0     C 5600   3.335   0.348   1.229  0.3283 -0.3652 -0.3400
   43MOL0     C 5601   3.387   0.478   1.250  0.2356 -0.3981  0.2530
   43MOL0     O 5602   3.512   0.528   1.216  0.3453  0.1197  0.1343
   43MOL0     C 5603   3.603   0.457   1.124  0.4592  0.0432 -0.6336
   43MOL0     C 5604   3.717   0.557   1.073 -0.2659 -0.2508 -0.4696
   43MOL0     C 5605   3.772   0.667   1.177  0.5011  0.6683  0.7433
   43MOL0     C 5606   3.857   0.619   1.295  0.2537 -0.0283 -0.6948
   43MOL0     C 5607   3.986   0.575   1.248  0.4473  0.2883 -0.0490
   43MOL0     C 5608   4.091   0.517   1.229 -0.0465  0.6025 -0.2772
   43MOL0     C 5609   3.307   0.574   1.297  0.6187  0.2391 -1.0751
   43MOL0     C 5610   3.177   0.546   1.346 -0.1315 -0.0054 -0.0054
   43MOL0     H 5611   2.877   0.026   1.421  2.5374  0.5475  2.5601
   43MOL0     H 5612   2.677  -0.054   1.526 -2.8561  0.0432  1.0101
   43MOL0     H 5613   2.321   0.228   1.550 -0.0161 -0.6556 -0.1667
   43MOL0     H 5614   2.400   0.258   1.704  1.4059  0.5150 -0.6553
   43MOL0     H 5615   2.303   0.011   1.764  1.4420 -0.4554 -1.8334
   43MOL0     H 5616   2.204   0.045   1.624 -1.3836 -0.7049  1.2017
   43MOL0     H 5617   2.117   0.263   1.752  2.5990  1.5898 -0.0272
   43MOL0     H 5618   2.219   0.225   1.885 -2.2368  0.1154  1.3055
   43MOL0     H 5619   1.991   0.035   1.805 -0.6469  0.1505 -0.2350
   43MOL0     H 5620   2.123   0.009   1.925 -1.3286 -0.5198  0.5192
   43MOL0     H 5621   2.031   0.172   2.059  1.3692 -0.9782 -0.9600
   43MOL0     H 5622   1.904   0.055   2.024 -2.5227  1.1002 -0.3239
   43MOL0     H 5623   1.818   0.197   1.840  0.1739 -1.1224  0.8886
   43MOL0     H 5624   1.918   0.333   1.888 -1.0523  0.9427 -1.4948
   43MOL0     H 5625   1.705   0.172   2.028  4.7796 -1.7384 -1.1325
   43MOL0     H 5626   1.813   0.281   2.122  2.1120  0.4766 -0.3285
   43MOL0     H 5627   1.602   0.357   1.909  0.8066  0.4021 -0.4916
   43MOL0     H 5628   1.737   0.465   1.944 -2.1387  0.7982 -2.4667
   43MOL0     H 5629   1.413   0.297   2.081 -0.6869  0.2559  2.1842
   43MOL0     H 5630   1.225   0.372   2.229 -1.0057  1.4576 -0.8865
   43MOL0     H 5631   1.240   0.533   2.317  2.4903  0.3805 -0.6970
   43MOL0     H 5632   1.341   0.431   2.506  0.7911  1.8096 -2.0269
   43MOL0     H 5633   1.328   0.271   2.444  0.5426  0.7224  0.7209
   43MOL0     H 5634   1.076   0.300   2.427  1.0220 -1.7964  0.0995
   43MOL0     H 5635   1.137   0.308   2.592 -0.4192 -0.8950 -0.6333
   43MOL0     H 5636   1.118   0.566   2.551 -1.6442  0.4358  0.9796
   43MOL0     H 5637   0.974   0.474   2.594 -3.3021  0.4780 -3.0093
   43MOL0     H 5638   0.781   0.437   2.557  1.1829  0.4109 -0.2561
   43MOL0     H 5639   0.559   0.438   2.499  1.6671  0.4391  2.4897
   43MOL0     H 5640   0.287   0.272   2.122 -0.0969 -0.0175 -1.0193
   43MOL0     H 5641   0.040   0.221   2.061 -1.0578  0.7571 -1.4969
   43MOL0     H 5642  -0.153   0.531   1.865  2.4670 -1.8845  1.4591
   43MOL0     H 5643  -0.286   0.500   1.979 -2.1400 -0.4469 -1.9168
   43MOL0     H 5644  -0.225   0.298   1.761 -1.1019  1.0709 -3.1161
   43MOL0     H 5645  -0.327   0.436   1.731 -0.1627 -0.3558 -1.3770
   43MOL0     H 5646  -0.375   0.284   1.980  1.1710 -0.6015 -0.9518
   43MOL0     H 5647  -0.410   0.205   1.822 -5.7868 -0.7337  0.4761
   43MOL0     H 5648  -0.525   0.468   1.923  1.0632 -1.1858  0.1861
   43MOL0     H 5649  -0.555   0.397   1.765 -1.1435 -2.3327 -0.5911
   43MOL0     H 5650  -0.620   0.260   2.021  1.4810  1.1670 -0.0101
   43MOL0     H 5651  -0.657   0.197   1.865 -1.0492 -0.3894  0.8289
   43MOL0     H 5652  -0.773   0.391   1.799 -0.8166 -0.0291 -0.2449
   43MOL0     H 5653  -0.744   0.465   1.968 -2.4109 -1.3429  3.8771
   43MOL0     H 5654  -0.982   0.358   1.927  1.3229 -0.2755 -3.2208
   43MOL0     H 5655  -0.903   0.207   1.924  0.4152  1.0464 -2.2368
   43MOL0     H 5656  -0.987   0.322   2.142  1.2489  1.2164  3.2538
   43MOL0     H 5657  -0.818   0.363   2.171  2.1951 -0.8953 -1.2485
   43MOL0     H 5658  -0.043   0.626   2.028  1.4010  0.9857 -0.6220
   43MOL0     H 5659   0.185   0.695   2.066  0.4069  0.3001  2.6707
   43MOL0     H 5660   0.635   0.577   2.099 -2.3671  0.2249  1.5128
   43MOL0     H 5661   0.886   0.583   2.175  0.8027 -1.0332  0.2987
   43MOL0     H 5662   2.551   0.358   1.590  0.6311 -0.5093  1.6378
   43MOL0     H 5663   2.775   0.425   1.546  2.0352 -0.0223 -0.6888
   43MOL0     H 5664   3.167   0.217   1.280 -0.6364 -0.8970 -0.6365
   43MOL0     H 5665   3.382   0.277   1.162  1.7067  0.0405  0.1685
   43MOL0     H 5666   3.558   0.416   1.032  0.7579 -0.1144 -0.7132
   43MOL0     H 5667   3.653   0.369   1.167 -0.4187 -1.3786 -2.3542
   43MOL0     H 5668   3.800   0.500   1.033  1.1445  1.0104  0.5499
   43MOL0     H 5669   3.676   0.614   0.989  0.5798 -1.6680 -1.8772
   43MOL0     H 5670   3.682   0.722   1.207  0.0988  0.9249 -0.8495
   43MOL0     H 5671   3.832   0.743   1.127 -0.0099 -0.2837 -1.4182
   43MOL0     H 5672   3.863   0.696   1.373  1.1015  0.5533 -1.3169
   43MOL0     H 5673   3.802   0.540   1.348  0.0572  0.9013  0.5357
   43MOL0     H 5674   4.167   0.443   1.246  0.3639  1.0958  0.0532
   43MOL0     H 5675   3.338   0.678   1.300  2.7856 -0.3581 -0.9410
   43MOL0     H 5676   3.104   0.616   1.386  2.0095 -0.2958  5.2351
   44MOL0     O 5677   6.987   3.853   1.530 -0.5386 -0.4372 -0.6433
   44MOL0     C 5678   6.960   3.827   1.414 -0.5805 -0.1055  0.2522
   44MOL0     O 5679   6.838   3.813   1.365  0.1583 -0.4656  0.0790
   44MOL0     C 5680   6.720   3.811   1.439 -0.6230 -0.0687 -0.8410
   44MOL0     C 5681   6.606   3.851   1.368 -0.3635 -0.6809  0.5122
   44MOL0     C 5682   6.485   3.867   1.451  0.1250  0.3146 -1.0149
   44MOL0     C 5683   6.480   3.818   1.588  0.0196 -0.6091  0.4315
   44MOL0     O 5684   6.356   3.834   1.641  0.0286  0.0727 -0.1529
   44MOL0     C 5685   6.293   3.743   1.737  1.1818 -0.1715 -0.7343
   44MOL0     C 5686   6.317   3.588   1.714  0.5056  0.1715 -0.0052
   44MOL0     C 5687   6.177   3.517   1.703  0.1058 -0.0129 -0.3533
   44MOL0     C 5688   6.087   3.513   1.824  1.0720 -0.8328  0.0927
   44MOL0     C 5689   5.932   3.511   1.790 -0.1958  0.8310  0.4618
   44MOL0     C 5690   5.836   3.505   1.908 -0.6879  0.0872  0.1430
   44MOL0     C 5691   5.894   3.417   2.023  0.2787 -1.1045 -0.3982
   44MOL0     C 5692   5.791   3.374   2.122  1.1263  1.1288  0.8567
   44MOL0     N 5693   5.695   3.279   2.083 -0.2087 -0.1213 -0.1542
   44MOL0     C 5694   5.685   3.139   2.091 -0.9258 -0.7608 -0.2477
   44MOL0     C 5695   5.559   3.096   2.079  1.4660  0.0882 -0.2988
   44MOL0     C 5696   5.492   2.966   2.075  1.3531  0.2934  0.2801
   44MOL0     C 5697   5.573   2.853   2.134 -0.1417 -0.2230 -0.3476
   44MOL0     C 5698   5.551   2.833   2.285 -0.0182  0.6461 -0.5256
   44MOL0     C 5699   5.615   2.696   2.317  0.9340  0.2105  0.3720
   44MOL0     O 5700   5.756   2.702   2.275  0.3052 -0.0576  0.3391
   44MOL0     C 5701   5.842   2.610   2.325  0.4252  0.3382 -0.4307
   44MOL0     C 5702   5.976   2.640   2.313 -0.0114  0.0037 -0.1070
   44MOL0     C 5703   6.077   2.548   2.364  0.7646 -0.2873 -0.2888
   44MOL0     C 5704   6.043   2.423   2.422 -0.2907  0.0818  0.2195
   44MOL0     C 5705   6.137   2.323   2.463  0.4617  1.7352 -0.5869
   44MOL0     O 5706   6.089   2.226   2.550  0.3967  0.2949 -0.8094
   44MOL0     C 5707   6.185   2.158   2.614 -0.2494  0.9058  0.0366
   44MOL0     C 5708   6.161   2.018   2.630 -0.1826 -0.0195 -0.3298
   44MOL0     C 5709   6.256   1.939   2.701  0.1938  0.2978  0.7052
   44MOL0     C 5710   6.369   2.004   2.759  0.6980  0.2476  0.1564
   44MOL0     O 5711   6.453   1.917   2.822 -0.2741  0.2153  0.8045
   44MOL0     C 5712   6.598   1.924   2.820  0.3346  0.0453 -0.5720
   44MOL0     C 5713   6.641   1.917   2.671  0.7890  0.6320 -0.6548
   44MOL0     C 5714   6.788   1.943   2.663 -0.3201  0.1750 -0.8809
   44MOL0     C 5715   6.857   1.879   2.549 -0.4221 -0.2454  0.1576
   44MOL0     C 5716   6.851   1.977   2.430 -0.4574  0.2321 -1.3905
   44MOL0     C 5717   6.870   1.897   2.309 -0.6809 -0.4894 -0.1997
   44MOL0     C 5718   7.016   1.844   2.298 -1.4215 -0.1801  0.1435
   44MOL0     C 5719   7.021   1.728   2.194  0.3014  0.2798  0.9955
   44MOL0    Cl 5720   6.897   1.594   2.206  0.0755 -0.4761  0.2598
   44MOL0     C 5721   6.392   2.138   2.755  0.9728  0.3782  0.7726
   44MOL0     C 5722   6.301   2.216   2.680  0.1512  0.6848 -0.4137
   44MOL0     O 5723   6.253   2.331   2.420 -0.1059 -0.4877 -0.2630
   44MOL0     C 5724   5.905   2.406   2.438 -0.1794 -0.4738 -0.2467
   44MOL0     C 5725   5.801   2.496   2.394 -0.3811  0.9889 -0.2158
   44MOL0     N 5726   5.489   3.215   2.067  0.4144  0.2269 -0.8590
   44MOL0     N 5727   5.562   3.319   2.075 -0.5031 -0.2131  0.0633
   44MOL0     C 5728   6.601   3.777   1.651 -0.2065 -0.0614 -0.1387
   44MOL0     C 5729   6.716   3.772   1.573  0.2410 -0.0177 -0.3589
   44MOL0     C 5730   7.068   3.836   1.314 -0.9936 -0.5542  0.3026
   44MOL0     C 5731   7.205   3.837   1.340 -0.4699 -0.1783  0.1601
   44MOL0     C 5732   7.304   3.857   1.239 -0.5981  0.0545 -0.4465
   44MOL0     C 5733   7.265   3.875   1.105  0.7083  0.7745 -0.5545
   44MOL0     O 5734   7.347   3.889   0.992  0.2894  0.1105  0.0249
   44MOL0     C 5735   7.487   3.895   1.009 -0.7071  0.5182 -0.0407
   44MOL0     C 5736   7.537   4.034   1.052 -0.0756  0.5766 -0.5784
   44MOL0     C 5737   7.692   4.041   1.048 -0.9536  0.4133  0.6285
   44MOL0     C 5738   7.738   4.162   1.118 -0.2571  0.4662 -0.3335
   44MOL0     C 5739   7.884   4.174   1.122 -0.6469  0.3294  0.1478
   44MOL0     C 5740   8.002   4.165   1.109 -0.6370 -0.7366  0.4354
   44MOL0     C 5741   7.124   3.871   1.079  0.2394 -0.4061  0.2089
   44MOL0     C 5742   7.030   3.852   1.182  0.0612 -0.0329  0.0657
   44MOL0     H 5743   6.619   3.874   1.263  1.5097 -3.4759  0.0400
   44MOL0     H 5744   6.397   3.920   1.415  1.4743  2.9827 -0.5532
   44MOL0     H 5745   6.186   3.767   1.733  0.6711 -1.8064  1.2810
   44MOL0     H 5746   6.326   3.762   1.839  2.9233 -0.6045 -1.1829
   44MOL0     H 5747   6.376   3.548   1.797  0.7778  1.4564  0.4429
   44MOL0     H 5748   6.384   3.565   1.630 -0.0343  1.7744 -0.9093
   44MOL0     H 5749   6.200   3.412   1.682  2.6189 -0.9146  5.1522
   44MOL0     H 5750   6.120   3.552   1.617  0.3841  0.8803 -0.1776
   44MOL0     H 5751   6.107   3.414   1.864 -1.0235 -2.1879 -1.9425
   44MOL0     H 5752   6.111   3.592   1.896  2.7404  0.7725 -2.0403
   44MOL0     H 5753   5.920   3.432   1.716  2.4431  1.2493 -0.5094
   44MOL0     H 5754   5.904   3.607   1.744  1.4187  1.1657  0.1100
   44MOL0     H 5755   5.741   3.467   1.869 -0.0378 -0.7509 -0.6732
   44MOL0     H 5756   5.814   3.605   1.946  0.9585  0.2328  0.8147
   44MOL0     H 5757   5.929   3.324   1.977  2.6807  0.3525 -1.7753
   44MOL0     H 5758   5.979   3.464   2.074  1.3533 -3.3437  0.0249
   44MOL0     H 5759   5.732   3.461   2.153 -0.8975 -0.3975  1.4831
   44MOL0     H 5760   5.842   3.338   2.212  1.8231 -2.0104 -0.6565
   44MOL0     H 5761   5.772   3.077   2.109  0.3496  0.1987 -2.6765
   44MOL0     H 5762   5.457   2.940   1.976  0.0009 -0.7017  0.9935
   44MOL0     H 5763   5.405   2.989   2.137  0.8879  2.1157 -0.9674
   44MOL0     H 5764   5.680   2.858   2.111  0.4721  0.1618  2.2261
   44MOL0     H 5765   5.539   2.762   2.084  1.4151 -0.8278 -0.3628
   44MOL0     H 5766   5.608   2.911   2.338  0.0371 -0.3608  0.9683
   44MOL0     H 5767   5.443   2.833   2.306 -0.2409 -1.6834 -1.3750
   44MOL0     H 5768   5.562   2.629   2.249  2.8181 -0.8006 -0.1483
   44MOL0     H 5769   5.596   2.669   2.422  0.2165 -0.8994 -0.0290
   44MOL0     H 5770   6.015   2.729   2.265  2.8771 -2.0669 -1.9569
   44MOL0     H 5771   6.178   2.576   2.337 -0.2600 -0.3784 -5.0167
   44MOL0     H 5772   6.076   1.968   2.586  0.2441 -4.5719  3.1850
   44MOL0     H 5773   6.223   1.841   2.731 -1.0684  0.3979 -0.3170
   44MOL0     H 5774   6.630   1.832   2.871 -0.8758 -1.6518 -2.6984
   44MOL0     H 5775   6.642   2.011   2.869  0.4286  0.3300 -1.1582
   44MOL0     H 5776   6.586   1.992   2.614  0.3094  0.2214 -0.7401
   44MOL0     H 5777   6.615   1.823   2.622 -3.0039  2.8400 -3.3474
   44MOL0     H 5778   6.833   1.895   2.750  0.9411  0.6338 -1.2539
   44MOL0     H 5779   6.822   2.047   2.660  0.5423 -0.1104 -1.3384
   44MOL0     H 5780   6.963   1.867   2.573 -0.5003  0.7033  1.1111
   44MOL0     H 5781   6.803   1.785   2.538 -0.7565  0.0384 -0.6707
   44MOL0     H 5782   6.921   2.060   2.434 -1.2299  0.9720  3.6592
   44MOL0     H 5783   6.759   2.037   2.434 -0.2117  0.5691  1.2501
   44MOL0     H 5784   6.853   1.963   2.223 -1.7105  0.9301  1.0515
   44MOL0     H 5785   6.799   1.815   2.296  0.1479 -1.5192  1.5023
   44MOL0     H 5786   7.078   1.930   2.270 -1.4857  0.0232  0.6137
   44MOL0     H 5787   7.054   1.804   2.393 -0.0423  0.2828 -0.1785
   44MOL0     H 5788   7.121   1.685   2.206  1.1426  0.8685 -2.6005
   44MOL0     H 5789   7.021   1.770   2.093 -0.1572 -0.2586  0.7680
   44MOL0     H 5790   6.483   2.181   2.795 -0.2038  2.7975  1.0191
   44MOL0     H 5791   6.308   2.324   2.667 -1.8758  0.6125 -2.5966
   44MOL0     H 5792   5.877   2.320   2.496 -2.8934 -0.2170 -1.0521
   44MOL0     H 5793   5.700   2.461   2.415 -1.0297  2.5636 -0.5586
   44MOL0     H 5794   6.602   3.738   1.753  2.8527 -0.2015 -0.1364
   44MOL0     H 5795   6.805   3.728   1.617 -0.7839  0.2652  2.1891
   44MOL0     H 5796   7.254   3.813   1.434  3.4789  0.2713 -1.5822
   44MOL0     H 5797   7.409   3.848   1.264 -0.8729  0.7192  1.1122
   44MOL0     H 5798   7.527   3.866   0.911  0.4203  0.2882  0.4701
   44MOL0     H 5799   7.519   3.821   1.083 -2.9662 -1.5456 -0.9847
   44MOL0     H 5800   7.506   4.115   0.985  3.7142  2.1379 -0.7331
   44MOL0     H 5801   7.509   4.054   1.156 -0.5815 -1.0439 -0.3861
   44MOL0     H 5802   7.732   4.033   0.947  0.9396  0.0792  1.3521
   44MOL0     H 5803   7.740   3.957   1.099  1.5892  0.6843 -1.1084
   44MOL0     H 5804   7.707   4.253   1.066  0.8935  0.3433 -1.2748
   44MOL0     H 5805   7.696   4.170   1.219  1.0236 -1.1013  0.3671
   44MOL0     H 5806   8.108   4.153   1.103 -0.5479  0.4934 -1.0251
   44MOL0     H 5807   7.076   3.887   0.983 -2.6277 -0.0842  1.5968
   44MOL0     H 5808   6.924   3.841   1.160 -0.5958  2.1467  1.7607
   45MOL0     O 5809   3.060   8.409   7.177  0.9489 -0.0199  0.0013
   45MOL0     C 5810   3.095   8.309   7.235 -0.0740 -0.3006 -0.2497
   45MOL0     O 5811   3.018   8.231   7.320 -0.3958 -0.3163 -0.3587
   45MOL0     C 5812   2.886   8.278   7.339  0.0556 -0.8530 -0.1946
   45MOL0     C 5813   2.836   8.283   7.473 -0.0026  0.0051 -0.7379
   45MOL0     C 5814   2.711   8.347   7.497  0.8527 -0.6176 -0.0998
   45MOL0     C 5815   2.627   8.384   7.391  1.0102 -0.6107 -0.3439
   45MOL0     O 5816   2.508   8.441   7.418  0.4961  0.0178 -0.1155
   45MOL0     C 5817   2.424   8.388   7.521  0.1615  0.0799 -0.7523
   45MOL0     C 5818   2.314   8.497   7.549 -0.7519  0.7758  1.3753
   45MOL0     C 5819   2.189   8.463   7.471 -0.1881  0.1476 -0.2354
   45MOL0     C 5820   2.089   8.584   7.478 -0.0695  0.5403 -0.1209
   45MOL0     C 5821   2.106   8.682   7.355  0.0717  0.1478  0.3925
   45MOL0     C 5822   2.012   8.645   7.233  0.0643  0.2494 -0.8656
   45MOL0     C 5823   1.995   8.759   7.132  0.3743  0.1778 -0.1549
   45MOL0     C 5824   1.866   8.754   7.053  0.1659  0.1846  1.0135
   45MOL0     N 5825   1.826   8.882   6.993  0.2272 -0.4538 -0.0056
   45MOL0     C 5826   1.822   9.006   7.055  0.3933  0.5573  0.7079
   45MOL0     C 5827   1.769   9.087   6.965 -0.4022 -0.4384  0.8256
   45MOL0     C 5828   1.732   9.235   6.975 -0.0494 -0.2587  0.0373
   45MOL0     C 5829   1.849   9.326   6.918 -0.0245 -0.2892 -0.1693
   45MOL0     C 5830   1.806   9.470   6.906 -0.2928  0.2103  0.1027
   45MOL0     C 5831   1.910   9.558   6.832  0.2076 -0.0458  0.1264
   45MOL0     O 5832   1.895   9.691   6.897 -0.7969  0.8226  0.3013
   45MOL0     C 5833   1.969   9.800   6.857  0.1539 -0.1567  0.4272
   45MOL0     C 5834   2.060   9.792   6.749  0.3154  0.3533  0.3100
   45MOL0     C 5835   2.134   9.900   6.711  0.3109 -0.4324  0.0249
   45MOL0     C 5836   2.125  10.026   6.775 -0.3653  0.0340  0.4193
   45MOL0     C 5837   2.204  10.146   6.738  0.4393  0.2882  0.6669
   45MOL0     O 5838   2.171  10.260   6.800  0.4311  0.7283  0.2775
   45MOL0     C 5839   2.230  10.380   6.781 -0.0100  0.1990 -0.3175
   45MOL0     C 5840   2.194  10.477   6.875  0.2856  0.4936  0.0568
   45MOL0     C 5841   2.243  10.611   6.863  0.4929 -0.1450  0.4791
   45MOL0     C 5842   2.341  10.644   6.765  0.1600 -0.1334  0.0984
   45MOL0     O 5843   2.389  10.767   6.757 -0.4857  0.2461 -0.2815
   45MOL0     C 5844   2.530  10.784   6.757 -0.0475 -0.1314 -0.6689
   45MOL0     C 5845   2.551  10.928   6.703 -0.7906 -0.3284 -0.6264
   45MOL0     C 5846   2.691  10.927   6.630  0.2301  0.1871  0.5400
   45MOL0     C 5847   2.741  11.074   6.626  0.3119 -0.1402 -0.0840
   45MOL0     C 5848   2.657  11.163   6.528  0.0022  0.9452 -0.6077
   45MOL0     C 5849   2.741  11.275   6.475  0.2256 -0.0912  0.4147
   45MOL0     C 5850   2.678  11.319   6.338 -0.1802 -0.2297 -0.6026
   45MOL0     C 5851   2.536  11.379   6.344  0.8803  0.7921  0.3684
   45MOL0    Cl 5852   2.500  11.419   6.172  0.0396 -0.3390 -0.2533
   45MOL0     C 5853   2.375  10.548   6.676  0.7797 -0.3973 -0.1225
   45MOL0     C 5854   2.318  10.419   6.682 -0.2844 -1.0200 -0.0153
   45MOL0     O 5855   2.286  10.134   6.647 -0.7728 -0.0462 -0.2271
   45MOL0     C 5856   2.031  10.030   6.882 -0.1628  0.5212 -0.4840
   45MOL0     C 5857   1.962   9.919   6.929 -0.2228  0.1720  0.3804
   45MOL0     N 5858   1.735   9.015   6.852 -0.1958 -0.0792 -0.4082
   45MOL0     N 5859   1.778   8.891   6.867 -0.3657  0.5933  0.3011
   45MOL0     C 5860   2.674   8.369   7.261  0.0227  0.1124 -0.3245
   45MOL0     C 5861   2.803   8.317   7.238 -0.5641 -0.3499  0.4677
   45MOL0     C 5862   3.240   8.278   7.232  0.6130 -0.5902  0.2529
   45MOL0     C 5863   3.287   8.167   7.304 -1.1363 -0.6803  0.8475
   45MOL0     C 5864   3.423   8.144   7.315 -0.1698  0.0236 -0.0529
   45MOL0     C 5865   3.518   8.235   7.260  0.4546 -0.7760  0.5744
   45MOL0     O 5866   3.655   8.235   7.268  0.3265  0.1216 -0.6436
   45MOL0     C 5867   3.712   8.110   7.318 -0.0343  0.8559 -1.1537
   45MOL0     C 5868   3.867   8.104   7.308 -0.2665 -0.5020  0.1961
   45MOL0     C 5869   3.942   8.216   7.377 -0.7184  0.3545  0.1947
   45MOL0     C 5870   4.090   8.218   7.331  0.0941 -0.2116 -0.6841
   45MOL0     C 5871   4.115   8.228   7.190  0.4109  0.3126  0.6530
   45MOL0     C 5872   4.139   8.226   7.070  1.4085 -0.2871 -0.5612
   45MOL0     C 5873   3.465   8.342   7.172 -0.3792 -0.2585 -0.1469
   45MOL0     C 5874   3.330   8.358   7.161 -0.3480 -1.1013  0.1320
   45MOL0     H 5875   2.893   8.254   7.560  0.6501 -0.6110 -1.3518
   45MOL0     H 5876   2.673   8.370   7.596 -3.2403  0.6603 -1.7612
   45MOL0     H 5877   2.480   8.360   7.611 -1.9566 -3.4742 -0.3298
   45MOL0     H 5878   2.377   8.293   7.495  0.5869 -0.7179  1.1991
   45MOL0     H 5879   2.363   8.592   7.523 -0.1021  0.1617  0.2927
   45MOL0     H 5880   2.294   8.493   7.656 -3.2411 -0.5750  0.9254
   45MOL0     H 5881   2.140   8.374   7.513 -2.4803  1.2426 -0.4092
   45MOL0     H 5882   2.209   8.439   7.367 -2.8158  0.8772 -0.9915
   45MOL0     H 5883   1.986   8.545   7.477 -0.5628  1.7462 -2.4066
   45MOL0     H 5884   2.106   8.631   7.575 -1.9056  2.9318 -0.8589
   45MOL0     H 5885   2.209   8.685   7.318 -0.0059  1.1338  0.2271
   45MOL0     H 5886   2.089   8.784   7.393 -0.8476 -0.8744  2.9057
   45MOL0     H 5887   1.913   8.606   7.259  0.5137  0.7133  1.7988
   45MOL0     H 5888   2.052   8.555   7.184  0.7629  1.0308 -1.7938
   45MOL0     H 5889   2.008   8.856   7.182  2.5895 -0.9480  1.6732
   45MOL0     H 5890   2.081   8.752   7.065  1.7351 -2.9627  1.6868
   45MOL0     H 5891   1.778   8.723   7.111 -0.1643 -1.2052 -0.1569
   45MOL0     H 5892   1.882   8.674   6.980  1.5095 -0.2282  1.7231
   45MOL0     H 5893   1.844   9.035   7.157 -1.1490  0.4962  1.0751
   45MOL0     H 5894   1.721   9.264   7.080 -0.5144 -0.9622  0.1893
   45MOL0     H 5895   1.640   9.263   6.924  0.8197  0.5665 -1.1388
   45MOL0     H 5896   1.876   9.291   6.818 -1.6521  2.0407 -1.5105
   45MOL0     H 5897   1.941   9.307   6.975 -0.3248  2.8452  1.5556
   45MOL0     H 5898   1.706   9.476   6.863  0.2446  1.1123 -1.0911
   45MOL0     H 5899   1.796   9.521   7.002 -1.6551 -0.2031  0.1975
   45MOL0     H 5900   1.880   9.545   6.728 -0.7508 -1.9059  0.5890
   45MOL0     H 5901   2.017   9.537   6.838  0.6124  1.4954 -1.1801
   45MOL0     H 5902   2.083   9.696   6.704 -1.3536 -0.3961  0.9870
   45MOL0     H 5903   2.198   9.892   6.623 -0.1564 -0.8311 -0.2817
   45MOL0     H 5904   2.121  10.460   6.954 -1.2760 -1.7712 -1.7210
   45MOL0     H 5905   2.197  10.682   6.931  1.9622 -0.2600  1.6564
   45MOL0     H 5906   2.578  10.716   6.686 -0.8672  0.2849 -1.6398
   45MOL0     H 5907   2.577  10.775   6.856  4.7896  1.0653 -2.5683
   45MOL0     H 5908   2.559  10.991   6.792  2.8183 -2.1041  0.4878
   45MOL0     H 5909   2.468  10.969   6.644 -0.6001 -1.3600 -1.6514
   45MOL0     H 5910   2.681  10.873   6.535  0.7437 -2.5093  1.9433
   45MOL0     H 5911   2.746  10.860   6.695 -0.6141  0.8648  2.0062
   45MOL0     H 5912   2.721  11.114   6.726  0.6178  0.0721 -0.1075
   45MOL0     H 5913   2.845  11.089   6.595  0.7930 -2.6286  0.1595
   45MOL0     H 5914   2.570  11.190   6.588  0.8168  2.4438 -0.0352
   45MOL0     H 5915   2.623  11.107   6.441  1.8064 -0.7031 -0.3246
   45MOL0     H 5916   2.842  11.245   6.444  0.1131 -0.1925  0.1421
   45MOL0     H 5917   2.734  11.358   6.546  0.9843  1.3266 -1.0964
   45MOL0     H 5918   2.729  11.412   6.311  0.2978  0.0058  1.0158
   45MOL0     H 5919   2.701  11.256   6.252  1.3421  2.6091 -2.4577
   45MOL0     H 5920   2.528  11.470   6.404 -2.0220  0.1436  1.1301
   45MOL0     H 5921   2.462  11.311   6.389 -1.1172  2.5040 -0.1477
   45MOL0     H 5922   2.435  10.567   6.587 -1.8687 -0.9101 -2.1418
   45MOL0     H 5923   2.357  10.350   6.608 -1.3087 -3.0451  1.2416
   45MOL0     H 5924   2.018  10.121   6.940 -0.0691  0.5209 -0.4620
   45MOL0     H 5925   1.886   9.920   7.007 -1.4397 -0.1159 -0.7712
   45MOL0     H 5926   2.619   8.402   7.173 -0.7883 -1.8548 -0.6264
   45MOL0     H 5927   2.823   8.301   7.132 -0.2035  0.9170  0.3354
   45MOL0     H 5928   3.227   8.096   7.359 -2.4506 -0.3193 -0.0511
   45MOL0     H 5929   3.458   8.063   7.377 -0.8167  0.2311  0.6070
   45MOL0     H 5930   3.666   8.030   7.259 -0.4427 -0.1728  0.4920
   45MOL0     H 5931   3.685   8.090   7.422  0.8650  0.5367 -0.9761
   45MOL0     H 5932   3.907   8.010   7.346  2.7661  0.0476 -1.3161
   45MOL0     H 5933   3.900   8.111   7.204  0.2043 -1.7539  0.2353
   45MOL0     H 5934   3.928   8.192   7.483 -2.2522 -0.8682 -0.2421
   45MOL0     H 5935   3.899   8.316   7.361  0.2560  1.2369  2.6139
   45MOL0     H 5936   4.145   8.299   7.379 -0.0458 -1.1942  1.2025
   45MOL0     H 5937   4.120   8.123   7.374  0.4141  1.0705  2.1037
   45MOL0     H 5938   4.153   8.229   6.964  0.2006  2.3994 -0.7207
   45MOL0     H 5939   3.539   8.396   7.114 -2.0518  1.7318 -0.5455
   45MOL0     H 5940   3.298   8.452   7.117  1.0160  0.3945  2.1694
   46MOL0     O 5941   5.154   8.976   8.126 -0.7590  0.3780 -0.1900
   46MOL0     C 5942   5.219   9.007   8.225 -0.4779 -0.6968  0.4727
   46MOL0     O 5943   5.174   8.992   8.352 -0.0909  0.2282 -0.4698
   46MOL0     C 5944   5.057   8.925   8.378 -0.5594 -0.2943 -0.8805
   46MOL0     C 5945   5.021   8.804   8.318  1.0026  0.0528 -0.2720
   46MOL0     C 5946   4.898   8.740   8.353  0.0919 -0.1067  0.3524
   46MOL0     C 5947   4.819   8.796   8.443  0.2598  0.3881 -0.3438
   46MOL0     O 5948   4.704   8.726   8.480  0.3755 -0.4008  1.0463
   46MOL0     C 5949   4.602   8.788   8.562  0.6357  0.0902 -0.3155
   46MOL0     C 5950   4.477   8.712   8.561 -0.5167  0.0800  0.3639
   46MOL0     C 5951   4.367   8.788   8.488  0.1249 -0.2991 -0.2960
   46MOL0     C 5952   4.246   8.694   8.491  1.2317 -0.0745  0.0564
   46MOL0     C 5953   4.135   8.743   8.407  0.1830 -0.0982  0.2149
   46MOL0     C 5954   4.079   8.886   8.442 -0.7614 -0.7219  0.2535
   46MOL0     C 5955   3.961   8.919   8.347  0.3324 -0.1565  0.2765
   46MOL0     C 5956   3.844   8.816   8.337  0.6075  0.3028  0.1311
   46MOL0     N 5957   3.721   8.881   8.279 -0.6523 -0.3292 -0.3578
   46MOL0     C 5958   3.603   8.904   8.345  0.0136  0.2824 -0.0066
   46MOL0     C 5959   3.507   8.935   8.247  0.5840  0.2478 -0.1059
   46MOL0     C 5960   3.361   8.982   8.276  0.1511  0.7867  0.2582
   46MOL0     C 5961   3.312   9.107   8.199 -0.2052 -0.5570  0.0501
   46MOL0     C 5962   3.188   9.174   8.257 -0.4605  0.2630  0.4217
   46MOL0     C 5963   3.125   9.268   8.146  0.0887  0.0008  0.0638
   46MOL0     O 5964   3.217   9.366   8.111 -0.3195 -0.0611 -0.5259
   46MOL0     C 5965   3.199   9.436   7.993 -0.3750  0.8060  0.3244
   46MOL0     C 5966   3.312   9.521   7.953 -0.4867  0.5292 -0.5917
   46MOL0     C 5967   3.314   9.616   7.845  0.7367  1.1343 -0.7327
   46MOL0     C 5968   3.203   9.622   7.771 -0.5180 -0.3036 -0.1608
   46MOL0     C 5969   3.194   9.723   7.664  0.1931 -0.4232  0.2578
   46MOL0     O 5970   3.303   9.808   7.643  0.0156  0.1697 -0.0603
   46MOL0     C 5971   3.281   9.904   7.541 -0.2232  0.5078  0.4256
   46MOL0     C 5972   3.312   9.873   7.409 -0.0227 -0.4060  0.0338
   46MOL0     C 5973   3.285   9.964   7.305 -0.0100 -0.4455  0.1242
   46MOL0     C 5974   3.244  10.094   7.345 -0.1879  0.3879  0.0979
   46MOL0     O 5975   3.221  10.181   7.243  0.4236  0.2074  0.2641
   46MOL0     C 5976   3.336  10.249   7.193  0.1316 -0.8097 -0.3128
   46MOL0     C 5977   3.310  10.341   7.074  0.0917 -0.1003  0.2936
   46MOL0     C 5978   3.318  10.258   6.945  0.5450  0.5230  0.4248
   46MOL0     C 5979   3.291  10.359   6.822  0.1252 -0.2850  0.0758
   46MOL0     C 5980   3.267  10.278   6.690  0.5823 -0.2795  0.1660
   46MOL0     C 5981   3.217  10.360   6.566 -0.6182 -0.1332  0.1375
   46MOL0     C 5982   3.187  10.266   6.449 -0.0881 -0.5022  0.3154
   46MOL0     C 5983   3.042  10.231   6.460 -0.1771  0.0916  0.2387
   46MOL0    Cl 5984   2.992  10.162   6.304  0.2732 -0.4437 -0.1541
   46MOL0     C 5985   3.208  10.126   7.475  0.0483 -0.0960 -0.8575
   46MOL0     C 5986   3.215  10.026   7.573 -0.8319 -0.7040  0.0476
   46MOL0     O 5987   3.089   9.734   7.609 -0.0469 -0.2774  0.1031
   46MOL0     C 5988   3.092   9.538   7.802  0.0138 -0.7830 -0.2269
   46MOL0     C 5989   3.090   9.447   7.910 -0.1028 -0.2579 -0.0040
   46MOL0     N 5990   3.575   8.941   8.128  0.3743 -0.7105 -0.3139
   46MOL0     N 5991   3.701   8.907   8.148 -0.7190  0.2651  0.2773
   46MOL0     C 5992   4.863   8.901   8.516 -0.1621  0.6299  0.7144
   46MOL0     C 5993   4.981   8.977   8.482  0.0780  0.8967  0.3193
   46MOL0     C 5994   5.360   9.063   8.209 -1.3259  0.4930 -0.3571
   46MOL0     C 5995   5.433   9.029   8.103 -0.6240 -0.4955  0.1227
   46MOL0     C 5996   5.563   9.084   8.081  0.2194  0.6436 -0.5122
   46MOL0     C 5997   5.625   9.179   8.167 -0.4708  0.7148 -0.5075
   46MOL0     O 5998   5.752   9.219   8.132 -0.4025  0.2947 -0.1423
   46MOL0     C 5999   5.826   9.244   8.251 -0.9242 -0.2863 -0.7322
   46MOL0     C 6000   5.971   9.227   8.221  0.0799  0.5955  0.7504
   46MOL0     C 6001   6.017   9.331   8.122 -0.9084  0.4212 -0.4162
   46MOL0     C 6002   6.152   9.286   8.078 -0.6435 -0.6046 -0.6443
   46MOL0     C 6003   6.236   9.393   8.025  0.0877 -0.4416 -0.2548
   46MOL0     C 6004   6.310   9.479   7.983  0.6660 -0.4681  0.9214
   46MOL0     C 6005   5.543   9.210   8.281  0.5177  0.0191 -1.1620
   46MOL0     C 6006   5.410   9.160   8.296 -0.7784  0.0467 -0.8712
   46MOL0     H 6007   5.080   8.759   8.239 -0.4021 -0.2739 -1.1669
   46MOL0     H 6008   4.870   8.649   8.301 -0.4091 -0.2815  0.9112
   46MOL0     H 6009   4.589   8.893   8.534  0.0618  1.4543  4.2108
   46MOL0     H 6010   4.633   8.793   8.667 -1.3471 -1.4424  0.4255
   46MOL0     H 6011   4.436   8.685   8.659  2.1134 -0.7390  1.3275
   46MOL0     H 6012   4.494   8.616   8.511  0.9797 -1.1083  2.9225
   46MOL0     H 6013   4.388   8.811   8.384  0.7972 -1.9033 -0.5538
   46MOL0     H 6014   4.348   8.881   8.542 -0.7345 -0.7863  0.2692
   46MOL0     H 6015   4.277   8.591   8.471  2.2173 -0.2774  2.3050
   46MOL0     H 6016   4.209   8.683   8.593  0.1140  0.4891 -0.2764
   46MOL0     H 6017   4.054   8.670   8.416  1.1364 -1.5239 -1.8979
   46MOL0     H 6018   4.176   8.748   8.306  2.9994  1.2677  1.3033
   46MOL0     H 6019   4.157   8.959   8.419 -2.3641  0.5085 -1.6295
   46MOL0     H 6020   4.053   8.905   8.547 -0.3883 -0.2424  0.2637
   46MOL0     H 6021   3.919   9.010   8.391  0.8963 -0.9692  2.6509
   46MOL0     H 6022   4.000   8.945   8.248  0.2868 -3.1269 -0.6207
   46MOL0     H 6023   3.811   8.792   8.438  1.0683 -0.7281  0.0441
   46MOL0     H 6024   3.875   8.721   8.292 -1.8551 -0.2510 -0.5480
   46MOL0     H 6025   3.580   8.902   8.451 -0.3032 -0.1283 -0.0779
   46MOL0     H 6026   3.348   9.001   8.382 -2.8938 -0.2411  0.1849
   46MOL0     H 6027   3.291   8.900   8.254  3.3209 -1.6809 -1.4388
   46MOL0     H 6028   3.302   9.075   8.095 -1.5210 -1.5799  0.4637
   46MOL0     H 6029   3.383   9.190   8.199 -3.3098  2.3600 -0.8160
   46MOL0     H 6030   3.119   9.097   8.292  1.2235 -2.0574 -1.0728
   46MOL0     H 6031   3.211   9.231   8.347  3.5054 -0.5310  0.0824
   46MOL0     H 6032   3.031   9.313   8.177 -0.6670 -1.1024 -0.5698
   46MOL0     H 6033   3.106   9.209   8.056 -0.6404 -1.6344  1.2641
   46MOL0     H 6034   3.402   9.518   8.013 -2.3654  0.9371  2.4293
   46MOL0     H 6035   3.404   9.674   7.830  0.3020  1.7842 -0.8740
   46MOL0     H 6036   3.354   9.776   7.386 -1.3789 -1.2506  0.9187
   46MOL0     H 6037   3.300   9.942   7.200  0.0456  2.3046 -0.5298
   46MOL0     H 6038   3.422  10.185   7.170  1.6221  0.2284  1.9474
   46MOL0     H 6039   3.377  10.323   7.263 -1.5285  1.4783 -1.6219
   46MOL0     H 6040   3.381  10.425   7.076  1.6555 -1.3761  2.9205
   46MOL0     H 6041   3.212  10.388   7.087  1.2926  2.1313  2.0088
   46MOL0     H 6042   3.242  10.179   6.951  0.2354  0.8802  1.5157
   46MOL0     H 6043   3.416  10.213   6.931 -0.1898 -1.0166  0.0419
   46MOL0     H 6044   3.196  10.408   6.848 -0.4751 -0.8103 -1.0585
   46MOL0     H 6045   3.364  10.437   6.800 -0.3126  0.3154  0.6690
   46MOL0     H 6046   3.195  10.202   6.722 -1.4173  0.8207 -1.4898
   46MOL0     H 6047   3.367  10.237   6.677  0.4186 -0.6727  0.1193
   46MOL0     H 6048   3.304  10.424   6.548  0.8844 -2.2781 -0.6592
   46MOL0     H 6049   3.133  10.426   6.592  0.9088  2.0630 -0.2195
   46MOL0     H 6050   3.204  10.321   6.355 -0.9237 -1.0653 -0.1811
   46MOL0     H 6051   3.256  10.181   6.450 -0.2345 -0.6455 -0.6066
   46MOL0     H 6052   2.987  10.325   6.468 -3.2052 -1.5455  0.1265
   46MOL0     H 6053   3.029  10.173   6.552  0.4630 -1.3601 -0.5477
   46MOL0     H 6054   3.167  10.224   7.497 -4.1249 -1.4656 -1.6602
   46MOL0     H 6055   3.190  10.049   7.676 -1.7025 -3.6558  0.6019
   46MOL0     H 6056   3.006   9.552   7.738  0.7693 -1.1199 -1.3554
   46MOL0     H 6057   2.998   9.395   7.932 -0.4943  1.2341  2.3005
   46MOL0     H 6058   4.800   8.935   8.599 -2.3882 -0.0850 -0.5972
   46MOL0     H 6059   5.005   9.071   8.530 -1.4290  1.1709  0.5760
   46MOL0     H 6060   5.409   8.976   8.011 -0.0198  2.3979 -1.8638
   46MOL0     H 6061   5.627   9.050   7.999 -0.6060 -1.0728 -0.4854
   46MOL0     H 6062   5.803   9.179   8.336 -0.4252 -0.2768 -0.5896
   46MOL0     H 6063   5.805   9.348   8.278  0.8541  0.0824 -0.6779
   46MOL0     H 6064   6.039   9.225   8.306  0.3465  0.8446  0.5441
   46MOL0     H 6065   5.972   9.127   8.177  2.6452  1.5624 -1.6903
   46MOL0     H 6066   6.017   9.428   8.174 -0.5852  0.7825 -1.0806
   46MOL0     H 6067   5.957   9.341   8.031 -1.4584  1.7092  0.0607
   46MOL0     H 6068   6.201   9.250   8.169  1.1424  1.5120 -0.6983
   46MOL0     H 6069   6.151   9.203   8.007 -1.1026 -0.4553 -0.8190
   46MOL0     H 6070   6.383   9.549   7.948  0.1941 -0.2121  0.4456
   46MOL0     H 6071   5.580   9.284   8.352 -1.1013  0.6743 -0.9488
   46MOL0     H 6072   5.347   9.188   8.380  1.2280  0.2101  0.6598
   47MOL0     O 6073  10.533   0.812   7.709 -0.3115  0.0936 -0.8237
   47MOL0     C 6074  10.506   0.705   7.667 -0.4522 -0.1177 -0.8879
   47MOL0     O 6075  10.387   0.639   7.699  0.2153 -0.0263 -0.0568
   47MOL0     C 6076  10.328   0.672   7.816  0.4330  0.1856 -0.2752
   47MOL0     C 6077  10.390   0.700   7.935 -0.2499  0.4215  0.9945
   47MOL0     C 6078  10.309   0.760   8.037  0.2163 -1.0147  0.1887
   47MOL0     C 6079  10.177   0.778   8.024  0.1325 -0.6392 -0.7322
   47MOL0     O 6080  10.113   0.831   8.132 -0.0413 -0.5111  0.4248
   47MOL0     C 6081   9.989   0.910   8.107  0.8645  0.2231 -0.3263
   47MOL0     C 6082  10.018   1.050   8.058  0.4803 -0.3702  0.1797
   47MOL0     C 6083  10.011   1.149   8.171 -0.9985 -0.7218  0.6461
   47MOL0     C 6084  10.134   1.156   8.257 -0.3094 -0.6308  0.0112
   47MOL0     C 6085  10.165   1.289   8.330  0.6249 -0.2104 -0.7982
   47MOL0     C 6086  10.288   1.275   8.425 -0.1638  0.3369  1.0270
   47MOL0     C 6087  10.317   1.407   8.500 -0.1907 -0.5570  0.7339
   47MOL0     C 6088  10.450   1.403   8.573 -0.3894 -0.4195 -0.7193
   47MOL0     N 6089  10.562   1.411   8.478 -0.1907 -0.0236  0.5681
   47MOL0     C 6090  10.573   1.490   8.364  0.4887 -1.0627 -0.8092
   47MOL0     C 6091  10.695   1.465   8.310  0.8295  0.4720  0.0025
   47MOL0     C 6092  10.738   1.540   8.196  0.3864  0.1149 -0.7084
   47MOL0     C 6093  10.882   1.537   8.164 -0.1644  0.0193  0.3452
   47MOL0     C 6094  10.914   1.637   8.049  0.0557  1.2634  0.4754
   47MOL0     C 6095  11.048   1.611   7.986  0.2734  1.1743  0.2265
   47MOL0     O 6096  11.153   1.605   8.081 -0.0377  0.1298  0.2317
   47MOL0     C 6097  11.287   1.618   8.040 -0.0335  0.5400  0.3664
   47MOL0     C 6098  11.374   1.618   8.151 -0.0528  0.3884  0.8207
   47MOL0     C 6099  11.512   1.630   8.112  0.1148  0.2729 -0.1989
   47MOL0     C 6100  11.552   1.662   7.980 -0.2970 -0.2689  0.9655
   47MOL0     C 6101  11.700   1.671   7.946 -0.0868 -0.4284 -0.2155
   47MOL0     O 6102  11.790   1.650   8.050 -0.2504 -0.2236 -0.0233
   47MOL0     C 6103  11.929   1.658   8.018  0.8198 -0.9898  0.6107
   47MOL0     C 6104  12.013   1.757   8.074  0.3811  0.5683  0.4915
   47MOL0     C 6105  12.150   1.753   8.048  0.1584 -0.0147  0.2977
   47MOL0     C 6106  12.202   1.660   7.949  0.6809  0.1019 -0.6053
   47MOL0     O 6107  12.334   1.659   7.907 -0.0031  0.4175  0.0785
   47MOL0     C 6108  12.435   1.694   8.004  0.5404  0.1565  0.4351
   47MOL0     C 6109  12.569   1.653   7.952  0.1564 -0.4000  0.4041
   47MOL0     C 6110  12.671   1.662   8.059 -0.6143  0.4615 -0.0013
   47MOL0     C 6111  12.808   1.617   8.007 -0.3702  0.7049 -0.5084
   47MOL0     C 6112  12.904   1.609   8.127 -0.2493  0.1888 -1.4585
   47MOL0     C 6113  13.049   1.571   8.061  0.8370 -1.1034 -0.9328
   47MOL0     C 6114  13.141   1.522   8.167  0.3743 -0.3516 -0.0588
   47MOL0     C 6115  13.285   1.519   8.101  0.7593 -0.2255  0.6701
   47MOL0    Cl 6116  13.331   1.681   8.022 -0.0813  0.4810  0.2646
   47MOL0     C 6117  12.122   1.566   7.898 -0.3517 -0.4072  0.1390
   47MOL0     C 6118  11.986   1.560   7.929  0.1224 -0.3150  0.1481
   47MOL0     O 6119  11.729   1.695   7.830 -0.4584  0.5556 -0.4832
   47MOL0     C 6120  11.465   1.671   7.875 -0.7307 -0.7913  0.5104
   47MOL0     C 6121  11.328   1.642   7.903 -0.1908 -0.6600  0.2196
   47MOL0     N 6122  10.754   1.370   8.397  0.0125 -0.0185 -0.5182
   47MOL0     N 6123  10.667   1.331   8.484 -1.5823  0.5136 -1.0023
   47MOL0     C 6124  10.113   0.731   7.914  0.2136 -0.5768 -0.4994
   47MOL0     C 6125  10.188   0.678   7.807  0.5342 -0.0424  0.8764
   47MOL0     C 6126  10.594   0.645   7.567 -0.9361 -0.0144  0.0333
   47MOL0     C 6127  10.729   0.689   7.538 -0.4310  0.7471 -0.1476
   47MOL0     C 6128  10.801   0.635   7.430 -0.4795  0.4580  0.8028
   47MOL0     C 6129  10.752   0.523   7.355 -0.4415 -0.3259  0.7635
   47MOL0     O 6130  10.823   0.459   7.251  0.4023  0.1450 -0.1842
   47MOL0     C 6131  10.964   0.451   7.253 -0.3946 -0.0194 -0.3898
   47MOL0     C 6132  11.030   0.515   7.138  0.3158 -0.5081  0.5864
   47MOL0     C 6133  10.957   0.631   7.064  0.6126  0.8540 -0.7975
   47MOL0     C 6134  11.014   0.667   6.926 -0.3165 -0.1469  0.5865
   47MOL0     C 6135  11.150   0.726   6.935 -0.4893 -0.5004  0.7380
   47MOL0     C 6136  11.263   0.764   6.943  0.5405 -1.4235 -0.4469
   47MOL0     C 6137  10.625   0.476   7.389  0.3990  0.4303 -0.2880
   47MOL0     C 6138  10.550   0.538   7.496 -0.0669  0.9315 -0.0501
   47MOL0     H 6139  10.496   0.692   7.957  0.3308  2.1219 -0.8789
   47MOL0     H 6140  10.357   0.795   8.127 -2.3122 -1.1091  1.6579
   47MOL0     H 6141   9.960   0.928   8.211  0.6215  0.9950 -0.5178
   47MOL0     H 6142   9.920   0.851   8.047  0.6819 -0.1298  0.2284
   47MOL0     H 6143   9.943   1.082   7.984 -2.3304 -4.2023  1.0626
   47MOL0     H 6144  10.114   1.051   8.006  0.4212 -1.3248  0.0308
   47MOL0     H 6145   9.916   1.142   8.225 -2.1816 -2.7452 -1.4997
   47MOL0     H 6146  10.008   1.245   8.118 -1.2289 -0.3694  1.2827
   47MOL0     H 6147  10.123   1.078   8.334  0.2050 -0.5555  0.1652
   47MOL0     H 6148  10.221   1.141   8.192 -1.4404  0.7345 -1.8865
   47MOL0     H 6149  10.076   1.307   8.391  0.4129 -0.0821 -1.1419
   47MOL0     H 6150  10.175   1.371   8.258 -1.2129  0.0827 -0.7581
   47MOL0     H 6151  10.376   1.249   8.365  1.0709  0.6953  2.5942
   47MOL0     H 6152  10.272   1.188   8.489 -1.8389 -0.6261 -0.5885
   47MOL0     H 6153  10.322   1.492   8.431  1.4578  1.0541  2.7031
   47MOL0     H 6154  10.239   1.425   8.574  0.2752 -2.2066  1.6713
   47MOL0     H 6155  10.459   1.313   8.634  1.2151 -1.4648 -2.4028
   47MOL0     H 6156  10.452   1.492   8.637 -2.8140 -2.3667  2.3072
   47MOL0     H 6157  10.500   1.562   8.329  3.2544  2.0465 -0.6869
   47MOL0     H 6158  10.716   1.641   8.231  0.2795  0.1862 -0.9780
   47MOL0     H 6159  10.664   1.530   8.116 -1.5132 -0.3672  1.0171
   47MOL0     H 6160  10.913   1.434   8.142  2.8359  1.1157 -1.1403
   47MOL0     H 6161  10.933   1.565   8.256 -0.5126 -0.6948  0.7642
   47MOL0     H 6162  10.848   1.634   7.963  2.8180 -1.8163 -1.7961
   47MOL0     H 6163  10.932   1.738   8.088  0.1263  0.6221  2.1851
   47MOL0     H 6164  11.058   1.693   7.914  1.0277  2.0279  1.2713
   47MOL0     H 6165  11.043   1.521   7.923 -0.3853 -0.0678  1.9773
   47MOL0     H 6166  11.343   1.599   8.254 -1.6001 -1.5408  0.0589
   47MOL0     H 6167  11.589   1.618   8.187  1.9781 -0.3994 -2.1248
   47MOL0     H 6168  11.971   1.825   8.148 -0.2390  1.0374 -0.2723
   47MOL0     H 6169  12.209   1.821   8.108  1.4184 -2.1082  1.5337
   47MOL0     H 6170  12.410   1.633   8.092  4.7004 -0.7292  1.2195
   47MOL0     H 6171  12.443   1.800   8.030  3.1799  0.4958 -1.2787
   47MOL0     H 6172  12.601   1.711   7.865  2.2212  0.4328  1.6453
   47MOL0     H 6173  12.584   1.551   7.917 -2.3347 -0.4458 -0.7286
   47MOL0     H 6174  12.641   1.596   8.142 -0.4231  0.8937  0.4176
   47MOL0     H 6175  12.677   1.757   8.113 -1.8277 -0.9983  2.9585
   47MOL0     H 6176  12.793   1.520   7.959 -1.4998  0.5444  0.1512
   47MOL0     H 6177  12.846   1.682   7.927  0.3095 -1.2155 -1.8065
   47MOL0     H 6178  12.872   1.524   8.188 -1.4916  0.8997 -1.1030
   47MOL0     H 6179  12.902   1.698   8.190 -2.7511 -1.0448  0.3684
   47MOL0     H 6180  13.073   1.666   8.013 -0.5667 -1.2635 -2.0137
   47MOL0     H 6181  13.034   1.497   7.982 -0.2872 -0.9599 -0.8636
   47MOL0     H 6182  13.151   1.584   8.256  2.7097  1.0644 -1.2324
   47MOL0     H 6183  13.111   1.419   8.191 -0.5460 -0.1883 -0.4965
   47MOL0     H 6184  13.293   1.440   8.025  1.6783  1.9681 -1.6485
   47MOL0     H 6185  13.356   1.495   8.181  1.5585  0.5862  0.2197
   47MOL0     H 6186  12.166   1.488   7.837  1.2967 -1.6585  2.7550
   47MOL0     H 6187  11.914   1.483   7.903  2.7540 -2.7451 -0.4451
   47MOL0     H 6188  11.491   1.709   7.777 -1.1451  0.1915  0.7755
   47MOL0     H 6189  11.258   1.640   7.820 -0.5386  2.0484  0.3728
   47MOL0     H 6190  10.005   0.722   7.908  0.3811 -3.9755 -0.8509
   47MOL0     H 6191  10.139   0.648   7.715  1.7732  0.9187 -0.1423
   47MOL0     H 6192  10.773   0.766   7.600 -1.3305  1.3933 -0.3010
   47MOL0     H 6193  10.905   0.665   7.414  0.0730 -1.9846 -0.6694
   47MOL0     H 6194  10.989   0.346   7.240 -0.8288  0.0946 -2.4423
   47MOL0     H 6195  11.007   0.491   7.346 -2.8774 -1.2360  1.3935
   47MOL0     H 6196  11.119   0.562   7.182 -0.7548  1.8514  0.3590
   47MOL0     H 6197  11.053   0.435   7.067  2.0605 -0.0820  0.6060
   47MOL0     H 6198  10.947   0.717   7.132  0.5502 -0.4143  0.8707
   47MOL0     H 6199  10.853   0.601   7.056  1.8553 -3.6140 -3.7068
   47MOL0     H 6200  11.018   0.574   6.869 -0.2827  1.6775 -2.5963
   47MOL0     H 6201  10.943   0.733   6.876  0.4101  0.3639  0.2213
   47MOL0     H 6202  11.362   0.804   6.951 -0.7042  1.9481 -0.3033
   47MOL0     H 6203  10.581   0.391   7.338  1.6524 -0.1589 -0.4332
   47MOL0     H 6204  10.455   0.488   7.511  2.0172 -2.6522  3.1153
   48MOL0     O 6205   6.142   5.221   3.667  0.1782 -0.1697  0.1947
   48MOL0     C 6206   6.208   5.323   3.698  0.5032 -0.3379 -0.0654
   48MOL0     O 6207   6.155   5.441   3.747 -0.2293 -0.1583 -0.2344
   48MOL0     C 6208   6.018   5.457   3.735 -0.6525  0.7610  0.0544
   48MOL0     C 6209   5.920   5.400   3.825  0.6370 -0.6444  0.5580
   48MOL0     C 6210   5.782   5.423   3.799 -0.5365 -0.7793 -0.9081
   48MOL0     C 6211   5.743   5.502   3.690 -0.0096  0.0405  0.8331
   48MOL0     O 6212   5.612   5.540   3.675  0.1448 -0.0348  0.3758
   48MOL0     C 6213   5.558   5.591   3.550  0.0788 -0.7364 -0.5267
   48MOL0     C 6214   5.516   5.744   3.556  0.4720  0.3355  0.1144
   48MOL0     C 6215   5.366   5.766   3.578 -0.2754 -0.4438 -0.3675
   48MOL0     C 6216   5.314   5.736   3.718  0.5005  0.2008  0.7902
   48MOL0     C 6217   5.163   5.741   3.708 -0.8837 -0.2322 -0.3201
   48MOL0     C 6218   5.100   5.761   3.849  0.2475 -0.1939 -0.7853
   48MOL0     C 6219   4.957   5.739   3.840  1.2337 -0.1787 -0.3459
   48MOL0     C 6220   4.891   5.760   3.982 -0.2278  0.4217 -0.0677
   48MOL0     N 6221   4.753   5.716   3.982  0.0899 -0.5403  0.5004
   48MOL0     C 6222   4.715   5.584   4.014 -0.0597 -0.7363  0.3397
   48MOL0     C 6223   4.579   5.600   4.032  0.0057 -0.3618 -0.4491
   48MOL0     C 6224   4.498   5.478   4.057  1.9563  0.3121 -0.0207
   48MOL0     C 6225   4.348   5.526   4.093 -0.3119  0.4227  0.6467
   48MOL0     C 6226   4.254   5.408   4.119 -0.3673 -0.1027 -0.5746
   48MOL0     C 6227   4.119   5.445   4.177  0.0767 -0.1544  0.6422
   48MOL0     O 6228   4.115   5.506   4.308 -0.1957 -0.0322 -0.0475
   48MOL0     C 6229   3.991   5.519   4.354  0.0392 -0.1075 -0.3487
   48MOL0     C 6230   3.922   5.418   4.415 -0.6962 -0.2291  0.2667
   48MOL0     C 6231   3.791   5.433   4.461  0.3219 -1.1728  0.0360
   48MOL0     C 6232   3.728   5.562   4.466 -0.2459 -0.1102  0.6138
   48MOL0     C 6233   3.608   5.597   4.544  0.2613  0.3444 -1.0378
   48MOL0     O 6234   3.588   5.733   4.570  0.0350 -0.0971 -0.0524
   48MOL0     C 6235   3.479   5.766   4.641 -0.1228  0.1496 -0.0724
   48MOL0     C 6236   3.354   5.787   4.585  0.6529  0.1587 -0.4246
   48MOL0     C 6237   3.242   5.815   4.667 -0.3054 -0.0368  0.4185
   48MOL0     C 6238   3.254   5.832   4.803 -1.2193 -0.0497 -0.5823
   48MOL0     O 6239   3.132   5.833   4.861 -0.0045 -0.3888  0.0203
   48MOL0     C 6240   3.122   5.805   5.003  0.2100  0.0111 -0.2103
   48MOL0     C 6241   2.982   5.788   5.059  0.2021 -0.2444 -0.4958
   48MOL0     C 6242   2.997   5.742   5.205 -0.0037  0.2373 -0.0832
   48MOL0     C 6243   2.858   5.738   5.293 -0.4369 -0.7635  0.1705
   48MOL0     C 6244   2.856   5.643   5.413  0.5091 -0.3276 -0.0232
   48MOL0     C 6245   2.712   5.593   5.435 -0.6467  0.6096  0.0112
   48MOL0     C 6246   2.705   5.499   5.562 -0.2749  0.2395 -0.3195
   48MOL0     C 6247   2.578   5.427   5.584 -0.1403  0.6495 -0.4093
   48MOL0    Cl 6248   2.574   5.311   5.453  0.5401  0.6364  0.3692
   48MOL0     C 6249   3.383   5.816   4.864  0.3301 -0.7156  0.6054
   48MOL0     C 6250   3.498   5.790   4.783 -0.3282 -0.7131  0.4076
   48MOL0     O 6251   3.535   5.504   4.596  0.3586  0.6934  0.4353
   48MOL0     C 6252   3.793   5.657   4.396 -0.5819  0.6000  0.2476
   48MOL0     C 6253   3.924   5.642   4.343  0.0763  0.3391 -0.3206
   48MOL0     N 6254   4.539   5.732   4.013  0.8977 -0.2286 -0.0252
   48MOL0     N 6255   4.647   5.800   3.982 -0.4725 -0.1743 -0.4263
   48MOL0     C 6256   5.848   5.552   3.607  0.4848 -0.0803 -0.4703
   48MOL0     C 6257   5.979   5.527   3.624 -0.2731 -0.2617 -0.3729
   48MOL0     C 6258   6.358   5.301   3.696  0.9260  0.9219  0.1811
   48MOL0     C 6259   6.425   5.192   3.632  1.2414  0.2463 -0.4777
   48MOL0     C 6260   6.565   5.182   3.640 -0.7162 -0.2710  0.3241
   48MOL0     C 6261   6.649   5.281   3.704 -0.0097  0.2240 -0.2195
   48MOL0     O 6262   6.787   5.277   3.709 -0.5226 -0.4541  0.2394
   48MOL0     C 6263   6.854   5.190   3.617  0.2984 -0.6878 -0.3046
   48MOL0     C 6264   6.923   5.075   3.689 -1.0648 -0.0289  0.0896
   48MOL0     C 6265   7.075   5.106   3.723 -0.1368  0.6127 -0.2748
   48MOL0     C 6266   7.142   4.986   3.792  0.4552  0.0703 -1.2810
   48MOL0     C 6267   7.174   4.865   3.709 -0.1017  0.2844 -0.8644
   48MOL0     C 6268   7.214   4.776   3.637  0.3399 -0.2970 -0.5992
   48MOL0     C 6269   6.579   5.392   3.756  0.8925 -0.4424 -0.5325
   48MOL0     C 6270   6.441   5.400   3.755  0.2475  0.9266 -0.5340
   48MOL0     H 6271   5.949   5.352   3.918 -0.9826 -1.9334  0.4344
   48MOL0     H 6272   5.711   5.393   3.875  0.5933  2.5822  1.7522
   48MOL0     H 6273   5.468   5.534   3.524 -0.0360 -2.5271  3.1240
   48MOL0     H 6274   5.633   5.590   3.471  1.8452  2.3732  0.9380
   48MOL0     H 6275   5.537   5.781   3.456 -0.7361  0.2947 -0.1718
   48MOL0     H 6276   5.577   5.806   3.623 -0.4551 -0.5301  1.8358
   48MOL0     H 6277   5.324   5.693   3.509  0.0349  0.6842 -1.7996
   48MOL0     H 6278   5.332   5.866   3.548  1.6429 -0.4888 -3.1085
   48MOL0     H 6279   5.358   5.641   3.751  2.3327  0.2801 -1.1601
   48MOL0     H 6280   5.355   5.810   3.787  0.6992  1.2832 -0.4638
   48MOL0     H 6281   5.122   5.649   3.668 -1.2395  0.2979 -1.2010
   48MOL0     H 6282   5.133   5.819   3.638 -0.4825  2.7934  2.5988
   48MOL0     H 6283   5.133   5.854   3.898 -0.4862 -0.5414  0.4193
   48MOL0     H 6284   5.143   5.675   3.900  1.1753  0.4677 -0.4204
   48MOL0     H 6285   4.910   5.813   3.775 -1.7122  0.0366  1.7959
   48MOL0     H 6286   4.941   5.635   3.811  1.9643 -0.1451 -0.8997
   48MOL0     H 6287   4.916   5.859   4.019  0.7922  0.1929 -0.1260
   48MOL0     H 6288   4.943   5.698   4.055  0.7059  1.3077  0.0303
   48MOL0     H 6289   4.775   5.494   4.016 -0.2562 -0.8909 -0.4417
   48MOL0     H 6290   4.535   5.424   4.145  2.8560 -0.4678 -0.8504
   48MOL0     H 6291   4.499   5.410   3.971 -1.0015  0.8013 -0.5617
   48MOL0     H 6292   4.313   5.585   4.008 -1.5120 -1.3360 -0.1419
   48MOL0     H 6293   4.348   5.584   4.186 -1.4681  1.6599 -0.0939
   48MOL0     H 6294   4.236   5.353   4.026  0.3688 -2.1422  0.4077
   48MOL0     H 6295   4.295   5.335   4.190  4.0543  2.9670  0.4705
   48MOL0     H 6296   4.069   5.348   4.185 -0.2585  0.0527  1.1234
   48MOL0     H 6297   4.063   5.513   4.113  1.6609  0.4989 -0.1214
   48MOL0     H 6298   3.985   5.330   4.418  2.1925  1.7199  0.4512
   48MOL0     H 6299   3.741   5.349   4.508  1.4002 -1.0116  1.5071
   48MOL0     H 6300   3.359   5.788   4.477 -0.2923 -0.4251 -0.4928
   48MOL0     H 6301   3.149   5.830   4.612  0.8450 -0.3926 -1.7734
   48MOL0     H 6302   3.179   5.887   5.048  0.8415 -0.5336  0.0083
   48MOL0     H 6303   3.173   5.714   5.036 -0.7596  0.5249  2.9935
   48MOL0     H 6304   2.930   5.710   5.003 -0.3463  0.8153 -1.5068
   48MOL0     H 6305   2.919   5.878   5.060  2.8254  1.7044 -0.9287
   48MOL0     H 6306   3.054   5.819   5.258 -3.2456  3.0563 -0.4378
   48MOL0     H 6307   3.058   5.651   5.211 -4.2275 -2.8306  1.6220
   48MOL0     H 6308   2.838   5.833   5.343  1.6038 -0.1758 -0.0399
   48MOL0     H 6309   2.775   5.724   5.223  0.2789  3.9823 -2.0238
   48MOL0     H 6310   2.896   5.703   5.495  1.2846  0.0278 -0.6494
   48MOL0     H 6311   2.918   5.555   5.394 -0.2022 -1.1795  1.4606
   48MOL0     H 6312   2.678   5.533   5.350 -1.0882 -0.6779  1.0573
   48MOL0     H 6313   2.635   5.669   5.446 -0.9100  0.7412 -2.2069
   48MOL0     H 6314   2.789   5.429   5.569  1.5859  2.4330  0.7062
   48MOL0     H 6315   2.724   5.566   5.646  1.8905  0.4483 -0.9083
   48MOL0     H 6316   2.498   5.502   5.574  0.3624  1.0489 -1.6057
   48MOL0     H 6317   2.574   5.390   5.686  0.7663  0.1559 -0.5487
   48MOL0     H 6318   3.392   5.819   4.972  1.5186 -2.5765  0.6018
   48MOL0     H 6319   3.600   5.771   4.814 -0.4807 -1.4148  0.4960
   48MOL0     H 6320   3.746   5.755   4.404 -4.5271 -1.2143  1.1257
   48MOL0     H 6321   3.967   5.736   4.309  0.2002  0.2620 -0.3756
   48MOL0     H 6322   5.827   5.615   3.521 -0.4772  1.2565  0.6950
   48MOL0     H 6323   6.056   5.558   3.555 -0.2600 -1.2727 -0.8276
   48MOL0     H 6324   6.362   5.120   3.581 -0.5612 -1.0598  3.2270
   48MOL0     H 6325   6.598   5.091   3.590 -1.6919 -1.1649  1.2554
   48MOL0     H 6326   6.927   5.248   3.561  0.3125 -0.5936 -0.1891
   48MOL0     H 6327   6.785   5.140   3.547 -2.3509  1.1571  0.8221
   48MOL0     H 6328   6.869   5.054   3.781  0.8469 -1.7590  0.8783
   48MOL0     H 6329   6.911   4.985   3.628 -0.7497 -0.1435  0.1947
   48MOL0     H 6330   7.090   5.201   3.775 -2.2360  1.2032 -0.6334
   48MOL0     H 6331   7.127   5.120   3.628 -1.4783  0.0539 -1.1307
   48MOL0     H 6332   7.236   5.017   3.839 -0.9172  0.0175  1.7793
   48MOL0     H 6333   7.080   4.948   3.874  1.0431 -1.7196 -1.6289
   48MOL0     H 6334   7.254   4.702   3.570  1.0891 -2.4092  2.0049
   48MOL0     H 6335   6.639   5.465   3.810  0.6131 -0.6588  0.0813
   48MOL0     H 6336   6.393   5.484   3.804  1.6429  2.3171 -1.4427
   49MOL0     O 6337   4.739   9.322   2.993  0.2192 -0.0607 -0.1613
   49MOL0     C 6338   4.758   9.289   3.111  1.1649 -0.5385  0.2518
   49MOL0     O 6339   4.674   9.323   3.215  0.5460 -0.1169  0.6711
   49MOL0     C 6340   4.534   9.353   3.191  0.0822 -0.1585 -0.3722
   49MOL0     C 6341   4.489   9.448   3.102 -0.6274  0.1828 -0.9656
   49MOL0     C 6342   4.359   9.461   3.064  0.5007 -0.2805  0.3414
   49MOL0     C 6343   4.263   9.382   3.114  0.2065 -0.0937  0.4223
   49MOL0     O 6344   4.128   9.379   3.080  0.5512  0.0303 -0.4592
   49MOL0     C 6345   4.075   9.477   2.988  0.1036  0.7261 -0.1240
   49MOL0     C 6346   3.919   9.472   3.004 -0.7172 -0.9148  0.5438
   49MOL0     C 6347   3.868   9.560   3.114  0.2962 -0.5630 -0.0253
   49MOL0     C 6348   3.717   9.577   3.116  0.0568 -0.7611  0.1218
   49MOL0     C 6349   3.660   9.665   3.216 -0.2166  0.0924 -0.5016
   49MOL0     C 6350   3.636   9.605   3.354 -0.2222 -0.0539  0.2565
   49MOL0     C 6351   3.583   9.710   3.451 -0.0283  0.1407  0.5012
   49MOL0     C 6352   3.531   9.658   3.581  0.1172  0.2530 -0.5374
   49MOL0     N 6353   3.399   9.597   3.557 -0.7013 -0.2824  0.3728
   49MOL0     C 6354   3.358   9.468   3.589  0.2569 -0.3245 -0.1378
   49MOL0     C 6355   3.220   9.470   3.576 -0.5582 -0.4955 -0.0282
   49MOL0     C 6356   3.140   9.354   3.629 -0.5747  0.4107  0.0514
   49MOL0     C 6357   3.004   9.400   3.651  0.2832 -0.5684 -1.6468
   49MOL0     C 6358   2.922   9.286   3.708 -0.4376  1.0383 -0.1235
   49MOL0     C 6359   2.765   9.298   3.712  0.0385 -0.3953  0.0581
   49MOL0     O 6360   2.711   9.334   3.592  0.3803 -0.1308  0.0834
   49MOL0     C 6361   2.586   9.393   3.615  0.2010 -0.3912  0.0394
   49MOL0     C 6362   2.553   9.512   3.551  0.1883  0.3208 -0.8397
   49MOL0     C 6363   2.423   9.562   3.578  0.2070 -0.4827  0.1193
   49MOL0     C 6364   2.315   9.493   3.649 -0.8264 -0.2464  0.5950
   49MOL0     C 6365   2.185   9.553   3.654 -0.3884 -0.6416  0.7549
   49MOL0     O 6366   2.107   9.532   3.767  0.0323 -0.7443 -0.8733
   49MOL0     C 6367   1.989   9.601   3.775 -0.0218  0.4965 -0.2838
   49MOL0     C 6368   1.992   9.743   3.777  0.2467 -0.4088  0.7080
   49MOL0     C 6369   1.866   9.814   3.785 -0.4951 -0.6444  0.3174
   49MOL0     C 6370   1.750   9.746   3.806  0.9031 -0.9784 -0.1467
   49MOL0     O 6371   1.630   9.818   3.805  0.0543 -0.5774 -0.4717
   49MOL0     C 6372   1.507   9.738   3.782 -0.0339  0.6647  0.1546
   49MOL0     C 6373   1.383   9.822   3.797  0.7650 -0.2174  0.2639
   49MOL0     C 6374   1.371   9.893   3.654 -0.4123 -0.2677  0.2234
   49MOL0     C 6375   1.236   9.965   3.654  0.3664 -0.4238  0.6440
   49MOL0     C 6376   1.208  10.052   3.524  0.1758 -0.4235 -0.2144
   49MOL0     C 6377   1.104  10.158   3.535 -0.3774 -0.4736 -0.3188
   49MOL0     C 6378   0.965  10.102   3.527 -0.4047 -0.2040  0.5004
   49MOL0     C 6379   0.856  10.194   3.576 -0.7738 -0.0104 -0.2639
   49MOL0    Cl 6380   0.695  10.101   3.555 -0.0751 -0.2843  0.1294
   49MOL0     C 6381   1.754   9.603   3.801  0.1715  0.6559 -0.4962
   49MOL0     C 6382   1.870   9.537   3.779 -0.5716  0.0831  0.5574
   49MOL0     O 6383   2.152   9.626   3.562 -0.0721 -0.1851  0.2152
   49MOL0     C 6384   2.352   9.372   3.697 -0.7418 -0.6590 -0.1736
   49MOL0     C 6385   2.483   9.337   3.694 -0.3503 -0.2696  1.0827
   49MOL0     N 6386   3.187   9.595   3.531  1.1830  0.2475 -0.1425
   49MOL0     N 6387   3.289   9.671   3.524 -0.6296  0.1631 -1.0559
   49MOL0     C 6388   4.308   9.288   3.210 -0.0312  0.8618  0.1172
   49MOL0     C 6389   4.441   9.281   3.254  0.6052 -0.6301 -0.6011
   49MOL0     C 6390   4.885   9.236   3.147  0.4311  0.9994 -0.1062
   49MOL0     C 6391   4.997   9.247   3.064 -0.0667 -0.3948 -0.3577
   49MOL0     C 6392   5.122   9.201   3.107 -0.7156 -1.3673 -0.3263
   49MOL0     C 6393   5.132   9.128   3.224  0.6079  0.1965  0.6063
   49MOL0     O 6394   5.247   9.071   3.269 -0.4611 -0.6580  0.3294
   49MOL0     C 6395   5.371   9.127   3.230 -0.7202  0.2866  0.9284
   49MOL0     C 6396   5.476   9.078   3.324 -1.1917  0.2212  0.3135
   49MOL0     C 6397   5.485   8.928   3.340  0.5917 -0.2841  0.6820
   49MOL0     C 6398   5.618   8.896   3.405  0.8465 -0.9160  0.0249
   49MOL0     C 6399   5.620   8.762   3.461 -0.2246  0.1822  0.4779
   49MOL0     C 6400   5.628   8.654   3.506 -0.1543 -0.8111  0.0231
   49MOL0     C 6401   5.018   9.113   3.308  0.3037  1.0166  0.6182
   49MOL0     C 6402   4.897   9.165   3.268 -0.1510 -0.4040 -0.7966
   49MOL0     H 6403   4.566   9.505   3.051 -2.0155  0.3241 -3.0265
   49MOL0     H 6404   4.358   9.529   2.979  4.8509  1.3670  1.3742
   49MOL0     H 6405   4.123   9.464   2.891 -0.0051  1.0648 -0.2235
   49MOL0     H 6406   4.115   9.575   3.015  0.6970  0.8906 -1.5288
   49MOL0     H 6407   3.886   9.369   3.023  2.2611 -2.1313 -0.2007
   49MOL0     H 6408   3.873   9.509   2.912  0.1742  0.1288  0.4977
   49MOL0     H 6409   3.911   9.660   3.100 -0.8405 -0.0056  0.4027
   49MOL0     H 6410   3.917   9.532   3.208  0.9052  0.2596 -0.0877
   49MOL0     H 6411   3.683   9.620   3.022 -0.9237 -0.5361  0.5554
   49MOL0     H 6412   3.673   9.478   3.133 -1.7494 -0.3485 -1.7580
   49MOL0     H 6413   3.561   9.695   3.182 -0.0752  1.6881  0.4197
   49MOL0     H 6414   3.707   9.762   3.237 -5.1281  2.7375 -0.3324
   49MOL0     H 6415   3.731   9.572   3.397 -0.7075 -2.5479 -0.4140
   49MOL0     H 6416   3.569   9.519   3.360  1.5681 -1.5318  0.2382
   49MOL0     H 6417   3.675   9.764   3.475 -0.7354  0.8024  1.8773
   49MOL0     H 6418   3.519   9.787   3.407  0.4256  1.0629  1.4155
   49MOL0     H 6419   3.534   9.744   3.649  3.3853  0.0053 -0.2099
   49MOL0     H 6420   3.597   9.580   3.620  1.1034  0.9094 -0.8481
   49MOL0     H 6421   3.427   9.393   3.624  0.8902  0.0598 -0.5323
   49MOL0     H 6422   3.185   9.323   3.724  1.3815 -0.5427 -1.1271
   49MOL0     H 6423   3.152   9.271   3.559 -2.0617 -0.5882  0.9342
   49MOL0     H 6424   2.945   9.435   3.566  0.5348 -0.7554 -1.8995
   49MOL0     H 6425   2.998   9.475   3.730 -0.2389 -2.8428  0.6061
   49MOL0     H 6426   2.945   9.189   3.661 -1.2216  0.7604  0.0495
   49MOL0     H 6427   2.952   9.287   3.813 -2.6864 -0.4840  0.6164
   49MOL0     H 6428   2.744   9.377   3.785  0.5177  1.2621 -1.5165
   49MOL0     H 6429   2.722   9.203   3.744  0.7467 -1.5882 -2.2870
   49MOL0     H 6430   2.636   9.562   3.503  0.5342 -1.6112 -2.4069
   49MOL0     H 6431   2.404   9.661   3.538  3.5072  0.4564  0.5560
   49MOL0     H 6432   2.082   9.800   3.757 -0.9972  0.4499 -3.5593
   49MOL0     H 6433   1.862   9.922   3.772  1.4011 -0.6450 -0.6634
   49MOL0     H 6434   1.490   9.662   3.859  1.9717  0.9309  0.9043
   49MOL0     H 6435   1.498   9.683   3.688 -0.9849  1.6471 -0.3559
   49MOL0     H 6436   1.392   9.893   3.879 -3.6605  0.8495  0.0876
   49MOL0     H 6437   1.288   9.770   3.813 -0.4349  1.0414 -2.2043
   49MOL0     H 6438   1.372   9.833   3.563  1.8704  0.5284 -0.3246
   49MOL0     H 6439   1.455   9.962   3.649  1.3451 -2.3389 -0.1104
   49MOL0     H 6440   1.158   9.888   3.654 -1.5548  1.3800  1.8503
   49MOL0     H 6441   1.224  10.033   3.739  0.8977  2.7685 -1.6017
   49MOL0     H 6442   1.181   9.985   3.442  0.6025 -1.3660  0.3829
   49MOL0     H 6443   1.300  10.106   3.498 -2.0174  3.1040 -1.2128
   49MOL0     H 6444   1.118  10.238   3.463  0.6363  0.1083  0.4981
   49MOL0     H 6445   1.103  10.217   3.627  2.0634  2.9936 -2.3206
   49MOL0     H 6446   0.934  10.080   3.425 -0.3023  0.8967  0.2195
   49MOL0     H 6447   0.955  10.009   3.584 -0.8892 -1.3528 -1.3754
   49MOL0     H 6448   0.877  10.291   3.530  2.7272 -0.5996 -0.2174
   49MOL0     H 6449   0.874  10.204   3.683  2.1836 -0.1278 -0.6577
   49MOL0     H 6450   1.664   9.543   3.800 -0.6707  1.8386  0.6904
   49MOL0     H 6451   1.879   9.430   3.793 -2.3913 -0.3110 -0.8022
   49MOL0     H 6452   2.288   9.315   3.765  0.7936 -3.3666 -0.8517
   49MOL0     H 6453   2.510   9.243   3.740 -0.8390 -0.7434  0.4274
   49MOL0     H 6454   4.240   9.223   3.263  2.8729 -0.4899  2.5194
   49MOL0     H 6455   4.475   9.198   3.316 -0.4306  0.0621  0.9661
   49MOL0     H 6456   4.997   9.299   2.969  0.2687  2.5088  1.1178
   49MOL0     H 6457   5.205   9.221   3.040 -0.6962  1.4799  0.4152
   49MOL0     H 6458   5.356   9.235   3.233 -2.8977  0.1034 -0.9854
   49MOL0     H 6459   5.391   9.078   3.135 -2.9343 -1.0364  1.0849
   49MOL0     H 6460   5.574   9.116   3.293 -1.2577 -0.4357 -0.7464
   49MOL0     H 6461   5.451   9.131   3.416 -2.4027  0.7950 -0.3298
   49MOL0     H 6462   5.478   8.882   3.241 -3.1392  0.3288  0.5024
   49MOL0     H 6463   5.401   8.881   3.391 -0.3830 -1.0214 -1.4622
   49MOL0     H 6464   5.707   8.915   3.344  0.3681  0.7176 -0.2031
   49MOL0     H 6465   5.635   8.969   3.485 -1.3163  1.3157 -1.4380
   49MOL0     H 6466   5.625   8.562   3.561 -0.8965 -0.4766  0.5564
   49MOL0     H 6467   5.033   9.058   3.400  1.0129 -0.2898 -0.2548
   49MOL0     H 6468   4.815   9.144   3.337 -0.5365 -1.2875 -1.5058
   50MOL0     O 6469   3.589   7.315   2.759 -0.4722  0.0130  0.1201
   50MOL0     C 6470   3.648   7.312   2.867 -0.5628 -0.5551  0.2887
   50MOL0     O 6471   3.605   7.260   2.987  0.5627  0.0814  0.3290
   50MOL0     C 6472   3.476   7.210   2.980  0.5266 -0.0641  0.7337
   50MOL0     C 6473   3.439   7.098   2.896  0.3011 -0.3867  0.4547
   50MOL0     C 6474   3.308   7.050   2.902 -0.3498  0.7260 -0.4953
   50MOL0     C 6475   3.217   7.102   2.999 -0.0984  0.2041 -0.3434
   50MOL0     O 6476   3.085   7.056   2.995  0.2017 -0.8518  0.1627
   50MOL0     C 6477   3.020   7.021   3.115 -0.1783 -1.0224 -0.3042
   50MOL0     C 6478   3.096   6.894   3.168 -1.4626 -0.1125  0.6142
   50MOL0     C 6479   3.015   6.812   3.268 -0.2712  1.0298 -0.3501
   50MOL0     C 6480   2.897   6.746   3.202  0.6947 -0.1697 -0.5002
   50MOL0     C 6481   2.818   6.654   3.300  0.1956 -0.4875  0.1099
   50MOL0     C 6482   2.710   6.719   3.376  0.8360  0.0177 -0.2943
   50MOL0     C 6483   2.609   6.618   3.420  0.5498  0.6824  0.2872
   50MOL0     C 6484   2.512   6.562   3.313  0.1890  0.0695 -0.2100
   50MOL0     N 6485   2.380   6.621   3.313 -0.0080  0.5284  0.1878
   50MOL0     C 6486   2.358   6.757   3.298 -0.5559 -0.3236  0.1697
   50MOL0     C 6487   2.228   6.767   3.279  0.0517 -0.5989  0.3831
   50MOL0     C 6488   2.146   6.887   3.259  0.2129  0.2024 -0.0859
   50MOL0     C 6489   2.194   7.035   3.256 -0.1513  0.1937 -0.4316
   50MOL0     C 6490   2.238   7.068   3.118  1.2564 -0.2050 -0.3954
   50MOL0     C 6491   2.299   7.215   3.117  0.1651  0.4593  0.2068
   50MOL0     O 6492   2.342   7.249   2.988 -0.2183 -0.3160 -0.1851
   50MOL0     C 6493   2.409   7.375   2.971 -0.2925  0.5013  0.9135
   50MOL0     C 6494   2.436   7.465   3.069 -0.5335 -0.3069  0.2098
   50MOL0     C 6495   2.507   7.582   3.046  0.2543 -0.5598 -0.2863
   50MOL0     C 6496   2.564   7.605   2.919 -0.1348 -0.3200 -0.7398
   50MOL0     C 6497   2.639   7.728   2.894  0.1420 -0.8489 -0.2915
   50MOL0     O 6498   2.669   7.771   2.767 -0.2582  0.1199  0.7511
   50MOL0     C 6499   2.775   7.856   2.734  0.0517 -0.0177 -0.5043
   50MOL0     C 6500   2.901   7.835   2.789 -0.0087 -0.4645 -0.4709
   50MOL0     C 6501   3.012   7.908   2.746  0.8413  0.5040 -0.0536
   50MOL0     C 6502   3.003   7.992   2.632 -0.0091 -0.7667 -0.0679
   50MOL0     O 6503   3.107   8.053   2.560  0.1088 -0.4527  0.1067
   50MOL0     C 6504   3.236   8.073   2.620  0.0094 -0.0944 -0.6548
   50MOL0     C 6505   3.316   8.193   2.548  0.6646 -0.4997  0.2917
   50MOL0     C 6506   3.255   8.328   2.589 -0.5494 -0.8044  0.5301
   50MOL0     C 6507   3.122   8.362   2.522 -0.1495 -0.5743  0.0322
   50MOL0     C 6508   3.077   8.510   2.546  0.4110  0.2803 -0.1896
   50MOL0     C 6509   2.926   8.525   2.537 -0.6258  0.3160 -0.0585
   50MOL0     C 6510   2.897   8.673   2.498  0.0981 -0.3954 -0.0264
   50MOL0     C 6511   2.751   8.720   2.532 -0.5942  0.5082 -0.4828
   50MOL0    Cl 6512   2.637   8.618   2.446  0.4797 -0.0039 -0.0846
   50MOL0     C 6513   2.875   7.993   2.568  0.2552 -0.4427 -0.2022
   50MOL0     C 6514   2.761   7.932   2.624 -0.6275 -0.1141 -0.8838
   50MOL0     O 6515   2.678   7.793   2.995  0.4996  0.2902  0.0289
   50MOL0     C 6516   2.550   7.510   2.823 -0.1702  0.3617 -0.3872
   50MOL0     C 6517   2.467   7.395   2.841 -0.2669 -0.0526 -0.6697
   50MOL0     N 6518   2.173   6.640   3.252  0.8511 -0.8687  0.2029
   50MOL0     N 6519   2.264   6.551   3.282 -0.3515 -0.3017 -0.4881
   50MOL0     C 6520   3.257   7.204   3.083  0.8721  0.1359 -0.3925
   50MOL0     C 6521   3.387   7.257   3.075  0.0591 -0.1334 -0.9496
   50MOL0     C 6522   3.796   7.350   2.861  0.6994  0.3052  0.1939
   50MOL0     C 6523   3.869   7.321   2.975 -0.2200 -0.0902  1.1005
   50MOL0     C 6524   4.009   7.345   2.969 -0.0668 -0.4094  0.2009
   50MOL0     C 6525   4.066   7.401   2.853 -0.4830  0.3360 -0.6015
   50MOL0     O 6526   4.197   7.444   2.841 -0.3696 -0.3679  0.5580
   50MOL0     C 6527   4.290   7.374   2.923  0.3229  0.5870  0.3987
   50MOL0     C 6528   4.430   7.379   2.878  0.4101  0.3190 -0.0068
   50MOL0     C 6529   4.501   7.515   2.873  0.9908 -0.3868  0.4170
   50MOL0     C 6530   4.650   7.501   2.862 -0.4426 -0.8871 -0.0855
   50MOL0     C 6531   4.688   7.495   2.720  0.1076  0.1852  0.3293
   50MOL0     C 6532   4.704   7.491   2.596  0.2131 -0.0504 -0.7172
   50MOL0     C 6533   3.987   7.433   2.747 -0.4583  0.3597  1.5331
   50MOL0     C 6534   3.848   7.400   2.742  0.1341  0.0342  0.2037
   50MOL0     H 6535   3.513   7.064   2.825  0.0215  1.0956 -0.5835
   50MOL0     H 6536   3.283   6.988   2.816  0.0243 -0.0799 -0.0411
   50MOL0     H 6537   2.920   6.994   3.079 -1.6061 -1.7650  3.7782
   50MOL0     H 6538   3.013   7.091   3.198 -0.4322 -0.0736 -1.1014
   50MOL0     H 6539   3.178   6.938   3.225 -1.3048 -1.4907  1.4923
   50MOL0     H 6540   3.126   6.829   3.086  3.7370  1.8440  0.6306
   50MOL0     H 6541   2.975   6.884   3.340 -0.4760  0.1345  0.4412
   50MOL0     H 6542   3.083   6.734   3.302 -1.3137 -0.8834 -2.3403
   50MOL0     H 6543   2.832   6.819   3.154  0.3508  0.8268  1.3978
   50MOL0     H 6544   2.928   6.689   3.114 -0.8432 -0.4246 -0.9017
   50MOL0     H 6545   2.890   6.605   3.367  1.5069 -0.9097 -1.5451
   50MOL0     H 6546   2.778   6.570   3.242 -0.5131  0.1812 -0.3856
   50MOL0     H 6547   2.665   6.789   3.305  1.1389  1.1982  0.6431
   50MOL0     H 6548   2.739   6.774   3.466  2.2173 -1.7007  0.3611
   50MOL0     H 6549   2.665   6.544   3.478  2.0320  2.5549  1.3704
   50MOL0     H 6550   2.549   6.674   3.493  1.0562  0.2581  1.0480
   50MOL0     H 6551   2.502   6.455   3.332 -0.5967  0.2065  0.1722
   50MOL0     H 6552   2.553   6.576   3.213 -0.4847  0.6927 -0.4048
   50MOL0     H 6553   2.433   6.834   3.286 -0.4055 -0.3498  0.8828
   50MOL0     H 6554   2.068   6.885   3.335 -1.2187 -1.1257 -1.5167
   50MOL0     H 6555   2.083   6.861   3.173 -1.2207 -1.6242  1.4513
   50MOL0     H 6556   2.281   7.031   3.323 -0.1433 -0.6821 -0.4820
   50MOL0     H 6557   2.116   7.103   3.293  1.4576  0.6450  2.4755
   50MOL0     H 6558   2.310   6.997   3.075  3.2666  0.8507  1.0623
   50MOL0     H 6559   2.147   7.060   3.059  1.0042 -1.7311  0.1465
   50MOL0     H 6560   2.390   7.210   3.177 -0.3026  1.7059  1.0486
   50MOL0     H 6561   2.230   7.286   3.163 -0.1165  0.8980 -0.8730
   50MOL0     H 6562   2.400   7.442   3.169 -0.1474 -3.4919 -0.2765
   50MOL0     H 6563   2.525   7.654   3.125  2.2749 -1.8517  0.5232
   50MOL0     H 6564   2.901   7.755   2.863 -1.0081  1.4642  1.7459
   50MOL0     H 6565   3.109   7.885   2.789  1.7672  1.1963 -1.6671
   50MOL0     H 6566   3.293   7.980   2.610  2.9047  1.6866 -2.2508
   50MOL0     H 6567   3.222   8.105   2.724 -2.2627 -1.7742 -0.3630
   50MOL0     H 6568   3.323   8.183   2.439 -0.3222 -0.3038  0.1971
   50MOL0     H 6569   3.421   8.185   2.577  1.4365 -0.7264 -2.2690
   50MOL0     H 6570   3.323   8.408   2.561 -1.2701 -0.7260 -1.0852
   50MOL0     H 6571   3.238   8.331   2.698  3.3587 -2.0775  1.3478
   50MOL0     H 6572   3.137   8.339   2.416  0.4746 -1.3354  0.2772
   50MOL0     H 6573   3.040   8.295   2.552 -2.9804  3.2894  1.7615
   50MOL0     H 6574   3.121   8.571   2.466  1.2583  1.6490  1.2744
   50MOL0     H 6575   3.117   8.539   2.643  2.0557 -3.1319  0.3043
   50MOL0     H 6576   2.888   8.500   2.637  1.6062 -0.5366  0.6585
   50MOL0     H 6577   2.888   8.455   2.462 -1.0302  1.8896 -1.3892
   50MOL0     H 6578   2.966   8.733   2.558 -1.2628 -0.9979  2.2843
   50MOL0     H 6579   2.911   8.697   2.393 -0.4496  1.7532  0.3524
   50MOL0     H 6580   2.720   8.824   2.512 -0.5392  0.9935  1.6736
   50MOL0     H 6581   2.735   8.694   2.637  1.4981  0.0568 -0.2289
   50MOL0     H 6582   2.844   8.052   2.482 -1.9676 -2.0048 -0.5811
   50MOL0     H 6583   2.667   7.936   2.570 -0.7939 -1.3157 -0.7080
   50MOL0     H 6584   2.607   7.537   2.735 -3.4778  1.2600 -2.4540
   50MOL0     H 6585   2.448   7.319   2.766 -0.5940 -2.1495  1.4111
   50MOL0     H 6586   3.180   7.250   3.144  0.4134 -0.4181 -0.5436
   50MOL0     H 6587   3.425   7.342   3.133  1.5760 -1.4095  0.0307
   50MOL0     H 6588   3.822   7.274   3.060 -0.8373 -0.5383  0.5232
   50MOL0     H 6589   4.060   7.327   3.063 -1.2194  2.3734  1.4504
   50MOL0     H 6590   4.259   7.269   2.925 -0.5930  0.5437 -4.2582
   50MOL0     H 6591   4.287   7.412   3.026  4.1633  0.6497  0.6036
   50MOL0     H 6592   4.484   7.316   2.950 -1.6521 -0.9348  0.5343
   50MOL0     H 6593   4.444   7.328   2.782  3.9313 -0.6926  0.8632
   50MOL0     H 6594   4.481   7.578   2.959 -0.3963  1.7701 -1.3633
   50MOL0     H 6595   4.464   7.566   2.783  2.4266 -0.6983 -0.3778
   50MOL0     H 6596   4.690   7.592   2.909 -0.4992 -0.7519 -0.2946
   50MOL0     H 6597   4.695   7.418   2.918  1.8113  0.3797  0.1174
   50MOL0     H 6598   4.724   7.493   2.491  0.7707 -0.4305 -0.6240
   50MOL0     H 6599   4.028   7.480   2.659  1.4935  1.5524  3.0009
   50MOL0     H 6600   3.787   7.425   2.656  1.1536  3.0155  0.2340
   51MOL0     O 6601  10.818  10.003   1.464  1.0230  0.1004 -0.4833
   51MOL0     C 6602  10.900   9.913   1.449  0.8579 -0.3926  0.3323
   51MOL0     O 6603  10.866   9.773   1.446  0.3846 -0.3804 -0.2202
   51MOL0     C 6604  10.738   9.725   1.446 -0.0742  0.3801 -0.4269
   51MOL0     C 6605  10.620   9.791   1.487 -0.9261 -0.6592  0.6145
   51MOL0     C 6606  10.496   9.732   1.490 -0.0827  0.4572 -0.5456
   51MOL0     C 6607  10.481   9.596   1.460 -0.7624 -0.0115  0.4664
   51MOL0     O 6608  10.367   9.519   1.461 -0.5455  0.0421  0.2184
   51MOL0     C 6609  10.237   9.578   1.474 -0.2327  0.1459  0.0983
   51MOL0     C 6610  10.142   9.465   1.496 -0.1959  0.1498  0.6585
   51MOL0     C 6611  10.007   9.518   1.446  0.3626 -0.7116 -0.1401
   51MOL0     C 6612   9.902   9.403   1.422 -0.1023 -0.6036 -0.0251
   51MOL0     C 6613   9.754   9.450   1.398  0.2558 -0.3783 -0.7292
   51MOL0     C 6614   9.678   9.366   1.294  0.2843  0.4677 -1.3241
   51MOL0     C 6615   9.529   9.401   1.320  0.3007  0.2744  0.4073
   51MOL0     C 6616   9.442   9.333   1.207 -0.1632  0.3597 -0.6326
   51MOL0     N 6617   9.305   9.295   1.247  0.3033 -0.1751  0.2755
   51MOL0     C 6618   9.203   9.371   1.304 -0.6316  0.8138 -0.2688
   51MOL0     C 6619   9.109   9.270   1.337 -0.4539  0.5013 -0.4641
   51MOL0     C 6620   8.982   9.288   1.409  0.5668  0.1737 -0.7663
   51MOL0     C 6621   8.866   9.225   1.317 -0.2989 -0.2831  0.9991
   51MOL0     C 6622   8.730   9.266   1.365 -0.4680 -0.8144 -0.2504
   51MOL0     C 6623   8.617   9.187   1.301 -0.5769  0.0348 -0.1810
   51MOL0     O 6624   8.497   9.234   1.354  0.2852 -0.4927 -0.0322
   51MOL0     C 6625   8.386   9.195   1.288  0.1441 -0.4549  0.2545
   51MOL0     C 6626   8.367   9.073   1.228 -0.5272  0.4692  0.1914
   51MOL0     C 6627   8.242   9.033   1.177 -0.1229 -0.0121 -0.2550
   51MOL0     C 6628   8.136   9.123   1.188  0.0112  0.3843  0.5805
   51MOL0     C 6629   8.012   9.086   1.127  0.2641 -0.1141  0.5780
   51MOL0     O 6630   7.906   9.173   1.140  0.2896  0.3867 -0.0642
   51MOL0     C 6631   7.784   9.128   1.104  0.5736 -0.0359 -0.1213
   51MOL0     C 6632   7.687   9.115   1.212  0.8922  0.6156  0.2325
   51MOL0     C 6633   7.556   9.069   1.175 -0.6960 -0.3897  0.3998
   51MOL0     C 6634   7.524   9.050   1.047  0.5853  0.3454 -0.3995
   51MOL0     O 6635   7.398   9.009   1.001 -0.1692  0.4283 -0.4886
   51MOL0     C 6636   7.294   8.983   1.091  0.5064 -0.4810 -0.7142
   51MOL0     C 6637   7.165   8.950   1.006  0.5754 -0.4282 -0.4410
   51MOL0     C 6638   7.187   8.823   0.925 -0.0474 -0.3010  0.1170
   51MOL0     C 6639   7.053   8.765   0.872 -0.0111 -0.0516  0.0660
   51MOL0     C 6640   7.079   8.637   0.784  0.2635 -0.3406  0.1078
   51MOL0     C 6641   6.948   8.562   0.756  0.4860 -0.8535 -0.0630
   51MOL0     C 6642   6.982   8.446   0.672  0.3117  1.2954  0.3986
   51MOL0     C 6643   6.866   8.360   0.622  0.3694 -0.1669 -0.4479
   51MOL0    Cl 6644   6.762   8.450   0.524  0.1886 -0.2713 -0.0032
   51MOL0     C 6645   7.610   9.081   0.940  0.7328  0.7073 -0.2086
   51MOL0     C 6646   7.742   9.116   0.973 -0.2791 -0.7822 -0.3041
   51MOL0     O 6647   8.001   8.980   1.060  0.0120  0.2366  0.3521
   51MOL0     C 6648   8.150   9.244   1.249  0.1996 -0.3384  0.3541
   51MOL0     C 6649   8.280   9.281   1.307  1.0120 -0.0851 -0.0189
   51MOL0     N 6650   9.159   9.146   1.293  0.7674 -0.1493  0.0502
   51MOL0     N 6651   9.266   9.160   1.246 -0.5892 -0.8143  1.0359
   51MOL0     C 6652  10.601   9.526   1.428  0.6985  0.7377  0.3790
   51MOL0     C 6653  10.721   9.589   1.411 -0.2900  0.1220  0.6161
   51MOL0     C 6654  11.037   9.953   1.431 -0.2433  0.2588  1.1277
   51MOL0     C 6655  11.080  10.084   1.449 -0.1815 -0.1166  0.4855
   51MOL0     C 6656  11.214  10.122   1.426 -0.4055  0.2643 -0.4913
   51MOL0     C 6657  11.310  10.027   1.402  0.3942 -0.1910  0.6817
   51MOL0     O 6658  11.439  10.071   1.400  0.2787  0.7322  0.2149
   51MOL0     C 6659  11.539   9.983   1.444  0.1785  0.2880 -0.0805
   51MOL0     C 6660  11.652  10.069   1.498 -0.0270 -0.2620 -0.2643
   51MOL0     C 6661  11.765   9.991   1.567  0.3952 -0.3123  0.4744
   51MOL0     C 6662  11.900  10.046   1.522 -0.3144  0.1257 -0.3689
   51MOL0     C 6663  11.987   9.931   1.484 -0.0617  0.6624  0.3648
   51MOL0     C 6664  12.062   9.844   1.448  0.3008  1.2598 -0.8190
   51MOL0     C 6665  11.273   9.891   1.396 -0.0506 -0.0297  1.0026
   51MOL0     C 6666  11.137   9.854   1.401 -0.2371  0.1088  0.0288
   51MOL0     H 6667  10.626   9.894   1.521 -3.3862  0.1176 -1.0330
   51MOL0     H 6668  10.407   9.784   1.522  1.4662  1.1921  2.9910
   51MOL0     H 6669  10.217   9.630   1.380  1.0822 -1.3264 -1.0326
   51MOL0     H 6670  10.235   9.656   1.551  1.1460  1.6076 -1.2710
   51MOL0     H 6671  10.131   9.437   1.601 -2.6285 -0.8264  0.2082
   51MOL0     H 6672  10.172   9.378   1.438  0.1279 -0.2094  1.3520
   51MOL0     H 6673  10.010   9.581   1.357 -2.2883 -0.4349 -0.1082
   51MOL0     H 6674   9.960   9.596   1.506  0.7024  0.5145 -1.4133
   51MOL0     H 6675   9.927   9.333   1.343  0.3065 -2.4198  1.6458
   51MOL0     H 6676   9.907   9.346   1.515  1.8705 -1.7483 -0.7908
   51MOL0     H 6677   9.749   9.554   1.365  0.1522 -0.2229 -0.2267
   51MOL0     H 6678   9.703   9.438   1.494  0.2288 -2.6466 -0.9583
   51MOL0     H 6679   9.705   9.263   1.316  2.5929  1.4692  1.0162
   51MOL0     H 6680   9.715   9.385   1.193  2.1395  1.1083 -0.5669
   51MOL0     H 6681   9.490   9.363   1.415 -1.8647  1.1641 -0.0510
   51MOL0     H 6682   9.509   9.509   1.323 -1.1980  0.0267  3.1185
   51MOL0     H 6683   9.502   9.248   1.172 -0.3271  0.3729 -0.9466
   51MOL0     H 6684   9.434   9.399   1.121 -0.8639  1.2142  0.0765
   51MOL0     H 6685   9.213   9.475   1.334  0.3634  0.6523 -0.0080
   51MOL0     H 6686   8.948   9.391   1.420 -1.7386 -0.5899 -0.0970
   51MOL0     H 6687   8.991   9.230   1.501  2.4245  0.9103 -0.4574
   51MOL0     H 6688   8.882   9.117   1.324  1.6375 -0.1595 -0.4714
   51MOL0     H 6689   8.864   9.234   1.208 -2.2719 -1.8916  0.8415
   51MOL0     H 6690   8.724   9.249   1.473 -1.3362  2.4363  0.3471
   51MOL0     H 6691   8.718   9.375   1.356 -2.0893 -0.6691  2.4003
   51MOL0     H 6692   8.627   9.079   1.317 -0.0117 -0.2820 -2.4322
   51MOL0     H 6693   8.623   9.213   1.195  1.1446 -0.0633 -0.1361
   51MOL0     H 6694   8.455   9.012   1.210  1.3744  3.1990 -0.3985
   51MOL0     H 6695   8.213   8.941   1.127 -1.1626  0.4778 -0.5680
   51MOL0     H 6696   7.712   9.135   1.316  1.1684  1.6222 -0.0089
   51MOL0     H 6697   7.483   9.051   1.253 -1.6695  0.6268 -0.2546
   51MOL0     H 6698   7.272   9.067   1.158  0.3722 -1.4792  0.5519
   51MOL0     H 6699   7.316   8.897   1.155  1.9124  1.2306  1.2670
   51MOL0     H 6700   7.133   9.027   0.935  0.7718 -0.3883 -0.4872
   51MOL0     H 6701   7.081   8.940   1.075  0.2862  1.3550 -0.4826
   51MOL0     H 6702   7.235   8.751   0.992 -2.1166 -0.0342  2.0247
   51MOL0     H 6703   7.242   8.855   0.836 -0.8229 -0.4081 -0.4105
   51MOL0     H 6704   6.986   8.751   0.957  1.8119 -1.9095  1.2740
   51MOL0     H 6705   7.017   8.844   0.805  0.3083 -2.1235 -2.7687
   51MOL0     H 6706   7.156   8.575   0.830 -0.9690 -1.9671  0.0931
   51MOL0     H 6707   7.114   8.671   0.686 -3.0650  2.2336 -0.3593
   51MOL0     H 6708   6.877   8.624   0.701 -0.0467 -1.3208  0.0985
   51MOL0     H 6709   6.908   8.539   0.855  0.1685  1.1932  0.3338
   51MOL0     H 6710   7.030   8.473   0.577  3.2007 -1.5002  0.8923
   51MOL0     H 6711   7.054   8.391   0.733  1.3074  0.5693 -1.3504
   51MOL0     H 6712   6.799   8.318   0.697  1.2004  1.2652  1.1710
   51MOL0     H 6713   6.902   8.270   0.571 -0.9562 -0.7385 -0.3998
   51MOL0     H 6714   7.588   9.077   0.834  1.8039 -0.9781 -0.4095
   51MOL0     H 6715   7.815   9.137   0.896 -0.8616 -1.4857 -1.0679
   51MOL0     H 6716   8.077   9.323   1.234  2.0399  0.9162 -3.2457
   51MOL0     H 6717   8.294   9.385   1.332  3.7949 -0.6186  0.9361
   51MOL0     H 6718  10.602   9.422   1.399  2.1345  0.9965 -0.5391
   51MOL0     H 6719  10.804   9.532   1.372 -1.2772 -1.3137  0.5504
   51MOL0     H 6720  11.011  10.166   1.467 -2.3818 -1.4560 -1.2996
   51MOL0     H 6721  11.238  10.228   1.433  0.3115  0.1517 -1.1438
   51MOL0     H 6722  11.573   9.905   1.375 -2.0496 -0.0545 -0.8742
   51MOL0     H 6723  11.501   9.931   1.532  1.2075 -2.0686 -0.9352
   51MOL0     H 6724  11.698  10.128   1.418  3.0504 -1.9103  0.0949
   51MOL0     H 6725  11.605  10.141   1.564 -1.4043 -2.6060  1.4605
   51MOL0     H 6726  11.756   9.887   1.535 -1.8516 -0.5530  1.6576
   51MOL0     H 6727  11.751   9.984   1.675 -1.6485  0.2662  0.2840
   51MOL0     H 6728  11.895  10.113   1.437  3.0486 -0.8005 -1.4669
   51MOL0     H 6729  11.939  10.095   1.612 -3.3534  0.1458  1.0751
   51MOL0     H 6730  12.120   9.762   1.410 -1.9301 -0.5619 -0.5761
   51MOL0     H 6731  11.348   9.814   1.381 -0.7045 -0.6372  0.7689
   51MOL0     H 6732  11.110   9.751   1.379 -3.7113  1.1051 -1.0485
   52MOL0     O 6733   5.393   5.230  10.987  0.7432  0.1056  0.6821
   52MOL0     C 6734   5.444   5.170  10.890 -0.6148  0.5355 -0.0335
   52MOL0     O 6735   5.377   5.106  10.793  0.2800  0.5504  0.7356
   52MOL0     C 6736   5.240   5.111  10.782  0.6597  0.9276 -0.2299
   52MOL0     C 6737   5.183   5.112  10.653 -1.2044  0.2373  0.4024
   52MOL0     C 6738   5.047   5.120  10.634  0.2741  0.4705  0.1330
   52MOL0     C 6739   4.960   5.116  10.739  0.1993  0.2844  0.1837
   52MOL0     O 6740   4.829   5.121  10.695  0.3779  0.0189  0.3023
   52MOL0     C 6741   4.741   5.013  10.743 -0.0953  0.0224  0.0412
   52MOL0     C 6742   4.614   4.996  10.661  0.5216  1.0765  0.4144
   52MOL0     C 6743   4.499   4.936  10.748  0.6265  0.3450 -0.2672
   52MOL0     C 6744   4.390   4.895  10.645 -0.6858 -0.0035  0.1659
   52MOL0     C 6745   4.266   4.869  10.723 -0.0861  0.4539 -0.5136
   52MOL0     C 6746   4.152   4.834  10.618 -0.6512 -0.5845  0.1388
   52MOL0     C 6747   4.014   4.841  10.685 -0.6253 -0.1553  0.2523
   52MOL0     C 6748   3.945   4.982  10.676 -0.6615  0.2532  0.1696
   52MOL0     N 6749   3.797   4.959  10.664 -0.4959 -0.5979 -0.6659
   52MOL0     C 6750   3.716   4.974  10.769 -0.0150 -0.2547 -0.9812
   52MOL0     C 6751   3.595   4.941  10.715 -0.0649  0.2214  0.3244
   52MOL0     C 6752   3.454   4.942  10.779 -0.1698 -0.6953  0.3013
   52MOL0     C 6753   3.405   5.085  10.787 -0.7039  0.4356 -0.4801
   52MOL0     C 6754   3.293   5.103  10.891 -0.2486 -0.1377 -0.8957
   52MOL0     C 6755   3.172   5.002  10.873  0.8587  0.4888  0.0626
   52MOL0     O 6756   3.070   5.083  10.938 -0.2959 -0.3494 -0.4595
   52MOL0     C 6757   2.939   5.048  10.924  0.6085  0.1417  1.0073
   52MOL0     C 6758   2.903   4.909  10.932 -0.2271 -0.2632  0.2891
   52MOL0     C 6759   2.765   4.878  10.926 -0.0627 -0.0372  0.0380
   52MOL0     C 6760   2.667   4.982  10.912 -0.0518  0.0974  0.9071
   52MOL0     C 6761   2.524   4.954  10.920 -0.2453 -0.7124 -0.4883
   52MOL0     O 6762   2.485   4.822  10.939  0.3202 -0.7118  0.8270
   52MOL0     C 6763   2.350   4.785  10.946  0.0950 -0.6201 -0.6785
   52MOL0     C 6764   2.264   4.795  10.833 -1.0792 -0.6398  0.1193
   52MOL0     C 6765   2.134   4.750  10.837  0.3266 -0.1354  0.1487
   52MOL0     C 6766   2.083   4.683  10.951  0.0091 -0.0082  0.3055
   52MOL0     O 6767   1.956   4.640  10.929  0.9021  0.3727 -0.0732
   52MOL0     C 6768   1.908   4.520  10.993 -0.3816  0.4289  1.0734
   52MOL0     C 6769   1.755   4.533  10.972  0.1881  0.7529 -0.4303
   52MOL0     C 6770   1.709   4.494  10.833 -0.5382  0.0592 -0.0904
   52MOL0     C 6771   1.554   4.503  10.827  0.0845 -0.0472 -0.2971
   52MOL0     C 6772   1.496   4.477  10.686  0.3332  0.8670 -0.5646
   52MOL0     C 6773   1.342   4.468  10.707 -0.0680  0.1210 -0.5029
   52MOL0     C 6774   1.288   4.498  10.574  0.4327 -0.1710  0.6508
   52MOL0     C 6775   1.137   4.491  10.574  1.0757  0.0179  0.8713
   52MOL0    Cl 6776   1.101   4.504  10.397  0.2425  0.0263 -0.2804
   52MOL0     C 6777   2.162   4.678  11.068  0.5745 -0.5140  0.0600
   52MOL0     C 6778   2.291   4.728  11.062 -0.0319  0.4473 -0.3088
   52MOL0     O 6779   2.453   5.056  10.912  0.2457 -0.0781 -0.1733
   52MOL0     C 6780   2.714   5.118  10.892 -0.5732  0.0189 -0.2140
   52MOL0     C 6781   2.855   5.150  10.900  0.8201 -0.4024  0.3884
   52MOL0     N 6782   3.603   4.934  10.581  0.2443  0.8248  0.2597
   52MOL0     N 6783   3.731   4.929  10.549 -0.9314 -1.2596  0.6347
   52MOL0     C 6784   5.016   5.106  10.874  0.3499  0.0907  1.1328
   52MOL0     C 6785   5.154   5.107  10.894 -0.0129  0.3945  0.4788
   52MOL0     C 6786   5.597   5.180  10.887  0.4734 -0.0101 -0.6114
   52MOL0     C 6787   5.670   5.134  10.779  0.5780 -0.0419  0.6668
   52MOL0     C 6788   5.806   5.159  10.770  0.0450 -0.3031  0.9881
   52MOL0     C 6789   5.870   5.224  10.876 -0.4741  0.3008  0.6346
   52MOL0     O 6790   6.006   5.255  10.875  0.2129  0.3224  0.5566
   52MOL0     C 6791   6.081   5.194  10.771 -0.0492  0.1825 -0.4772
   52MOL0     C 6792   6.228   5.212  10.791  0.3124 -0.0813  0.5970
   52MOL0     C 6793   6.299   5.088  10.839 -0.3768  0.5814 -0.8749
   52MOL0     C 6794   6.279   5.077  10.993 -1.0683 -0.2043  0.0823
   52MOL0     C 6795   6.381   4.992  11.046  0.7824 -0.2803  0.6989
   52MOL0     C 6796   6.462   4.915  11.095  0.0815 -1.4679 -0.0881
   52MOL0     C 6797   5.804   5.262  10.990 -0.1764 -0.0701  0.1044
   52MOL0     C 6798   5.671   5.248  10.993  0.8651  0.1698 -0.0714
   52MOL0     H 6799   5.254   5.115  10.571 -1.4184 -1.5101  0.1033
   52MOL0     H 6800   5.004   5.122  10.534  0.7803 -1.4001 -0.1744
   52MOL0     H 6801   4.723   5.036  10.848  2.3760  0.8390  0.3485
   52MOL0     H 6802   4.805   4.925  10.745 -0.1696 -0.0229  0.5337
   52MOL0     H 6803   4.649   4.940  10.575  0.6525 -0.4596  1.4321
   52MOL0     H 6804   4.578   5.095  10.630 -1.6794  0.4249  0.6941
   52MOL0     H 6805   4.469   5.014  10.819  1.1602  1.2139 -0.9779
   52MOL0     H 6806   4.530   4.854  10.814 -0.1791 -0.3918 -0.7716
   52MOL0     H 6807   4.368   4.970  10.568 -1.2094  0.5512  0.8482
   52MOL0     H 6808   4.430   4.806  10.595 -0.6195  0.0429  0.1355
   52MOL0     H 6809   4.224   4.962  10.762 -2.4290 -0.6495 -0.2075
   52MOL0     H 6810   4.275   4.794  10.802  1.8152 -1.0820 -2.0917
   52MOL0     H 6811   4.165   4.728  10.594 -2.9093 -0.9753  0.4289
   52MOL0     H 6812   4.169   4.898  10.531  0.5427  0.1469  0.8820
   52MOL0     H 6813   3.952   4.773  10.626  1.1236 -0.2819 -1.5438
   52MOL0     H 6814   4.009   4.803  10.788  0.4641  1.5365  0.9518
   52MOL0     H 6815   3.987   5.035  10.589 -0.0711  0.3200  0.4868
   52MOL0     H 6816   3.966   5.041  10.766 -1.1536 -0.1829  0.5719
   52MOL0     H 6817   3.733   4.999  10.873 -0.4880  1.3448 -1.2639
   52MOL0     H 6818   3.454   4.900  10.880 -1.8228  2.2107  1.6270
   52MOL0     H 6819   3.391   4.878  10.718  1.2007 -1.3179 -0.5128
   52MOL0     H 6820   3.365   5.122  10.692 -2.6984  1.5103  0.6934
   52MOL0     H 6821   3.483   5.156  10.815 -0.4347 -0.6339  1.6248
   52MOL0     H 6822   3.340   5.115  10.989  1.5717  2.0083 -1.9486
   52MOL0     H 6823   3.252   5.203  10.874 -0.4182  0.0631  0.5923
   52MOL0     H 6824   3.189   4.910  10.929  3.3250  1.9835  1.9868
   52MOL0     H 6825   3.149   4.979  10.768 -3.2585 -0.8402  1.0661
   52MOL0     H 6826   2.971   4.829  10.959 -1.9878 -2.9392 -2.4743
   52MOL0     H 6827   2.723   4.778  10.940  0.8104 -0.7019 -1.7227
   52MOL0     H 6828   2.302   4.848  10.746  2.9917 -1.9034  0.9232
   52MOL0     H 6829   2.075   4.749  10.745  0.6520 -3.2426 -0.1388
   52MOL0     H 6830   1.938   4.510  11.098 -2.0146  2.5771  1.8307
   52MOL0     H 6831   1.945   4.433  10.938  1.9861  0.6431  2.2144
   52MOL0     H 6832   1.727   4.638  10.986 -1.7420  0.2140  0.0547
   52MOL0     H 6833   1.701   4.472  11.045 -0.0716  2.6876  1.0901
   52MOL0     H 6834   1.739   4.393  10.804 -3.2956 -0.3199 -2.0151
   52MOL0     H 6835   1.760   4.563  10.765 -3.4903  3.4176  0.7711
   52MOL0     H 6836   1.508   4.434  10.899 -0.8759  0.5314 -0.3436
   52MOL0     H 6837   1.527   4.604  10.857 -0.8857 -0.1912 -0.6317
   52MOL0     H 6838   1.540   4.391  10.635 -0.4522 -0.8360  1.5092
   52MOL0     H 6839   1.530   4.568  10.634  0.3149  1.5342  0.5576
   52MOL0     H 6840   1.306   4.536  10.785  2.1887  1.4527 -0.5505
   52MOL0     H 6841   1.322   4.366  10.741 -0.4899  1.4068  3.6659
   52MOL0     H 6842   1.321   4.598  10.546  0.1980 -0.6960 -1.7317
   52MOL0     H 6843   1.316   4.425  10.497 -2.7487  0.4080 -1.2099
   52MOL0     H 6844   1.099   4.574  10.634  1.3466 -0.7931  2.2121
   52MOL0     H 6845   1.098   4.401  10.625  1.3896 -1.2762 -1.0660
   52MOL0     H 6846   2.116   4.650  11.162 -3.4367 -1.7835 -2.0207
   52MOL0     H 6847   2.343   4.714  11.156 -1.5169 -2.4235  0.1988
   52MOL0     H 6848   2.638   5.194  10.874 -0.3433  0.2514 -0.2088
   52MOL0     H 6849   2.890   5.253  10.896  0.4602 -0.1323  2.7889
   52MOL0     H 6850   4.949   5.080  10.956 -2.4445  1.9577 -0.3888
   52MOL0     H 6851   5.196   5.092  10.993  1.6572 -1.1176 -0.3897
   52MOL0     H 6852   5.627   5.071  10.702  1.0484  3.7280 -3.0436
   52MOL0     H 6853   5.852   5.114  10.682  0.5018 -3.8506  2.8636
   52MOL0     H 6854   6.066   5.245  10.676  0.0818 -0.2126 -0.7131
   52MOL0     H 6855   6.056   5.089  10.755 -1.7172  0.8806 -3.1220
   52MOL0     H 6856   6.272   5.240  10.694 -0.9806  0.2666  0.0870
   52MOL0     H 6857   6.261   5.299  10.849  3.3877 -0.8133  0.1400
   52MOL0     H 6858   6.404   5.092  10.809  0.7466 -1.8229  2.1868
   52MOL0     H 6859   6.253   5.002  10.791  2.0267 -1.3193  0.0379
   52MOL0     H 6860   6.274   5.178  11.035  2.0009 -0.3239  0.9224
   52MOL0     H 6861   6.178   5.037  11.000 -0.7426 -0.8204  1.3501
   52MOL0     H 6862   6.525   4.835  11.129  0.2733 -1.7802 -1.1244
   52MOL0     H 6863   5.846   5.310  11.078  1.8743 -0.4366 -0.6033
   52MOL0     H 6864   5.619   5.287  11.080 -1.4747  2.9087 -2.4976
   53MOL0     O 6865   8.130   8.249   5.712  0.1512 -0.8348 -0.3001
   53MOL0     C 6866   8.067   8.255   5.608 -0.6374  0.6200  0.6355
   53MOL0     O 6867   7.945   8.319   5.586 -0.0347 -0.6745  0.3430
   53MOL0     C 6868   7.866   8.377   5.684  0.5649  0.6160  0.3659
   53MOL0     C 6869   7.764   8.456   5.635 -0.1329 -0.4871 -0.8223
   53MOL0     C 6870   7.665   8.504   5.726  1.0270  0.1032 -0.3349
   53MOL0     C 6871   7.671   8.480   5.862  0.1530  0.5089 -0.2364
   53MOL0     O 6872   7.580   8.532   5.952 -0.4333 -0.3611 -0.1384
   53MOL0     C 6873   7.511   8.450   6.049  0.5053  0.5275 -0.3270
   53MOL0     C 6874   7.373   8.497   6.093 -0.3522  0.3301 -0.6421
   53MOL0     C 6875   7.319   8.403   6.206 -0.4385  0.0097 -0.3172
   53MOL0     C 6876   7.188   8.462   6.261 -1.0134 -0.2463 -0.1759
   53MOL0     C 6877   7.150   8.402   6.391  0.3307 -0.2992 -0.2061
   53MOL0     C 6878   7.016   8.450   6.445 -0.2936 -0.3623 -0.2272
   53MOL0     C 6879   6.952   8.342   6.537  0.2786 -0.7596 -0.4304
   53MOL0     C 6880   6.797   8.374   6.548  0.2530  0.4597 -0.2769
   53MOL0     N 6881   6.729   8.274   6.637 -0.5360 -0.5451 -0.8587
   53MOL0     C 6882   6.636   8.300   6.736 -0.1768  0.4081  0.1770
   53MOL0     C 6883   6.561   8.183   6.756 -0.0701 -0.4176  0.6542
   53MOL0     C 6884   6.472   8.147   6.864  0.9097 -0.0555 -0.1570
   53MOL0     C 6885   6.367   8.048   6.822  0.4859  0.1195  0.1912
   53MOL0     C 6886   6.283   8.007   6.946 -0.3330 -0.1727 -0.5606
   53MOL0     C 6887   6.192   7.885   6.933 -0.0296  0.2781 -0.1283
   53MOL0     O 6888   6.132   7.826   7.045 -0.3491 -0.1293  0.1450
   53MOL0     C 6889   5.997   7.820   7.058 -0.3196 -0.5919 -0.3699
   53MOL0     C 6890   5.905   7.920   7.014 -0.8089  0.5883  0.2826
   53MOL0     C 6891   5.774   7.917   7.057 -0.1390 -0.3670  0.1892
   53MOL0     C 6892   5.729   7.807   7.130  0.2806 -0.5728  0.3867
   53MOL0     C 6893   5.584   7.806   7.153  1.4442 -0.2366  0.1632
   53MOL0     O 6894   5.503   7.884   7.076 -0.4285  0.2995  0.6869
   53MOL0     C 6895   5.369   7.870   7.071  1.2143 -0.0429 -0.1025
   53MOL0     C 6896   5.283   7.925   7.165 -0.6127 -0.2242  0.2771
   53MOL0     C 6897   5.145   7.924   7.137 -0.3019 -0.3121  0.3386
   53MOL0     C 6898   5.093   7.846   7.029  0.1654 -0.0123  0.1813
   53MOL0     O 6899   4.966   7.818   7.000 -0.0596  0.0772  0.6484
   53MOL0     C 6900   4.855   7.872   7.087 -0.0327 -0.2886  0.0904
   53MOL0     C 6901   4.709   7.859   7.031 -0.4626 -0.6038 -0.8781
   53MOL0     C 6902   4.615   7.815   7.144  0.4966  0.8135 -0.7429
   53MOL0     C 6903   4.465   7.840   7.111  0.5255  0.0680  0.2865
   53MOL0     C 6904   4.371   7.837   7.225 -0.0367 -0.3203 -0.5099
   53MOL0     C 6905   4.222   7.831   7.192  0.0472  0.1275 -0.0679
   53MOL0     C 6906   4.173   7.699   7.120  0.0191 -0.4263 -0.9436
   53MOL0     C 6907   4.057   7.732   7.031  0.7369  0.0810 -0.3387
   53MOL0    Cl 6908   3.907   7.806   7.097 -0.0257 -0.0158  0.1033
   53MOL0     C 6909   5.185   7.782   6.943  0.8370 -0.3755 -0.2009
   53MOL0     C 6910   5.318   7.796   6.971 -0.0420 -0.1625  0.6783
   53MOL0     O 6911   5.547   7.732   7.244  1.0881 -0.1074 -0.1895
   53MOL0     C 6912   5.814   7.707   7.175 -0.2885 -0.1789  1.0881
   53MOL0     C 6913   5.950   7.711   7.135 -0.1368 -1.1024  0.5238
   53MOL0     N 6914   6.604   8.101   6.655 -0.0094  0.6755 -0.9607
   53MOL0     N 6915   6.703   8.153   6.585  0.0071  0.1221  0.0906
   53MOL0     C 6916   7.782   8.411   5.910 -1.6210  0.1824 -0.2776
   53MOL0     C 6917   7.879   8.358   5.821 -0.3493 -0.7557 -0.3276
   53MOL0     C 6918   8.140   8.199   5.489 -0.0029 -0.2570 -0.1634
   53MOL0     C 6919   8.279   8.170   5.491  0.6744 -0.1508  0.1784
   53MOL0     C 6920   8.343   8.112   5.383 -0.8658  0.0888  0.0995
   53MOL0     C 6921   8.272   8.067   5.272  1.5303  0.0029 -0.8400
   53MOL0     O 6922   8.314   8.007   5.163 -0.0657 -0.5558 -0.0910
   53MOL0     C 6923   8.442   7.951   5.164  0.4830 -0.5651 -0.4368
   53MOL0     C 6924   8.484   7.920   5.023  0.5025  0.3919  0.3711
   53MOL0     C 6925   8.468   8.039   4.925 -0.2976  0.4899 -0.8981
   53MOL0     C 6926   8.511   8.002   4.785  1.1711 -0.0789  0.1821
   53MOL0     C 6927   8.457   8.093   4.683  0.7161 -0.5612  0.1368
   53MOL0     C 6928   8.406   8.147   4.584  0.5364 -0.2030  0.1170
   53MOL0     C 6929   8.134   8.096   5.267 -0.3005 -0.2491 -0.3183
   53MOL0     C 6930   8.064   8.163   5.371 -0.0577  0.4550  0.3553
   53MOL0     H 6931   7.754   8.470   5.528 -0.3296 -1.5398 -0.9472
   53MOL0     H 6932   7.586   8.571   5.692  1.1948 -1.3855 -4.1727
   53MOL0     H 6933   7.569   8.448   6.142  1.1960 -1.6684 -0.7283
   53MOL0     H 6934   7.494   8.351   6.005 -1.8517  0.9155 -0.4161
   53MOL0     H 6935   7.312   8.506   6.003 -1.3248  0.3382  0.0007
   53MOL0     H 6936   7.389   8.600   6.128  0.1411  0.6463 -1.7571
   53MOL0     H 6937   7.399   8.392   6.280  1.4473 -1.4595 -2.3906
   53MOL0     H 6938   7.299   8.304   6.163 -3.2912  0.9827 -1.4418
   53MOL0     H 6939   7.192   8.570   6.277  0.4759  0.0731 -2.2955
   53MOL0     H 6940   7.106   8.437   6.193 -1.5746  0.2985  0.2913
   53MOL0     H 6941   7.226   8.427   6.465 -1.5175  1.3113  1.2799
   53MOL0     H 6942   7.145   8.294   6.377 -0.1069 -0.1266 -1.6260
   53MOL0     H 6943   6.949   8.466   6.360 -1.2267  1.1464  0.7583
   53MOL0     H 6944   7.024   8.544   6.500 -0.7378 -0.9345  0.8484
   53MOL0     H 6945   6.961   8.245   6.486 -0.3855 -1.5395  0.8907
   53MOL0     H 6946   6.991   8.326   6.638 -0.0124 -1.5439 -0.4358
   53MOL0     H 6947   6.747   8.378   6.451  1.6878  2.8620 -1.0078
   53MOL0     H 6948   6.784   8.468   6.602 -0.9573  1.9155 -2.8943
   53MOL0     H 6949   6.639   8.394   6.791 -0.4098 -0.3638  1.5762
   53MOL0     H 6950   6.427   8.234   6.912  1.2021  0.7479 -1.2776
   53MOL0     H 6951   6.534   8.108   6.945 -1.7431 -0.3547  1.8502
   53MOL0     H 6952   6.417   7.958   6.787 -0.3075 -0.3185  0.1626
   53MOL0     H 6953   6.306   8.087   6.740  0.6901  0.1110  0.0347
   53MOL0     H 6954   6.348   7.988   7.032 -3.0462  1.1828  1.9808
   53MOL0     H 6955   6.216   8.087   6.978  2.2010  0.7134  3.3221
   53MOL0     H 6956   6.257   7.805   6.897  1.2979  2.1479 -2.2087
   53MOL0     H 6957   6.114   7.903   6.858 -1.1268  0.0469  0.9176
   53MOL0     H 6958   5.944   7.993   6.944 -1.0028  1.3602  0.9675
   53MOL0     H 6959   5.706   7.988   7.011 -1.8902 -0.9875  1.6989
   53MOL0     H 6960   5.319   7.995   7.241 -1.3701  1.5622 -0.9375
   53MOL0     H 6961   5.077   7.977   7.204  1.4881  1.6930  0.6539
   53MOL0     H 6962   4.869   7.980   7.098 -0.2391 -0.3977  1.6388
   53MOL0     H 6963   4.865   7.823   7.184  0.6743  1.2424  0.8273
   53MOL0     H 6964   4.708   7.788   6.948  0.8949 -0.9850 -0.5927
   53MOL0     H 6965   4.674   7.954   6.989  1.4555 -0.6554 -2.7494
   53MOL0     H 6966   4.637   7.870   7.236  2.8132 -4.6399  2.4019
   53MOL0     H 6967   4.638   7.709   7.158 -1.7673  0.4592  0.7641
   53MOL0     H 6968   4.454   7.940   7.067 -2.7167  0.2746  1.2740
   53MOL0     H 6969   4.432   7.778   7.027  0.2833  1.6136 -0.7967
   53MOL0     H 6970   4.393   7.921   7.293  0.4921  1.0197 -2.2488
   53MOL0     H 6971   4.403   7.760   7.296  1.7821  1.8890  1.2583
   53MOL0     H 6972   4.184   7.917   7.136 -2.4610 -0.3000  0.8686
   53MOL0     H 6973   4.177   7.833   7.291  0.1784  2.3205 -0.0056
   53MOL0     H 6974   4.260   7.660   7.066  1.0856 -0.1139  0.4893
   53MOL0     H 6975   4.138   7.633   7.200 -4.5552  1.2275 -1.2522
   53MOL0     H 6976   4.024   7.643   6.976 -0.9864  0.6843 -0.3418
   53MOL0     H 6977   4.085   7.804   6.954  0.9939  0.0295 -0.2950
   53MOL0     H 6978   5.142   7.718   6.866 -0.3482 -1.6567  1.4596
   53MOL0     H 6979   5.397   7.754   6.909  0.5496 -1.1369  2.0679
   53MOL0     H 6980   5.782   7.620   7.232 -0.7512  0.3250  1.6139
   53MOL0     H 6981   6.012   7.625   7.159 -0.6638 -1.7222 -0.2651
   53MOL0     H 6982   7.816   8.402   6.012 -0.5015 -3.0994 -0.8119
   53MOL0     H 6983   7.962   8.301   5.861 -1.8453 -3.1564 -0.4455
   53MOL0     H 6984   8.341   8.190   5.578  2.3887 -0.4320 -0.9322
   53MOL0     H 6985   8.445   8.076   5.389 -1.1790 -0.7127  0.7545
   53MOL0     H 6986   8.443   7.858   5.222  1.0729 -1.2234 -1.4591
   53MOL0     H 6987   8.510   8.019   5.217 -0.1104 -2.0980  2.4833
   53MOL0     H 6988   8.584   7.876   5.024 -0.4827 -2.1466 -1.6587
   53MOL0     H 6989   8.417   7.842   4.984  2.0404 -2.0767  2.3490
   53MOL0     H 6990   8.525   8.127   4.958 -0.9104  0.8027 -0.6406
   53MOL0     H 6991   8.362   8.065   4.923 -0.5076 -0.2709 -0.0528
   53MOL0     H 6992   8.619   8.002   4.771  1.3537 -2.5568  1.0891
   53MOL0     H 6993   8.465   7.905   4.766  0.2051  0.1330  1.3323
   53MOL0     H 6994   8.352   8.193   4.504 -1.1112 -0.1228  1.2343
   53MOL0     H 6995   8.067   8.081   5.183 -0.5093 -1.1903  0.0071
   53MOL0     H 6996   7.958   8.183   5.360 -0.4715 -2.0200 -0.7862
   54MOL0     O 6997   0.240   7.740   6.076  0.1414 -0.0952  0.2707
   54MOL0     C 6998   0.268   7.777   5.962  0.1405 -0.2484  0.0503
   54MOL0     O 6999   0.386   7.833   5.930  0.5169  1.2244 -0.5175
   54MOL0     C 7000   0.502   7.810   6.002  0.2824  0.4187  0.1117
   54MOL0     C 7001   0.534   7.692   6.066  0.2583  0.4522  0.0685
   54MOL0     C 7002   0.665   7.685   6.126 -0.2824  0.3387 -0.0206
   54MOL0     C 7003   0.750   7.795   6.126 -0.8695  1.0782 -0.9351
   54MOL0     O 7004   0.874   7.771   6.186  0.2896 -0.3045 -0.0248
   54MOL0     C 7005   0.951   7.872   6.254 -0.4258  0.5916  0.8453
   54MOL0     C 7006   0.938   7.855   6.400  0.3342 -0.1393 -0.0656
   54MOL0     C 7007   1.011   7.727   6.436 -0.4713 -0.0921 -0.4854
   54MOL0     C 7008   1.017   7.700   6.588 -0.1520 -0.4016  0.1305
   54MOL0     C 7009   1.159   7.743   6.638  0.2005  0.1497 -0.5740
   54MOL0     C 7010   1.188   7.718   6.789 -0.0009  0.3113 -0.1889
   54MOL0     C 7011   1.323   7.780   6.825  0.9818  0.3371  0.0189
   54MOL0     C 7012   1.320   7.839   6.961 -0.8927 -0.2988 -0.5951
   54MOL0     N 7013   1.457   7.882   7.003  0.7818 -0.1267 -0.5299
   54MOL0     C 7014   1.534   7.969   6.931  0.2508 -0.4776  0.6074
   54MOL0     C 7015   1.666   7.941   6.969 -0.0703  0.5896  0.5732
   54MOL0     C 7016   1.794   7.997   6.918 -0.8850 -0.2703  0.1513
   54MOL0     C 7017   1.783   8.124   6.836 -1.1783  0.0213 -0.2372
   54MOL0     C 7018   1.756   8.104   6.683  0.7042 -0.4244  0.0179
   54MOL0     C 7019   1.719   8.234   6.608  0.0800 -0.2423 -0.2907
   54MOL0     O 7020   1.691   8.222   6.462  0.4199 -0.5565  0.0536
   54MOL0     C 7021   1.564   8.213   6.411  0.5462  0.1900 -0.6358
   54MOL0     C 7022   1.445   8.188   6.479  0.3931 -0.3225  0.8519
   54MOL0     C 7023   1.318   8.186   6.412 -0.6163  0.0874 -0.5096
   54MOL0     C 7024   1.309   8.210   6.277 -1.0005  0.0424  0.1425
   54MOL0     C 7025   1.184   8.207   6.209  0.0712 -0.1762 -0.0484
   54MOL0     O 7026   1.178   8.266   6.080  0.7182 -0.7364  0.4516
   54MOL0     C 7027   1.053   8.280   6.007  0.5681  0.3868  0.5701
   54MOL0     C 7028   1.067   8.300   5.865 -0.6478  0.9433  0.5780
   54MOL0     C 7029   0.948   8.286   5.789 -0.0224 -0.0177 -0.8606
   54MOL0     C 7030   0.819   8.286   5.850 -0.6524 -0.3415  0.4968
   54MOL0     O 7031   0.703   8.300   5.779 -0.0270  0.7157  0.0665
   54MOL0     C 7032   0.682   8.203   5.676 -0.4364  0.1346  0.0070
   54MOL0     C 7033   0.541   8.224   5.621 -0.4812  0.5084 -0.3446
   54MOL0     C 7034   0.437   8.163   5.719 -0.4876 -0.3704  0.3341
   54MOL0     C 7035   0.311   8.240   5.719  0.7442 -0.1380 -0.3213
   54MOL0     C 7036   0.234   8.229   5.598  0.9098  0.5174  0.3444
   54MOL0     C 7037   0.093   8.290   5.600 -0.0703 -0.3940 -0.6322
   54MOL0     C 7038   0.031   8.249   5.467  0.3146  0.4465 -0.6183
   54MOL0     C 7039  -0.123   8.265   5.481 -0.8119  0.2849  0.1017
   54MOL0    Cl 7040  -0.208   8.194   5.338 -0.1613 -0.1154  0.0319
   54MOL0     C 7041   0.810   8.273   5.982 -0.6391 -1.2796 -0.6890
   54MOL0     C 7042   0.921   8.273   6.060  0.1580  0.3575  0.3768
   54MOL0     O 7043   1.089   8.164   6.275  0.1670 -0.0195 -0.1484
   54MOL0     C 7044   1.429   8.218   6.200 -0.7154  0.0990  0.2618
   54MOL0     C 7045   1.549   8.222   6.272 -0.1074  0.1039 -0.1544
   54MOL0     N 7046   1.670   7.842   7.065  0.7205  0.2399 -0.7380
   54MOL0     N 7047   1.543   7.801   7.084 -0.3764 -0.7926 -0.1190
   54MOL0     C 7048   0.715   7.910   6.063 -0.1281 -0.6467  0.2301
   54MOL0     C 7049   0.595   7.913   5.994  0.0439  0.0331 -0.7329
   54MOL0     C 7050   0.162   7.781   5.861  0.2227  0.7830  0.2456
   54MOL0     C 7051   0.049   7.707   5.866  0.2249  0.3592 -0.5963
   54MOL0     C 7052  -0.055   7.709   5.777  0.1948  0.4087 -0.0663
   54MOL0     C 7053  -0.056   7.807   5.672 -0.7141  0.5417 -0.2299
   54MOL0     O 7054  -0.164   7.830   5.592 -0.2153  0.9428  0.9315
   54MOL0     C 7055  -0.278   7.739   5.592 -0.7214 -0.6536  0.5228
   54MOL0     C 7056  -0.379   7.773   5.711 -0.6268 -0.1205  0.4833
   54MOL0     C 7057  -0.448   7.907   5.678  1.4535 -0.5093 -0.2032
   54MOL0     C 7058  -0.565   7.890   5.571 -0.2631 -0.0678  0.2367
   54MOL0     C 7059  -0.532   7.941   5.437  0.2664  0.5982  0.4683
   54MOL0     C 7060  -0.495   7.982   5.327 -0.1678 -0.2469 -0.0972
   54MOL0     C 7061   0.062   7.881   5.660  0.2307 -0.3640 -1.6804
   54MOL0     C 7062   0.161   7.877   5.762 -0.0275 -0.3933  0.3696
   54MOL0     H 7063   0.459   7.614   6.075 -1.4963  2.1521  1.0748
   54MOL0     H 7064   0.700   7.601   6.184  2.7009  0.4215 -1.4913
   54MOL0     H 7065   0.926   7.970   6.213  0.1847 -0.3375 -1.9751
   54MOL0     H 7066   1.056   7.866   6.224 -0.3318  1.2294  1.0322
   54MOL0     H 7067   0.832   7.844   6.427 -0.1716 -3.6767 -2.7756
   54MOL0     H 7068   0.995   7.931   6.454  2.5352 -0.7308 -1.4453
   54MOL0     H 7069   1.105   7.710   6.384 -2.1347 -1.8287 -3.1648
   54MOL0     H 7070   0.943   7.653   6.391 -0.9269  1.5074 -2.5369
   54MOL0     H 7071   0.936   7.753   6.639 -0.4931  1.4513 -2.1564
   54MOL0     H 7072   1.011   7.595   6.620 -0.6342 -0.5573 -0.4595
   54MOL0     H 7073   1.175   7.848   6.614 -2.5631  0.9437  0.7011
   54MOL0     H 7074   1.224   7.672   6.586  1.7859  2.5435 -2.0696
   54MOL0     H 7075   1.164   7.613   6.807  1.5662 -0.2317 -0.9991
   54MOL0     H 7076   1.112   7.771   6.846  0.0095 -0.3560  0.4541
   54MOL0     H 7077   1.397   7.700   6.812 -2.3060 -3.4409  2.1317
   54MOL0     H 7078   1.342   7.861   6.754 -4.7634 -0.2899 -2.7391
   54MOL0     H 7079   1.285   7.769   7.038  1.3945 -0.3220  0.4878
   54MOL0     H 7080   1.248   7.922   6.971 -0.9820 -0.3461 -0.8428
   54MOL0     H 7081   1.500   8.029   6.847 -1.1279 -0.2510  1.2914
   54MOL0     H 7082   1.860   7.932   6.860  1.7984  3.2351 -1.0958
   54MOL0     H 7083   1.849   8.028   7.007  0.6823  1.7497 -1.4283
   54MOL0     H 7084   1.879   8.173   6.853 -1.5554  0.6555  0.1036
   54MOL0     H 7085   1.711   8.197   6.873  0.2641  2.8280 -2.5749
   54MOL0     H 7086   1.841   8.062   6.628 -1.1486  1.1392 -4.4472
   54MOL0     H 7087   1.668   8.040   6.671 -0.5861  1.7187 -3.2399
   54MOL0     H 7088   1.805   8.301   6.609  1.1832 -1.5401 -2.2579
   54MOL0     H 7089   1.631   8.283   6.651  1.4194  1.3632  0.7454
   54MOL0     H 7090   1.445   8.144   6.578  0.6439 -0.6641  0.6990
   54MOL0     H 7091   1.236   8.152   6.474 -1.3648  1.7940 -0.5077
   54MOL0     H 7092   1.167   8.302   5.823 -0.4293  0.6128  1.0697
   54MOL0     H 7093   0.954   8.292   5.680  0.1663  0.2117 -0.8395
   54MOL0     H 7094   0.706   8.103   5.713  0.0955  0.3663  0.2962
   54MOL0     H 7095   0.750   8.235   5.597  2.0792  1.4145  2.5239
   54MOL0     H 7096   0.529   8.196   5.516  3.1796  2.2120 -1.3859
   54MOL0     H 7097   0.532   8.333   5.619  0.9666  0.6875  0.7816
   54MOL0     H 7098   0.478   8.168   5.820  1.5192 -1.2508 -0.3803
   54MOL0     H 7099   0.418   8.058   5.698 -2.7563 -0.4172  2.2321
   54MOL0     H 7100   0.248   8.228   5.808  1.5712 -0.7342  0.1920
   54MOL0     H 7101   0.331   8.347   5.722  0.5862 -0.0840 -0.9767
   54MOL0     H 7102   0.205   8.124   5.588 -1.9144  1.1800  0.5434
   54MOL0     H 7103   0.296   8.262   5.514  2.0235 -1.9517  0.1183
   54MOL0     H 7104   0.109   8.398   5.597 -1.5122 -0.1120  0.7675
   54MOL0     H 7105   0.029   8.263   5.684  0.2327  0.2074 -0.2077
   54MOL0     H 7106   0.069   8.314   5.388 -1.0569  1.0555 -0.7989
   54MOL0     H 7107   0.061   8.148   5.439  0.3139  1.2404 -3.8196
   54MOL0     H 7108  -0.146   8.371   5.499 -3.0807 -0.3121  1.1551
   54MOL0     H 7109  -0.155   8.206   5.567 -2.2391 -1.0784 -1.2897
   54MOL0     H 7110   0.712   8.275   6.029 -0.6838 -0.4397 -0.8003
   54MOL0     H 7111   0.911   8.258   6.167 -2.8589 -4.0901 -0.2761
   54MOL0     H 7112   1.431   8.235   6.093 -1.0875  2.8633  0.6106
   54MOL0     H 7113   1.639   8.240   6.213 -1.0173  1.5660 -1.1456
   54MOL0     H 7114   0.777   7.999   6.070 -1.8825  0.6367  0.0111
   54MOL0     H 7115   0.566   8.001   5.936 -2.6433 -1.4609 -1.8270
   54MOL0     H 7116   0.039   7.641   5.952  0.7471 -1.2608 -1.7341
   54MOL0     H 7117  -0.141   7.644   5.779 -0.7238  1.5676  2.3839
   54MOL0     H 7118  -0.248   7.634   5.588 -1.3359 -0.8219  0.2428
   54MOL0     H 7119  -0.337   7.747   5.500  0.2789 -3.2263 -0.4354
   54MOL0     H 7120  -0.458   7.697   5.720 -1.2622  0.0844 -2.3758
   54MOL0     H 7121  -0.330   7.799   5.805 -0.1702  2.3144 -0.3672
   54MOL0     H 7122  -0.373   7.978   5.642  0.4910  1.0172  0.7024
   54MOL0     H 7123  -0.503   7.955   5.759 -1.7266 -0.6422 -2.0909
   54MOL0     H 7124  -0.586   7.783   5.558  0.7851 -0.5367  2.0077
   54MOL0     H 7125  -0.647   7.938   5.626 -0.5133 -1.1645  0.8742
   54MOL0     H 7126  -0.455   8.025   5.238  1.3286  0.0472  0.6958
   54MOL0     H 7127   0.053   7.968   5.595  1.8137  0.6112 -0.6780
   54MOL0     H 7128   0.235   7.956   5.757 -0.0829 -0.3982 -0.7878
   55MOL0     O 7129   1.742   2.125   4.262 -0.2439 -0.0188 -0.0288
   55MOL0     C 7130   1.774   2.016   4.297  0.1826  0.3586 -0.3894
   55MOL0     O 7131   1.715   1.903   4.259  0.0666 -0.2776 -1.2117
   55MOL0     C 7132   1.605   1.907   4.186 -0.0438  1.1420 -0.1170
   55MOL0     C 7133   1.497   1.991   4.192 -0.3314  0.5587 -0.1743
   55MOL0     C 7134   1.392   1.987   4.095  0.8953  0.1463 -0.4822
   55MOL0     C 7135   1.385   1.890   3.997 -0.3987 -0.0953  0.1825
   55MOL0     O 7136   1.296   1.908   3.899  0.2022  0.5315  0.1930
   55MOL0     C 7137   1.258   1.804   3.808  0.3094 -0.0298 -0.9941
   55MOL0     C 7138   1.126   1.848   3.747 -0.8596  0.5805  0.4384
   55MOL0     C 7139   1.128   1.979   3.672 -1.3239  0.1408  0.0442
   55MOL0     C 7140   1.013   2.004   3.575 -0.2167 -0.6319 -0.0581
   55MOL0     C 7141   0.888   1.999   3.649  0.9535 -1.1992 -0.3405
   55MOL0     C 7142   0.772   2.028   3.547 -0.9466  0.7113 -0.0407
   55MOL0     C 7143   0.631   2.015   3.609 -0.1968  0.1261  0.5070
   55MOL0     C 7144   0.589   1.863   3.615  0.4867  0.7547 -0.0783
   55MOL0     N 7145   0.440   1.853   3.656  0.2898 -0.0512  0.4109
   55MOL0     C 7146   0.364   1.747   3.673 -0.3225  0.4042  0.5307
   55MOL0     C 7147   0.245   1.785   3.713  0.0925  0.7033  0.1456
   55MOL0     C 7148   0.124   1.697   3.737  0.7871  0.2781 -0.6450
   55MOL0     C 7149  -0.010   1.746   3.678  0.1605 -1.3596 -0.0969
   55MOL0     C 7150  -0.068   1.870   3.758  0.3649  0.3804 -0.0607
   55MOL0     C 7151  -0.200   1.910   3.704  0.5321 -0.5695 -0.2148
   55MOL0     O 7152  -0.296   1.803   3.700  0.2022 -0.6481 -0.2228
   55MOL0     C 7153  -0.423   1.837   3.663  0.2744  0.5405  0.3106
   55MOL0     C 7154  -0.486   1.957   3.634 -0.3210 -0.1291 -0.3758
   55MOL0     C 7155  -0.620   1.962   3.599  0.0929  0.0993  0.6384
   55MOL0     C 7156  -0.693   1.843   3.593  0.9216 -0.2537  0.5984
   55MOL0     C 7157  -0.836   1.857   3.548  0.5536 -0.0682  0.3574
   55MOL0     O 7158  -0.896   1.975   3.540  0.4578 -0.1763  0.3807
   55MOL0     C 7159  -1.020   1.984   3.478 -0.6925  0.6376  0.7525
   55MOL0     C 7160  -1.134   1.993   3.555 -0.2909  0.2176 -0.3785
   55MOL0     C 7161  -1.256   2.031   3.498  0.3005  0.2426 -0.2383
   55MOL0     C 7162  -1.261   2.054   3.363  0.5636  0.0692 -0.7166
   55MOL0     O 7163  -1.383   2.084   3.311  0.2176  0.8888  0.4268
   55MOL0     C 7164  -1.443   2.210   3.357  0.5184 -0.6825 -0.3669
   55MOL0     C 7165  -1.546   2.253   3.255  0.7755 -0.2357 -0.1407
   55MOL0     C 7166  -1.616   2.378   3.304  0.9740  0.3118  0.3137
   55MOL0     C 7167  -1.733   2.418   3.208 -0.2911  0.1290  0.1326
   55MOL0     C 7168  -1.790   2.557   3.243 -0.1253  0.4642  0.9193
   55MOL0     C 7169  -1.697   2.686   3.246 -0.6802  0.5685 -0.2339
   55MOL0     C 7170  -1.596   2.705   3.131 -0.0176  0.4535  0.0258
   55MOL0     C 7171  -1.517   2.835   3.151  0.8951 -0.4993  0.3518
   55MOL0    Cl 7172  -1.439   2.847   3.323  0.0947  0.3597 -0.0096
   55MOL0     C 7173  -1.151   2.031   3.286  0.0832  0.1230 -0.1187
   55MOL0     C 7174  -1.027   2.002   3.339 -0.6059  0.1667  0.6351
   55MOL0     O 7175  -0.881   1.752   3.494 -0.6931  0.0997 -0.3197
   55MOL0     C 7176  -0.632   1.726   3.622  0.2024 -0.0663 -0.1294
   55MOL0     C 7177  -0.503   1.726   3.647 -0.4591 -0.2438 -1.0636
   55MOL0     N 7178   0.246   1.917   3.721 -1.0210 -1.0766  0.4464
   55MOL0     N 7179   0.356   1.964   3.682 -0.4696 -0.2749  1.0918
   55MOL0     C 7180   1.486   1.795   4.006  0.8524 -0.6618 -0.4831
   55MOL0     C 7181   1.595   1.807   4.087  0.0252 -0.6055 -0.4430
   55MOL0     C 7182   1.896   2.006   4.382 -0.2587 -0.8141  0.1014
   55MOL0     C 7183   2.024   2.053   4.339  0.6648 -0.3284 -0.6038
   55MOL0     C 7184   2.136   2.043   4.417  0.0354 -0.2337  0.0444
   55MOL0     C 7185   2.136   1.978   4.547 -0.0936  1.9505 -0.2816
   55MOL0     O 7186   2.240   1.946   4.635 -0.4557 -0.0723  1.1057
   55MOL0     C 7187   2.373   1.955   4.576  0.0597  0.0913  0.2876
   55MOL0     C 7188   2.428   2.093   4.567 -0.3679  0.0404  0.3054
   55MOL0     C 7189   2.562   2.099   4.493  0.2971 -0.3230  0.2077
   55MOL0     C 7190   2.667   2.111   4.610 -0.3414 -0.8435  0.1891
   55MOL0     C 7191   2.800   2.163   4.565  1.2749  0.5333  0.8701
   55MOL0     C 7192   2.920   2.191   4.548  0.0519  0.2038 -0.6921
   55MOL0     C 7193   2.013   1.926   4.579  0.9145 -0.2827  0.0938
   55MOL0     C 7194   1.895   1.942   4.500  0.1921 -0.8262 -0.5610
   55MOL0     H 7195   1.501   2.076   4.259 -0.8932  2.3215 -2.2419
   55MOL0     H 7196   1.318   2.065   4.108  0.0173 -0.5090 -1.3680
   55MOL0     H 7197   1.249   1.707   3.858  1.1286  0.0983 -0.5790
   55MOL0     H 7198   1.330   1.801   3.726  0.4184 -0.1879 -0.8937
   55MOL0     H 7199   1.052   1.842   3.828 -1.4059  0.9930 -0.0264
   55MOL0     H 7200   1.105   1.768   3.675  2.2065  1.5117 -1.6635
   55MOL0     H 7201   1.226   1.982   3.624 -1.1473 -2.3680  0.1245
   55MOL0     H 7202   1.127   2.056   3.750  0.1913  0.5653 -0.3074
   55MOL0     H 7203   1.027   2.105   3.533  1.3781 -1.5612 -1.9062
   55MOL0     H 7204   1.012   1.940   3.487  0.0508  2.0158 -2.1269
   55MOL0     H 7205   0.882   2.082   3.720 -1.6628  1.2909 -3.2149
   55MOL0     H 7206   0.859   1.906   3.700 -2.2944 -0.1137  0.0169
   55MOL0     H 7207   0.788   1.962   3.460  1.5703  1.7511 -0.4453
   55MOL0     H 7208   0.788   2.130   3.510 -0.4594  0.1764 -1.3878
   55MOL0     H 7209   0.630   2.063   3.707 -0.2667  0.2635  0.4376
   55MOL0     H 7210   0.561   2.060   3.538 -0.1462  0.9014  0.9478
   55MOL0     H 7211   0.645   1.813   3.694 -0.8205  1.9466  1.6552
   55MOL0     H 7212   0.611   1.810   3.521 -0.8855 -1.2257  0.6528
   55MOL0     H 7213   0.384   1.641   3.660 -0.6895  0.1800  1.6736
   55MOL0     H 7214   0.126   1.686   3.846  2.2536  1.7483 -0.4945
   55MOL0     H 7215   0.151   1.598   3.699 -2.1653  0.3488 -3.3079
   55MOL0     H 7216  -0.081   1.663   3.675 -0.3556 -0.9637 -4.0573
   55MOL0     H 7217   0.018   1.772   3.576  0.7958 -0.7932  0.2098
   55MOL0     H 7218  -0.082   1.841   3.863 -1.7269  3.9535  0.7960
   55MOL0     H 7219   0.011   1.946   3.761  1.1979 -0.4881  1.2772
   55MOL0     H 7220  -0.196   1.942   3.599 -0.4093 -5.0026 -1.8619
   55MOL0     H 7221  -0.235   1.992   3.766 -0.9909 -0.5365 -1.0790
   55MOL0     H 7222  -0.429   2.049   3.641 -1.5410  0.5538  1.2047
   55MOL0     H 7223  -0.650   2.063   3.573  0.5285  0.6734  2.2357
   55MOL0     H 7224  -1.111   1.982   3.661  2.1264  0.4698 -0.8127
   55MOL0     H 7225  -1.343   2.036   3.563 -0.6736  0.7784 -1.5501
   55MOL0     H 7226  -1.376   2.295   3.365  0.4135 -0.5855 -0.5210
   55MOL0     H 7227  -1.487   2.195   3.456 -1.0203  0.4185 -0.8411
   55MOL0     H 7228  -1.625   2.180   3.237  0.4089 -0.2449  1.3628
   55MOL0     H 7229  -1.488   2.272   3.164  1.0142  2.5226  0.4879
   55MOL0     H 7230  -1.543   2.459   3.310 -0.9274  2.0297  2.1504
   55MOL0     H 7231  -1.665   2.356   3.399 -2.5745  2.8117 -0.7071
   55MOL0     H 7232  -1.705   2.413   3.102 -2.3198 -0.6366 -0.4221
   55MOL0     H 7233  -1.816   2.348   3.223  0.2864 -0.2240  1.8789
   55MOL0     H 7234  -1.850   2.549   3.334  1.0379  0.5056  1.7038
   55MOL0     H 7235  -1.863   2.577   3.164 -0.1190  0.1114  0.8214
   55MOL0     H 7236  -1.637   2.678   3.337 -0.9957  1.1237  0.0222
   55MOL0     H 7237  -1.762   2.773   3.256 -1.6251 -0.1652  0.1726
   55MOL0     H 7238  -1.527   2.620   3.131 -0.1543  0.3368  0.5535
   55MOL0     H 7239  -1.639   2.704   3.030  1.5410 -1.6136 -0.6667
   55MOL0     H 7240  -1.583   2.919   3.130 -0.1075 -1.6561 -1.4508
   55MOL0     H 7241  -1.438   2.836   3.075  1.5178  0.0928  0.9948
   55MOL0     H 7242  -1.163   2.042   3.178  0.1635  2.4407  0.0539
   55MOL0     H 7243  -0.942   1.998   3.273 -1.9288  0.7716 -1.1959
   55MOL0     H 7244  -0.685   1.631   3.612 -2.1025  1.2906 -1.8441
   55MOL0     H 7245  -0.449   1.632   3.654  0.3258  0.0945 -2.2468
   55MOL0     H 7246   1.487   1.716   3.932 -0.3094 -0.2320 -0.9867
   55MOL0     H 7247   1.677   1.735   4.083  1.9817  1.4220  0.5503
   55MOL0     H 7248   2.021   2.107   4.245 -0.8816 -0.3392 -0.5854
   55MOL0     H 7249   2.230   2.077   4.375  0.7789  0.6920  2.3297
   55MOL0     H 7250   2.384   1.902   4.481  1.5472  1.3401 -0.2903
   55MOL0     H 7251   2.446   1.909   4.644  0.4166  2.0980  1.3590
   55MOL0     H 7252   2.355   2.158   4.517 -1.3793 -1.5447 -0.3311
   55MOL0     H 7253   2.429   2.126   4.671 -0.6649 -2.1716  1.0397
   55MOL0     H 7254   2.560   2.193   4.437  0.9400 -0.8857 -0.7955
   55MOL0     H 7255   2.581   2.021   4.418  1.3838  0.0801  0.0450
   55MOL0     H 7256   2.629   2.178   4.687 -2.5402 -1.4304 -0.3009
   55MOL0     H 7257   2.681   2.012   4.654  0.7017 -1.3549 -1.1974
   55MOL0     H 7258   3.025   2.210   4.545  0.0389  1.7395  3.0788
   55MOL0     H 7259   2.006   1.873   4.674 -0.2344  1.4468  1.0248
   55MOL0     H 7260   1.805   1.894   4.536  1.0814 -3.2163 -1.3250
   56MOL0     O 7261   4.575   8.363   8.855 -0.5661  0.3533  0.4123
   56MOL0     C 7262   4.648   8.436   8.914  0.3003 -0.6161  0.5458
   56MOL0     O 7263   4.613   8.523   9.004  0.2018  0.5667 -0.2254
   56MOL0     C 7264   4.490   8.514   9.054  0.1837 -0.1532 -0.8430
   56MOL0     C 7265   4.379   8.544   8.972  0.1282  0.5568  0.2625
   56MOL0     C 7266   4.245   8.532   9.014  0.4430 -0.4680 -0.3914
   56MOL0     C 7267   4.210   8.492   9.147 -0.3708  1.0699 -0.3520
   56MOL0     O 7268   4.078   8.473   9.181  0.0064  0.0799  0.9175
   56MOL0     C 7269   4.018   8.593   9.227  0.1272 -1.1562  0.0796
   56MOL0     C 7270   3.901   8.622   9.138 -0.0778 -0.2559 -0.5755
   56MOL0     C 7271   3.807   8.501   9.116  0.6991  0.7410 -0.1140
   56MOL0     C 7272   3.684   8.529   9.031 -0.2635  0.4017  0.5738
   56MOL0     C 7273   3.582   8.415   9.037 -0.3233  0.3496 -0.6204
   56MOL0     C 7274   3.449   8.456   8.983  0.9676 -0.0322 -0.3722
   56MOL0     C 7275   3.360   8.336   8.963 -0.4764  0.7611  0.0406
   56MOL0     C 7276   3.254   8.378   8.865 -1.2512  0.1772  0.7417
   56MOL0     N 7277   3.160   8.269   8.828  0.5482 -0.4013 -0.5007
   56MOL0     C 7278   3.028   8.261   8.874  0.4737 -0.0641  0.7911
   56MOL0     C 7279   2.975   8.156   8.803 -0.4113 -0.2697 -0.3055
   56MOL0     C 7280   2.833   8.098   8.815  0.2812 -0.6777  0.5846
   56MOL0     C 7281   2.732   8.174   8.899  0.1352  0.1262 -0.3497
   56MOL0     C 7282   2.592   8.107   8.895 -0.2122  0.1246  0.3949
   56MOL0     C 7283   2.510   8.153   9.008  0.1744  0.3258 -0.2164
   56MOL0     O 7284   2.435   8.050   9.076  0.4216  0.0894  0.2988
   56MOL0     C 7285   2.319   8.018   9.022  0.6230 -0.6556  0.7627
   56MOL0     C 7286   2.279   8.055   8.895  0.0168  0.4750  0.9748
   56MOL0     C 7287   2.169   8.000   8.829 -0.8913  1.1358 -0.2368
   56MOL0     C 7288   2.104   7.888   8.880 -0.1963 -0.7762 -1.0804
   56MOL0     C 7289   1.987   7.823   8.816 -0.5099 -0.4659 -0.3715
   56MOL0     O 7290   1.947   7.883   8.695 -0.3016  0.1606 -0.9804
   56MOL0     C 7291   1.847   7.815   8.638  0.5764 -0.9366 -0.9147
   56MOL0     C 7292   1.871   7.697   8.568  0.7144  0.2244  0.3356
   56MOL0     C 7293   1.765   7.634   8.492 -0.0998  0.0867 -0.9139
   56MOL0     C 7294   1.632   7.678   8.497 -0.3679 -0.6921 -0.0871
   56MOL0     O 7295   1.522   7.608   8.452 -0.4267  0.8656 -0.5225
   56MOL0     C 7296   1.438   7.672   8.356  0.1138  0.3939  0.4565
   56MOL0     C 7297   1.318   7.580   8.316 -1.4999 -0.5514  0.2074
   56MOL0     C 7298   1.246   7.653   8.203 -0.0820 -0.7510 -0.0770
   56MOL0     C 7299   1.106   7.584   8.174  0.2841 -0.3482 -0.3543
   56MOL0     C 7300   0.977   7.671   8.153 -0.4880  0.4843  0.2479
   56MOL0     C 7301   0.858   7.579   8.157 -0.0266 -0.3968 -0.2403
   56MOL0     C 7302   0.845   7.494   8.036  0.3289 -0.1374  0.2974
   56MOL0     C 7303   0.733   7.546   7.947  0.8263  0.9912  0.0714
   56MOL0    Cl 7304   0.771   7.712   7.905  0.2402  0.0438 -0.1934
   56MOL0     C 7305   1.616   7.803   8.567 -0.1386  0.6932  0.4715
   56MOL0     C 7306   1.718   7.873   8.632  0.2210  0.3098 -0.2355
   56MOL0     O 7307   1.933   7.734   8.883  0.4704  0.1309 -0.6140
   56MOL0     C 7308   2.149   7.840   9.006 -1.1395  0.2664 -0.2885
   56MOL0     C 7309   2.258   7.901   9.078 -1.1441 -0.1379 -0.1055
   56MOL0     N 7310   3.073   8.120   8.704  0.1222  0.2499 -0.4816
   56MOL0     N 7311   3.186   8.177   8.735 -0.0598 -0.1347  0.4370
   56MOL0     C 7312   4.321   8.445   9.222  0.2120  0.3158 -0.1945
   56MOL0     C 7313   4.460   8.459   9.182  0.4429 -0.2352 -0.0753
   56MOL0     C 7314   4.793   8.445   8.875  0.3302 -0.0648 -0.7017
   56MOL0     C 7315   4.840   8.392   8.757 -0.0429 -0.3433 -0.4478
   56MOL0     C 7316   4.971   8.415   8.715 -0.2189  1.3512 -0.2065
   56MOL0     C 7317   5.059   8.475   8.811 -0.0364 -0.5435  0.6650
   56MOL0     O 7318   5.189   8.497   8.780 -0.0707  0.4384 -0.0100
   56MOL0     C 7319   5.222   8.625   8.732 -0.6636  0.2032  0.0929
   56MOL0     C 7320   5.353   8.621   8.659 -0.2462  0.2078  1.0118
   56MOL0     C 7321   5.467   8.547   8.736 -0.2182  0.0556  0.2617
   56MOL0     C 7322   5.603   8.616   8.702  1.1775  0.4797 -0.8557
   56MOL0     C 7323   5.634   8.731   8.785 -0.2310 -0.0901  0.1356
   56MOL0     C 7324   5.674   8.826   8.851 -0.5810  0.8271  0.2524
   56MOL0     C 7325   5.022   8.525   8.931  0.6530  0.2314  0.5002
   56MOL0     C 7326   4.882   8.519   8.958  0.0112  0.2807  0.6116
   56MOL0     H 7327   4.403   8.569   8.869  0.8785 -0.8901  0.0638
   56MOL0     H 7328   4.166   8.561   8.945 -1.2021  0.2441  1.6681
   56MOL0     H 7329   4.088   8.676   9.237 -0.9913 -0.2140  0.2698
   56MOL0     H 7330   3.982   8.566   9.327 -1.6971 -4.3562 -1.2731
   56MOL0     H 7331   3.927   8.677   9.047 -1.3337 -0.0017 -0.7947
   56MOL0     H 7332   3.842   8.687   9.203  2.7324  0.9382  0.9794
   56MOL0     H 7333   3.767   8.471   9.213  1.6399  0.2306  0.1290
   56MOL0     H 7334   3.859   8.410   9.083 -1.0884  0.3259 -1.9418
   56MOL0     H 7335   3.645   8.622   9.075  3.0352  2.3039 -0.1897
   56MOL0     H 7336   3.713   8.557   8.930  1.2388 -0.0085  0.8699
   56MOL0     H 7337   3.566   8.377   9.138 -2.7281  1.9551 -0.3209
   56MOL0     H 7338   3.622   8.336   8.973 -0.3050  0.6822 -1.0204
   56MOL0     H 7339   3.464   8.501   8.885 -2.9437 -0.0911 -1.1862
   56MOL0     H 7340   3.405   8.533   9.048  0.9763 -0.3135 -0.0275
   56MOL0     H 7341   3.418   8.259   8.912 -1.1550  0.2070  0.0879
   56MOL0     H 7342   3.320   8.301   9.058 -0.8986 -1.4836 -0.9187
   56MOL0     H 7343   3.303   8.409   8.772  0.9832  1.0912  2.1363
   56MOL0     H 7344   3.198   8.463   8.905 -1.3872  0.5316 -0.1814
   56MOL0     H 7345   2.989   8.328   8.951 -4.7442  0.0710 -1.5899
   56MOL0     H 7346   2.843   7.991   8.839  0.0298 -1.1775 -1.3126
   56MOL0     H 7347   2.797   8.094   8.711 -2.0868  0.3390  1.3036
   56MOL0     H 7348   2.724   8.277   8.862 -2.8078  0.3113  0.5252
   56MOL0     H 7349   2.769   8.176   9.002 -2.3803  0.4857  0.6355
   56MOL0     H 7350   2.547   8.127   8.798  1.2876 -2.8044 -1.0160
   56MOL0     H 7351   2.600   7.998   8.897 -2.2426 -0.1002 -0.9440
   56MOL0     H 7352   2.443   8.233   8.974 -1.2752 -1.7380 -2.5700
   56MOL0     H 7353   2.576   8.204   9.078 -0.4920  1.3679 -0.3255
   56MOL0     H 7354   2.319   8.136   8.834 -2.2676  0.0725 -1.2251
   56MOL0     H 7355   2.150   8.043   8.731 -1.8560  1.2425 -0.0109
   56MOL0     H 7356   1.968   7.647   8.568  0.2685 -0.7122  2.0341
   56MOL0     H 7357   1.792   7.533   8.463 -1.3262 -0.1452 -1.3228
   56MOL0     H 7358   1.493   7.674   8.261 -1.6959 -2.9530 -0.8314
   56MOL0     H 7359   1.417   7.774   8.390  1.8799  0.1228  2.5640
   56MOL0     H 7360   1.246   7.563   8.397 -0.8170 -2.1351  0.5182
   56MOL0     H 7361   1.355   7.482   8.284 -0.4005 -0.2742  0.5905
   56MOL0     H 7362   1.309   7.663   8.114  0.2081  1.6398  0.3461
   56MOL0     H 7363   1.227   7.757   8.230  3.8496  0.0015  0.3992
   56MOL0     H 7364   1.118   7.523   8.084  4.1076 -1.9227  0.9913
   56MOL0     H 7365   1.093   7.517   8.259 -0.0530  0.0267 -0.1083
   56MOL0     H 7366   0.983   7.731   8.062  0.2786 -0.1389 -0.1280
   56MOL0     H 7367   0.967   7.736   8.240  0.2265 -2.7235  2.9548
   56MOL0     H 7368   0.766   7.637   8.169  1.8127  2.6443  0.2534
   56MOL0     H 7369   0.870   7.512   8.243  0.4282  0.1051  0.0891
   56MOL0     H 7370   0.939   7.481   7.981  0.6507  1.1202  0.5330
   56MOL0     H 7371   0.817   7.393   8.068  0.7177 -0.7659 -1.2841
   56MOL0     H 7372   0.639   7.534   8.002 -0.2717  3.0116 -1.2304
   56MOL0     H 7373   0.719   7.494   7.852 -3.0970 -1.7131  1.8807
   56MOL0     H 7374   1.518   7.850   8.566  0.7869  2.7404 -1.7000
   56MOL0     H 7375   1.700   7.971   8.675  2.6334 -0.0666  1.8418
   56MOL0     H 7376   2.102   7.759   9.060 -0.1401  1.0460  1.8869
   56MOL0     H 7377   2.290   7.880   9.179  1.3681  2.7805 -0.1450
   56MOL0     H 7378   4.282   8.400   9.312  0.8771 -1.1330 -0.5922
   56MOL0     H 7379   4.531   8.423   9.256 -1.8091 -0.5714  2.0560
   56MOL0     H 7380   4.769   8.349   8.686 -0.4806 -2.3642  1.1209
   56MOL0     H 7381   4.994   8.381   8.615 -2.1999 -1.4319  0.1605
   56MOL0     H 7382   5.236   8.689   8.819  2.6508 -0.2706  0.0519
   56MOL0     H 7383   5.143   8.646   8.660 -1.1897  0.1813  0.6648
   56MOL0     H 7384   5.341   8.565   8.566 -2.6519 -2.2598  2.6674
   56MOL0     H 7385   5.383   8.724   8.638 -1.7234  0.5004  0.2094
   56MOL0     H 7386   5.469   8.441   8.711  1.6736  0.3476 -0.9970
   56MOL0     H 7387   5.440   8.561   8.842 -2.9014 -3.2693  0.1941
   56MOL0     H 7388   5.673   8.543   8.743 -0.3717 -0.1496  0.8038
   56MOL0     H 7389   5.623   8.634   8.596  2.2128 -2.0610 -1.1643
   56MOL0     H 7390   5.712   8.911   8.905  1.3165 -1.0530  2.0975
   56MOL0     H 7391   5.091   8.576   8.997 -1.0367  1.0721  1.6947
   56MOL0     H 7392   4.832   8.550   9.049 -0.7330 -0.8932  0.6227
   57MOL0     O 7393  11.182   6.752  11.155  0.0468  0.6191 -0.2120
   57MOL0     C 7394  11.277   6.756  11.079  0.5544  0.1150  0.7430
   57MOL0     O 7395  11.269   6.801  10.951 -0.1957 -0.3220  0.7505
   57MOL0     C 7396  11.136   6.811  10.907 -0.6761 -0.4355  0.3882
   57MOL0     C 7397  11.072   6.701  10.861 -0.0704 -0.7378  0.0954
   57MOL0     C 7398  10.948   6.707  10.803  0.2902  0.2708 -0.0274
   57MOL0     C 7399  10.871   6.825  10.806  1.0169 -0.1800  0.0622
   57MOL0     O 7400  10.745   6.857  10.765  0.2340  1.0073  0.7159
   57MOL0     C 7401  10.669   6.749  10.722 -0.3420  0.9694  0.4644
   57MOL0     C 7402  10.542   6.781  10.654  0.3992  0.1017 -1.6630
   57MOL0     C 7403  10.485   6.659  10.578  0.5853 -0.2276 -0.5699
   57MOL0     C 7404  10.344   6.703  10.543  0.6803 -0.0924  0.0206
   57MOL0     C 7405  10.273   6.584  10.469 -0.3437  0.2710 -0.7999
   57MOL0     C 7406  10.152   6.622  10.386 -1.3419  0.1642 -0.2350
   57MOL0     C 7407  10.096   6.495  10.321  0.2360 -0.3638  0.5965
   57MOL0     C 7408  10.023   6.395  10.409 -0.1279 -0.0124 -0.2231
   57MOL0     N 7409   9.909   6.457  10.477  0.0020  0.3532  0.0230
   57MOL0     C 7410   9.803   6.523  10.426 -0.1656 -0.2436  1.0285
   57MOL0     C 7411   9.720   6.565  10.516  0.4829 -0.1949  1.4605
   57MOL0     C 7412   9.598   6.646  10.499  0.2960  0.0239 -0.3530
   57MOL0     C 7413   9.467   6.559  10.496 -1.0379  0.0688 -0.1351
   57MOL0     C 7414   9.453   6.464  10.620  0.3036 -0.0282 -0.2850
   57MOL0     C 7415   9.421   6.531  10.753  0.1497 -0.2880 -1.3193
   57MOL0     O 7416   9.275   6.553  10.753  0.1358 -1.0776 -0.4563
   57MOL0     C 7417   9.219   6.677  10.748  0.2694 -1.0130 -1.1056
   57MOL0     C 7418   9.099   6.703  10.812  0.6253 -0.3969  0.9059
   57MOL0     C 7419   9.038   6.834  10.813 -0.5554 -0.4612 -0.8504
   57MOL0     C 7420   9.104   6.945  10.763  0.0236 -0.0930 -0.0860
   57MOL0     C 7421   9.052   7.082  10.772  0.4237  0.0067  0.0794
   57MOL0     O 7422   8.908   7.083  10.777 -0.3251  0.7545  0.6349
   57MOL0     C 7423   8.838   7.204  10.793  0.1407 -0.9745  0.0904
   57MOL0     C 7424   8.715   7.212  10.867 -0.6585 -0.1336 -0.2140
   57MOL0     C 7425   8.642   7.328  10.869 -0.6261 -0.2931  0.1738
   57MOL0     C 7426   8.686   7.440  10.789  0.3186 -0.4574  0.6489
   57MOL0     O 7427   8.601   7.550  10.766  0.1658 -0.4890  0.2820
   57MOL0     C 7428   8.470   7.560  10.822  0.2838 -0.3240 -0.4445
   57MOL0     C 7429   8.500   7.653  10.953  0.4587  0.6697 -0.5832
   57MOL0     C 7430   8.362   7.678  11.012  0.5558 -0.0523 -0.3538
   57MOL0     C 7431   8.378   7.730  11.161  0.6747  0.4874 -0.1359
   57MOL0     C 7432   8.263   7.808  11.225  0.2961 -1.0780  0.4214
   57MOL0     C 7433   8.322   7.868  11.358  0.5966  0.6428  0.8488
   57MOL0     C 7434   8.209   7.940  11.433  0.3321  0.2724  0.3341
   57MOL0     C 7435   8.081   7.866  11.459  0.6471  0.1134 -0.0710
   57MOL0    Cl 7436   7.981   7.880  11.317 -0.5039 -0.1966  0.6450
   57MOL0     C 7437   8.814   7.435  10.725 -0.3749 -0.4992 -0.8196
   57MOL0     C 7438   8.885   7.316  10.726 -0.1657  0.1142 -0.1206
   57MOL0     O 7439   9.127   7.181  10.774  0.2783  0.1053  0.2540
   57MOL0     C 7440   9.224   6.923  10.697 -0.5924 -0.5185 -0.6656
   57MOL0     C 7441   9.280   6.795  10.692  1.0032 -0.2662 -1.0009
   57MOL0     N 7442   9.773   6.503  10.629 -0.1826 -0.0275 -0.2258
   57MOL0     N 7443   9.887   6.442  10.608  0.2710 -0.5058 -1.0075
   57MOL0     C 7444  10.925   6.938  10.859  0.1492 -0.3683  0.7169
   57MOL0     C 7445  11.063   6.933  10.900 -0.1017  0.1446 -0.8615
   57MOL0     C 7446  11.406   6.730  11.138  0.9054 -0.3112 -0.3587
   57MOL0     C 7447  11.432   6.703  11.270  0.0097  0.0033  0.6738
   57MOL0     C 7448  11.558   6.666  11.319 -0.3716 -0.4991  0.7019
   57MOL0     C 7449  11.663   6.636  11.224 -0.1403  1.4856 -0.2583
   57MOL0     O 7450  11.766   6.567  11.283  0.1545 -0.2683  0.4059
   57MOL0     C 7451  11.830   6.464  11.207 -0.4616 -0.1548  0.0461
   57MOL0     C 7452  11.966   6.434  11.272 -0.7324  1.4942  0.5806
   57MOL0     C 7453  12.021   6.294  11.210 -0.0283  0.1990 -0.6917
   57MOL0     C 7454  12.149   6.250  11.296  0.1061  0.2998  0.3426
   57MOL0     C 7455  12.255   6.357  11.299  0.1505 -0.3837 -0.7926
   57MOL0     C 7456  12.333   6.451  11.279  0.9720  0.0721  0.0252
   57MOL0     C 7457  11.634   6.646  11.088 -0.3334 -0.0818 -0.6354
   57MOL0     C 7458  11.514   6.708  11.043  0.3027  0.6490 -0.4643
   57MOL0     H 7459  11.138   6.614  10.860  3.8949  1.9226 -3.0831
   57MOL0     H 7460  10.909   6.611  10.769 -0.4060  0.3654  0.4581
   57MOL0     H 7461  10.640   6.683  10.805 -2.3622  2.6151  1.1377
   57MOL0     H 7462  10.723   6.687  10.650 -2.6482 -1.0485  0.3274
   57MOL0     H 7463  10.549   6.878  10.604 -0.5622  2.6945  2.6582
   57MOL0     H 7464  10.479   6.805  10.740  0.5450  1.4307 -1.9068
   57MOL0     H 7465  10.483   6.569  10.640 -2.4137  0.2317  0.1693
   57MOL0     H 7466  10.551   6.658  10.491 -0.8177 -0.1324 -1.6599
   57MOL0     H 7467  10.282   6.725  10.631  1.8369  2.5480  0.2640
   57MOL0     H 7468  10.333   6.797  10.488  0.4150 -0.1122  0.0346
   57MOL0     H 7469  10.244   6.507  10.541 -0.3578  0.7605 -0.2703
   57MOL0     H 7470  10.343   6.539  10.398 -0.1928  2.4261 -2.1172
   57MOL0     H 7471  10.183   6.704  10.320 -2.2928  0.8968  0.2045
   57MOL0     H 7472  10.078   6.683  10.440 -0.0916 -0.4023  2.2911
   57MOL0     H 7473  10.016   6.515  10.248 -0.2403 -2.1450  0.5859
   57MOL0     H 7474  10.178   6.459  10.258  0.5270  5.4035 -3.1922
   57MOL0     H 7475  10.089   6.366  10.491  2.2598  3.6452 -0.6195
   57MOL0     H 7476   9.995   6.309  10.348 -0.5544  0.4540 -0.6901
   57MOL0     H 7477   9.794   6.553  10.322 -3.0677 -1.4788  0.8404
   57MOL0     H 7478   9.611   6.713  10.414 -0.8163  0.9844  0.2088
   57MOL0     H 7479   9.587   6.715  10.583  3.4776  0.7132 -0.3678
   57MOL0     H 7480   9.457   6.492  10.410  3.4724 -1.9292  0.5828
   57MOL0     H 7481   9.382   6.628  10.498 -2.5121 -1.6343  2.2051
   57MOL0     H 7482   9.367   6.397  10.622  1.4456 -1.6461  3.0137
   57MOL0     H 7483   9.548   6.410  10.621 -0.2895 -1.1175  1.1061
   57MOL0     H 7484   9.486   6.619  10.760  2.9776 -2.1037 -2.8694
   57MOL0     H 7485   9.447   6.458  10.830  0.3438  0.6279 -0.5051
   57MOL0     H 7486   9.044   6.623  10.860 -2.0083  1.3958  1.1415
   57MOL0     H 7487   8.946   6.847  10.869 -0.5270 -0.2297 -0.8572
   57MOL0     H 7488   8.682   7.130  10.929 -0.7463 -0.0278 -0.1199
   57MOL0     H 7489   8.556   7.326  10.935  0.0197 -1.8094  1.0015
   57MOL0     H 7490   8.425   7.462  10.842  2.6606 -0.8714  3.3801
   57MOL0     H 7491   8.407   7.613  10.750 -0.6364 -0.3092  0.3472
   57MOL0     H 7492   8.562   7.736  10.919  2.4666 -0.5840 -0.1546
   57MOL0     H 7493   8.564   7.603  11.026  1.7919  3.3198  0.2019
   57MOL0     H 7494   8.303   7.587  11.017  1.2626 -0.4713  2.3318
   57MOL0     H 7495   8.310   7.758  10.959  0.4787  1.4983  1.9051
   57MOL0     H 7496   8.390   7.640  11.221  0.8174 -0.4452 -1.5148
   57MOL0     H 7497   8.463   7.798  11.150 -1.1330  3.0506  0.8082
   57MOL0     H 7498   8.183   7.738  11.252 -0.5281 -1.2302 -2.1646
   57MOL0     H 7499   8.232   7.885  11.154  2.2573 -0.3941  0.2447
   57MOL0     H 7500   8.414   7.928  11.353  1.3010 -0.4549  0.3596
   57MOL0     H 7501   8.365   7.786  11.416  2.3164  1.6111  1.0365
   57MOL0     H 7502   8.248   7.991  11.522  0.5137 -2.6448  2.0340
   57MOL0     H 7503   8.182   8.025  11.370  0.7344 -0.9579 -1.5739
   57MOL0     H 7504   8.039   7.915  11.547  0.5491 -0.2768  0.1012
   57MOL0     H 7505   8.096   7.764  11.496 -2.6104  0.0825  1.4864
   57MOL0     H 7506   8.858   7.512  10.663  1.0973 -0.8325 -0.2493
   57MOL0     H 7507   8.971   7.332  10.661 -1.4073  0.8336 -1.6355
   57MOL0     H 7508   9.276   7.008  10.654  0.1886 -0.4950  0.2797
   57MOL0     H 7509   9.378   6.780  10.649  0.4082 -1.7027 -1.9010
   57MOL0     H 7510  10.865   7.029  10.855 -0.7746 -0.9539  0.9955
   57MOL0     H 7511  11.105   7.026  10.937 -2.3149  0.3776  1.2599
   57MOL0     H 7512  11.351   6.697  11.342  0.1291 -0.3217  0.7847
   57MOL0     H 7513  11.580   6.649  11.424 -0.5032 -1.1575  0.6254
   57MOL0     H 7514  11.849   6.503  11.107  1.9174 -1.9639 -0.2965
   57MOL0     H 7515  11.773   6.371  11.217 -1.3173  0.3955  0.3350
   57MOL0     H 7516  12.025   6.520  11.239  0.9336 -0.5248 -2.1050
   57MOL0     H 7517  11.953   6.431  11.381 -1.4533 -0.9823  0.5025
   57MOL0     H 7518  12.040   6.312  11.104  0.9894  0.4553 -0.4779
   57MOL0     H 7519  11.939   6.221  11.216 -1.6128  2.0531  2.3550
   57MOL0     H 7520  12.118   6.224  11.398  1.4194  2.3255  1.3307
   57MOL0     H 7521  12.184   6.154  11.258  0.7427 -0.3782  2.4935
   57MOL0     H 7522  12.406   6.529  11.265 -0.0623  0.5855 -3.6285
   57MOL0     H 7523  11.706   6.612  11.015 -0.2651  0.0830 -0.6449
   57MOL0     H 7524  11.504   6.704  10.935  2.8698 -0.4364 -0.7566
   58MOL0     O 7525   8.023   4.563   5.341 -0.3413  0.2877 -0.2014
   58MOL0     C 7526   8.048   4.625   5.446  0.1960 -0.1733  0.1317
   58MOL0     O 7527   7.961   4.685   5.528  0.5371 -0.8189  0.2464
   58MOL0     C 7528   7.822   4.689   5.506 -0.4375  0.0258  0.1260
   58MOL0     C 7529   7.752   4.582   5.443 -0.4575  0.6605  0.0371
   58MOL0     C 7530   7.603   4.594   5.439 -0.4636  1.0965  0.2058
   58MOL0     C 7531   7.535   4.697   5.513  0.5673  0.3722 -0.3792
   58MOL0     O 7532   7.393   4.717   5.529  0.0990  0.1468  0.8387
   58MOL0     C 7533   7.323   4.618   5.605  1.3916  0.0335 -0.1106
   58MOL0     C 7534   7.168   4.629   5.570  0.1431  0.6853  0.1264
   58MOL0     C 7535   7.144   4.586   5.428 -0.2495  0.0722  0.4768
   58MOL0     C 7536   7.001   4.606   5.376 -0.4189 -0.1852  0.2184
   58MOL0     C 7537   6.913   4.478   5.392  0.7194 -0.2020  0.6257
   58MOL0     C 7538   6.933   4.390   5.521 -0.7065 -0.9245  0.1494
   58MOL0     C 7539   6.819   4.281   5.539 -0.3178  0.4196 -1.0554
   58MOL0     C 7540   6.865   4.186   5.652 -0.5587 -0.0635  0.0324
   58MOL0     N 7541   6.834   4.236   5.785 -0.4615  0.8420 -0.0473
   58MOL0     C 7542   6.917   4.323   5.847 -0.8236 -0.2723  0.7604
   58MOL0     C 7543   6.885   4.331   5.970  0.2047 -0.0430 -0.8055
   58MOL0     C 7544   6.938   4.403   6.092 -0.6533  0.0929  0.0137
   58MOL0     C 7545   7.085   4.357   6.110  0.4793 -0.2737 -0.4853
   58MOL0     C 7546   7.175   4.433   6.023  0.3736 -0.7993 -0.7938
   58MOL0     C 7547   7.321   4.394   6.031 -0.3160  0.2522 -0.2623
   58MOL0     O 7548   7.401   4.464   5.941 -0.0087  0.2151 -0.0943
   58MOL0     C 7549   7.537   4.456   5.940  0.2011 -0.1491  0.1271
   58MOL0     C 7550   7.611   4.509   5.833 -0.0693  0.2874 -0.1206
   58MOL0     C 7551   7.746   4.509   5.826 -0.8188 -0.5462  0.5000
   58MOL0     C 7552   7.821   4.444   5.924  0.0032 -0.7093 -0.4235
   58MOL0     C 7553   7.967   4.440   5.923 -0.3928  0.3852 -0.9897
   58MOL0     O 7554   8.028   4.400   6.042  0.3271 -0.3316  0.3727
   58MOL0     C 7555   8.163   4.381   6.053 -0.3038 -0.1577 -0.6105
   58MOL0     C 7556   8.259   4.470   6.007  0.1226  0.5316  0.9197
   58MOL0     C 7557   8.394   4.453   6.023 -0.2348 -0.0939  0.4828
   58MOL0     C 7558   8.440   4.363   6.117 -0.0448 -0.5000  0.1840
   58MOL0     O 7559   8.573   4.367   6.138  0.7874  0.4403  0.3800
   58MOL0     C 7560   8.628   4.272   6.225 -0.8347  0.6314 -0.4693
   58MOL0     C 7561   8.776   4.297   6.261 -0.2828 -0.8444 -0.5274
   58MOL0     C 7562   8.849   4.297   6.129 -0.2582  0.1682 -0.1304
   58MOL0     C 7563   8.995   4.342   6.136  0.2182 -0.3901  0.2064
   58MOL0     C 7564   9.055   4.333   5.998  0.0316  0.0278  0.0951
   58MOL0     C 7565   9.193   4.398   5.992 -0.4177  0.1903 -0.2606
   58MOL0     C 7566   9.246   4.429   5.850 -0.3077 -0.1428  1.2375
   58MOL0     C 7567   9.403   4.435   5.862  0.7314 -0.0403  0.2976
   58MOL0    Cl 7568   9.461   4.260   5.886 -0.2179 -0.2507  0.1561
   58MOL0     C 7569   8.346   4.273   6.173  0.2567 -0.2404  0.7640
   58MOL0     C 7570   8.212   4.273   6.138  0.5091 -0.4823 -0.9415
   58MOL0     O 7571   8.026   4.472   5.819 -0.1400 -0.6861 -0.6541
   58MOL0     C 7572   7.752   4.374   6.024 -0.0470  0.8817  0.2107
   58MOL0     C 7573   7.611   4.376   6.029 -0.5437  0.0429 -0.1865
   58MOL0     N 7574   6.767   4.264   5.980  0.2838  0.4743 -0.6823
   58MOL0     N 7575   6.740   4.197   5.873 -0.2836  0.4559  0.5080
   58MOL0     C 7576   7.612   4.797   5.570 -0.3261  0.0608 -0.0432
   58MOL0     C 7577   7.757   4.793   5.565  0.3493 -0.4228 -0.4726
   58MOL0     C 7578   8.188   4.611   5.488  0.0652  0.3796 -0.2048
   58MOL0     C 7579   8.293   4.571   5.408 -0.7805 -0.0512  0.4238
   58MOL0     C 7580   8.421   4.559   5.453 -1.4965  0.5506  0.4073
   58MOL0     C 7581   8.455   4.573   5.588  0.2102 -0.4117  0.1529
   58MOL0     O 7582   8.581   4.549   5.635  0.1120  0.1302  0.2302
   58MOL0     C 7583   8.627   4.623   5.751 -0.3837 -0.0521  0.5802
   58MOL0     C 7584   8.755   4.557   5.807 -0.7520 -0.7991 -0.0064
   58MOL0     C 7585   8.881   4.613   5.735 -0.5615  0.2975  0.3159
   58MOL0     C 7586   8.916   4.546   5.593  0.1770 -0.8554  0.3291
   58MOL0     C 7587   8.936   4.403   5.600  0.4229 -1.1199 -0.0818
   58MOL0     C 7588   8.936   4.281   5.613  0.4326 -0.0798 -0.1993
   58MOL0     C 7589   8.346   4.607   5.675  0.8252 -0.9910 -0.6945
   58MOL0     C 7590   8.217   4.624   5.624  0.4326  0.3738  0.3812
   58MOL0     H 7591   7.798   4.496   5.395 -0.6014 -2.0757  4.2322
   58MOL0     H 7592   7.552   4.517   5.383  0.3419  2.1794 -2.1976
   58MOL0     H 7593   7.341   4.634   5.711  0.2387 -1.6579  0.3760
   58MOL0     H 7594   7.370   4.522   5.581 -2.0093 -1.0857 -3.3424
   58MOL0     H 7595   7.143   4.736   5.573  2.8944  1.4984 -1.3864
   58MOL0     H 7596   7.102   4.571   5.633 -0.5898  0.7871 -0.5304
   58MOL0     H 7597   7.176   4.482   5.415 -0.3838 -0.0366  0.9766
   58MOL0     H 7598   7.207   4.652   5.369 -0.8753  0.1926 -0.0780
   58MOL0     H 7599   6.949   4.694   5.417  0.5308  1.6000 -2.1801
   58MOL0     H 7600   7.013   4.624   5.269  2.1954 -1.4518  0.2218
   58MOL0     H 7601   6.943   4.419   5.305 -0.1550 -1.1338  0.9393
   58MOL0     H 7602   6.809   4.507   5.378  0.1770 -3.2138 -3.6328
   58MOL0     H 7603   6.922   4.457   5.607  2.4761 -0.3582  0.2339
   58MOL0     H 7604   7.034   4.351   5.533  0.1038  0.7946 -0.7398
   58MOL0     H 7605   6.723   4.325   5.569 -0.8555 -1.2069 -0.2716
   58MOL0     H 7606   6.806   4.229   5.444 -1.0494  1.4229 -1.5313
   58MOL0     H 7607   6.974   4.170   5.653 -0.3168  1.4831  0.0292
   58MOL0     H 7608   6.813   4.092   5.632 -0.1668 -0.4348  0.7059
   58MOL0     H 7609   7.005   4.372   5.808 -0.7693 -0.0982  1.0975
   58MOL0     H 7610   6.868   4.382   6.173 -0.4855  2.6930  0.9415
   58MOL0     H 7611   6.939   4.512   6.086 -0.1066  0.3864  3.3418
   58MOL0     H 7612   7.101   4.253   6.080  2.2572 -0.5833  1.2811
   58MOL0     H 7613   7.115   4.368   6.215  2.9413 -0.3724 -1.1268
   58MOL0     H 7614   7.148   4.433   5.917 -0.9308 -0.8778 -0.4775
   58MOL0     H 7615   7.160   4.537   6.054  1.4887 -0.0861 -2.5102
   58MOL0     H 7616   7.325   4.288   6.004 -0.6262 -0.0762  0.9310
   58MOL0     H 7617   7.367   4.418   6.127  2.4986  2.2630 -1.9633
   58MOL0     H 7618   7.570   4.567   5.751 -1.8970 -1.7797 -0.7544
   58MOL0     H 7619   7.794   4.561   5.743  1.5948 -2.3378  0.6776
   58MOL0     H 7620   8.228   4.569   5.974  1.9253  0.3624 -1.5930
   58MOL0     H 7621   8.471   4.509   5.970  0.8630  0.4754  2.5533
   58MOL0     H 7622   8.632   4.176   6.174  1.8357  0.8522 -0.8474
   58MOL0     H 7623   8.574   4.270   6.320 -0.2564 -1.5224 -0.1446
   58MOL0     H 7624   8.821   4.225   6.329  0.1801  1.2828  1.5532
   58MOL0     H 7625   8.775   4.389   6.320  1.4041 -2.3940  2.0921
   58MOL0     H 7626   8.787   4.343   6.052 -1.9132 -0.5959  0.7085
   58MOL0     H 7627   8.847   4.191   6.102  0.0747 -0.2799  1.4470
   58MOL0     H 7628   8.993   4.446   6.168 -1.1598 -0.4191  0.2511
   58MOL0     H 7629   9.066   4.288   6.201  1.3854 -0.2990 -0.9576
   58MOL0     H 7630   8.997   4.397   5.930  0.2996  1.4145  1.1266
   58MOL0     H 7631   9.065   4.232   5.958  0.7320  0.2677 -0.3479
   58MOL0     H 7632   9.265   4.338   6.048  0.5142  0.7891 -0.7961
   58MOL0     H 7633   9.179   4.497   6.036 -1.3428  0.2575 -0.6794
   58MOL0     H 7634   9.215   4.350   5.781  2.0134  0.8600 -1.1054
   58MOL0     H 7635   9.205   4.522   5.810 -1.2078 -1.8672 -2.2287
   58MOL0     H 7636   9.447   4.501   5.937  1.6554 -0.6643  0.3142
   58MOL0     H 7637   9.446   4.479   5.772  1.7698  0.3519  0.9720
   58MOL0     H 7638   8.383   4.197   6.241  1.3838 -0.0860  0.3585
   58MOL0     H 7639   8.144   4.197   6.175  0.5111 -2.1023 -4.0381
   58MOL0     H 7640   7.808   4.311   6.092  0.9171  1.0707 -0.4022
   58MOL0     H 7641   7.570   4.318   6.111  0.4530  0.6487  0.7723
   58MOL0     H 7642   7.570   4.885   5.617  0.7699  1.3484 -1.3931
   58MOL0     H 7643   7.817   4.868   5.615 -2.2605  2.2980 -1.1469
   58MOL0     H 7644   8.275   4.555   5.303 -0.3260  3.3003 -0.2716
   58MOL0     H 7645   8.505   4.548   5.386 -0.8845  1.1113  1.0685
   58MOL0     H 7646   8.557   4.625   5.835 -1.3417 -1.9383 -0.1268
   58MOL0     H 7647   8.640   4.728   5.725  0.4811  0.3745  2.5256
   58MOL0     H 7648   8.768   4.586   5.912  1.7087 -0.0462 -0.4595
   58MOL0     H 7649   8.751   4.448   5.810  1.3015 -0.9639 -1.1710
   58MOL0     H 7650   8.967   4.586   5.797 -1.6687 -0.9898  1.3463
   58MOL0     H 7651   8.878   4.723   5.732  0.4831  0.4245  2.2398
   58MOL0     H 7652   8.846   4.572   5.513  1.1914  2.0481  0.2898
   58MOL0     H 7653   9.006   4.597   5.557 -0.4222 -1.1051 -1.6508
   58MOL0     H 7654   8.936   4.175   5.631  2.8545 -0.0078  0.5061
   58MOL0     H 7655   8.345   4.616   5.783 -0.8604  1.5499 -0.8540
   58MOL0     H 7656   8.137   4.657   5.688 -0.9311 -1.1921 -0.4363
   59MOL0     O 7657   0.456  10.767   0.050 -0.3994  0.6650 -0.3201
   59MOL0     C 7658   0.465  10.885   0.086  0.2449  0.0419  0.0301
   59MOL0     O 7659   0.360  10.971   0.092  0.4560 -0.5019 -0.1877
   59MOL0     C 7660   0.242  10.927   0.034 -0.5372  0.2550 -0.0985
   59MOL0     C 7661   0.172  10.819   0.098  0.1901  0.0770  0.1067
   59MOL0     C 7662   0.051  10.777   0.030 -0.6826  0.0760 -0.0701
   59MOL0     C 7663  -0.004  10.854  -0.074  0.0619 -0.7429 -0.1214
   59MOL0     O 7664  -0.123  10.817  -0.137 -0.1441  0.6469  0.0889
   59MOL0     C 7665  -0.244  10.795  -0.056 -0.0584 -0.0571 -0.3247
   59MOL0     C 7666  -0.368  10.766  -0.154 -0.1693  0.0109 -0.6135
   59MOL0     C 7667  -0.487  10.774  -0.065  0.4516 -0.0878 -0.5573
   59MOL0     C 7668  -0.623  10.723  -0.113 -0.6451  0.2577  0.3731
   59MOL0     C 7669  -0.744  10.737  -0.019 -0.3075 -0.4645 -0.2462
   59MOL0     C 7670  -0.789  10.882  -0.015 -0.0340  0.0208 -0.1491
   59MOL0     C 7671  -0.915  10.893   0.066 -0.4776  0.1528 -0.1337
   59MOL0     C 7672  -0.939  11.039   0.097 -0.2858 -0.2051  0.1081
   59MOL0     N 7673  -1.067  11.055   0.176 -0.3574 -0.5163 -0.8687
   59MOL0     C 7674  -1.162  10.962   0.212  0.4349  0.2006  0.5572
   59MOL0     C 7675  -1.270  11.030   0.264  0.0581 -0.1908 -0.0363
   59MOL0     C 7676  -1.378  10.978   0.341 -0.5682 -0.2600  0.5693
   59MOL0     C 7677  -1.462  11.087   0.414  0.0008 -0.0414 -0.7099
   59MOL0     C 7678  -1.593  11.020   0.455  0.1322  0.4300 -0.4993
   59MOL0     C 7679  -1.685  11.121   0.507  1.1910  0.6310 -0.1282
   59MOL0     O 7680  -1.823  11.092   0.481 -0.6040 -0.1330 -0.4775
   59MOL0     C 7681  -1.914  11.195   0.505 -0.4050  0.4514  1.2590
   59MOL0     C 7682  -2.045  11.146   0.520 -1.1684  0.2068 -0.0455
   59MOL0     C 7683  -2.147  11.232   0.543 -0.6348  0.2703  0.2359
   59MOL0     C 7684  -2.122  11.372   0.559  0.5795  0.4537  0.5571
   59MOL0     C 7685  -2.233  11.475   0.568 -0.8402  0.8213 -0.7434
   59MOL0     O 7686  -2.359  11.422   0.550  0.0457  0.3441 -0.3220
   59MOL0     C 7687  -2.465  11.507   0.563 -0.0742 -0.0362 -0.1931
   59MOL0     C 7688  -2.522  11.542   0.683  0.0790  1.1540  0.2722
   59MOL0     C 7689  -2.612  11.642   0.694 -0.5278  0.4578  0.1278
   59MOL0     C 7690  -2.661  11.713   0.584  0.0869  0.1575 -0.1814
   59MOL0     O 7691  -2.750  11.813   0.598 -0.0250 -0.8246  0.5593
   59MOL0     C 7692  -2.856  11.800   0.687 -0.7727 -0.0376 -0.0848
   59MOL0     C 7693  -2.987  11.872   0.659  0.2028 -0.0031  0.3199
   59MOL0     C 7694  -3.067  11.804   0.552 -0.0473 -0.8342  0.0179
   59MOL0     C 7695  -3.182  11.888   0.518  0.4852  0.6162 -0.1580
   59MOL0     C 7696  -3.282  11.816   0.426 -0.3853  0.3163  1.0346
   59MOL0     C 7697  -3.386  11.903   0.364  0.1187  0.0394  0.3490
   59MOL0     C 7698  -3.461  11.825   0.253  0.0250  0.0584  0.0823
   59MOL0     C 7699  -3.490  11.912   0.129  0.1626 -0.3922 -0.1756
   59MOL0    Cl 7700  -3.606  12.042   0.164 -0.6714 -0.2328 -0.4465
   59MOL0     C 7701  -2.622  11.663   0.456  0.4697 -0.6691  0.1474
   59MOL0     C 7702  -2.528  11.555   0.440 -0.1072  0.2850  0.7826
   59MOL0     O 7703  -2.208  11.591   0.589  0.3230 -0.7682  0.2424
   59MOL0     C 7704  -1.991  11.419   0.543  0.1512  0.5448  0.2642
   59MOL0     C 7705  -1.884  11.331   0.520  0.5037 -0.0161  1.1350
   59MOL0     N 7706  -1.239  11.164   0.242 -0.3400  0.4232  0.1924
   59MOL0     N 7707  -1.124  11.179   0.193 -0.5756  0.1146 -0.0047
   59MOL0     C 7708   0.071  10.947  -0.141 -0.1249 -0.1214 -0.4963
   59MOL0     C 7709   0.197  10.974  -0.092  0.2576 -0.2093 -0.4896
   59MOL0     C 7710   0.593  10.933   0.130 -0.4678 -0.4517  0.5646
   59MOL0     C 7711   0.617  11.067   0.166 -0.4390 -0.6809  0.9293
   59MOL0     C 7712   0.738  11.113   0.203  0.5369  0.5392 -0.2225
   59MOL0     C 7713   0.839  11.023   0.231  0.1460  0.0371  1.4099
   59MOL0     O 7714   0.963  11.060   0.276  0.0312  0.2578  0.0818
   59MOL0     C 7715   0.977  11.197   0.324  1.1280  0.4056  0.2942
   59MOL0     C 7716   1.113  11.199   0.391  0.8029  0.3740 -0.4715
   59MOL0     C 7717   1.117  11.097   0.501 -0.1724 -0.0809 -0.4004
   59MOL0     C 7718   1.255  11.099   0.569  0.0319 -0.9646 -0.6203
   59MOL0     C 7719   1.266  11.223   0.648 -0.3275  0.5656  0.0461
   59MOL0     C 7720   1.276  11.330   0.701 -0.4654 -0.2316  0.6327
   59MOL0     C 7721   0.838  10.892   0.192  0.1543 -0.3378 -0.1736
   59MOL0     C 7722   0.709  10.848   0.146 -0.6776  0.5864  0.3562
   59MOL0     H 7723   0.207  10.768   0.188 -1.9050 -1.8499 -0.0962
   59MOL0     H 7724   0.010  10.682   0.061  3.3630 -0.9303  3.0214
   59MOL0     H 7725  -0.267  10.884   0.004  0.3219 -0.0068 -0.2535
   59MOL0     H 7726  -0.233  10.707   0.006  0.9433 -0.1645 -0.6355
   59MOL0     H 7727  -0.361  10.673  -0.210 -1.1926 -0.1886 -0.4228
   59MOL0     H 7728  -0.375  10.853  -0.220 -1.5592  0.6610  0.3362
   59MOL0     H 7729  -0.517  10.878  -0.047 -2.5514 -0.6760 -1.6047
   59MOL0     H 7730  -0.463  10.729   0.032  0.0531  0.9685  0.0521
   59MOL0     H 7731  -0.645  10.784  -0.201  1.0426 -0.9941 -0.9878
   59MOL0     H 7732  -0.613  10.615  -0.124  1.6178  0.4660 -0.0914
   59MOL0     H 7733  -0.721  10.704   0.083 -1.4746 -0.1601  0.1232
   59MOL0     H 7734  -0.820  10.672  -0.063  0.5473 -0.4936 -1.7404
   59MOL0     H 7735  -0.807  10.909  -0.119  0.9246  0.9613 -0.0853
   59MOL0     H 7736  -0.706  10.944   0.020 -0.2464  0.3663 -0.2556
   59MOL0     H 7737  -0.999  10.849   0.012  0.8596 -0.3396 -1.9368
   59MOL0     H 7738  -0.900  10.841   0.161 -0.0987 -0.4940 -0.5355
   59MOL0     H 7739  -0.948  11.077  -0.006 -0.0886  0.1332  0.2120
   59MOL0     H 7740  -0.857  11.092   0.147 -2.1591  3.0112  0.0677
   59MOL0     H 7741  -1.165  10.853   0.205  1.1262  0.2730 -2.3129
   59MOL0     H 7742  -1.353  10.890   0.401 -0.0307 -1.7817 -1.7672
   59MOL0     H 7743  -1.441  10.930   0.265 -0.5744 -1.5959  1.3863
   59MOL0     H 7744  -1.483  11.179   0.358  0.0332  1.1846  1.1763
   59MOL0     H 7745  -1.410  11.121   0.504  0.7720 -1.5402 -0.5630
   59MOL0     H 7746  -1.641  10.957   0.380  0.1650 -2.7171  1.9147
   59MOL0     H 7747  -1.573  10.958   0.543  0.9363  0.6165 -0.5436
   59MOL0     H 7748  -1.656  11.219   0.468 -1.0581  1.1895 -0.5011
   59MOL0     H 7749  -1.675  11.125   0.616 -2.3136 -0.6693  0.3567
   59MOL0     H 7750  -2.067  11.040   0.511  0.1332 -0.3130  2.0532
   59MOL0     H 7751  -2.243  11.181   0.543  0.5429 -2.0872  1.0808
   59MOL0     H 7752  -2.477  11.499   0.772  3.0424  1.5091 -0.9269
   59MOL0     H 7753  -2.636  11.678   0.794  0.1798  1.9662 -0.2253
   59MOL0     H 7754  -2.833  11.831   0.790  0.0623 -2.6323  0.5698
   59MOL0     H 7755  -2.875  11.693   0.688  3.0323 -0.8717 -0.7717
   59MOL0     H 7756  -2.962  11.972   0.625  4.7483 -1.1333 -0.4158
   59MOL0     H 7757  -3.035  11.885   0.756 -0.7117 -0.6170 -0.0355
   59MOL0     H 7758  -3.097  11.701   0.577 -2.6027  0.5047  3.1637
   59MOL0     H 7759  -2.993  11.794   0.472 -1.2669  0.2183 -1.2887
   59MOL0     H 7760  -3.234  11.911   0.611  2.0922  3.0470  0.2172
   59MOL0     H 7761  -3.162  11.984   0.471 -1.2721  0.9557 -0.2771
   59MOL0     H 7762  -3.332  11.737   0.482 -0.2605 -1.0534 -0.6790
   59MOL0     H 7763  -3.220  11.769   0.349  1.1868  0.5577  2.1087
   59MOL0     H 7764  -3.337  11.987   0.313  1.6409 -1.3190 -0.5372
   59MOL0     H 7765  -3.455  11.936   0.442  2.5462 -1.3801  3.3105
   59MOL0     H 7766  -3.421  11.727   0.226 -0.6029 -0.7836  2.0736
   59MOL0     H 7767  -3.555  11.788   0.294  2.1126 -3.3137  2.2579
   59MOL0     H 7768  -3.530  11.856   0.044  0.1352 -0.5111 -0.0847
   59MOL0     H 7769  -3.403  11.972   0.099  0.4811  0.3898  2.1255
   59MOL0     H 7770  -2.665  11.701   0.364 -0.0525 -2.0848 -0.2296
   59MOL0     H 7771  -2.492  11.519   0.344  2.4706  0.9461  1.4208
   59MOL0     H 7772  -1.971  11.526   0.534 -1.0613  0.9105  1.7071
   59MOL0     H 7773  -1.783  11.367   0.503  0.7186 -1.4356 -0.9638
   59MOL0     H 7774   0.021  10.995  -0.225  1.7786 -1.4361 -2.5057
   59MOL0     H 7775   0.265  11.050  -0.129 -1.2883 -0.0717 -3.3855
   59MOL0     H 7776   0.542  11.143   0.148 -0.3222 -0.5675  0.9218
   59MOL0     H 7777   0.755  11.220   0.216  6.0774  0.2346 -2.2897
   59MOL0     H 7778   0.894  11.212   0.393  0.6182 -1.4701  0.1530
   59MOL0     H 7779   0.970  11.279   0.251 -0.3845  0.6406  0.6745
   59MOL0     H 7780   1.193  11.182   0.319 -1.3947 -2.9304 -2.4142
   59MOL0     H 7781   1.115  11.296   0.441  1.5261 -0.8877  2.1340
   59MOL0     H 7782   1.098  11.003   0.447 -0.7341  0.4375 -1.1334
   59MOL0     H 7783   1.047  11.117   0.583  0.6734 -0.4113  0.4138
   59MOL0     H 7784   1.268  11.020   0.644 -2.3447  1.3206  2.4694
   59MOL0     H 7785   1.338  11.099   0.499  1.9445 -0.9448  1.5415
   59MOL0     H 7786   1.271  11.429   0.742 -2.4483  0.7790 -1.7553
   59MOL0     H 7787   0.925  10.828   0.200  1.9290  1.8969 -0.8472
   59MOL0     H 7788   0.687  10.742   0.133  1.0763  0.1460  0.7464
   60MOL0     O 7789  10.766   9.109   6.237  0.4024 -0.2612  0.9625
   60MOL0     C 7790  10.741   9.123   6.352 -0.4484 -0.4961 -0.7438
   60MOL0     O 7791  10.643   9.211   6.408 -0.0225  0.5899  0.4386
   60MOL0     C 7792  10.571   9.284   6.310  0.2083 -0.3125 -1.5966
   60MOL0     C 7793  10.431   9.280   6.327  0.4147 -0.1133  0.8379
   60MOL0     C 7794  10.357   9.337   6.224  0.2786  0.4127  0.0863
   60MOL0     C 7795  10.416   9.416   6.121  0.9637  0.6835  0.1700
   60MOL0     O 7796  10.343   9.486   6.028 -0.2977 -0.9494 -0.3407
   60MOL0     C 7797  10.194   9.494   6.036 -0.1681  0.6496 -0.5625
   60MOL0     C 7798  10.143   9.591   6.139  0.8145 -0.4193 -0.1810
   60MOL0     C 7799   9.993   9.630   6.126  0.9860 -0.4751 -0.0576
   60MOL0     C 7800   9.960   9.770   6.190  0.5459  0.7156 -0.1740
   60MOL0     C 7801   9.812   9.823   6.173  0.4472  0.7122 -0.1592
   60MOL0     C 7802   9.700   9.715   6.184  0.8086  1.5226 -0.6929
   60MOL0     C 7803   9.559   9.763   6.148 -0.2069  0.0195  0.4323
   60MOL0     C 7804   9.473   9.807   6.272 -0.8369 -0.3298 -0.5011
   60MOL0     N 7805   9.523   9.930   6.339 -0.0426  0.3136  0.0879
   60MOL0     C 7806   9.625   9.935   6.438  1.0969 -0.5108  1.0710
   60MOL0     C 7807   9.632  10.072   6.459 -0.1584  0.5434 -0.1495
   60MOL0     C 7808   9.720  10.144   6.559 -0.5240 -0.1217  1.1420
   60MOL0     C 7809   9.836  10.059   6.616  1.4280 -0.5585  0.7835
   60MOL0     C 7810   9.932  10.007   6.513  0.7391  0.2853 -0.8962
   60MOL0     C 7811  10.064   9.963   6.572  0.0973 -0.7123  0.4381
   60MOL0     O 7812  10.151   9.912   6.467 -0.1707 -0.8365 -0.4973
   60MOL0     C 7813  10.271   9.855   6.502  0.5870 -0.1127 -1.1229
   60MOL0     C 7814  10.318   9.833   6.629 -0.7476 -0.5365  0.3417
   60MOL0     C 7815  10.441   9.784   6.641 -0.6579 -0.0335 -0.3620
   60MOL0     C 7816  10.524   9.749   6.540 -0.8602 -0.4018 -0.2573
   60MOL0     C 7817  10.668   9.707   6.558  0.4710 -0.0732  0.8958
   60MOL0     O 7818  10.715   9.654   6.442 -0.0873 -0.0156 -0.3135
   60MOL0     C 7819  10.831   9.585   6.459  0.4679 -0.6627 -0.3281
   60MOL0     C 7820  10.826   9.462   6.513 -0.2586  1.0110 -1.1215
   60MOL0     C 7821  10.951   9.390   6.521  0.0686  0.3852  0.3137
   60MOL0     C 7822  11.070   9.437   6.466  0.2937  0.4411 -0.5533
   60MOL0     O 7823  11.180   9.358   6.474 -0.4242  0.4977  0.0802
   60MOL0     C 7824  11.244   9.335   6.604  0.2882 -0.4143 -0.1507
   60MOL0     C 7825  11.395   9.301   6.605 -0.4799  0.1387 -0.3440
   60MOL0     C 7826  11.442   9.247   6.740 -0.1288 -0.2038  0.1657
   60MOL0     C 7827  11.595   9.247   6.744  0.4006 -0.0884  0.6728
   60MOL0     C 7828  11.646   9.207   6.889 -0.1108  0.2968  0.0951
   60MOL0     C 7829  11.767   9.105   6.883 -1.0101  0.1307  0.2889
   60MOL0     C 7830  11.787   9.023   7.012 -0.4145 -0.1592 -0.7200
   60MOL0     C 7831  11.841   9.096   7.133  0.2598 -0.8457  0.9484
   60MOL0    Cl 7832  11.833   8.995   7.286 -0.2549 -0.4344  0.0819
   60MOL0     C 7833  11.065   9.565   6.409 -0.1756  0.3898  0.0564
   60MOL0     C 7834  10.950   9.641   6.401 -0.4317  0.1204 -0.4949
   60MOL0     O 7835  10.722   9.710   6.666 -0.2916 -0.2486 -0.3235
   60MOL0     C 7836  10.472   9.767   6.413 -0.3459  0.0308  0.4141
   60MOL0     C 7837  10.345   9.825   6.393 -0.5557  0.0226 -0.9392
   60MOL0     N 7838   9.556  10.137   6.371 -0.2849  0.1116 -0.4832
   60MOL0     N 7839   9.488  10.054   6.297 -0.4650  0.5480 -0.1238
   60MOL0     C 7840  10.557   9.437   6.127 -0.1565  0.3890 -0.9212
   60MOL0     C 7841  10.626   9.376   6.225  0.0471  0.2145 -0.0302
   60MOL0     C 7842  10.835   9.051   6.433 -0.1043  0.6482 -0.8788
   60MOL0     C 7843  10.970   9.019   6.387 -0.0996  0.0527  0.0852
   60MOL0     C 7844  11.046   8.931   6.469  0.8205  0.3629 -0.1938
   60MOL0     C 7845  10.994   8.883   6.596 -0.7973  0.1538  0.9647
   60MOL0     O 7846  11.051   8.795   6.687  0.2711 -0.1549 -0.4750
   60MOL0     C 7847  11.171   8.742   6.640 -0.2343  0.0013 -0.0882
   60MOL0     C 7848  11.292   8.838   6.668 -0.9794 -0.8946 -0.4769
   60MOL0     C 7849  11.423   8.755   6.646 -0.6987 -0.1493 -0.3569
   60MOL0     C 7850  11.535   8.818   6.726 -1.2311 -0.6603 -0.1538
   60MOL0     C 7851  11.657   8.747   6.700 -0.7334  0.1631 -0.0108
   60MOL0     C 7852  11.756   8.677   6.683  1.2597  0.4258 -0.6695
   60MOL0     C 7853  10.873   8.924   6.635 -0.7663  0.1863 -0.1460
   60MOL0     C 7854  10.793   9.008   6.565  0.1426  0.4520  0.3744
   60MOL0     H 7855  10.396   9.206   6.398  1.3575 -4.5234 -2.8419
   60MOL0     H 7856  10.249   9.330   6.236  0.1331  0.5618 -1.0340
   60MOL0     H 7857  10.138   9.403   6.058  1.2684  0.1561  1.2574
   60MOL0     H 7858  10.155   9.525   5.938  0.7272  3.0846 -0.2150
   60MOL0     H 7859  10.193   9.685   6.112  0.5431  0.8223  3.1185
   60MOL0     H 7860  10.165   9.551   6.238  0.1666 -2.3999 -0.7901
   60MOL0     H 7861   9.945   9.550   6.184 -0.5818 -0.9352 -1.8757
   60MOL0     H 7862   9.955   9.613   6.025 -0.5927  1.5800  0.1190
   60MOL0     H 7863   9.981   9.760   6.296  4.1933 -0.5884 -0.8723
   60MOL0     H 7864  10.030   9.839   6.143  0.9044 -0.0348 -0.7585
   60MOL0     H 7865   9.810   9.851   6.068  1.7869 -0.3077 -0.4888
   60MOL0     H 7866   9.789   9.901   6.247 -4.8696 -2.4990  2.1812
   60MOL0     H 7867   9.710   9.668   6.283  0.5640  1.1108 -0.8603
   60MOL0     H 7868   9.727   9.639   6.110 -0.2248  0.6139 -0.1748
   60MOL0     H 7869   9.548   9.844   6.075 -2.4367  1.0234  1.7631
   60MOL0     H 7870   9.509   9.683   6.094  0.3673  0.2723 -0.5018
   60MOL0     H 7871   9.481   9.725   6.344 -5.5526 -2.4538 -2.0252
   60MOL0     H 7872   9.366   9.807   6.247 -0.7498 -2.9619 -1.0954
   60MOL0     H 7873   9.667   9.845   6.481 -1.5107 -2.0155  0.6932
   60MOL0     H 7874   9.655  10.185   6.637 -3.8967 -0.9216 -1.0390
   60MOL0     H 7875   9.763  10.228   6.503  0.8462 -2.5270 -1.7246
   60MOL0     H 7876   9.795   9.982   6.682  1.9753 -1.7079 -0.1957
   60MOL0     H 7877   9.891  10.137   6.671  2.3305  0.1780 -1.0949
   60MOL0     H 7878   9.894   9.913   6.472  0.4720 -1.1624  2.3620
   60MOL0     H 7879   9.950  10.080   6.434  0.1752 -0.9435 -2.2067
   60MOL0     H 7880  10.043   9.889   6.650 -2.4069 -0.6026 -0.0488
   60MOL0     H 7881  10.109  10.047   6.624  1.5254 -1.3503  0.2680
   60MOL0     H 7882  10.260   9.860   6.716 -1.4378 -0.1933 -0.2152
   60MOL0     H 7883  10.466   9.772   6.746 -2.1554  1.5811  0.2331
   60MOL0     H 7884  10.733   9.417   6.546  1.2975  0.4931  3.1895
   60MOL0     H 7885  10.945   9.287   6.558  0.4074  0.3013  0.1343
   60MOL0     H 7886  11.195   9.247   6.645 -2.0472  0.9827  0.2426
   60MOL0     H 7887  11.227   9.420   6.671  0.8893 -0.4172  0.0173
   60MOL0     H 7888  11.452   9.389   6.575  2.0019 -1.7560 -1.5350
   60MOL0     H 7889  11.414   9.230   6.524  2.8196  0.5763 -0.0898
   60MOL0     H 7890  11.402   9.148   6.764 -4.0397  1.0614 -0.3651
   60MOL0     H 7891  11.413   9.321   6.816  0.2014 -0.5463  0.6307
   60MOL0     H 7892  11.641   9.182   6.670 -0.7132 -1.2899  0.9915
   60MOL0     H 7893  11.625   9.351   6.726 -0.2698  0.2571  1.4438
   60MOL0     H 7894  11.565   9.152   6.939 -2.7208  2.1860 -1.7643
   60MOL0     H 7895  11.673   9.294   6.950 -2.5464 -0.2902  2.2043
   60MOL0     H 7896  11.860   9.157   6.860 -0.6296 -0.6266  0.0988
   60MOL0     H 7897  11.752   9.038   6.798  0.7329 -0.1971  0.2147
   60MOL0     H 7898  11.686   8.988   7.035 -0.2141 -1.0242 -1.1112
   60MOL0     H 7899  11.853   8.939   6.989  1.1687  0.9891 -0.5540
   60MOL0     H 7900  11.790   9.192   7.146  1.0225 -0.3257  0.1705
   60MOL0     H 7901  11.943   9.121   7.103 -0.0740 -1.4510 -0.8058
   60MOL0     H 7902  11.161   9.597   6.370  0.4962 -2.2021 -0.6633
   60MOL0     H 7903  10.943   9.736   6.349 -2.4103 -0.9565 -2.3763
   60MOL0     H 7904  10.528   9.737   6.325  0.4415  2.7281 -0.1059
   60MOL0     H 7905  10.308   9.849   6.293 -0.3868  0.1672 -0.9679
   60MOL0     H 7906  10.606   9.507   6.060 -0.5691  2.8922  1.2203
   60MOL0     H 7907  10.734   9.381   6.222  0.1320 -1.1325 -2.5350
   60MOL0     H 7908  11.008   9.053   6.291  0.6530 -0.4710  0.1876
   60MOL0     H 7909  11.141   8.901   6.425 -0.0474  0.7083 -2.4130
   60MOL0     H 7910  11.167   8.717   6.534 -1.9944  0.1568 -0.0899
   60MOL0     H 7911  11.192   8.647   6.690  1.3330  0.4022  0.0787
   60MOL0     H 7912  11.281   8.924   6.601 -1.6848 -0.0277  0.7190
   60MOL0     H 7913  11.290   8.874   6.771 -2.5052 -2.2106  0.0069
   60MOL0     H 7914  11.447   8.744   6.540 -0.1000  1.7021 -0.4486
   60MOL0     H 7915  11.410   8.653   6.683  1.0841 -1.0973 -2.1281
   60MOL0     H 7916  11.543   8.922   6.692  0.4873 -0.0953  1.8002
   60MOL0     H 7917  11.521   8.817   6.834  1.1161  1.5704  0.2594
   60MOL0     H 7918  11.834   8.608   6.657  0.6933 -0.7518  0.6357
   60MOL0     H 7919  10.848   8.885   6.734 -0.5977 -1.8960 -0.8665
   60MOL0     H 7920  10.699   9.039   6.608 -0.2485 -1.2065  0.7840
   61MOL0     O 7921   2.767   7.158   7.952 -0.3459 -0.2182  0.1323
   61MOL0     C 7922   2.689   7.167   7.852 -0.1027 -0.0824 -0.5328
   61MOL0     O 7923   2.726   7.205   7.727 -0.8302  0.3161 -0.6855
   61MOL0     C 7924   2.860   7.231   7.692 -0.0147 -0.2582  0.3553
   61MOL0     C 7925   2.894   7.182   7.567 -0.2940 -0.7470  0.5780
   61MOL0     C 7926   3.025   7.196   7.526 -0.1026  0.9658  0.5878
   61MOL0     C 7927   3.124   7.263   7.602 -0.3364 -0.2613 -0.0215
   61MOL0     O 7928   3.245   7.265   7.543 -0.2457  0.4340  0.2380
   61MOL0     C 7929   3.355   7.312   7.610  0.5410 -0.4250 -1.4338
   61MOL0     C 7930   3.480   7.276   7.522  0.5394  0.0986  0.3741
   61MOL0     C 7931   3.603   7.314   7.592 -0.7403 -0.2141 -0.6990
   61MOL0     C 7932   3.722   7.265   7.507  0.1618 -0.2365 -0.8167
   61MOL0     C 7933   3.744   7.116   7.504 -0.6384  0.1755  0.4383
   61MOL0     C 7934   3.884   7.068   7.441 -0.9757 -0.5842  0.2830
   61MOL0     C 7935   4.002   7.125   7.515 -0.0698  0.0937 -0.0022
   61MOL0     C 7936   4.107   7.193   7.414  0.1611 -0.4530 -0.9331
   61MOL0     N 7937   4.245   7.222   7.484  0.6753 -0.0656  0.4573
   61MOL0     C 7938   4.354   7.137   7.476 -0.6302 -0.0549  0.6430
   61MOL0     C 7939   4.447   7.200   7.549  0.8835 -0.2157 -0.2182
   61MOL0     C 7940   4.586   7.147   7.566 -0.1850 -0.6779  0.0129
   61MOL0     C 7941   4.603   7.099   7.716 -0.4155  0.3907  0.3119
   61MOL0     C 7942   4.603   6.942   7.738  0.2411 -0.6890  0.4303
   61MOL0     C 7943   4.453   6.899   7.706  0.1424 -0.5407  0.0155
   61MOL0     O 7944   4.427   6.767   7.756 -0.5385 -0.2339  0.7541
   61MOL0     C 7945   4.323   6.693   7.725  0.5639 -0.2389  0.3183
   61MOL0     C 7946   4.313   6.571   7.780  0.2516  0.2424  0.2675
   61MOL0     C 7947   4.206   6.490   7.751  1.0369 -0.4045  0.3331
   61MOL0     C 7948   4.106   6.526   7.657 -0.6985  0.6753  0.2112
   61MOL0     C 7949   3.987   6.438   7.641 -0.3760  1.1451 -0.5355
   61MOL0     O 7950   3.983   6.325   7.729 -0.7059 -0.0666  0.3509
   61MOL0     C 7951   3.878   6.249   7.724  0.3556 -1.0526  0.4263
   61MOL0     C 7952   3.749   6.294   7.741  0.4849  0.1683  1.0643
   61MOL0     C 7953   3.642   6.201   7.732  0.3205 -0.0109 -0.1798
   61MOL0     C 7954   3.673   6.063   7.705 -0.2313 -0.2425  0.3619
   61MOL0     O 7955   3.583   5.961   7.698 -0.2812 -0.7289 -0.2923
   61MOL0     C 7956   3.444   5.985   7.684 -0.7164 -0.4413  0.6163
   61MOL0     C 7957   3.379   5.866   7.609 -0.2532  0.1822 -0.1935
   61MOL0     C 7958   3.226   5.890   7.576 -0.3889  0.3228 -0.3168
   61MOL0     C 7959   3.154   5.762   7.528 -0.3519 -0.4455 -0.4038
   61MOL0     C 7960   3.003   5.780   7.537 -0.1729  0.7942 -0.6783
   61MOL0     C 7961   2.936   5.673   7.434  0.1360  0.6597 -0.6302
   61MOL0     C 7962   2.784   5.660   7.448  0.0650  0.1668 -0.2983
   61MOL0     C 7963   2.727   5.552   7.359  0.3196  0.3006  0.4023
   61MOL0    Cl 7964   2.547   5.527   7.371  0.2165  0.3070 -0.3348
   61MOL0     C 7965   3.806   6.025   7.692 -0.0426  0.1558 -0.2426
   61MOL0     C 7966   3.905   6.116   7.700  0.3311  0.2879  0.3284
   61MOL0     O 7967   3.905   6.456   7.552 -0.5167 -0.4674  0.5062
   61MOL0     C 7968   4.134   6.645   7.584  0.4982  0.1510 -0.0513
   61MOL0     C 7969   4.237   6.735   7.618  1.0450  0.0490 -0.7010
   61MOL0     N 7970   4.391   7.312   7.616 -0.3049  0.4801  0.2384
   61MOL0     N 7971   4.269   7.321   7.573 -0.6298 -0.6064 -0.8441
   61MOL0     C 7972   3.094   7.308   7.733 -0.0118 -0.2565 -0.0184
   61MOL0     C 7973   2.961   7.287   7.778  0.1555 -0.5160 -0.3183
   61MOL0     C 7974   2.548   7.125   7.882 -0.2515 -0.4245 -0.0578
   61MOL0     C 7975   2.471   7.067   7.785  0.2400  0.2794  0.4824
   61MOL0     C 7976   2.330   7.047   7.810 -0.5641 -0.4622 -0.4422
   61MOL0     C 7977   2.274   7.070   7.939 -0.9625  0.8341 -0.5244
   61MOL0     O 7978   2.147   7.037   7.983 -0.6979 -0.3531  0.3658
   61MOL0     C 7979   2.044   7.010   7.891  0.5253 -1.0058 -0.0702
   61MOL0     C 7980   2.001   7.130   7.815  0.4589 -0.3773  0.6965
   61MOL0     C 7981   1.939   7.235   7.897  0.8168  0.0273 -0.6276
   61MOL0     C 7982   2.031   7.293   8.008  0.0574  0.2188 -0.3505
   61MOL0     C 7983   1.972   7.412   8.069  0.2510 -0.4023 -0.1549
   61MOL0     C 7984   1.945   7.518   8.122 -0.6199 -0.6513  0.0943
   61MOL0     C 7985   2.354   7.119   8.040 -0.3101  0.7411  0.4724
   61MOL0     C 7986   2.491   7.151   8.008  0.2001 -0.3074 -0.7660
   61MOL0     H 7987   2.819   7.144   7.499 -0.9165 -1.7799  1.7970
   61MOL0     H 7988   3.062   7.165   7.429  0.8315 -1.8239  1.7212
   61MOL0     H 7989   3.364   7.292   7.717 -2.4130  3.7337 -0.1723
   61MOL0     H 7990   3.340   7.420   7.618 -1.0309 -0.6961 -0.3889
   61MOL0     H 7991   3.476   7.320   7.422  0.1360  0.9760  0.7682
   61MOL0     H 7992   3.471   7.169   7.500 -1.5599  0.6074 -1.7554
   61MOL0     H 7993   3.610   7.275   7.694  1.4889  0.8784 -0.3695
   61MOL0     H 7994   3.623   7.421   7.600  1.9227 -0.7595  1.3318
   61MOL0     H 7995   3.724   7.306   7.406  0.8973  0.4117 -0.5507
   61MOL0     H 7996   3.806   7.308   7.563 -2.0298  0.2479  2.4144
   61MOL0     H 7997   3.658   7.076   7.450 -1.6330 -0.8236  2.6363
   61MOL0     H 7998   3.745   7.071   7.604 -1.3205 -0.1030  0.3241
   61MOL0     H 7999   3.894   7.096   7.336  1.9627 -4.4261 -0.6776
   61MOL0     H 8000   3.890   6.959   7.448  0.6850 -0.5768 -0.4978
   61MOL0     H 8001   3.968   7.202   7.585  2.4597  0.8786  0.4736
   61MOL0     H 8002   4.048   7.048   7.579 -0.3162 -0.4230 -0.4438
   61MOL0     H 8003   4.069   7.290   7.379 -1.9523 -1.4328 -1.4723
   61MOL0     H 8004   4.116   7.136   7.321  0.4039  1.4179 -2.1180
   61MOL0     H 8005   4.380   7.041   7.435 -0.6200  0.4067 -0.4684
   61MOL0     H 8006   4.655   7.231   7.554 -2.2936  1.5163  2.1774
   61MOL0     H 8007   4.618   7.064   7.502  3.1997 -0.4887  1.2564
   61MOL0     H 8008   4.518   7.140   7.773 -1.4078 -0.6384 -0.3940
   61MOL0     H 8009   4.697   7.143   7.749 -0.9182  2.8060 -1.2096
   61MOL0     H 8010   4.684   6.891   7.685  1.5773  1.4313  0.3211
   61MOL0     H 8011   4.619   6.926   7.845 -4.3543  3.6887  2.1870
   61MOL0     H 8012   4.446   6.910   7.598 -2.8717  0.5490  0.2337
   61MOL0     H 8013   4.376   6.969   7.740  1.6182  1.4831 -0.6502
   61MOL0     H 8014   4.380   6.542   7.860  3.0293  1.8174 -1.3359
   61MOL0     H 8015   4.207   6.389   7.792 -1.6451 -1.4732 -1.9112
   61MOL0     H 8016   3.729   6.401   7.749 -2.3611 -0.4070  3.2253
   61MOL0     H 8017   3.541   6.236   7.752  0.2665 -0.2302 -0.0578
   61MOL0     H 8018   3.436   6.078   7.627 -1.3178 -0.1631  1.1316
   61MOL0     H 8019   3.398   5.988   7.783  0.3564 -0.0079  1.1161
   61MOL0     H 8020   3.389   5.772   7.664 -2.8940 -1.0702 -1.6480
   61MOL0     H 8021   3.432   5.847   7.516  0.0037  2.2139 -0.5133
   61MOL0     H 8022   3.219   5.977   7.511  0.5075  2.6078  2.4282
   61MOL0     H 8023   3.179   5.922   7.670 -1.1252 -0.4050 -0.4219
   61MOL0     H 8024   3.193   5.747   7.427 -1.8669  3.2725 -1.7142
   61MOL0     H 8025   3.174   5.676   7.593  0.0856 -0.7417 -0.9244
   61MOL0     H 8026   2.971   5.878   7.500 -0.7338  1.7326  2.0782
   61MOL0     H 8027   2.974   5.770   7.642  0.0446 -1.7847 -0.7873
   61MOL0     H 8028   2.986   5.584   7.473  1.3948  1.0489 -1.2989
   61MOL0     H 8029   2.983   5.690   7.336  3.5925 -3.6051 -0.0043
   61MOL0     H 8030   2.767   5.636   7.553 -0.5616 -1.0464 -0.6543
   61MOL0     H 8031   2.736   5.757   7.433 -2.9212 -1.2095 -0.2979
   61MOL0     H 8032   2.781   5.459   7.380 -0.3478 -0.0668  0.5417
   61MOL0     H 8033   2.747   5.572   7.254 -1.9355  1.5414  0.1410
   61MOL0     H 8034   3.836   5.922   7.675  0.2471  0.0925  0.5732
   61MOL0     H 8035   4.005   6.078   7.680 -0.8823 -2.4875 -1.0268
   61MOL0     H 8036   4.062   6.666   7.506  1.9592 -0.8317 -1.7419
   61MOL0     H 8037   4.231   6.827   7.562 -1.5138  2.1895  2.6574
   61MOL0     H 8038   3.167   7.345   7.804  0.3263  1.6210 -1.2899
   61MOL0     H 8039   2.928   7.310   7.879 -0.9160 -0.0712 -0.7494
   61MOL0     H 8040   2.515   7.054   7.687  1.4666  0.2514  1.0109
   61MOL0     H 8041   2.268   7.012   7.727 -0.9294  0.2495 -0.4755
   61MOL0     H 8042   1.961   6.966   7.948 -2.3103  3.2068 -0.4713
   61MOL0     H 8043   2.075   6.933   7.820 -2.0557 -2.0667 -0.1916
   61MOL0     H 8044   2.094   7.164   7.768  0.7251 -2.3871 -0.3222
   61MOL0     H 8045   1.931   7.092   7.739 -0.8214  2.0744  0.5287
   61MOL0     H 8046   1.850   7.191   7.942  2.9549 -2.9822  0.9635
   61MOL0     H 8047   1.907   7.318   7.832 -1.3266  1.0261  1.5266
   61MOL0     H 8048   2.032   7.226   8.094  1.2231 -0.2231 -0.6790
   61MOL0     H 8049   2.131   7.321   7.973 -1.0735  2.0436 -2.3433
   61MOL0     H 8050   1.907   7.604   8.173 -2.8500 -0.0135 -2.4077
   61MOL0     H 8051   2.316   7.152   8.136  1.5784  1.1004  1.1311
   61MOL0     H 8052   2.558   7.197   8.080  1.6139 -2.7674 -0.4225
   62MOL0     O 8053   2.384   2.888   4.526 -0.4504 -0.0761 -0.0838
   62MOL0     C 8054   2.429   2.899   4.638 -0.9475  0.3595  0.0615
   62MOL0     O 8055   2.362   2.875   4.758 -0.0619 -0.5096 -0.3954
   62MOL0     C 8056   2.227   2.850   4.753 -0.1967 -0.3436  0.9097
   62MOL0     C 8057   2.186   2.719   4.731  0.5638 -0.4563  0.5255
   62MOL0     C 8058   2.051   2.693   4.703 -0.1049  0.4195 -0.1649
   62MOL0     C 8059   1.952   2.794   4.720  0.1738  0.1235 -0.3866
   62MOL0     O 8060   1.816   2.763   4.696 -0.4228 -0.0138  0.4670
   62MOL0     C 8061   1.723   2.872   4.663  0.0035  0.1912  0.0142
   62MOL0     C 8062   1.573   2.824   4.631  0.0786  0.1363  0.0543
   62MOL0     C 8063   1.467   2.931   4.647 -1.3256 -0.2045  0.8467
   62MOL0     C 8064   1.336   2.888   4.602 -0.3026 -0.1410  0.1284
   62MOL0     C 8065   1.235   2.997   4.614  0.1928  0.2755  0.0890
   62MOL0     C 8066   1.194   3.062   4.750  0.0408 -0.0540 -0.8932
   62MOL0     C 8067   1.088   3.173   4.717 -0.3024 -0.5504 -0.2650
   62MOL0     C 8068   1.040   3.246   4.845  0.5619 -0.7542  0.4055
   62MOL0     N 8069   0.950   3.360   4.813 -0.2343 -0.0692 -0.4564
   62MOL0     C 8070   0.811   3.351   4.797 -0.6036  1.0673  0.4963
   62MOL0     C 8071   0.777   3.480   4.798  0.4654 -0.2234 -0.0578
   62MOL0     C 8072   0.630   3.524   4.792  0.1501  0.4235 -0.3224
   62MOL0     C 8073   0.595   3.587   4.653  0.7534  0.4656  0.1816
   62MOL0     C 8074   0.449   3.651   4.655  0.3615 -0.1855 -0.1043
   62MOL0     C 8075   0.348   3.539   4.676  0.5090  0.8444  0.1020
   62MOL0     O 8076   0.220   3.586   4.619  0.1760  0.5969  0.1633
   62MOL0     C 8077   0.097   3.531   4.650 -0.3223  1.5193  0.3543
   62MOL0     C 8078   0.081   3.412   4.711 -0.0558 -0.0984 -1.0550
   62MOL0     C 8079  -0.047   3.357   4.739  0.7179  0.4822 -0.7222
   62MOL0     C 8080  -0.159   3.428   4.707  0.1272 -0.5939  1.1892
   62MOL0     C 8081  -0.296   3.385   4.757  0.7799  0.0270 -0.0524
   62MOL0     O 8082  -0.401   3.473   4.719 -0.3285  0.1718 -0.7227
   62MOL0     C 8083  -0.531   3.434   4.758  0.0402  0.3458 -0.0923
   62MOL0     C 8084  -0.607   3.326   4.707  0.0566  0.2616  0.3895
   62MOL0     C 8085  -0.732   3.286   4.751  0.1441 -0.0795 -0.8733
   62MOL0     C 8086  -0.800   3.375   4.841 -0.2639  0.5082 -0.5641
   62MOL0     O 8087  -0.929   3.357   4.885 -0.0616 -0.5533 -0.2234
   62MOL0     C 8088  -1.003   3.255   4.834 -0.2323 -0.4589 -0.6168
   62MOL0     C 8089  -1.143   3.234   4.898  0.2028 -0.2768  0.2570
   62MOL0     C 8090  -1.219   3.120   4.817  0.6570  0.3184  0.3333
   62MOL0     C 8091  -1.361   3.104   4.885 -0.9419 -0.0780 -0.6514
   62MOL0     C 8092  -1.452   3.023   4.794 -0.6521 -0.2083 -0.4178
   62MOL0     C 8093  -1.592   3.008   4.852  0.3388 -0.8297 -0.2979
   62MOL0     C 8094  -1.687   2.926   4.756 -0.2080 -1.2343  0.1935
   62MOL0     C 8095  -1.746   3.009   4.639  0.0051 -0.0638 -0.5254
   62MOL0    Cl 8096  -1.861   2.907   4.554  0.1335 -0.1366  0.0560
   62MOL0     C 8097  -0.728   3.486   4.888  0.4144  1.5193 -0.3014
   62MOL0     C 8098  -0.606   3.517   4.843 -0.5921 -0.2164 -0.2891
   62MOL0     O 8099  -0.303   3.272   4.809 -0.2720 -0.3829  0.6463
   62MOL0     C 8100  -0.144   3.554   4.642 -0.0846  0.1513 -0.0436
   62MOL0     C 8101  -0.011   3.609   4.619 -0.3202 -0.3103  0.1517
   62MOL0     N 8102   0.884   3.567   4.798  0.1070 -0.5582 -0.2274
   62MOL0     N 8103   0.988   3.489   4.816  0.4111 -1.1034  0.9510
   62MOL0     C 8104   1.998   2.929   4.748  0.4799 -0.1105 -0.1757
   62MOL0     C 8105   2.137   2.959   4.758 -0.6420  0.3017 -1.0179
   62MOL0     C 8106   2.577   2.940   4.644 -0.1725  0.4297  0.3345
   62MOL0     C 8107   2.647   2.970   4.532 -0.8799 -0.6417 -0.0074
   62MOL0     C 8108   2.781   3.000   4.532 -0.4848  0.4876  0.1277
   62MOL0     C 8109   2.857   2.988   4.649  0.1417 -1.0789  0.1200
   62MOL0     O 8110   2.983   3.016   4.663 -0.4062 -0.3622 -0.4830
   62MOL0     C 8111   3.071   3.042   4.551 -0.2992 -0.7164  0.8602
   62MOL0     C 8112   3.217   3.065   4.602 -0.1411 -0.7584  0.3252
   62MOL0     C 8113   3.317   3.097   4.479  0.1885 -0.2466 -0.3825
   62MOL0     C 8114   3.420   3.196   4.519 -0.0810 -0.0394 -0.5106
   62MOL0     C 8115   3.516   3.202   4.411  0.0160 -0.4756  0.1189
   62MOL0     C 8116   3.603   3.209   4.322  0.2439  0.1701  0.4490
   62MOL0     C 8117   2.783   2.954   4.763 -0.0580 -0.4245 -0.8325
   62MOL0     C 8118   2.646   2.937   4.766 -0.0832 -0.8084  0.2357
   62MOL0     H 8119   2.256   2.639   4.710  1.5175  0.6626 -0.6581
   62MOL0     H 8120   2.038   2.588   4.679  0.4519  0.5553 -1.1471
   62MOL0     H 8121   1.760   2.932   4.580 -1.1572  4.1690  2.0819
   62MOL0     H 8122   1.721   2.931   4.755  2.2487 -0.3146  0.4381
   62MOL0     H 8123   1.551   2.737   4.694 -0.8398 -0.6818 -1.3595
   62MOL0     H 8124   1.575   2.786   4.529 -2.2240 -2.6331  0.9089
   62MOL0     H 8125   1.497   3.022   4.594 -0.6236  0.3403  2.1176
   62MOL0     H 8126   1.481   2.968   4.749  2.3631 -3.1039  1.5677
   62MOL0     H 8127   1.343   2.859   4.497 -1.2892 -0.3439  0.1114
   62MOL0     H 8128   1.306   2.792   4.646 -0.0865 -1.1499 -1.8451
   62MOL0     H 8129   1.148   2.950   4.568  1.3218 -3.5889  1.4430
   62MOL0     H 8130   1.254   3.077   4.543 -1.6346 -0.9935 -1.9585
   62MOL0     H 8131   1.281   3.108   4.799 -1.3560  2.1290 -0.3475
   62MOL0     H 8132   1.158   2.982   4.816 -0.3514  0.6881 -0.1891
   62MOL0     H 8133   1.136   3.233   4.639  3.4120 -1.4909  1.0879
   62MOL0     H 8134   1.003   3.123   4.670 -0.7101  0.0295 -0.1512
   62MOL0     H 8135   1.119   3.282   4.911 -0.5750 -0.3744  1.6109
   62MOL0     H 8136   0.987   3.163   4.893  2.8862 -1.9228  1.0784
   62MOL0     H 8137   0.743   3.266   4.787 -0.3315  0.3653  3.5757
   62MOL0     H 8138   0.612   3.595   4.873 -1.0964  1.0069 -1.0855
   62MOL0     H 8139   0.571   3.435   4.817  1.2524 -0.8667 -2.0301
   62MOL0     H 8140   0.627   3.512   4.581 -0.3153  0.6995 -0.5594
   62MOL0     H 8141   0.664   3.670   4.635  0.2390  0.8233 -0.2062
   62MOL0     H 8142   0.437   3.723   4.736  2.1699 -0.6922  0.6649
   62MOL0     H 8143   0.427   3.702   4.560 -2.2103 -0.6788  0.1823
   62MOL0     H 8144   0.340   3.513   4.782 -2.5491 -2.8162 -0.8348
   62MOL0     H 8145   0.382   3.449   4.624 -0.3929  0.4345  0.2170
   62MOL0     H 8146   0.169   3.353   4.735 -0.7800 -0.0583  2.2053
   62MOL0     H 8147  -0.049   3.266   4.798  0.5192  0.3718 -0.8954
   62MOL0     H 8148  -0.547   3.266   4.640 -0.4994 -1.5718  1.4598
   62MOL0     H 8149  -0.775   3.192   4.718 -2.3768  0.2085  1.2357
   62MOL0     H 8150  -0.946   3.162   4.843  2.0585  1.0660  2.7764
   62MOL0     H 8151  -1.023   3.277   4.729  1.0593 -1.5509 -1.1126
   62MOL0     H 8152  -1.214   3.317   4.893 -1.0472 -1.0613  2.9666
   62MOL0     H 8153  -1.133   3.198   5.001 -1.4872 -0.4192  0.3938
   62MOL0     H 8154  -1.161   3.027   4.819 -0.1716 -0.3310 -2.0148
   62MOL0     H 8155  -1.235   3.144   4.711 -0.1522 -1.0727  0.1134
   62MOL0     H 8156  -1.348   3.055   4.983 -3.6039  2.5819  1.2078
   62MOL0     H 8157  -1.405   3.200   4.914 -0.9895 -0.0327 -0.8741
   62MOL0     H 8158  -1.399   2.929   4.775  0.5699 -0.0350  1.7937
   62MOL0     H 8159  -1.460   3.069   4.695  2.1090  0.7329 -0.2955
   62MOL0     H 8160  -1.644   3.102   4.872  2.4793  0.2304  0.5884
   62MOL0     H 8161  -1.584   2.956   4.948 -2.1679 -1.1867 -0.2175
   62MOL0     H 8162  -1.627   2.842   4.721 -2.2475 -1.9154 -1.9162
   62MOL0     H 8163  -1.776   2.889   4.807  0.0978 -1.6295  0.4443
   62MOL0     H 8164  -1.668   3.045   4.571  0.2560  1.8901  0.7336
   62MOL0     H 8165  -1.795   3.100   4.674  0.3206  0.6238 -1.8040
   62MOL0     H 8166  -0.778   3.555   4.955 -0.7104 -0.0484  0.5392
   62MOL0     H 8167  -0.558   3.607   4.879  0.4105 -1.3884  1.4834
   62MOL0     H 8168  -0.226   3.619   4.612  0.1050  0.9366  1.0690
   62MOL0     H 8169   0.001   3.703   4.565 -2.3412  0.3426  0.7704
   62MOL0     H 8170   1.922   3.006   4.757  0.3547  0.0142 -2.0354
   62MOL0     H 8171   2.170   3.062   4.762 -0.8995  0.4130 -1.6621
   62MOL0     H 8172   2.595   2.967   4.437 -1.2338  0.8838  0.1046
   62MOL0     H 8173   2.832   3.038   4.444 -0.9242 -0.5874 -0.6078
   62MOL0     H 8174   3.044   3.132   4.494 -0.7945 -2.5177 -1.9367
   62MOL0     H 8175   3.077   2.956   4.483  4.2672  0.1160 -0.0796
   62MOL0     H 8176   3.218   3.152   4.668  0.3609  1.5472 -2.4934
   62MOL0     H 8177   3.247   2.973   4.651 -0.5820 -1.3944 -0.5647
   62MOL0     H 8178   3.271   3.141   4.390  2.5575  2.3657 -0.4615
   62MOL0     H 8179   3.369   3.004   4.454 -0.4184 -0.6589 -0.1190
   62MOL0     H 8180   3.359   3.287   4.529  0.0625 -0.1041  1.2198
   62MOL0     H 8181   3.472   3.178   4.613 -0.1447  0.0261 -0.4627
   62MOL0     H 8182   3.679   3.215   4.246 -3.3989 -1.6898 -3.7378
   62MOL0     H 8183   2.836   2.943   4.857  0.2266 -1.3876 -1.0899
   62MOL0     H 8184   2.602   2.905   4.860  0.9946  1.3417  1.5782
   63MOL0     O 8185  10.005   2.876   7.155 -0.3584 -0.6322  0.7606
   63MOL0     C 8186  10.026   2.952   7.253  0.1894  1.0025 -1.1864
   63MOL0     O 8187  10.138   2.946   7.329 -0.6833  0.3265  0.1545
   63MOL0     C 8188  10.241   2.864   7.288 -0.9581  0.2827 -0.3995
   63MOL0     C 8189  10.371   2.911   7.252  0.6022  0.5290  0.4511
   63MOL0     C 8190  10.469   2.821   7.195  0.2403 -0.1580 -0.4668
   63MOL0     C 8191  10.439   2.689   7.185 -0.5652  0.2137 -0.3289
   63MOL0     O 8192  10.539   2.612   7.138  0.3673 -0.0615  0.8776
   63MOL0     C 8193  10.606   2.552   7.250 -0.0256 -0.4497  0.4593
   63MOL0     C 8194  10.672   2.426   7.203  0.6146 -0.7281 -0.3124
   63MOL0     C 8195  10.572   2.327   7.150  1.0035  0.4122 -0.2704
   63MOL0     C 8196  10.645   2.199   7.102  0.3792 -0.1229 -0.2328
   63MOL0     C 8197  10.552   2.088   7.046 -0.4041 -0.1911 -0.1373
   63MOL0     C 8198  10.468   2.019   7.156  0.7349 -0.9651 -0.4303
   63MOL0     C 8199  10.422   1.876   7.128 -0.0336  0.1422 -0.0387
   63MOL0     C 8200  10.318   1.864   7.018 -1.1226 -0.1295 -0.4791
   63MOL0     N 8201  10.183   1.882   7.066 -0.0408 -0.2879 -0.1082
   63MOL0     C 8202  10.137   2.008   7.100 -0.1121 -0.3558  0.3709
   63MOL0     C 8203  10.005   1.992   7.118 -0.1737  0.5502  0.3412
   63MOL0     C 8204   9.916   2.109   7.159 -0.6182  0.2442  0.8721
   63MOL0     C 8205   9.843   2.180   7.039 -0.9637  0.2391  0.6973
   63MOL0     C 8206   9.725   2.094   6.983  0.2136  0.5525 -0.6595
   63MOL0     C 8207   9.632   2.173   6.909  0.3048 -0.6126  0.1320
   63MOL0     O 8208   9.592   2.294   6.973 -0.3023  0.4770 -0.0283
   63MOL0     C 8209   9.505   2.370   6.900  0.2388 -0.1144  0.0663
   63MOL0     C 8210   9.485   2.363   6.759 -0.0871 -1.0692 -0.0389
   63MOL0     C 8211   9.389   2.452   6.704 -0.7520  0.2706 -0.6122
   63MOL0     C 8212   9.311   2.527   6.784  0.5558 -0.7828 -0.1466
   63MOL0     C 8213   9.207   2.622   6.721  1.0909  0.4400 -0.1602
   63MOL0     O 8214   9.102   2.647   6.815 -0.3490 -0.5417  0.1712
   63MOL0     C 8215   8.983   2.694   6.768 -0.3825 -0.3384 -0.0059
   63MOL0     C 8216   8.888   2.619   6.689  0.2114 -0.0357 -0.8743
   63MOL0     C 8217   8.789   2.694   6.629 -0.6162 -1.0050 -0.1154
   63MOL0     C 8218   8.762   2.828   6.666  0.3591  0.5477  0.9089
   63MOL0     O 8219   8.648   2.890   6.606  0.2299 -0.5524 -0.7358
   63MOL0     C 8220   8.571   2.984   6.681  0.4549 -0.2344  0.5123
   63MOL0     C 8221   8.523   2.920   6.813 -0.1724  0.0531  0.7156
   63MOL0     C 8222   8.417   3.004   6.875  0.1295 -0.1466  0.5209
   63MOL0     C 8223   8.345   2.918   6.991  0.8998 -0.8028  0.6113
   63MOL0     C 8224   8.233   2.999   7.055  0.4121  0.5331 -0.7412
   63MOL0     C 8225   8.185   2.952   7.200 -0.9187  0.6481  0.3603
   63MOL0     C 8226   8.298   2.970   7.308  0.8306 -0.2790 -0.2565
   63MOL0     C 8227   8.336   3.112   7.339  0.3597  0.0630  0.6992
   63MOL0    Cl 8228   8.248   3.178   7.477  0.0903  0.2336 -0.1184
   63MOL0     C 8229   8.857   2.893   6.745  0.5831  0.4370  0.0726
   63MOL0     C 8230   8.967   2.826   6.800  0.0203  0.7141 -0.1594
   63MOL0     O 8231   9.218   2.654   6.608  0.6415 -0.1680 -0.0362
   63MOL0     C 8232   9.326   2.525   6.918 -0.6303 -0.5004  0.0077
   63MOL0     C 8233   9.425   2.447   6.979  0.8332 -0.4241  0.4302
   63MOL0     N 8234   9.971   1.853   7.100  0.4907 -0.3750  0.5052
   63MOL0     N 8235  10.078   1.794   7.067 -0.1688 -0.3477 -0.8448
   63MOL0     C 8236  10.315   2.640   7.220  0.3606 -0.3223 -0.1825
   63MOL0     C 8237  10.220   2.727   7.277 -1.1324 -0.5712 -1.0513
   63MOL0     C 8238   9.925   3.065   7.282 -0.4419  0.2934  0.5171
   63MOL0     C 8239   9.828   3.110   7.188 -0.5246  0.2397 -0.9120
   63MOL0     C 8240   9.747   3.219   7.227  0.4268 -0.2526 -0.2303
   63MOL0     C 8241   9.751   3.275   7.357  0.1674  0.8982 -0.4046
   63MOL0     O 8242   9.654   3.366   7.389 -0.4813  0.5774  0.0239
   63MOL0     C 8243   9.674   3.452   7.499 -0.3116  0.4264  0.2292
   63MOL0     C 8244   9.541   3.513   7.523  0.2952 -0.5410  0.0829
   63MOL0     C 8245   9.555   3.629   7.633  0.5233  0.2586  0.0234
   63MOL0     C 8246   9.419   3.696   7.656 -0.5084 -0.2731 -0.4279
   63MOL0     C 8247   9.373   3.770   7.533 -0.0895  0.1979 -0.2728
   63MOL0     C 8248   9.347   3.817   7.422 -0.3839  0.3064  0.6127
   63MOL0     C 8249   9.861   3.243   7.436  0.5294 -0.2741  0.1084
   63MOL0     C 8250   9.942   3.138   7.399 -0.0387 -0.3958 -0.4762
   63MOL0     H 8251  10.388   3.018   7.260 -0.9555  0.7686  1.0798
   63MOL0     H 8252  10.565   2.856   7.159  1.0567 -1.9113 -0.1157
   63MOL0     H 8253  10.530   2.525   7.324  0.6911  1.6657  2.0760
   63MOL0     H 8254  10.677   2.614   7.307 -0.4057 -0.5122  1.0086
   63MOL0     H 8255  10.725   2.375   7.284  1.9573  0.8661 -0.1438
   63MOL0     H 8256  10.744   2.451   7.125 -0.1746 -1.1353 -1.2054
   63MOL0     H 8257  10.509   2.362   7.068 -1.7886 -2.3741  0.4772
   63MOL0     H 8258  10.497   2.296   7.224 -2.0587 -1.1332 -3.7197
   63MOL0     H 8259  10.710   2.223   7.017  1.5321 -7.2753 -2.0430
   63MOL0     H 8260  10.710   2.156   7.178  0.1910 -1.5930 -0.8678
   63MOL0     H 8261  10.612   2.006   7.005  0.7790  0.4095  0.3268
   63MOL0     H 8262  10.492   2.130   6.965  0.1165 -0.6057 -0.7552
   63MOL0     H 8263  10.384   2.077   7.194 -0.0718 -1.9125 -0.7490
   63MOL0     H 8264  10.533   2.017   7.244 -1.3422  0.9275  1.2408
   63MOL0     H 8265  10.509   1.816   7.101  0.3205  1.4147 -1.9106
   63MOL0     H 8266  10.371   1.829   7.213  0.5569 -3.7189 -1.6175
   63MOL0     H 8267  10.325   1.767   6.968 -1.3941 -0.5098  0.1970
   63MOL0     H 8268  10.343   1.936   6.940  0.5918  1.3295  1.2990
   63MOL0     H 8269  10.197   2.098   7.109 -2.7053  1.6183 -0.7919
   63MOL0     H 8270   9.986   2.183   7.197  3.4420 -3.2370  0.8296
   63MOL0     H 8271   9.847   2.070   7.234 -2.2443  0.7237 -0.3065
   63MOL0     H 8272   9.911   2.201   6.956  0.3704 -3.8667  0.5139
   63MOL0     H 8273   9.804   2.271   7.085 -1.4148  0.1041  0.5823
   63MOL0     H 8274   9.765   2.008   6.929 -2.1675 -1.7167  0.9399
   63MOL0     H 8275   9.676   2.043   7.067  1.3655 -1.3409 -1.0810
   63MOL0     H 8276   9.540   2.117   6.893 -0.6558  0.9428  0.0303
   63MOL0     H 8277   9.676   2.195   6.811 -0.6197 -0.0838 -0.1706
   63MOL0     H 8278   9.544   2.306   6.688 -0.1639  1.9162 -2.7706
   63MOL0     H 8279   9.374   2.453   6.596 -0.8150  1.3191 -0.5980
   63MOL0     H 8280   8.902   2.514   6.667 -1.3131 -0.4161 -0.0984
   63MOL0     H 8281   8.713   2.659   6.560  1.8231  1.8954 -4.7977
   63MOL0     H 8282   8.489   3.014   6.615  1.0667  1.3924  0.4374
   63MOL0     H 8283   8.631   3.075   6.692  1.5459 -0.8249 -0.3915
   63MOL0     H 8284   8.606   2.907   6.883 -0.4482  0.8525  1.1958
   63MOL0     H 8285   8.479   2.823   6.788 -0.9672  0.4705  0.4719
   63MOL0     H 8286   8.339   3.028   6.802  1.2369 -0.3924 -0.7758
   63MOL0     H 8287   8.446   3.104   6.908 -3.5395  0.1021  3.6369
   63MOL0     H 8288   8.312   2.830   6.935 -0.9229  0.8475 -1.0719
   63MOL0     H 8289   8.416   2.895   7.071 -0.1223 -2.2265  1.1532
   63MOL0     H 8290   8.149   2.985   6.987 -0.9313 -1.9405  1.2505
   63MOL0     H 8291   8.254   3.107   7.054 -1.3958  0.9337 -3.2931
   63MOL0     H 8292   8.164   2.845   7.197  2.4101 -0.1384  0.9649
   63MOL0     H 8293   8.088   2.991   7.231 -2.2159 -0.8008 -1.7169
   63MOL0     H 8294   8.268   2.931   7.406 -1.0405  0.2261 -0.5912
   63MOL0     H 8295   8.381   2.906   7.275  0.5710  0.0910 -1.6910
   63MOL0     H 8296   8.314   3.180   7.256  0.1437  0.5468  1.1421
   63MOL0     H 8297   8.443   3.118   7.364  0.3143 -0.9306  1.1653
   63MOL0     H 8298   8.839   2.998   6.765  2.7279  0.2589  3.8186
   63MOL0     H 8299   9.044   2.891   6.841 -1.4562  3.2382 -1.1094
   63MOL0     H 8300   9.263   2.586   6.982 -0.7925 -0.7835  0.1194
   63MOL0     H 8301   9.438   2.467   7.084 -1.4638  2.4588  0.2915
   63MOL0     H 8302  10.285   2.537   7.210  1.7595 -0.4981 -4.2083
   63MOL0     H 8303  10.123   2.688   7.307 -1.1485  1.4597  1.9563
   63MOL0     H 8304   9.826   3.047   7.100  0.1358 -1.2352  0.0703
   63MOL0     H 8305   9.669   3.251   7.158 -0.0694  0.3803  0.5998
   63MOL0     H 8306   9.746   3.533   7.483 -1.9633  2.3170  1.8216
   63MOL0     H 8307   9.711   3.405   7.591 -2.7867 -0.2382  0.9606
   63MOL0     H 8308   9.511   3.560   7.429 -1.2935 -0.4234  0.6166
   63MOL0     H 8309   9.468   3.436   7.552  0.1203 -0.3450  0.1650
   63MOL0     H 8310   9.629   3.704   7.604  1.9214  0.4127  3.4643
   63MOL0     H 8311   9.592   3.579   7.723 -0.4934 -0.8804 -0.1670
   63MOL0     H 8312   9.341   3.627   7.691 -1.9980  0.9048 -1.3469
   63MOL0     H 8313   9.437   3.769   7.735  0.2288 -0.2499 -0.6094
   63MOL0     H 8314   9.307   3.860   7.333  2.0527 -2.2879 -1.9239
   63MOL0     H 8315   9.881   3.287   7.534  2.8945  0.5640 -0.6886
   63MOL0     H 8316  10.027   3.120   7.464  0.4846 -0.4694 -1.1714
   64MOL0     O 8317   5.502   3.021   5.912 -0.1823  0.7316  0.0126
   64MOL0     C 8318   5.596   2.947   5.895 -0.5022  0.0230  0.3372
   64MOL0     O 8319   5.612   2.824   5.943  0.4644  0.4218  0.2794
   64MOL0     C 8320   5.499   2.770   5.993 -0.8745  0.3323 -0.5985
   64MOL0     C 8321   5.451   2.781   6.129 -0.1829  0.1550  0.1697
   64MOL0     C 8322   5.336   2.715   6.162  0.4565 -0.5298  0.4803
   64MOL0     C 8323   5.259   2.658   6.062 -0.7865  0.3452  0.5511
   64MOL0     O 8324   5.129   2.620   6.068 -0.7118 -0.2913  0.2719
   64MOL0     C 8325   5.039   2.724   6.119  0.8168  1.2014  0.7426
   64MOL0     C 8326   4.906   2.664   6.143 -0.6242  0.0878  0.4594
   64MOL0     C 8327   4.803   2.760   6.212 -0.1310  0.2911  0.6116
   64MOL0     C 8328   4.667   2.688   6.213  0.0039  2.0453 -0.0523
   64MOL0     C 8329   4.555   2.799   6.218 -0.7713 -0.0199  0.1186
   64MOL0     C 8330   4.416   2.746   6.181 -0.3950  0.0585 -0.2748
   64MOL0     C 8331   4.354   2.667   6.302  1.1021 -0.1291 -0.4145
   64MOL0     C 8332   4.227   2.606   6.255  1.4734  0.2616 -0.4289
   64MOL0     N 8333   4.109   2.617   6.335  0.1940 -0.8090 -0.2458
   64MOL0     C 8334   4.064   2.720   6.418  0.7962 -0.0716 -0.7866
   64MOL0     C 8335   3.940   2.675   6.461 -0.1441 -0.6927 -0.3247
   64MOL0     C 8336   3.842   2.747   6.545 -0.4767 -0.5208  0.1973
   64MOL0     C 8337   3.731   2.813   6.475  0.6175  0.4452  0.2852
   64MOL0     C 8338   3.641   2.717   6.389  0.4163 -0.6714 -0.5021
   64MOL0     C 8339   3.574   2.600   6.460 -0.3978  0.3689  0.4778
   64MOL0     O 8340   3.489   2.640   6.571  0.0706  0.5447 -0.2459
   64MOL0     C 8341   3.356   2.640   6.547  0.6798  0.2354  0.0360
   64MOL0     C 8342   3.276   2.530   6.581  0.6852  0.3621  0.5013
   64MOL0     C 8343   3.138   2.539   6.553 -0.3016 -0.3815 -0.9853
   64MOL0     C 8344   3.080   2.642   6.483 -0.0749  0.5119 -0.4770
   64MOL0     C 8345   2.941   2.629   6.452  1.2332 -0.7827  0.5224
   64MOL0     O 8346   2.859   2.586   6.553  0.1614  0.5369 -0.3476
   64MOL0     C 8347   2.726   2.564   6.539  0.2823 -0.3943  0.3715
   64MOL0     C 8348   2.634   2.634   6.460  0.1018 -0.4016  0.7315
   64MOL0     C 8349   2.495   2.600   6.457 -0.1023 -0.1515 -0.2415
   64MOL0     C 8350   2.446   2.492   6.534  0.1327 -1.3920 -0.5278
   64MOL0     O 8351   2.309   2.474   6.540 -0.3320  0.3340 -0.4621
   64MOL0     C 8352   2.266   2.410   6.666 -0.1342  0.2070  0.0632
   64MOL0     C 8353   2.108   2.414   6.666 -0.6973 -0.1773  0.3188
   64MOL0     C 8354   2.035   2.336   6.549 -1.1863 -0.7043 -0.4369
   64MOL0     C 8355   1.889   2.300   6.573 -0.2838 -0.6431 -0.5127
   64MOL0     C 8356   1.794   2.430   6.576 -0.0926 -0.0442  0.1088
   64MOL0     C 8357   1.649   2.398   6.581  0.7500  0.1718 -0.5859
   64MOL0     C 8358   1.592   2.371   6.728  0.0993 -0.2060 -0.2976
   64MOL0     C 8359   1.459   2.303   6.724  1.0512  0.8372 -0.1964
   64MOL0    Cl 8360   1.460   2.145   6.632 -0.0755 -0.1211  0.2335
   64MOL0     C 8361   2.541   2.423   6.620  0.4011 -0.1771  0.0652
   64MOL0     C 8362   2.673   2.462   6.618  0.5361 -0.1268  0.4979
   64MOL0     O 8363   2.904   2.660   6.336  0.3727  0.5369 -0.3348
   64MOL0     C 8364   3.166   2.748   6.445 -0.4035 -0.6578  0.3380
   64MOL0     C 8365   3.304   2.749   6.481 -0.1455 -0.5203  0.7939
   64MOL0     N 8366   3.917   2.548   6.402  0.6939  0.3930 -0.6249
   64MOL0     N 8367   4.021   2.520   6.332  0.4480  0.3405  0.5923
   64MOL0     C 8368   5.307   2.645   5.930 -0.1888 -0.0695 -1.0766
   64MOL0     C 8369   5.429   2.692   5.897  0.4470  0.0831 -0.2548
   64MOL0     C 8370   5.721   3.001   5.850 -0.1971 -0.2799  0.9050
   64MOL0     C 8371   5.741   3.138   5.828  0.3387  0.7076  0.8748
   64MOL0     C 8372   5.856   3.195   5.782  0.2864 -0.6691  0.4382
   64MOL0     C 8373   5.974   3.120   5.758 -0.1767 -0.5434  0.2791
   64MOL0     O 8374   6.084   3.196   5.712  0.1831  0.7010 -0.5945
   64MOL0     C 8375   6.216   3.173   5.778  0.6180 -0.4412 -0.0646
   64MOL0     C 8376   6.328   3.234   5.693 -0.7594 -0.8146 -0.0430
   64MOL0     C 8377   6.464   3.262   5.767 -0.4119  0.4853  0.0139
   64MOL0     C 8378   6.568   3.325   5.666  0.1636  0.5735 -0.3985
   64MOL0     C 8379   6.697   3.358   5.724 -0.8688  0.1663 -0.7706
   64MOL0     C 8380   6.806   3.379   5.775 -0.4521 -0.7614 -0.5985
   64MOL0     C 8381   5.966   2.980   5.778 -0.0020 -0.6104 -0.9515
   64MOL0     C 8382   5.837   2.923   5.813 -0.4455  0.4735 -0.1596
   64MOL0     H 8383   5.505   2.834   6.207 -3.3031  0.1689  2.5345
   64MOL0     H 8384   5.283   2.728   6.257 -1.2801 -0.0556 -0.5045
   64MOL0     H 8385   5.028   2.806   6.048 -0.8075 -0.9697 -1.7041
   64MOL0     H 8386   5.060   2.770   6.217  1.4123  2.2639  0.1377
   64MOL0     H 8387   4.925   2.588   6.220 -0.4945 -0.1740  0.1707
   64MOL0     H 8388   4.875   2.609   6.054  0.6583 -0.4120  0.2971
   64MOL0     H 8389   4.785   2.847   6.148 -1.0386 -1.7965 -2.1728
   64MOL0     H 8390   4.830   2.795   6.312 -2.8783  2.3612  0.7337
   64MOL0     H 8391   4.658   2.620   6.128  0.7233  1.6661  0.1625
   64MOL0     H 8392   4.666   2.624   6.302 -3.5421  0.3426 -1.1329
   64MOL0     H 8393   4.566   2.876   6.140 -1.1645  0.4949  0.5589
   64MOL0     H 8394   4.558   2.845   6.317 -1.9127 -0.0160  0.1571
   64MOL0     H 8395   4.425   2.676   6.097  0.9864  0.5195 -0.5412
   64MOL0     H 8396   4.346   2.824   6.150 -1.1774  0.5532  2.5214
   64MOL0     H 8397   4.429   2.596   6.339  0.5856 -1.4290 -1.7714
   64MOL0     H 8398   4.327   2.738   6.380  0.5349 -1.2380  0.4055
   64MOL0     H 8399   4.249   2.502   6.231 -1.9392 -1.2890  2.3345
   64MOL0     H 8400   4.202   2.646   6.156 -0.4038 -1.5048 -0.7116
   64MOL0     H 8401   4.118   2.811   6.440  1.7126 -0.9863  1.0404
   64MOL0     H 8402   3.899   2.818   6.606 -2.3031  0.9749  0.2439
   64MOL0     H 8403   3.808   2.672   6.617  1.4368  0.1656  1.9168
   64MOL0     H 8404   3.771   2.892   6.411  1.6617  0.5227  1.0040
   64MOL0     H 8405   3.668   2.865   6.548 -1.6308 -0.4774 -0.8851
   64MOL0     H 8406   3.568   2.780   6.337 -0.8387 -1.0792  0.7155
   64MOL0     H 8407   3.697   2.667   6.309 -1.2001 -0.7922 -1.5982
   64MOL0     H 8408   3.656   2.539   6.498 -2.1750 -1.8383  1.0005
   64MOL0     H 8409   3.525   2.530   6.391  1.0928 -1.4982  1.2104
   64MOL0     H 8410   3.313   2.439   6.627  1.0511 -2.2136 -4.2259
   64MOL0     H 8411   3.076   2.456   6.586  0.0918  0.2397  1.5980
   64MOL0     H 8412   2.677   2.713   6.400  0.8483 -1.7263 -0.5591
   64MOL0     H 8413   2.431   2.666   6.400  0.9853  0.6703 -0.5496
   64MOL0     H 8414   2.309   2.462   6.752 -0.8833  3.5703 -1.4374
   64MOL0     H 8415   2.294   2.305   6.669  0.5497  0.4099  1.9179
   64MOL0     H 8416   2.076   2.518   6.657  2.3959  0.8311 -0.2541
   64MOL0     H 8417   2.067   2.372   6.759 -3.2362  2.1457  0.3831
   64MOL0     H 8418   2.088   2.242   6.527  1.3015  0.0611  1.8103
   64MOL0     H 8419   2.039   2.407   6.465 -1.5112  3.8599  3.0518
   64MOL0     H 8420   1.857   2.239   6.489  0.6162  0.5769 -1.7808
   64MOL0     H 8421   1.870   2.248   6.667 -2.7729  1.2660  0.1491
   64MOL0     H 8422   1.805   2.493   6.488 -1.1429  0.0054  0.0019
   64MOL0     H 8423   1.814   2.487   6.667 -1.0972 -0.8583  0.8848
   64MOL0     H 8424   1.627   2.325   6.503 -2.7589 -0.4424  0.7687
   64MOL0     H 8425   1.602   2.493   6.554 -0.8737 -0.3001  0.4114
   64MOL0     H 8426   1.653   2.306   6.791 -1.4668 -0.4337  1.0503
   64MOL0     H 8427   1.595   2.466   6.782 -1.5235  0.6503 -1.6199
   64MOL0     H 8428   1.389   2.373   6.676  0.8326  0.3642 -0.5764
   64MOL0     H 8429   1.428   2.293   6.828  1.6541  0.7538 -0.0184
   64MOL0     H 8430   2.503   2.354   6.694 -1.8987  1.8435  0.8983
   64MOL0     H 8431   2.736   2.410   6.690 -0.1026 -1.4260  0.1444
   64MOL0     H 8432   3.126   2.832   6.389  0.1535 -0.7240 -0.1626
   64MOL0     H 8433   3.372   2.832   6.463 -1.0837 -0.0457 -0.7978
   64MOL0     H 8434   5.243   2.593   5.860 -1.0647 -0.5216  0.0217
   64MOL0     H 8435   5.468   2.679   5.797 -0.6671 -1.2408 -0.5444
   64MOL0     H 8436   5.662   3.212   5.832  0.3277  0.9504 -1.7869
   64MOL0     H 8437   5.856   3.303   5.777 -0.2354 -0.7117 -1.1720
   64MOL0     H 8438   6.245   3.070   5.801  4.0467  0.8261  2.0015
   64MOL0     H 8439   6.222   3.225   5.874  1.1615  1.2458 -0.9760
   64MOL0     H 8440   6.331   3.185   5.596 -1.7631  1.6892 -1.4327
   64MOL0     H 8441   6.296   3.335   5.666  0.8952 -0.3115 -0.2426
   64MOL0     H 8442   6.501   3.161   5.788  0.2863  1.2948  3.1922
   64MOL0     H 8443   6.443   3.322   5.856 -1.7867 -2.4795  1.8440
   64MOL0     H 8444   6.582   3.246   5.591 -1.9921  0.1899 -0.4477
   64MOL0     H 8445   6.530   3.416   5.618  2.1127  0.6121 -2.0337
   64MOL0     H 8446   6.903   3.404   5.813 -1.2175  2.4004 -0.4349
   64MOL0     H 8447   6.060   2.926   5.778  1.9921  2.5625  0.9550
   64MOL0     H 8448   5.827   2.815   5.813  1.8804  0.0539 -3.7359
   65MOL0     O 8449   5.240   1.958   3.567 -0.2311 -0.4394 -0.8748
   65MOL0     C 8450   5.242   1.841   3.538 -0.1791  0.1294 -0.0993
   65MOL0     O 8451   5.137   1.760   3.542  0.1572  0.0882  1.2117
   65MOL0     C 8452   5.028   1.805   3.610  0.2091 -0.3650 -0.6938
   65MOL0     C 8453   4.920   1.871   3.559  1.0567  0.2283  0.8290
   65MOL0     C 8454   4.811   1.909   3.644 -0.4460  0.5721  0.2867
   65MOL0     C 8455   4.802   1.860   3.776 -0.4749  0.1256  0.1388
   65MOL0     O 8456   4.694   1.896   3.845  0.3070 -0.1774 -0.3745
   65MOL0     C 8457   4.680   1.860   3.980 -0.1854  1.1361 -0.1287
   65MOL0     C 8458   4.547   1.918   4.024 -0.3058  1.5512  0.1829
   65MOL0     C 8459   4.514   1.885   4.171 -0.4944  0.5201 -0.2794
   65MOL0     C 8460   4.402   1.969   4.223  0.8667 -0.2068 -0.6825
   65MOL0     C 8461   4.354   1.947   4.365 -0.7237 -0.0652 -0.4968
   65MOL0     C 8462   4.259   2.054   4.416 -0.1445 -0.1380  1.0587
   65MOL0     C 8463   4.122   2.057   4.340  0.6823  0.7236 -0.3814
   65MOL0     C 8464   4.040   1.929   4.349 -0.1216 -0.3394  0.5424
   65MOL0     N 8465   4.018   1.872   4.481  0.1113 -0.2761 -0.1343
   65MOL0     C 8466   3.973   1.935   4.597  0.4578 -0.6903 -0.0646
   65MOL0     C 8467   3.997   1.853   4.696  0.0644 -0.2271 -0.2226
   65MOL0     C 8468   3.956   1.866   4.844  0.1339 -1.1847  0.2724
   65MOL0     C 8469   3.909   1.733   4.910  0.3672 -0.3050  0.2530
   65MOL0     C 8470   3.785   1.679   4.838  0.8762 -0.0994  0.5595
   65MOL0     C 8471   3.737   1.550   4.902 -0.1555 -0.2314  0.0341
   65MOL0     O 8472   3.700   1.566   5.044  0.6001 -0.1527 -0.3259
   65MOL0     C 8473   3.571   1.614   5.086  0.4025 -0.7145  0.2159
   65MOL0     C 8474   3.470   1.664   5.004  0.3057 -0.1308 -0.1684
   65MOL0     C 8475   3.340   1.680   5.057  0.7736  0.2564 -0.6793
   65MOL0     C 8476   3.310   1.656   5.191  0.0988 -0.2738  1.6380
   65MOL0     C 8477   3.172   1.665   5.235 -0.1109  0.3057  0.3934
   65MOL0     O 8478   3.149   1.687   5.370 -1.0674 -0.3941 -0.7982
   65MOL0     C 8479   3.020   1.667   5.410 -1.0374  0.1885 -0.3333
   65MOL0     C 8480   2.962   1.779   5.453 -0.6580 -0.2834 -0.0525
   65MOL0     C 8481   2.829   1.790   5.495  0.2385 -0.8515  0.3366
   65MOL0     C 8482   2.749   1.669   5.494 -0.2964 -0.0098 -0.2665
   65MOL0     O 8483   2.619   1.680   5.535  0.5829  0.2334  0.4194
   65MOL0     C 8484   2.526   1.750   5.444 -0.7257  0.4910 -0.5613
   65MOL0     C 8485   2.512   1.897   5.467 -0.3276  0.2513  0.2179
   65MOL0     C 8486   2.498   1.947   5.611 -0.7489 -0.0017  1.7132
   65MOL0     C 8487   2.391   1.887   5.695 -0.2160  0.0169 -1.0251
   65MOL0     C 8488   2.254   1.888   5.625 -0.3936 -0.5272 -0.1314
   65MOL0     C 8489   2.145   1.857   5.726 -1.3454 -0.4137 -0.3158
   65MOL0     C 8490   2.018   1.910   5.674 -0.0795 -0.5560 -0.2361
   65MOL0     C 8491   1.907   1.907   5.773  0.0384  0.7449 -0.9874
   65MOL0    Cl 8492   1.898   1.752   5.852  0.8685  0.1205 -0.0437
   65MOL0     C 8493   2.810   1.552   5.448  0.4731 -0.2022 -0.0577
   65MOL0     C 8494   2.940   1.549   5.406  0.2260 -0.0657  0.3254
   65MOL0     O 8495   3.082   1.661   5.150 -0.5785  0.3597  0.5610
   65MOL0     C 8496   3.410   1.594   5.271 -0.3471  0.3603  0.2737
   65MOL0     C 8497   3.540   1.590   5.218 -0.2522  0.2062  0.2789
   65MOL0     N 8498   4.063   1.744   4.643 -0.0285 -0.0095 -1.2053
   65MOL0     N 8499   4.084   1.758   4.523  0.0822 -0.3397  0.5425
   65MOL0     C 8500   4.914   1.795   3.832 -1.2219  0.2947 -0.1574
   65MOL0     C 8501   5.026   1.777   3.747 -0.0251 -0.1208 -0.1710
   65MOL0     C 8502   5.371   1.788   3.484 -0.4263 -0.1138  0.6690
   65MOL0     C 8503   5.359   1.680   3.399 -0.5367 -0.1522 -0.4034
   65MOL0     C 8504   5.479   1.627   3.337  0.1324  0.3965 -0.1413
   65MOL0     C 8505   5.604   1.690   3.356 -1.0027 -0.9143 -1.0120
   65MOL0     O 8506   5.724   1.656   3.290 -0.6677  0.2769 -0.4543
   65MOL0     C 8507   5.733   1.563   3.180  0.1235  0.4639  0.2100
   65MOL0     C 8508   5.843   1.615   3.093 -0.1355  0.3059  1.0624
   65MOL0     C 8509   5.833   1.764   3.074 -0.1591 -0.0734 -0.2833
   65MOL0     C 8510   5.919   1.810   2.954  0.2823  0.0912  0.1387
   65MOL0     C 8511   6.060   1.787   2.982 -0.5137  0.5343 -0.3237
   65MOL0     C 8512   6.177   1.791   3.010 -0.1405 -0.5566  0.0797
   65MOL0     C 8513   5.606   1.803   3.443  0.6821  0.1769  0.3017
   65MOL0     C 8514   5.495   1.853   3.505  0.0832 -0.1323  0.2422
   65MOL0     H 8515   4.910   1.892   3.453 -1.6352 -2.5585  0.3958
   65MOL0     H 8516   4.729   1.966   3.602  0.2330  1.9526  0.7505
   65MOL0     H 8517   4.760   1.898   4.044 -0.7351 -1.6938  2.4564
   65MOL0     H 8518   4.682   1.752   3.991  0.4815  1.2431  0.9949
   65MOL0     H 8519   4.463   1.871   3.970 -0.5389  0.7739  1.1904
   65MOL0     H 8520   4.552   2.027   4.016 -0.8032  1.5200 -0.7923
   65MOL0     H 8521   4.595   1.908   4.241 -0.0449 -0.5125 -0.4257
   65MOL0     H 8522   4.499   1.777   4.182  1.6530  0.3687  2.0903
   65MOL0     H 8523   4.450   2.068   4.218  1.3208 -0.3754  0.1166
   65MOL0     H 8524   4.318   1.966   4.154 -1.1862 -0.2242  1.6575
   65MOL0     H 8525   4.444   1.942   4.427 -0.3444 -1.5754 -1.1396
   65MOL0     H 8526   4.311   1.847   4.373 -1.9495  0.4312 -0.5438
   65MOL0     H 8527   4.296   2.157   4.409 -1.1808  0.1760 -0.4242
   65MOL0     H 8528   4.240   2.046   4.523  3.3563 -1.4808  1.7083
   65MOL0     H 8529   4.063   2.137   4.386  0.9418  0.2535  0.8195
   65MOL0     H 8530   4.151   2.073   4.236  3.0560  0.3607  0.1544
   65MOL0     H 8531   4.086   1.848   4.292 -1.5386 -0.9976  0.3021
   65MOL0     H 8532   3.943   1.965   4.315 -0.6216 -0.6914  1.5408
   65MOL0     H 8533   3.927   2.030   4.620  0.9001 -0.7225  1.0103
   65MOL0     H 8534   3.870   1.932   4.850 -2.0693 -3.4055 -3.1830
   65MOL0     H 8535   4.044   1.909   4.893 -0.2804  1.3106 -1.0166
   65MOL0     H 8536   3.889   1.749   5.016 -3.0181  2.6650 -0.6084
   65MOL0     H 8537   3.990   1.661   4.894  0.6492  0.3525 -1.6041
   65MOL0     H 8538   3.701   1.749   4.845 -1.3022 -2.4395 -0.7246
   65MOL0     H 8539   3.812   1.655   4.735 -1.0774 -1.5288  0.3387
   65MOL0     H 8540   3.818   1.478   4.917  1.8350  2.0158  0.6370
   65MOL0     H 8541   3.664   1.506   4.834  0.2486 -0.8534 -0.0142
   65MOL0     H 8542   3.494   1.680   4.900  1.1237  2.6757  0.3776
   65MOL0     H 8543   3.278   1.740   4.992  0.2618 -0.8200 -1.2121
   65MOL0     H 8544   3.014   1.873   5.436  0.9479 -1.1851 -0.3621
   65MOL0     H 8545   2.791   1.891   5.511 -0.0968 -1.2160  2.0386
   65MOL0     H 8546   2.428   1.701   5.447 -0.4416 -0.8939 -5.0918
   65MOL0     H 8547   2.562   1.739   5.341  0.2031 -0.3838 -0.1515
   65MOL0     H 8548   2.418   1.920   5.416 -2.6892 -0.3456  3.8683
   65MOL0     H 8549   2.598   1.951   5.426  1.2233 -0.0428  2.8502
   65MOL0     H 8550   2.495   2.056   5.601 -0.4780 -0.1486 -0.3141
   65MOL0     H 8551   2.593   1.922   5.661 -0.5426  1.4329  2.0842
   65MOL0     H 8552   2.409   1.781   5.717  1.0886  0.0383 -1.8753
   65MOL0     H 8553   2.386   1.946   5.787  1.2530  0.0133 -0.9252
   65MOL0     H 8554   2.258   1.816   5.543 -0.2926  1.0239 -1.5287
   65MOL0     H 8555   2.232   1.984   5.579 -2.8424 -1.7706 -1.7764
   65MOL0     H 8556   2.175   1.909   5.818 -0.1010 -1.1842 -0.2587
   65MOL0     H 8557   2.151   1.750   5.751  0.3027 -0.0807  0.9385
   65MOL0     H 8558   2.032   2.018   5.665 -0.0730 -0.4000  1.4395
   65MOL0     H 8559   1.986   1.881   5.573 -0.1948  2.5537 -1.2104
   65MOL0     H 8560   1.808   1.922   5.727 -0.0402 -0.2623 -1.1576
   65MOL0     H 8561   1.909   1.988   5.847 -2.9262 -0.3957  0.5284
   65MOL0     H 8562   2.758   1.456   5.451  3.3611 -1.8901 -0.6882
   65MOL0     H 8563   2.996   1.462   5.373  0.9810  0.0157  1.3347
   65MOL0     H 8564   3.402   1.564   5.375  2.0849 -2.7911 -0.3086
   65MOL0     H 8565   3.619   1.546   5.279  1.8197  1.2362 -1.4977
   65MOL0     H 8566   4.924   1.755   3.933  2.9752 -0.9510 -0.8843
   65MOL0     H 8567   5.102   1.713   3.790 -0.4370 -0.8899 -0.5530
   65MOL0     H 8568   5.259   1.645   3.372 -0.7549  1.5776 -2.1535
   65MOL0     H 8569   5.463   1.544   3.269  0.3945 -0.4580  0.8084
   65MOL0     H 8570   5.636   1.573   3.132  1.2408 -1.0537 -2.5792
   65MOL0     H 8571   5.740   1.460   3.217 -2.5749 -0.4620 -1.6081
   65MOL0     H 8572   5.938   1.606   3.146  0.3489 -1.8115 -0.0660
   65MOL0     H 8573   5.844   1.560   2.999 -0.0871  1.3439  0.4344
   65MOL0     H 8574   5.864   1.816   3.165  1.6849 -1.1903 -0.2185
   65MOL0     H 8575   5.729   1.795   3.060 -0.0097  0.0496 -1.1276
   65MOL0     H 8576   5.887   1.751   2.868 -1.2271  0.0872  0.6758
   65MOL0     H 8577   5.902   1.917   2.942 -1.0061 -0.0615  0.4564
   65MOL0     H 8578   6.279   1.805   3.039 -1.0735  0.9835  3.0614
   65MOL0     H 8579   5.697   1.855   3.471  1.8258 -0.5919 -1.7544
   65MOL0     H 8580   5.514   1.945   3.559  1.9881  0.4763 -1.3691
   66MOL0     O 8581   5.444  10.498   4.453 -0.0666  0.3959  0.2690
   66MOL0     C 8582   5.403  10.600   4.397 -0.3931 -0.0059 -0.0897
   66MOL0     O 8583   5.325  10.607   4.287  0.4959 -0.4765 -0.2422
   66MOL0     C 8584   5.264  10.499   4.233 -0.2937  0.9227 -0.1431
   66MOL0     C 8585   5.336  10.379   4.219 -0.4301  0.1170 -1.0406
   66MOL0     C 8586   5.269  10.263   4.168  0.2955 -0.8584 -0.5754
   66MOL0     C 8587   5.139  10.275   4.125  0.3487 -0.4089  0.2000
   66MOL0     O 8588   5.065  10.176   4.070  0.3711  0.0097  0.0150
   66MOL0     C 8589   5.111  10.041   4.055 -0.3294 -0.3219 -0.0870
   66MOL0     C 8590   4.996   9.969   3.980 -0.2477  0.4902 -0.9700
   66MOL0     C 8591   4.981  10.025   3.836  0.0414 -0.2641 -0.1346
   66MOL0     C 8592   5.113  10.052   3.757  0.0205 -0.4580  0.4193
   66MOL0     C 8593   5.192   9.941   3.711 -0.8888  0.2418 -0.5650
   66MOL0     C 8594   5.340   9.978   3.676  0.4656 -0.4864  0.0612
   66MOL0     C 8595   5.434   9.999   3.796  0.0630 -0.4348  1.3273
   66MOL0     C 8596   5.488   9.876   3.857  0.0077 -0.3209 -1.0268
   66MOL0     N 8597   5.397   9.782   3.927  0.3333  0.2342  0.1158
   66MOL0     C 8598   5.386   9.652   3.891 -0.2600 -0.0983 -0.3597
   66MOL0     C 8599   5.303   9.610   3.989 -0.0054  0.8292  0.2921
   66MOL0     C 8600   5.258   9.474   3.993  0.2758 -0.0684  0.2449
   66MOL0     C 8601   5.108   9.471   4.029  0.0350 -0.6029  0.4715
   66MOL0     C 8602   5.056   9.339   3.972  0.0825 -0.0590  0.4535
   66MOL0     C 8603   4.900   9.334   3.976 -0.6237  0.4324  0.1928
   66MOL0     O 8604   4.852   9.193   3.971 -0.0011 -0.0414 -0.0571
   66MOL0     C 8605   4.718   9.168   3.964 -0.5929  1.7938  0.9816
   66MOL0     C 8606   4.619   9.253   4.017  0.0965 -0.6932  0.2028
   66MOL0     C 8607   4.485   9.201   4.035  0.0658 -0.4996  0.4645
   66MOL0     C 8608   4.452   9.079   3.975 -0.0441  1.2303 -0.4718
   66MOL0     C 8609   4.315   9.016   3.991  0.2002  0.3234 -0.0609
   66MOL0     O 8610   4.222   9.048   4.095  0.1273 -0.6325 -0.6905
   66MOL0     C 8611   4.094   8.995   4.088  0.3541  0.6424  0.7805
   66MOL0     C 8612   4.085   8.865   4.131  0.4744  0.4373 -0.1368
   66MOL0     C 8613   3.960   8.800   4.124  0.3003 -0.0355  0.4968
   66MOL0     C 8614   3.847   8.861   4.064 -0.3807 -0.7278  0.7063
   66MOL0     O 8615   3.723   8.798   4.073 -0.0391 -0.4425 -0.1219
   66MOL0     C 8616   3.598   8.858   4.019 -0.6848 -0.6365  0.3998
   66MOL0     C 8617   3.466   8.829   4.100  0.1280 -0.2385  0.1355
   66MOL0     C 8618   3.344   8.845   4.015 -0.2747 -1.1103 -0.2071
   66MOL0     C 8619   3.223   8.853   4.111 -0.0205  0.8508  0.7353
   66MOL0     C 8620   3.112   8.766   4.061  0.2006 -0.5157  0.3730
   66MOL0     C 8621   3.143   8.621   4.062 -0.2953  0.9963 -0.3932
   66MOL0     C 8622   3.015   8.541   4.065  0.5715  0.5906  0.0691
   66MOL0     C 8623   3.035   8.398   4.113  0.0818  0.4989  0.1716
   66MOL0    Cl 8624   3.165   8.306   4.029 -0.2361  0.4037 -0.2290
   66MOL0     C 8625   3.871   8.994   4.005  0.7633  1.4645  0.2417
   66MOL0     C 8626   3.993   9.060   4.024 -0.5119  0.8512 -0.0870
   66MOL0     O 8627   4.289   8.937   3.901 -0.1072  0.4130 -0.7568
   66MOL0     C 8628   4.548   9.007   3.901 -0.6869 -0.2247 -0.6427
   66MOL0     C 8629   4.684   9.043   3.910 -0.0311  0.0175 -0.5294
   66MOL0     N 8630   5.261   9.712   4.072 -1.2821 -0.0838 -0.3344
   66MOL0     N 8631   5.325   9.814   4.041 -0.4536  0.0790  0.2504
   66MOL0     C 8632   5.073  10.395   4.145  0.0139  0.3269  0.2873
   66MOL0     C 8633   5.131  10.509   4.194 -0.0446  0.0425 -0.7747
   66MOL0     C 8634   5.468  10.726   4.448  0.1765  0.8058 -0.2061
   66MOL0     C 8635   5.574  10.718   4.536 -0.7757 -0.1716 -0.4205
   66MOL0     C 8636   5.648  10.840   4.559 -0.4777 -0.2679 -0.1377
   66MOL0     C 8637   5.630  10.959   4.497  0.7705 -0.2095  0.8842
   66MOL0     O 8638   5.723  11.067   4.521 -0.1838 -0.2780  0.0278
   66MOL0     C 8639   5.728  11.183   4.436 -0.5997  1.0152 -0.9564
   66MOL0     C 8640   5.808  11.292   4.498  0.1291 -0.6342 -0.9280
   66MOL0     C 8641   5.838  11.424   4.421 -0.0386  0.0034  0.3290
   66MOL0     C 8642   5.888  11.389   4.274  0.0118 -0.8572 -0.9416
   66MOL0     C 8643   6.021  11.331   4.275 -1.1853 -0.5468 -0.1847
   66MOL0     C 8644   6.138  11.304   4.262  0.3943  0.5865  0.5123
   66MOL0     C 8645   5.509  10.962   4.424  0.7723 -0.7631 -0.4095
   66MOL0     C 8646   5.430  10.847   4.402 -0.0402 -0.0161  0.5880
   66MOL0     H 8647   5.441  10.370   4.244 -0.2947 -0.8125 -1.8899
   66MOL0     H 8648   5.320  10.168   4.156  1.3400 -0.2140 -1.3546
   66MOL0     H 8649   5.117   9.987   4.150  0.4523 -1.3424 -0.6931
   66MOL0     H 8650   5.205  10.047   3.999  0.7785  1.7486  1.8146
   66MOL0     H 8651   4.906   9.991   4.037  2.2330  0.8151  3.2550
   66MOL0     H 8652   5.008   9.861   3.988  1.7243  0.6982 -0.3966
   66MOL0     H 8653   4.931  10.122   3.838 -1.1429 -0.8654  2.1118
   66MOL0     H 8654   4.913   9.960   3.780  0.1616 -0.6673  0.1793
   66MOL0     H 8655   5.071  10.117   3.679  1.4416  0.5509  0.4535
   66MOL0     H 8656   5.179  10.127   3.802 -0.2799  0.4444 -0.5792
   66MOL0     H 8657   5.144   9.899   3.623 -0.4532 -0.8583 -0.2946
   66MOL0     H 8658   5.186   9.863   3.787 -2.1621  1.1668  0.3368
   66MOL0     H 8659   5.348  10.070   3.616  3.9698 -0.7778 -0.1269
   66MOL0     H 8660   5.386   9.901   3.614 -0.9516 -2.3036  1.1838
   66MOL0     H 8661   5.520  10.055   3.758  2.2896 -3.1374  2.0594
   66MOL0     H 8662   5.381  10.061   3.869  0.7894 -0.7747  2.1592
   66MOL0     H 8663   5.557   9.916   3.931 -2.1796  0.7326  0.5476
   66MOL0     H 8664   5.551   9.821   3.787  1.7207  0.3790 -0.0951
   66MOL0     H 8665   5.448   9.599   3.819  1.0057  2.1083 -0.9853
   66MOL0     H 8666   5.320   9.417   4.062  2.0930  0.1305 -1.1461
   66MOL0     H 8667   5.267   9.431   3.893 -0.2872 -0.8194  0.5076
   66MOL0     H 8668   5.046   9.552   3.989  0.8194  0.9495  2.2138
   66MOL0     H 8669   5.102   9.466   4.138  4.7204  0.0996  0.9407
   66MOL0     H 8670   5.073   9.325   3.865  0.0643  1.0946  0.2897
   66MOL0     H 8671   5.101   9.259   4.032 -0.8960 -0.0083  1.2721
   66MOL0     H 8672   4.863   9.393   3.892  3.9968  2.8244 -0.4563
   66MOL0     H 8673   4.854   9.379   4.064 -1.6238 -2.4847  1.3094
   66MOL0     H 8674   4.660   9.332   4.079  0.4890 -1.8780  1.5266
   66MOL0     H 8675   4.415   9.259   4.095  0.5540 -0.8379  1.3822
   66MOL0     H 8676   4.170   8.812   4.173 -1.2926 -1.6747  0.9766
   66MOL0     H 8677   3.942   8.704   4.171 -1.3838 -0.0597 -0.1259
   66MOL0     H 8678   3.579   8.815   3.920  0.8134 -0.1458 -0.1341
   66MOL0     H 8679   3.621   8.964   4.001  1.4832 -1.3424 -1.5093
   66MOL0     H 8680   3.457   8.897   4.186 -0.4468  0.1233 -0.2035
   66MOL0     H 8681   3.471   8.728   4.141 -0.1968 -0.2251  0.2114
   66MOL0     H 8682   3.335   8.768   3.937 -0.0960 -0.8154 -0.5222
   66MOL0     H 8683   3.356   8.942   3.965 -1.5496  1.0736  3.3200
   66MOL0     H 8684   3.249   8.824   4.214  0.1785 -1.8850  0.0037
   66MOL0     H 8685   3.192   8.957   4.117 -0.3588  0.7214  1.4013
   66MOL0     H 8686   3.083   8.791   3.958 -0.6698 -0.6132  0.5857
   66MOL0     H 8687   3.024   8.785   4.123 -0.0273  1.6841 -0.5296
   66MOL0     H 8688   3.198   8.597   4.154  1.8468  0.4767 -1.7456
   66MOL0     H 8689   3.207   8.587   3.980 -1.3293 -2.5048  0.0535
   66MOL0     H 8690   2.946   8.599   4.126  1.5686  0.3732  1.4479
   66MOL0     H 8691   2.973   8.541   3.963 -0.2882 -2.3385  0.3353
   66MOL0     H 8692   2.940   8.344   4.109  0.7919 -0.7112 -1.7421
   66MOL0     H 8693   3.067   8.403   4.217  2.0507  0.8167 -0.4061
   66MOL0     H 8694   3.802   9.048   3.940  0.5799  1.4648  0.4371
   66MOL0     H 8695   4.000   9.164   3.995 -2.7126  1.0851  0.0671
   66MOL0     H 8696   4.519   8.916   3.850 -0.9861 -0.8299  0.5602
   66MOL0     H 8697   4.756   8.982   3.858  0.2796  0.6356 -0.8379
   66MOL0     H 8698   4.973  10.412   4.105  0.0267 -1.1107 -0.4010
   66MOL0     H 8699   5.069  10.598   4.203  0.6767  0.3921  1.4241
   66MOL0     H 8700   5.600  10.633   4.598  0.2564  0.0677 -0.4985
   66MOL0     H 8701   5.723  10.828   4.636 -0.5889 -0.2604 -0.0283
   66MOL0     H 8702   5.625  11.212   4.410 -1.3066 -1.4177 -1.1104
   66MOL0     H 8703   5.778  11.144   4.348  1.3631 -0.5541  0.7475
   66MOL0     H 8704   5.776  11.307   4.601 -1.0554 -5.0556 -0.4374
   66MOL0     H 8705   5.906  11.249   4.520  0.4073 -0.2987 -1.4697
   66MOL0     H 8706   5.914  11.484   4.472  0.4592  1.2397 -1.7355
   66MOL0     H 8707   5.745  11.481   4.421 -0.7322 -1.0787 -0.8043
   66MOL0     H 8708   5.819  11.332   4.211 -1.1049  0.5699 -1.0582
   66MOL0     H 8709   5.893  11.485   4.223  0.9141 -1.8572 -2.8500
   66MOL0     H 8710   6.245  11.304   4.258  0.4011 -0.8871  0.1229
   66MOL0     H 8711   5.475  11.059   4.390 -0.3166 -1.1594 -0.4932
   66MOL0     H 8712   5.340  10.856   4.343  0.1166  0.9127  0.4765
   67MOL0     O 8713   0.394   9.031   6.324  0.2628 -0.8394  0.2845
   67MOL0     C 8714   0.430   9.148   6.316  0.1341 -0.3613 -0.5034
   67MOL0     O 8715   0.365   9.246   6.252  0.1284 -0.3241  0.4272
   67MOL0     C 8716   0.257   9.224   6.173  0.0764  0.1088  0.7463
   67MOL0     C 8717   0.257   9.130   6.071 -0.1126 -0.7440 -0.2709
   67MOL0     C 8718   0.139   9.096   6.008  0.3612 -0.1040 -0.5548
   67MOL0     C 8719   0.016   9.159   6.038 -0.1629 -0.5980 -0.7769
   67MOL0     O 8720  -0.090   9.113   5.965  0.0865  0.5331 -0.2097
   67MOL0     C 8721  -0.211   9.181   5.975 -0.3760  0.1478 -0.8409
   67MOL0     C 8722  -0.242   9.211   5.833 -0.9285 -0.2867 -0.3241
   67MOL0     C 8723  -0.381   9.263   5.816  0.7078 -0.9358  0.5233
   67MOL0     C 8724  -0.491   9.155   5.801 -0.4005  0.3225  0.3139
   67MOL0     C 8725  -0.590   9.207   5.700 -0.1351 -0.0927  1.0488
   67MOL0     C 8726  -0.680   9.309   5.750  0.1716 -0.2902  0.7679
   67MOL0     C 8727  -0.755   9.361   5.631  0.5058 -0.8344  0.4504
   67MOL0     C 8728  -0.853   9.477   5.676  0.1141 -0.8258  0.1986
   67MOL0     N 8729  -0.978   9.486   5.588  0.1016 -0.5893  0.4948
   67MOL0     C 8730  -1.035   9.602   5.545  0.7948  0.1908  0.6566
   67MOL0     C 8731  -1.161   9.569   5.506  0.2029  0.2019 -0.4899
   67MOL0     C 8732  -1.274   9.666   5.481  0.0253 -0.2501 -0.3338
   67MOL0     C 8733  -1.395   9.643   5.581  0.5727 -0.5613  0.0390
   67MOL0     C 8734  -1.354   9.688   5.731 -0.4265  0.0862  0.1389
   67MOL0     C 8735  -1.480   9.724   5.808  0.2552  0.4380 -0.6193
   67MOL0     O 8736  -1.531   9.850   5.757 -0.3702  0.2296  0.3956
   67MOL0     C 8737  -1.660   9.858   5.712 -0.3689 -0.4509  0.8703
   67MOL0     C 8738  -1.724   9.980   5.717  0.4251  0.7667 -0.2024
   67MOL0     C 8739  -1.853  10.006   5.670  0.5898  0.4616 -0.9700
   67MOL0     C 8740  -1.926   9.895   5.615  0.2481  0.4097  1.0659
   67MOL0     C 8741  -2.056   9.916   5.542 -0.4916 -0.1190 -0.1400
   67MOL0     O 8742  -2.118  10.040   5.566  0.2171  0.0035 -0.3065
   67MOL0     C 8743  -2.242  10.068   5.523 -0.7144  0.6389  0.4294
   67MOL0     C 8744  -2.352   9.983   5.532  1.0646  0.4229  0.6160
   67MOL0     C 8745  -2.473  10.024   5.474  0.2245 -0.0112 -0.3209
   67MOL0     C 8746  -2.487  10.149   5.414 -0.3210 -0.3454 -0.0512
   67MOL0     O 8747  -2.586  10.190   5.325 -0.8961 -1.3192 -0.1425
   67MOL0     C 8748  -2.707  10.106   5.318 -0.2095 -0.0305  0.5785
   67MOL0     C 8749  -2.813  10.207   5.254 -0.1223  1.1398  0.3305
   67MOL0     C 8750  -2.955  10.151   5.252  0.0599  0.4026 -0.4079
   67MOL0     C 8751  -3.021  10.116   5.385 -0.4380  0.3448  0.5485
   67MOL0     C 8752  -3.167  10.078   5.355 -0.6854 -0.0091  0.0454
   67MOL0     C 8753  -3.253  10.030   5.474  0.7152  0.3826 -0.3448
   67MOL0     C 8754  -3.240  10.110   5.605 -0.8469  0.7979 -0.8070
   67MOL0     C 8755  -3.343  10.066   5.714  0.5025 -0.5423  0.5142
   67MOL0    Cl 8756  -3.498  10.127   5.651  0.0617 -0.1681 -0.2485
   67MOL0     C 8757  -2.375  10.233   5.427  0.2248 -0.2409  0.1988
   67MOL0     C 8758  -2.253  10.192   5.476  0.0301  0.3339 -0.3307
   67MOL0     O 8759  -2.108   9.823   5.486  0.2764 -0.1137  0.6618
   67MOL0     C 8760  -1.864   9.763   5.619 -0.9718 -0.6024 -0.1738
   67MOL0     C 8761  -1.730   9.749   5.661 -0.5309 -0.1437 -0.5153
   67MOL0     N 8762  -1.182   9.434   5.531 -0.2276 -0.5585  0.5763
   67MOL0     N 8763  -1.073   9.383   5.575  0.2030  0.3147  0.1092
   67MOL0     C 8764   0.026   9.264   6.127 -0.4620 -0.2457 -0.1780
   67MOL0     C 8765   0.139   9.300   6.189 -1.3546 -0.2957  0.2400
   67MOL0     C 8766   0.553   9.194   6.396 -0.9277 -0.0881  0.2089
   67MOL0     C 8767   0.650   9.100   6.440  0.6467 -0.2187  0.0929
   67MOL0     C 8768   0.743   9.136   6.532 -0.3770  0.7553 -0.3440
   67MOL0     C 8769   0.744   9.262   6.581 -0.3053 -0.2273  0.6182
   67MOL0     O 8770   0.838   9.275   6.677  0.0314 -1.4163 -0.7145
   67MOL0     C 8771   0.860   9.410   6.725  0.3137  0.7701 -0.6280
   67MOL0     C 8772   1.007   9.421   6.779  0.0967 -0.2026 -0.2490
   67MOL0     C 8773   1.117   9.444   6.672 -0.6033  0.2416 -0.0174
   67MOL0     C 8774   1.136   9.322   6.589 -0.0881  0.4356  0.0525
   67MOL0     C 8775   1.208   9.217   6.664  0.2829 -0.7107 -0.3211
   67MOL0     C 8776   1.258   9.147   6.751 -1.6290  0.2775  0.2316
   67MOL0     C 8777   0.652   9.355   6.532  0.3671 -0.2078  0.3173
   67MOL0     C 8778   0.551   9.327   6.445  0.1752 -0.4317  0.5236
   67MOL0     H 8779   0.353   9.090   6.043  1.5798  3.5723 -1.4666
   67MOL0     H 8780   0.131   9.012   5.940  0.0070  1.0586 -1.9989
   67MOL0     H 8781  -0.218   9.271   6.037 -2.3840 -0.2743 -0.3820
   67MOL0     H 8782  -0.281   9.116   6.027 -1.1962  0.8923 -0.9868
   67MOL0     H 8783  -0.231   9.117   5.779 -2.8324 -2.0755  2.1906
   67MOL0     H 8784  -0.180   9.289   5.788 -2.6571  1.1203 -0.3770
   67MOL0     H 8785  -0.375   9.323   5.725  3.2004 -1.1148  0.5080
   67MOL0     H 8786  -0.410   9.328   5.898 -1.9678  0.6884 -1.5191
   67MOL0     H 8787  -0.463   9.058   5.757 -1.5385  1.1826 -2.4798
   67MOL0     H 8788  -0.545   9.134   5.894 -2.2994  2.0042 -0.3407
   67MOL0     H 8789  -0.647   9.117   5.678  4.9930 -2.9931 -2.5868
   67MOL0     H 8790  -0.539   9.233   5.607 -1.1244 -0.9950  0.2373
   67MOL0     H 8791  -0.622   9.393   5.790  1.8067 -1.5209  1.0877
   67MOL0     H 8792  -0.721   9.267   5.843  1.3281 -1.6611  0.6923
   67MOL0     H 8793  -0.675   9.392   5.564  0.7036 -2.2134  0.0118
   67MOL0     H 8794  -0.820   9.291   5.578 -1.0561 -0.5373  1.8692
   67MOL0     H 8795  -0.805   9.575   5.670 -0.2804 -0.6304  0.2190
   67MOL0     H 8796  -0.881   9.465   5.781  1.1796 -0.8386  0.4935
   67MOL0     H 8797  -0.995   9.702   5.557  0.0269  0.7444 -1.1934
   67MOL0     H 8798  -1.304   9.663   5.376  3.6783 -0.9145 -1.5242
   67MOL0     H 8799  -1.234   9.766   5.501 -1.3818  0.9034 -2.8910
   67MOL0     H 8800  -1.410   9.535   5.578  2.1646 -0.7860 -0.3595
   67MOL0     H 8801  -1.493   9.687   5.558 -0.5151 -0.7267  3.6585
   67MOL0     H 8802  -1.306   9.603   5.778 -1.7520 -3.1637 -3.7440
   67MOL0     H 8803  -1.293   9.779   5.731  3.2168 -2.1571  0.3764
   67MOL0     H 8804  -1.469   9.722   5.917  1.7233 -2.1206 -0.7401
   67MOL0     H 8805  -1.546   9.641   5.782 -0.2945  1.3051 -2.0925
   67MOL0     H 8806  -1.671  10.066   5.759 -0.0503  0.6196  0.7300
   67MOL0     H 8807  -1.901  10.103   5.678 -1.5334 -0.5944 -0.1647
   67MOL0     H 8808  -2.343   9.892   5.591 -1.0383 -2.1107 -2.5964
   67MOL0     H 8809  -2.557   9.955   5.470 -0.9809  1.0306  3.1167
   67MOL0     H 8810  -2.738  10.072   5.417 -0.9859 -2.0431 -0.3137
   67MOL0     H 8811  -2.695  10.023   5.249  1.1518  1.3733 -0.9856
   67MOL0     H 8812  -2.765  10.232   5.159  1.9923 -1.9093  0.4485
   67MOL0     H 8813  -2.814  10.301   5.309  0.6170  2.6446 -2.0819
   67MOL0     H 8814  -2.958  10.066   5.182  0.2148  0.1349 -0.0946
   67MOL0     H 8815  -3.012  10.227   5.198  0.4889 -0.6499 -2.4674
   67MOL0     H 8816  -2.980  10.022   5.424 -0.1521  0.3225  0.1999
   67MOL0     H 8817  -3.024  10.203   5.450 -2.6459  0.5841  0.1951
   67MOL0     H 8818  -3.176  10.006   5.274 -1.4557 -1.3437  1.2583
   67MOL0     H 8819  -3.213  10.168   5.313  0.6634  0.1409 -1.1835
   67MOL0     H 8820  -3.230   9.925   5.495  1.1914  0.6346  0.4567
   67MOL0     H 8821  -3.355  10.041   5.435 -0.8116 -3.0360  2.2130
   67MOL0     H 8822  -3.137  10.082   5.630 -1.1935 -1.4900 -1.7539
   67MOL0     H 8823  -3.229  10.219   5.594  2.2317  0.3684 -3.6481
   67MOL0     H 8824  -3.321  10.106   5.813 -3.0257  3.0608  0.0990
   67MOL0     H 8825  -3.355   9.957   5.714 -0.9413 -0.5188 -2.9789
   67MOL0     H 8826  -2.388  10.339   5.406 -2.2986 -0.8585 -1.8297
   67MOL0     H 8827  -2.173  10.264   5.466  0.2117  0.1243 -0.3992
   67MOL0     H 8828  -1.904   9.674   5.572 -1.0424  0.2917 -1.9089
   67MOL0     H 8829  -1.694   9.649   5.642  1.1127  0.2782  0.2037
   67MOL0     H 8830  -0.066   9.312   6.160 -0.2247 -0.3317  0.6350
   67MOL0     H 8831   0.140   9.376   6.267  1.3592 -0.2909  0.2799
   67MOL0     H 8832   0.654   8.994   6.416  3.0392 -0.5742  1.7445
   67MOL0     H 8833   0.813   9.057   6.560  1.5295  2.3853 -0.2379
   67MOL0     H 8834   0.800   9.437   6.812 -0.3693 -1.8624 -0.1964
   67MOL0     H 8835   0.842   9.483   6.645 -0.9928  1.0212 -0.1284
   67MOL0     H 8836   1.005   9.501   6.854  0.9207 -1.0701  0.7343
   67MOL0     H 8837   1.036   9.335   6.840 -2.0754 -0.1023  1.0659
   67MOL0     H 8838   1.210   9.461   6.727 -0.1791  0.4746 -0.7984
   67MOL0     H 8839   1.113   9.536   6.612 -1.4507 -0.0803 -0.4675
   67MOL0     H 8840   1.048   9.275   6.542  1.6518 -4.0734  0.8072
   67MOL0     H 8841   1.205   9.341   6.507  0.2504 -1.8120 -0.2511
   67MOL0     H 8842   1.305   9.079   6.819 -0.4429 -1.8222 -2.5054
   67MOL0     H 8843   0.648   9.460   6.561 -1.5325  1.0723 -3.7894
   67MOL0     H 8844   0.473   9.397   6.418 -1.9468 -1.8592  2.5304
   68MOL0     O 8845   7.430   0.968  11.026 -0.4641 -0.3849  0.1205
   68MOL0     C 8846   7.425   0.848  11.053 -0.6975 -0.4999  0.2016
   68MOL0     O 8847   7.317   0.774  11.097  0.9036 -0.6259  0.1574
   68MOL0     C 8848   7.199   0.840  11.076  0.1611  0.4196 -0.3822
   68MOL0     C 8849   7.167   0.898  10.955  0.2784 -0.5169 -0.1601
   68MOL0     C 8850   7.047   0.957  10.938  1.4762 -0.1055 -0.0261
   68MOL0     C 8851   6.951   0.943  11.039 -0.3308  0.1069  0.0485
   68MOL0     O 8852   6.819   0.981  11.013 -0.2168 -0.0869  0.3679
   68MOL0     C 8853   6.715   0.899  11.083  1.0479 -0.6080 -0.3136
   68MOL0     C 8854   6.589   0.954  11.015  0.5773  0.8912 -0.1859
   68MOL0     C 8855   6.457   0.898  11.079 -0.3781  0.7772 -0.3212
   68MOL0     C 8856   6.330   0.954  11.015  0.0324  0.4909 -0.3837
   68MOL0     C 8857   6.210   0.867  11.043 -0.1480 -0.4894  0.0273
   68MOL0     C 8858   6.094   0.932  10.968  0.9031 -0.8858 -1.1004
   68MOL0     C 8859   5.966   0.839  10.977 -1.1081 -0.1824 -0.5437
   68MOL0     C 8860   5.841   0.905  10.907 -0.2946  0.1251 -0.5209
   68MOL0     N 8861   5.864   0.970  10.777 -0.0226  0.5738  0.2318
   68MOL0     C 8862   5.887   1.102  10.759  0.2318 -0.3091  0.0914
   68MOL0     C 8863   5.863   1.127  10.632  0.0351 -0.0672  0.3770
   68MOL0     C 8864   5.854   1.266  10.582  0.4533 -0.4703  0.5779
   68MOL0     C 8865   5.706   1.298  10.541  0.1679 -0.9931 -0.4453
   68MOL0     C 8866   5.598   1.257  10.642 -0.3758 -0.7276  0.5702
   68MOL0     C 8867   5.452   1.308  10.610 -0.4924  0.7822  0.2415
   68MOL0     O 8868   5.370   1.243  10.714  0.2157  0.4619 -0.2623
   68MOL0     C 8869   5.233   1.261  10.706  0.5562 -0.2951  0.2761
   68MOL0     C 8870   5.149   1.157  10.742  0.4835 -1.0838 -0.2465
   68MOL0     C 8871   5.008   1.174  10.727  0.5108  0.7179  0.1510
   68MOL0     C 8872   4.949   1.297  10.691 -0.1367  0.3840  0.1873
   68MOL0     C 8873   4.804   1.319  10.682 -0.5250  0.1595 -0.5913
   68MOL0     O 8874   4.736   1.203  10.651 -0.0462 -0.1858  0.3008
   68MOL0     C 8875   4.599   1.191  10.632  0.1815  0.4704  0.7358
   68MOL0     C 8876   4.519   1.302  10.587  0.2155 -0.1576  0.7789
   68MOL0     C 8877   4.377   1.295  10.565 -0.4172 -0.0840  0.3224
   68MOL0     C 8878   4.314   1.173  10.580 -0.3928 -0.2777 -0.1366
   68MOL0     O 8879   4.178   1.173  10.556 -0.7040 -0.4261  0.2836
   68MOL0     C 8880   4.104   1.080  10.627 -0.1217 -0.0817  0.1435
   68MOL0     C 8881   3.959   1.106  10.604 -0.3036 -0.2509  0.1632
   68MOL0     C 8882   3.896   1.189  10.721 -0.2993  0.1105 -0.1379
   68MOL0     C 8883   3.745   1.184  10.728 -0.1382 -0.7797  0.0570
   68MOL0     C 8884   3.679   1.210  10.863  0.9340  0.2438 -0.0549
   68MOL0     C 8885   3.529   1.173  10.873  0.5820  0.2357  0.3739
   68MOL0     C 8886   3.491   1.194  11.023  1.4235  0.4064 -0.3492
   68MOL0     C 8887   3.350   1.136  11.060 -1.1369 -0.3179  0.3025
   68MOL0    Cl 8888   3.381   0.959  11.088  0.5214 -0.2557  0.2432
   68MOL0     C 8889   4.395   1.066  10.621  0.8078  0.2845 -0.1909
   68MOL0     C 8890   4.532   1.069  10.650 -0.2619  0.1282 -0.0314
   68MOL0     O 8891   4.751   1.426  10.715  0.0735 -0.0131  0.5967
   68MOL0     C 8892   5.033   1.405  10.669 -0.7503  0.1569 -0.3295
   68MOL0     C 8893   5.171   1.385  10.674 -0.5953 -0.6934 -0.7710
   68MOL0     N 8894   5.837   1.008  10.563  0.1465  0.1702 -0.9882
   68MOL0     N 8895   5.832   0.916  10.655 -0.3863  0.4697  0.1745
   68MOL0     C 8896   6.986   0.892  11.168  0.7116 -0.4776  0.1868
   68MOL0     C 8897   7.111   0.846  11.186  0.0299  0.3397 -0.0169
   68MOL0     C 8898   7.555   0.775  11.022 -0.3956  0.1749 -0.3518
   68MOL0     C 8899   7.680   0.841  11.040  0.0393 -0.2271  0.1115
   68MOL0     C 8900   7.798   0.774  11.007 -0.0065 -1.1576  0.6626
   68MOL0     C 8901   7.801   0.639  10.979 -0.0292  0.6134  0.3049
   68MOL0     O 8902   7.925   0.583  10.964  0.7974  0.0568 -0.5233
   68MOL0     C 8903   7.931   0.441  10.952  0.1178 -0.0357 -0.2467
   68MOL0     C 8904   8.071   0.399  10.994 -0.4184  0.3630  1.0348
   68MOL0     C 8905   8.071   0.251  10.996 -0.0971  0.4534  1.3680
   68MOL0     C 8906   8.211   0.195  11.029  1.5858  0.0977  0.6002
   68MOL0     C 8907   8.315   0.239  10.936 -0.0993 -0.5172  0.3234
   68MOL0     C 8908   8.392   0.293  10.855 -0.0698  1.0541  0.1584
   68MOL0     C 8909   7.674   0.575  10.957  0.2420 -0.0929  0.4555
   68MOL0     C 8910   7.552   0.642  10.985 -0.0580 -0.2482  0.0202
   68MOL0     H 8911   7.236   0.907  10.872 -0.4323  1.9214 -0.5746
   68MOL0     H 8912   7.009   1.007  10.849 -3.0985 -1.1229  1.0614
   68MOL0     H 8913   6.722   0.923  11.189  2.1553  0.5615 -0.6269
   68MOL0     H 8914   6.725   0.791  11.066 -2.9712 -1.0822 -0.6799
   68MOL0     H 8915   6.592   0.930  10.908  1.5212 -0.2525  0.0795
   68MOL0     H 8916   6.604   1.059  11.037  2.8534  0.4472  0.5639
   68MOL0     H 8917   6.458   0.918  11.187 -0.1540  0.6487 -0.2979
   68MOL0     H 8918   6.455   0.789  11.065  2.0234  0.9974 -3.3531
   68MOL0     H 8919   6.314   1.054  11.055 -0.0291  0.8224 -1.2131
   68MOL0     H 8920   6.341   0.954  10.906  1.2955 -3.0972 -0.4006
   68MOL0     H 8921   6.195   0.876  11.151  2.4790 -1.2270  0.5181
   68MOL0     H 8922   6.232   0.770  10.997  0.9195  0.4759 -1.6360
   68MOL0     H 8923   6.130   0.937  10.864 -0.3556 -0.2134 -1.5124
   68MOL0     H 8924   6.085   1.032  11.010 -0.2611 -0.6685 -1.8231
   68MOL0     H 8925   5.988   0.744  10.929 -1.0177 -1.1167  1.2563
   68MOL0     H 8926   5.930   0.813  11.077 -0.7332 -2.3736 -0.9283
   68MOL0     H 8927   5.801   0.985  10.971  0.3199  0.3897 -0.4580
   68MOL0     H 8928   5.770   0.825  10.884 -0.0024  0.1877 -1.6843
   68MOL0     H 8929   5.903   1.168  10.843 -1.1350 -3.0239  2.6968
   68MOL0     H 8930   5.921   1.275  10.495 -1.4652  0.3789 -0.8886
   68MOL0     H 8931   5.903   1.333  10.654  1.0751  0.8462 -0.9907
   68MOL0     H 8932   5.690   1.244  10.447 -2.5201  1.5000 -1.5903
   68MOL0     H 8933   5.686   1.404  10.521 -2.7846 -1.5514 -1.0108
   68MOL0     H 8934   5.600   1.149  10.624  3.0274 -0.5284 -1.0988
   68MOL0     H 8935   5.634   1.281  10.743 -1.2873 -0.6205  0.8764
   68MOL0     H 8936   5.422   1.278  10.509 -0.0834  0.9379  0.0698
   68MOL0     H 8937   5.442   1.417  10.617 -2.9587  0.8399 -2.4539
   68MOL0     H 8938   5.194   1.062  10.768 -0.8164 -1.8913 -0.8279
   68MOL0     H 8939   4.934   1.098  10.750 -3.1287  4.1398  0.9034
   68MOL0     H 8940   4.564   1.399  10.570 -0.2651 -0.0957 -0.1989
   68MOL0     H 8941   4.333   1.391  10.542  3.4452  2.0910  1.1765
   68MOL0     H 8942   4.124   1.104  10.732 -0.5285  2.4884 -0.2898
   68MOL0     H 8943   4.126   0.977  10.600 -0.6443 -0.6943  1.9137
   68MOL0     H 8944   3.904   1.012  10.600 -0.0564 -0.4245  0.6580
   68MOL0     H 8945   3.949   1.167  10.514  2.9415 -0.1805 -0.2575
   68MOL0     H 8946   3.934   1.290  10.702 -1.3211  1.0052  2.2788
   68MOL0     H 8947   3.919   1.154  10.822 -5.7762  0.1441  1.4300
   68MOL0     H 8948   3.702   1.244  10.648 -0.7331 -2.2028 -0.7355
   68MOL0     H 8949   3.701   1.089  10.696 -0.3001 -0.4920 -0.6015
   68MOL0     H 8950   3.711   1.311  10.890  3.8044 -0.5663 -0.1751
   68MOL0     H 8951   3.732   1.150  10.937  3.6189  1.4505 -0.8727
   68MOL0     H 8952   3.511   1.073  10.832 -1.2088 -0.6384  3.0091
   68MOL0     H 8953   3.470   1.246  10.816 -0.2339  0.0504  0.9598
   68MOL0     H 8954   3.571   1.154  11.086  1.8355  0.8384 -0.5932
   68MOL0     H 8955   3.487   1.303  11.038 -0.2712  0.3780 -0.4234
   68MOL0     H 8956   3.276   1.152  10.981 -0.7682  1.2663  0.2494
   68MOL0     H 8957   3.306   1.184  11.148 -2.0501  1.6362 -1.1436
   68MOL0     H 8958   4.347   0.970  10.635  1.3394  0.3241  2.4770
   68MOL0     H 8959   4.568   0.976  10.693 -3.1015 -2.2967 -2.4041
   68MOL0     H 8960   4.992   1.500  10.638 -0.1341 -0.2474 -2.5663
   68MOL0     H 8961   5.241   1.465  10.653 -1.6463  0.1632 -1.1272
   68MOL0     H 8962   6.913   0.889  11.249 -0.0895  1.8554 -0.3690
   68MOL0     H 8963   7.133   0.801  11.282 -1.1251  0.9704  0.5757
   68MOL0     H 8964   7.691   0.941  11.082 -3.0326  0.6745 -0.9855
   68MOL0     H 8965   7.892   0.824  11.029  0.3599 -1.3622 -0.3556
   68MOL0     H 8966   7.907   0.404  10.852  0.4769 -1.5902  0.2217
   68MOL0     H 8967   7.860   0.397  11.022 -1.6521  0.5790 -1.5883
   68MOL0     H 8968   8.135   0.442  10.916 -1.6207  1.4413  0.6017
   68MOL0     H 8969   8.103   0.440  11.090  0.6437  2.1603 -0.0097
   68MOL0     H 8970   8.036   0.215  10.899  0.6513 -0.0083  1.2590
   68MOL0     H 8971   8.007   0.209  11.074  1.7097 -2.3861  1.4678
   68MOL0     H 8972   8.225   0.228  11.132  0.3920 -0.7790  1.0561
   68MOL0     H 8973   8.202   0.086  11.021 -1.7576  0.3788 -1.7544
   68MOL0     H 8974   8.468   0.329  10.788  0.4095 -0.8057 -0.3594
   68MOL0     H 8975   7.679   0.470  10.926  1.5454 -0.3024  1.2975
   68MOL0     H 8976   7.459   0.587  10.982 -0.0051 -0.3009 -1.2892
   69MOL0     O 8977  10.392  10.910   7.856 -0.2011 -0.6060  0.5964
   69MOL0     C 8978  10.348  10.839   7.943  0.7004 -0.4165 -0.1347
   69MOL0     O 8979  10.417  10.785   8.041 -0.2162 -0.1178  0.0354
   69MOL0     C 8980  10.541  10.746   8.013  0.2880 -0.1510  0.0591
   69MOL0     C 8981  10.639  10.762   8.116  0.3404  1.0577 -0.2163
   69MOL0     C 8982  10.772  10.728   8.110 -0.0932 -0.4964  1.4199
   69MOL0     C 8983  10.818  10.675   7.988 -0.2475 -0.6231 -0.8337
   69MOL0     O 8984  10.953  10.636   7.963 -0.1048 -0.1448  0.2277
   69MOL0     C 8985  11.047  10.646   8.078  0.2049  0.4655 -0.4349
   69MOL0     C 8986  11.179  10.599   8.025 -0.4314  0.5770 -0.2538
   69MOL0     C 8987  11.274  10.592   8.140  0.5375 -1.0512  0.2059
   69MOL0     C 8988  11.307  10.730   8.184  0.2488 -0.8178 -0.3397
   69MOL0     C 8989  11.428  10.737   8.282  0.4893  0.3382  0.5869
   69MOL0     C 8990  11.569  10.739   8.213  0.5005 -0.0907 -0.2614
   69MOL0     C 8991  11.692  10.758   8.311  0.0111  0.9841 -0.4463
   69MOL0     C 8992  11.777  10.631   8.349  0.0019 -0.1659  0.5353
   69MOL0     N 8993  11.700  10.528   8.411  0.6201 -0.6937  0.0544
   69MOL0     C 8994  11.608  10.547   8.522 -0.3852 -0.0192 -0.0065
   69MOL0     C 8995  11.540  10.432   8.520  0.0318 -0.5025 -0.9174
   69MOL0     C 8996  11.438  10.408   8.628  0.0191 -0.1020 -0.0173
   69MOL0     C 8997  11.303  10.472   8.606 -0.5196  0.2590 -0.5297
   69MOL0     C 8998  11.286  10.623   8.625  0.2643 -0.4792 -0.1454
   69MOL0     C 8999  11.146  10.674   8.611 -0.3256 -0.1594  0.0991
   69MOL0     O 9000  11.097  10.626   8.482 -0.3020 -0.0416 -0.1886
   69MOL0     C 9001  10.962  10.610   8.468  0.0382 -0.6454  0.3747
   69MOL0     C 9002  10.912  10.516   8.393 -0.3274  0.4519 -0.0036
   69MOL0     C 9003  10.775  10.506   8.363 -0.7675  0.3895  0.2095
   69MOL0     C 9004  10.680  10.592   8.414 -0.0780  0.1928  0.5225
   69MOL0     C 9005  10.532  10.567   8.380  0.6480  0.2517 -0.4012
   69MOL0     O 9006  10.481  10.447   8.345  0.4202 -0.1148  0.1809
   69MOL0     C 9007  10.344  10.446   8.350  0.0680 -1.1944 -0.9949
   69MOL0     C 9008  10.285  10.366   8.449 -0.2498 -0.3208  1.0472
   69MOL0     C 9009  10.150  10.341   8.458 -0.8679 -0.0418  0.3836
   69MOL0     C 9010  10.066  10.391   8.354  0.4505  0.0721  0.5106
   69MOL0     O 9011   9.925  10.381   8.352 -0.4548 -0.1727  0.2288
   69MOL0     C 9012   9.888  10.248   8.324 -0.2499 -0.0788 -0.1614
   69MOL0     C 9013   9.740  10.236   8.321 -0.2184  0.2862  0.3624
   69MOL0     C 9014   9.687  10.289   8.454  0.4240  0.1379 -0.3355
   69MOL0     C 9015   9.542  10.252   8.485 -0.5810  0.1333  0.9179
   69MOL0     C 9016   9.455  10.342   8.408  0.1429 -0.3877 -0.3387
   69MOL0     C 9017   9.304  10.332   8.446 -0.8367 -0.8234  0.0413
   69MOL0     C 9018   9.242  10.204   8.388 -0.5034 -0.3035  0.1428
   69MOL0     C 9019   9.097  10.211   8.340 -0.0217 -0.9780  0.6136
   69MOL0    Cl 9020   8.976  10.251   8.484  0.4188  0.0171  0.0801
   69MOL0     C 9021  10.120  10.473   8.254  0.3762  0.6736  0.2295
   69MOL0     C 9022  10.262  10.499   8.250  0.8404 -0.4347  0.4207
   69MOL0     O 9023  10.464  10.664   8.407  0.3223 -0.9199  0.7980
   69MOL0     C 9024  10.731  10.687   8.502 -0.1603  0.3299 -0.6681
   69MOL0     C 9025  10.868  10.692   8.531 -0.9236  0.1413 -0.8820
   69MOL0     N 9026  11.590  10.352   8.423 -0.1989 -0.5842  0.1266
   69MOL0     N 9027  11.681  10.408   8.357  0.1266 -0.4717 -0.7058
   69MOL0     C 9028  10.726  10.667   7.879  0.3707  0.1983  0.4502
   69MOL0     C 9029  10.587  10.698   7.889  0.2404  0.5034  0.3267
   69MOL0     C 9030  10.198  10.834   7.952 -0.0271  1.2447  0.3630
   69MOL0     C 9031  10.114  10.862   7.839  0.7877  0.3366 -0.0850
   69MOL0     C 9032   9.984  10.818   7.837  0.6795  0.4656 -0.6424
   69MOL0     C 9033   9.927  10.757   7.942  0.2285 -0.0721 -0.5834
   69MOL0     O 9034   9.800  10.722   7.924  0.0337  0.0904  0.0922
   69MOL0     C 9035   9.719  10.678   8.028  1.5361  0.2319 -0.5574
   69MOL0     C 9036   9.584  10.628   7.963  0.7277  0.4472  0.5434
   69MOL0     C 9037   9.480  10.596   8.067 -0.4017 -0.3008  0.5704
   69MOL0     C 9038   9.348  10.562   8.005  0.4877  0.8803  0.5583
   69MOL0     C 9039   9.237  10.573   8.096 -0.2029 -0.0246  0.7105
   69MOL0     C 9040   9.136  10.567   8.166 -0.7123 -0.3206 -0.2452
   69MOL0     C 9041  10.001  10.748   8.065 -0.0155 -0.3103  0.0998
   69MOL0     C 9042  10.139  10.779   8.066  0.0814 -0.3599 -0.3298
   69MOL0     H 9043  10.603  10.794   8.213  3.3750 -1.2745  1.8800
   69MOL0     H 9044  10.832  10.751   8.197  0.1450  0.5076  0.9988
   69MOL0     H 9045  11.029  10.583   8.166  0.5905  1.0645  0.0781
   69MOL0     H 9046  11.047  10.753   8.099 -3.1746  0.2399  1.4767
   69MOL0     H 9047  11.219  10.666   7.948  1.0693 -0.3541 -0.3373
   69MOL0     H 9048  11.157  10.498   7.989 -3.8339  1.3099 -0.5159
   69MOL0     H 9049  11.367  10.539   8.119  1.2525  0.0282  0.5207
   69MOL0     H 9050  11.238  10.542   8.230  0.9657 -2.2497 -0.2690
   69MOL0     H 9051  11.331  10.801   8.104  1.4869  0.8863  1.4404
   69MOL0     H 9052  11.220  10.767   8.238 -0.1016 -1.1523 -0.6738
   69MOL0     H 9053  11.422  10.654   8.354  0.7329 -0.0860  0.1238
   69MOL0     H 9054  11.428  10.828   8.343 -1.9530 -0.9762  2.7441
   69MOL0     H 9055  11.569  10.823   8.143  0.6571  2.9177  3.0865
   69MOL0     H 9056  11.584  10.650   8.151  1.5034  0.7589 -1.2793
   69MOL0     H 9057  11.763  10.825   8.261  1.4649 -0.6073 -0.6023
   69MOL0     H 9058  11.651  10.810   8.399  0.6406  2.0591 -0.7596
   69MOL0     H 9059  11.851  10.661   8.425 -0.4808 -0.6671  1.2173
   69MOL0     H 9060  11.816  10.597   8.253 -1.0813 -3.0175  1.0060
   69MOL0     H 9061  11.623  10.621   8.600 -1.8477 -0.3692  0.6533
   69MOL0     H 9062  11.471  10.453   8.722 -3.6227  2.5753  0.1546
   69MOL0     H 9063  11.408  10.303   8.629 -2.8505  0.6246 -0.9165
   69MOL0     H 9064  11.243  10.419   8.681  0.6723 -1.0400 -0.4651
   69MOL0     H 9065  11.274  10.442   8.505  0.4235  0.6559 -0.9295
   69MOL0     H 9066  11.325  10.648   8.724  1.5013 -2.6206 -0.0304
   69MOL0     H 9067  11.350  10.667   8.549 -0.8184 -0.6859 -1.1972
   69MOL0     H 9068  11.147  10.783   8.620 -1.0010 -0.1006 -0.3970
   69MOL0     H 9069  11.090  10.632   8.695 -0.1470 -0.4304  0.0812
   69MOL0     H 9070  10.973  10.438   8.347 -1.4467 -0.6134  0.2428
   69MOL0     H 9071  10.746  10.436   8.286  1.0493  1.3367 -1.4160
   69MOL0     H 9072  10.341  10.330   8.535 -0.0869  1.0822  1.5558
   69MOL0     H 9073  10.125  10.295   8.554  0.2676  1.4514  1.4287
   69MOL0     H 9074   9.946  10.183   8.390 -2.3475 -2.3135 -0.3803
   69MOL0     H 9075   9.932  10.222   8.226 -0.3218 -1.7701  0.2253
   69MOL0     H 9076   9.715  10.129   8.314 -0.7154  0.3768  0.7169
   69MOL0     H 9077   9.699  10.286   8.233  0.9448  0.7857  0.0903
   69MOL0     H 9078   9.699  10.397   8.452  2.7996 -0.0842 -0.6480
   69MOL0     H 9079   9.751  10.254   8.536  1.1217  0.5781 -0.6853
   69MOL0     H 9080   9.531  10.146   8.459 -1.4258  0.8470 -2.0556
   69MOL0     H 9081   9.518  10.261   8.591 -0.3428  0.0510  0.9776
   69MOL0     H 9082   9.469  10.326   8.300 -1.7011 -0.5079 -0.5839
   69MOL0     H 9083   9.471  10.445   8.439 -2.6988 -0.0138  0.1250
   69MOL0     H 9084   9.256  10.414   8.392  2.1588  0.1909 -1.3058
   69MOL0     H 9085   9.274  10.348   8.550  2.5311  0.7720  0.9133
   69MOL0     H 9086   9.314  10.158   8.320 -0.5291 -0.5573  0.2853
   69MOL0     H 9087   9.231  10.137   8.474  2.3057 -0.7214  0.2690
   69MOL0     H 9088   9.069  10.119   8.288  1.3348 -1.3464  0.5046
   69MOL0     H 9089   9.082  10.285   8.261  2.8866 -1.2415 -0.2769
   69MOL0     H 9090  10.058  10.504   8.170 -0.1706 -0.9328 -0.0039
   69MOL0     H 9091  10.307  10.549   8.165 -1.9648 -1.3608 -1.7776
   69MOL0     H 9092  10.654  10.743   8.556 -0.3729  0.3085 -0.9443
   69MOL0     H 9093  10.904  10.769   8.599  0.8812 -0.8371 -0.6831
   69MOL0     H 9094  10.755  10.634   7.780 -0.9650  1.8927 -0.5731
   69MOL0     H 9095  10.526  10.694   7.800  0.6456  2.7403 -0.0896
   69MOL0     H 9096  10.164  10.913   7.757  0.9718  0.8328  0.3303
   69MOL0     H 9097   9.920  10.834   7.751  0.6405 -1.3562 -0.9765
   69MOL0     H 9098   9.710  10.758   8.102 -0.0550 -0.9329  0.5792
   69MOL0     H 9099   9.763  10.597   8.087 -2.2498 -0.2650  1.9113
   69MOL0     H 9100   9.550  10.703   7.891 -2.2295 -2.6192 -1.5453
   69MOL0     H 9101   9.595  10.536   7.904 -0.2131  0.3807  0.4616
   69MOL0     H 9102   9.460  10.693   8.113 -1.6210 -0.9304  1.3982
   69MOL0     H 9103   9.525  10.523   8.135  0.4391 -0.8333 -0.5179
   69MOL0     H 9104   9.329  10.617   7.913  0.1359 -0.0871  0.0425
   69MOL0     H 9105   9.351  10.454   7.989  1.5998  0.3822  3.5079
   69MOL0     H 9106   9.062  10.538   8.238 -0.3903  1.3521  0.8204
   69MOL0     H 9107   9.956  10.709   8.156 -3.5944  0.0621 -1.3423
   69MOL0     H 9108  10.191  10.751   8.156 -0.4628 -0.9639 -0.1954
   70MOL0     O 9109   8.909   5.012   0.114  0.6345  0.2846 -0.4751
   70MOL0     C 9110   8.954   4.952   0.214 -0.6569 -0.4951  0.2702
   70MOL0     O 9111   8.876   4.901   0.320 -0.5745  0.0974  0.6689
   70MOL0     C 9112   8.737   4.923   0.326 -0.7625  0.3908  0.2246
   70MOL0     C 9113   8.678   5.048   0.301  0.7242 -0.0662 -0.8999
   70MOL0     C 9114   8.537   5.053   0.322  0.3847  0.9520 -0.3176
   70MOL0     C 9115   8.462   4.945   0.364 -0.5187 -0.8775 -0.0189
   70MOL0     O 9116   8.322   4.933   0.372  0.2268 -0.5773  0.2622
   70MOL0     C 9117   8.251   5.061   0.386  0.1383  0.2664 -0.3166
   70MOL0     C 9118   8.106   5.032   0.438  0.0676 -0.2260 -0.6429
   70MOL0     C 9119   8.040   5.166   0.479 -1.0382  0.0584 -0.3315
   70MOL0     C 9120   7.893   5.153   0.500  0.2151 -0.5905 -0.4305
   70MOL0     C 9121   7.814   5.290   0.529  0.4496  0.7667  0.2551
   70MOL0     C 9122   7.834   5.342   0.672  0.1622  0.4524  0.1832
   70MOL0     C 9123   7.804   5.239   0.778 -0.9173 -0.2767 -0.3029
   70MOL0     C 9124   7.737   5.308   0.898 -0.3958 -0.2762  0.7535
   70MOL0     N 9125   7.685   5.218   0.990  1.0542  0.4788  0.0862
   70MOL0     C 9126   7.747   5.100   1.032  0.2272  0.9907 -0.2168
   70MOL0     C 9127   7.697   5.078   1.160  0.1690  1.0533  0.0650
   70MOL0     C 9128   7.745   4.961   1.245 -0.0616  0.1793  0.8102
   70MOL0     C 9129   7.640   4.856   1.267  0.0033  1.0307  0.7687
   70MOL0     C 9130   7.508   4.897   1.329  0.3748 -0.3465 -0.3701
   70MOL0     C 9131   7.542   4.944   1.473 -0.3764  0.5703 -0.3999
   70MOL0     O 9132   7.570   4.823   1.552 -0.1887  0.3747 -0.0780
   70MOL0     C 9133   7.468   4.771   1.630  0.1270 -0.2251  0.2420
   70MOL0     C 9134   7.467   4.628   1.653 -0.2148  0.8460 -0.4568
   70MOL0     C 9135   7.367   4.563   1.742  0.1784  0.3289 -0.1719
   70MOL0     C 9136   7.271   4.643   1.807 -0.5358 -0.3595  0.4011
   70MOL0     C 9137   7.163   4.586   1.897 -0.2248 -0.2276  0.2957
   70MOL0     O 9138   7.051   4.667   1.926 -0.7910  0.1234 -0.2405
   70MOL0     C 9139   6.936   4.604   1.953  0.1687 -0.2419  0.5646
   70MOL0     C 9140   6.886   4.473   1.905  0.1930  0.4054  0.8454
   70MOL0     C 9141   6.761   4.420   1.945  0.5264 -0.2473  0.3669
   70MOL0     C 9142   6.679   4.490   2.031  0.3841  0.2638  0.7071
   70MOL0     O 9143   6.567   4.434   2.070  0.2897  0.7027 -0.0371
   70MOL0     C 9144   6.455   4.513   2.124 -0.2563 -0.9276  0.4054
   70MOL0     C 9145   6.319   4.445   2.105 -0.4729  0.0979  0.0384
   70MOL0     C 9146   6.201   4.522   2.169  0.7055 -0.1911 -0.4086
   70MOL0     C 9147   6.071   4.458   2.151  0.8375  0.3451  0.1928
   70MOL0     C 9148   5.959   4.530   2.211 -0.2036  1.0908  0.2517
   70MOL0     C 9149   5.827   4.458   2.175  0.9938 -1.1856 -0.4894
   70MOL0     C 9150   5.714   4.525   2.262 -0.8970  0.2538  0.3094
   70MOL0     C 9151   5.580   4.452   2.241  0.3808  0.4379  0.0793
   70MOL0    Cl 9152   5.443   4.545   2.304 -0.3182 -0.2845  0.2855
   70MOL0     C 9153   6.725   4.608   2.087  0.0118 -0.4313 -0.5903
   70MOL0     C 9154   6.847   4.663   2.043 -0.0064  0.0023  1.0366
   70MOL0     O 9155   7.184   4.473   1.933  0.5392  1.1265 -0.2163
   70MOL0     C 9156   7.274   4.782   1.772 -0.2186 -0.3018  0.8885
   70MOL0     C 9157   7.370   4.844   1.690  1.2075 -0.3106  0.0750
   70MOL0     N 9158   7.607   5.168   1.188 -0.0630 -0.9597 -0.1378
   70MOL0     N 9159   7.597   5.253   1.086  0.1736  0.0423  0.4592
   70MOL0     C 9160   8.526   4.824   0.385  0.0113  0.0413 -0.8678
   70MOL0     C 9161   8.662   4.808   0.367  0.6122  0.0254 -0.1733
   70MOL0     C 9162   9.102   4.940   0.225 -0.2166  0.1231  0.0363
   70MOL0     C 9163   9.162   4.887   0.339 -0.2419 -0.8663  0.0603
   70MOL0     C 9164   9.300   4.866   0.339 -0.7165 -0.3279  0.1238
   70MOL0     C 9165   9.383   4.905   0.234 -0.4495 -0.3226  0.0762
   70MOL0     O 9166   9.519   4.904   0.229 -0.1215 -0.4501 -0.1512
   70MOL0     C 9167   9.589   4.814   0.311 -0.4632  0.2262  0.1459
   70MOL0     C 9168   9.568   4.671   0.254 -0.0059 -1.1026 -0.0225
   70MOL0     C 9169   9.651   4.582   0.339 -0.1918  0.3790 -0.4276
   70MOL0     C 9170   9.697   4.456   0.276 -0.7758 -0.6226 -0.1689
   70MOL0     C 9171   9.595   4.362   0.258 -0.0295  0.2707 -0.7399
   70MOL0     C 9172   9.500   4.292   0.254  0.2091  0.4541 -0.5197
   70MOL0     C 9173   9.320   4.960   0.121  0.2431  0.0526  0.0732
   70MOL0     C 9174   9.182   4.976   0.120 -0.2836  0.7552  0.2179
   70MOL0     H 9175   8.743   5.131   0.276  1.4576 -0.4834 -0.4161
   70MOL0     H 9176   8.477   5.141   0.301  0.5407  0.5454 -2.7958
   70MOL0     H 9177   8.244   5.115   0.291  0.3651  1.0706  0.1154
   70MOL0     H 9178   8.304   5.116   0.464  2.0170 -1.2785 -0.4300
   70MOL0     H 9179   8.104   4.965   0.525 -2.4493  1.4513  0.7360
   70MOL0     H 9180   8.038   4.993   0.362 -2.2353  0.7163  0.8209
   70MOL0     H 9181   8.068   5.236   0.400 -0.3825 -1.5240 -1.5661
   70MOL0     H 9182   8.075   5.189   0.580  2.1242 -1.2001 -1.0046
   70MOL0     H 9183   7.861   5.121   0.401  1.8632 -2.2938 -0.4585
   70MOL0     H 9184   7.871   5.072   0.570 -2.2611  0.4463  0.1277
   70MOL0     H 9185   7.710   5.263   0.510  1.0642 -1.0685 -0.6933
   70MOL0     H 9186   7.833   5.365   0.452 -3.1343 -1.4432 -3.1337
   70MOL0     H 9187   7.758   5.421   0.682  0.9403  1.3302 -0.5930
   70MOL0     H 9188   7.934   5.384   0.689  0.1880 -0.0250  1.2735
   70MOL0     H 9189   7.729   5.169   0.741 -1.8455  0.2125  0.5787
   70MOL0     H 9190   7.899   5.192   0.805 -0.1675 -0.8514 -3.6023
   70MOL0     H 9191   7.650   5.362   0.860 -0.4444 -1.2893 -0.6386
   70MOL0     H 9192   7.805   5.384   0.938 -2.9926  4.7397 -3.1605
   70MOL0     H 9193   7.810   5.031   0.977 -1.3821 -1.1274  0.4657
   70MOL0     H 9194   7.784   5.000   1.339 -2.3006  0.6067  1.6151
   70MOL0     H 9195   7.830   4.909   1.199 -0.0946  0.3077  0.6006
   70MOL0     H 9196   7.690   4.768   1.311 -2.4173 -1.0124 -0.3106
   70MOL0     H 9197   7.611   4.819   1.169  0.8852  1.1582  0.4492
   70MOL0     H 9198   7.476   4.983   1.269  2.3914  0.3236 -0.5853
   70MOL0     H 9199   7.432   4.820   1.315 -1.1158  0.7732  1.2020
   70MOL0     H 9200   7.453   4.997   1.510 -0.0565  0.8432 -0.0200
   70MOL0     H 9201   7.633   5.004   1.477  0.0641 -0.1590  0.6901
   70MOL0     H 9202   7.548   4.563   1.621  0.1971  1.4857 -0.7498
   70MOL0     H 9203   7.377   4.456   1.760  5.2444  0.4945 -0.5907
   70MOL0     H 9204   6.955   4.412   1.848 -0.3665 -2.9427  3.4429
   70MOL0     H 9205   6.715   4.331   1.903 -0.9894  0.3511  0.6998
   70MOL0     H 9206   6.456   4.609   2.071 -2.6639  0.3646  2.5252
   70MOL0     H 9207   6.463   4.526   2.232 -3.2349  1.5836  0.4284
   70MOL0     H 9208   6.334   4.342   2.141  0.8768 -0.0633 -0.8999
   70MOL0     H 9209   6.308   4.438   1.996  0.3965 -0.8423 -0.0087
   70MOL0     H 9210   6.207   4.618   2.116 -0.1592  0.1914  0.1862
   70MOL0     H 9211   6.217   4.542   2.275 -0.2040  1.6654 -0.5734
   70MOL0     H 9212   6.047   4.435   2.047 -0.7604  0.0344  0.6135
   70MOL0     H 9213   6.085   4.361   2.199  0.1618 -0.7000 -1.6329
   70MOL0     H 9214   5.963   4.631   2.172 -0.6482  1.3678  0.9034
   70MOL0     H 9215   5.971   4.537   2.320  0.5200  1.1435  0.1770
   70MOL0     H 9216   5.837   4.352   2.196  1.3172 -1.0233  0.1937
   70MOL0     H 9217   5.798   4.476   2.071 -1.5867  2.7672  0.7022
   70MOL0     H 9218   5.744   4.523   2.367 -0.5575  1.3208  0.2395
   70MOL0     H 9219   5.700   4.631   2.243  2.5026  0.6563 -0.6303
   70MOL0     H 9220   5.590   4.353   2.285 -2.4852 -0.1821 -0.4718
   70MOL0     H 9221   5.570   4.439   2.133 -0.5847  2.5632 -0.1400
   70MOL0     H 9222   6.676   4.660   2.168 -0.2923  1.4118 -1.8874
   70MOL0     H 9223   6.859   4.759   2.093  0.3400  0.0177  0.9317
   70MOL0     H 9224   7.198   4.854   1.800  0.5538  0.2417  1.6364
   70MOL0     H 9225   7.379   4.952   1.678  1.1030 -0.5691 -3.1236
   70MOL0     H 9226   8.471   4.733   0.408 -1.0982 -0.0885 -3.6752
   70MOL0     H 9227   8.705   4.717   0.408  1.3625  1.3414  2.1487
   70MOL0     H 9228   9.105   4.856   0.427  2.1051 -1.3552  1.4965
   70MOL0     H 9229   9.336   4.823   0.431  0.1908  0.3375  0.0993
   70MOL0     H 9230   9.558   4.819   0.416  0.1385  1.2500  0.2922
   70MOL0     H 9231   9.692   4.851   0.302 -1.4715  3.2010 -0.4610
   70MOL0     H 9232   9.464   4.640   0.246 -0.5976  1.1470 -5.0198
   70MOL0     H 9233   9.607   4.669   0.151  0.1360 -2.3959  0.0415
   70MOL0     H 9234   9.594   4.560   0.429 -0.3775  0.0079 -0.6317
   70MOL0     H 9235   9.742   4.631   0.374  2.0855 -3.1826 -0.7551
   70MOL0     H 9236   9.751   4.461   0.181 -0.7917  2.1663 -0.1037
   70MOL0     H 9237   9.765   4.409   0.348  0.8138  0.2264 -1.0739
   70MOL0     H 9238   9.412   4.231   0.245 -0.1212  0.1640  2.9901
   70MOL0     H 9239   9.366   4.995   0.030 -0.8382  1.3757 -0.0026
   70MOL0     H 9240   9.142   5.021   0.030  0.7638 -0.7255 -1.0366
   71MOL0     O 9241   8.795   8.586   5.125  0.6962  0.0901 -0.4507
   71MOL0     C 9242   8.742   8.489   5.078  0.1329 -0.3587  0.7841
   71MOL0     O 9243   8.635   8.427   5.127  0.5659  0.0829  0.4200
   71MOL0     C 9244   8.583   8.478   5.239  1.0154  0.0815 -0.2487
   71MOL0     C 9245   8.575   8.398   5.355  0.2922 -0.8099  0.9039
   71MOL0     C 9246   8.513   8.445   5.465  0.1676 -0.3412  0.3751
   71MOL0     C 9247   8.453   8.573   5.460 -0.7107  0.3910 -0.1440
   71MOL0     O 9248   8.403   8.625   5.571 -0.3374 -0.0675 -0.8880
   71MOL0     C 9249   8.324   8.547   5.652 -0.0731  0.4188 -0.4797
   71MOL0     C 9250   8.293   8.619   5.775 -0.1286  0.0063 -0.1509
   71MOL0     C 9251   8.182   8.566   5.862 -0.0585 -0.4722  0.2598
   71MOL0     C 9252   8.179   8.625   6.006 -0.2034  0.8753  0.4414
   71MOL0     C 9253   8.044   8.573   6.072  0.2028 -0.3670  0.4602
   71MOL0     C 9254   8.057   8.559   6.220 -1.0757  0.5795  0.5738
   71MOL0     C 9255   7.919   8.528   6.283 -0.1447 -0.2573  0.9149
   71MOL0     C 9256   7.944   8.497   6.437  0.3666 -0.2462  0.2146
   71MOL0     N 9257   7.831   8.440   6.508  0.3940 -0.1422 -0.7240
   71MOL0     C 9258   7.776   8.318   6.480 -0.8305 -0.0746 -0.5242
   71MOL0     C 9259   7.699   8.286   6.595  0.0794 -0.1722  1.0171
   71MOL0     C 9260   7.607   8.164   6.602  0.6872  0.4694 -0.3374
   71MOL0     C 9261   7.496   8.187   6.703  0.1439  0.0026 -0.1422
   71MOL0     C 9262   7.394   8.077   6.700  0.5882 -0.3523 -0.4226
   71MOL0     C 9263   7.282   8.107   6.804 -0.6100  0.4007 -1.3556
   71MOL0     O 9264   7.163   8.145   6.730  0.2478  0.1079 -0.3773
   71MOL0     C 9265   7.055   8.117   6.810  0.3046 -0.0706  0.1216
   71MOL0     C 9266   7.034   8.190   6.930  0.5836 -1.1813  0.1737
   71MOL0     C 9267   6.926   8.160   7.011  0.8103 -0.2014  0.4115
   71MOL0     C 9268   6.849   8.045   6.980 -0.4056 -0.3520 -1.0607
   71MOL0     C 9269   6.748   7.989   7.074  0.1417 -0.2989 -0.2321
   71MOL0     O 9270   6.665   7.892   7.029  0.9924 -0.5554 -0.2339
   71MOL0     C 9271   6.574   7.826   7.110  0.2939  0.3927  0.3495
   71MOL0     C 9272   6.529   7.703   7.063 -0.0873  0.3566 -0.4043
   71MOL0     C 9273   6.424   7.636   7.125 -0.2265  0.7437  0.2813
   71MOL0     C 9274   6.356   7.684   7.238 -0.4171  0.4756 -1.0268
   71MOL0     O 9275   6.270   7.602   7.308 -0.0068 -0.7017  0.1077
   71MOL0     C 9276   6.173   7.670   7.401 -0.0414 -0.3477  0.0736
   71MOL0     C 9277   6.085   7.560   7.454 -0.0000 -0.1843 -0.8281
   71MOL0     C 9278   5.956   7.626   7.513 -0.9574 -0.2121  0.3822
   71MOL0     C 9279   5.870   7.529   7.567  0.9607 -0.1807 -0.2984
   71MOL0     C 9280   5.785   7.436   7.469  0.7666 -0.1192 -0.7504
   71MOL0     C 9281   5.707   7.326   7.539 -0.1708  0.3794  0.2684
   71MOL0     C 9282   5.580   7.377   7.605 -0.4804  0.0214  0.2957
   71MOL0     C 9283   5.471   7.279   7.627  1.5159  0.9039 -0.1123
   71MOL0    Cl 9284   5.345   7.373   7.719 -0.3715 -0.3085  0.3494
   71MOL0     C 9285   6.400   7.806   7.292 -1.1026  0.6626  0.2008
   71MOL0     C 9286   6.505   7.876   7.228  0.3235  0.0292  0.1127
   71MOL0     O 9287   6.764   8.015   7.196  0.4777  0.1549 -0.5671
   71MOL0     C 9288   6.865   7.979   6.858 -0.0528  1.0969 -0.8868
   71MOL0     C 9289   6.964   8.017   6.773 -0.3165  0.1482  0.1644
   71MOL0     N 9290   7.712   8.393   6.683 -0.1944  0.7724  0.3564
   71MOL0     N 9291   7.800   8.475   6.634 -0.7526  0.2636 -0.4485
   71MOL0     C 9292   8.465   8.661   5.351  0.5600  0.1471 -0.4007
   71MOL0     C 9293   8.512   8.604   5.237 -0.4851 -0.2842 -0.3091
   71MOL0     C 9294   8.813   8.422   4.966  0.5876  0.1768 -0.0140
   71MOL0     C 9295   8.946   8.446   4.941 -0.7269  0.9423  0.3526
   71MOL0     C 9296   9.012   8.378   4.839 -0.4033 -1.4638 -0.7349
   71MOL0     C 9297   8.940   8.290   4.750  0.0246  0.3022 -0.2852
   71MOL0     O 9298   9.000   8.231   4.641  0.3636  0.3569 -0.2790
   71MOL0     C 9299   9.059   8.320   4.554  0.1590  0.5474  0.1148
   71MOL0     C 9300   9.212   8.317   4.567  0.2015  0.0361  0.3082
   71MOL0     C 9301   9.279   8.182   4.509  0.6766  0.5069  0.1604
   71MOL0     C 9302   9.433   8.178   4.538 -0.4319 -0.3558  0.2867
   71MOL0     C 9303   9.486   8.042   4.517  0.5700 -0.0558  0.4925
   71MOL0     C 9304   9.522   7.930   4.507  0.1689 -0.0688  0.3393
   71MOL0     C 9305   8.810   8.255   4.781  0.1972  0.0103  0.5360
   71MOL0     C 9306   8.744   8.322   4.888 -0.3824 -0.1709 -0.8906
   71MOL0     H 9307   8.626   8.303   5.356  1.3869 -0.2384  0.9819
   71MOL0     H 9308   8.493   8.379   5.549 -0.0424  1.2456  1.6439
   71MOL0     H 9309   8.384   8.463   5.688  1.2417  1.6356  0.2519
   71MOL0     H 9310   8.235   8.508   5.600 -2.2864  3.4424  0.7667
   71MOL0     H 9311   8.271   8.720   5.740  0.0662 -0.0262 -0.3695
   71MOL0     H 9312   8.385   8.619   5.833 -1.0032  1.3515  1.3060
   71MOL0     H 9313   8.183   8.458   5.879 -1.3935 -0.4373  0.7046
   71MOL0     H 9314   8.087   8.594   5.814 -0.1915  1.7680  1.6769
   71MOL0     H 9315   8.266   8.587   6.059  0.4512 -1.1507 -1.9019
   71MOL0     H 9316   8.186   8.734   6.001  2.0648  0.8773  2.2041
   71MOL0     H 9317   8.027   8.470   6.038 -0.6268  0.5263 -2.0619
   71MOL0     H 9318   7.955   8.634   6.054  0.0417  0.3980  3.4131
   71MOL0     H 9319   8.103   8.646   6.267 -0.5962  0.8668 -0.3927
   71MOL0     H 9320   8.126   8.476   6.240 -1.8662  0.1109  1.4367
   71MOL0     H 9321   7.860   8.620   6.278 -2.5090 -1.7808 -2.0597
   71MOL0     H 9322   7.865   8.449   6.229 -3.8039  2.7369 -0.2017
   71MOL0     H 9323   7.966   8.591   6.490  0.6335 -0.1685 -0.0302
   71MOL0     H 9324   8.032   8.432   6.434 -0.5309 -1.4851  0.0228
   71MOL0     H 9325   7.783   8.264   6.386 -0.9763  0.9856 -1.1624
   71MOL0     H 9326   7.669   8.082   6.638  3.1711  1.4726 -2.0695
   71MOL0     H 9327   7.564   8.126   6.508  0.1916 -1.2276  0.5345
   71MOL0     H 9328   7.447   8.284   6.688 -0.2923 -0.0819  0.6574
   71MOL0     H 9329   7.544   8.196   6.801  2.3097  1.4553 -1.2555
   71MOL0     H 9330   7.338   8.082   6.606 -0.2386  0.1612  0.0746
   71MOL0     H 9331   7.447   7.983   6.717  1.5319  0.3648  0.7916
   71MOL0     H 9332   7.313   8.187   6.870  1.1147 -0.8294 -0.6143
   71MOL0     H 9333   7.258   8.019   6.864 -0.1516  3.7102  4.3726
   71MOL0     H 9334   7.100   8.270   6.963 -0.3764 -0.6164  0.7928
   71MOL0     H 9335   6.917   8.212   7.106  3.0378 -3.1216  2.4273
   71MOL0     H 9336   6.573   7.653   6.978  1.0974 -1.4612  1.1929
   71MOL0     H 9337   6.397   7.536   7.092 -0.7286  0.1633  2.2934
   71MOL0     H 9338   6.121   7.755   7.355  0.6691 -1.0771 -2.2262
   71MOL0     H 9339   6.228   7.709   7.487 -2.2433  1.8634  0.5890
   71MOL0     H 9340   6.139   7.499   7.528  1.3381  2.0683  0.1844
   71MOL0     H 9341   6.067   7.496   7.367 -1.5137 -0.9306 -0.0090
   71MOL0     H 9342   5.897   7.679   7.437 -0.6980 -1.0246 -0.4051
   71MOL0     H 9343   5.995   7.694   7.589 -0.3378  2.0112 -1.7750
   71MOL0     H 9344   5.921   7.464   7.639 -0.6347  0.6028  1.6501
   71MOL0     H 9345   5.790   7.584   7.619 -0.8168 -0.3941 -2.6495
   71MOL0     H 9346   5.849   7.382   7.399 -0.1431 -0.1530 -1.5816
   71MOL0     H 9347   5.720   7.499   7.408  2.2466  2.3275  0.0247
   71MOL0     H 9348   5.766   7.277   7.617 -2.7868 -1.5886  1.1725
   71MOL0     H 9349   5.677   7.244   7.474 -0.0553  0.7177 -0.2146
   71MOL0     H 9350   5.617   7.417   7.700 -1.7163 -1.6817  1.5517
   71MOL0     H 9351   5.545   7.462   7.545  3.8662  1.1907 -0.9320
   71MOL0     H 9352   5.512   7.196   7.687  2.2020  2.0364  1.0242
   71MOL0     H 9353   5.432   7.237   7.534  1.1097  0.4868  0.2411
   71MOL0     H 9354   6.364   7.867   7.374  1.0941  2.2999  0.0284
   71MOL0     H 9355   6.532   7.971   7.274  3.2947 -0.7831  0.2694
   71MOL0     H 9356   6.814   7.889   6.824  0.4627  0.1177  0.8221
   71MOL0     H 9357   6.980   7.963   6.680 -0.3700  0.2977  0.0681
   71MOL0     H 9358   8.426   8.762   5.355 -0.1145 -0.1399  0.8577
   71MOL0     H 9359   8.510   8.655   5.141  0.7312  1.6573  0.6273
   71MOL0     H 9360   9.007   8.507   5.007  1.0313  1.4736 -1.6405
   71MOL0     H 9361   9.116   8.405   4.823 -0.6055  0.3013  0.6625
   71MOL0     H 9362   9.021   8.421   4.565 -1.1732  0.1133 -0.3369
   71MOL0     H 9363   9.048   8.279   4.453  3.3972 -0.7758  0.1842
   71MOL0     H 9364   9.246   8.395   4.499 -0.1963  0.6009  0.7453
   71MOL0     H 9365   9.248   8.330   4.670  1.2579 -0.3998  0.0088
   71MOL0     H 9366   9.264   8.186   4.400 -0.9930  3.6853  0.3775
   71MOL0     H 9367   9.235   8.087   4.537  0.5265  0.1416 -1.2449
   71MOL0     H 9368   9.493   8.242   4.472  2.6805 -2.4452  0.8621
   71MOL0     H 9369   9.458   8.208   4.640  0.5282 -0.8871  0.2280
   71MOL0     H 9370   9.572   7.842   4.471 -0.5370 -0.4487  0.2874
   71MOL0     H 9371   8.764   8.175   4.724 -1.4383 -0.5275  2.4844
   71MOL0     H 9372   8.640   8.295   4.904 -1.5819  2.8211 -2.7026
   72MOL0     O 9373   6.889   9.779  10.111  0.1752 -0.1512 -0.3944
   72MOL0     C 9374   6.936   9.722  10.013  0.7623 -0.3893 -0.0545
   72MOL0     O 9375   6.860   9.676   9.906 -0.6783  0.8255 -0.1956
   72MOL0     C 9376   6.726   9.683   9.925  0.4644 -0.2792 -0.3535
   72MOL0     C 9377   6.651   9.602  10.012  0.2253  0.1755 -0.2176
   72MOL0     C 9378   6.511   9.597  10.008  0.0821  0.0977  1.0370
   72MOL0     C 9379   6.448   9.682   9.923  0.3876  0.4787  0.3123
   72MOL0     O 9380   6.313   9.688   9.924  0.6331  0.5294 -0.4233
   72MOL0     C 9381   6.227   9.585   9.976 -0.0560  0.4198 -0.9044
   72MOL0     C 9382   6.089   9.579   9.903 -0.5579 -0.4604  0.9323
   72MOL0     C 9383   5.988   9.515   9.991 -0.3529 -0.5141 -0.8929
   72MOL0     C 9384   5.862   9.520   9.903  0.5107 -0.1269  0.4058
   72MOL0     C 9385   5.757   9.436   9.961  0.7008 -0.3296  0.2138
   72MOL0     C 9386   5.632   9.470   9.880  0.1798  0.0595  0.7466
   72MOL0     C 9387   5.509   9.406   9.937 -0.0711  0.8530 -0.3797
   72MOL0     C 9388   5.390   9.420   9.846 -0.3712 -0.5561  0.2066
   72MOL0     N 9389   5.264   9.359   9.909 -0.0649 -0.1744  0.0681
   72MOL0     C 9390   5.255   9.242   9.973  0.0207 -0.0350 -0.2385
   72MOL0     C 9391   5.124   9.232  10.018 -0.9436 -0.0097  0.6174
   72MOL0     C 9392   5.069   9.122  10.094 -0.1334 -0.8780 -0.1967
   72MOL0     C 9393   5.004   9.024   9.995  0.0233 -1.0907 -0.7791
   72MOL0     C 9394   4.878   9.084   9.932 -0.8514 -0.2253 -0.5723
   72MOL0     C 9395   4.805   8.993   9.831  0.2403 -1.0805 -0.3628
   72MOL0     O 9396   4.717   9.076   9.750  0.7347  0.5905 -0.2271
   72MOL0     C 9397   4.581   9.067   9.775 -0.2927 -0.2278  0.1467
   72MOL0     C 9398   4.533   9.157   9.870  0.2655  0.2315 -0.5602
   72MOL0     C 9399   4.397   9.167   9.894  0.6738  0.2667  0.9597
   72MOL0     C 9400   4.300   9.077   9.834  0.2060 -0.1220 -0.8567
   72MOL0     C 9401   4.157   9.080   9.870 -0.1898 -0.1546 -0.1292
   72MOL0     O 9402   4.080   8.993   9.804 -0.5435  0.4762  0.1701
   72MOL0     C 9403   3.947   8.972   9.819  0.5402  0.1254 -0.8903
   72MOL0     C 9404   3.850   9.082   9.816 -0.2421  0.8729 -0.5291
   72MOL0     C 9405   3.713   9.053   9.811  0.6563 -0.3675 -0.2512
   72MOL0     C 9406   3.657   8.926   9.847  0.2898 -0.5754  0.1006
   72MOL0     O 9407   3.526   8.905   9.877  0.2208 -0.6360  0.4267
   72MOL0     C 9408   3.458   8.819   9.785  0.2474  0.0982  0.3235
   72MOL0     C 9409   3.316   8.876   9.754 -0.2357 -0.6674  0.1916
   72MOL0     C 9410   3.220   8.781   9.671  0.6363 -0.1207  0.3216
   72MOL0     C 9411   3.101   8.857   9.609 -0.1465 -0.4033 -0.7016
   72MOL0     C 9412   3.003   8.778   9.514 -1.0413 -0.8571 -0.0736
   72MOL0     C 9413   2.927   8.659   9.582 -0.1538 -0.1881 -1.1907
   72MOL0     C 9414   2.829   8.590   9.494  0.0889 -0.8238 -0.3258
   72MOL0     C 9415   2.711   8.661   9.430  0.3316  0.0806 -0.1381
   72MOL0    Cl 9416   2.632   8.753   9.562  0.1304 -0.1496 -0.7393
   72MOL0     C 9417   3.755   8.822   9.860 -0.0413 -0.3109  1.6974
   72MOL0     C 9418   3.897   8.844   9.831 -0.1039 -0.4257 -0.2326
   72MOL0     O 9419   4.117   9.165   9.947 -0.5476 -0.7168 -0.5433
   72MOL0     C 9420   4.353   8.982   9.745 -0.2056 -0.3427 -0.5965
   72MOL0     C 9421   4.488   8.984   9.707 -0.3329  0.6449 -0.0353
   72MOL0     N 9422   5.059   9.348   9.967  0.7124 -0.0299 -0.0441
   72MOL0     N 9423   5.137   9.419   9.905 -0.2581  0.1329  0.0012
   72MOL0     C 9424   6.513   9.764   9.835 -0.2315 -0.7966  0.5615
   72MOL0     C 9425   6.657   9.763   9.837  0.1572 -0.0203  0.3388
   72MOL0     C 9426   7.076   9.704   9.998  0.0587  0.8377 -0.2177
   72MOL0     C 9427   7.165   9.734  10.105  0.0174  0.2965  0.5573
   72MOL0     C 9428   7.304   9.734  10.084  0.1440  0.1468  0.0506
   72MOL0     C 9429   7.361   9.680   9.965 -0.0411 -0.5368  0.0271
   72MOL0     O 9430   7.491   9.682   9.927 -0.1371 -0.1834 -0.0708
   72MOL0     C 9431   7.581   9.717  10.028 -0.4034 -0.1560  0.3967
   72MOL0     C 9432   7.727   9.687   9.990  1.2141 -0.1687 -0.4478
   72MOL0     C 9433   7.779   9.770   9.880 -0.2854 -0.2314  0.7457
   72MOL0     C 9434   7.928   9.722   9.837  0.5139  0.3497 -0.2757
   72MOL0     C 9435   7.960   9.787   9.718 -0.5341  1.0486  0.2647
   72MOL0     C 9436   7.998   9.818   9.603  0.2679  1.3031 -0.1728
   72MOL0     C 9437   7.274   9.640   9.866  0.1918  1.0107  0.3266
   72MOL0     C 9438   7.131   9.644   9.889 -0.4084 -0.7780  0.4968
   72MOL0     H 9439   6.694   9.521  10.069  1.0982  0.1098 -0.9546
   72MOL0     H 9440   6.457   9.532  10.075  2.1851 -2.0910  0.7632
   72MOL0     H 9441   6.206   9.604  10.082 -1.3540 -1.5795 -0.7429
   72MOL0     H 9442   6.281   9.490   9.975  0.7553  0.8767 -1.0410
   72MOL0     H 9443   6.106   9.520   9.812 -1.5577 -2.2350  1.8444
   72MOL0     H 9444   6.062   9.681   9.872  3.5576  0.0057 -1.8796
   72MOL0     H 9445   5.977   9.567  10.087  0.8120 -2.9163  0.6380
   72MOL0     H 9446   6.023   9.417  10.023 -0.2163  0.5058  2.5893
   72MOL0     H 9447   5.832   9.623   9.882 -0.5993 -0.3749  0.7013
   72MOL0     H 9448   5.887   9.474   9.808  1.7864 -0.3966  0.8525
   72MOL0     H 9449   5.737   9.454  10.067 -0.3256 -2.3416  0.4118
   72MOL0     H 9450   5.761   9.328   9.945 -0.1295 -0.0612 -2.3936
   72MOL0     H 9451   5.634   9.430   9.779  0.4566  1.5934  0.1233
   72MOL0     H 9452   5.612   9.577   9.868  0.0688  0.0447  0.7865
   72MOL0     H 9453   5.528   9.299   9.940  0.4947  0.9379 -0.8586
   72MOL0     H 9454   5.494   9.450  10.036  4.3867  1.0450  0.4069
   72MOL0     H 9455   5.405   9.375   9.747 -4.5966 -1.8110 -0.0369
   72MOL0     H 9456   5.370   9.526   9.829 -1.3726 -0.7737  0.0005
   72MOL0     H 9457   5.333   9.168   9.994 -0.7562 -0.6885  0.4184
   72MOL0     H 9458   5.003   9.171  10.167  1.6895  0.8667  0.4105
   72MOL0     H 9459   5.149   9.075  10.153 -0.7126  1.3469  2.6339
   72MOL0     H 9460   4.976   8.937  10.055 -3.1425  0.7426  0.6497
   72MOL0     H 9461   5.073   8.988   9.918 -0.1711 -1.5847 -0.7310
   72MOL0     H 9462   4.816   9.114  10.018  2.3661  0.2798  1.7516
   72MOL0     H 9463   4.893   9.175   9.874  3.2148 -0.3288  0.0314
   72MOL0     H 9464   4.760   8.908   9.883  0.7660 -0.9956  0.2482
   72MOL0     H 9465   4.889   8.951   9.775  0.4793 -0.1958 -0.6850
   72MOL0     H 9466   4.600   9.224   9.923  0.0345  0.5053 -0.6150
   72MOL0     H 9467   4.367   9.240   9.969  0.0168  2.5428 -1.3989
   72MOL0     H 9468   3.880   9.186   9.814 -0.2370  0.8658 -0.8771
   72MOL0     H 9469   3.640   9.133   9.806  0.7755 -0.0731  1.9242
   72MOL0     H 9470   3.462   8.718   9.827 -1.5093 -0.2966 -0.3878
   72MOL0     H 9471   3.514   8.825   9.691 -3.6230 -0.9070 -2.2921
   72MOL0     H 9472   3.334   8.974   9.708  1.3198 -0.9084  0.2338
   72MOL0     H 9473   3.262   8.887   9.848 -2.3076 -0.5804 -0.9435
   72MOL0     H 9474   3.183   8.701   9.735 -1.0664  0.0552 -0.3926
   72MOL0     H 9475   3.284   8.735   9.595  0.9390 -0.1764  0.6061
   72MOL0     H 9476   3.046   8.907   9.690 -0.3201 -1.4422 -0.1714
   72MOL0     H 9477   3.147   8.935   9.547 -3.1573  1.5444 -0.7053
   72MOL0     H 9478   3.062   8.750   9.426 -1.4942  0.9387 -1.0038
   72MOL0     H 9479   2.929   8.853   9.484 -0.5424 -0.7938 -1.1883
   72MOL0     H 9480   2.886   8.704   9.672 -1.1392 -0.1971 -1.6179
   72MOL0     H 9481   3.000   8.580   9.602  1.0174  0.5909 -2.1837
   72MOL0     H 9482   2.872   8.542   9.406  3.8200  0.7367  0.4482
   72MOL0     H 9483   2.782   8.514   9.557 -0.7946 -0.0630 -0.0598
   72MOL0     H 9484   2.656   8.575   9.392  0.2419 -1.7055  3.6127
   72MOL0     H 9485   2.738   8.730   9.348  0.2971  0.9744  0.5866
   72MOL0     H 9486   3.735   8.718   9.883 -0.7174 -0.3593  0.9158
   72MOL0     H 9487   3.963   8.758   9.828  0.0460 -0.5645  3.4021
   72MOL0     H 9488   4.287   8.904   9.709  0.6521 -1.2770 -0.2251
   72MOL0     H 9489   4.528   8.909   9.640  0.7031  1.6257 -0.5350
   72MOL0     H 9490   6.458   9.834   9.772  1.9249  0.5217  0.0770
   72MOL0     H 9491   6.712   9.841   9.785 -0.7278  0.2594 -0.1919
   72MOL0     H 9492   7.120   9.782  10.192 -0.8749 -0.8330  0.7516
   72MOL0     H 9493   7.373   9.760  10.163  2.0070 -0.9302 -1.1401
   72MOL0     H 9494   7.575   9.650  10.114  2.3526 -0.8868  0.1076
   72MOL0     H 9495   7.569   9.823  10.054  1.7545 -0.0114  1.0224
   72MOL0     H 9496   7.795   9.701  10.074  0.1358 -1.2234  0.6658
   72MOL0     H 9497   7.729   9.581   9.961  2.7903 -0.0296 -0.9346
   72MOL0     H 9498   7.782   9.874   9.915  1.7206 -0.0013 -0.0160
   72MOL0     H 9499   7.711   9.756   9.795 -0.6557  0.3758  0.9314
   72MOL0     H 9500   8.000   9.765   9.907  0.0380  2.6696 -1.1077
   72MOL0     H 9501   7.934   9.613   9.827 -0.1365  0.3750 -1.1033
   72MOL0     H 9502   8.025   9.849   9.504 -0.6086  0.9318 -0.5448
   72MOL0     H 9503   7.307   9.598   9.772  0.0248  0.6861  0.4129
   72MOL0     H 9504   7.074   9.593   9.812  3.4646 -2.8554 -1.3342
   73MOL0     O 9505   9.822   8.720   4.341  0.3315  0.1390  0.0098
   73MOL0     C 9506   9.885   8.774   4.434 -0.8602  0.6492  0.4832
   73MOL0     O 9507   9.840   8.861   4.528  0.1156 -0.0768  0.0360
   73MOL0     C 9508   9.708   8.916   4.502 -0.8360 -0.0023 -0.6398
   73MOL0     C 9509   9.617   8.919   4.602  0.3585  0.6327 -0.3486
   73MOL0     C 9510   9.498   8.988   4.589 -0.3776 -0.3336 -0.2600
   73MOL0     C 9511   9.472   9.061   4.474 -0.0836 -0.0294  0.0977
   73MOL0     O 9512   9.349   9.134   4.460 -0.9510  0.4368  0.2167
   73MOL0     C 9513   9.318   9.228   4.565 -0.1968 -0.5526 -0.0499
   73MOL0     C 9514   9.247   9.345   4.495 -0.7925  0.2086  0.0411
   73MOL0     C 9515   9.110   9.306   4.442 -0.3262 -1.1500  0.3502
   73MOL0     C 9516   9.018   9.425   4.404 -0.4706  0.2083  0.2472
   73MOL0     C 9517   8.904   9.365   4.324  0.7066  0.3312  0.1919
   73MOL0     C 9518   8.795   9.469   4.286 -0.4711  0.2739 -0.0930
   73MOL0     C 9519   8.666   9.415   4.215 -0.1219 -0.1244  0.4867
   73MOL0     C 9520   8.572   9.343   4.318 -0.4030 -0.1239  0.3868
   73MOL0     N 9521   8.438   9.315   4.250  0.5349  0.3703 -0.2239
   73MOL0     C 9522   8.419   9.210   4.164 -0.1266  0.7592  0.0067
   73MOL0     C 9523   8.284   9.199   4.154 -0.3077  0.4281 -0.0138
   73MOL0     C 9524   8.201   9.084   4.083 -0.6377 -0.1833 -0.3661
   73MOL0     C 9525   8.060   9.057   4.138 -0.2028 -0.3450  0.2024
   73MOL0     C 9526   7.960   9.166   4.080  0.1531  0.1515  0.0956
   73MOL0     C 9527   7.826   9.158   4.141  0.0017 -0.4132 -0.3215
   73MOL0     O 9528   7.731   9.250   4.084 -0.1901 -0.1286 -0.3320
   73MOL0     C 9529   7.600   9.249   4.116 -0.0895 -0.1965  0.1534
   73MOL0     C 9530   7.546   9.207   4.236  0.0515  0.0604 -0.3987
   73MOL0     C 9531   7.409   9.202   4.265  0.2934  1.1448 -0.1521
   73MOL0     C 9532   7.327   9.269   4.167 -0.3639  0.6621 -0.2260
   73MOL0     C 9533   7.192   9.309   4.197 -0.0880 -0.4346 -0.0785
   73MOL0     O 9534   7.142   9.415   4.117  0.2647  0.3558 -0.6179
   73MOL0     C 9535   7.022   9.485   4.152  0.3249  0.5313 -0.4983
   73MOL0     C 9536   7.012   9.538   4.279  0.2062  0.2798  0.4245
   73MOL0     C 9537   6.893   9.598   4.321 -0.4286 -0.9873 -0.0214
   73MOL0     C 9538   6.775   9.610   4.237  0.3522  0.2580 -0.3589
   73MOL0     O 9539   6.664   9.678   4.278 -0.3361 -0.5267  0.3408
   73MOL0     C 9540   6.533   9.627   4.242  0.2031 -1.1412  1.4234
   73MOL0     C 9541   6.426   9.718   4.291  0.4193  0.1288 -0.2023
   73MOL0     C 9542   6.432   9.712   4.452  0.5899 -0.2073  1.1427
   73MOL0     C 9543   6.324   9.809   4.507 -0.8828 -0.4300  0.1798
   73MOL0     C 9544   6.310   9.799   4.663  0.0383 -0.4812  0.8365
   73MOL0     C 9545   6.178   9.852   4.725 -0.3745  0.3708 -0.4994
   73MOL0     C 9546   6.190  10.008   4.732 -0.0931 -0.6060  0.5484
   73MOL0     C 9547   6.082  10.087   4.794  0.1879  0.2348 -0.5749
   73MOL0    Cl 9548   5.944  10.128   4.677 -0.1915  0.0199  0.4845
   73MOL0     C 9549   6.796   9.571   4.107 -0.0852  0.3861 -0.4421
   73MOL0     C 9550   6.908   9.507   4.059 -0.0341 -0.0217 -0.8331
   73MOL0     O 9551   7.141   9.268   4.297 -0.2360  0.0287  0.0846
   73MOL0     C 9552   7.385   9.304   4.040 -0.0337 -0.2726 -0.4298
   73MOL0     C 9553   7.519   9.297   4.017 -0.6648 -0.9998 -0.4922
   73MOL0     N 9554   8.235   9.295   4.243  0.3275  0.0664  0.6541
   73MOL0     N 9555   8.329   9.367   4.302  0.8566 -0.6944 -0.1946
   73MOL0     C 9556   9.564   9.063   4.369 -0.4200  0.4601 -0.4894
   73MOL0     C 9557   9.687   8.998   4.386 -0.0189 -0.1513  0.1362
   73MOL0     C 9558  10.031   8.731   4.439  0.3400 -1.0029  0.0939
   73MOL0     C 9559  10.067   8.605   4.394 -0.0649  0.3879  0.4409
   73MOL0     C 9560  10.202   8.563   4.393 -0.0382  0.5631  0.3894
   73MOL0     C 9561  10.308   8.652   4.430  0.2343 -0.0395  0.2518
   73MOL0     O 9562  10.442   8.630   4.446 -0.9237  0.5763 -0.2857
   73MOL0     C 9563  10.497   8.501   4.414 -0.2487  0.1299 -0.3927
   73MOL0     C 9564  10.640   8.485   4.463 -0.8582 -0.8784  0.1136
   73MOL0     C 9565  10.725   8.599   4.409 -0.5413 -0.4443 -0.0596
   73MOL0     C 9566  10.789   8.689   4.513  0.4861 -0.4601 -0.0622
   73MOL0     C 9567  10.834   8.619   4.629  0.8091  0.9752 -0.9067
   73MOL0     C 9568  10.876   8.561   4.723  0.1411  0.0483  0.0482
   73MOL0     C 9569  10.266   8.775   4.469 -0.4386 -0.1947  0.1197
   73MOL0     C 9570  10.132   8.809   4.488  0.3126  0.0594 -0.6917
   73MOL0     H 9571   9.647   8.863   4.690  1.6544 -2.0300 -2.3272
   73MOL0     H 9572   9.440   9.005   4.679  0.5286  1.2790  0.0571
   73MOL0     H 9573   9.414   9.256   4.610 -0.0215 -0.6276 -0.3795
   73MOL0     H 9574   9.249   9.185   4.639 -3.1805  3.4671 -0.1872
   73MOL0     H 9575   9.305   9.391   4.415  0.3925  1.9080  1.7918
   73MOL0     H 9576   9.236   9.424   4.570 -2.6763  2.1424 -2.0954
   73MOL0     H 9577   9.065   9.239   4.516 -0.2666 -2.8467 -1.0621
   73MOL0     H 9578   9.130   9.236   4.360  1.5785 -2.6229  1.9807
   73MOL0     H 9579   8.977   9.485   4.485 -0.1733  1.0843 -0.2360
   73MOL0     H 9580   9.072   9.491   4.335  2.4568 -0.6763  1.5385
   73MOL0     H 9581   8.850   9.289   4.383 -0.3904  0.8404 -0.1312
   73MOL0     H 9582   8.951   9.319   4.237 -1.1027  0.1866 -0.7546
   73MOL0     H 9583   8.852   9.540   4.224 -0.1661  1.6856  1.7074
   73MOL0     H 9584   8.765   9.520   4.378  0.1047 -0.0618  0.2902
   73MOL0     H 9585   8.619   9.498   4.163 -1.0487 -2.3207 -2.4251
   73MOL0     H 9586   8.693   9.330   4.151  0.5597 -0.4303  1.1586
   73MOL0     H 9587   8.568   9.396   4.414  0.2089 -0.5171  0.6352
   73MOL0     H 9588   8.620   9.248   4.343  2.8569  1.0955 -0.7547
   73MOL0     H 9589   8.490   9.141   4.120 -1.2896 -0.6460  0.2557
   73MOL0     H 9590   8.255   8.988   4.082  0.5521  0.4644 -0.7658
   73MOL0     H 9591   8.201   9.111   3.977 -2.0874  2.0040  0.1213
   73MOL0     H 9592   8.061   9.071   4.247  1.5279  0.2388  0.1390
   73MOL0     H 9593   8.029   8.953   4.122  0.1831 -0.4493  0.1135
   73MOL0     H 9594   7.989   9.269   4.103  1.9382 -0.4632  0.7460
   73MOL0     H 9595   7.942   9.165   3.972 -0.3829  0.4833  0.1795
   73MOL0     H 9596   7.840   9.179   4.248 -0.7791 -1.2170 -0.0488
   73MOL0     H 9597   7.792   9.054   4.143  0.7726 -0.6812 -0.6189
   73MOL0     H 9598   7.608   9.187   4.323 -1.1796  0.2521  0.5619
   73MOL0     H 9599   7.369   9.176   4.363 -3.8731  2.5792 -1.2572
   73MOL0     H 9600   7.104   9.533   4.337  1.3101 -1.7777 -1.3559
   73MOL0     H 9601   6.887   9.636   4.422 -2.1695 -4.6784  1.4198
   73MOL0     H 9602   6.519   9.528   4.285  2.1005 -1.2080  2.0043
   73MOL0     H 9603   6.523   9.615   4.134  1.4025  1.6269  0.9062
   73MOL0     H 9604   6.331   9.674   4.260  0.4975 -1.0075  1.0811
   73MOL0     H 9605   6.433   9.821   4.255  0.9081 -0.7351 -2.7954
   73MOL0     H 9606   6.528   9.734   4.500  1.4233 -0.8499 -0.1841
   73MOL0     H 9607   6.402   9.609   4.476  2.1841 -1.1192 -0.5369
   73MOL0     H 9608   6.355   9.909   4.477 -0.2799 -1.3572 -2.5563
   73MOL0     H 9609   6.224   9.792   4.465 -0.6087 -1.0369 -0.2458
   73MOL0     H 9610   6.404   9.834   4.706 -0.9449  3.0019  0.4375
   73MOL0     H 9611   6.316   9.691   4.676  0.8528 -0.6787 -0.8644
   73MOL0     H 9612   6.164   9.817   4.828 -4.3878  3.1785  0.1763
   73MOL0     H 9613   6.088   9.834   4.665 -1.8246  1.3253  1.3074
   73MOL0     H 9614   6.275  10.022   4.799 -0.9185  1.3217  1.2384
   73MOL0     H 9615   6.231  10.059   4.644  1.4391 -0.2877  1.4280
   73MOL0     H 9616   6.111  10.188   4.825 -1.1620  1.3291 -2.6454
   73MOL0     H 9617   6.042  10.039   4.884  1.4909 -1.1923 -0.7158
   73MOL0     H 9618   6.714   9.594   4.039 -1.6488 -2.5328  0.2865
   73MOL0     H 9619   6.908   9.482   3.954 -1.8921  0.9335 -1.0914
   73MOL0     H 9620   7.316   9.344   3.966 -3.1597 -2.0020  1.3310
   73MOL0     H 9621   7.566   9.335   3.927 -0.3411  0.4367  0.2471
   73MOL0     H 9622   9.535   9.113   4.277 -0.6050  0.3420 -0.4954
   73MOL0     H 9623   9.761   8.987   4.307 -0.2833  0.9658 -0.2844
   73MOL0     H 9624   9.988   8.541   4.356 -0.0885  0.4339  0.4133
   73MOL0     H 9625  10.242   8.467   4.361  1.7565  1.3510  0.1613
   73MOL0     H 9626  10.484   8.491   4.306  0.1806 -0.2027 -0.4122
   73MOL0     H 9627  10.442   8.419   4.461 -0.3145  1.0745  1.2476
   73MOL0     H 9628  10.629   8.482   4.572  1.7164  0.2235  0.4694
   73MOL0     H 9629  10.695   8.402   4.419  1.1781 -0.7997  2.3002
   73MOL0     H 9630  10.680   8.662   4.332 -1.1974  2.6116  2.6155
   73MOL0     H 9631  10.802   8.550   4.348  0.8846  1.4936  0.1027
   73MOL0     H 9632  10.879   8.742   4.479  0.4368  0.7048  1.5568
   73MOL0     H 9633  10.711   8.756   4.550 -1.9293 -4.6933  3.4232
   73MOL0     H 9634  10.882   8.510   4.816 -1.6212  0.6040  0.5048
   73MOL0     H 9635  10.345   8.842   4.502  0.4224 -0.3601 -1.4862
   73MOL0     H 9636  10.105   8.908   4.523 -0.1688 -0.6426  0.9984
   74MOL0     O 9637   6.270   8.248   2.457  0.6277 -0.1585 -0.2232
   74MOL0     C 9638   6.371   8.216   2.394  0.7001  1.2547 -0.0927
   74MOL0     O 9639   6.374   8.109   2.300  0.6213  0.2170  0.2378
   74MOL0     C 9640   6.251   8.043   2.287 -0.7493  0.1947 -0.4717
   74MOL0     C 9641   6.143   8.098   2.218  0.6004  0.4278 -0.5901
   74MOL0     C 9642   6.027   8.015   2.193 -0.7774 -1.0863 -0.2409
   74MOL0     C 9643   6.018   7.894   2.259 -0.7607 -0.4646  0.0231
   74MOL0     O 9644   5.910   7.809   2.247 -0.3586  0.3133 -0.5294
   74MOL0     C 9645   5.823   7.816   2.356 -0.1735 -0.3184  0.9372
   74MOL0     C 9646   5.706   7.899   2.308  0.3951  1.7319  0.0287
   74MOL0     C 9647   5.588   7.883   2.402  0.1444  0.7708  0.4296
   74MOL0     C 9648   5.476   7.976   2.360  0.5821 -0.4063  0.5876
   74MOL0     C 9649   5.338   7.936   2.426  1.2691  0.4355 -0.5537
   74MOL0     C 9650   5.346   7.908   2.574 -0.5669 -0.4112 -0.0560
   74MOL0     C 9651   5.216   7.850   2.627  0.5361 -0.2652  0.0387
   74MOL0     C 9652   5.230   7.818   2.772 -0.6387 -0.2555  0.6591
   74MOL0     N 9653   5.101   7.778   2.830  0.2497 -0.2977  0.1981
   74MOL0     C 9654   4.998   7.866   2.865 -0.2859  0.2938 -0.5385
   74MOL0     C 9655   4.916   7.795   2.946  0.0983  0.1278 -0.2173
   74MOL0     C 9656   4.798   7.863   3.012 -0.2290  0.0278 -0.4008
   74MOL0     C 9657   4.694   7.888   2.908 -0.0149  0.1305 -0.1202
   74MOL0     C 9658   4.576   7.968   2.960 -0.3051 -0.2893 -0.2264
   74MOL0     C 9659   4.476   8.014   2.861 -0.0738 -0.0738 -0.4948
   74MOL0     O 9660   4.403   7.897   2.825 -0.8835 -0.1933 -0.4617
   74MOL0     C 9661   4.267   7.906   2.834  0.3513  0.2123  0.5183
   74MOL0     C 9662   4.203   7.792   2.863  0.1503  0.0356 -0.5062
   74MOL0     C 9663   4.057   7.787   2.874  0.3077 -0.6888 -0.4167
   74MOL0     C 9664   3.976   7.910   2.841  0.3461  0.4939 -0.6499
   74MOL0     C 9665   3.824   7.920   2.850 -0.4680  0.2400  0.5928
   74MOL0     O 9666   3.763   7.814   2.905  0.1663 -0.2986  0.2665
   74MOL0     C 9667   3.628   7.794   2.904 -0.2103  0.6123  0.2383
   74MOL0     C 9668   3.586   7.661   2.948  0.7293 -0.9553 -0.0405
   74MOL0     C 9669   3.456   7.618   2.937  0.5522 -0.6592 -0.6215
   74MOL0     C 9670   3.356   7.716   2.894 -0.4573 -0.2888 -0.2400
   74MOL0     O 9671   3.224   7.687   2.872  0.0596 -0.6379  0.1531
   74MOL0     C 9672   3.178   7.548   2.876  0.4610  0.3249 -0.0267
   74MOL0     C 9673   3.211   7.469   2.754 -1.2998  0.2824  0.5511
   74MOL0     C 9674   3.180   7.542   2.622 -0.0043 -0.7046  0.5062
   74MOL0     C 9675   3.034   7.555   2.590  0.1657  0.2670  0.2193
   74MOL0     C 9676   2.998   7.576   2.447 -0.3250 -0.3686  0.0236
   74MOL0     C 9677   2.840   7.580   2.441 -0.0394 -0.9452  0.1463
   74MOL0     C 9678   2.786   7.590   2.301 -0.6249 -0.0083  0.6914
   74MOL0     C 9679   2.650   7.647   2.288  0.8724 -0.4488  1.0969
   74MOL0    Cl 9680   2.543   7.544   2.388 -0.1609  0.3903  0.1551
   74MOL0     C 9681   3.396   7.845   2.881 -0.4217 -0.4597  0.3889
   74MOL0     C 9682   3.531   7.893   2.882 -0.0502 -0.2430 -0.7057
   74MOL0     O 9683   3.773   8.013   2.796 -0.0240  0.2386  0.3013
   74MOL0     C 9684   4.049   8.028   2.831 -0.4389  0.1732 -0.0645
   74MOL0     C 9685   4.191   8.026   2.825 -0.1213  0.2803 -0.0772
   74MOL0     N 9686   4.966   7.671   2.953 -0.4527  0.2326 -0.2054
   74MOL0     N 9687   5.073   7.658   2.883  0.0289 -0.2125  0.4188
   74MOL0     C 9688   6.119   7.851   2.342 -0.6247 -0.1490  0.1835
   74MOL0     C 9689   6.234   7.926   2.361 -0.0725 -0.3363 -0.1419
   74MOL0     C 9690   6.489   8.292   2.413  0.4782 -0.0911  0.4379
   74MOL0     C 9691   6.481   8.434   2.432  0.8631 -0.1225 -0.5708
   74MOL0     C 9692   6.590   8.515   2.439 -1.5190  0.2659  0.9839
   74MOL0     C 9693   6.715   8.465   2.405 -0.0116  0.0564 -0.1121
   74MOL0     O 9694   6.816   8.551   2.425  0.6228  0.2775  0.1673
   74MOL0     C 9695   6.950   8.509   2.450  0.8061 -0.1580 -0.0408
   74MOL0     C 9696   7.039   8.617   2.384  0.5663 -0.1776 -0.3310
   74MOL0     C 9697   7.182   8.596   2.402 -0.6017 -0.0738  0.0029
   74MOL0     C 9698   7.251   8.672   2.524 -0.3804  1.2303 -0.8252
   74MOL0     C 9699   7.250   8.816   2.497  0.9131  0.7466  0.5453
   74MOL0     C 9700   7.242   8.937   2.462 -0.3266  0.2267  0.2434
   74MOL0     C 9701   6.724   8.327   2.385  0.0841  0.8628 -0.4756
   74MOL0     C 9702   6.613   8.240   2.394  1.0643 -0.3612 -0.1059
   74MOL0     H 9703   6.154   8.200   2.183  1.5866 -0.0592 -1.7765
   74MOL0     H 9704   5.946   8.049   2.129  0.3733 -1.2770 -1.8902
   74MOL0     H 9705   5.878   7.872   2.433 -0.9669  1.0316  0.5534
   74MOL0     H 9706   5.781   7.723   2.394 -5.1816  1.3389  0.1239
   74MOL0     H 9707   5.662   7.852   2.220  0.5465  2.4971 -0.4653
   74MOL0     H 9708   5.724   8.006   2.291  1.3270  1.4119 -1.1943
   74MOL0     H 9709   5.621   7.915   2.501  1.9896 -1.8711  0.8064
   74MOL0     H 9710   5.563   7.776   2.408  0.6088  0.4656 -2.1019
   74MOL0     H 9711   5.514   8.075   2.384 -2.8930  1.2704 -0.1667
   74MOL0     H 9712   5.458   7.979   2.252 -2.7093  0.1115  1.0516
   74MOL0     H 9713   5.297   7.847   2.377 -0.1598 -0.0329  1.3741
   74MOL0     H 9714   5.266   8.016   2.411  0.7194  0.0692  0.0795
   74MOL0     H 9715   5.371   8.000   2.628  0.2081  0.2049 -1.4208
   74MOL0     H 9716   5.421   7.830   2.588 -1.3087 -1.5089 -1.8130
   74MOL0     H 9717   5.134   7.920   2.614  1.5064  0.8507 -0.3082
   74MOL0     H 9718   5.198   7.759   2.568  0.9682 -0.1080 -0.3417
   74MOL0     H 9719   5.265   7.905   2.827 -0.5890 -0.9110  1.6781
   74MOL0     H 9720   5.302   7.737   2.784  3.3921  2.6120 -1.6778
   74MOL0     H 9721   4.998   7.974   2.854 -0.9810  0.5008  1.3024
   74MOL0     H 9722   4.834   7.959   3.052 -0.6544 -0.9834  2.7145
   74MOL0     H 9723   4.770   7.794   3.093  2.4162 -1.6033 -0.7405
   74MOL0     H 9724   4.655   7.792   2.875  0.6644  0.3427 -1.6122
   74MOL0     H 9725   4.744   7.933   2.822  0.6007 -1.5841 -0.7072
   74MOL0     H 9726   4.536   7.902   3.037  3.5742 -1.8769  0.6732
   74MOL0     H 9727   4.618   8.063   2.997 -0.9037  0.3347 -1.1046
   74MOL0     H 9728   4.528   8.055   2.773 -0.4422  2.4795  0.3957
   74MOL0     H 9729   4.430   8.104   2.902  1.0201  0.2597  0.0665
   74MOL0     H 9730   4.263   7.703   2.873  1.4440  1.0459  1.2887
   74MOL0     H 9731   4.012   7.693   2.904 -0.9891  0.2679  0.8025
   74MOL0     H 9732   3.659   7.586   2.977  1.7069  0.1439  0.4110
   74MOL0     H 9733   3.424   7.517   2.959 -1.0234 -0.4400 -1.7467
   74MOL0     H 9734   3.069   7.546   2.884  0.4418 -4.3356  1.9102
   74MOL0     H 9735   3.207   7.496   2.967 -0.0025 -0.3725 -0.2704
   74MOL0     H 9736   3.151   7.377   2.758  0.9698 -1.2414  1.4852
   74MOL0     H 9737   3.313   7.429   2.754 -1.9181 -1.3997  0.4958
   74MOL0     H 9738   3.221   7.479   2.542 -2.6413  0.2526 -1.7523
   74MOL0     H 9739   3.211   7.647   2.620  1.1475 -1.0388 -0.3298
   74MOL0     H 9740   2.999   7.454   2.615 -0.3364  0.0382 -1.2865
   74MOL0     H 9741   2.993   7.628   2.660  0.9597 -0.7567  1.8117
   74MOL0     H 9742   3.031   7.488   2.390 -0.7270 -0.6710  0.2519
   74MOL0     H 9743   3.032   7.672   2.406 -0.1444 -0.8687 -1.0352
   74MOL0     H 9744   2.802   7.666   2.497 -1.7914 -1.9778  0.5880
   74MOL0     H 9745   2.801   7.498   2.502  1.4145  0.5241  3.3072
   74MOL0     H 9746   2.856   7.651   2.244 -2.3377 -0.2324 -1.8373
   74MOL0     H 9747   2.789   7.489   2.260 -0.5720  0.7257 -1.1809
   74MOL0     H 9748   2.622   7.638   2.183 -1.4003  0.1105  1.6004
   74MOL0     H 9749   2.637   7.752   2.316  1.0062  0.3746 -1.6764
   74MOL0     H 9750   3.322   7.922   2.863  0.8936  0.0909 -3.8496
   74MOL0     H 9751   3.560   7.998   2.885 -0.6813  0.0254  3.7020
   74MOL0     H 9752   3.982   8.112   2.818 -3.5579 -1.9557  1.0486
   74MOL0     H 9753   4.241   8.121   2.807 -0.3551  0.7716  1.6600
   74MOL0     H 9754   6.106   7.759   2.398 -5.0122 -2.9747 -4.5672
   74MOL0     H 9755   6.318   7.888   2.418 -1.0375  1.5017  2.7089
   74MOL0     H 9756   6.385   8.480   2.456 -0.4003 -2.5855 -0.5073
   74MOL0     H 9757   6.583   8.621   2.460 -0.3057  0.8161 -1.1085
   74MOL0     H 9758   6.973   8.413   2.404  0.0686 -1.2640  1.7983
   74MOL0     H 9759   6.957   8.504   2.559 -1.7758  1.6895  0.3026
   74MOL0     H 9760   7.023   8.620   2.276  0.1651 -0.2635 -0.2746
   74MOL0     H 9761   7.004   8.715   2.417 -1.8714 -1.3964  1.0077
   74MOL0     H 9762   7.226   8.615   2.304 -3.1742 -1.1286 -1.4598
   74MOL0     H 9763   7.195   8.487   2.408 -0.2074  0.0329  1.1668
   74MOL0     H 9764   7.184   8.663   2.610  0.8731  1.1287  0.1696
   74MOL0     H 9765   7.352   8.637   2.546 -0.3504  2.7983  1.9936
   74MOL0     H 9766   7.245   9.040   2.435  0.3843  0.2767  0.4999
   74MOL0     H 9767   6.819   8.279   2.362 -1.6801 -3.3182 -0.0009
   74MOL0     H 9768   6.639   8.137   2.372 -0.0747 -0.6660 -0.0462
   75MOL0     O 9769   9.024   8.390   5.425  0.7192 -0.2078  1.2105
   75MOL0     C 9770   9.061   8.488   5.357  0.6688 -0.3755 -0.0800
   75MOL0     O 9771   8.997   8.613   5.363 -0.0253 -0.0910 -0.3743
   75MOL0     C 9772   8.924   8.653   5.465  0.1806 -0.5944 -0.2460
   75MOL0     C 9773   8.794   8.707   5.446  0.1409  0.3919  0.1975
   75MOL0     C 9774   8.728   8.757   5.560  0.0658 -0.0079  0.5355
   75MOL0     C 9775   8.782   8.760   5.685 -0.3886  0.2922 -0.5370
   75MOL0     O 9776   8.717   8.824   5.790 -0.1669  0.6664 -0.4435
   75MOL0     C 9777   8.584   8.878   5.775  0.5207 -0.0535  0.1452
   75MOL0     C 9778   8.540   8.921   5.912  0.7355  0.4166 -0.3002
   75MOL0     C 9779   8.545   8.816   6.025 -0.4488  0.4851  0.1538
   75MOL0     C 9780   8.455   8.855   6.148 -0.0844  0.3267  0.3424
   75MOL0     C 9781   8.481   8.752   6.249  0.5297 -0.4720 -0.5736
   75MOL0     C 9782   8.439   8.804   6.391 -0.3559  0.4456 -0.6222
   75MOL0     C 9783   8.432   8.699   6.508 -0.5232 -1.0159 -0.1405
   75MOL0     C 9784   8.559   8.617   6.544 -0.5352 -0.5444  0.0696
   75MOL0     N 9785   8.533   8.487   6.614 -0.1535 -0.4322 -0.2382
   75MOL0     C 9786   8.445   8.459   6.711  0.2069 -0.3362  1.1450
   75MOL0     C 9787   8.441   8.326   6.726  0.2223 -0.2261  0.1362
   75MOL0     C 9788   8.354   8.258   6.829  0.7466  0.6177 -0.4709
   75MOL0     C 9789   8.298   8.119   6.784 -0.1237  0.5883  0.9529
   75MOL0     C 9790   8.168   8.148   6.698 -0.2203 -0.9026 -0.3157
   75MOL0     C 9791   8.037   8.174   6.773  0.0366 -0.1822 -0.7204
   75MOL0     O 9792   7.979   8.044   6.778  0.8010 -0.0234  0.1502
   75MOL0     C 9793   7.866   8.030   6.855  1.5840 -0.3102 -0.0820
   75MOL0     C 9794   7.814   8.134   6.932 -0.2822  0.6194 -0.6931
   75MOL0     C 9795   7.695   8.114   7.003  0.3347  0.2823  1.1614
   75MOL0     C 9796   7.628   7.986   7.010  0.1838 -1.0426  0.0059
   75MOL0     C 9797   7.511   7.965   7.093  0.3318 -0.2311  0.0384
   75MOL0     O 9798   7.435   7.858   7.052  0.1175 -1.0822 -1.0090
   75MOL0     C 9799   7.331   7.816   7.133 -0.3245  0.1061 -1.4836
   75MOL0     C 9800   7.208   7.875   7.128  0.0465  0.6821 -0.3172
   75MOL0     C 9801   7.103   7.826   7.209 -0.1375  0.1104 -0.1369
   75MOL0     C 9802   7.129   7.716   7.299  0.0770  0.5920  0.5014
   75MOL0     O 9803   7.038   7.666   7.387  0.1298 -0.7785  0.5619
   75MOL0     C 9804   6.932   7.596   7.318  0.0539 -0.4858  0.1665
   75MOL0     C 9805   6.792   7.631   7.362  0.3862 -0.2165  0.1676
   75MOL0     C 9806   6.758   7.582   7.509 -0.2441  0.1564  0.5797
   75MOL0     C 9807   6.610   7.603   7.525 -0.2872  0.1678  0.2136
   75MOL0     C 9808   6.572   7.547   7.664  0.1895  0.0901  0.2326
   75MOL0     C 9809   6.419   7.545   7.685  0.0588  0.1372 -0.5434
   75MOL0     C 9810   6.378   7.530   7.832 -0.3306 -0.6355 -0.3933
   75MOL0     C 9811   6.227   7.552   7.860 -0.0407 -0.7848 -0.0343
   75MOL0    Cl 9812   6.131   7.414   7.821 -0.4944 -0.3899 -0.0097
   75MOL0     C 9813   7.255   7.654   7.292  0.2216  0.4504 -1.1836
   75MOL0     C 9814   7.366   7.706   7.218  0.9071 -0.6480  0.5650
   75MOL0     O 9815   7.490   8.048   7.177  0.3589  0.2987 -0.6702
   75MOL0     C 9816   7.687   7.878   6.932  0.0474 -0.0687 -0.2358
   75MOL0     C 9817   7.804   7.903   6.860  0.7536  1.0992  0.3998
   75MOL0     N 9818   8.546   8.271   6.652 -0.6431  0.4756 -0.2827
   75MOL0     N 9819   8.601   8.368   6.588  0.0999  0.3303 -0.2952
   75MOL0     C 9820   8.915   8.707   5.701  1.1667  0.1508 -0.4292
   75MOL0     C 9821   8.982   8.653   5.593  0.7198  0.5456  0.4418
   75MOL0     C 9822   9.162   8.468   5.254 -1.1716 -0.7893 -0.5850
   75MOL0     C 9823   9.212   8.347   5.217  0.5000  0.2085 -0.7327
   75MOL0     C 9824   9.298   8.338   5.107 -0.3241  0.1152 -0.0645
   75MOL0     C 9825   9.348   8.444   5.037 -0.6027  0.2047  0.9451
   75MOL0     O 9826   9.433   8.416   4.932  0.0093 -0.0809 -0.0114
   75MOL0     C 9827   9.518   8.513   4.869  0.1120 -1.4485 -0.1119
   75MOL0     C 9828   9.640   8.452   4.803 -0.5558  0.0546  0.4309
   75MOL0     C 9829   9.683   8.504   4.665  0.1072  0.1155  0.1655
   75MOL0     C 9830   9.812   8.454   4.600  0.3043  0.3148 -0.2330
   75MOL0     C 9831   9.925   8.475   4.697  0.4921  1.4177  0.7261
   75MOL0     C 9832  10.010   8.486   4.785  0.0549 -0.4380  0.5902
   75MOL0     C 9833   9.292   8.568   5.069 -0.2838  0.7346  0.1866
   75MOL0     C 9834   9.207   8.577   5.173  0.1454 -0.7586  0.3264
   75MOL0     H 9835   8.744   8.709   5.349 -1.3566 -1.0870  0.8831
   75MOL0     H 9836   8.637   8.810   5.535  1.0856  0.2671 -3.2438
   75MOL0     H 9837   8.504   8.808   5.751 -0.7202  1.2889  0.2488
   75MOL0     H 9838   8.589   8.965   5.709 -0.2416 -0.3929 -0.3732
   75MOL0     H 9839   8.439   8.962   5.895 -0.2012 -2.0817 -1.2277
   75MOL0     H 9840   8.605   9.005   5.938 -0.6312  1.4483 -0.1005
   75MOL0     H 9841   8.649   8.813   6.057 -0.5780  1.4839  0.6829
   75MOL0     H 9842   8.513   8.719   5.986 -0.3001  0.9384 -1.1458
   75MOL0     H 9843   8.492   8.947   6.193 -0.8176  2.0191 -2.3007
   75MOL0     H 9844   8.350   8.865   6.121 -1.0796  1.3702  4.0331
   75MOL0     H 9845   8.577   8.700   6.245  0.6318 -0.3166 -0.2162
   75MOL0     H 9846   8.418   8.665   6.230  0.2267 -0.1773 -0.9509
   75MOL0     H 9847   8.342   8.853   6.382 -0.6848 -0.0410  0.1550
   75MOL0     H 9848   8.510   8.880   6.426  4.4994 -3.0885 -1.7118
   75MOL0     H 9849   8.403   8.753   6.599 -0.1991  1.2149 -1.2740
   75MOL0     H 9850   8.355   8.626   6.486  0.2835 -1.5586 -1.2655
   75MOL0     H 9851   8.616   8.673   6.619 -0.9106  0.0150 -0.0530
   75MOL0     H 9852   8.615   8.592   6.454 -1.1945 -2.5697  0.1744
   75MOL0     H 9853   8.384   8.534   6.760 -0.2970  1.2560 -1.6541
   75MOL0     H 9854   8.266   8.319   6.850 -0.1983 -0.9899  0.5235
   75MOL0     H 9855   8.414   8.244   6.920 -0.7877 -1.9370  0.2594
   75MOL0     H 9856   8.283   8.053   6.870  1.9226 -0.7632  0.3394
   75MOL0     H 9857   8.367   8.065   6.719 -2.4522  0.1235 -1.2971
   75MOL0     H 9858   8.193   8.241   6.645 -1.8176 -1.5355 -2.3366
   75MOL0     H 9859   8.143   8.067   6.630  0.2753  0.1144 -1.7551
   75MOL0     H 9860   7.968   8.246   6.728 -0.4958 -1.2275 -1.6350
   75MOL0     H 9861   8.057   8.214   6.873 -3.6352  2.7256 -0.9326
   75MOL0     H 9862   7.845   8.238   6.927 -1.6363  1.1125  0.5001
   75MOL0     H 9863   7.666   8.201   7.061 -0.6293 -0.4306  1.7846
   75MOL0     H 9864   7.184   7.950   7.053 -0.9478  0.2054 -0.4872
   75MOL0     H 9865   7.005   7.872   7.200 -1.2274 -2.1032 -0.3494
   75MOL0     H 9866   6.959   7.493   7.344  1.8852  0.3350  1.7658
   75MOL0     H 9867   6.929   7.617   7.211 -3.4858  0.8441  0.3780
   75MOL0     H 9868   6.727   7.586   7.286 -0.5225 -0.6131  1.1612
   75MOL0     H 9869   6.774   7.739   7.355 -1.8682 -0.3633  2.4471
   75MOL0     H 9870   6.810   7.655   7.571  1.0558 -0.7658  0.6099
   75MOL0     H 9871   6.785   7.476   7.510  0.4237  0.3236  0.3835
   75MOL0     H 9872   6.564   7.702   7.523 -0.4929  0.0682 -0.9019
   75MOL0     H 9873   6.558   7.539   7.453  0.5903  1.8906 -2.0806
   75MOL0     H 9874   6.617   7.599   7.748  1.5198  3.8807 -2.5474
   75MOL0     H 9875   6.599   7.441   7.666 -2.0365 -0.5616 -0.6434
   75MOL0     H 9876   6.371   7.476   7.616  0.1378 -0.4939  0.0245
   75MOL0     H 9877   6.376   7.641   7.655 -1.5219 -0.2211  0.4497
   75MOL0     H 9878   6.403   7.432   7.874 -0.3552 -0.5008 -0.0611
   75MOL0     H 9879   6.432   7.594   7.903 -2.4028 -0.2446  0.9171
   75MOL0     H 9880   6.197   7.641   7.804  0.3773 -0.4561  0.2517
   75MOL0     H 9881   6.212   7.581   7.965  0.2826  2.6327 -0.8121
   75MOL0     H 9882   7.263   7.568   7.358 -0.9261  1.1232 -0.1407
   75MOL0     H 9883   7.461   7.655   7.228  0.8884 -1.0124 -0.9578
   75MOL0     H 9884   7.641   7.779   6.933 -2.6226  1.1095  0.0059
   75MOL0     H 9885   7.838   7.829   6.789 -2.5613  0.5648 -0.7744
   75MOL0     H 9886   8.956   8.715   5.801 -0.7929  0.6402  0.4044
   75MOL0     H 9887   9.085   8.617   5.597  0.9627  1.1474 -0.2675
   75MOL0     H 9888   9.177   8.259   5.270  4.5902  0.7802  3.6746
   75MOL0     H 9889   9.351   8.244   5.097  2.3517  1.6579 -1.7129
   75MOL0     H 9890   9.546   8.584   4.948 -0.9809 -2.7709  1.5292
   75MOL0     H 9891   9.452   8.562   4.797  1.1350 -2.8624 -2.0823
   75MOL0     H 9892   9.728   8.474   4.863 -0.1825 -2.5469  0.9452
   75MOL0     H 9893   9.629   8.344   4.792 -0.0881  0.1594 -1.2770
   75MOL0     H 9894   9.688   8.613   4.659 -0.1552  0.0483 -1.5825
   75MOL0     H 9895   9.603   8.468   4.600  0.3583 -2.2218  1.0452
   75MOL0     H 9896   9.811   8.345   4.590  0.2733  0.4014 -1.2329
   75MOL0     H 9897   9.826   8.505   4.505 -1.0592  1.3916  0.1181
   75MOL0     H 9898  10.098   8.499   4.846 -0.1222 -2.8166  1.4492
   75MOL0     H 9899   9.331   8.655   5.017  1.3990 -0.3019 -0.3717
   75MOL0     H 9900   9.157   8.673   5.182 -0.3284 -1.0014  0.3351
   76MOL0     O 9901   9.283   6.374   6.431  0.0605 -1.2034 -0.0277
   76MOL0     C 9902   9.344   6.388   6.325 -0.6166  0.1840 -0.0129
   76MOL0     O 9903   9.293   6.433   6.211  0.1974 -0.1853  0.9041
   76MOL0     C 9904   9.156   6.436   6.203  0.6018  0.4038 -0.1110
   76MOL0     C 9905   9.081   6.549   6.232 -0.4475  0.1815 -0.4061
   76MOL0     C 9906   8.946   6.551   6.194  0.0517 -0.3069  0.4580
   76MOL0     C 9907   8.887   6.436   6.134  1.0287  0.1260  0.1867
   76MOL0     O 9908   8.754   6.445   6.096 -0.0673 -0.1807  0.2892
   76MOL0     C 9909   8.707   6.369   5.986 -0.1397  0.6787 -0.2557
   76MOL0     C 9910   8.597   6.439   5.896 -0.8186  0.1588 -0.1257
   76MOL0     C 9911   8.484   6.340   5.857  0.4833 -0.7362 -0.4430
   76MOL0     C 9912   8.356   6.390   5.780 -0.5524 -0.7332 -0.1711
   76MOL0     C 9913   8.400   6.461   5.644 -0.1497  0.2756  0.4959
   76MOL0     C 9914   8.274   6.493   5.560  0.6390 -0.8112 -0.7859
   76MOL0     C 9915   8.319   6.546   5.425  0.5834 -0.9436  0.2621
   76MOL0     C 9916   8.213   6.595   5.327  0.8627 -0.0765  0.4512
   76MOL0     N 9917   8.125   6.705   5.383  0.5393 -0.5745 -1.0870
   76MOL0     C 9918   7.990   6.712   5.363 -0.4677 -0.3085 -0.0386
   76MOL0     C 9919   7.942   6.808   5.442  0.0215 -0.0348  0.9034
   76MOL0     C 9920   7.806   6.862   5.470  0.5410 -0.6110  0.9594
   76MOL0     C 9921   7.692   6.813   5.366 -0.5802 -0.3612 -0.1443
   76MOL0     C 9922   7.552   6.827   5.423 -0.3687 -0.0133  0.9816
   76MOL0     C 9923   7.508   6.973   5.421  0.5058 -0.8525 -0.0370
   76MOL0     O 9924   7.395   6.991   5.496 -0.6924 -0.5884 -0.2592
   76MOL0     C 9925   7.274   6.996   5.439 -0.5202 -0.2793  0.1459
   76MOL0     C 9926   7.236   6.976   5.304 -0.6146  0.5631 -0.6713
   76MOL0     C 9927   7.106   6.996   5.264 -0.9176  0.0312  0.3105
   76MOL0     C 9928   7.006   7.033   5.360 -0.3096 -0.4680  1.1334
   76MOL0     C 9929   6.869   7.038   5.328  0.7554 -0.0479  0.5932
   76MOL0     O 9930   6.789   7.076   5.430  0.3697  0.1293  0.7215
   76MOL0     C 9931   6.651   7.094   5.409  0.5383  0.8682 -0.0764
   76MOL0     C 9932   6.573   7.084   5.523  0.3466  0.8964  0.0924
   76MOL0     C 9933   6.429   7.093   5.517  1.2212  1.2583  0.0772
   76MOL0     C 9934   6.364   7.102   5.397 -0.1247 -0.7819 -0.8758
   76MOL0     O 9935   6.225   7.101   5.408 -0.5110 -0.1397 -0.2252
   76MOL0     C 9936   6.146   7.130   5.299 -0.4197  0.1047 -0.1511
   76MOL0     C 9937   5.999   7.161   5.352 -0.9461 -0.0106 -0.4001
   76MOL0     C 9938   5.905   7.210   5.238  0.4553  0.8885 -0.5442
   76MOL0     C 9939   5.783   7.265   5.305  0.5592  0.0130 -0.3133
   76MOL0     C 9940   5.693   7.323   5.192  0.9792  0.1133 -0.2158
   76MOL0     C 9941   5.623   7.204   5.105 -0.4098  0.0469  0.5377
   76MOL0     C 9942   5.509   7.256   5.018  0.5047  0.1789 -0.6036
   76MOL0     C 9943   5.426   7.149   4.950  0.0598 -0.1083 -0.9362
   76MOL0    Cl 9944   5.361   7.027   5.065 -0.4895 -0.0867 -0.2140
   76MOL0     C 9945   6.443   7.120   5.281 -0.4202 -0.4982  0.4238
   76MOL0     C 9946   6.581   7.105   5.289 -0.0922 -0.8959  0.4775
   76MOL0     O 9947   6.843   7.019   5.208  0.6415  0.2235  0.2096
   76MOL0     C 9948   7.053   7.066   5.487  0.5153 -0.3725  0.1701
   76MOL0     C 9949   7.185   7.046   5.531  0.1937 -0.0140 -0.0880
   76MOL0     N 9950   8.046   6.853   5.518 -0.2876 -0.0434 -0.3577
   76MOL0     N 9951   8.158   6.793   5.483  0.4276 -0.3179  0.0107
   76MOL0     C 9952   8.962   6.320   6.120 -0.7276 -0.3761 -0.6724
   76MOL0     C 9953   9.094   6.318   6.161 -0.6425  0.3121 -0.1414
   76MOL0     C 9954   9.486   6.383   6.339 -1.0306  0.4383  0.0238
   76MOL0     C 9955   9.543   6.385   6.468 -0.6579  0.1295 -0.3132
   76MOL0     C 9956   9.681   6.367   6.484 -0.1445 -0.0180 -0.5054
   76MOL0     C 9957   9.764   6.343   6.374 -0.0115 -0.4302  0.1840
   76MOL0     O 9958   9.902   6.343   6.404  0.5040 -0.3415  0.3595
   76MOL0     C 9959  10.004   6.346   6.302  0.1347 -0.1631 -0.2988
   76MOL0     C 9960  10.145   6.326   6.362 -0.8434  0.6245  1.0715
   76MOL0     C 9961  10.273   6.324   6.265 -0.5257  0.5017  0.1393
   76MOL0     C 9962  10.254   6.217   6.163  0.3321 -0.3988 -1.0605
   76MOL0     C 9963  10.250   6.088   6.237  0.3312  0.4794 -0.0465
   76MOL0     C 9964  10.235   5.980   6.287  0.0389  0.2574  0.5848
   76MOL0     C 9965   9.704   6.338   6.239 -0.7943 -0.2250  0.2996
   76MOL0     C 9966   9.570   6.352   6.230  0.3240 -0.0699 -0.5142
   76MOL0     H 9967   9.127   6.636   6.277 -1.4511  0.1137  0.7778
   76MOL0     H 9968   8.878   6.632   6.218  1.1846  0.8062 -0.0041
   76MOL0     H 9969   8.664   6.278   6.029  1.3909 -0.8948 -1.8585
   76MOL0     H 9970   8.777   6.338   5.907 -1.4721  1.7681 -1.9355
   76MOL0     H 9971   8.634   6.481   5.801  2.1177  0.8302  1.2018
   76MOL0     H 9972   8.541   6.511   5.956 -0.4481  1.0219 -0.7860
   76MOL0     H 9973   8.444   6.292   5.947 -1.9752  1.4833 -0.2189
   76MOL0     H 9974   8.536   6.264   5.798  0.3460 -2.1785  1.2154
   76MOL0     H 9975   8.299   6.301   5.753  1.6772 -1.3331 -3.5051
   76MOL0     H 9976   8.291   6.453   5.841 -0.0259  1.2702 -1.5425
   76MOL0     H 9977   8.459   6.391   5.584  0.5953  2.8658 -2.0468
   76MOL0     H 9978   8.467   6.547   5.656 -0.9207  0.5380  3.5999
   76MOL0     H 9979   8.213   6.569   5.611 -1.5296 -1.9445 -1.5780
   76MOL0     H 9980   8.197   6.416   5.551 -0.0831 -0.5045  1.8047
   76MOL0     H 9981   8.383   6.632   5.448 -2.1575  0.7847  1.9076
   76MOL0     H 9982   8.372   6.470   5.366 -2.0181 -2.3785 -0.3987
   76MOL0     H 9983   8.146   6.512   5.301 -0.0530  0.7046  0.2752
   76MOL0     H 9984   8.258   6.636   5.237  0.7812  1.5977  1.1322
   76MOL0     H 9985   7.937   6.653   5.289 -0.3021  1.3403 -1.5500
   76MOL0     H 9986   7.793   6.971   5.469  0.7250 -0.5507 -1.3898
   76MOL0     H 9987   7.778   6.819   5.566 -0.0563 -1.8562  0.2680
   76MOL0     H 9988   7.715   6.707   5.360 -1.8761 -0.7002  0.4162
   76MOL0     H 9989   7.705   6.870   5.274 -0.0452  0.1418  0.2350
   76MOL0     H 9990   7.486   6.771   5.357 -1.9856  3.5152 -0.6480
   76MOL0     H 9991   7.559   6.786   5.524  1.0546 -1.7965  0.2089
   76MOL0     H 9992   7.508   7.013   5.319  0.2655 -1.3417 -0.2299
   76MOL0     H 9993   7.587   7.030   5.472 -1.1211  1.2999  0.2193
   76MOL0     H 9994   7.318   6.948   5.238  0.1905 -0.7187  0.8172
   76MOL0     H 9995   7.100   6.984   5.157  0.7044 -0.6225  0.2565
   76MOL0     H 9996   6.624   7.067   5.618 -1.8081  0.5714  1.2647
   76MOL0     H 9997   6.357   7.084   5.598  0.4593  1.2559 -0.5922
   76MOL0     H 9998   6.156   7.053   5.222  0.5512  0.1436 -0.0730
   76MOL0     H 9999   6.179   7.220   5.246  2.5891 -0.9669 -0.2545
   76MOL0     H10000   6.009   7.244   5.422 -2.4856 -0.5900  0.5381
   76MOL0     H10001   5.961   7.071   5.399  0.0283  1.0369  2.6031
   76MOL0     H10002   5.875   7.126   5.173 -3.3630  2.3113 -0.8752
   76MOL0     H10003   5.942   7.290   5.173 -4.2638  2.9703 -1.0857
   76MOL0     H10004   5.735   7.194   5.373  2.9732 -0.6570  0.7980
   76MOL0     H10005   5.802   7.354   5.365 -0.0263  0.1892 -0.3793
   76MOL0     H10006   5.761   7.394   5.145  0.2763  2.6189  2.2746
   76MOL0     H10007   5.611   7.374   5.243  2.6618  1.7858  0.9685
   76MOL0     H10008   5.566   7.137   5.171  0.1346 -0.7252  0.2278
   76MOL0     H10009   5.685   7.142   5.040 -0.8716  2.5052 -2.4859
   76MOL0     H10010   5.444   7.321   5.076  1.3396 -0.6306  1.2991
   76MOL0     H10011   5.548   7.314   4.934 -1.8744  2.9915  0.0736
   76MOL0     H10012   5.497   7.096   4.887  1.1348  0.5037 -0.2655
   76MOL0     H10013   5.344   7.196   4.895 -0.9198 -2.6476 -1.7901
   76MOL0     H10014   6.397   7.122   5.182 -0.5235 -3.4525  0.3280
   76MOL0     H10015   6.633   7.124   5.196 -1.3812 -0.9056 -0.2625
   76MOL0     H10016   6.978   7.093   5.561 -0.8047 -0.6132 -1.0511
   76MOL0     H10017   7.218   7.056   5.634  0.9813 -2.1853 -0.0793
   76MOL0     H10018   8.934   6.238   6.054  0.1354  0.8361 -2.6244
   76MOL0     H10019   9.150   6.227   6.142 -2.1280 -1.2420  2.3681
   76MOL0     H10020   9.485   6.396   6.560 -0.9581 -1.9045 -0.2131
   76MOL0     H10021   9.731   6.370   6.580 -1.1017  0.0394 -0.0026
   76MOL0     H10022   9.996   6.439   6.245 -1.4036 -0.5312 -0.7393
   76MOL0     H10023   9.979   6.262   6.237  0.9053 -0.8500  0.2640
   76MOL0     H10024  10.166   6.403   6.437  0.5360 -0.8332  2.2516
   76MOL0     H10025  10.138   6.233   6.420  0.1449 -0.3919 -0.3888
   76MOL0     H10026  10.360   6.302   6.327 -1.6302  4.4005  3.4785
   76MOL0     H10027  10.285   6.423   6.219 -1.4312  0.1412 -0.9384
   76MOL0     H10028  10.166   6.230   6.099  1.3562  1.2819 -2.1999
   76MOL0     H10029  10.343   6.223   6.100  0.9119  1.7625 -0.1151
   76MOL0     H10030  10.223   5.883   6.332  2.8091 -0.1871  0.5128
   76MOL0     H10031   9.761   6.314   6.150 -0.3140 -2.2489  1.0813
   76MOL0     H10032   9.520   6.354   6.133 -0.9791 -1.2933  0.1002
   77MOL0     O10033   2.158   3.754   5.846 -0.5785 -0.3363  0.2129
   77MOL0     C10034   2.242   3.716   5.928  0.1210 -0.0768 -1.0314
   77MOL0     O10035   2.211   3.662   6.050 -0.2711  0.4762 -0.0267
   77MOL0     C10036   2.085   3.642   6.089  0.6270  0.2003 -0.4310
   77MOL0     C10037   2.041   3.714   6.198 -1.2713 -0.2215 -0.3552
   77MOL0     C10038   1.909   3.703   6.242 -0.5907 -0.3453  0.1003
   77MOL0     C10039   1.823   3.608   6.178 -1.4884 -1.0627 -0.5622
   77MOL0     O10040   1.700   3.597   6.239 -0.4188  0.1433 -0.1148
   77MOL0     C10041   1.594   3.530   6.164 -0.2916  0.1368  0.4897
   77MOL0     C10042   1.449   3.573   6.213  0.3218 -0.6438  0.1181
   77MOL0     C10043   1.437   3.530   6.358  0.0549 -0.2469 -0.9967
   77MOL0     C10044   1.308   3.529   6.410  0.6953  0.3192 -0.0022
   77MOL0     C10045   1.224   3.642   6.396 -0.1372 -0.8207  0.4192
   77MOL0     C10046   1.083   3.636   6.472 -0.0621  0.6630  0.1174
   77MOL0     C10047   1.000   3.760   6.434 -0.2692  0.0044  0.3040
   77MOL0     C10048   0.862   3.759   6.507  0.0995 -0.2491 -0.1767
   77MOL0     N10049   0.759   3.687   6.440 -0.2149 -0.4458 -0.2989
   77MOL0     C10050   0.640   3.743   6.392  0.0403  0.0632  0.8508
   77MOL0     C10051   0.582   3.635   6.318 -0.3025 -0.5438  0.4087
   77MOL0     C10052   0.457   3.632   6.219 -1.3088 -0.1326 -0.6218
   77MOL0     C10053   0.335   3.716   6.267 -0.1046  0.4812  0.7458
   77MOL0     C10054   0.229   3.728   6.151 -0.2530 -0.3889 -0.4826
   77MOL0     C10055   0.106   3.797   6.202  0.2002 -0.3595 -0.1747
   77MOL0     O10056   0.025   3.830   6.089 -0.0107  0.6285 -1.0785
   77MOL0     C10057  -0.115   3.807   6.089 -0.7031  0.8220 -0.3774
   77MOL0     C10058  -0.210   3.904   6.115 -1.0503 -0.3023  0.1372
   77MOL0     C10059  -0.349   3.878   6.116 -0.8835 -0.8380 -0.3743
   77MOL0     C10060  -0.396   3.745   6.091  0.6827 -1.3893  0.1223
   77MOL0     C10061  -0.537   3.708   6.081  0.2370 -0.5957 -0.9679
   77MOL0     O10062  -0.619   3.810   6.127  0.4756  0.7432  0.0274
   77MOL0     C10063  -0.754   3.788   6.131  0.4810  0.0538  0.2729
   77MOL0     C10064  -0.816   3.748   6.008  0.4362  0.2818 -0.3482
   77MOL0     C10065  -0.948   3.722   6.015 -1.2889 -0.1001 -0.1225
   77MOL0     C10066  -1.019   3.747   6.133  0.0650  0.6033 -0.1186
   77MOL0     O10067  -1.151   3.712   6.158  0.1334  0.3158 -0.3429
   77MOL0     C10068  -1.209   3.608   6.072  0.0450  0.0015  0.0098
   77MOL0     C10069  -1.353   3.592   6.125  0.1843  0.0238  0.3741
   77MOL0     C10070  -1.431   3.726   6.093 -0.0641  0.5540 -0.3222
   77MOL0     C10071  -1.578   3.718   6.140  0.3037  0.4494  0.1601
   77MOL0     C10072  -1.658   3.847   6.097 -0.4358  0.1543 -0.2072
   77MOL0     C10073  -1.802   3.825   6.144  0.9024  0.1145  0.3408
   77MOL0     C10074  -1.886   3.934   6.078 -0.6972  0.1049  0.0113
   77MOL0     C10075  -2.030   3.960   6.137 -0.5807  0.6036 -0.2851
   77MOL0    Cl10076  -2.021   4.054   6.298  0.0063  0.0252 -0.2990
   77MOL0     C10077  -0.956   3.795   6.249  0.4955 -0.0651  1.1678
   77MOL0     C10078  -0.823   3.815   6.246  0.2244 -0.3281 -0.1012
   77MOL0     O10079  -0.571   3.595   6.056 -0.3764  0.0048  0.4597
   77MOL0     C10080  -0.299   3.653   6.052 -0.2967  0.1827 -0.5297
   77MOL0     C10081  -0.163   3.676   6.058 -0.3451 -0.2858 -0.0510
   77MOL0     N10082   0.657   3.521   6.333 -0.2674 -0.0973 -0.8518
   77MOL0     N10083   0.758   3.553   6.417 -0.1600  0.1976  0.3955
   77MOL0     C10084   1.865   3.542   6.062 -0.4827  0.7639 -0.1892
   77MOL0     C10085   2.000   3.565   6.018  0.3291  0.3685  0.2604
   77MOL0     C10086   2.386   3.730   5.895  0.0801 -0.3749  0.3450
   77MOL0     C10087   2.427   3.774   5.773  0.5064  0.3514  0.3574
   77MOL0     C10088   2.567   3.789   5.741 -0.8086  0.8509  0.1930
   77MOL0     C10089   2.667   3.750   5.834 -0.8255  0.9015  0.3850
   77MOL0     O10090   2.805   3.752   5.803 -0.3428 -0.2298  0.2544
   77MOL0     C10091   2.852   3.842   5.702  0.1289  0.8922 -0.2539
   77MOL0     C10092   2.937   3.766   5.600  0.1827 -0.9915 -0.3200
   77MOL0     C10093   3.002   3.848   5.490 -0.9455  0.3298 -0.1998
   77MOL0     C10094   3.059   3.978   5.540 -0.2361  0.0412  0.3196
   77MOL0     C10095   3.181   3.971   5.629 -0.7690  0.6146 -0.3773
   77MOL0     C10096   3.274   3.977   5.710 -0.3218 -0.0738  0.1923
   77MOL0     C10097   2.621   3.715   5.962 -0.1568 -0.7540  0.0453
   77MOL0     C10098   2.483   3.699   5.991  0.4126 -0.3838 -0.4347
   77MOL0     H10099   2.120   3.761   6.255 -2.9392  1.3606  0.7816
   77MOL0     H10100   1.878   3.766   6.324 -1.8828  1.2932 -1.5840
   77MOL0     H10101   1.623   3.424   6.160 -2.8411 -0.5954 -1.0069
   77MOL0     H10102   1.600   3.569   6.062  0.6346  0.5405  0.6907
   77MOL0     H10103   1.369   3.528   6.153 -0.4426 -1.7913  1.9083
   77MOL0     H10104   1.427   3.680   6.214 -1.4641 -0.9451  2.7631
   77MOL0     H10105   1.505   3.591   6.418 -2.0274  0.3329  0.8897
   77MOL0     H10106   1.471   3.428   6.379 -0.1117 -0.1125 -0.0402
   77MOL0     H10107   1.250   3.442   6.379 -0.3510  1.4631 -1.4033
   77MOL0     H10108   1.317   3.520   6.519  1.2883  1.3508  0.0490
   77MOL0     H10109   1.194   3.648   6.291 -0.0259  0.4452  0.4450
   77MOL0     H10110   1.282   3.732   6.418  0.2078  0.0092 -3.3115
   77MOL0     H10111   1.094   3.641   6.580 -3.3878  2.2678  0.4949
   77MOL0     H10112   1.030   3.542   6.454  2.6691 -1.5660  2.7218
   77MOL0     H10113   1.049   3.851   6.467  0.1671 -0.2412  0.3412
   77MOL0     H10114   0.995   3.763   6.325 -1.7940 -0.4903  0.3342
   77MOL0     H10115   0.833   3.864   6.514 -0.9808 -0.1809 -3.5101
   77MOL0     H10116   0.878   3.724   6.609  0.1381  2.4985  0.8482
   77MOL0     H10117   0.601   3.843   6.409 -0.7475 -0.2530  0.9083
   77MOL0     H10118   0.426   3.528   6.206 -1.1306 -0.2505 -0.1296
   77MOL0     H10119   0.496   3.669   6.123 -0.0859  1.6849  0.5067
   77MOL0     H10120   0.365   3.817   6.296 -2.0991  1.7287 -1.2326
   77MOL0     H10121   0.296   3.660   6.353  2.2162 -1.1784  0.7918
   77MOL0     H10122   0.264   3.783   6.063 -1.6524  2.1093  0.4370
   77MOL0     H10123   0.195   3.630   6.115 -1.2954 -0.5806  0.9533
   77MOL0     H10124   0.131   3.896   6.242 -0.7625  1.4553 -3.6068
   77MOL0     H10125   0.060   3.739   6.282  1.8103 -1.3229  0.1001
   77MOL0     H10126  -0.180   4.008   6.120 -1.1080 -0.0636 -2.6055
   77MOL0     H10127  -0.425   3.953   6.138  0.2968 -0.1146  1.4244
   77MOL0     H10128  -0.766   3.727   5.914  1.7884 -2.7291  0.9005
   77MOL0     H10129  -1.006   3.681   5.932  0.4590 -3.1175  0.0188
   77MOL0     H10130  -1.164   3.513   6.101  2.4263  1.6457  2.1675
   77MOL0     H10131  -1.208   3.635   5.966 -0.7830  1.1304  0.2693
   77MOL0     H10132  -1.344   3.576   6.233 -1.6181  0.0793  0.5491
   77MOL0     H10133  -1.404   3.506   6.082  0.7090  0.0118 -0.2503
   77MOL0     H10134  -1.426   3.746   5.985  3.0292  3.1041  0.1439
   77MOL0     H10135  -1.397   3.813   6.149 -1.6689 -1.4970  4.3671
   77MOL0     H10136  -1.616   3.630   6.089  2.2287  0.2244 -0.9671
   77MOL0     H10137  -1.582   3.694   6.247 -3.5116 -1.5202 -0.2768
   77MOL0     H10138  -1.655   3.854   5.988  1.4015  1.5407 -0.1043
   77MOL0     H10139  -1.617   3.942   6.133  0.9632 -0.9228  1.1655
   77MOL0     H10140  -1.795   3.834   6.253  1.0903  0.2779  0.3167
   77MOL0     H10141  -1.842   3.729   6.113 -3.1071  2.3766 -2.4145
   77MOL0     H10142  -1.828   4.026   6.087 -0.0676  0.1593 -3.4372
   77MOL0     H10143  -1.890   3.922   5.970 -1.0181 -1.1002  0.1390
   77MOL0     H10144  -2.074   3.862   6.160 -0.0790  0.6836  1.0577
   77MOL0     H10145  -2.098   4.019   6.075  2.0183  3.5458 -0.5694
   77MOL0     H10146  -1.011   3.818   6.340 -1.1897 -2.6690  0.9325
   77MOL0     H10147  -0.772   3.852   6.334  0.1277 -2.5500  0.9555
   77MOL0     H10148  -0.327   3.552   6.024 -0.0172 -0.7552  2.2805
   77MOL0     H10149  -0.099   3.593   6.029 -0.6322 -0.6271  0.2859
   77MOL0     H10150   1.793   3.475   6.015  1.7401 -0.7173 -1.6666
   77MOL0     H10151   2.034   3.531   5.921 -0.3666  0.0055  0.1360
   77MOL0     H10152   2.347   3.796   5.703 -1.1366 -2.2975  1.2467
   77MOL0     H10153   2.589   3.831   5.644 -1.4950 -1.1186 -0.8666
   77MOL0     H10154   2.904   3.918   5.761  2.1328 -1.1234  0.7206
   77MOL0     H10155   2.772   3.888   5.644 -0.0403  1.0506  0.0970
   77MOL0     H10156   3.018   3.707   5.643  2.6069  1.2766 -1.5211
   77MOL0     H10157   2.875   3.693   5.546 -1.9440 -0.3737  1.1535
   77MOL0     H10158   2.929   3.868   5.411 -1.3427  0.9438  0.3118
   77MOL0     H10159   3.085   3.785   5.457 -1.4416 -1.2189  1.3628
   77MOL0     H10160   3.081   4.043   5.455 -1.5645  0.0494 -0.0409
   77MOL0     H10161   2.983   4.032   5.598 -1.7895 -0.5006 -1.1343
   77MOL0     H10162   3.355   3.980   5.779 -1.5276 -1.0746  1.7190
   77MOL0     H10163   2.701   3.686   6.029  1.6723 -0.3329 -1.8774
   77MOL0     H10164   2.452   3.647   6.082 -0.6540  0.6532 -0.1910
   78MOL0     O10165   7.565   7.290   7.049  0.9150 -0.0231 -0.1981
   78MOL0     C10166   7.582   7.375   7.139  0.4180  1.2920  0.4095
   78MOL0     O10167   7.506   7.382   7.253 -0.8969 -0.3679  0.6796
   78MOL0     C10168   7.395   7.303   7.264 -0.8863 -0.9777 -0.3319
   78MOL0     C10169   7.291   7.283   7.181  0.0969  0.3825 -0.0098
   78MOL0     C10170   7.180   7.206   7.215 -0.8508  0.1118 -0.2886
   78MOL0     C10171   7.173   7.152   7.343 -0.0101  0.6483  0.4769
   78MOL0     O10172   7.059   7.079   7.391  0.1758 -0.0370  1.1679
   78MOL0     C10173   6.959   7.025   7.300 -1.0890 -0.6552 -0.5263
   78MOL0     C10174   6.866   7.135   7.244 -0.6393  0.6823  0.1145
   78MOL0     C10175   6.783   7.192   7.361  0.1853 -0.1744  0.7001
   78MOL0     C10176   6.654   7.260   7.301 -0.9328 -0.4871  0.3326
   78MOL0     C10177   6.533   7.262   7.395  0.0686  0.1741 -0.0893
   78MOL0     C10178   6.483   7.119   7.437 -0.3619  0.1633 -0.4168
   78MOL0     C10179   6.344   7.117   7.507  0.2390  0.0294 -0.3276
   78MOL0     C10180   6.306   6.972   7.516 -0.5957 -0.1891  0.1634
   78MOL0     N10181   6.174   6.955   7.574 -0.4407 -0.1521 -0.1315
   78MOL0     C10182   6.108   7.030   7.670 -0.4023 -0.5560  0.2684
   78MOL0     C10183   6.000   6.958   7.711  0.0313 -0.0942  0.6665
   78MOL0     C10184   5.880   7.021   7.780  0.0763  0.8689  0.1579
   78MOL0     C10185   5.884   7.024   7.932 -0.1892 -0.3059  0.5981
   78MOL0     C10186   5.872   6.887   7.991  0.4824  0.3532 -0.0743
   78MOL0     C10187   5.726   6.844   7.998  0.9869  1.2961 -0.1083
   78MOL0     O10188   5.650   6.923   8.093  0.1637  0.1175 -1.0183
   78MOL0     C10189   5.524   6.881   8.110  0.0147  0.6760 -0.0424
   78MOL0     C10190   5.467   6.890   8.241 -1.0424 -0.4915 -0.1565
   78MOL0     C10191   5.337   6.872   8.275 -0.0302  0.7555  0.2705
   78MOL0     C10192   5.249   6.831   8.173 -0.6800 -0.6005  0.1323
   78MOL0     C10193   5.105   6.808   8.200 -0.9495  0.5416 -1.0742
   78MOL0     O10194   5.019   6.781   8.100  0.6686  0.1478 -0.1894
   78MOL0     C10195   4.893   6.721   8.121  0.4763 -0.0928  0.1932
   78MOL0     C10196   4.804   6.738   8.016 -0.1142  0.1625 -0.1914
   78MOL0     C10197   4.682   6.673   8.030  0.4023 -0.1127  0.4097
   78MOL0     C10198   4.647   6.597   8.143  0.6393 -0.0182 -0.1510
   78MOL0     O10199   4.523   6.542   8.147  0.1702 -0.3705  0.2804
   78MOL0     C10200   4.453   6.503   8.273  0.4198 -0.6933 -0.1825
   78MOL0     C10201   4.299   6.520   8.264  0.0654  0.3618 -0.3417
   78MOL0     C10202   4.239   6.402   8.184 -0.5787 -0.1654  0.2344
   78MOL0     C10203   4.084   6.395   8.177 -0.0317 -0.9005 -0.0106
   78MOL0     C10204   4.048   6.279   8.091  0.0956 -1.0339  0.5357
   78MOL0     C10205   3.895   6.249   8.095  0.2954  0.9874 -0.8255
   78MOL0     C10206   3.858   6.189   8.232 -0.0809 -0.8354 -0.3565
   78MOL0     C10207   3.716   6.147   8.225  0.2939 -0.5238 -0.5718
   78MOL0    Cl10208   3.660   6.096   8.378 -0.0525  0.1859 -0.4539
   78MOL0     C10209   4.745   6.577   8.243  0.8169  0.1775 -0.8383
   78MOL0     C10210   4.869   6.637   8.229  0.7860  0.0428  0.2854
   78MOL0     O10211   5.069   6.823   8.320 -0.3703  0.2694  0.5506
   78MOL0     C10212   5.293   6.829   8.038 -0.5770  0.4175 -0.0153
   78MOL0     C10213   5.432   6.849   8.005 -0.3223  0.4952 -1.2893
   78MOL0     N10214   6.008   6.838   7.645 -0.2446 -0.3660  0.0043
   78MOL0     N10215   6.105   6.835   7.563 -0.1247  0.1167 -0.6216
   78MOL0     C10216   7.276   7.173   7.436 -0.2324 -0.6987  0.0186
   78MOL0     C10217   7.388   7.246   7.392 -0.4838 -0.1521  0.6240
   78MOL0     C10218   7.701   7.469   7.126 -0.2217 -0.9819 -0.0563
   78MOL0     C10219   7.741   7.544   7.237  0.7358 -0.1784 -0.3758
   78MOL0     C10220   7.843   7.635   7.228  0.4081 -0.9422 -0.7563
   78MOL0     C10221   7.918   7.657   7.103 -0.1712 -0.8204 -0.5758
   78MOL0     O10222   8.022   7.744   7.108 -0.0224  0.2966 -0.4089
   78MOL0     C10223   8.110   7.731   7.009  0.0167 -0.4978 -0.4799
   78MOL0     C10224   8.241   7.776   7.058 -0.5949  0.2331  0.2486
   78MOL0     C10225   8.249   7.913   7.124  0.2106  0.1940  0.3663
   78MOL0     C10226   8.395   7.972   7.138 -0.0502 -0.1240  0.0405
   78MOL0     C10227   8.376   8.103   7.191  0.1214 -0.5470 -0.0517
   78MOL0     C10228   8.353   8.213   7.245  0.0449  0.2703 -0.2119
   78MOL0     C10229   7.861   7.593   6.994  0.7478  0.7186 -0.2261
   78MOL0     C10230   7.756   7.507   7.003  0.2271  0.2677  1.4112
   78MOL0     H10231   7.295   7.330   7.083  1.6116 -0.4097 -0.3642
   78MOL0     H10232   7.098   7.203   7.144  1.1414  3.8927 -3.0761
   78MOL0     H10233   6.904   6.956   7.364 -0.6488  2.8158  4.1382
   78MOL0     H10234   7.006   6.968   7.220  3.0536  4.0673 -2.0044
   78MOL0     H10235   6.803   7.070   7.184  1.7764 -0.0476 -1.7934
   78MOL0     H10236   6.908   7.219   7.188 -0.8739  0.3148 -0.6197
   78MOL0     H10237   6.835   7.266   7.422  2.1565 -1.0844  0.1881
   78MOL0     H10238   6.759   7.106   7.425 -1.7643 -0.8221 -0.7783
   78MOL0     H10239   6.682   7.362   7.271 -1.0458 -1.0790 -1.9818
   78MOL0     H10240   6.622   7.213   7.208 -1.0099 -1.8525  1.0223
   78MOL0     H10241   6.452   7.319   7.348  0.8635  1.4512  0.0410
   78MOL0     H10242   6.551   7.319   7.487 -3.9303  0.5260  0.6977
   78MOL0     H10243   6.543   7.068   7.513 -3.0744 -0.7983  1.2472
   78MOL0     H10244   6.469   7.053   7.351 -1.0403  1.2460 -1.1642
   78MOL0     H10245   6.356   7.155   7.609 -0.1904  0.5700 -0.4655
   78MOL0     H10246   6.271   7.174   7.448  1.4688  0.8212 -1.1241
   78MOL0     H10247   6.381   6.925   7.581  1.3464  2.1022 -0.2922
   78MOL0     H10248   6.323   6.918   7.423  0.8064 -2.1184  1.4582
   78MOL0     H10249   6.138   7.130   7.700  1.0746 -0.5765 -0.9934
   78MOL0     H10250   5.781   6.983   7.753  0.1611  1.1486 -0.5596
   78MOL0     H10251   5.874   7.121   7.736 -3.0639  0.2156 -1.1415
   78MOL0     H10252   5.810   7.092   7.975 -1.3878  0.4546 -2.3943
   78MOL0     H10253   5.985   7.058   7.958  0.5595 -0.4880 -1.8250
   78MOL0     H10254   5.935   6.819   7.933 -1.1385  0.4123 -2.0030
   78MOL0     H10255   5.908   6.882   8.094 -1.8200  1.0343  0.8280
   78MOL0     H10256   5.719   6.742   8.038  0.1288  1.1758 -0.5515
   78MOL0     H10257   5.681   6.853   7.899  0.5730  2.7669  0.1794
   78MOL0     H10258   5.535   6.929   8.316 -1.3691  1.4460 -0.8061
   78MOL0     H10259   5.303   6.900   8.374  1.2099  2.4221  0.2424
   78MOL0     H10260   4.831   6.798   7.930 -0.5076  1.3492  0.4754
   78MOL0     H10261   4.609   6.663   7.951 -2.5028 -2.4358  3.1180
   78MOL0     H10262   4.485   6.561   8.360 -4.8121  0.3742  1.3527
   78MOL0     H10263   4.473   6.399   8.298  0.2585 -0.9884 -1.2592
   78MOL0     H10264   4.278   6.608   8.204 -0.6028  1.1868  1.0454
   78MOL0     H10265   4.253   6.533   8.363 -2.9815  0.0245 -1.6159
   78MOL0     H10266   4.283   6.311   8.228  1.5012  1.2697  1.3126
   78MOL0     H10267   4.266   6.405   8.078  2.5135  1.1532  0.9515
   78MOL0     H10268   4.043   6.384   8.278  3.1989 -1.1463  1.3943
   78MOL0     H10269   4.039   6.487   8.138 -0.5088 -1.6271 -1.2353
   78MOL0     H10270   4.103   6.187   8.116  0.4608 -1.0105 -0.1379
   78MOL0     H10271   4.068   6.311   7.988 -0.2393  2.7659  1.5156
   78MOL0     H10272   3.881   6.162   8.029 -0.1067 -0.9238  1.6430
   78MOL0     H10273   3.838   6.339   8.071 -1.7427  0.3950  1.5218
   78MOL0     H10274   3.921   6.111   8.274 -1.1046 -0.5925  1.7810
   78MOL0     H10275   3.868   6.273   8.301  1.4027  0.7029 -2.3101
   78MOL0     H10276   3.705   6.069   8.150 -1.5114 -1.6891  0.8205
   78MOL0     H10277   3.656   6.232   8.192  0.2758 -0.3576 -0.1272
   78MOL0     H10278   4.726   6.503   8.320  1.2965  2.2886  1.4099
   78MOL0     H10279   4.947   6.603   8.297 -0.5171  0.7016  2.1961
   78MOL0     H10280   5.225   6.818   7.955 -1.6963 -0.9355  1.0281
   78MOL0     H10281   5.476   6.838   7.907 -1.1801 -0.0828 -1.6171
   78MOL0     H10282   7.270   7.128   7.534 -0.1812  0.1921  0.4428
   78MOL0     H10283   7.472   7.248   7.460  2.1408 -0.2254 -2.4206
   78MOL0     H10284   7.694   7.530   7.334 -0.1184 -0.0783 -0.7632
   78MOL0     H10285   7.878   7.684   7.319 -0.9011  0.8318 -1.1643
   78MOL0     H10286   8.087   7.780   6.914  3.9752 -0.2450 -1.4845
   78MOL0     H10287   8.123   7.625   6.986  2.1679 -0.7084  1.3387
   78MOL0     H10288   8.270   7.706   7.138 -3.1947 -0.5955  0.5660
   78MOL0     H10289   8.309   7.755   6.975 -0.8536 -0.0223  0.0979
   78MOL0     H10290   8.216   7.922   7.228  1.2146 -0.0782  0.7221
   78MOL0     H10291   8.185   7.981   7.067 -0.7794 -1.3064 -0.3944
   78MOL0     H10292   8.459   7.911   7.202  0.6626 -0.0678 -0.5940
   78MOL0     H10293   8.449   7.986   7.043  2.3258 -1.6837  1.0567
   78MOL0     H10294   8.334   8.300   7.306  0.9579 -1.4882  2.7842
   78MOL0     H10295   7.908   7.618   6.899 -0.0692  1.1084 -0.5412
   78MOL0     H10296   7.716   7.465   6.912  4.7156 -1.1013 -0.2177
   79MOL0     O10297   9.370   8.715   5.661  0.1121 -0.0595  0.5082
   79MOL0     C10298   9.330   8.773   5.764  0.7661 -0.2769 -1.0122
   79MOL0     O10299   9.294   8.705   5.886  0.2665 -0.0752  0.2189
   79MOL0     C10300   9.290   8.569   5.874 -0.3633 -0.1963 -0.4195
   79MOL0     C10301   9.409   8.495   5.885 -0.1238 -0.1086  0.5448
   79MOL0     C10302   9.393   8.357   5.883 -0.2945  0.1048 -0.3712
   79MOL0     C10303   9.273   8.289   5.877 -0.2977 -0.2300  0.1006
   79MOL0     O10304   9.279   8.150   5.860 -0.5444 -0.1795  0.3834
   79MOL0     C10305   9.162   8.075   5.863 -0.6795  0.0960 -0.3152
   79MOL0     C10306   9.188   7.927   5.857  0.5224 -0.3132 -0.0325
   79MOL0     C10307   9.059   7.841   5.849  0.0459 -0.0365 -0.0103
   79MOL0     C10308   9.025   7.810   5.991 -0.3351 -0.2469  0.5531
   79MOL0     C10309   8.884   7.742   5.988  0.0486  0.6522  0.6747
   79MOL0     C10310   8.870   7.643   6.106 -0.6524 -0.0871 -0.5210
   79MOL0     C10311   8.752   7.542   6.108 -0.9159  0.3650  0.2634
   79MOL0     C10312   8.619   7.609   6.136  0.0558 -0.2284 -0.5634
   79MOL0     N10313   8.512   7.506   6.130 -0.1806  0.6701 -0.4807
   79MOL0     C10314   8.431   7.488   6.022  0.1162 -0.0422  0.5594
   79MOL0     C10315   8.365   7.368   6.053  0.3162 -0.9987  0.6614
   79MOL0     C10316   8.264   7.290   5.967 -0.8418 -0.0998 -0.2132
   79MOL0     C10317   8.305   7.305   5.819 -0.0886  0.1085  0.0161
   79MOL0     C10318   8.204   7.245   5.725  0.3832  0.1094  0.0466
   79MOL0     C10319   8.075   7.326   5.718 -0.8277 -0.0170  1.2907
   79MOL0     O10320   7.982   7.279   5.620 -0.3133  0.0064  1.1737
   79MOL0     C10321   7.872   7.358   5.586 -0.5729 -0.3536  0.4800
   79MOL0     C10322   7.865   7.431   5.467 -0.6780  0.0783  0.6166
   79MOL0     C10323   7.752   7.511   5.435 -0.0980 -0.5185  0.1709
   79MOL0     C10324   7.655   7.529   5.532  1.1784 -0.1501 -0.4209
   79MOL0     C10325   7.541   7.616   5.505 -0.2856 -0.1064  0.0461
   79MOL0     O10326   7.451   7.628   5.607  0.5313 -0.7984  0.0467
   79MOL0     C10327   7.331   7.698   5.593  0.2824 -0.0502  0.8683
   79MOL0     C10328   7.287   7.782   5.695 -0.2909 -0.4083  0.1794
   79MOL0     C10329   7.168   7.858   5.688 -0.1813 -0.5865  1.8110
   79MOL0     C10330   7.088   7.859   5.571  0.8179 -0.0575  0.7047
   79MOL0     O10331   6.978   7.936   5.544  0.4645 -0.5980  0.3987
   79MOL0     C10332   6.913   8.006   5.656  0.2185 -1.1389  0.2625
   79MOL0     C10333   6.811   7.916   5.729 -0.0771 -0.5102  0.2906
   79MOL0     C10334   6.701   7.996   5.804  0.1942  0.3267 -0.6476
   79MOL0     C10335   6.590   8.053   5.712  1.0019 -0.3797  0.2656
   79MOL0     C10336   6.451   8.092   5.766 -0.2830  0.2081 -0.6931
   79MOL0     C10337   6.367   7.963   5.806 -0.1124 -0.2435  0.1741
   79MOL0     C10338   6.226   7.979   5.863  0.5592 -0.8258 -0.7077
   79MOL0     C10339   6.128   8.043   5.780  0.1343  0.8249  1.0416
   79MOL0    Cl10340   6.110   7.977   5.615 -0.0592  1.0316  0.2420
   79MOL0     C10341   7.130   7.770   5.464  0.4663  0.0044 -0.5295
   79MOL0     C10342   7.247   7.694   5.477 -0.1583 -0.2910  0.2925
   79MOL0     O10343   7.522   7.661   5.390 -0.1162 -0.4644  0.2656
   79MOL0     C10344   7.663   7.460   5.659  0.2114 -0.5282  0.3042
   79MOL0     C10345   7.777   7.385   5.684  0.1455  0.5676 -0.0167
   79MOL0     N10346   8.418   7.323   6.179 -0.1672 -0.6071 -1.5967
   79MOL0     N10347   8.500   7.404   6.224  0.3388  0.0526  0.8113
   79MOL0     C10348   9.155   8.368   5.862 -0.1840  0.1123 -0.4059
   79MOL0     C10349   9.166   8.502   5.876  1.4548  0.6637 -1.0935
   79MOL0     C10350   9.324   8.915   5.745  0.2778  0.1972 -0.1202
   79MOL0     C10351   9.209   8.988   5.782  0.7041  0.6342 -0.3323
   79MOL0     C10352   9.203   9.123   5.778 -0.8385 -0.5561 -0.2748
   79MOL0     C10353   9.309   9.203   5.721 -0.0619  0.5898  0.0640
   79MOL0     O10354   9.312   9.341   5.699 -0.4166 -0.2287  0.9454
   79MOL0     C10355   9.194   9.420   5.732 -0.9238  0.4959  0.0877
   79MOL0     C10356   9.200   9.440   5.886  0.2142  0.4521 -0.6521
   79MOL0     C10357   9.070   9.500   5.933 -0.2164 -0.3652 -0.3623
   79MOL0     C10358   9.020   9.627   5.856 -0.7717  0.8762 -0.8055
   79MOL0     C10359   9.116   9.730   5.878  0.2197 -0.1366  0.7791
   79MOL0     C10360   9.213   9.798   5.908  0.3576 -1.4699 -0.3772
   79MOL0     C10361   9.421   9.128   5.674 -0.7655  0.8078 -0.6860
   79MOL0     C10362   9.434   8.989   5.688  0.1163 -0.4008 -0.9127
   79MOL0     H10363   9.499   8.555   5.879 -2.0212  2.8500 -0.5974
   79MOL0     H10364   9.487   8.305   5.873 -0.0292  0.8251 -1.8967
   79MOL0     H10365   9.114   8.110   5.771  1.5740  2.3197 -0.7484
   79MOL0     H10366   9.099   8.103   5.947  3.0856  6.2314  1.1126
   79MOL0     H10367   9.253   7.906   5.943  0.4818  0.4230  0.1814
   79MOL0     H10368   9.245   7.903   5.767 -0.7792 -0.3740 -0.8763
   79MOL0     H10369   9.085   7.744   5.807 -1.1864 -1.2428  1.8474
   79MOL0     H10370   8.967   7.886   5.808 -1.5181 -0.4078  2.8140
   79MOL0     H10371   9.097   7.745   6.042  0.4136 -0.1103 -0.3064
   79MOL0     H10372   9.017   7.902   6.050  2.0089 -0.9018  2.0245
   79MOL0     H10373   8.858   7.684   5.899 -0.0585 -0.2473  1.2756
   79MOL0     H10374   8.804   7.815   5.997 -0.1243  0.4955  0.4312
   79MOL0     H10375   8.869   7.709   6.193  0.5166 -1.3978  0.5424
   79MOL0     H10376   8.961   7.582   6.106  0.2625  1.2458 -0.9976
   79MOL0     H10377   8.749   7.507   6.004 -2.0861  1.3602 -0.0589
   79MOL0     H10378   8.768   7.454   6.171  1.1798 -0.9893 -1.9943
   79MOL0     H10379   8.597   7.693   6.070 -1.8003 -1.8220 -2.0994
   79MOL0     H10380   8.616   7.650   6.238 -2.4243 -0.7252 -0.3695
   79MOL0     H10381   8.421   7.552   5.935 -0.1195  1.5131  1.6991
   79MOL0     H10382   8.161   7.325   5.982 -0.7734 -0.7085  1.8587
   79MOL0     H10383   8.276   7.186   5.997 -0.8247 -0.4890 -1.5146
   79MOL0     H10384   8.408   7.268   5.820  0.0140  0.3697 -0.5338
   79MOL0     H10385   8.318   7.409   5.788 -3.5569  0.0121 -2.3461
   79MOL0     H10386   8.247   7.240   5.624  0.2514 -3.1550  0.0204
   79MOL0     H10387   8.184   7.141   5.755 -1.1121  0.5669  0.6765
   79MOL0     H10388   8.107   7.427   5.689 -0.1240 -0.7771 -0.7412
   79MOL0     H10389   8.024   7.326   5.815 -1.8660  1.4759  0.7828
   79MOL0     H10390   7.937   7.442   5.386 -1.4376  1.5015  0.1007
   79MOL0     H10391   7.760   7.562   5.340  1.6176  2.9133  1.9442
   79MOL0     H10392   7.346   7.794   5.786  1.6725 -1.2740 -0.9119
   79MOL0     H10393   7.137   7.927   5.766 -3.3257  0.8099 -0.4246
   79MOL0     H10394   6.859   8.093   5.619  1.6693  0.1569  1.0460
   79MOL0     H10395   6.988   8.054   5.720  1.5363  0.5159 -2.3569
   79MOL0     H10396   6.862   7.851   5.801 -0.1691  0.2768  1.0960
   79MOL0     H10397   6.774   7.860   5.643  0.2898 -3.4723  1.9128
   79MOL0     H10398   6.733   8.081   5.863  0.0718 -1.0310  1.4855
   79MOL0     H10399   6.665   7.918   5.871  1.5300 -0.9727 -1.3763
   79MOL0     H10400   6.625   8.143   5.660 -3.3276  2.2888  1.4655
   79MOL0     H10401   6.565   7.982   5.633  1.0036 -0.5201  0.3920
   79MOL0     H10402   6.395   8.144   5.687 -3.0231 -0.6362  0.5717
   79MOL0     H10403   6.461   8.154   5.856 -0.6071 -2.7537  1.5393
   79MOL0     H10404   6.432   7.902   5.870  3.2905  0.3454 -2.4356
   79MOL0     H10405   6.364   7.894   5.720 -1.3297 -0.0018 -0.0012
   79MOL0     H10406   6.186   7.879   5.883 -0.1701 -0.9850 -2.7566
   79MOL0     H10407   6.230   8.036   5.956  1.3863 -2.9442  0.6342
   79MOL0     H10408   6.155   8.147   5.761  1.6096  0.0168 -1.8680
   79MOL0     H10409   6.030   8.038   5.828 -0.7761  2.5622 -0.5184
   79MOL0     H10410   7.080   7.763   5.368  1.3815  1.1053 -1.1126
   79MOL0     H10411   7.283   7.627   5.400  2.1017  2.5110 -1.3151
   79MOL0     H10412   7.592   7.463   5.742 -2.2787 -1.1108 -1.6911
   79MOL0     H10413   7.780   7.340   5.783  0.9263  1.9279  0.6125
   79MOL0     H10414   9.060   8.318   5.846 -0.3063 -0.3799  1.6426
   79MOL0     H10415   9.077   8.562   5.860  1.1137 -0.1211 -2.2532
   79MOL0     H10416   9.128   8.939   5.835  3.2692 -7.1898 -2.3122
   79MOL0     H10417   9.113   9.178   5.806 -0.5162  0.0500 -0.4015
   79MOL0     H10418   9.109   9.359   5.701  0.3799 -0.6724 -1.3345
   79MOL0     H10419   9.206   9.519   5.688  1.6148  1.5786  2.8606
   79MOL0     H10420   9.201   9.349   5.947 -2.5615  1.8551  1.7418
   79MOL0     H10421   9.290   9.497   5.911  2.0634 -1.6049 -2.1799
   79MOL0     H10422   9.066   9.525   6.040  0.0733 -0.8409 -0.2383
   79MOL0     H10423   8.997   9.419   5.931 -2.4530  1.1808  4.1801
   79MOL0     H10424   9.006   9.603   5.750  1.5573  0.3289 -1.0475
   79MOL0     H10425   8.927   9.662   5.901 -0.2406  1.3358 -0.0458
   79MOL0     H10426   9.299   9.860   5.928  1.5569 -2.6027 -1.7787
   79MOL0     H10427   9.486   9.185   5.608 -0.5838  1.4947  0.0697
   79MOL0     H10428   9.524   8.942   5.649 -0.1757 -0.5004 -1.4809
   80MOL0     O10429   1.775   2.153   0.102 -0.3887  0.0930 -0.7148
   80MOL0     C10430   1.809   2.053   0.046  0.2920  0.3547 -0.3033
   80MOL0     O10431   1.739   1.940   0.034 -0.3338 -0.4483 -0.0257
   80MOL0     C10432   1.616   1.929   0.092 -0.1637 -0.0954  0.2402
   80MOL0     C10433   1.598   1.834   0.197  0.3173 -0.3204 -0.1224
   80MOL0     C10434   1.469   1.819   0.258 -0.0298  1.0571  0.2715
   80MOL0     C10435   1.360   1.890   0.223  0.3753 -1.3196  0.2784
   80MOL0     O10436   1.237   1.867   0.288 -0.5978 -0.1041  1.1789
   80MOL0     C10437   1.126   1.808   0.222 -0.0943  0.3412 -0.0637
   80MOL0     C10438   0.997   1.859   0.282  1.5530  0.1402  0.6754
   80MOL0     C10439   0.878   1.780   0.215 -0.9827 -0.0663 -0.4310
   80MOL0     C10440   0.745   1.840   0.254  0.2223 -0.2695 -0.4029
   80MOL0     C10441   0.634   1.776   0.175  0.9154 -0.3040  0.1235
   80MOL0     C10442   0.503   1.854   0.177  0.2093 -0.2121 -0.3770
   80MOL0     C10443   0.396   1.764   0.127  0.1093  0.1353  1.1105
   80MOL0     C10444   0.268   1.840   0.094 -0.3620  0.0621  0.0628
   80MOL0     N10445   0.148   1.748   0.091 -0.2879  0.0024 -0.1709
   80MOL0     C10446   0.125   1.660  -0.013 -0.3547 -0.2539 -0.5605
   80MOL0     C10447  -0.000   1.613   0.011  0.0020 -0.7058 -0.0653
   80MOL0     C10448  -0.071   1.533  -0.089 -0.6667 -0.3154  0.3954
   80MOL0     C10449  -0.126   1.406  -0.025 -0.5315 -0.0984  0.6020
   80MOL0     C10450  -0.185   1.302  -0.121 -1.1644 -0.1761 -0.0122
   80MOL0     C10451  -0.328   1.345  -0.170 -0.4485 -0.0126  0.0951
   80MOL0     O10452  -0.368   1.250  -0.270 -0.2505 -0.2373  0.1436
   80MOL0     C10453  -0.496   1.256  -0.323 -0.0018 -0.6339 -1.2456
   80MOL0     C10454  -0.587   1.359  -0.297  0.2963 -0.1793 -0.6035
   80MOL0     C10455  -0.716   1.355  -0.350  0.2997  0.0054 -0.1348
   80MOL0     C10456  -0.768   1.249  -0.422 -0.2580 -0.3691  0.1133
   80MOL0     C10457  -0.914   1.247  -0.458 -0.0799  0.1475  0.6952
   80MOL0     O10458  -0.957   1.190  -0.582 -0.1774  0.1223 -0.1062
   80MOL0     C10459  -1.086   1.188  -0.622 -0.0802 -1.0741  0.1693
   80MOL0     C10460  -1.176   1.092  -0.581 -0.1259 -0.2404 -0.2018
   80MOL0     C10461  -1.309   1.099  -0.619 -0.2343 -0.3876  0.0173
   80MOL0     C10462  -1.345   1.203  -0.707  0.0075 -0.4103  0.4916
   80MOL0     O10463  -1.470   1.200  -0.759 -0.1322  0.2974 -0.3209
   80MOL0     C10464  -1.509   1.285  -0.866 -0.2170 -0.2596 -0.8288
   80MOL0     C10465  -1.620   1.208  -0.938  0.7572  0.0648 -0.5024
   80MOL0     C10466  -1.758   1.236  -0.865 -0.7813 -0.2249 -0.5114
   80MOL0     C10467  -1.861   1.141  -0.921 -0.0075  0.2473 -0.3786
   80MOL0     C10468  -2.009   1.172  -0.866 -0.5310 -0.0722  0.0336
   80MOL0     C10469  -2.114   1.132  -0.968 -0.7896  0.3976  0.0618
   80MOL0     C10470  -2.255   1.172  -0.923  0.2152 -0.6385  0.8554
   80MOL0     C10471  -2.344   1.057  -0.863 -0.3224 -0.1766 -0.3636
   80MOL0    Cl10472  -2.400   0.946  -0.994  0.2898 -0.1371  0.2060
   80MOL0     C10473  -1.256   1.307  -0.735 -0.0441 -0.7509  0.4937
   80MOL0     C10474  -1.129   1.301  -0.690  0.1256 -0.4597  0.7941
   80MOL0     O10475  -0.989   1.312  -0.388 -0.8396  0.0307  0.0481
   80MOL0     C10476  -0.675   1.140  -0.449  1.4661 -0.8038  0.1602
   80MOL0     C10477  -0.541   1.141  -0.394  0.7754  0.4042 -0.5947
   80MOL0     N10478  -0.050   1.660   0.124  0.0112 -0.0661  0.6678
   80MOL0     N10479   0.043   1.741   0.176 -0.3926  0.0210  0.4939
   80MOL0     C10480   1.380   1.978   0.115 -0.2108  1.0945 -0.4327
   80MOL0     C10481   1.502   2.004   0.052 -0.4691  0.2287  0.7622
   80MOL0     C10482   1.940   2.067  -0.015 -0.7398  0.5480  0.1338
   80MOL0     C10483   2.008   2.191  -0.014 -0.2355  0.2004  1.2568
   80MOL0     C10484   2.133   2.194  -0.078  0.2084 -0.7663 -0.1731
   80MOL0     C10485   2.187   2.091  -0.147 -0.7726 -0.0855 -0.1692
   80MOL0     O10486   2.314   2.117  -0.209  0.2372  0.4138  0.3245
   80MOL0     C10487   2.355   2.027  -0.309  0.6722  0.2688 -0.7243
   80MOL0     C10488   2.490   2.070  -0.369 -0.3149  0.2558 -0.5164
   80MOL0     C10489   2.520   1.984  -0.491  0.9747 -0.2003 -0.3077
   80MOL0     C10490   2.634   2.040  -0.579 -0.0961  0.7311  0.2794
   80MOL0     C10491   2.586   2.124  -0.689  0.5662 -0.0910 -1.3606
   80MOL0     C10492   2.553   2.197  -0.780  0.0033 -0.2408 -0.0992
   80MOL0     C10493   2.116   1.972  -0.147 -0.0020  0.0553  0.2586
   80MOL0     C10494   1.999   1.959  -0.072  0.0449  0.3582  0.5126
   80MOL0     H10495   1.673   1.771   0.244 -1.5348 -1.7000  1.0920
   80MOL0     H10496   1.466   1.745   0.338 -1.2171  0.3518 -0.4023
   80MOL0     H10497   1.135   1.701   0.244  2.1294  0.0418 -2.0841
   80MOL0     H10498   1.126   1.832   0.115  2.2156  1.0972  0.0594
   80MOL0     H10499   0.995   1.967   0.266  1.7775  0.1105  0.4409
   80MOL0     H10500   0.986   1.839   0.390  0.3009  2.2748  0.9806
   80MOL0     H10501   0.872   1.677   0.252 -2.4030 -0.2133 -0.9724
   80MOL0     H10502   0.897   1.781   0.107  1.0794 -2.7717 -0.1900
   80MOL0     H10503   0.732   1.835   0.363 -2.8157 -2.0762 -0.7529
   80MOL0     H10504   0.744   1.944   0.220  3.3200  0.2533  0.7706
   80MOL0     H10505   0.614   1.678   0.220 -2.0733  0.6272  1.0500
   80MOL0     H10506   0.662   1.768   0.070 -2.7707 -2.8015 -0.8547
   80MOL0     H10507   0.508   1.940   0.110  1.7198 -0.4115 -0.5617
   80MOL0     H10508   0.488   1.892   0.279  2.5680 -0.5165  0.1458
   80MOL0     H10509   0.430   1.725   0.030  2.7506  2.1585  1.0902
   80MOL0     H10510   0.378   1.681   0.195 -2.1873 -2.1387 -1.9684
   80MOL0     H10511   0.286   1.882  -0.006 -0.6296  1.0817  0.4374
   80MOL0     H10512   0.254   1.912   0.175 -0.1277 -2.5631  2.6085
   80MOL0     H10513   0.193   1.636  -0.094 -0.7707 -2.3797 -0.3332
   80MOL0     H10514  -0.004   1.520  -0.174 -2.1566  0.0121 -0.8785
   80MOL0     H10515  -0.160   1.588  -0.121 -1.2338 -0.3054  1.9086
   80MOL0     H10516  -0.192   1.430   0.059 -1.2262 -0.9055  0.2971
   80MOL0     H10517  -0.042   1.344   0.006 -0.9317 -1.1805 -0.3763
   80MOL0     H10518  -0.128   1.295  -0.213 -0.5560  1.2101  0.2295
   80MOL0     H10519  -0.186   1.201  -0.078 -3.5977  0.5431  1.8698
   80MOL0     H10520  -0.334   1.449  -0.205  0.5476  0.0495  0.0789
   80MOL0     H10521  -0.391   1.332  -0.082 -1.1910  0.2588 -0.3791
   80MOL0     H10522  -0.561   1.443  -0.234  2.6263  1.0768 -3.0567
   80MOL0     H10523  -0.789   1.431  -0.324  2.1004  2.0302 -0.6966
   80MOL0     H10524  -1.149   1.009  -0.516  1.4166  0.9731  0.7809
   80MOL0     H10525  -1.387   1.031  -0.585 -0.7610  0.9543  1.6522
   80MOL0     H10526  -1.424   1.280  -0.934 -0.2791 -0.4597 -0.8923
   80MOL0     H10527  -1.543   1.385  -0.837  2.6267  0.6787 -0.4202
   80MOL0     H10528  -1.598   1.101  -0.933  0.7272  0.0187 -1.3075
   80MOL0     H10529  -1.619   1.238  -1.043  1.2925  1.0813 -0.2234
   80MOL0     H10530  -1.790   1.338  -0.886 -1.9400 -0.7531 -1.4034
   80MOL0     H10531  -1.743   1.216  -0.758  3.4049  1.5145 -0.5874
   80MOL0     H10532  -1.864   1.148  -1.030  0.0390 -2.8872 -0.6510
   80MOL0     H10533  -1.836   1.039  -0.891  2.0328  1.9620  5.0125
   80MOL0     H10534  -2.002   1.281  -0.860 -0.8420  0.2531 -3.5179
   80MOL0     H10535  -2.028   1.133  -0.765  0.7936  0.4717  0.5242
   80MOL0     H10536  -2.098   1.025  -0.987  1.9098  0.6741  0.4390
   80MOL0     H10537  -2.089   1.175  -1.065 -2.9538 -1.9541 -1.7053
   80MOL0     H10538  -2.260   1.258  -0.856 -2.0402 -1.1922  1.4643
   80MOL0     H10539  -2.317   1.207  -1.006  0.5035 -0.2252  0.8101
   80MOL0     H10540  -2.429   1.098  -0.808  1.3729  1.6859  1.0285
   80MOL0     H10541  -2.282   0.998  -0.794  0.5864 -1.6156 -2.3179
   80MOL0     H10542  -1.288   1.388  -0.799 -1.0561  0.3713  2.3330
   80MOL0     H10543  -1.054   1.370  -0.727  1.9705 -4.1762 -3.3864
   80MOL0     H10544  -0.715   1.057  -0.506  0.3346 -0.5731  0.5996
   80MOL0     H10545  -0.479   1.054  -0.411 -1.2691 -0.9384 -1.4657
   80MOL0     H10546   1.299   2.039   0.075  1.6406  2.7746 -1.8325
   80MOL0     H10547   1.520   2.082  -0.020 -0.6028  1.4255  1.9895
   80MOL0     H10548   1.985   2.285   0.037  2.6117  0.8221  1.5651
   80MOL0     H10549   2.194   2.283  -0.085  0.2351 -0.1656  4.5320
   80MOL0     H10550   2.275   2.029  -0.383  1.0498  0.3776 -1.1382
   80MOL0     H10551   2.355   1.923  -0.276 -1.4412  0.4370 -0.1120
   80MOL0     H10552   2.471   2.176  -0.390  1.1835  0.3765 -1.4115
   80MOL0     H10553   2.574   2.078  -0.300  0.6710  2.0654 -1.8402
   80MOL0     H10554   2.430   1.970  -0.550  0.4112  0.9876  0.2316
   80MOL0     H10555   2.549   1.885  -0.456  0.5543 -0.6162 -1.1202
   80MOL0     H10556   2.711   2.085  -0.515 -1.5874  0.3812  2.4284
   80MOL0     H10557   2.679   1.952  -0.627  1.7364  1.0001  1.3787
   80MOL0     H10558   2.501   2.266  -0.844 -1.8479 -1.1166  0.3858
   80MOL0     H10559   2.147   1.886  -0.205  0.5186  1.1361 -1.1047
   80MOL0     H10560   1.939   1.868  -0.072  1.7811 -0.8607 -1.2267
   81MOL0     O10561   2.772   5.909   2.351 -0.5584  0.5283 -0.7099
   81MOL0     C10562   2.710   5.996   2.292 -0.0843  0.8944  1.0460
   81MOL0     O10563   2.581   5.983   2.241  0.5580 -1.2598 -0.0880
   81MOL0     C10564   2.491   5.886   2.275 -0.1726  0.3211 -1.3902
   81MOL0     C10565   2.426   5.899   2.402  0.4401  0.3405  0.1050
   81MOL0     C10566   2.339   5.791   2.441 -0.4444 -0.3857 -0.0002
   81MOL0     C10567   2.326   5.679   2.364 -0.5639 -0.8448  0.9692
   81MOL0     O10568   2.247   5.581   2.414 -0.4291 -0.1472  0.1941
   81MOL0     C10569   2.192   5.486   2.320  0.0025  0.5692 -0.1651
   81MOL0     C10570   2.104   5.385   2.401  0.3497  0.5413  0.3415
   81MOL0     C10571   2.036   5.287   2.298  1.1107 -0.1927 -0.3514
   81MOL0     C10572   1.985   5.170   2.374 -0.2659 -0.4538  0.1783
   81MOL0     C10573   1.909   5.075   2.276 -0.4108 -0.2371  0.0780
   81MOL0     C10574   1.925   4.929   2.330 -0.1238  0.2987 -0.3302
   81MOL0     C10575   1.899   4.806   2.230  0.0225  0.2495 -0.6652
   81MOL0     C10576   1.742   4.798   2.196  0.7224 -0.0285 -0.6249
   81MOL0     N10577   1.678   4.715   2.303  0.1381 -0.4984 -0.8199
   81MOL0     C10578   1.588   4.770   2.391 -0.7954  0.1699  0.1399
   81MOL0     C10579   1.553   4.671   2.475 -0.2714 -0.0469  0.9747
   81MOL0     C10580   1.439   4.691   2.579  0.1538  0.5384 -0.4369
   81MOL0     C10581   1.351   4.563   2.611 -0.4266 -0.3678 -0.1731
   81MOL0     C10582   1.271   4.530   2.484  0.1640  0.2090  0.1235
   81MOL0     C10583   1.189   4.405   2.516 -0.3202 -0.8512  0.4632
   81MOL0     O10584   1.131   4.371   2.389  0.5806  0.3293  0.6049
   81MOL0     C10585   1.002   4.332   2.398  0.7045  0.1023  0.0281
   81MOL0     C10586   0.894   4.375   2.312 -0.8983  0.5202  0.6289
   81MOL0     C10587   0.769   4.312   2.312  0.0740  1.2041 -0.8180
   81MOL0     C10588   0.740   4.211   2.410 -1.3883 -0.0249 -0.1874
   81MOL0     C10589   0.604   4.155   2.431  0.5421  0.0807 -1.2297
   81MOL0     O10590   0.524   4.146   2.326  0.1233 -0.8015  0.0172
   81MOL0     C10591   0.393   4.120   2.348 -0.1761  0.0800  0.4921
   81MOL0     C10592   0.334   4.030   2.261  0.2983 -0.1097 -0.6805
   81MOL0     C10593   0.200   3.999   2.282  0.2312  0.3121  0.4660
   81MOL0     C10594   0.124   4.063   2.377  0.9009 -0.0160  0.8781
   81MOL0     O10595  -0.017   4.046   2.391 -0.5684  0.1601 -0.2313
   81MOL0     C10596  -0.084   3.968   2.288 -0.0952 -0.5181 -0.3444
   81MOL0     C10597  -0.231   3.993   2.281 -0.2821 -0.7153 -0.8160
   81MOL0     C10598  -0.306   3.908   2.179 -0.7168 -0.7210  0.1275
   81MOL0     C10599  -0.449   3.947   2.151 -0.7467 -0.9521 -0.4552
   81MOL0     C10600  -0.532   3.972   2.276 -0.7364 -0.2365  0.1059
   81MOL0     C10601  -0.675   3.976   2.247  0.5928 -0.4046  0.5262
   81MOL0     C10602  -0.757   4.053   2.348  0.6492 -0.4920  0.1419
   81MOL0     C10603  -0.756   4.202   2.323 -0.2097 -0.2025 -0.5915
   81MOL0    Cl10604  -0.836   4.248   2.173 -0.5693  0.1469 -0.0652
   81MOL0     C10605   0.183   4.150   2.461  0.4633 -0.5085 -0.4025
   81MOL0     C10606   0.316   4.184   2.447  0.2944  0.6922  0.2040
   81MOL0     O10607   0.571   4.122   2.549  0.1495  0.1669  0.4706
   81MOL0     C10608   0.852   4.169   2.495 -0.3556  0.4441 -0.2199
   81MOL0     C10609   0.976   4.226   2.484  1.0189 -0.7695  0.2244
   81MOL0     N10610   1.628   4.557   2.439  0.0753 -0.2339 -0.3505
   81MOL0     N10611   1.694   4.586   2.333  0.3619 -0.3435  0.4192
   81MOL0     C10612   2.392   5.673   2.236  1.0504 -0.6004 -0.1890
   81MOL0     C10613   2.473   5.779   2.196  0.1044 -0.3596  0.8674
   81MOL0     C10614   2.775   6.134   2.265 -0.2072  0.3707  0.5600
   81MOL0     C10615   2.720   6.239   2.192  0.4223  0.0543  0.2421
   81MOL0     C10616   2.773   6.369   2.186  0.2795  0.4309  0.2292
   81MOL0     C10617   2.891   6.401   2.242  0.1685  0.8746  0.0112
   81MOL0     O10618   2.942   6.526   2.213 -0.5954  0.4393 -0.4870
   81MOL0     C10619   3.021   6.597   2.318  0.3069 -0.1875 -0.0404
   81MOL0     C10620   2.945   6.628   2.450  0.6832 -0.2572  0.7356
   81MOL0     C10621   2.830   6.729   2.422  0.6576  0.1154 -0.2354
   81MOL0     C10622   2.744   6.733   2.549 -0.0986  0.4691 -0.1294
   81MOL0     C10623   2.666   6.608   2.570 -0.3525  0.5127  0.0630
   81MOL0     C10624   2.589   6.512   2.584 -0.7820  0.1043 -0.4483
   81MOL0     C10625   2.950   6.300   2.319 -0.2824 -0.5236  0.4990
   81MOL0     C10626   2.899   6.166   2.330 -0.0995  0.9334 -0.3859
   81MOL0     H10627   2.434   5.988   2.464 -0.7991  0.3660  0.2533
   81MOL0     H10628   2.297   5.793   2.541  1.2321 -1.3027  0.7747
   81MOL0     H10629   2.279   5.435   2.278  0.0067 -0.2427  0.7876
   81MOL0     H10630   2.124   5.536   2.251 -2.0486 -2.2251 -0.3183
   81MOL0     H10631   2.025   5.439   2.455 -0.4725 -1.1912  0.9427
   81MOL0     H10632   2.167   5.344   2.480  0.2799 -0.5387 -0.1453
   81MOL0     H10633   2.111   5.258   2.224  3.1590  0.8989  1.2003
   81MOL0     H10634   1.957   5.339   2.243  0.7436 -1.5994 -1.2008
   81MOL0     H10635   2.067   5.125   2.431  2.7217  2.3449 -1.5222
   81MOL0     H10636   1.914   5.207   2.449 -0.3260  2.8196 -1.3240
   81MOL0     H10637   1.942   5.076   2.172  0.2827 -2.4086  0.2246
   81MOL0     H10638   1.803   5.102   2.275 -1.4177 -3.6564 -1.1675
   81MOL0     H10639   1.873   4.907   2.424 -0.0213 -1.2271 -0.5934
   81MOL0     H10640   2.028   4.923   2.365 -0.7425 -3.7784  1.3776
   81MOL0     H10641   1.957   4.824   2.139 -0.1990 -1.6841 -1.2255
   81MOL0     H10642   1.942   4.716   2.274 -0.5370  0.4466  0.3008
   81MOL0     H10643   1.723   4.741   2.105  1.7225 -0.9609 -0.2663
   81MOL0     H10644   1.696   4.895   2.177 -0.8275 -0.8604 -1.3673
   81MOL0     H10645   1.558   4.875   2.391  1.5179  0.8873 -0.1010
   81MOL0     H10646   1.365   4.768   2.552 -3.8342 -2.0206  2.1001
   81MOL0     H10647   1.489   4.719   2.672  0.0163 -0.5861 -0.0067
   81MOL0     H10648   1.288   4.587   2.697  0.2861 -0.4450  0.3909
   81MOL0     H10649   1.408   4.472   2.630 -0.6959 -0.4111  0.4638
   81MOL0     H10650   1.203   4.612   2.461 -0.9256 -1.0411 -1.2721
   81MOL0     H10651   1.338   4.515   2.399  1.8103 -0.0504  1.3925
   81MOL0     H10652   1.116   4.426   2.594  1.7403 -1.1172  2.5902
   81MOL0     H10653   1.254   4.323   2.549 -2.1602 -2.2614  0.7522
   81MOL0     H10654   0.916   4.459   2.246  0.4852 -1.7329 -1.9778
   81MOL0     H10655   0.692   4.351   2.246 -1.2179 -0.2181 -0.2077
   81MOL0     H10656   0.385   3.972   2.184  0.1059 -2.3330  0.7853
   81MOL0     H10657   0.173   3.932   2.201 -0.8721  1.4923 -0.1611
   81MOL0     H10658  -0.056   3.862   2.292  2.6212 -0.1253 -3.9068
   81MOL0     H10659  -0.044   4.004   2.193  1.4749 -0.3985  0.3219
   81MOL0     H10660  -0.256   4.099   2.266 -1.1137 -0.6599  0.7960
   81MOL0     H10661  -0.273   3.959   2.376 -0.4939  0.1076 -0.6034
   81MOL0     H10662  -0.292   3.801   2.200  2.8154 -0.6498 -1.1660
   81MOL0     H10663  -0.249   3.926   2.088  0.9686 -0.1370  1.2373
   81MOL0     H10664  -0.438   4.035   2.088 -2.3673 -1.4338 -1.4695
   81MOL0     H10665  -0.492   3.860   2.101 -0.7794 -3.2830  3.2017
   81MOL0     H10666  -0.508   4.076   2.298 -2.7661 -0.0218  1.4907
   81MOL0     H10667  -0.505   3.909   2.361  2.1891  0.4745 -0.1851
   81MOL0     H10668  -0.719   3.878   2.225 -0.5490  0.3715 -0.7990
   81MOL0     H10669  -0.682   4.025   2.150 -1.2704  1.6486  1.6136
   81MOL0     H10670  -0.859   4.015   2.343  0.3198 -0.0648  2.3104
   81MOL0     H10671  -0.727   4.031   2.451  1.9613  0.1189 -0.0825
   81MOL0     H10672  -0.657   4.244   2.304  0.7634 -1.6372  1.0032
   81MOL0     H10673  -0.812   4.259   2.396  0.9671 -1.2962  1.2384
   81MOL0     H10674   0.110   4.193   2.529  0.1414 -1.0060 -0.4248
   81MOL0     H10675   0.367   4.254   2.513 -0.3514  1.2220  0.1597
   81MOL0     H10676   0.845   4.087   2.565  0.0062  1.0036  0.4888
   81MOL0     H10677   1.044   4.185   2.558  1.6541  1.6149  1.0363
   81MOL0     H10678   2.362   5.594   2.168 -0.0527  0.2398 -0.7093
   81MOL0     H10679   2.525   5.766   2.102  0.0107  1.2632  0.5542
   81MOL0     H10680   2.628   6.231   2.137 -0.5967 -0.0500  1.8948
   81MOL0     H10681   2.722   6.448   2.131  1.0430  1.3375  0.7864
   81MOL0     H10682   3.063   6.688   2.275  1.7829 -1.1445 -0.7197
   81MOL0     H10683   3.106   6.535   2.349  0.1176 -0.6530 -0.4223
   81MOL0     H10684   2.901   6.532   2.479 -0.0290 -0.3420 -0.5759
   81MOL0     H10685   3.009   6.676   2.525 -0.3462  1.2493  0.6943
   81MOL0     H10686   2.769   6.684   2.344 -0.0615 -0.9121  0.9001
   81MOL0     H10687   2.855   6.834   2.401 -1.0900  1.0247  1.8500
   81MOL0     H10688   2.811   6.739   2.636 -0.0234  1.5015 -0.2367
   81MOL0     H10689   2.680   6.822   2.550 -1.2513 -0.2781 -2.1864
   81MOL0     H10690   2.526   6.428   2.606 -0.3444  0.6222  3.6153
   81MOL0     H10691   3.045   6.324   2.367  0.6641  3.0529 -2.6856
   81MOL0     H10692   2.948   6.087   2.386 -1.6718  1.0524  1.2532
   82MOL0     O10693   2.207   7.494   5.606 -0.2951 -0.1184  0.2790
   82MOL0     C10694   2.213   7.588   5.681  0.1045  0.6284 -0.7256
   82MOL0     O10695   2.109   7.652   5.741 -0.2740  0.1989  0.6066
   82MOL0     C10696   1.978   7.618   5.741  1.4475  0.3805 -0.1535
   82MOL0     C10697   1.919   7.519   5.665 -0.0789 -0.2025 -0.6470
   82MOL0     C10698   1.785   7.506   5.666 -0.0053 -0.3398  0.1558
   82MOL0     C10699   1.705   7.587   5.745  0.4283 -0.1457  0.2474
   82MOL0     O10700   1.570   7.578   5.754  0.8130 -0.1895 -0.9464
   82MOL0     C10701   1.504   7.455   5.727  0.5032  0.5376  0.2143
   82MOL0     C10702   1.366   7.476   5.652 -0.3485 -0.1619 -0.6909
   82MOL0     C10703   1.257   7.373   5.681  1.0484  0.1947 -0.1860
   82MOL0     C10704   1.291   7.240   5.599 -0.0844 -0.7533 -0.5225
   82MOL0     C10705   1.187   7.144   5.587  0.5918  0.5499  0.5610
   82MOL0     C10706   1.055   7.194   5.511 -0.0493  0.2697  0.2070
   82MOL0     C10707   0.950   7.088   5.482 -0.0643  0.7066  0.1071
   82MOL0     C10708   0.885   7.030   5.610  0.7049 -0.0144 -0.1337
   82MOL0     N10709   0.766   6.946   5.579 -0.1303 -0.7586 -0.5220
   82MOL0     C10710   0.725   6.894   5.459 -0.1802 -0.0105 -0.2724
   82MOL0     C10711   0.627   6.809   5.491  0.1774  0.1913 -0.6146
   82MOL0     C10712   0.569   6.715   5.385 -0.9348 -0.0447 -0.0950
   82MOL0     C10713   0.475   6.764   5.280 -0.2622 -0.5434 -0.3414
   82MOL0     C10714   0.336   6.802   5.340 -0.6901 -0.2169  0.1687
   82MOL0     C10715   0.227   6.842   5.235  0.0065 -0.4331 -0.0258
   82MOL0     O10716   0.105   6.769   5.249 -0.3783 -0.8504 -0.6907
   82MOL0     C10717  -0.002   6.804   5.170 -0.7052  0.6949 -0.0842
   82MOL0     C10718  -0.113   6.724   5.196 -0.4739  0.1778 -0.4033
   82MOL0     C10719  -0.221   6.732   5.116 -0.1830 -0.1462  0.2705
   82MOL0     C10720  -0.236   6.836   5.023 -0.0924  0.2122 -0.0096
   82MOL0     C10721  -0.355   6.859   4.942  0.5367  0.7411  0.5037
   82MOL0     O10722  -0.466   6.820   5.021  0.1465 -0.2514 -0.3076
   82MOL0     C10723  -0.600   6.838   5.001  0.5653  0.1198 -0.4352
   82MOL0     C10724  -0.677   6.829   5.109  0.1587 -0.0374 -0.6625
   82MOL0     C10725  -0.811   6.850   5.091 -0.2815  0.4072  0.3304
   82MOL0     C10726  -0.865   6.874   4.962 -0.0628  0.2366 -0.0976
   82MOL0     O10727  -1.003   6.898   4.942 -0.0901  0.1912 -0.6590
   82MOL0     C10728  -1.067   6.822   4.841 -0.0312  0.7476 -1.1221
   82MOL0     C10729  -1.224   6.830   4.853 -1.0005 -1.0828 -0.1316
   82MOL0     C10730  -1.287   6.742   4.951 -0.4442 -0.2698  0.5246
   82MOL0     C10731  -1.441   6.765   4.956  0.0600 -0.0319 -0.8673
   82MOL0     C10732  -1.515   6.693   4.851  0.5987  1.1082  0.5330
   82MOL0     C10733  -1.666   6.692   4.877 -0.1622  0.7142 -0.2531
   82MOL0     C10734  -1.728   6.827   4.862  0.7027  0.1845 -1.1535
   82MOL0     C10735  -1.879   6.837   4.894 -0.7363 -0.2638  0.1881
   82MOL0    Cl10736  -1.970   6.717   4.787  0.8556 -0.1118 -0.2605
   82MOL0     C10737  -0.779   6.883   4.850 -0.4416 -0.3551  0.8964
   82MOL0     C10738  -0.640   6.864   4.870  0.0922  0.0335  0.1208
   82MOL0     O10739  -0.362   6.905   4.829  0.6839 -0.1036  0.2120
   82MOL0     C10740  -0.121   6.915   4.996 -0.6045 -0.1517  0.7285
   82MOL0     C10741  -0.003   6.897   5.066  0.3847  0.2712  0.4053
   82MOL0     N10742   0.602   6.813   5.624 -0.3994 -0.4842  0.5487
   82MOL0     N10743   0.684   6.900   5.682 -0.7387 -0.3277  0.1401
   82MOL0     C10744   1.763   7.683   5.825 -1.0413 -0.3469  0.3910
   82MOL0     C10745   1.898   7.699   5.828 -0.9599 -0.0981 -0.9792
   82MOL0     C10746   2.338   7.652   5.713  0.5720 -0.0564 -0.3512
   82MOL0     C10747   2.350   7.777   5.779 -0.4427 -0.3310 -0.7000
   82MOL0     C10748   2.481   7.832   5.794  0.4163 -0.5012 -0.1427
   82MOL0     C10749   2.600   7.756   5.771  0.2596  0.3797 -0.3659
   82MOL0     O10750   2.727   7.793   5.806  0.6858 -0.3475  0.3717
   82MOL0     C10751   2.744   7.922   5.872  0.2724  0.4682 -0.0946
   82MOL0     C10752   2.888   7.935   5.905 -0.2206  0.1051  0.2799
   82MOL0     C10753   2.926   8.072   5.964 -0.3377 -0.7363  0.2819
   82MOL0     C10754   3.050   8.065   6.048 -0.2578 -0.4627 -0.7192
   82MOL0     C10755   3.102   8.204   6.071 -0.8909  0.5041 -0.7053
   82MOL0     C10756   3.141   8.315   6.107  0.4685  0.5939  1.2460
   82MOL0     C10757   2.584   7.632   5.710  0.2615 -0.2091 -0.3740
   82MOL0     C10758   2.461   7.587   5.680  0.3620  0.3208 -0.3746
   82MOL0     H10759   1.974   7.457   5.596  0.1514  1.4522 -2.0214
   82MOL0     H10760   1.759   7.419   5.606 -0.5147 -3.6333  4.5791
   82MOL0     H10761   1.466   7.417   5.821 -1.0954 -0.0842 -0.6520
   82MOL0     H10762   1.565   7.384   5.670 -2.1413 -1.3427 -0.4167
   82MOL0     H10763   1.391   7.475   5.545  0.7076 -0.0370 -0.4500
   82MOL0     H10764   1.334   7.579   5.671 -0.4873 -0.3019 -0.1533
   82MOL0     H10765   1.159   7.407   5.646 -0.1209 -0.2339  2.4432
   82MOL0     H10766   1.257   7.356   5.789  0.5468 -0.5467 -0.2920
   82MOL0     H10767   1.311   7.282   5.500 -0.5509  3.1410  0.8326
   82MOL0     H10768   1.379   7.188   5.639  1.6770  2.5720  0.3372
   82MOL0     H10769   1.150   7.102   5.681 -0.8697  0.8686  0.1553
   82MOL0     H10770   1.229   7.056   5.537 -1.8116  0.0396 -0.7115
   82MOL0     H10771   1.083   7.227   5.410 -0.5305 -0.7070 -0.2622
   82MOL0     H10772   1.013   7.271   5.576 -1.3445 -0.3963  0.1971
   82MOL0     H10773   0.862   7.123   5.427 -1.5457  0.8313  2.4392
   82MOL0     H10774   1.006   7.007   5.434 -0.3397 -0.1662  1.2171
   82MOL0     H10775   0.855   7.108   5.679 -0.1976 -2.1181  1.9832
   82MOL0     H10776   0.958   6.964   5.659 -0.0823  0.3865  1.6414
   82MOL0     H10777   0.766   6.903   5.359 -1.3626 -1.0551 -0.8864
   82MOL0     H10778   0.524   6.642   5.453  0.1599  0.5991  1.3496
   82MOL0     H10779   0.657   6.676   5.333  0.5885  3.1682 -0.1390
   82MOL0     H10780   0.453   6.692   5.200  0.5544  0.2064 -1.2606
   82MOL0     H10781   0.516   6.848   5.224 -1.5350 -0.2392 -0.8561
   82MOL0     H10782   0.296   6.710   5.385 -0.1665 -0.3033  0.4626
   82MOL0     H10783   0.337   6.882   5.414 -2.7931  0.1281 -0.0966
   82MOL0     H10784   0.256   6.815   5.133  0.3397 -0.7888  0.1621
   82MOL0     H10785   0.226   6.952   5.230 -0.6729 -0.4978 -2.4614
   82MOL0     H10786  -0.099   6.657   5.280 -0.9004 -2.6874 -2.5023
   82MOL0     H10787  -0.298   6.661   5.143  0.1077 -0.9995 -1.0561
   82MOL0     H10788  -0.627   6.828   5.205  0.8379 -0.1135 -1.0150
   82MOL0     H10789  -0.888   6.847   5.168 -2.7607  0.2753 -2.0009
   82MOL0     H10790  -1.045   6.715   4.842 -0.7213  0.6002  0.0427
   82MOL0     H10791  -1.041   6.869   4.745  0.2441  3.8846  0.3642
   82MOL0     H10792  -1.261   6.796   4.756 -2.4746  4.4749 -1.8928
   82MOL0     H10793  -1.265   6.931   4.860  0.7046 -0.1814 -2.1118
   82MOL0     H10794  -1.248   6.758   5.052  1.7054 -1.0344 -0.1342
   82MOL0     H10795  -1.264   6.642   4.913 -0.9236 -1.3015  2.7984
   82MOL0     H10796  -1.466   6.732   5.057  1.5580  0.8588 -0.1802
   82MOL0     H10797  -1.448   6.874   4.950  3.3442  0.4411  1.2509
   82MOL0     H10798  -1.475   6.593   4.834  1.7022  1.8269 -1.4480
   82MOL0     H10799  -1.494   6.742   4.755  2.8032  0.0192  0.3978
   82MOL0     H10800  -1.684   6.649   4.976  0.5926 -2.0140 -1.2148
   82MOL0     H10801  -1.721   6.625   4.810  1.8283 -0.9470 -0.3306
   82MOL0     H10802  -1.677   6.896   4.930  1.3592 -0.5488 -0.8984
   82MOL0     H10803  -1.712   6.868   4.762 -3.9911  2.3735 -1.2772
   82MOL0     H10804  -1.913   6.939   4.877  0.1879  0.4274  2.2204
   82MOL0     H10805  -1.896   6.810   4.998  0.6145 -2.4728 -0.0906
   82MOL0     H10806  -0.809   6.928   4.756 -0.0935  0.4710  1.1727
   82MOL0     H10807  -0.587   6.862   4.775 -1.1353 -2.4370 -0.5763
   82MOL0     H10808  -0.121   6.982   4.911  2.2579  0.4881  1.1442
   82MOL0     H10809   0.079   6.962   5.041 -0.9165  1.1231 -1.9731
   82MOL0     H10810   1.708   7.731   5.906  0.3781  0.9309  0.6319
   82MOL0     H10811   1.953   7.769   5.890 -0.0682 -0.6979 -1.0685
   82MOL0     H10812   2.259   7.836   5.788  0.5043  1.4139 -1.8193
   82MOL0     H10813   2.494   7.926   5.847  1.0596 -0.7851  0.2207
   82MOL0     H10814   2.682   7.932   5.962 -1.4652  3.4097 -1.4623
   82MOL0     H10815   2.713   7.999   5.801  0.2328  0.1887 -0.3795
   82MOL0     H10816   2.913   7.854   5.974 -0.1226 -0.7116 -0.6989
   82MOL0     H10817   2.941   7.918   5.811 -1.1921 -0.8886 -0.1178
   82MOL0     H10818   2.850   8.122   6.025  0.0908 -1.9949  1.9153
   82MOL0     H10819   2.947   8.130   5.874 -0.0831  1.4873  1.7016
   82MOL0     H10820   3.020   8.032   6.148 -2.5922  4.8039  0.6564
   82MOL0     H10821   3.124   8.002   5.997 -0.0963 -0.7494 -0.1388
   82MOL0     H10822   3.176   8.406   6.151  0.6566  0.3346  1.6443
   82MOL0     H10823   2.668   7.566   5.694 -0.4327 -0.8285 -1.6875
   82MOL0     H10824   2.459   7.483   5.650  1.7952 -0.5045  2.0639
   83MOL0     O10825   3.078  10.348   2.177  0.2034 -0.0813  0.1132
   83MOL0     C10826   3.128  10.241   2.181  0.3183  0.0060  0.2478
   83MOL0     O10827   3.071  10.125   2.241  0.6141  0.3887  0.1769
   83MOL0     C10828   2.960  10.141   2.326  0.0121 -0.2473  0.9960
   83MOL0     C10829   2.872  10.034   2.308 -0.1360  0.1383  0.2256
   83MOL0     C10830   2.745  10.039   2.374  0.2737 -0.0320 -0.6710
   83MOL0     C10831   2.710  10.155   2.455 -0.1894  0.2124  0.4648
   83MOL0     O10832   2.581  10.156   2.500 -0.8562 -0.0366 -0.2035
   83MOL0     C10833   2.547  10.258   2.599 -0.1043 -0.0256 -0.5093
   83MOL0     C10834   2.395  10.265   2.606  0.7370 -0.3656  1.0064
   83MOL0     C10835   2.329  10.334   2.486  1.1341 -0.1551  0.0151
   83MOL0     C10836   2.183  10.349   2.517 -0.3350 -0.4285 -0.4330
   83MOL0     C10837   2.115  10.452   2.434  0.3836  1.1163  0.0067
   83MOL0     C10838   1.974  10.488   2.496  0.7059 -0.2016 -0.0172
   83MOL0     C10839   1.891  10.588   2.410  0.0775  0.3208 -0.3113
   83MOL0     C10840   1.747  10.611   2.452  1.0004 -1.0721 -0.2611
   83MOL0     N10841   1.670  10.512   2.384 -0.0963 -0.0189 -0.0738
   83MOL0     C10842   1.645  10.382   2.421  0.2944 -0.0284 -0.7892
   83MOL0     C10843   1.584  10.333   2.309 -0.1201 -0.2583 -0.4692
   83MOL0     C10844   1.524  10.199   2.295  0.0726  0.0820  0.0659
   83MOL0     C10845   1.369  10.216   2.277 -0.3131  0.5518 -0.6362
   83MOL0     C10846   1.313  10.106   2.193 -0.0177  0.6745  0.0933
   83MOL0     C10847   1.156  10.109   2.181  0.3707 -0.3035 -0.0201
   83MOL0     O10848   1.121  10.203   2.075  0.5900  0.2411  0.2111
   83MOL0     C10849   0.982  10.196   2.032  0.2215 -0.5246 -0.0892
   83MOL0     C10850   0.948  10.290   1.932 -0.1865 -0.9631 -0.5131
   83MOL0     C10851   0.808  10.301   1.901 -1.1268  0.2535 -0.0991
   83MOL0     C10852   0.712  10.207   1.945 -0.0164 -0.8606  1.1025
   83MOL0     C10853   0.577  10.232   1.882  0.1069  0.1326 -0.3762
   83MOL0     O10854   0.464  10.175   1.952  0.5751 -0.6463 -0.3834
   83MOL0     C10855   0.336  10.204   1.903  0.3311 -0.3900 -1.5633
   83MOL0     C10856   0.304  10.320   1.829  0.5809 -0.1202  0.1823
   83MOL0     C10857   0.173  10.343   1.784 -0.4527 -0.0219  0.6795
   83MOL0     C10858   0.073  10.255   1.808  0.2524  0.0669  0.4526
   83MOL0     O10859  -0.055  10.288   1.776 -0.2349 -0.8071  0.3203
   83MOL0     C10860  -0.160  10.207   1.818  0.3987  0.3752  0.1518
   83MOL0     C10861  -0.289  10.287   1.786 -0.0333 -0.3402  0.4994
   83MOL0     C10862  -0.402  10.188   1.787 -0.2128 -0.2586  0.5835
   83MOL0     C10863  -0.534  10.255   1.747  0.8248 -0.5871  0.9863
   83MOL0     C10864  -0.649  10.162   1.766 -0.7220 -0.4595 -0.5397
   83MOL0     C10865  -0.778  10.239   1.775  0.1207  0.8478 -1.1492
   83MOL0     C10866  -0.885  10.135   1.829 -0.0731 -0.0228  0.3003
   83MOL0     C10867  -1.027  10.184   1.829  0.9254  1.1304  0.2014
   83MOL0    Cl10868  -1.137  10.054   1.883 -0.2161 -0.3035  0.2931
   83MOL0     C10869   0.105  10.131   1.867  0.2385  0.1511  0.5095
   83MOL0     C10870   0.238  10.106   1.919  0.5504  0.5567  0.5566
   83MOL0     O10871   0.573  10.277   1.765  0.1018  0.0632  0.4318
   83MOL0     C10872   0.749  10.097   2.031 -0.2865  0.4388  0.5550
   83MOL0     C10873   0.884  10.096   2.070  0.1506 -0.6614 -0.2208
   83MOL0     N10874   1.567  10.434   2.212  0.3850  0.2398  0.1815
   83MOL0     N10875   1.622  10.543   2.262 -0.2859  0.5018  0.4537
   83MOL0     C10876   2.806  10.258   2.478 -0.3474 -0.0252 -0.1682
   83MOL0     C10877   2.930  10.253   2.415 -0.6272  0.3345  0.3277
   83MOL0     C10878   3.247  10.219   2.096 -0.8134 -0.2421 -0.3267
   83MOL0     C10879   3.263  10.098   2.020 -0.3218  0.3091 -0.2429
   83MOL0     C10880   3.383  10.073   1.942  0.1062 -0.4728  0.5468
   83MOL0     C10881   3.474  10.176   1.931  0.3141 -0.0362  1.1950
   83MOL0     O10882   3.596  10.158   1.861  0.1399  0.0218 -0.7369
   83MOL0     C10883   3.649  10.029   1.819  0.3198  1.0356  0.5560
   83MOL0     C10884   3.724   9.966   1.935  0.4928  0.1243  0.8906
   83MOL0     C10885   3.797   9.842   1.881  0.6093  0.8625  0.5313
   83MOL0     C10886   3.947   9.867   1.881  0.7985 -0.9395  0.1594
   83MOL0     C10887   4.018   9.766   1.791  0.5866 -0.0984 -0.5654
   83MOL0     C10888   4.063   9.690   1.706  0.0844  0.2387  0.0170
   83MOL0     C10889   3.447  10.292   1.994 -0.7037 -0.5453 -0.0195
   83MOL0     C10890   3.341  10.323   2.072 -0.8731  0.4697 -0.0732
   83MOL0     H10891   2.899   9.949   2.246 -0.4817 -0.0458  0.3256
   83MOL0     H10892   2.675   9.956   2.368  1.4725 -1.1477  0.3021
   83MOL0     H10893   2.574  10.358   2.564  0.2415  0.0793  0.0546
   83MOL0     H10894   2.582  10.229   2.698 -0.1222  1.2492 -0.1158
   83MOL0     H10895   2.367  10.307   2.703 -0.9409  1.5975 -0.2532
   83MOL0     H10896   2.360  10.161   2.608  1.8559 -0.7596  1.0034
   83MOL0     H10897   2.362  10.274   2.400 -0.4472 -0.3127 -0.5177
   83MOL0     H10898   2.367  10.436   2.475  2.6694 -0.5121  1.6117
   83MOL0     H10899   2.135  10.250   2.508 -0.1523 -0.5219 -0.3669
   83MOL0     H10900   2.176  10.390   2.618  1.3583  2.5852 -1.4432
   83MOL0     H10901   2.102  10.412   2.334  0.5993 -0.6489  0.6577
   83MOL0     H10902   2.177  10.540   2.413  0.1440  1.3668  0.3130
   83MOL0     H10903   1.973  10.523   2.599 -1.1340 -1.2493  0.3595
   83MOL0     H10904   1.920  10.393   2.491 -0.9673  0.7460 -0.8211
   83MOL0     H10905   1.951  10.678   2.423  0.8191 -0.3396  0.9957
   83MOL0     H10906   1.903  10.567   2.303  2.3611  1.7903 -0.4110
   83MOL0     H10907   1.715  10.714   2.435  1.7696 -0.4933  1.6006
   83MOL0     H10908   1.742  10.603   2.561  1.3789 -1.0613 -0.2427
   83MOL0     H10909   1.677  10.331   2.511 -1.1523  1.6008  0.7189
   83MOL0     H10910   1.538  10.138   2.385 -2.5898 -1.2832 -0.3552
   83MOL0     H10911   1.555  10.147   2.203 -3.1734  0.5461 -1.4141
   83MOL0     H10912   1.350  10.300   2.209 -0.4852  0.6802 -0.4337
   83MOL0     H10913   1.311  10.223   2.370 -3.1232 -1.6527 -2.0683
   83MOL0     H10914   1.358  10.117   2.094  0.3037  2.1030  0.3762
   83MOL0     H10915   1.332  10.009   2.240  1.9343  1.3974  0.9183
   83MOL0     H10916   1.128  10.132   2.284 -0.6248 -0.1781 -0.3126
   83MOL0     H10917   1.116  10.010   2.160 -0.2975  0.0011 -0.1931
   83MOL0     H10918   1.032  10.348   1.898  0.3264 -0.6221  1.2243
   83MOL0     H10919   0.775  10.378   1.832  0.5181  0.4246 -0.7466
   83MOL0     H10920   0.380  10.398   1.820  0.4429 -0.1848 -2.1757
   83MOL0     H10921   0.144  10.435   1.733  0.1771 -0.4637 -0.5131
   83MOL0     H10922  -0.166  10.184   1.924 -2.1840 -0.1149 -0.0247
   83MOL0     H10923  -0.160  10.110   1.766 -2.0479  1.9507 -3.2056
   83MOL0     H10924  -0.284  10.330   1.685 -2.8188  0.0352  0.4438
   83MOL0     H10925  -0.302  10.370   1.856  0.1891  0.7119 -0.6796
   83MOL0     H10926  -0.418  10.138   1.883 -1.6828  0.4518  0.7278
   83MOL0     H10927  -0.387  10.111   1.712 -2.5230 -1.0368  0.8491
   83MOL0     H10928  -0.547  10.344   1.810  0.5816  0.1720 -0.1146
   83MOL0     H10929  -0.537  10.286   1.642  1.4634  1.5731  1.5583
   83MOL0     H10930  -0.621  10.108   1.857 -2.3770  0.2366  0.4323
   83MOL0     H10931  -0.658  10.092   1.683  1.2996  2.1125 -3.1158
   83MOL0     H10932  -0.813  10.283   1.682  2.3257 -0.1638 -2.5568
   83MOL0     H10933  -0.765  10.320   1.847  0.1697  1.4206 -1.7896
   83MOL0     H10934  -0.875  10.056   1.754  4.7873  1.1904 -0.6595
   83MOL0     H10935  -0.860  10.096   1.928 -0.9902 -1.1700  0.1044
   83MOL0     H10936  -1.055  10.207   1.725  0.6435 -1.3436 -0.3267
   83MOL0     H10937  -1.044  10.269   1.896 -0.3512 -0.9942  2.7444
   83MOL0     H10938   0.036  10.049   1.882  0.4535  0.3111  2.7715
   83MOL0     H10939   0.265  10.017   1.974  1.0759  0.2752 -0.1469
   83MOL0     H10940   0.683  10.014   2.052  0.3377 -1.2682 -3.3596
   83MOL0     H10941   0.911  10.030   2.152  2.2099 -0.4802 -0.7000
   83MOL0     H10942   2.774  10.339   2.543  0.0698  0.3354 -0.4038
   83MOL0     H10943   3.000  10.334   2.434 -0.0152 -0.2995  0.8086
   83MOL0     H10944   3.186  10.024   2.039  0.4021 -0.3244  0.2896
   83MOL0     H10945   3.398   9.977   1.894 -1.4549 -0.3984 -0.1420
   83MOL0     H10946   3.724  10.039   1.740  0.1007  0.4951  0.2769
   83MOL0     H10947   3.570   9.966   1.777  2.0750 -0.3543 -0.7893
   83MOL0     H10948   3.781  10.041   1.990 -0.6979  2.1962 -0.5551
   83MOL0     H10949   3.648   9.920   1.998 -1.1192  1.3990 -0.0471
   83MOL0     H10950   3.746   9.804   1.792 -1.1840 -1.8205  2.5092
   83MOL0     H10951   3.775   9.754   1.943  1.2885  0.0410 -0.3459
   83MOL0     H10952   3.963   9.968   1.842 -0.6362 -1.8388 -3.1014
   83MOL0     H10953   3.979   9.866   1.986  0.0962  1.4325  0.4448
   83MOL0     H10954   4.113   9.633   1.631  1.6863 -3.4908  3.5423
   83MOL0     H10955   3.524  10.365   1.975 -2.2241  1.4205  1.0433
   83MOL0     H10956   3.337  10.415   2.129  1.3211  0.8712 -0.4832
   84MOL0     O10957   2.255   2.461   1.671 -0.2217  0.0197  0.4117
   84MOL0     C10958   2.265   2.573   1.726 -0.1991 -0.9285  0.6986
   84MOL0     O10959   2.163   2.651   1.774  0.3029 -0.3453  0.6849
   84MOL0     C10960   2.045   2.593   1.807  0.9067 -0.9192  0.0821
   84MOL0     C10961   1.927   2.664   1.787 -0.2542 -0.4324 -0.7171
   84MOL0     C10962   1.800   2.605   1.819 -0.0700 -0.0474 -0.0394
   84MOL0     C10963   1.795   2.478   1.864  0.5569  0.1915 -0.8592
   84MOL0     O10964   1.682   2.393   1.869  0.4157  0.6312 -0.1585
   84MOL0     C10965   1.549   2.445   1.853  0.1640  0.0649  0.5395
   84MOL0     C10966   1.444   2.342   1.878  0.1742  0.9825  0.0512
   84MOL0     C10967   1.311   2.386   1.804 -0.3869 -0.5374 -0.2725
   84MOL0     C10968   1.193   2.285   1.815  0.5005 -0.4706  0.2146
   84MOL0     C10969   1.085   2.311   1.711  1.1418  0.6232 -0.3766
   84MOL0     C10970   1.034   2.453   1.716 -0.4525  0.3083 -0.6824
   84MOL0     C10971   0.912   2.470   1.624 -0.5329 -0.0857 -0.0809
   84MOL0     C10972   0.842   2.613   1.629  0.0108 -0.2931 -0.9149
   84MOL0     N10973   0.939   2.726   1.634 -0.1620 -0.1322 -1.3632
   84MOL0     C10974   0.996   2.773   1.756  0.6075  0.8856  0.0966
   84MOL0     C10975   1.092   2.858   1.707 -0.6494 -0.3583 -0.2621
   84MOL0     C10976   1.187   2.947   1.786 -0.2347 -0.1853 -0.0476
   84MOL0     C10977   1.333   2.913   1.775  0.0602 -0.4893 -0.1599
   84MOL0     C10978   1.384   2.793   1.860  0.5144 -0.2296 -0.1246
   84MOL0     C10979   1.467   2.848   1.970 -0.7457  0.3919  1.1676
   84MOL0     O10980   1.509   2.759   2.073 -1.1704 -0.1986  0.6247
   84MOL0     C10981   1.417   2.709   2.168  0.0654  0.1011 -0.5739
   84MOL0     C10982   1.455   2.592   2.230  0.2205  0.6120  0.3362
   84MOL0     C10983   1.361   2.526   2.316 -0.3649 -0.4044 -0.3758
   84MOL0     C10984   1.234   2.577   2.339  0.3170 -0.4107  0.0117
   84MOL0     C10985   1.130   2.511   2.415  0.3108  0.2833 -0.1945
   84MOL0     O10986   1.136   2.381   2.445 -0.2181 -0.4099 -0.0632
   84MOL0     C10987   1.022   2.323   2.497  0.6017 -0.1573 -0.5708
   84MOL0     C10988   1.035   2.230   2.602 -0.3981 -0.0676 -1.0453
   84MOL0     C10989   0.924   2.180   2.674 -0.4498 -0.0410  0.1110
   84MOL0     C10990   0.798   2.219   2.635  0.4010 -0.1814  0.6397
   84MOL0     O10991   0.685   2.188   2.700 -0.5345  0.1922 -0.2734
   84MOL0     C10992   0.683   2.106   2.823 -0.1721  0.2884  0.8321
   84MOL0     C10993   0.535   2.069   2.850  0.3483 -0.5961  0.0808
   84MOL0     C10994   0.474   1.930   2.794  0.5400 -0.2409  0.8866
   84MOL0     C10995   0.367   1.864   2.881 -0.9728 -0.0235  0.1348
   84MOL0     C10996   0.322   1.733   2.806  0.0980 -0.3599  0.1816
   84MOL0     C10997   0.223   1.761   2.689 -0.5942 -0.6328  0.4197
   84MOL0     C10998   0.093   1.831   2.738  0.4961  0.8179  0.0512
   84MOL0     C10999   0.006   1.745   2.835 -1.0929 -0.3684  0.6718
   84MOL0    Cl11000  -0.171   1.793   2.834  0.2877 -0.1545 -0.2164
   84MOL0     C11001   0.784   2.304   2.528  0.2962  0.0733 -0.3258
   84MOL0     C11002   0.892   2.345   2.453  0.2535 -0.4000  0.5968
   84MOL0     O11003   1.044   2.579   2.453  0.5454 -0.6953 -0.0162
   84MOL0     C11004   1.201   2.694   2.277  0.5015 -0.5098  0.5457
   84MOL0     C11005   1.290   2.762   2.190 -0.2137  0.1893 -0.7131
   84MOL0     N11006   1.096   2.860   1.566  0.5012 -0.1674 -0.4618
   84MOL0     N11007   1.001   2.778   1.526  0.0226  0.0355 -0.0267
   84MOL0     C11008   1.907   2.406   1.892 -0.5262  0.1840 -0.2147
   84MOL0     C11009   2.033   2.466   1.865 -0.5266 -0.6676 -0.8232
   84MOL0     C11010   2.400   2.623   1.746  0.6244 -0.5021  0.3311
   84MOL0     C11011   2.431   2.756   1.740 -1.3429 -0.3497 -0.1285
   84MOL0     C11012   2.563   2.797   1.759  0.6027 -0.7227 -0.7000
   84MOL0     C11013   2.664   2.705   1.776  0.4833  0.4016 -0.3167
   84MOL0     O11014   2.790   2.754   1.795  0.5498  0.1652  0.7256
   84MOL0     C11015   2.897   2.661   1.805  0.4755 -0.2917  0.3520
   84MOL0     C11016   3.020   2.751   1.838 -0.2975  0.3663  0.4973
   84MOL0     C11017   3.145   2.688   1.906  0.1207  0.4942  0.1372
   84MOL0     C11018   3.266   2.788   1.910 -0.4640 -0.4101  0.0500
   84MOL0     C11019   3.335   2.794   1.779 -0.8358  0.5176  0.8032
   84MOL0     C11020   3.402   2.795   1.674 -0.1732  0.6130  0.4857
   84MOL0     C11021   2.634   2.571   1.773 -0.3200 -0.4062  0.6403
   84MOL0     C11022   2.499   2.525   1.760 -0.3586 -0.4228 -0.4772
   84MOL0     H11023   1.931   2.765   1.746  0.2208 -0.7688 -1.5325
   84MOL0     H11024   1.709   2.663   1.804  1.5615  2.1248 -2.3041
   84MOL0     H11025   1.525   2.477   1.751 -0.8054 -1.5350  0.2294
   84MOL0     H11026   1.531   2.529   1.920  0.9112  0.4713  0.2354
   84MOL0     H11027   1.439   2.337   1.987 -1.6712  2.6627  0.1022
   84MOL0     H11028   1.483   2.249   1.837  2.5800  1.6990  0.5780
   84MOL0     H11029   1.330   2.403   1.697 -2.1987 -0.5074 -0.6280
   84MOL0     H11030   1.278   2.477   1.855 -0.8805  0.5955 -2.4675
   84MOL0     H11031   1.230   2.184   1.793 -4.1064 -1.9661 -1.8418
   84MOL0     H11032   1.155   2.286   1.917 -1.7349  1.5388 -0.5549
   84MOL0     H11033   0.999   2.248   1.732  2.3693 -1.5505 -1.5451
   84MOL0     H11034   1.127   2.291   1.612  1.4410  0.6366 -0.2544
   84MOL0     H11035   1.114   2.526   1.700 -0.3087  0.5364  0.9283
   84MOL0     H11036   1.009   2.471   1.821  0.9939  2.6438 -0.6663
   84MOL0     H11037   0.943   2.438   1.524  3.1023 -6.8887  2.6025
   84MOL0     H11038   0.839   2.395   1.655 -2.7712  1.6178 -0.9635
   84MOL0     H11039   0.769   2.632   1.708 -1.7721  0.8808 -2.7264
   84MOL0     H11040   0.788   2.625   1.535 -1.8271 -1.4876 -0.0632
   84MOL0     H11041   0.981   2.751   1.861 -0.0901 -0.6857 -0.3102
   84MOL0     H11042   1.149   2.951   1.888 -2.6172 -2.5128 -0.7328
   84MOL0     H11043   1.173   3.043   1.735 -0.4651 -0.0306  0.3077
   84MOL0     H11044   1.397   3.002   1.785 -2.4067  1.3662  0.1877
   84MOL0     H11045   1.353   2.893   1.669 -2.0032  0.4037 -0.7703
   84MOL0     H11046   1.297   2.740   1.902 -0.5010  1.6408  0.2218
   84MOL0     H11047   1.447   2.736   1.792  1.4203  2.1136 -1.3173
   84MOL0     H11048   1.421   2.937   2.015  1.2368  1.3411  1.4556
   84MOL0     H11049   1.558   2.883   1.921 -1.7862 -0.6853 -1.7054
   84MOL0     H11050   1.547   2.538   2.211  0.9597  1.4401  1.4011
   84MOL0     H11051   1.392   2.431   2.358 -2.0569 -1.4112 -1.3099
   84MOL0     H11052   1.135   2.210   2.640 -0.7025 -2.4536 -1.3413
   84MOL0     H11053   0.952   2.119   2.759  2.0008 -0.9224 -1.2382
   84MOL0     H11054   0.739   2.145   2.910  0.5100 -1.4879  1.2286
   84MOL0     H11055   0.733   2.011   2.803 -0.7059 -0.0631  1.1833
   84MOL0     H11056   0.475   2.146   2.799  1.1222 -2.8017 -4.7536
   84MOL0     H11057   0.525   2.071   2.958  0.4879 -1.1372  0.1074
   84MOL0     H11058   0.551   1.857   2.767  0.9448  0.7765 -0.8828
   84MOL0     H11059   0.429   1.958   2.698  1.2668  1.5131  1.0126
   84MOL0     H11060   0.405   1.836   2.980  1.1675  3.4734  0.4908
   84MOL0     H11061   0.284   1.934   2.889  0.8518  2.4158 -1.0417
   84MOL0     H11062   0.271   1.670   2.879 -3.2398  0.5169 -1.2161
   84MOL0     H11063   0.419   1.689   2.781  0.2379 -0.7666  1.3538
   84MOL0     H11064   0.193   1.666   2.645  1.0299 -0.7330 -0.5398
   84MOL0     H11065   0.276   1.816   2.612  0.1915  0.7076  1.8493
   84MOL0     H11066   0.111   1.926   2.788 -0.7874  0.7372  0.7174
   84MOL0     H11067   0.036   1.847   2.646  1.3920 -0.3659 -0.7423
   84MOL0     H11068   0.057   1.745   2.932  0.2726  2.2476  0.0419
   84MOL0     H11069   0.008   1.650   2.781  0.0948 -0.4201  0.7922
   84MOL0     H11070   0.687   2.342   2.498  0.3181  0.0757 -0.3941
   84MOL0     H11071   0.868   2.404   2.365  4.3882  2.4157  1.0898
   84MOL0     H11072   1.105   2.742   2.294 -0.2321 -1.7831  0.0937
   84MOL0     H11073   1.263   2.850   2.132  2.4209  0.4094 -1.7351
   84MOL0     H11074   1.895   2.304   1.928  0.4695  0.3118  0.5268
   84MOL0     H11075   2.125   2.409   1.879 -1.3856 -1.8007  0.4250
   84MOL0     H11076   2.356   2.832   1.720  1.1126  1.9995 -0.9058
   84MOL0     H11077   2.573   2.904   1.767 -3.8193 -0.2488  1.2214
   84MOL0     H11078   2.917   2.595   1.720  2.3871 -0.5406  0.9339
   84MOL0     H11079   2.874   2.597   1.891 -0.2454  0.8458  1.0329
   84MOL0     H11080   3.043   2.820   1.756 -0.4434 -1.9625 -1.6555
   84MOL0     H11081   2.978   2.818   1.913 -1.9220  0.0479 -0.0783
   84MOL0     H11082   3.176   2.604   1.842 -0.2448 -0.9396  1.7461
   84MOL0     H11083   3.115   2.651   2.004 -3.6840 -1.3191 -1.5166
   84MOL0     H11084   3.235   2.891   1.931 -1.6542 -1.0444  1.5513
   84MOL0     H11085   3.339   2.759   1.985  0.7035 -0.0304 -0.9006
   84MOL0     H11086   3.473   2.799   1.593  0.9297  0.7891  1.4323
   84MOL0     H11087   2.709   2.493   1.771 -1.5167 -1.6039 -1.8066
   84MOL0     H11088   2.472   2.420   1.759  0.8438 -0.7723  1.0746
   85MOL0     O11089   8.915   8.437   3.452 -0.1007 -0.5970  0.1481
   85MOL0     C11090   8.961   8.327   3.450 -0.2911  0.7865  0.4659
   85MOL0     O11091   8.910   8.218   3.522  0.1169 -0.5381  0.0981
   85MOL0     C11092   8.810   8.232   3.609 -0.7654  0.4002 -0.2157
   85MOL0     C11093   8.836   8.195   3.743  0.2034 -0.2716 -0.3927
   85MOL0     C11094   8.743   8.213   3.836 -0.0274  0.0709 -0.4164
   85MOL0     C11095   8.613   8.263   3.803  0.1504  0.1382  0.4250
   85MOL0     O11096   8.510   8.301   3.887  0.3172 -0.1412 -0.2311
   85MOL0     C11097   8.521   8.322   4.033 -0.4903 -1.2705 -0.3654
   85MOL0     C11098   8.509   8.183   4.103  1.2685  0.2341  0.0105
   85MOL0     C11099   8.597   8.183   4.226  0.1658  0.1711 -0.4434
   85MOL0     C11100   8.640   8.046   4.282  0.2082 -0.6141  0.1129
   85MOL0     C11101   8.747   8.065   4.385  0.6142 -0.3230  0.1462
   85MOL0     C11102   8.813   7.927   4.421  0.6820  0.0197  0.2921
   85MOL0     C11103   8.897   7.926   4.545 -0.0009 -0.9637 -0.6471
   85MOL0     C11104   8.922   7.788   4.600 -0.2454  0.3353 -0.2719
   85MOL0     N11105   8.802   7.719   4.646 -0.1791  0.0718 -0.0010
   85MOL0     C11106   8.714   7.644   4.571  0.2275  0.1236  0.3094
   85MOL0     C11107   8.613   7.607   4.660  0.5080  0.4293  0.7442
   85MOL0     C11108   8.502   7.510   4.646  0.4051  0.7051 -0.5343
   85MOL0     C11109   8.548   7.380   4.715 -0.2264  0.6379  0.3844
   85MOL0     C11110   8.458   7.263   4.695  0.0239 -0.0669  0.1698
   85MOL0     C11111   8.320   7.282   4.756 -0.6169 -0.3928  0.1870
   85MOL0     O11112   8.234   7.364   4.665  0.2851 -0.3132 -0.2663
   85MOL0     C11113   8.108   7.403   4.694 -0.2427  0.0389 -0.1843
   85MOL0     C11114   8.037   7.361   4.809 -0.2303  0.1399 -0.6831
   85MOL0     C11115   7.902   7.404   4.829 -0.2575 -0.6398  0.1149
   85MOL0     C11116   7.835   7.475   4.734  0.5009  0.6789  0.7449
   85MOL0     C11117   7.692   7.522   4.753 -1.1504  0.4192 -0.3506
   85MOL0     O11118   7.627   7.484   4.876 -0.3694 -0.2046  0.7332
   85MOL0     C11119   7.484   7.507   4.900  0.8379 -0.4106  0.6769
   85MOL0     C11120   7.383   7.486   4.797 -0.5184 -0.4935 -0.0059
   85MOL0     C11121   7.256   7.523   4.826  0.2309  0.3624 -0.8723
   85MOL0     C11122   7.221   7.583   4.953  0.5244  0.0579 -0.4790
   85MOL0     O11123   7.091   7.629   4.966  0.0936 -0.0753  0.6592
   85MOL0     C11124   7.051   7.699   5.083 -0.1160 -0.2789  0.2372
   85MOL0     C11125   6.910   7.764   5.060 -0.2501  0.0255 -0.1170
   85MOL0     C11126   6.845   7.823   5.187  0.1435  0.2194  0.3588
   85MOL0     C11127   6.721   7.899   5.156 -0.3703 -0.8271  0.4481
   85MOL0     C11128   6.680   7.994   5.274  0.9246  0.3248  1.2512
   85MOL0     C11129   6.535   8.050   5.244 -0.0412  0.5297 -0.2226
   85MOL0     C11130   6.420   7.938   5.244 -0.7321  0.0372 -0.0814
   85MOL0     C11131   6.375   7.902   5.382  0.2903 -0.1076  0.8040
   85MOL0    Cl11132   6.484   7.802   5.485 -0.1105  0.6359  0.0951
   85MOL0     C11133   7.326   7.610   5.039 -0.5015  0.1374  0.0075
   85MOL0     C11134   7.459   7.567   5.017  0.9278 -0.3513 -0.6039
   85MOL0     O11135   7.648   7.588   4.659  0.1274 -0.0274  0.2533
   85MOL0     C11136   7.906   7.507   4.615 -0.3366 -0.4018 -0.3108
   85MOL0     C11137   8.039   7.474   4.602  0.4691  1.3581 -0.7737
   85MOL0     N11138   8.650   7.670   4.779 -0.2232  0.5806  0.1862
   85MOL0     N11139   8.760   7.730   4.776 -0.0950  0.2792 -0.7753
   85MOL0     C11140   8.590   8.283   3.672 -0.0939  0.3180  0.1278
   85MOL0     C11141   8.686   8.268   3.570  0.2219 -0.0643 -0.1310
   85MOL0     C11142   9.074   8.296   3.354 -0.6114  0.5146  0.0741
   85MOL0     C11143   9.138   8.175   3.373 -0.2561 -0.2878 -0.1639
   85MOL0     C11144   9.256   8.139   3.301  0.0163  0.6252  0.4440
   85MOL0     C11145   9.313   8.220   3.203  0.0282  0.7161  0.8036
   85MOL0     O11146   9.420   8.168   3.134 -0.8946 -0.2449 -0.1592
   85MOL0     C11147   9.508   8.256   3.061 -0.0390  0.1222  0.4682
   85MOL0     C11148   9.485   8.245   2.909 -0.4886 -0.1072 -1.0377
   85MOL0     C11149   9.615   8.268   2.826  0.1352 -0.9219 -0.4017
   85MOL0     C11150   9.668   8.411   2.824 -0.5327 -0.1839 -0.2406
   85MOL0     C11151   9.801   8.423   2.765  0.7216 -0.2173  0.6831
   85MOL0     C11152   9.914   8.441   2.735 -0.9259  0.0618  0.6339
   85MOL0     C11153   9.241   8.342   3.173 -0.2830 -0.7920 -0.2620
   85MOL0     C11154   9.131   8.378   3.258 -0.6444  0.1728 -0.2761
   85MOL0     H11155   8.937   8.167   3.772  0.0189  0.5720  1.1379
   85MOL0     H11156   8.759   8.198   3.942 -0.6796  1.0574 -0.1678
   85MOL0     H11157   8.448   8.390   4.077  2.1451  0.5003  1.6402
   85MOL0     H11158   8.614   8.379   4.049 -0.9448 -0.7105  0.3335
   85MOL0     H11159   8.553   8.108   4.036  3.9251  1.0412  0.7162
   85MOL0     H11160   8.406   8.154   4.124  0.4441  2.3474 -0.8687
   85MOL0     H11161   8.542   8.228   4.309  0.9474 -3.9437  2.6590
   85MOL0     H11162   8.689   8.237   4.199  0.5510  0.1850  0.8435
   85MOL0     H11163   8.558   7.992   4.331  0.3431 -0.6477  0.3038
   85MOL0     H11164   8.656   7.977   4.198 -3.5787  0.5180 -1.7639
   85MOL0     H11165   8.714   8.118   4.475 -0.2678 -2.1423  0.9536
   85MOL0     H11166   8.825   8.125   4.338  0.8079  1.5034  2.5959
   85MOL0     H11167   8.876   7.906   4.334  0.3650  1.1583 -0.2383
   85MOL0     H11168   8.737   7.849   4.430  0.1588  0.4544 -0.2557
   85MOL0     H11169   8.998   7.959   4.519 -0.3709 -0.7783 -1.9242
   85MOL0     H11170   8.850   7.987   4.623  4.2125 -0.0052  1.4040
   85MOL0     H11171   9.000   7.785   4.676 -1.2405  2.1653  0.8745
   85MOL0     H11172   8.959   7.726   4.517  0.1927  1.4025 -0.8989
   85MOL0     H11173   8.721   7.623   4.465  0.6245 -1.0295  0.5474
   85MOL0     H11174   8.471   7.493   4.543 -2.0042  0.6542  0.1446
   85MOL0     H11175   8.414   7.543   4.701 -1.6400 -2.4881 -1.5838
   85MOL0     H11176   8.583   7.389   4.819 -1.0556 -0.1174  0.7410
   85MOL0     H11177   8.636   7.351   4.657 -0.2251 -1.1198  1.1995
   85MOL0     H11178   8.449   7.248   4.587 -2.4765 -0.6588  0.3964
   85MOL0     H11179   8.505   7.178   4.745  0.7550  0.3909  0.2730
   85MOL0     H11180   8.313   7.343   4.847 -4.4486  0.6898 -0.7009
   85MOL0     H11181   8.264   7.189   4.769  0.2766 -1.0674 -0.6499
   85MOL0     H11182   8.078   7.293   4.883  0.3049  1.7469  0.5640
   85MOL0     H11183   7.851   7.387   4.923  1.7664 -1.0191  1.1981
   85MOL0     H11184   7.411   7.437   4.704 -0.5175 -2.3745  0.9279
   85MOL0     H11185   7.172   7.509   4.759  1.1366 -0.4413 -1.8787
   85MOL0     H11186   7.116   7.785   5.099  0.4069 -0.2519 -1.7022
   85MOL0     H11187   7.036   7.640   5.174 -1.5165  1.0699  0.9148
   85MOL0     H11188   6.848   7.679   5.031 -1.3637  0.9486 -0.5373
   85MOL0     H11189   6.918   7.837   4.979 -1.7097 -0.2991 -0.5832
   85MOL0     H11190   6.914   7.903   5.215  0.0119 -0.6402  3.5264
   85MOL0     H11191   6.836   7.757   5.273 -2.3574 -1.1126 -0.8077
   85MOL0     H11192   6.735   7.954   5.063 -0.5012 -1.7098 -0.1000
   85MOL0     H11193   6.647   7.819   5.146  1.7807 -3.3219  2.7203
   85MOL0     H11194   6.758   8.070   5.286 -0.5737  2.0123  0.7640
   85MOL0     H11195   6.671   7.951   5.374  3.4066 -2.1280  0.5298
   85MOL0     H11196   6.526   8.088   5.142 -0.0187 -2.2587 -1.3598
   85MOL0     H11197   6.510   8.127   5.318  0.8887 -0.5651  1.2845
   85MOL0     H11198   6.335   7.996   5.208 -0.2957  1.0727  0.4972
   85MOL0     H11199   6.434   7.857   5.172  0.1596  1.0031 -1.0249
   85MOL0     H11200   6.280   7.850   5.370  0.1618  0.4958 -1.3607
   85MOL0     H11201   6.355   7.997   5.432  1.6792 -2.0142  5.5588
   85MOL0     H11202   7.313   7.666   5.131  1.4552  0.2256  0.2593
   85MOL0     H11203   7.545   7.582   5.081 -0.9369 -0.8845  2.1679
   85MOL0     H11204   7.854   7.560   4.536 -2.6437 -1.9636  0.0266
   85MOL0     H11205   8.072   7.507   4.504 -4.3104  1.4026 -2.6255
   85MOL0     H11206   8.486   8.303   3.645 -0.8662 -1.2605  1.7144
   85MOL0     H11207   8.664   8.282   3.465  2.8719 -2.1668 -1.0764
   85MOL0     H11208   9.102   8.110   3.451 -0.5541  1.2826  1.0681
   85MOL0     H11209   9.306   8.052   3.342 -2.7772 -0.8552  0.9457
   85MOL0     H11210   9.610   8.223   3.080  0.4502  1.5793  0.4584
   85MOL0     H11211   9.500   8.358   3.101  0.5345  1.0608 -1.6893
   85MOL0     H11212   9.446   8.146   2.884  1.3545 -0.7093 -1.6410
   85MOL0     H11213   9.400   8.312   2.891 -0.2565  0.3963 -0.2886
   85MOL0     H11214   9.590   8.247   2.722  2.3323  1.7302 -1.5816
   85MOL0     H11215   9.696   8.201   2.858  0.6319 -0.1829 -0.0951
   85MOL0     H11216   9.599   8.472   2.763  2.9018  1.3571 -2.9175
   85MOL0     H11217   9.675   8.456   2.924  0.5029 -0.8147 -0.0239
   85MOL0     H11218  10.013   8.469   2.706 -1.8513 -0.5762 -3.8705
   85MOL0     H11219   9.278   8.412   3.098  0.5294  0.8500  1.5689
   85MOL0     H11220   9.082   8.475   3.256 -0.1760  0.5509  2.3354
   86MOL0     O11221   4.633   2.447   7.938  0.1678  0.4704  0.0281
   86MOL0     C11222   4.698   2.387   8.019 -0.0916  0.3335 -1.2778
   86MOL0     O11223   4.644   2.306   8.119 -0.3689  0.9302  0.3751
   86MOL0     C11224   4.515   2.295   8.130  0.4322 -0.3608 -0.0875
   86MOL0     C11225   4.445   2.196   8.055  0.2937  0.2835 -1.1598
   86MOL0     C11226   4.304   2.203   8.049 -0.4938  0.2702  0.4715
   86MOL0     C11227   4.233   2.302   8.129 -0.2517  0.2272  0.4174
   86MOL0     O11228   4.100   2.315   8.147  0.0030 -0.2303  0.3494
   86MOL0     C11229   4.013   2.208   8.089  0.4570 -0.2305 -0.9028
   86MOL0     C11230   3.875   2.241   8.139 -0.0110  0.7135  0.4707
   86MOL0     C11231   3.773   2.130   8.144 -1.4502 -0.2348  0.2706
   86MOL0     C11232   3.729   2.121   7.990  0.2535  1.0871  0.8806
   86MOL0     C11233   3.577   2.069   7.983 -0.5605  0.5177  0.2198
   86MOL0     C11234   3.559   1.947   8.060 -0.6090  0.0229  0.3901
   86MOL0     C11235   3.415   1.887   8.039  0.6678  0.1061  0.4220
   86MOL0     C11236   3.358   1.846   7.898  0.8608  0.2720 -0.2997
   86MOL0     N11237   3.462   1.798   7.806 -0.1830 -0.0661 -0.4178
   86MOL0     C11238   3.558   1.697   7.827  0.5399  0.1367 -0.9171
   86MOL0     C11239   3.632   1.698   7.713  0.8894  0.9767 -0.3136
   86MOL0     C11240   3.726   1.592   7.669  0.1667  0.7733 -0.2450
   86MOL0     C11241   3.861   1.596   7.739  0.1251 -0.9399  0.8706
   86MOL0     C11242   3.907   1.739   7.782 -0.3721 -0.3392 -0.1638
   86MOL0     C11243   4.045   1.728   7.852  0.1496  0.6372 -0.0672
   86MOL0     O11244   4.143   1.698   7.750 -0.4582 -0.4243 -0.3632
   86MOL0     C11245   4.277   1.690   7.791  0.5285 -0.1909  0.0975
   86MOL0     C11246   4.336   1.706   7.922 -0.4062 -0.0504  0.6370
   86MOL0     C11247   4.475   1.702   7.932  0.1417 -0.1163  0.7056
   86MOL0     C11248   4.559   1.669   7.828  0.0884 -0.9204 -0.5431
   86MOL0     C11249   4.708   1.646   7.842 -0.3059 -0.2139 -0.9274
   86MOL0     O11250   4.756   1.701   7.956 -0.1142 -0.0307 -0.0634
   86MOL0     C11251   4.889   1.726   7.951 -0.3923 -0.0346  0.4149
   86MOL0     C11252   4.949   1.793   7.840 -0.6902 -0.2438  0.6454
   86MOL0     C11253   5.085   1.792   7.812  0.1059  0.1143 -0.4247
   86MOL0     C11254   5.167   1.737   7.908 -0.6199  0.6394  0.2292
   86MOL0     O11255   5.306   1.724   7.889  0.3907 -0.8672  0.1884
   86MOL0     C11256   5.370   1.797   7.784  0.2525 -0.1208  0.7889
   86MOL0     C11257   5.522   1.792   7.792 -0.2054 -0.9813  0.9027
   86MOL0     C11258   5.583   1.660   7.759 -0.3713  0.6678  0.7568
   86MOL0     C11259   5.732   1.670   7.716  0.1014 -0.3797 -0.3794
   86MOL0     C11260   5.785   1.526   7.695  0.3722  0.4000  0.6761
   86MOL0     C11261   5.940   1.537   7.677 -0.1618  0.0907  0.4112
   86MOL0     C11262   6.009   1.403   7.701  0.5012  0.2110  0.2752
   86MOL0     C11263   6.157   1.415   7.649 -0.4292  0.7225 -0.0039
   86MOL0    Cl11264   6.265   1.512   7.757  0.2795  0.2059  0.2815
   86MOL0     C11265   5.113   1.693   8.032 -0.6252  0.3293  0.3457
   86MOL0     C11266   4.976   1.668   8.047 -0.3141  0.0876  0.4692
   86MOL0     O11267   4.768   1.590   7.752 -0.4767  0.0022  0.0948
   86MOL0     C11268   4.500   1.656   7.706  0.0939  0.0911 -0.1842
   86MOL0     C11269   4.362   1.669   7.688 -0.0101  0.0787  0.0559
   86MOL0     N11270   3.585   1.802   7.633  0.1538 -0.7095  0.6170
   86MOL0     N11271   3.485   1.858   7.690 -0.2733 -0.2917  0.3779
   86MOL0     C11272   4.310   2.400   8.196 -0.0770 -0.2721  0.0192
   86MOL0     C11273   4.448   2.400   8.188  0.5100  0.2750 -0.3461
   86MOL0     C11274   4.843   2.403   8.014 -0.6500  0.1585 -0.2703
   86MOL0     C11275   4.897   2.498   7.924  0.4209  0.1993 -0.4026
   86MOL0     C11276   5.037   2.516   7.912 -0.6902  0.1366 -0.1093
   86MOL0     C11277   5.125   2.446   7.988  0.0669 -0.3757  0.3069
   86MOL0     O11278   5.263   2.471   7.983 -0.1705  0.4970 -0.0267
   86MOL0     C11279   5.349   2.352   7.969 -0.1142  0.2623 -0.2966
   86MOL0     C11280   5.487   2.392   7.913  0.1228 -0.1343 -0.2203
   86MOL0     C11281   5.569   2.483   8.006  0.7720  0.2046 -0.8521
   86MOL0     C11282   5.583   2.437   8.154 -0.0787  0.7323  0.3837
   86MOL0     C11283   5.672   2.533   8.232 -0.2515 -0.2883 -0.1156
   86MOL0     C11284   5.740   2.616   8.276 -0.2070 -0.6156 -0.3709
   86MOL0     C11285   5.068   2.342   8.078 -0.0223 -0.5984  0.5648
   86MOL0     C11286   4.932   2.327   8.087  0.7013 -0.1017  0.1356
   86MOL0     H11287   4.506   2.137   7.987  1.8038 -0.7916  0.9819
   86MOL0     H11288   4.254   2.131   7.986  2.0002 -1.5727  0.4509
   86MOL0     H11289   4.040   2.109   8.125 -1.8123 -0.0846  1.4117
   86MOL0     H11290   4.014   2.201   7.980 -1.9546  0.4795 -1.0258
   86MOL0     H11291   3.841   2.325   8.078 -0.6576  1.6934  2.1090
   86MOL0     H11292   3.886   2.287   8.238  1.5294  0.9825  0.2004
   86MOL0     H11293   3.692   2.150   8.215 -0.4150  1.3915  1.0633
   86MOL0     H11294   3.814   2.034   8.175  1.2881  1.1682  1.3368
   86MOL0     H11295   3.725   2.217   7.937 -0.5133  0.7743  0.3418
   86MOL0     H11296   3.796   2.048   7.943 -1.5670 -1.5254  2.0879
   86MOL0     H11297   3.538   2.067   7.881  1.0080  2.2686 -0.4806
   86MOL0     H11298   3.525   2.149   8.037  2.0986  2.0990  0.6435
   86MOL0     H11299   3.585   1.968   8.164  1.3659  1.0426 -0.2592
   86MOL0     H11300   3.645   1.885   8.035 -0.4723  0.7362 -1.0327
   86MOL0     H11301   3.404   1.795   8.098 -2.2286  0.0022 -0.0955
   86MOL0     H11302   3.347   1.954   8.094 -0.0955 -1.1232  1.0469
   86MOL0     H11303   3.312   1.936   7.856  3.0295  1.3719 -0.5147
   86MOL0     H11304   3.276   1.776   7.910  0.7772  0.2413 -1.0229
   86MOL0     H11305   3.555   1.632   7.914 -0.2615 -0.1585 -1.1525
   86MOL0     H11306   3.741   1.608   7.561  0.4674  0.5579 -0.2366
   86MOL0     H11307   3.682   1.492   7.682 -1.0375  0.9202 -2.5599
   86MOL0     H11308   3.928   1.548   7.667  0.5046 -1.1327  1.3532
   86MOL0     H11309   3.841   1.534   7.826  1.6807 -3.2125 -0.3003
   86MOL0     H11310   3.924   1.800   7.693  1.4205 -1.6686 -0.7886
   86MOL0     H11311   3.832   1.783   7.849 -0.9288 -1.3238 -0.1313
   86MOL0     H11312   4.039   1.651   7.930 -2.7572  1.9432  1.1319
   86MOL0     H11313   4.063   1.823   7.903  1.1571 -0.8290  2.5257
   86MOL0     H11314   4.280   1.736   8.009  2.3883  3.0301  1.5680
   86MOL0     H11315   4.525   1.707   8.029  0.4841 -2.4233  0.6999
   86MOL0     H11316   4.887   1.842   7.765  2.0519  0.5143 -1.2905
   86MOL0     H11317   5.128   1.847   7.728 -0.5192 -1.5121 -1.8640
   86MOL0     H11318   5.346   1.904   7.775 -1.6517 -0.3862  2.2323
   86MOL0     H11319   5.337   1.760   7.687  0.5279  1.6791 -0.0388
   86MOL0     H11320   5.567   1.831   7.884  1.3817  3.3934 -1.4382
   86MOL0     H11321   5.552   1.870   7.721  0.6745 -0.5574  1.7149
   86MOL0     H11322   5.537   1.600   7.680  2.9579  0.9039 -1.5518
   86MOL0     H11323   5.578   1.605   7.854  1.4960  1.1502  1.1644
   86MOL0     H11324   5.724   1.726   7.622  1.0399  1.1180  0.3931
   86MOL0     H11325   5.788   1.710   7.800 -0.8788 -3.0208  1.6913
   86MOL0     H11326   5.744   1.477   7.606  0.0974 -0.3925  1.2334
   86MOL0     H11327   5.757   1.473   7.786 -1.2387 -0.3149 -0.2041
   86MOL0     H11328   5.979   1.603   7.755  0.7008  1.4144 -1.0799
   86MOL0     H11329   5.958   1.583   7.579 -0.7158  0.7568  0.6154
   86MOL0     H11330   5.991   1.380   7.806 -0.4464  0.5905  0.2025
   86MOL0     H11331   5.952   1.331   7.641  1.0627  0.3242 -0.4185
   86MOL0     H11332   6.163   1.460   7.550  1.8088 -0.0207 -0.2634
   86MOL0     H11333   6.205   1.319   7.627 -0.4058  0.6282  0.4471
   86MOL0     H11334   5.183   1.650   8.104 -2.2953 -2.2563  0.5649
   86MOL0     H11335   4.933   1.606   8.125  1.1153 -0.0644  1.1688
   86MOL0     H11336   4.557   1.624   7.619  0.9974 -0.0795  0.4522
   86MOL0     H11337   4.320   1.656   7.588 -2.5527 -1.9763  1.2749
   86MOL0     H11338   4.256   2.484   8.237 -0.9635 -1.3896  1.2087
   86MOL0     H11339   4.494   2.483   8.242 -1.9914  0.8458  1.0831
   86MOL0     H11340   4.844   2.561   7.853 -0.5210  0.0041  0.1211
   86MOL0     H11341   5.080   2.581   7.836  0.0476 -0.7562 -0.4692
   86MOL0     H11342   5.312   2.280   7.896  1.4469 -0.0405 -0.8232
   86MOL0     H11343   5.370   2.305   8.066  3.2829  0.7125 -0.6878
   86MOL0     H11344   5.546   2.307   7.878 -0.4750 -1.0211  0.8761
   86MOL0     H11345   5.453   2.454   7.829 -0.3784  2.9645  2.1182
   86MOL0     H11346   5.530   2.585   8.003  4.2099  1.6402 -2.2812
   86MOL0     H11347   5.669   2.476   7.962  0.9103 -1.1532 -0.3617
   86MOL0     H11348   5.477   2.441   8.180 -0.5719  1.8523 -1.5884
   86MOL0     H11349   5.612   2.332   8.161  0.4998  0.9021  0.6244
   86MOL0     H11350   5.794   2.690   8.331 -2.2075 -0.6311  1.7572
   86MOL0     H11351   5.124   2.272   8.138  1.7699 -0.0897 -0.4432
   86MOL0     H11352   4.892   2.247   8.147 -1.2105  1.6014  1.2714
   87MOL0     O11353   8.598   6.546   1.447  0.1418 -0.3664 -0.3922
   87MOL0     C11354   8.680   6.626   1.488 -0.0801  0.3974 -0.9104
   87MOL0     O11355   8.657   6.727   1.575  0.5550 -0.1179 -0.2415
   87MOL0     C11356   8.537   6.767   1.620  0.6630  0.0959  0.3231
   87MOL0     C11357   8.411   6.744   1.562  0.0677  1.1402 -1.0958
   87MOL0     C11358   8.299   6.794   1.620 -0.6778  0.1698  0.6112
   87MOL0     C11359   8.300   6.884   1.723  1.3089  0.5031  0.1446
   87MOL0     O11360   8.182   6.949   1.765 -0.4504  0.0536  0.2229
   87MOL0     C11361   8.144   6.940   1.899 -0.3522  0.2339 -0.5239
   87MOL0     C11362   8.044   7.046   1.935  0.4322  0.0878  0.7729
   87MOL0     C11363   7.908   7.008   1.882 -0.0512 -0.8870 -0.5992
   87MOL0     C11364   7.806   7.132   1.873 -0.4308 -0.1522  0.0456
   87MOL0     C11365   7.668   7.095   1.827  0.0876  0.2399 -0.0523
   87MOL0     C11366   7.563   7.164   1.913 -0.3438  0.1662  0.1167
   87MOL0     C11367   7.422   7.163   1.842 -0.0881  0.0939  0.5677
   87MOL0     C11368   7.332   7.062   1.886 -0.7224 -0.3545  0.3438
   87MOL0     N11369   7.196   7.063   1.830 -0.1765  0.2207 -0.1299
   87MOL0     C11370   7.162   7.043   1.699 -0.6595  0.2262 -0.0502
   87MOL0     C11371   7.052   7.120   1.682  0.4800 -0.4749 -0.2356
   87MOL0     C11372   6.969   7.135   1.559 -0.6928 -0.3739 -0.2419
   87MOL0     C11373   6.868   7.022   1.567 -0.4242 -0.9423  1.0702
   87MOL0     C11374   6.777   7.007   1.442 -0.4198 -0.5499  0.1564
   87MOL0     C11375   6.705   7.132   1.391 -0.5634  0.5544  0.1829
   87MOL0     O11376   6.649   7.197   1.505  0.2171  0.2063 -0.1526
   87MOL0     C11377   6.519   7.190   1.540 -0.1503 -0.2278 -0.0374
   87MOL0     C11378   6.456   7.072   1.575  0.5672  0.6213  0.2589
   87MOL0     C11379   6.320   7.078   1.623 -0.4565  0.7642 -0.1523
   87MOL0     C11380   6.250   7.204   1.625  0.0321 -0.5218  0.3716
   87MOL0     C11381   6.113   7.203   1.683  0.8801  0.1298  0.5684
   87MOL0     O11382   6.061   7.092   1.732 -0.5037  0.5390 -0.1700
   87MOL0     C11383   5.928   7.085   1.747 -0.4759 -0.3438 -0.0831
   87MOL0     C11384   5.858   6.991   1.675  0.3724 -0.7259 -0.3923
   87MOL0     C11385   5.722   6.978   1.697  0.3385  0.1687  0.1630
   87MOL0     C11386   5.650   7.056   1.788 -0.6649  1.2087 -0.7716
   87MOL0     O11387   5.521   7.013   1.816 -0.3095  0.2522  0.2953
   87MOL0     C11388   5.458   7.067   1.932  0.1061  0.0975 -0.4989
   87MOL0     C11389   5.333   6.987   1.969  0.4403  0.3340 -0.6131
   87MOL0     C11390   5.365   6.850   2.024  0.6055  0.3238 -0.7063
   87MOL0     C11391   5.259   6.755   1.982 -0.0151  0.4884  0.0478
   87MOL0     C11392   5.254   6.721   1.831 -0.0558  0.0493  0.1144
   87MOL0     C11393   5.143   6.613   1.809 -0.2399 -1.3962  1.3910
   87MOL0     C11394   5.119   6.583   1.665  0.5626  0.2438  0.8582
   87MOL0     C11395   5.006   6.681   1.606 -0.4060 -0.4161 -0.5686
   87MOL0    Cl11396   4.958   6.616   1.436  0.0867  0.2320 -0.0982
   87MOL0     C11397   5.721   7.158   1.856 -0.1981  0.4958 -0.2247
   87MOL0     C11398   5.859   7.167   1.839  0.4037 -1.0685  0.2127
   87MOL0     O11399   6.043   7.304   1.649 -0.0577  0.0389 -0.4726
   87MOL0     C11400   6.311   7.318   1.580 -0.5483  0.2400 -1.1199
   87MOL0     C11401   6.453   7.314   1.551  0.2057 -0.2535  0.3344
   87MOL0     N11402   7.007   7.169   1.801  0.5445 -0.1002 -0.1633
   87MOL0     N11403   7.098   7.134   1.891  0.0145  0.5487 -0.7129
   87MOL0     C11404   8.423   6.920   1.772 -0.0087  0.7527 -0.5411
   87MOL0     C11405   8.543   6.851   1.723 -0.3848 -0.7940  0.0806
   87MOL0     C11406   8.821   6.609   1.442 -0.4221 -0.7525  0.7776
   87MOL0     C11407   8.930   6.665   1.507  0.1066 -1.0078 -0.1120
   87MOL0     C11408   9.050   6.673   1.451  0.3082 -0.5433  0.8433
   87MOL0     C11409   9.087   6.623   1.328 -0.5973 -0.0750 -0.4876
   87MOL0     O11410   9.215   6.652   1.284 -1.1832 -0.5192 -0.0367
   87MOL0     C11411   9.253   6.614   1.156  0.3659 -0.1128 -0.0768
   87MOL0     C11412   9.382   6.679   1.120 -0.4736 -0.0446  0.4837
   87MOL0     C11413   9.402   6.662   0.965 -0.0713  0.3895  0.7040
   87MOL0     C11414   9.522   6.734   0.923 -0.5116  0.4074  0.3802
   87MOL0     C11415   9.638   6.665   0.964 -0.9048 -0.0227 -0.8090
   87MOL0     C11416   9.740   6.613   1.012 -0.0454 -0.0380 -0.2752
   87MOL0     C11417   8.997   6.537   1.263  0.5995  0.2475 -0.1104
   87MOL0     C11418   8.854   6.540   1.322 -0.7428  0.0435 -0.3136
   87MOL0     H11419   8.393   6.667   1.488  1.4698 -1.2510  0.9208
   87MOL0     H11420   8.202   6.771   1.576 -1.1427 -0.1900  1.7902
   87MOL0     H11421   8.233   6.965   1.958 -1.4194 -1.3234  1.9437
   87MOL0     H11422   8.103   6.844   1.932  0.0822  0.4918  0.8622
   87MOL0     H11423   8.096   7.126   1.881  0.7661 -1.4628 -1.3151
   87MOL0     H11424   8.033   7.059   2.043 -2.5117 -1.3028  0.7318
   87MOL0     H11425   7.867   6.931   1.948 -0.6561  0.7594  1.0210
   87MOL0     H11426   7.906   6.972   1.779 -0.4196 -0.5301 -0.7196
   87MOL0     H11427   7.797   7.160   1.978  0.4456 -1.7792  0.5929
   87MOL0     H11428   7.842   7.213   1.809 -0.1449  1.1079  1.7490
   87MOL0     H11429   7.659   6.987   1.839  1.4076  0.3325  2.4139
   87MOL0     H11430   7.646   7.131   1.726 -0.2790  2.9272  0.8903
   87MOL0     H11431   7.588   7.269   1.931  0.5337 -0.0759  0.3245
   87MOL0     H11432   7.568   7.105   2.005  0.5477  1.6862  1.0757
   87MOL0     H11433   7.385   7.262   1.871 -2.5006 -0.7746  0.6644
   87MOL0     H11434   7.432   7.170   1.734  0.4915  2.0043  0.7132
   87MOL0     H11435   7.321   7.078   1.994 -0.5670  1.3678  0.1316
   87MOL0     H11436   7.373   6.962   1.867 -0.9056 -1.1685  3.6076
   87MOL0     H11437   7.217   6.982   1.629 -0.0430 -0.8219  1.3066
   87MOL0     H11438   7.034   7.132   1.471  0.1008  1.9320  0.1913
   87MOL0     H11439   6.916   7.231   1.556 -2.0207 -1.1064 -2.3026
   87MOL0     H11440   6.810   7.041   1.658 -1.1168  0.6047  0.3444
   87MOL0     H11441   6.913   6.923   1.578 -0.9578 -1.5614 -1.4883
   87MOL0     H11442   6.840   6.975   1.359  0.5776 -0.0655  0.7059
   87MOL0     H11443   6.705   6.927   1.461 -0.0885 -1.1181 -0.8815
   87MOL0     H11444   6.635   7.100   1.312 -0.2755 -1.5334  0.7050
   87MOL0     H11445   6.771   7.204   1.342  0.2468 -1.2967 -1.6007
   87MOL0     H11446   6.524   6.989   1.585  1.1568  0.5698 -3.0233
   87MOL0     H11447   6.273   6.996   1.677 -0.3684  2.1767  2.1998
   87MOL0     H11448   5.909   6.921   1.609 -0.1303 -1.0746 -0.4133
   87MOL0     H11449   5.667   6.894   1.657  0.9522 -0.9819  1.6748
   87MOL0     H11450   5.418   7.168   1.919  1.6292  0.7701 -0.2413
   87MOL0     H11451   5.521   7.071   2.022 -1.6998  1.9021  0.7884
   87MOL0     H11452   5.261   6.974   1.888 -0.9779 -1.6671  0.8823
   87MOL0     H11453   5.275   7.040   2.045 -3.0250 -0.0040 -2.7683
   87MOL0     H11454   5.366   6.855   2.133 -2.4075  0.1527 -0.5970
   87MOL0     H11455   5.463   6.812   1.993  0.7503  2.4325 -3.1256
   87MOL0     H11456   5.269   6.658   2.031 -1.8580  0.3530  0.2394
   87MOL0     H11457   5.163   6.786   2.024  0.3903 -1.7129  2.8627
   87MOL0     H11458   5.349   6.681   1.796 -0.5580 -1.5657  0.5192
   87MOL0     H11459   5.222   6.809   1.774 -0.6110 -0.3813 -0.2458
   87MOL0     H11460   5.044   6.636   1.849  0.2329  0.4980  1.6092
   87MOL0     H11461   5.179   6.522   1.857 -0.8005 -2.1391  0.4354
   87MOL0     H11462   5.209   6.600   1.604 -0.9817  0.5025 -1.4977
   87MOL0     H11463   5.090   6.478   1.653 -3.0871  1.2123 -0.0706
   87MOL0     H11464   5.041   6.785   1.602  0.8757 -0.8497 -1.3542
   87MOL0     H11465   4.916   6.685   1.667 -0.6812 -0.2930 -0.9739
   87MOL0     H11466   5.669   7.227   1.922 -1.0255 -0.3906  0.0633
   87MOL0     H11467   5.906   7.244   1.898 -2.7627 -0.3945  2.1176
   87MOL0     H11468   6.268   7.418   1.583  3.0313  1.9637 -0.4215
   87MOL0     H11469   6.511   7.403   1.531  1.8899 -1.2066  0.7800
   87MOL0     H11470   8.428   6.990   1.854 -1.5611 -0.7965  0.9519
   87MOL0     H11471   8.632   6.859   1.785 -0.9814 -1.8180  1.1118
   87MOL0     H11472   8.919   6.729   1.594  1.3796  0.4349 -0.9503
   87MOL0     H11473   9.118   6.737   1.507  0.7364  2.5320 -2.7836
   87MOL0     H11474   9.175   6.645   1.085 -3.3665 -1.0413  3.2753
   87MOL0     H11475   9.263   6.506   1.151  1.3420  0.0129 -1.1826
   87MOL0     H11476   9.391   6.786   1.145 -5.7814  0.7577  0.1935
   87MOL0     H11477   9.451   6.622   1.182 -1.3710  0.7512  2.3305
   87MOL0     H11478   9.314   6.711   0.922  0.4344  2.3787  1.7566
   87MOL0     H11479   9.411   6.560   0.927 -0.6224  0.7456 -0.4351
   87MOL0     H11480   9.518   6.739   0.813 -0.6118  1.4740  0.4191
   87MOL0     H11481   9.513   6.832   0.971 -3.4337 -0.6412  2.1934
   87MOL0     H11482   9.825   6.564   1.055  2.2183  4.9527  1.7053
   87MOL0     H11483   9.026   6.482   1.174  0.6702  0.2793 -0.1062
   87MOL0     H11484   8.777   6.479   1.275 -2.1633  1.2789  0.3172
   88MOL0     O11485   7.920  10.658   7.741 -0.0762  0.2592 -0.2293
   88MOL0     C11486   7.983  10.758   7.762 -0.1638 -1.7987  0.0706
   88MOL0     O11487   7.928  10.885   7.791 -0.6382  0.4781 -0.1472
   88MOL0     C11488   7.814  10.904   7.862  0.1359  0.7148  0.6991
   88MOL0     C11489   7.696  10.832   7.861 -0.4156  0.4153  0.3841
   88MOL0     C11490   7.590  10.868   7.940 -0.2725  0.4976  0.3034
   88MOL0     C11491   7.601  10.974   8.031  0.2381 -0.3991  0.1924
   88MOL0     O11492   7.499  11.007   8.114  0.1771 -0.1239 -0.3226
   88MOL0     C11493   7.539  11.014   8.256  0.3416  0.3477  0.2618
   88MOL0     C11494   7.416  11.008   8.345 -0.1700 -0.7448 -0.7543
   88MOL0     C11495   7.305  10.909   8.299  0.0671 -0.0296 -0.2037
   88MOL0     C11496   7.183  10.923   8.387  0.3474  0.4639 -0.0256
   88MOL0     C11497   7.063  10.859   8.331 -0.1932 -0.7113  0.0969
   88MOL0     C11498   6.968  10.793   8.434 -0.5262 -1.1846  0.2033
   88MOL0     C11499   6.836  10.766   8.373 -0.4563  0.6645  0.4215
   88MOL0     C11500   6.747  10.727   8.487  0.1796  0.5599  0.0382
   88MOL0     N11501   6.626  10.663   8.426  0.0660 -0.1776 -0.0275
   88MOL0     C11502   6.613  10.532   8.413 -0.7369  0.9062 -1.0134
   88MOL0     C11503   6.499  10.505   8.348  0.4632 -0.3026  0.7316
   88MOL0     C11504   6.447  10.368   8.295  0.4685 -0.1773 -0.3188
   88MOL0     C11505   6.344  10.378   8.187  0.3200 -0.1653 -0.1090
   88MOL0     C11506   6.206  10.426   8.236 -0.1127  0.5705 -0.3809
   88MOL0     C11507   6.140  10.329   8.336  0.3971 -0.1926 -0.9266
   88MOL0     O11508   6.017  10.390   8.378  0.0682 -0.1052  0.1692
   88MOL0     C11509   5.905  10.364   8.308  0.4754  0.7095 -0.0156
   88MOL0     C11510   5.787  10.375   8.385  0.3853  0.2658  0.4327
   88MOL0     C11511   5.663  10.332   8.341 -0.1058  0.3636 -0.2897
   88MOL0     C11512   5.650  10.266   8.216  0.9257 -1.1823  0.0849
   88MOL0     C11513   5.520  10.204   8.169 -0.0180  0.3634  0.1352
   88MOL0     O11514   5.404  10.258   8.214  0.2684 -0.1951 -0.0563
   88MOL0     C11515   5.285  10.218   8.154 -0.3242 -0.2262  0.4765
   88MOL0     C11516   5.175  10.160   8.235 -0.3804  1.1050 -1.0174
   88MOL0     C11517   5.053  10.130   8.177  0.3465 -0.4833  0.3218
   88MOL0     C11518   5.033  10.155   8.039 -0.0822 -0.3663 -0.2258
   88MOL0     O11519   4.910  10.117   7.985  0.2869  0.1849  0.3927
   88MOL0     C11520   4.925   9.995   7.914 -0.0218 -0.2355 -0.0460
   88MOL0     C11521   4.798   9.979   7.824  0.4257  0.7755  0.0195
   88MOL0     C11522   4.671   9.958   7.910 -0.4838 -0.2538  1.3437
   88MOL0     C11523   4.545   9.950   7.820 -0.3276  1.0857 -0.8024
   88MOL0     C11524   4.430   9.938   7.912  0.6051 -0.2567  0.2735
   88MOL0     C11525   4.296   9.888   7.837  1.0538 -0.1555 -1.0374
   88MOL0     C11526   4.185   9.860   7.933 -0.3168  0.4945  0.1722
   88MOL0     C11527   4.054   9.820   7.855  0.1985 -0.7978 -0.6039
   88MOL0    Cl11528   3.956   9.965   7.805  0.1653  0.6722  0.3706
   88MOL0     C11529   5.137  10.207   7.956 -0.2662  0.1250  0.2405
   88MOL0     C11530   5.261  10.234   8.016  0.5382 -0.2538 -0.1853
   88MOL0     O11531   5.523  10.111   8.088  0.7762  0.1968  0.1008
   88MOL0     C11532   5.768  10.257   8.132 -1.1183  0.5862 -1.1415
   88MOL0     C11533   5.892  10.316   8.178  0.5060  0.4870  1.2389
   88MOL0     N11534   6.439  10.636   8.332 -0.5695 -0.9513 -0.0469
   88MOL0     N11535   6.518  10.727   8.372 -0.1216  0.9375 -0.3112
   88MOL0     C11536   7.713  11.058   8.028 -0.6619 -0.4134  0.1969
   88MOL0     C11537   7.822  11.017   7.946  0.4216 -0.2177  0.4749
   88MOL0     C11538   8.131  10.745   7.757  0.0014  0.5896  0.6764
   88MOL0     C11539   8.218  10.851   7.787 -0.0277  1.2730  0.0765
   88MOL0     C11540   8.353  10.825   7.778  0.3158 -0.2001 -0.3089
   88MOL0     C11541   8.408  10.705   7.745  0.4577  0.8444  0.4221
   88MOL0     O11542   8.542  10.703   7.734  0.4827 -0.2988 -0.1250
   88MOL0     C11543   8.605  10.587   7.783 -0.3566 -0.2216 -0.4787
   88MOL0     C11544   8.753  10.605   7.819 -0.5110 -0.6127 -0.7545
   88MOL0     C11545   8.837  10.485   7.842  0.1840  0.1191 -0.3692
   88MOL0     C11546   8.984  10.501   7.822 -0.0409  0.0239 -0.3039
   88MOL0     C11547   9.075  10.383   7.809  0.2636 -0.5074  0.0404
   88MOL0     C11548   9.161  10.295   7.799 -0.2380 -0.0297 -0.2431
   88MOL0     C11549   8.328  10.604   7.705 -0.5655  0.1575 -0.6073
   88MOL0     C11550   8.191  10.622   7.717 -0.3165 -0.6937 -0.0193
   88MOL0     H11551   7.693  10.737   7.807 -2.3772  2.0196 -2.6250
   88MOL0     H11552   7.494  10.817   7.938 -0.6217  1.1757 -0.8590
   88MOL0     H11553   7.579  11.115   8.269  1.2839 -0.1989  1.8184
   88MOL0     H11554   7.622  10.948   8.282  1.0687 -0.2940 -3.1477
   88MOL0     H11555   7.378  11.111   8.347  0.6020 -0.4661  1.2439
   88MOL0     H11556   7.444  10.999   8.450 -1.0335  2.9521 -0.0529
   88MOL0     H11557   7.344  10.807   8.313 -2.3254 -1.2116 -1.3807
   88MOL0     H11558   7.282  10.921   8.192  0.7126  0.3515 -0.3050
   88MOL0     H11559   7.218  10.881   8.482 -1.1549 -1.9162 -0.4421
   88MOL0     H11560   7.163  11.030   8.403 -1.3372  0.2941 -0.9052
   88MOL0     H11561   7.089  10.786   8.255 -3.1315 -1.9602  0.1617
   88MOL0     H11562   7.009  10.941   8.281 -0.9929 -0.2126  1.7092
   88MOL0     H11563   6.944  10.863   8.515 -2.2227 -1.0715 -0.3676
   88MOL0     H11564   7.017  10.706   8.479  2.8662  0.7139  0.5911
   88MOL0     H11565   6.790  10.851   8.322 -1.2780 -0.2227 -0.3819
   88MOL0     H11566   6.841  10.681   8.305 -0.9194 -0.2603  1.5029
   88MOL0     H11567   6.730  10.813   8.553  0.5473 -1.0499  2.3603
   88MOL0     H11568   6.805  10.647   8.534  3.6065  1.6741 -1.9451
   88MOL0     H11569   6.684  10.457   8.447 -1.5851  1.1150  1.4149
   88MOL0     H11570   6.413  10.305   8.378  1.2630  0.3567  0.4395
   88MOL0     H11571   6.532  10.311   8.258  0.8924  0.2695 -0.0478
   88MOL0     H11572   6.336  10.288   8.125  3.2063 -0.9917  0.5801
   88MOL0     H11573   6.377  10.448   8.109 -2.2878  2.2563  0.7987
   88MOL0     H11574   6.207  10.523   8.288 -1.2581  0.5545 -0.2968
   88MOL0     H11575   6.129  10.433   8.159 -2.1499 -1.8101  1.2667
   88MOL0     H11576   6.207  10.319   8.422  0.2742 -1.7022 -0.9668
   88MOL0     H11577   6.126  10.228   8.297  2.2338 -0.5020 -0.8709
   88MOL0     H11578   5.780  10.419   8.484 -2.2506  0.9367  0.0418
   88MOL0     H11579   5.576  10.338   8.405 -1.9540 -1.3109 -2.4678
   88MOL0     H11580   5.187  10.123   8.336 -1.2669  1.3852 -0.8036
   88MOL0     H11581   4.970  10.088   8.232 -0.1553 -0.1164 -0.1534
   88MOL0     H11582   4.935   9.906   7.977  1.3290 -2.1282 -2.7095
   88MOL0     H11583   5.019  10.004   7.859  1.4029  1.7871  2.4982
   88MOL0     H11584   4.809   9.888   7.764  0.0476  0.0511  1.0228
   88MOL0     H11585   4.795  10.058   7.748  3.0200 -0.1751 -1.2123
   88MOL0     H11586   4.659  10.044   7.976  0.9336 -0.1631  1.5095
   88MOL0     H11587   4.680   9.869   7.974 -1.5910 -0.7753  0.8092
   88MOL0     H11588   4.526  10.041   7.763 -2.2530  1.2380 -0.0236
   88MOL0     H11589   4.545   9.869   7.747 -1.3624  0.6748 -0.3642
   88MOL0     H11590   4.419  10.032   7.967 -2.1390 -0.5243  0.3473
   88MOL0     H11591   4.435   9.858   7.987 -0.8607 -0.7508 -0.1111
   88MOL0     H11592   4.313   9.798   7.776  3.6037 -1.6675  1.6336
   88MOL0     H11593   4.266   9.956   7.757  0.6545  1.8385  0.7213
   88MOL0     H11594   4.237   9.774   7.977  3.1190  1.0453 -2.3599
   88MOL0     H11595   4.157   9.933   8.010 -0.2824 -0.9881  1.6687
   88MOL0     H11596   3.988   9.748   7.906 -0.2397 -1.3264 -1.8747
   88MOL0     H11597   4.076   9.781   7.755 -0.3529  0.5636 -1.2775
   88MOL0     H11598   5.125  10.219   7.848  1.2721 -1.9748 -0.2337
   88MOL0     H11599   5.336  10.270   7.947 -0.5348 -0.4521 -1.4960
   88MOL0     H11600   5.766  10.198   8.041 -1.9620 -1.5714  0.1978
   88MOL0     H11601   5.981  10.309   8.115 -0.3847  1.7218 -0.2266
   88MOL0     H11602   7.709  11.150   8.086  0.6429 -0.4722  0.3938
   88MOL0     H11603   7.915  11.072   7.958  0.5750 -0.8268  2.3861
   88MOL0     H11604   8.184  10.949   7.820 -1.7275  0.4330  0.9387
   88MOL0     H11605   8.432  10.895   7.804  2.6717 -2.2282 -1.5196
   88MOL0     H11606   8.602  10.516   7.701  0.9168  0.1643 -0.8717
   88MOL0     H11607   8.563  10.533   7.868  2.4008 -1.7682  0.0134
   88MOL0     H11608   8.796  10.667   7.740 -1.2791  0.6882 -0.1909
   88MOL0     H11609   8.767  10.679   7.898 -0.6181 -1.5324  0.1412
   88MOL0     H11610   8.796  10.408   7.775  1.9788  0.3487 -1.8047
   88MOL0     H11611   8.817  10.431   7.935 -0.5683 -1.6643 -1.5027
   88MOL0     H11612   9.002  10.577   7.745 -0.8019  1.7754  1.1631
   88MOL0     H11613   9.018  10.556   7.911  2.1154 -0.8890 -0.4869
   88MOL0     H11614   9.244  10.228   7.806  1.0149  1.3518 -1.0607
   88MOL0     H11615   8.368  10.506   7.680  0.4649  0.6489 -0.8985
   88MOL0     H11616   8.121  10.547   7.684 -1.8379  0.8102 -0.3721
   89MOL0     O11617   9.070   2.161   1.784  0.0564  0.2145 -0.3264
   89MOL0     C11618   9.038   2.263   1.843 -0.0893 -0.0747  0.5608
   89MOL0     O11619   8.953   2.356   1.794  0.0032  0.9259  0.3360
   89MOL0     C11620   8.894   2.341   1.666 -0.3445  0.2672 -0.5560
   89MOL0     C11621   8.762   2.376   1.653 -0.8896  0.1751 -0.0064
   89MOL0     C11622   8.706   2.378   1.526 -0.6002 -0.1493  0.4625
   89MOL0     C11623   8.785   2.364   1.412  0.7372  0.6241 -0.8020
   89MOL0     O11624   8.716   2.383   1.297 -0.1888  0.3026 -0.0395
   89MOL0     C11625   8.783   2.393   1.169 -0.4102 -0.1786  0.7088
   89MOL0     C11626   8.694   2.439   1.053  0.1977 -0.3867  0.5552
   89MOL0     C11627   8.613   2.572   1.086 -0.0587  0.8941 -0.3393
   89MOL0     C11628   8.693   2.672   1.158  0.0246  0.2091 -0.0819
   89MOL0     C11629   8.627   2.814   1.138 -0.1423  0.0176 -0.2459
   89MOL0     C11630   8.512   2.830   1.234  1.0158  0.6823 -0.2846
   89MOL0     C11631   8.468   2.971   1.262 -0.4012 -0.0231  0.3946
   89MOL0     C11632   8.420   3.049   1.138 -0.3509  0.6963  0.5040
   89MOL0     N11633   8.324   3.155   1.164 -0.0538 -0.4348  0.5252
   89MOL0     C11634   8.358   3.273   1.220  0.0411 -0.4691 -1.4614
   89MOL0     C11635   8.242   3.346   1.198  0.6680 -0.1560 -0.6328
   89MOL0     C11636   8.216   3.486   1.246  0.8361 -0.2951 -0.8842
   89MOL0     C11637   8.068   3.538   1.236  0.2312  0.5501  0.0486
   89MOL0     C11638   7.972   3.477   1.346  0.0585  0.5622 -0.8598
   89MOL0     C11639   7.827   3.529   1.326  0.2018  0.5093  0.3034
   89MOL0     O11640   7.770   3.480   1.203  0.0436 -0.2983  0.6857
   89MOL0     C11641   7.630   3.488   1.200  0.8238 -0.4719  0.2952
   89MOL0     C11642   7.542   3.556   1.283 -0.1662 -1.1704 -0.5068
   89MOL0     C11643   7.395   3.541   1.268 -0.2421 -0.7536 -0.6389
   89MOL0     C11644   7.349   3.465   1.159 -0.3517  0.1536 -0.4030
   89MOL0     C11645   7.211   3.436   1.143  0.6109 -0.3768 -0.5744
   89MOL0     O11646   7.121   3.470   1.245  0.4881 -0.1597 -0.1153
   89MOL0     C11647   6.982   3.470   1.240  0.7985  0.5348  0.6659
   89MOL0     C11648   6.923   3.495   1.368 -0.3554  0.1540  0.8335
   89MOL0     C11649   6.785   3.479   1.394 -0.5088 -0.4475  0.4903
   89MOL0     C11650   6.707   3.441   1.284 -0.0446  0.1382  0.5978
   89MOL0     O11651   6.572   3.414   1.291  0.8142 -0.6928 -0.1422
   89MOL0     C11652   6.498   3.476   1.393 -0.2763  0.2432  1.0338
   89MOL0     C11653   6.348   3.490   1.350  0.2734 -0.4494 -0.5793
   89MOL0     C11654   6.338   3.575   1.232  0.0902 -0.2122 -0.1799
   89MOL0     C11655   6.193   3.611   1.205 -0.1455 -0.1521  0.2228
   89MOL0     C11656   6.111   3.492   1.145  0.0538  0.3703  0.4425
   89MOL0     C11657   5.997   3.523   1.038  1.0765  0.4279 -0.3839
   89MOL0     C11658   5.906   3.620   1.107  0.9264  0.0460  0.1947
   89MOL0     C11659   5.776   3.640   1.031 -0.3030  0.7633  0.7341
   89MOL0    Cl11660   5.654   3.748   1.113 -0.1970 -0.1792 -0.3202
   89MOL0     C11661   6.760   3.431   1.155 -0.9002  0.3609 -0.3099
   89MOL0     C11662   6.899   3.443   1.134 -0.0127 -1.1007 -0.0537
   89MOL0     O11663   7.170   3.379   1.039 -0.3090  0.2397  0.0017
   89MOL0     C11664   7.438   3.403   1.072 -0.7830 -0.1853  0.1765
   89MOL0     C11665   7.575   3.417   1.092  0.2372 -0.3035 -0.4126
   89MOL0     N11666   8.145   3.267   1.144 -0.2609  0.1178 -0.1231
   89MOL0     N11667   8.194   3.152   1.119  0.0012  0.4344 -0.5968
   89MOL0     C11668   8.919   2.329   1.430  0.2987  0.6247  1.2311
   89MOL0     C11669   8.972   2.320   1.557  0.7851  0.5253  0.2902
   89MOL0     C11670   9.092   2.275   1.971  0.4136 -0.3661  0.5054
   89MOL0     C11671   9.163   2.173   2.042 -0.1190 -0.2274 -0.5053
   89MOL0     C11672   9.214   2.188   2.168 -0.5979  0.0583  0.5409
   89MOL0     C11673   9.185   2.313   2.232 -0.5402  0.1442  0.1874
   89MOL0     O11674   9.241   2.329   2.362  0.8930 -0.1584  0.7596
   89MOL0     C11675   9.162   2.402   2.453 -0.8068 -0.1962 -0.2977
   89MOL0     C11676   9.211   2.364   2.594  0.1243 -0.2400 -0.3717
   89MOL0     C11677   9.356   2.405   2.636  0.5579 -0.4504 -0.9816
   89MOL0     C11678   9.364   2.422   2.788  0.1267  0.1209  0.3318
   89MOL0     C11679   9.499   2.476   2.811  0.2807 -0.4939  0.2125
   89MOL0     C11680   9.617   2.500   2.825 -0.8023  0.8201 -0.8502
   89MOL0     C11681   9.111   2.419   2.167  0.0407  0.4823  0.5495
   89MOL0     C11682   9.070   2.400   2.028 -0.1680  0.3855 -0.6819
   89MOL0     H11683   8.702   2.407   1.738 -2.4132  2.0613 -1.6539
   89MOL0     H11684   8.600   2.404   1.520 -0.2393  1.0665 -1.5205
   89MOL0     H11685   8.817   2.292   1.143 -1.5964 -0.3531 -0.2904
   89MOL0     H11686   8.869   2.458   1.186 -0.1055 -0.0133 -1.2304
   89MOL0     H11687   8.615   2.366   1.033 -1.7484  0.5561  4.0139
   89MOL0     H11688   8.759   2.463   0.968 -4.0991 -1.6780 -3.4666
   89MOL0     H11689   8.523   2.542   1.140  1.0826 -0.9515  0.6731
   89MOL0     H11690   8.596   2.604   0.983 -0.0742  1.5336 -0.1387
   89MOL0     H11691   8.713   2.647   1.263 -0.7976  2.3863  0.6754
   89MOL0     H11692   8.788   2.675   1.105 -0.3153  2.2905 -0.6740
   89MOL0     H11693   8.595   2.843   1.037 -0.1450  0.3987 -0.1396
   89MOL0     H11694   8.701   2.888   1.169 -0.3273  1.0773 -2.1391
   89MOL0     H11695   8.547   2.775   1.322  2.4486  3.7036  1.2262
   89MOL0     H11696   8.422   2.784   1.194 -0.6805  2.7973  0.9082
   89MOL0     H11697   8.391   2.971   1.340  0.0177 -1.0296  0.8245
   89MOL0     H11698   8.552   3.028   1.303 -0.7712  0.2261  0.8285
   89MOL0     H11699   8.369   2.978   1.073 -1.8268 -0.8064  3.1207
   89MOL0     H11700   8.505   3.087   1.080  2.9532 -3.4829  2.1298
   89MOL0     H11701   8.450   3.305   1.268 -1.4801 -0.7174  1.9125
   89MOL0     H11702   8.281   3.553   1.189  0.0701 -0.7831 -2.3694
   89MOL0     H11703   8.239   3.488   1.353 -1.3112  2.9836 -0.3344
   89MOL0     H11704   8.029   3.506   1.139  1.3768  0.4020 -0.3688
   89MOL0     H11705   8.056   3.647   1.234 -1.9893  0.4348  2.0490
   89MOL0     H11706   7.967   3.368   1.337  0.9158  0.4293  0.1508
   89MOL0     H11707   8.007   3.498   1.447 -2.6423 -0.1478  0.3227
   89MOL0     H11708   7.810   3.637   1.321 -2.9168  0.2525  2.5532
   89MOL0     H11709   7.764   3.498   1.410 -0.4386 -1.5941 -0.8676
   89MOL0     H11710   7.572   3.610   1.373 -3.5051 -0.6972  0.4687
   89MOL0     H11711   7.325   3.596   1.329  1.1381 -1.5955  1.8707
   89MOL0     H11712   6.978   3.516   1.460 -1.1634  0.0147  1.3621
   89MOL0     H11713   6.741   3.505   1.490 -0.1466  0.5957  0.3901
   89MOL0     H11714   6.539   3.575   1.413 -1.9249  1.0994  0.3586
   89MOL0     H11715   6.511   3.409   1.479 -0.8549 -1.2546  0.0053
   89MOL0     H11716   6.293   3.531   1.435  0.1916 -0.6448 -0.5380
   89MOL0     H11717   6.307   3.393   1.321 -2.6092  0.7185 -0.7136
   89MOL0     H11718   6.372   3.522   1.143  1.2642  1.3370 -0.6810
   89MOL0     H11719   6.394   3.668   1.236 -2.1206  1.1891  0.0451
   89MOL0     H11720   6.149   3.637   1.302 -1.4101  0.9289 -0.5993
   89MOL0     H11721   6.183   3.695   1.136  1.5353 -0.7912 -0.8763
   89MOL0     H11722   6.066   3.432   1.225 -0.2919 -3.6780 -2.4679
   89MOL0     H11723   6.184   3.424   1.100 -0.3161 -0.4455  1.0552
   89MOL0     H11724   5.942   3.433   1.007 -1.1549  0.5987  2.5663
   89MOL0     H11725   6.034   3.566   0.945  1.7266 -0.3952 -0.5214
   89MOL0     H11726   5.874   3.588   1.206  1.0144  0.9324  0.5136
   89MOL0     H11727   5.949   3.720   1.117 -1.0590  0.6988  3.2900
   89MOL0     H11728   5.728   3.542   1.024 -0.5351  0.9448 -0.6123
   89MOL0     H11729   5.799   3.675   0.930 -0.8297 -0.0696  0.3122
   89MOL0     H11730   6.705   3.393   1.070 -0.2402 -1.5681  0.0720
   89MOL0     H11731   6.944   3.438   1.035 -0.7122  0.2355 -0.4659
   89MOL0     H11732   7.413   3.335   0.991  0.7163 -0.5501 -0.0167
   89MOL0     H11733   7.649   3.363   1.033  0.3942  0.8303 -1.2744
   89MOL0     H11734   8.973   2.315   1.337 -2.2109  3.6687 -0.8814
   89MOL0     H11735   9.078   2.309   1.581  0.7341 -0.3131  0.1247
   89MOL0     H11736   9.178   2.078   1.992 -3.9538 -0.2612 -1.9129
   89MOL0     H11737   9.281   2.115   2.213  0.1674 -0.0936 -0.8013
   89MOL0     H11738   9.059   2.370   2.439 -0.2779 -1.3849 -1.6780
   89MOL0     H11739   9.176   2.511   2.448 -2.3721  0.0192 -0.3310
   89MOL0     H11740   9.137   2.394   2.668 -1.4136 -2.6814 -0.8108
   89MOL0     H11741   9.215   2.255   2.600 -0.1356 -0.3501 -1.7912
   89MOL0     H11742   9.373   2.495   2.577 -0.4727  0.4753  0.0719
   89MOL0     H11743   9.430   2.334   2.599  1.3395  0.8211 -1.9397
   89MOL0     H11744   9.289   2.484   2.838  2.1332  1.7374  1.5060
   89MOL0     H11745   9.382   2.326   2.837 -1.9035  0.4194  1.7936
   89MOL0     H11746   9.719   2.524   2.850 -0.4250 -1.2665 -0.1410
   89MOL0     H11747   9.094   2.514   2.216 -2.4028 -0.3149  1.3733
   89MOL0     H11748   9.024   2.483   1.976  0.6262 -0.1116 -2.2359
   90MOL0     O11749   5.793   9.124   9.505  0.1930  0.2938 -0.1039
   90MOL0     C11750   5.829   9.136   9.624 -0.5603 -0.4304  0.3673
   90MOL0     O11751   5.748   9.123   9.728  0.4281  0.0882 -0.7095
   90MOL0     C11752   5.615   9.101   9.703  0.6804  0.4347  0.1273
   90MOL0     C11753   5.542   9.157   9.601  0.7112  0.2049 -0.6994
   90MOL0     C11754   5.403   9.123   9.589 -0.6946  1.1888 -0.0186
   90MOL0     C11755   5.343   9.021   9.665  0.8265 -0.5216  0.0189
   90MOL0     O11756   5.218   8.979   9.646 -0.4162 -0.4244 -0.6107
   90MOL0     C11757   5.126   9.066   9.573  0.1045  0.0554 -0.7588
   90MOL0     C11758   5.097   9.206   9.634 -0.8904 -0.7503 -0.1521
   90MOL0     C11759   4.976   9.280   9.552 -0.4247  0.2216  0.3060
   90MOL0     C11760   4.951   9.425   9.612  0.0944 -0.4610 -0.6958
   90MOL0     C11761   4.823   9.497   9.561 -0.0975  0.2020 -0.1651
   90MOL0     C11762   4.695   9.442   9.618 -0.1087  0.6811  0.1605
   90MOL0     C11763   4.576   9.499   9.548 -0.1142 -0.1450  0.3427
   90MOL0     C11764   4.444   9.427   9.594 -0.2461  0.3821 -0.3133
   90MOL0     N11765   4.333   9.461   9.499  0.6622  0.4544 -0.9279
   90MOL0     C11766   4.285   9.588   9.477 -0.8334 -0.2814  0.1529
   90MOL0     C11767   4.170   9.567   9.407  0.4727  0.5248  0.0438
   90MOL0     C11768   4.091   9.686   9.354 -0.1539  0.5855 -0.0493
   90MOL0     C11769   4.091   9.802   9.452  0.9859 -1.2368  0.5480
   90MOL0     C11770   3.989   9.917   9.416  0.3594  0.2083  0.1656
   90MOL0     C11771   3.845   9.888   9.454  1.2571  0.9619 -0.4399
   90MOL0     O11772   3.777   9.821   9.347 -0.2721 -0.4347  0.0093
   90MOL0     C11773   3.641   9.808   9.375 -0.3916  0.9119 -0.9555
   90MOL0     C11774   3.542   9.907   9.350 -0.0955  0.2247  0.0709
   90MOL0     C11775   3.413   9.871   9.368  0.3061 -0.0592 -0.6238
   90MOL0     C11776   3.376   9.754   9.442 -0.1011 -0.0917  0.5797
   90MOL0     C11777   3.243   9.732   9.475  0.3144 -0.0892  0.2027
   90MOL0     O11778   3.220   9.612   9.521 -0.6847  0.0125 -0.5138
   90MOL0     C11779   3.086   9.577   9.521 -0.3730 -0.5022  0.8526
   90MOL0     C11780   3.037   9.517   9.641  0.1474 -0.1305  0.1642
   90MOL0     C11781   2.905   9.468   9.647 -0.2245 -0.2371  0.2097
   90MOL0     C11782   2.824   9.461   9.538  0.2858 -0.2100  0.6150
   90MOL0     O11783   2.695   9.410   9.537 -0.1425  0.0579  0.3269
   90MOL0     C11784   2.643   9.344   9.655 -0.8074 -0.4553  0.0393
   90MOL0     C11785   2.498   9.295   9.611 -0.2015  0.7459 -0.9366
   90MOL0     C11786   2.523   9.171   9.523 -0.2804  0.2434  0.6964
   90MOL0     C11787   2.387   9.112   9.506 -0.0936 -0.4997 -0.0776
   90MOL0     C11788   2.398   8.988   9.410 -0.4573  0.2619 -0.8833
   90MOL0     C11789   2.262   8.935   9.360  0.0969  0.3902  0.3850
   90MOL0     C11790   2.269   8.790   9.312  0.5603 -0.4839 -0.0354
   90MOL0     C11791   2.124   8.753   9.282  0.3251  0.1920 -0.0980
   90MOL0    Cl11792   2.083   8.833   9.136 -0.1087  0.2033 -0.0062
   90MOL0     C11793   2.876   9.517   9.412  0.0144 -0.0567  0.2872
   90MOL0     C11794   2.999   9.578   9.403  0.6419  0.0658 -0.6885
   90MOL0     O11795   3.154   9.815   9.443 -0.5816 -0.2562 -0.4945
   90MOL0     C11796   3.483   9.663   9.482  0.2316 -0.2632  0.6353
   90MOL0     C11797   3.613   9.684   9.427  0.0269  0.1461 -0.0080
   90MOL0     N11798   4.152   9.433   9.384 -0.3457 -0.0954 -0.9262
   90MOL0     N11799   4.255   9.373   9.440  0.2651  0.0953  0.1337
   90MOL0     C11800   5.420   8.948   9.760 -0.6312  0.3290  0.0157
   90MOL0     C11801   5.552   8.994   9.776 -1.2550 -1.0505 -0.4974
   90MOL0     C11802   5.967   9.185   9.652 -1.0483  0.2484 -1.0562
   90MOL0     C11803   6.009   9.228   9.782  0.2453  0.0143  0.3480
   90MOL0     C11804   6.143   9.275   9.801  0.7802  0.7321 -0.2396
   90MOL0     C11805   6.244   9.266   9.705  0.5275 -0.6162 -0.2964
   90MOL0     O11806   6.371   9.291   9.743 -0.4739  0.0657  0.2679
   90MOL0     C11807   6.481   9.278   9.658 -0.2326 -0.3742  0.3709
   90MOL0     C11808   6.594   9.361   9.708 -0.0227  0.1959 -0.6526
   90MOL0     C11809   6.710   9.357   9.613  0.2735 -0.0993 -0.2500
   90MOL0     C11810   6.818   9.458   9.648 -0.4781 -0.2998  0.3481
   90MOL0     C11811   6.928   9.432   9.558  0.0521 -0.1935  0.0481
   90MOL0     C11812   7.018   9.409   9.486  0.0973  0.0236  0.0215
   90MOL0     C11813   6.208   9.221   9.575 -0.0465 -0.0728 -0.5741
   90MOL0     C11814   6.070   9.182   9.550 -0.2667  0.3610 -0.1851
   90MOL0     H11815   5.592   9.240   9.552  2.5264 -1.1384 -1.2140
   90MOL0     H11816   5.365   9.150   9.490 -0.8497 -1.0450 -0.6175
   90MOL0     H11817   5.034   9.010   9.554  1.8887 -2.4637 -2.8001
   90MOL0     H11818   5.180   9.082   9.479  2.1169 -1.7080  0.0239
   90MOL0     H11819   5.185   9.271   9.627 -3.2821  2.7578 -0.4216
   90MOL0     H11820   5.066   9.198   9.739  1.4386  0.1109  0.6670
   90MOL0     H11821   4.891   9.212   9.564  0.3217 -0.3209  3.5680
   90MOL0     H11822   5.006   9.283   9.447 -0.7387 -0.3448  0.1953
   90MOL0     H11823   4.955   9.419   9.721 -1.1516  1.1919 -0.5320
   90MOL0     H11824   5.039   9.484   9.584  0.2594 -0.4370 -0.1352
   90MOL0     H11825   4.822   9.492   9.452  5.4526  0.8916 -0.5404
   90MOL0     H11826   4.833   9.602   9.589  0.1525 -0.0945  0.9087
   90MOL0     H11827   4.684   9.481   9.720 -3.2011  1.3451 -0.3417
   90MOL0     H11828   4.700   9.332   9.621  0.6317  0.6784 -0.7378
   90MOL0     H11829   4.563   9.606   9.566 -0.3835 -0.4593  2.2451
   90MOL0     H11830   4.579   9.484   9.440 -2.7322  0.7871  0.0602
   90MOL0     H11831   4.429   9.462   9.696  3.3182  1.6280 -0.0467
   90MOL0     H11832   4.465   9.320   9.603  1.3176  0.7301  0.6611
   90MOL0     H11833   4.320   9.683   9.516 -3.6588  0.2906  1.5165
   90MOL0     H11834   3.987   9.661   9.333  0.2783 -0.4387 -1.0399
   90MOL0     H11835   4.139   9.725   9.264  1.8203  0.5019  0.9081
   90MOL0     H11836   4.186   9.847   9.481  0.2873  0.0729  0.8684
   90MOL0     H11837   4.064   9.758   9.549  0.7754 -1.0577  0.5731
   90MOL0     H11838   4.017  10.006   9.472  2.9005  0.5067 -1.4092
   90MOL0     H11839   3.999   9.954   9.313  0.3616  0.3606  0.2207
   90MOL0     H11840   3.795   9.983   9.476 -0.3131  0.2014 -0.5994
   90MOL0     H11841   3.843   9.810   9.531  0.2405  2.2607  0.9109
   90MOL0     H11842   3.574  10.008   9.327  0.2118  0.6924  2.2955
   90MOL0     H11843   3.340   9.950   9.353 -0.3441 -0.8151 -1.5450
   90MOL0     H11844   3.114   9.512   9.718 -1.1036 -0.3664  1.4448
   90MOL0     H11845   2.873   9.437   9.746 -0.4875 -3.1061 -0.6554
   90MOL0     H11846   2.639   9.417   9.736  0.2860 -0.3452  0.0094
   90MOL0     H11847   2.708   9.259   9.678 -1.0528 -0.6167  0.1423
   90MOL0     H11848   2.447   9.370   9.551 -0.1147  0.4369 -1.3976
   90MOL0     H11849   2.434   9.271   9.697  0.0201 -0.3000 -1.0545
   90MOL0     H11850   2.592   9.100   9.569 -0.3140  0.1215  0.5563
   90MOL0     H11851   2.565   9.195   9.425  0.1406 -2.7099  0.0627
   90MOL0     H11852   2.339   9.080   9.599 -0.6050 -0.8119 -0.4409
   90MOL0     H11853   2.325   9.192   9.465  2.1120  0.8958 -0.8596
   90MOL0     H11854   2.453   8.911   9.465  1.5387  2.9166  1.1155
   90MOL0     H11855   2.460   9.027   9.329  2.7199 -0.4467  1.0451
   90MOL0     H11856   2.239   8.991   9.268  1.7939  0.2147 -0.1766
   90MOL0     H11857   2.182   8.955   9.432 -1.8623  0.5081 -1.6940
   90MOL0     H11858   2.344   8.779   9.232  2.5927  1.7399  1.4281
   90MOL0     H11859   2.304   8.723   9.392  1.3561 -1.0342 -0.8123
   90MOL0     H11860   2.045   8.767   9.356 -1.0568 -2.5043 -0.9113
   90MOL0     H11861   2.127   8.645   9.264 -0.3126  0.3583 -1.2835
   90MOL0     H11862   2.820   9.513   9.319  1.8574  0.2772 -0.8770
   90MOL0     H11863   3.022   9.619   9.305 -2.6303 -0.1220 -1.6578
   90MOL0     H11864   3.464   9.586   9.557 -1.5150 -0.4961 -0.0083
   90MOL0     H11865   3.693   9.614   9.446  0.1528  0.1273 -0.5979
   90MOL0     H11866   5.383   8.864   9.818  1.5636 -0.2053  0.7592
   90MOL0     H11867   5.615   8.953   9.854 -1.7541 -0.8946 -0.0078
   90MOL0     H11868   5.931   9.245   9.856  1.8949  2.5873  1.6417
   90MOL0     H11869   6.165   9.305   9.904 -1.1954 -1.7221  1.0043
   90MOL0     H11870   6.452   9.305   9.556  0.0490 -2.0540 -0.1844
   90MOL0     H11871   6.513   9.173   9.651  1.7473  0.2437 -0.6323
   90MOL0     H11872   6.552   9.462   9.711 -2.8149 -0.9081  0.8510
   90MOL0     H11873   6.609   9.332   9.813 -0.3114  1.5737 -0.2039
   90MOL0     H11874   6.673   9.386   9.514  1.1195  2.4352  0.0808
   90MOL0     H11875   6.743   9.253   9.606  0.2583 -0.0731 -0.7937
   90MOL0     H11876   6.776   9.556   9.627 -0.8226  0.2501  3.2722
   90MOL0     H11877   6.845   9.458   9.754 -2.0291 -0.4219  0.7624
   90MOL0     H11878   7.089   9.410   9.406 -1.6226 -1.5923 -1.6300
   90MOL0     H11879   6.274   9.219   9.490 -0.3446 -0.8528 -0.8046
   90MOL0     H11880   6.034   9.150   9.453  0.2571 -1.5665  0.2114
   91MOL0     O11881   4.020   5.207   2.722 -0.0210 -0.4552 -0.8003
   91MOL0     C11882   4.114   5.257   2.782 -0.1714  0.2463  0.5463
   91MOL0     O11883   4.122   5.276   2.913  0.4118  0.3542  0.2796
   91MOL0     C11884   4.042   5.230   3.004  0.4891 -0.1519 -0.1231
   91MOL0     C11885   4.046   5.287   3.130  0.6782  0.0250  0.2655
   91MOL0     C11886   3.977   5.233   3.240 -0.1064  0.3946 -0.2824
   91MOL0     C11887   3.887   5.133   3.227 -0.9072  0.0339  1.1156
   91MOL0     O11888   3.831   5.078   3.328  0.1054  0.1027  0.3245
   91MOL0     C11889   3.685   5.053   3.326 -0.0560  0.6524  0.1828
   91MOL0     C11890   3.632   5.024   3.456 -0.9263 -0.8983  0.2835
   91MOL0     C11891   3.487   4.969   3.429  1.0536  0.5823  0.6747
   91MOL0     C11892   3.391   5.022   3.535 -0.9622 -0.6343 -0.6236
   91MOL0     C11893   3.241   5.008   3.521  0.6283 -0.2632  1.1824
   91MOL0     C11894   3.189   4.871   3.545  0.6594  1.2606  0.4757
   91MOL0     C11895   3.163   4.846   3.701 -0.0195  0.0740  0.6771
   91MOL0     C11896   3.046   4.921   3.751  0.6290 -0.5036  0.0606
   91MOL0     N11897   3.008   4.900   3.887  0.1591  0.0996 -0.3978
   91MOL0     C11898   2.962   4.775   3.936 -0.3938  0.7138 -0.5938
   91MOL0     C11899   2.956   4.769   4.071  0.0292 -0.7269  0.7491
   91MOL0     C11900   2.933   4.653   4.167  0.0886 -0.4034 -0.0169
   91MOL0     C11901   2.788   4.591   4.155  0.0969 -0.3196  0.1009
   91MOL0     C11902   2.677   4.683   4.208 -0.1424  0.8650  0.4313
   91MOL0     C11903   2.687   4.705   4.355  0.6438  0.6166 -0.0671
   91MOL0     O11904   2.568   4.784   4.393 -0.0025 -0.0928 -0.6697
   91MOL0     C11905   2.449   4.726   4.417 -0.4218  0.8630 -0.6560
   91MOL0     C11906   2.423   4.584   4.417  0.0264 -0.3594 -0.1154
   91MOL0     C11907   2.286   4.549   4.438 -0.2139  0.2678  0.0302
   91MOL0     C11908   2.180   4.633   4.465  0.2671  0.0367  0.1903
   91MOL0     C11909   2.046   4.590   4.511 -0.6837  1.0073 -0.0904
   91MOL0     O11910   1.949   4.683   4.544 -0.0716  1.1530  0.2328
   91MOL0     C11911   1.820   4.633   4.555 -1.1253  0.4496  0.8642
   91MOL0     C11912   1.775   4.543   4.654 -0.5236  0.2550  0.1105
   91MOL0     C11913   1.636   4.524   4.664 -0.3692  0.1362 -0.8407
   91MOL0     C11914   1.545   4.579   4.574  0.4098  0.0187 -0.3253
   91MOL0     O11915   1.416   4.541   4.582  0.8061  0.0725  0.0501
   91MOL0     C11916   1.331   4.577   4.476 -0.5460  0.0946  0.2154
   91MOL0     C11917   1.189   4.525   4.490  0.1727  0.5824  0.6352
   91MOL0     C11918   1.119   4.594   4.601  1.1570  0.0307 -0.4832
   91MOL0     C11919   0.972   4.551   4.607  0.1214  0.5950 -0.3653
   91MOL0     C11920   0.934   4.527   4.759 -0.1724 -0.6349  0.0009
   91MOL0     C11921   0.799   4.455   4.763 -1.3478 -0.3100  0.6210
   91MOL0     C11922   0.685   4.552   4.735  0.1326 -0.4466  0.1746
   91MOL0     C11923   0.544   4.490   4.748  0.4446 -0.1090 -0.5018
   91MOL0    Cl11924   0.514   4.364   4.636  0.3888  0.0935 -0.1436
   91MOL0     C11925   1.591   4.678   4.482 -0.6644 -0.9992  0.2901
   91MOL0     C11926   1.723   4.705   4.479 -0.2379 -0.1756 -0.1337
   91MOL0     O11927   2.030   4.466   4.503  0.5490 -0.5775 -0.0183
   91MOL0     C11928   2.210   4.770   4.466 -0.2691 -0.3369  0.3531
   91MOL0     C11929   2.344   4.818   4.442 -0.2228  0.3242  0.0491
   91MOL0     N11930   2.997   4.903   4.103  0.2185  0.2195 -0.5374
   91MOL0     N11931   3.018   4.973   3.999 -0.9427  0.5063 -0.4335
   91MOL0     C11932   3.869   5.084   3.093  0.0946  0.2407  0.1029
   91MOL0     C11933   3.943   5.131   2.986 -0.6955  0.3606  0.1776
   91MOL0     C11934   4.226   5.306   2.703  0.0399 -0.0486 -1.1167
   91MOL0     C11935   4.320   5.390   2.758  0.2003  0.1340 -0.5126
   91MOL0     C11936   4.435   5.422   2.690 -0.9962  0.0457 -0.0523
   91MOL0     C11937   4.442   5.407   2.549  0.1816 -0.3280  0.6970
   91MOL0     O11938   4.550   5.458   2.488 -0.6562 -0.5107  0.3704
   91MOL0     C11939   4.567   5.431   2.346 -0.2500  0.6255  0.1678
   91MOL0     C11940   4.709   5.468   2.318 -0.9726  0.2784  0.3947
   91MOL0     C11941   4.808   5.366   2.397  0.7044  0.3769 -0.1540
   91MOL0     C11942   4.837   5.258   2.302  0.1437 -0.4491  0.6379
   91MOL0     C11943   4.899   5.145   2.370 -0.1726  0.3293 -0.6824
   91MOL0     C11944   4.948   5.056   2.443  0.6684  0.7548  0.5658
   91MOL0     C11945   4.332   5.344   2.486  0.6546 -0.2638 -0.3830
   91MOL0     C11946   4.227   5.298   2.565  0.4702  0.8245  0.2246
   91MOL0     H11947   4.097   5.382   3.140  0.5285  0.4371 -2.1500
   91MOL0     H11948   3.994   5.268   3.341 -0.7675 -0.1409  0.0234
   91MOL0     H11949   3.678   4.962   3.267 -0.4632  0.3372  0.7054
   91MOL0     H11950   3.629   5.141   3.294  0.6939  1.0898  0.0377
   91MOL0     H11951   3.635   5.112   3.521 -0.1138  0.1071 -1.0537
   91MOL0     H11952   3.692   4.945   3.500 -1.3602 -1.3769  0.0299
   91MOL0     H11953   3.483   4.863   3.457  0.6888  0.3910 -0.0851
   91MOL0     H11954   3.445   4.991   3.331 -0.7457 -6.5515 -0.7011
   91MOL0     H11955   3.423   4.991   3.635 -1.9531 -2.3969 -0.8011
   91MOL0     H11956   3.420   5.128   3.532  1.7996 -1.1267  2.6462
   91MOL0     H11957   3.221   5.036   3.417 -0.8524  2.9699  2.2409
   91MOL0     H11958   3.176   5.072   3.580 -0.2713 -1.9119  2.0580
   91MOL0     H11959   3.262   4.796   3.511 -1.0026  0.8604 -2.4971
   91MOL0     H11960   3.093   4.863   3.494  1.4432  0.9999 -1.0190
   91MOL0     H11961   3.141   4.739   3.712 -4.5369  0.6089 -1.1096
   91MOL0     H11962   3.251   4.867   3.763 -0.9885 -0.9778  2.5032
   91MOL0     H11963   2.971   4.908   3.673  1.7002  2.1769 -1.5771
   91MOL0     H11964   3.058   5.029   3.740 -1.2802 -0.2991 -0.3558
   91MOL0     H11965   2.944   4.693   3.866 -1.2977 -0.0286  0.4694
   91MOL0     H11966   2.957   4.687   4.269 -2.5583 -2.2312  1.3470
   91MOL0     H11967   3.005   4.578   4.134  1.1608 -0.2019  1.7121
   91MOL0     H11968   2.794   4.492   4.201  1.6151 -0.9327 -1.2883
   91MOL0     H11969   2.776   4.563   4.050 -0.3385  0.4538 -0.0591
   91MOL0     H11970   2.691   4.780   4.159  3.1723 -0.6158 -1.9241
   91MOL0     H11971   2.581   4.639   4.183  0.7816 -2.2297  1.9026
   91MOL0     H11972   2.772   4.770   4.378  0.3867  1.7074 -1.9577
   91MOL0     H11973   2.701   4.616   4.417  1.4594  0.5232 -0.3687
   91MOL0     H11974   2.500   4.512   4.392  1.2785  0.7327  0.4479
   91MOL0     H11975   2.280   4.441   4.447  0.2741  0.3481  1.7507
   91MOL0     H11976   1.856   4.495   4.709  0.2892  0.7991 -0.5994
   91MOL0     H11977   1.586   4.460   4.736  0.2699  3.0262  2.4279
   91MOL0     H11978   1.381   4.546   4.384 -0.9541  0.2894 -0.0761
   91MOL0     H11979   1.333   4.686   4.482  1.9928  0.1095 -0.0715
   91MOL0     H11980   1.193   4.416   4.505  1.5380  0.1004 -2.4792
   91MOL0     H11981   1.144   4.539   4.391  0.8471  2.5921  0.5736
   91MOL0     H11982   1.115   4.702   4.585 -1.3051  0.0699  0.1267
   91MOL0     H11983   1.171   4.589   4.697 -1.0701  0.2712  0.7966
   91MOL0     H11984   0.905   4.617   4.550 -0.0313  0.9709  0.2373
   91MOL0     H11985   0.944   4.454   4.567  0.6106 -0.4956  1.8036
   91MOL0     H11986   0.930   4.622   4.813  1.1922  0.4035 -1.5974
   91MOL0     H11987   1.012   4.465   4.804 -0.2440  0.6741  2.0370
   91MOL0     H11988   0.784   4.410   4.862 -3.8790  1.2555  1.0273
   91MOL0     H11989   0.802   4.367   4.698 -1.2934 -1.1438  1.7049
   91MOL0     H11990   0.680   4.638   4.803 -0.3584 -0.7332  0.5112
   91MOL0     H11991   0.693   4.589   4.633 -2.6764  0.4281  0.1797
   91MOL0     H11992   0.470   4.569   4.734 -0.4172 -1.2152 -2.6396
   91MOL0     H11993   0.536   4.448   4.849  0.4846 -0.3025 -0.5783
   91MOL0     H11994   1.522   4.727   4.414  0.5185 -0.4347 -0.5487
   91MOL0     H11995   1.753   4.782   4.408  0.5440 -0.7495 -0.4339
   91MOL0     H11996   2.143   4.850   4.495 -0.5417 -0.1276 -0.8109
   91MOL0     H11997   2.343   4.926   4.442 -0.2363  0.3247 -0.2626
   91MOL0     H11998   3.810   4.994   3.083 -1.9996  1.5879 -0.5483
   91MOL0     H11999   3.934   5.082   2.889  1.3853  2.4927 -1.2256
   91MOL0     H12000   4.309   5.421   2.861  0.1087 -3.7960  0.8533
   91MOL0     H12001   4.503   5.478   2.753 -2.4507  0.9645  0.7676
   91MOL0     H12002   4.492   5.486   2.289 -3.2983 -3.7132 -0.4410
   91MOL0     H12003   4.550   5.326   2.319  2.6068  0.2906 -0.7581
   91MOL0     H12004   4.714   5.462   2.209 -3.2596 -2.0962  0.3042
   91MOL0     H12005   4.735   5.569   2.349  0.3555  1.0802 -2.8615
   91MOL0     H12006   4.756   5.337   2.489  1.6432  1.1350  0.6459
   91MOL0     H12007   4.898   5.417   2.432  1.9027 -2.3141  0.9951
   91MOL0     H12008   4.746   5.227   2.251 -1.4056  1.1723  2.3067
   91MOL0     H12009   4.897   5.290   2.217 -2.1763  3.5518  0.2717
   91MOL0     H12010   5.005   4.996   2.512 -1.9296 -1.6764  0.7913
   91MOL0     H12011   4.336   5.322   2.379  1.5803 -1.8415 -0.0664
   91MOL0     H12012   4.152   5.236   2.516  1.3035  0.0439 -0.0773
   92MOL0     O12013   9.836   6.816   5.324 -0.5029 -0.1932  0.0862
   92MOL0     C12014   9.856   6.703   5.362 -0.8009  0.2915  0.8092
   92MOL0     O12015   9.763   6.610   5.393 -0.5595  0.1814  0.1338
   92MOL0     C12016   9.631   6.647   5.393  0.4924 -0.1579 -0.4438
   92MOL0     C12017   9.581   6.701   5.509  0.9788 -0.5840 -0.1774
   92MOL0     C12018   9.450   6.745   5.520  0.7308 -0.7592  0.0491
   92MOL0     C12019   9.369   6.741   5.410  1.2110 -0.0520  0.1448
   92MOL0     O12020   9.241   6.769   5.423  0.2223 -0.0532 -0.5525
   92MOL0     C12021   9.162   6.837   5.322 -0.2433  0.3469 -0.6342
   92MOL0     C12022   9.028   6.879   5.375 -0.4843 -0.1530  1.3206
   92MOL0     C12023   9.043   7.012   5.453 -0.0155  0.4464  0.1166
   92MOL0     C12024   8.905   7.053   5.521  0.2319  0.4609  0.5064
   92MOL0     C12025   8.787   7.084   5.421  0.2143 -0.1699 -0.7875
   92MOL0     C12026   8.670   7.153   5.496 -0.2851 -0.2117  0.3575
   92MOL0     C12027   8.557   7.188   5.401  0.8468 -0.3730 -0.3088
   92MOL0     C12028   8.469   7.064   5.391 -0.3552 -0.8846  0.3240
   92MOL0     N12029   8.375   7.070   5.279 -0.1087  0.8198  0.3634
   92MOL0     C12030   8.244   7.046   5.283 -0.0882  0.5669 -0.8624
   92MOL0     C12031   8.196   7.057   5.152  1.2700  0.4394 -0.8724
   92MOL0     C12032   8.065   7.000   5.095 -0.3674 -0.2761 -0.4608
   92MOL0     C12033   7.945   7.037   5.175 -0.0098  0.2826  0.4014
   92MOL0     C12034   7.935   7.196   5.175  0.1143 -0.0310 -0.7045
   92MOL0     C12035   7.796   7.248   5.212  0.0633  0.1714  0.1378
   92MOL0     O12036   7.695   7.196   5.122 -0.0137 -0.3622  0.4158
   92MOL0     C12037   7.563   7.236   5.150 -0.5087  0.1062  0.3709
   92MOL0     C12038   7.467   7.183   5.073  0.2264 -0.0253 -0.2550
   92MOL0     C12039   7.337   7.219   5.084  0.6171  0.4054  0.3237
   92MOL0     C12040   7.287   7.292   5.196 -0.0576  0.5143  0.9570
   92MOL0     C12041   7.149   7.343   5.207 -0.0408  0.2029 -0.3595
   92MOL0     O12042   7.056   7.287   5.124 -0.4050 -0.5160 -0.7989
   92MOL0     C12043   6.933   7.342   5.114 -0.2717  0.0735 -0.0391
   92MOL0     C12044   6.853   7.378   5.227  0.3222 -0.1566 -0.2782
   92MOL0     C12045   6.723   7.422   5.214  0.7843  0.0699  0.2235
   92MOL0     C12046   6.664   7.417   5.082  0.1122 -0.5129 -0.0568
   92MOL0     O12047   6.535   7.465   5.051  0.1641  0.2243 -0.2359
   92MOL0     C12048   6.456   7.540   5.150 -0.2601  0.0655 -0.2581
   92MOL0     C12049   6.372   7.431   5.215  0.1082 -0.3576 -0.5331
   92MOL0     C12050   6.272   7.498   5.307  0.0134 -0.7345 -0.7994
   92MOL0     C12051   6.182   7.591   5.228  0.3661 -0.5179 -0.6590
   92MOL0     C12052   6.067   7.638   5.322  0.3134  0.2229 -0.5811
   92MOL0     C12053   5.965   7.710   5.244  0.5707  0.1651 -0.6636
   92MOL0     C12054   5.868   7.768   5.346  0.6330 -0.5260  0.2728
   92MOL0     C12055   5.820   7.900   5.298  0.4477 -0.8764 -0.0665
   92MOL0    Cl12056   5.957   8.023   5.313 -0.2579  0.3496  0.3343
   92MOL0     C12057   6.746   7.373   4.973 -0.5325  0.3147 -0.4327
   92MOL0     C12058   6.878   7.344   4.985 -0.7449 -0.2745  0.0785
   92MOL0     O12059   7.130   7.433   5.288 -0.1001 -0.2501  0.7232
   92MOL0     C12060   7.391   7.347   5.278 -0.4055  0.1904  0.8610
   92MOL0     C12061   7.524   7.303   5.266  0.0892  0.7955  0.0071
   92MOL0     N12062   8.304   7.083   5.073  0.2392  0.3095  0.0229
   92MOL0     N12063   8.404   7.097   5.154 -0.4203  0.6083  0.4716
   92MOL0     C12064   9.425   6.693   5.288 -0.5805  0.1980  0.7707
   92MOL0     C12065   9.557   6.647   5.274 -0.1295  0.0515  0.8432
   92MOL0     C12066  10.000   6.676   5.386 -0.5979  0.1667 -0.2330
   92MOL0     C12067  10.090   6.779   5.390  0.3613 -0.1579  0.3954
   92MOL0     C12068  10.221   6.760   5.412 -0.2360  0.5771  0.2759
   92MOL0     C12069  10.274   6.631   5.439  0.4427  0.0348  0.6614
   92MOL0     O12070  10.412   6.613   5.444  0.2993 -0.4575 -0.3033
   92MOL0     C12071  10.468   6.539   5.338  0.3272  0.6234  0.4083
   92MOL0     C12072  10.608   6.493   5.378  0.5824 -1.4643 -0.4046
   92MOL0     C12073  10.682   6.452   5.252 -0.1604  0.3925 -0.3543
   92MOL0     C12074  10.801   6.358   5.285  0.5467  0.2698 -0.4444
   92MOL0     C12075  10.896   6.407   5.390 -0.1966  0.6928  1.4895
   92MOL0     C12076  10.975   6.431   5.483 -0.7045 -0.2502 -0.1624
   92MOL0     C12077  10.183   6.526   5.443 -0.0471 -0.2663 -0.0603
   92MOL0     C12078  10.043   6.550   5.427 -0.2570  0.5978  1.1974
   92MOL0     H12079   9.649   6.692   5.593 -1.0811 -0.9810  1.5510
   92MOL0     H12080   9.416   6.767   5.621 -2.5634 -2.2137 -0.6120
   92MOL0     H12081   9.136   6.759   5.250 -0.6789 -1.3893  1.3061
   92MOL0     H12082   9.222   6.919   5.283 -0.4451  1.1766  0.7501
   92MOL0     H12083   8.980   6.803   5.437  1.2078 -1.9964  0.4665
   92MOL0     H12084   8.959   6.898   5.292  1.3782 -1.6029 -0.6506
   92MOL0     H12085   9.078   7.090   5.385  1.6137 -0.5867 -0.2921
   92MOL0     H12086   9.118   7.000   5.532 -0.1615 -0.1088  0.1716
   92MOL0     H12087   8.876   6.976   5.592 -0.9424  3.0372  3.0142
   92MOL0     H12088   8.919   7.144   5.580  0.8829 -1.3780  3.3773
   92MOL0     H12089   8.763   6.999   5.357  0.2140  0.2371 -1.3358
   92MOL0     H12090   8.826   7.154   5.347 -0.2948 -0.0902 -0.9885
   92MOL0     H12091   8.712   7.249   5.530 -1.2893  0.2247  0.3894
   92MOL0     H12092   8.635   7.092   5.580 -0.7471  1.7505  1.6623
   92MOL0     H12093   8.505   7.277   5.439  1.0299 -1.0431  1.6027
   92MOL0     H12094   8.595   7.207   5.300 -0.4512 -1.8445 -1.1129
   92MOL0     H12095   8.421   7.055   5.489  0.0628  0.0129  0.6191
   92MOL0     H12096   8.535   6.977   5.382  2.0454  0.8578  0.1148
   92MOL0     H12097   8.185   7.012   5.367 -0.6026  1.9948 -0.6195
   92MOL0     H12098   8.082   6.892   5.102 -0.1885 -0.4845 -3.0827
   92MOL0     H12099   8.047   7.032   4.992 -1.3297  0.6960 -0.0170
   92MOL0     H12100   7.958   6.992   5.274  1.8490 -1.5826 -0.6138
   92MOL0     H12101   7.857   6.991   5.129 -2.0133  1.2792  2.9700
   92MOL0     H12102   8.008   7.232   5.248  1.0664 -1.5162 -0.8663
   92MOL0     H12103   7.961   7.231   5.075 -0.0652  3.2912  0.3179
   92MOL0     H12104   7.795   7.357   5.209 -1.1774  0.1595 -0.6575
   92MOL0     H12105   7.784   7.214   5.315 -1.7128  0.3801  0.0294
   92MOL0     H12106   7.490   7.127   4.984  0.8545 -0.0831 -0.0593
   92MOL0     H12107   7.267   7.177   5.012  2.7656 -2.3391 -0.3290
   92MOL0     H12108   6.899   7.365   5.324 -3.1487 -1.7825  1.3316
   92MOL0     H12109   6.671   7.452   5.305 -0.7289 -3.5361  0.7653
   92MOL0     H12110   6.398   7.607   5.086 -1.6250 -1.9669 -1.2374
   92MOL0     H12111   6.516   7.591   5.226 -0.1624 -1.3281  0.6421
   92MOL0     H12112   6.445   7.374   5.274  0.3268 -0.9991 -1.4055
   92MOL0     H12113   6.316   7.365   5.148 -3.2200 -3.6470  4.7895
   92MOL0     H12114   6.318   7.561   5.383 -1.7819  1.2524 -1.2655
   92MOL0     H12115   6.217   7.418   5.358 -0.0234 -0.8822 -1.0686
   92MOL0     H12116   6.232   7.677   5.182 -0.7044  0.1711 -0.5792
   92MOL0     H12117   6.133   7.545   5.141  0.6039 -0.0009 -1.0756
   92MOL0     H12118   6.104   7.686   5.413  1.4287 -1.5708 -0.0379
   92MOL0     H12119   6.012   7.550   5.358  1.3590 -0.1417  0.1708
   92MOL0     H12120   5.906   7.644   5.180 -0.6090  0.5729 -0.0297
   92MOL0     H12121   6.004   7.790   5.180 -0.3436  1.2536  0.0824
   92MOL0     H12122   5.787   7.696   5.360  0.0205 -0.4392 -2.2636
   92MOL0     H12123   5.924   7.786   5.437  3.8553 -2.2409 -1.2045
   92MOL0     H12124   5.736   7.925   5.364 -1.0957 -2.3977 -1.3466
   92MOL0     H12125   5.773   7.894   5.199 -0.8361 -1.2019  0.5365
   92MOL0     H12126   6.715   7.382   4.870  3.2586 -0.8493 -1.8691
   92MOL0     H12127   6.946   7.345   4.900 -1.6255  1.4610 -0.6748
   92MOL0     H12128   7.363   7.424   5.349  2.9633  2.0364  0.4236
   92MOL0     H12129   7.584   7.326   5.354  1.9449  0.9766 -1.2364
   92MOL0     H12130   9.367   6.686   5.196  2.2166  2.0642 -1.3209
   92MOL0     H12131   9.587   6.606   5.178 -2.7320  0.0372 -0.0220
   92MOL0     H12132  10.069   6.885   5.374  1.7546  0.0752 -0.0415
   92MOL0     H12133  10.281   6.850   5.403 -0.0937  0.3359 -1.8430
   92MOL0     H12134  10.471   6.606   5.252 -1.0846 -0.9663 -0.9594
   92MOL0     H12135  10.402   6.458   5.306  1.5336 -0.0715 -0.3969
   92MOL0     H12136  10.662   6.580   5.416 -0.2654 -0.6896 -0.9284
   92MOL0     H12137  10.607   6.420   5.459  2.1312  0.0326  1.0347
   92MOL0     H12138  10.722   6.531   5.189 -0.0161  0.0880 -0.6478
   92MOL0     H12139  10.614   6.399   5.185 -1.1531  1.2734 -0.0747
   92MOL0     H12140  10.757   6.267   5.327 -2.3599 -0.4498 -4.4828
   92MOL0     H12141  10.852   6.334   5.191  0.8193  0.5764 -0.3800
   92MOL0     H12142  11.050   6.460   5.554  0.5330 -0.0189 -1.5065
   92MOL0     H12143  10.227   6.428   5.459 -2.1505 -1.8580 -2.8733
   92MOL0     H12144   9.964   6.476   5.442 -1.2808  1.2552 -0.6360
   93MOL0     O12145   0.029   6.630  10.398  0.3145 -0.0640 -0.0095
   93MOL0     C12146   0.028   6.571  10.503 -0.2894  0.6498 -0.7667
   93MOL0     O12147  -0.083   6.506  10.557  0.3401 -0.0679  0.9210
   93MOL0     C12148  -0.201   6.502  10.482  0.6074 -0.0543 -0.8755
   93MOL0     C12149  -0.268   6.603  10.408  0.1488  0.3259 -0.2725
   93MOL0     C12150  -0.402   6.584  10.365  0.8961 -0.1960  0.1198
   93MOL0     C12151  -0.476   6.463  10.389 -0.3650  0.5243  0.2137
   93MOL0     O12152  -0.596   6.452  10.337  0.4954 -0.7790  0.1653
   93MOL0     C12153  -0.673   6.333  10.358  0.2358  0.0969 -0.6858
   93MOL0     C12154  -0.713   6.295  10.222  0.6140  0.4583  0.0880
   93MOL0     C12155  -0.842   6.215  10.231  0.4918  0.1642 -0.0716
   93MOL0     C12156  -0.899   6.216  10.082 -0.3498  0.4581  0.2439
   93MOL0     C12157  -1.037   6.153  10.095 -0.8527  0.0379 -0.6959
   93MOL0     C12158  -1.125   6.133   9.965 -0.0750  0.0133 -0.0687
   93MOL0     C12159  -1.114   6.251   9.868  0.2980 -0.9113  0.3806
   93MOL0     C12160  -1.170   6.387   9.931 -0.5338  0.3971  0.0742
   93MOL0     N12161  -1.309   6.377   9.974  1.0000  0.4223 -0.1300
   93MOL0     C12162  -1.420   6.425   9.907  0.1565 -0.6110 -0.1803
   93MOL0     C12163  -1.524   6.405   9.996  0.5153  0.6643  0.0405
   93MOL0     C12164  -1.665   6.433   9.963 -0.2477 -0.7249 -0.6073
   93MOL0     C12165  -1.754   6.309   9.995 -0.7132  0.0046  0.3648
   93MOL0     C12166  -1.896   6.316   9.945 -0.7368 -0.5558 -0.3200
   93MOL0     C12167  -1.986   6.216  10.024  0.1753  0.3355 -0.1099
   93MOL0     O12168  -2.116   6.210   9.967  0.7867  0.6604  1.0031
   93MOL0     C12169  -2.224   6.160  10.045 -0.4580  1.1108  0.2807
   93MOL0     C12170  -2.212   6.122  10.176  0.4429 -0.1961  0.6517
   93MOL0     C12171  -2.324   6.087  10.253 -0.3949 -0.2576  0.0054
   93MOL0     C12172  -2.448   6.093  10.192  0.0990 -0.1640 -0.5859
   93MOL0     C12173  -2.561   6.052  10.271  0.5716 -0.1640  0.0571
   93MOL0     O12174  -2.681   6.081  10.214 -0.6615  0.1721  0.3665
   93MOL0     C12175  -2.796   6.063  10.284  0.5484  0.8303  0.1645
   93MOL0     C12176  -2.909   6.001  10.222  0.2443 -0.4166 -1.3303
   93MOL0     C12177  -3.033   5.984  10.289  0.1901  0.1283 -0.1801
   93MOL0     C12178  -3.044   6.022  10.419 -0.0037 -0.5909 -0.0830
   93MOL0     O12179  -3.165   6.031  10.488 -0.5454  0.2542  0.0344
   93MOL0     C12180  -3.291   5.999  10.424  0.1937 -0.2486  0.8639
   93MOL0     C12181  -3.395   6.050  10.512  0.0841  0.2013 -0.7920
   93MOL0     C12182  -3.531   6.002  10.440 -0.3850 -0.0278 -0.2696
   93MOL0     C12183  -3.652   6.063  10.524 -0.8328 -0.6161  0.4528
   93MOL0     C12184  -3.786   6.033  10.467  0.4198 -0.2056  0.1132
   93MOL0     C12185  -3.907   6.099  10.539 -0.0640 -0.4092 -0.4968
   93MOL0     C12186  -4.028   6.087  10.458 -1.0004  0.1276  0.7980
   93MOL0     C12187  -4.145   6.128  10.548  0.2394 -0.4303  0.3506
   93MOL0    Cl12188  -4.277   6.162  10.433  0.0758 -0.1988  0.3207
   93MOL0     C12189  -2.930   6.080  10.487 -0.1544  0.6665  1.0325
   93MOL0     C12190  -2.810   6.112  10.417 -0.6961 -0.5339 -0.2639
   93MOL0     O12191  -2.544   6.006  10.381 -0.3355 -0.1546  0.4028
   93MOL0     C12192  -2.461   6.129  10.056  0.7764  0.1987  0.0539
   93MOL0     C12193  -2.350   6.154   9.982  0.5711  0.0450  0.1407
   93MOL0     N12194  -1.477   6.345  10.113  0.4023  0.6932  0.4758
   93MOL0     N12195  -1.349   6.335  10.098 -0.2566  0.5071 -1.0177
   93MOL0     C12196  -0.402   6.371  10.465  0.6397 -0.2288 -0.4460
   93MOL0     C12197  -0.266   6.381  10.500  0.9737 -0.9155 -0.6359
   93MOL0     C12198   0.156   6.556  10.579 -0.2553  0.6809 -0.2669
   93MOL0     C12199   0.174   6.488  10.701 -0.2457  0.1975  0.8197
   93MOL0     C12200   0.300   6.488  10.762  0.2291  0.1437  1.1036
   93MOL0     C12201   0.408   6.541  10.703 -0.8080  0.7101  0.9959
   93MOL0     O12202   0.525   6.521  10.771 -0.2469  0.7198  0.0279
   93MOL0     C12203   0.608   6.418  10.716  1.0969 -0.5557  0.4890
   93MOL0     C12204   0.736   6.419  10.803 -0.3969 -0.4581  0.3237
   93MOL0     C12205   0.818   6.548  10.762  0.2637  1.0031 -0.5867
   93MOL0     C12206   0.952   6.550  10.837  0.0854  0.2182  0.5899
   93MOL0     C12207   0.921   6.596  10.970  0.1499  0.1010  0.0492
   93MOL0     C12208   0.913   6.662  11.072 -1.2864  0.3642 -0.1807
   93MOL0     C12209   0.399   6.609  10.585  0.0392 -0.3262 -0.9317
   93MOL0     C12210   0.271   6.623  10.524 -0.1671  0.1147  0.4799
   93MOL0     H12211  -0.211   6.692  10.383 -0.1378  0.0730 -1.9842
   93MOL0     H12212  -0.461   6.658  10.312  0.8452 -0.2415  0.1123
   93MOL0     H12213  -0.764   6.364  10.410 -0.3496  1.0054 -2.1988
   93MOL0     H12214  -0.625   6.252  10.414  0.1748  2.4230  3.0495
   93MOL0     H12215  -0.637   6.257  10.154  1.2518  1.0105  0.4833
   93MOL0     H12216  -0.746   6.386  10.171 -0.1880 -0.9332 -2.0381
   93MOL0     H12217  -0.917   6.264  10.293  1.2706  2.2058 -0.6237
   93MOL0     H12218  -0.821   6.117  10.274  0.8704 -0.4263 -1.5238
   93MOL0     H12219  -0.898   6.319  10.044 -0.9921 -0.3162 -2.0495
   93MOL0     H12220  -0.843   6.153  10.013 -1.3935  1.5739 -1.7196
   93MOL0     H12221  -1.094   6.216  10.163 -3.8438 -1.6888 -1.4054
   93MOL0     H12222  -1.025   6.061  10.154  2.0558  1.8178  1.8290
   93MOL0     H12223  -1.231   6.130   9.994 -0.4742  1.5405 -1.2255
   93MOL0     H12224  -1.096   6.040   9.915  0.1279  0.1703 -0.2429
   93MOL0     H12225  -1.013   6.257   9.826  0.5167  2.4104  1.0915
   93MOL0     H12226  -1.190   6.229   9.793 -1.1179 -2.4343  2.1793
   93MOL0     H12227  -1.161   6.459   9.849 -0.1420 -0.5384 -0.7319
   93MOL0     H12228  -1.101   6.425  10.007  1.4495 -1.5633 -0.6368
   93MOL0     H12229  -1.428   6.466   9.808 -0.6560  0.3799  0.2829
   93MOL0     H12230  -1.673   6.460   9.857  2.0228 -3.8428 -1.7261
   93MOL0     H12231  -1.686   6.519  10.026  1.6561 -0.0108 -0.8743
   93MOL0     H12232  -1.763   6.289  10.102 -2.0558 -4.5955 -0.3927
   93MOL0     H12233  -1.698   6.222   9.959 -0.9411 -1.0599  2.4214
   93MOL0     H12234  -1.925   6.421   9.942  1.3044  0.0368 -0.9228
   93MOL0     H12235  -1.901   6.277   9.842 -1.9427 -0.3570 -0.3572
   93MOL0     H12236  -1.995   6.253  10.126 -0.9897  2.1528 -0.8237
   93MOL0     H12237  -1.955   6.111  10.030 -2.2840 -0.5356 -1.1611
   93MOL0     H12238  -2.118   6.124  10.230 -0.5887  1.8290  2.5720
   93MOL0     H12239  -2.309   6.060  10.357  0.7038 -0.4111 -0.1769
   93MOL0     H12240  -2.898   5.969  10.119  1.1364 -2.5220 -0.6259
   93MOL0     H12241  -3.116   5.931  10.243 -0.5325 -1.6664  2.8737
   93MOL0     H12242  -3.304   5.890  10.425  2.3065 -0.5531 -0.0587
   93MOL0     H12243  -3.300   6.047  10.326 -2.0744 -0.7848  0.7600
   93MOL0     H12244  -3.391   6.159  10.513  0.9032  0.1733 -0.4094
   93MOL0     H12245  -3.374   6.014  10.613  0.2743 -2.0901 -1.6028
   93MOL0     H12246  -3.543   5.894  10.448 -1.2919  0.1820  4.2685
   93MOL0     H12247  -3.531   6.031  10.335 -0.2271 -2.7369 -1.0944
   93MOL0     H12248  -3.651   6.013  10.621  0.7120 -2.7653 -0.5873
   93MOL0     H12249  -3.646   6.168  10.555 -4.0101 -0.4288  0.6816
   93MOL0     H12250  -3.800   5.924  10.462 -1.3514 -0.0378  0.6675
   93MOL0     H12251  -3.802   6.069  10.365 -2.8102  3.4798  1.6728
   93MOL0     H12252  -3.885   6.204  10.559 -0.9838 -0.2479 -0.3140
   93MOL0     H12253  -3.917   6.057  10.640 -0.8683  0.8842 -0.0178
   93MOL0     H12254  -4.015   6.144  10.366  1.3670 -0.4320  0.7207
   93MOL0     H12255  -4.040   5.979  10.443  2.1490 -0.0881 -1.0971
   93MOL0     H12256  -4.126   6.222  10.601 -0.6402 -0.8885  1.5016
   93MOL0     H12257  -4.169   6.047  10.617  2.8079 -2.6194 -1.1156
   93MOL0     H12258  -2.951   6.098  10.592 -0.8462 -1.5206  1.3199
   93MOL0     H12259  -2.732   6.182  10.446 -0.6315 -0.9617  0.6196
   93MOL0     H12260  -2.559   6.126  10.010  0.1458  0.9969  1.2843
   93MOL0     H12261  -2.362   6.176   9.877 -0.2823  0.5795  0.3338
   93MOL0     H12262  -0.445   6.289  10.521 -0.4359  0.8726  0.3870
   93MOL0     H12263  -0.220   6.316  10.573  1.0950  1.0020  1.0673
   93MOL0     H12264   0.091   6.434  10.744  1.0425 -2.6692 -0.0412
   93MOL0     H12265   0.296   6.440  10.859 -0.6196 -0.6137  0.7027
   93MOL0     H12266   0.634   6.440  10.611  1.4864  2.0818  1.0630
   93MOL0     H12267   0.554   6.323  10.723 -0.5583  0.1245 -1.8249
   93MOL0     H12268   0.717   6.424  10.911  1.3231 -2.1647  0.7678
   93MOL0     H12269   0.784   6.325  10.775 -0.8491 -0.4451 -0.5094
   93MOL0     H12270   0.760   6.637  10.786  1.1052  1.8640 -1.6184
   93MOL0     H12271   0.838   6.550  10.654  1.4546  2.6236 -0.3732
   93MOL0     H12272   1.006   6.455  10.833 -1.8386 -0.9173 -0.5499
   93MOL0     H12273   1.008   6.630  10.787  0.0317  0.4583  0.9142
   93MOL0     H12274   0.921   6.728  11.156 -0.5872  0.2184 -0.1217
   93MOL0     H12275   0.490   6.661  10.554  0.1750  2.0101  2.7447
   93MOL0     H12276   0.269   6.661  10.422  1.2786  0.8377  0.6998
   94MOL0     O12277   1.185   4.448   6.266  0.8448  0.6278  0.4418
   94MOL0     C12278   1.148   4.509   6.371  0.5509 -0.2075  0.4964
   94MOL0     O12279   1.233   4.545   6.469  0.4447  0.4758 -0.2980
   94MOL0     C12280   1.359   4.568   6.430 -0.6161  0.2596 -0.1805
   94MOL0     C12281   1.405   4.659   6.333  1.0334 -0.1044 -0.0658
   94MOL0     C12282   1.535   4.687   6.327 -1.0749 -0.3097  0.0800
   94MOL0     C12283   1.632   4.629   6.406 -0.1985 -0.0890 -0.0966
   94MOL0     O12284   1.764   4.657   6.389  0.1571  0.2886  0.0078
   94MOL0     C12285   1.809   4.706   6.265 -0.7563  0.1704  0.2925
   94MOL0     C12286   1.965   4.687   6.266  0.2342  0.1687 -0.3015
   94MOL0     C12287   2.040   4.782   6.362 -0.4075  0.2551  0.5804
   94MOL0     C12288   2.180   4.742   6.381  0.3019  1.1119  0.1162
   94MOL0     C12289   2.269   4.737   6.259 -0.2313 -0.0656 -1.0426
   94MOL0     C12290   2.255   4.863   6.171  0.5595 -0.7713 -0.0191
   94MOL0     C12291   2.291   5.005   6.235 -1.0521  1.1615 -0.7807
   94MOL0     C12292   2.436   5.009   6.295  1.2230 -0.7734 -0.5440
   94MOL0     N12293   2.539   4.991   6.197  0.3477 -0.3320 -0.3531
   94MOL0     C12294   2.617   4.882   6.168  0.2416 -0.3081 -0.6058
   94MOL0     C12295   2.684   4.910   6.058 -0.5001  0.6382 -0.1302
   94MOL0     C12296   2.789   4.818   6.010 -0.7107  0.0915 -0.0228
   94MOL0     C12297   2.734   4.680   5.975  0.1868  0.5135 -0.8094
   94MOL0     C12298   2.628   4.682   5.862 -0.3219  0.1387 -0.3968
   94MOL0     C12299   2.597   4.541   5.833 -0.6469 -0.2223 -1.4144
   94MOL0     O12300   2.498   4.484   5.923  0.8404 -0.6700 -0.4274
   94MOL0     C12301   2.368   4.510   5.893  0.1906 -0.4547  0.4905
   94MOL0     C12302   2.321   4.579   5.778  0.2307  0.4614  0.5032
   94MOL0     C12303   2.187   4.584   5.760  0.3624  0.0976 -0.2451
   94MOL0     C12304   2.093   4.533   5.854 -0.0495 -0.0235 -0.6022
   94MOL0     C12305   1.945   4.532   5.834 -0.3674 -0.1693 -0.3489
   94MOL0     O12306   1.873   4.475   5.930 -0.4826  0.1237  0.1748
   94MOL0     C12307   1.735   4.442   5.921  0.1504 -0.1040  0.3854
   94MOL0     C12308   1.654   4.435   5.802 -0.1133 -0.1164  1.3040
   94MOL0     C12309   1.518   4.398   5.815  0.1281 -0.1297  0.0266
   94MOL0     C12310   1.457   4.368   5.944  0.1283  0.7730  0.6100
   94MOL0     O12311   1.326   4.337   5.966  0.1319  0.1334 -0.6468
   94MOL0     C12312   1.258   4.284   5.853 -0.3262 -0.0364 -0.5077
   94MOL0     C12313   1.128   4.237   5.911  0.6444  0.4368 -0.4046
   94MOL0     C12314   1.026   4.356   5.935 -0.2085  1.3884  0.0185
   94MOL0     C12315   0.884   4.313   5.955  0.4007 -0.5557  0.3356
   94MOL0     C12316   0.795   4.440   5.968 -0.2369  0.2944 -0.2901
   94MOL0     C12317   0.641   4.399   5.969 -0.3474 -0.2429 -0.0815
   94MOL0     C12318   0.552   4.523   5.985  0.0453  0.5711  0.5529
   94MOL0     C12319   0.401   4.496   5.953  0.8725 -0.0333  0.4002
   94MOL0    Cl12320   0.295   4.636   5.994 -0.0691 -0.4586 -0.2067
   94MOL0     C12321   1.538   4.387   6.053 -0.1357 -0.6249  1.2714
   94MOL0     C12322   1.674   4.426   6.041  0.7307 -0.7546  0.0893
   94MOL0     O12323   1.899   4.585   5.735  0.4580  0.1810 -0.0988
   94MOL0     C12324   2.144   4.470   5.971  0.3677 -0.4199  0.7373
   94MOL0     C12325   2.280   4.464   5.984  0.7454 -0.0115  0.7483
   94MOL0     N12326   2.653   5.042   6.025 -0.3934 -0.1909 -0.0308
   94MOL0     N12327   2.572   5.090   6.108  0.6049  0.3247 -0.0253
   94MOL0     C12328   1.589   4.538   6.505  0.5323  0.0971  0.2076
   94MOL0     C12329   1.459   4.512   6.519  0.1616 -0.5353 -1.0554
   94MOL0     C12330   1.008   4.511   6.407  1.0704 -0.2413 -0.5522
   94MOL0     C12331   0.961   4.566   6.530 -0.2965 -0.2983 -0.1376
   94MOL0     C12332   0.824   4.571   6.556 -0.4693  0.4284  1.0108
   94MOL0     C12333   0.735   4.512   6.467  0.1378  0.3472  0.2856
   94MOL0     O12334   0.607   4.484   6.506  0.5952 -0.1453 -0.2006
   94MOL0     C12335   0.501   4.509   6.418  0.2403  0.2064 -0.7253
   94MOL0     C12336   0.418   4.390   6.413  0.7783  0.3527  0.1049
   94MOL0     C12337   0.303   4.421   6.318  0.0993  0.9572  0.4192
   94MOL0     C12338   0.219   4.550   6.347  0.4328 -0.2231 -0.1981
   94MOL0     C12339   0.085   4.518   6.289 -0.6735  0.2540 -0.6136
   94MOL0     C12340  -0.018   4.494   6.231 -0.8177 -0.5827 -0.2041
   94MOL0     C12341   0.779   4.462   6.341  0.9240  0.0734  0.0252
   94MOL0     C12342   0.912   4.460   6.316 -0.2495  0.2054  0.2591
   94MOL0     H12343   1.331   4.700   6.265  1.4692  0.1252 -0.4050
   94MOL0     H12344   1.569   4.775   6.274  5.9163 -2.3554  0.1504
   94MOL0     H12345   1.793   4.814   6.252  0.2134  0.1230 -1.4888
   94MOL0     H12346   1.757   4.664   6.178 -4.2737  0.8904  1.8418
   94MOL0     H12347   2.000   4.708   6.165 -0.6950  2.7142 -0.1767
   94MOL0     H12348   1.977   4.585   6.302 -0.1886  0.1137 -0.3175
   94MOL0     H12349   1.982   4.770   6.454  0.2713  1.4149  1.1949
   94MOL0     H12350   2.038   4.888   6.335 -0.9373  0.5096  1.5886
   94MOL0     H12351   2.229   4.808   6.454  1.6988  1.1820 -0.8350
   94MOL0     H12352   2.176   4.639   6.418  0.4315  1.2174  0.4299
   94MOL0     H12353   2.244   4.654   6.193  3.8131 -0.3217 -2.5293
   94MOL0     H12354   2.374   4.720   6.284  0.2655  1.2573 -2.0918
   94MOL0     H12355   2.156   4.880   6.129  1.1301 -0.5005 -1.2895
   94MOL0     H12356   2.312   4.855   6.078 -0.6855  0.4858 -0.9430
   94MOL0     H12357   2.294   5.084   6.159  1.2644  3.1638  1.2470
   94MOL0     H12358   2.212   5.052   6.294 -2.3852  2.2066 -3.2085
   94MOL0     H12359   2.439   4.926   6.367 -0.0639  1.4436  2.2988
   94MOL0     H12360   2.447   5.099   6.356  1.2276 -0.2782 -1.2723
   94MOL0     H12361   2.616   4.794   6.231  1.3166  0.0984  0.0037
   94MOL0     H12362   2.865   4.801   6.087 -1.6698  1.1122  1.1928
   94MOL0     H12363   2.839   4.863   5.924 -1.4343  1.1118  0.0778
   94MOL0     H12364   2.696   4.634   6.066  0.3695  1.8924 -0.0074
   94MOL0     H12365   2.814   4.613   5.945  0.3614 -0.1683  1.0869
   94MOL0     H12366   2.534   4.729   5.893 -1.6425 -3.5062  1.6316
   94MOL0     H12367   2.674   4.737   5.779 -2.5866 -0.3976 -2.1210
   94MOL0     H12368   2.682   4.473   5.842 -0.2680  0.4826  0.9497
   94MOL0     H12369   2.565   4.540   5.728 -0.5273  1.5729 -1.5066
   94MOL0     H12370   2.388   4.616   5.702  2.1374  0.1416  1.9556
   94MOL0     H12371   2.142   4.625   5.671  2.1321  0.7605 -0.8749
   94MOL0     H12372   1.691   4.454   5.701 -3.1602 -1.8070 -0.2718
   94MOL0     H12373   1.455   4.382   5.728 -0.2952  0.7788  0.1480
   94MOL0     H12374   1.314   4.201   5.809 -0.8555  1.4307 -4.3122
   94MOL0     H12375   1.236   4.366   5.785 -1.3961 -0.6697 -0.9407
   94MOL0     H12376   1.145   4.170   5.996  1.1763 -3.5001 -3.3397
   94MOL0     H12377   1.087   4.162   5.843 -0.5255 -3.4699  4.0119
   94MOL0     H12378   1.049   4.422   5.851  2.2537  0.0072 -0.4911
   94MOL0     H12379   1.061   4.412   6.023  3.5069  3.6055 -2.5717
   94MOL0     H12380   0.848   4.253   5.872  1.2046  1.1729 -1.3535
   94MOL0     H12381   0.875   4.247   6.042  2.6431  0.8129  1.7128
   94MOL0     H12382   0.817   4.502   5.881  0.2301  3.7872  2.1068
   94MOL0     H12383   0.829   4.495   6.057  0.8487  2.4383 -1.9260
   94MOL0     H12384   0.631   4.331   6.053 -1.2776 -0.8562 -0.6649
   94MOL0     H12385   0.611   4.353   5.874 -2.8627 -0.5859  0.7875
   94MOL0     H12386   0.573   4.555   6.087  4.5250  2.0833 -0.5951
   94MOL0     H12387   0.585   4.601   5.915  0.5316 -1.5143 -1.6750
   94MOL0     H12388   0.359   4.415   6.013 -1.7760  2.0049  1.4862
   94MOL0     H12389   0.386   4.455   5.852 -3.1451 -2.0217  1.6185
   94MOL0     H12390   1.486   4.379   6.148  1.4301  1.0070  2.3499
   94MOL0     H12391   1.729   4.451   6.132  0.8215 -4.0372  1.0743
   94MOL0     H12392   2.071   4.432   6.042 -0.4575 -2.9617 -1.2988
   94MOL0     H12393   2.320   4.408   6.068  1.6149  1.3290  1.2667
   94MOL0     H12394   1.675   4.494   6.555  2.1561  0.9703 -1.7047
   94MOL0     H12395   1.428   4.452   6.604 -5.0983  2.3732 -0.5372
   94MOL0     H12396   1.027   4.581   6.615  2.0755 -1.8002 -1.5944
   94MOL0     H12397   0.791   4.601   6.655  2.6498 -0.0651  2.3154
   94MOL0     H12398   0.542   4.544   6.323  2.6673  1.5964  0.7239
   94MOL0     H12399   0.447   4.597   6.455  3.2375  2.2600 -0.8481
   94MOL0     H12400   0.456   4.295   6.375  0.6778  1.5430 -3.3809
   94MOL0     H12401   0.373   4.376   6.512 -1.8620  2.4992 -0.6673
   94MOL0     H12402   0.240   4.333   6.335 -1.0684  2.0431  1.9685
   94MOL0     H12403   0.338   4.424   6.214  2.5013 -1.1509  1.0715
   94MOL0     H12404   0.207   4.568   6.454 -0.6720  1.5538 -0.5858
   94MOL0     H12405   0.288   4.623   6.304  3.7896 -1.9808  1.7507
   94MOL0     H12406  -0.112   4.476   6.183 -0.1861  0.2533 -1.8447
   94MOL0     H12407   0.697   4.416   6.286  1.0688 -0.8516  0.5630
   94MOL0     H12408   0.954   4.420   6.224 -0.5730  0.4228  0.0143
   95MOL0     O12409  11.115   1.597   7.544  0.2993  0.2074 -0.6019
   95MOL0     C12410  11.172   1.660   7.456  0.1958  0.1554  0.1856
   95MOL0     O12411  11.112   1.706   7.352  0.5676 -0.0690  0.3684
   95MOL0     C12412  10.982   1.668   7.323  0.1186 -0.3730 -0.0394
   95MOL0     C12413  10.884   1.763   7.325 -0.2711 -0.3172 -0.1498
   95MOL0     C12414  10.742   1.732   7.336  0.7030  0.2949  0.0240
   95MOL0     C12415  10.715   1.596   7.352  0.2081 -0.7593 -0.4032
   95MOL0     O12416  10.590   1.544   7.354 -0.1975 -0.7061 -1.5095
   95MOL0     C12417  10.489   1.620   7.424  0.8467 -0.9592 -0.3507
   95MOL0     C12418  10.356   1.549   7.450 -0.2305 -0.0135 -0.4265
   95MOL0     C12419  10.289   1.480   7.332  0.3728 -0.4580  0.0822
   95MOL0     C12420  10.152   1.549   7.312 -0.0931 -0.0851 -0.0868
   95MOL0     C12421  10.066   1.473   7.213  0.6868  0.7108  0.2402
   95MOL0     C12422  10.020   1.340   7.262 -0.9359 -0.6037 -0.0271
   95MOL0     C12423   9.890   1.288   7.192  0.5467  0.8772 -0.3344
   95MOL0     C12424   9.768   1.364   7.220  1.4576  0.0617 -0.2868
   95MOL0     N12425   9.659   1.277   7.191  0.6071 -0.4111  0.3117
   95MOL0     C12426   9.570   1.296   7.089 -0.5344 -0.1605 -0.5768
   95MOL0     C12427   9.470   1.207   7.113 -0.2205  0.2398  0.6859
   95MOL0     C12428   9.343   1.186   7.023  0.7709  0.3907  0.5924
   95MOL0     C12429   9.370   1.068   6.925 -0.5242 -0.2395  0.4439
   95MOL0     C12430   9.235   1.025   6.873  0.5367  0.5236 -0.5991
   95MOL0     C12431   9.157   1.140   6.813  0.9160 -0.2681  0.6165
   95MOL0     O12432   9.042   1.090   6.753  0.1705  0.0655  0.4297
   95MOL0     C12433   8.935   1.173   6.750  0.6066  0.3787  0.4729
   95MOL0     C12434   8.926   1.317   6.780  0.6846  0.3512 -0.6074
   95MOL0     C12435   8.801   1.382   6.761 -0.5715 -0.3464 -0.3272
   95MOL0     C12436   8.692   1.321   6.692 -0.6532 -0.1736  0.2093
   95MOL0     C12437   8.562   1.392   6.659 -0.0059  0.3120 -0.2729
   95MOL0     O12438   8.467   1.336   6.586  1.1765  0.4762  0.3242
   95MOL0     C12439   8.339   1.393   6.569  0.0963 -0.3617 -0.4308
   95MOL0     C12440   8.314   1.528   6.532  0.5484 -0.3782  0.0742
   95MOL0     C12441   8.184   1.575   6.519  0.8557 -0.8854  0.4416
   95MOL0     C12442   8.069   1.487   6.529  0.3168 -0.1265  1.0123
   95MOL0     O12443   7.949   1.552   6.510  0.1840  0.3524 -0.3887
   95MOL0     C12444   7.835   1.471   6.527  0.5074  0.6185 -0.6084
   95MOL0     C12445   7.715   1.543   6.569 -0.2187 -0.8902 -0.2236
   95MOL0     C12446   7.592   1.454   6.564 -0.3734  0.0816 -0.3621
   95MOL0     C12447   7.457   1.523   6.605 -0.0783 -0.2448 -0.1862
   95MOL0     C12448   7.451   1.562   6.748 -0.0313 -0.5049  0.0634
   95MOL0     C12449   7.311   1.602   6.786  0.2943 -0.8889 -0.4275
   95MOL0     C12450   7.304   1.647   6.935  0.6310 -0.3241 -0.5392
   95MOL0     C12451   7.169   1.690   6.988  0.1297 -0.7947 -0.1401
   95MOL0    Cl12452   7.130   1.839   6.903 -0.0975 -0.3391 -0.1560
   95MOL0     C12453   8.091   1.350   6.537 -0.7829  0.2426 -0.1408
   95MOL0     C12454   8.219   1.307   6.556 -1.1568  0.0539  0.5130
   95MOL0     O12455   8.558   1.505   6.707  0.3342  0.3641 -0.8551
   95MOL0     C12456   8.705   1.190   6.658  0.6013 -0.5638  0.5321
   95MOL0     C12457   8.819   1.117   6.698  0.6194  0.2543  0.5907
   95MOL0     N12458   9.508   1.133   7.223 -0.0168 -0.4294 -0.1965
   95MOL0     N12459   9.615   1.178   7.266  0.0609  0.3211 -0.4680
   95MOL0     C12460  10.817   1.495   7.332  0.2620 -0.6201 -1.1128
   95MOL0     C12461  10.948   1.528   7.319 -0.2318  1.1574 -0.1273
   95MOL0     C12462  11.319   1.672   7.459  0.0066 -0.6934  0.5412
   95MOL0     C12463  11.401   1.588   7.537 -0.6544 -0.0486 -0.0379
   95MOL0     C12464  11.547   1.606   7.539 -0.0466  0.3093 -1.0478
   95MOL0     C12465  11.617   1.695   7.460  0.1157 -0.0347 -0.5984
   95MOL0     O12466  11.750   1.722   7.456  0.0385  1.0159 -0.3379
   95MOL0     C12467  11.838   1.608   7.494 -0.2364 -0.4803  0.1416
   95MOL0     C12468  11.959   1.577   7.417 -0.3057  0.2248 -0.4702
   95MOL0     C12469  11.929   1.541   7.269 -0.1645 -0.4997  0.5070
   95MOL0     C12470  12.048   1.548   7.176 -0.0668 -0.5388 -0.2145
   95MOL0     C12471  12.087   1.695   7.165  0.3973  0.6759  0.2695
   95MOL0     C12472  12.136   1.806   7.168  0.3205  0.2593  0.3725
   95MOL0     C12473  11.534   1.778   7.382 -0.6576  0.2406 -0.4258
   95MOL0     C12474  11.394   1.766   7.384  0.4959 -0.2374  0.9930
   95MOL0     H12475  10.908   1.869   7.317 -2.6865  0.1769 -1.9645
   95MOL0     H12476  10.672   1.815   7.328  0.8140  0.2584 -1.7329
   95MOL0     H12477  10.451   1.697   7.355 -2.3600 -0.9025  1.2784
   95MOL0     H12478  10.518   1.680   7.511 -2.4172 -0.1697  0.3375
   95MOL0     H12479  10.287   1.625   7.487  1.2626  1.2619 -0.1467
   95MOL0     H12480  10.383   1.478   7.529 -0.2467 -2.1191 -2.2142
   95MOL0     H12481  10.276   1.373   7.353  1.4577 -0.5295  0.4474
   95MOL0     H12482  10.348   1.486   7.241 -0.9228  0.3424 -0.7335
   95MOL0     H12483  10.090   1.555   7.402 -0.7149 -1.9432 -0.3371
   95MOL0     H12484  10.168   1.649   7.272 -2.1950  1.0386  1.6549
   95MOL0     H12485  10.112   1.461   7.114 -0.3852 -0.7853 -0.1101
   95MOL0     H12486   9.980   1.537   7.188  1.0220 -0.4094 -4.8235
   95MOL0     H12487   9.998   1.335   7.369 -0.3840 -1.1452  0.0658
   95MOL0     H12488  10.100   1.269   7.241 -0.8389 -0.1084 -1.4437
   95MOL0     H12489   9.895   1.280   7.083  1.0879  0.6229 -0.2962
   95MOL0     H12490   9.883   1.184   7.227  2.3477 -0.1162 -2.6541
   95MOL0     H12491   9.759   1.461   7.172  0.5112  0.2013  0.1288
   95MOL0     H12492   9.769   1.386   7.327 -2.2530  2.4266 -0.5490
   95MOL0     H12493   9.574   1.368   7.008  2.0470 -1.4887 -1.7214
   95MOL0     H12494   9.339   1.277   6.962  2.7774 -0.7423 -1.3619
   95MOL0     H12495   9.255   1.176   7.087  3.4418 -1.6337  4.3280
   95MOL0     H12496   9.422   0.985   6.974 -2.1224 -0.4542  1.8876
   95MOL0     H12497   9.444   1.088   6.846  0.6375 -0.9534  1.3138
   95MOL0     H12498   9.251   0.953   6.792 -0.0158  0.8583 -1.0151
   95MOL0     H12499   9.170   0.982   6.950  0.4788  3.2193  1.0056
   95MOL0     H12500   9.227   1.191   6.746  1.5691  0.7678  2.0422
   95MOL0     H12501   9.120   1.208   6.890 -1.9607 -0.1115 -0.7618
   95MOL0     H12502   9.008   1.383   6.806 -1.0391  1.7878  1.5744
   95MOL0     H12503   8.810   1.482   6.802  1.3309 -0.7634  0.3441
   95MOL0     H12504   8.394   1.597   6.509  0.7528 -0.7281 -0.2675
   95MOL0     H12505   8.161   1.677   6.491 -0.6972 -1.4839 -0.6456
   95MOL0     H12506   7.843   1.392   6.602 -1.0744  0.5669 -0.4647
   95MOL0     H12507   7.813   1.415   6.436 -2.6798  2.6287 -1.2135
   95MOL0     H12508   7.693   1.628   6.503 -0.1508 -1.7654 -1.4110
   95MOL0     H12509   7.738   1.578   6.670  2.1249 -2.0668 -0.2842
   95MOL0     H12510   7.613   1.364   6.623  1.0990 -0.7106 -2.0159
   95MOL0     H12511   7.581   1.427   6.458  1.4811  1.7289 -1.0231
   95MOL0     H12512   7.433   1.611   6.544 -2.8406 -0.2042  0.8472
   95MOL0     H12513   7.376   1.453   6.582  1.1527 -1.3666 -1.2949
   95MOL0     H12514   7.519   1.646   6.765 -4.1468  3.6542 -1.6767
   95MOL0     H12515   7.484   1.471   6.798  1.5441  0.3377  0.6095
   95MOL0     H12516   7.246   1.514   6.786 -0.6680 -0.4220  4.2045
   95MOL0     H12517   7.278   1.684   6.723  5.1447 -1.0262 -3.7428
   95MOL0     H12518   7.332   1.556   6.988  1.6993  0.4997  0.3568
   95MOL0     H12519   7.373   1.731   6.945 -1.3389  1.1918  1.2133
   95MOL0     H12520   7.170   1.718   7.093  0.8686  0.4971 -0.4774
   95MOL0     H12521   7.096   1.609   6.977 -0.3022 -0.4040 -0.1749
   95MOL0     H12522   8.020   1.269   6.524 -0.9103  0.4091 -0.5220
   95MOL0     H12523   8.234   1.200   6.569 -1.2347  0.0807  0.8318
   95MOL0     H12524   8.632   1.123   6.613  4.0299 -2.6310 -2.5612
   95MOL0     H12525   8.822   1.009   6.685 -2.0903 -0.0182  1.5988
   95MOL0     H12526  10.796   1.390   7.349  1.0301 -1.1460 -3.1252
   95MOL0     H12527  11.027   1.455   7.305 -2.2696 -0.8242 -2.1445
   95MOL0     H12528  11.370   1.505   7.600  2.3361 -0.9803  0.3296
   95MOL0     H12529  11.593   1.535   7.607 -0.5663 -0.3284 -1.3425
   95MOL0     H12530  11.775   1.518   7.493 -1.8350  0.5886  0.1872
   95MOL0     H12531  11.856   1.635   7.598 -2.4211 -4.6984  1.8572
   95MOL0     H12532  12.028   1.662   7.420 -1.2630  0.9931  0.2797
   95MOL0     H12533  12.006   1.495   7.471  0.4621  1.2542  0.4792
   95MOL0     H12534  11.845   1.600   7.231 -0.5575 -2.0422 -1.1211
   95MOL0     H12535  11.894   1.439   7.254 -0.2592 -0.2750 -0.9443
   95MOL0     H12536  12.127   1.484   7.217  0.7136  0.6337  0.1843
   95MOL0     H12537  12.017   1.515   7.076 -1.0432  0.2394 -0.1745
   95MOL0     H12538  12.178   1.905   7.171  2.6470 -0.4767 -2.5356
   95MOL0     H12539  11.583   1.855   7.323 -0.0619  2.0659  2.2797
   95MOL0     H12540  11.342   1.839   7.323  0.8500 -0.5150  0.3510
   96MOL0     O12541   6.260   0.528   8.904 -0.7356 -0.2600 -0.1739
   96MOL0     C12542   6.279   0.553   9.021  0.2253  0.7831  0.5930
   96MOL0     O12543   6.181   0.557   9.113 -0.3670 -0.2209 -0.6978
   96MOL0     C12544   6.048   0.517   9.087  1.0469  0.2531  0.8450
   96MOL0     C12545   5.965   0.467   9.189 -0.3539  0.3847 -0.5681
   96MOL0     C12546   5.834   0.430   9.170 -1.0005  0.3407  0.7436
   96MOL0     C12547   5.768   0.438   9.041  0.1999 -0.5260 -0.9602
   96MOL0     O12548   5.647   0.380   8.999  0.0454  0.5484 -0.1486
   96MOL0     C12549   5.586   0.295   9.101  0.4755 -0.0693 -0.5911
   96MOL0     C12550   5.502   0.381   9.193  1.0025 -0.2276 -0.2322
   96MOL0     C12551   5.380   0.431   9.120 -0.4342 -0.0707  0.5398
   96MOL0     C12552   5.293   0.515   9.212  0.0364  0.2007  0.8624
   96MOL0     C12553   5.171   0.574   9.145 -0.9273 -0.5970  0.0112
   96MOL0     C12554   5.048   0.486   9.131 -0.4688 -0.4044 -0.4691
   96MOL0     C12555   4.918   0.553   9.081  0.5063  0.9393  0.1089
   96MOL0     C12556   4.868   0.646   9.192 -0.7970 -0.1162 -0.2000
   96MOL0     N12557   4.741   0.715   9.153 -0.3113  0.6744  0.1871
   96MOL0     C12558   4.619   0.704   9.216  0.2088  0.1155  0.1034
   96MOL0     C12559   4.536   0.777   9.139 -0.4959 -0.5422 -0.0828
   96MOL0     C12560   4.392   0.788   9.180  0.8795  0.2351 -0.1990
   96MOL0     C12561   4.289   0.782   9.056  0.4959 -0.2053 -0.2345
   96MOL0     C12562   4.141   0.776   9.106  0.4941 -0.1821 -0.2711
   96MOL0     C12563   4.082   0.909   9.134  0.0189  0.3179  0.4678
   96MOL0     O12564   3.954   0.889   9.190 -0.2247 -0.8676  0.5944
   96MOL0     C12565   3.844   0.885   9.105 -0.1967 -0.4876 -0.4513
   96MOL0     C12566   3.724   0.869   9.171  0.3159 -1.0577 -0.2392
   96MOL0     C12567   3.595   0.853   9.118  0.3082  0.4474  0.4620
   96MOL0     C12568   3.593   0.853   8.974 -1.1308 -0.2331 -0.3791
   96MOL0     C12569   3.461   0.827   8.905 -0.3282  0.4707 -0.5993
   96MOL0     O12570   3.350   0.838   8.980  1.0975  0.1336 -0.1253
   96MOL0     C12571   3.230   0.810   8.916 -0.1880  0.4417  0.8440
   96MOL0     C12572   3.176   0.893   8.810  0.1917  0.3693  0.4357
   96MOL0     C12573   3.071   0.850   8.726  0.3381 -0.3643 -0.6582
   96MOL0     C12574   3.002   0.742   8.766  0.6936  0.8355  0.5414
   96MOL0     O12575   2.892   0.718   8.685  0.3922 -0.6306 -0.5620
   96MOL0     C12576   2.812   0.608   8.700 -0.1798  0.6538 -0.2851
   96MOL0     C12577   2.708   0.587   8.592  0.8075 -0.0543 -0.5400
   96MOL0     C12578   2.622   0.722   8.581 -0.5313  0.3708 -0.9643
   96MOL0     C12579   2.538   0.714   8.454  0.3827 -0.0942 -0.6426
   96MOL0     C12580   2.508   0.862   8.402 -0.4041 -0.2331  0.6100
   96MOL0     C12581   2.624   0.940   8.335 -0.4323 -0.2195  0.1041
   96MOL0     C12582   2.569   1.054   8.250 -0.3055 -0.6071 -0.8141
   96MOL0     C12583   2.556   1.022   8.102  0.0384  0.0136  0.8277
   96MOL0    Cl12584   2.709   0.986   8.015  0.0669 -0.1500 -0.3292
   96MOL0     C12585   3.049   0.667   8.867  0.0229  0.4643  0.5883
   96MOL0     C12586   3.157   0.699   8.945 -0.1570  0.6115 -0.5258
   96MOL0     O12587   3.466   0.804   8.784  0.4943  0.1931  0.2506
   96MOL0     C12588   3.719   0.854   8.904 -0.4260 -0.2564  0.0409
   96MOL0     C12589   3.836   0.864   8.967  0.0428 -0.2051 -0.3725
   96MOL0     N12590   4.610   0.822   9.028 -0.0865  0.0827 -0.0258
   96MOL0     N12591   4.734   0.796   9.044  0.3667  0.2068  0.0131
   96MOL0     C12592   5.840   0.504   8.944  0.3413  0.6229 -0.7969
   96MOL0     C12593   5.979   0.542   8.967  0.3821 -0.2552  0.7100
   96MOL0     C12594   6.411   0.579   9.064  0.3783 -0.0016  1.3571
   96MOL0     C12595   6.446   0.606   9.200  0.8148  0.4120 -0.8316
   96MOL0     C12596   6.582   0.624   9.244  0.2405 -0.0273  0.8179
   96MOL0     C12597   6.686   0.638   9.147 -0.0644 -0.3210  0.4847
   96MOL0     O12598   6.816   0.656   9.177 -0.7038  0.1719  0.2224
   96MOL0     C12599   6.840   0.712   9.299  0.0426 -0.3955  0.5494
   96MOL0     C12600   6.855   0.598   9.398  0.1256 -0.8181  0.4012
   96MOL0     C12601   6.995   0.520   9.401  0.0197 -0.0800  0.7873
   96MOL0     C12602   7.122   0.619   9.409  0.4489 -0.4747  0.2115
   96MOL0     C12603   7.118   0.695   9.535 -0.4890 -0.0411 -0.3275
   96MOL0     C12604   7.111   0.761   9.638  1.2445  0.5495 -0.3552
   96MOL0     C12605   6.651   0.610   9.012 -0.0656 -0.8114 -0.1688
   96MOL0     C12606   6.516   0.588   8.975 -0.7585  0.5361 -0.6520
   96MOL0     H12607   6.025   0.447   9.277  1.1386 -1.8915 -2.0165
   96MOL0     H12608   5.783   0.388   9.256 -2.1953  0.1510 -0.0239
   96MOL0     H12609   5.663   0.238   9.152  0.7016  0.6893 -0.0746
   96MOL0     H12610   5.508   0.231   9.057  2.1106 -0.4118 -3.2431
   96MOL0     H12611   5.556   0.465   9.237 -1.9174  1.5097  0.2935
   96MOL0     H12612   5.461   0.318   9.273 -1.8308 -0.1143 -1.4925
   96MOL0     H12613   5.319   0.347   9.087 -0.3716 -0.4830  1.4536
   96MOL0     H12614   5.407   0.490   9.032 -1.8351 -1.7800 -1.1138
   96MOL0     H12615   5.261   0.454   9.298  0.7403 -0.5262  0.6229
   96MOL0     H12616   5.360   0.591   9.252  1.8655 -2.1936  2.7325
   96MOL0     H12617   5.198   0.614   9.047 -1.6890  2.0425  0.7836
   96MOL0     H12618   5.143   0.660   9.207 -1.8867  1.5624 -3.1909
   96MOL0     H12619   5.032   0.446   9.231 -0.4068 -2.5455 -1.2702
   96MOL0     H12620   5.063   0.403   9.062  0.3270 -1.3207  0.7707
   96MOL0     H12621   4.939   0.605   8.987 -0.2079  0.4617 -0.3304
   96MOL0     H12622   4.838   0.481   9.059  1.8849  0.0860 -2.6833
   96MOL0     H12623   4.945   0.720   9.215  0.1150 -0.6882 -1.2622
   96MOL0     H12624   4.857   0.587   9.283  2.3636  1.5683  1.4540
   96MOL0     H12625   4.592   0.649   9.305 -2.2864  0.4802 -0.3518
   96MOL0     H12626   4.372   0.878   9.239  0.0470 -0.8556  1.2538
   96MOL0     H12627   4.369   0.703   9.244  1.5975  1.4840  1.8315
   96MOL0     H12628   4.300   0.692   8.996 -0.0800 -1.0807  0.9150
   96MOL0     H12629   4.298   0.868   8.990  0.1449  0.9165  1.1314
   96MOL0     H12630   4.080   0.736   9.025 -0.9555  0.8154  0.2820
   96MOL0     H12631   4.131   0.711   9.193 -1.6194 -0.5292 -0.7411
   96MOL0     H12632   4.083   0.970   9.043 -1.6714  1.4877  1.1788
   96MOL0     H12633   4.137   0.969   9.206 -1.1784  0.1031  1.6114
   96MOL0     H12634   3.737   0.880   9.279  0.9994  2.0483 -0.5326
   96MOL0     H12635   3.501   0.829   9.165 -0.2784  2.9224  0.6709
   96MOL0     H12636   3.237   0.980   8.788  0.2523  1.4993  4.4445
   96MOL0     H12637   3.027   0.898   8.640  3.3965 -2.3329 -3.6086
   96MOL0     H12638   2.738   0.626   8.778 -4.3510 -2.3074 -3.1057
   96MOL0     H12639   2.876   0.519   8.704  0.6174  1.1767 -1.0356
   96MOL0     H12640   2.646   0.499   8.610  0.4320  0.0794 -1.1687
   96MOL0     H12641   2.758   0.564   8.498 -1.2402  4.6529 -3.1513
   96MOL0     H12642   2.685   0.810   8.572  1.1970 -0.7198  0.0079
   96MOL0     H12643   2.564   0.730   8.673 -0.1275  1.2511 -0.7816
   96MOL0     H12644   2.599   0.667   8.376 -0.8655 -0.6055 -1.3353
   96MOL0     H12645   2.444   0.661   8.472  0.0806  1.2463  2.3274
   96MOL0     H12646   2.480   0.936   8.478  2.2665  0.8312  0.6680
   96MOL0     H12647   2.425   0.851   8.332  1.5857  0.9414 -2.0944
   96MOL0     H12648   2.689   0.878   8.272 -0.4172  1.1610 -1.3081
   96MOL0     H12649   2.692   0.981   8.410 -1.8701  2.1724  0.1963
   96MOL0     H12650   2.478   1.096   8.292  1.1774 -0.8745  3.0765
   96MOL0     H12651   2.653   1.124   8.258  4.3836 -5.4195 -1.7495
   96MOL0     H12652   2.501   1.091   8.038  1.3113  0.1209 -0.1763
   96MOL0     H12653   2.495   0.931   8.094 -0.1709 -0.0813  2.8910
   96MOL0     H12654   3.001   0.575   8.897 -0.5560  1.4843  2.9699
   96MOL0     H12655   3.174   0.627   9.024 -1.1810  0.4016 -0.4901
   96MOL0     H12656   3.715   0.862   8.796 -2.9555  3.4241  0.2119
   96MOL0     H12657   3.925   0.878   8.906  0.5313 -1.0080  0.1400
   96MOL0     H12658   5.802   0.516   8.842  0.0061 -1.2404 -0.9316
   96MOL0     H12659   6.030   0.594   8.886 -1.0873  1.3618  0.7757
   96MOL0     H12660   6.376   0.599   9.282  1.2966 -0.3943 -0.4755
   96MOL0     H12661   6.604   0.642   9.348  1.9487  3.0821  0.0426
   96MOL0     H12662   6.762   0.783   9.325 -1.3814 -0.0103 -4.0153
   96MOL0     H12663   6.931   0.772   9.293  0.3892 -0.7635  1.8480
   96MOL0     H12664   6.832   0.635   9.498  3.0531  2.0416  0.1993
   96MOL0     H12665   6.778   0.524   9.377  1.2526 -1.3761 -2.1235
   96MOL0     H12666   7.004   0.454   9.314  0.8099  0.9049  0.0960
   96MOL0     H12667   6.986   0.453   9.487  1.6505 -0.1854  0.9109
   96MOL0     H12668   7.215   0.563   9.396 -0.3601 -2.0918  1.0524
   96MOL0     H12669   7.115   0.690   9.326 -1.0028 -1.4415 -0.5247
   96MOL0     H12670   7.107   0.831   9.719  1.6458  2.3902 -1.8813
   96MOL0     H12671   6.724   0.613   8.932 -0.5562 -1.2254 -0.6336
   96MOL0     H12672   6.503   0.563   8.871 -1.2785  0.6833 -0.6243
   97MOL0     O12673  10.375   6.563   4.671 -0.2704 -0.4044  0.1988
   97MOL0     C12674  10.448   6.520   4.762 -0.0051 -0.1252 -0.3046
   97MOL0     O12675  10.406   6.455   4.873 -0.1921 -0.3798 -0.1194
   97MOL0     C12676  10.272   6.432   4.896  1.2159  0.6160  0.3574
   97MOL0     C12677  10.179   6.380   4.805 -0.0420 -0.1961  0.7760
   97MOL0     C12678  10.046   6.364   4.842 -0.1329 -0.4214  0.0566
   97MOL0     C12679  10.000   6.394   4.970  0.0989  0.5575  0.9450
   97MOL0     O12680   9.863   6.385   4.994 -0.6690 -0.3354 -0.1453
   97MOL0     C12681   9.828   6.311   5.115  0.2935 -0.0362  0.3872
   97MOL0     C12682   9.676   6.290   5.098 -0.4142  0.1233 -0.1972
   97MOL0     C12683   9.644   6.220   4.966  0.0816 -0.2971 -0.2432
   97MOL0     C12684   9.495   6.183   4.961 -0.0504 -0.0912 -0.5818
   97MOL0     C12685   9.428   6.309   4.907 -0.1569  0.7169  0.4387
   97MOL0     C12686   9.278   6.311   4.920  0.2683 -0.2222 -0.5589
   97MOL0     C12687   9.255   6.389   5.049 -0.9524  0.3677  0.4811
   97MOL0     C12688   9.115   6.381   5.095  0.5058 -0.3129  0.2414
   97MOL0     N12689   9.031   6.478   5.030  0.0995 -0.4920 -0.2363
   97MOL0     C12690   8.956   6.453   4.917 -0.4553 -0.2660 -0.9409
   97MOL0     C12691   8.916   6.577   4.877  0.7883  0.8262 -0.5286
   97MOL0     C12692   8.828   6.591   4.754  0.8667 -0.2573 -0.5194
   97MOL0     C12693   8.689   6.529   4.772 -0.0444 -0.8621  0.0040
   97MOL0     C12694   8.619   6.520   4.638  0.2375  0.3706 -0.2811
   97MOL0     C12695   8.479   6.460   4.644 -0.7529 -0.0479 -0.0089
   97MOL0     O12696   8.480   6.317   4.671  0.9529 -0.3869  0.2502
   97MOL0     C12697   8.357   6.258   4.712  0.3949 -0.2115  0.0824
   97MOL0     C12698   8.343   6.130   4.770  0.6753 -0.2246 -0.0793
   97MOL0     C12699   8.226   6.072   4.796 -0.4468  0.3373 -0.5347
   97MOL0     C12700   8.104   6.134   4.765 -0.3416  0.1055  0.4140
   97MOL0     C12701   7.983   6.062   4.801 -0.6326  0.4159 -0.7003
   97MOL0     O12702   7.993   5.957   4.900  0.2109 -0.8639 -0.1941
   97MOL0     C12703   7.877   5.884   4.913 -1.0442  0.0730  0.7032
   97MOL0     C12704   7.784   5.918   5.013 -0.1954  0.0530  0.8027
   97MOL0     C12705   7.665   5.846   5.025 -0.8214  0.1916  0.1649
   97MOL0     C12706   7.643   5.732   4.947  0.0225 -1.0516  0.6882
   97MOL0     O12707   7.527   5.655   4.953 -0.1645 -0.1075  0.4007
   97MOL0     C12708   7.406   5.699   5.016 -0.5503 -0.3898  0.3117
   97MOL0     C12709   7.339   5.801   4.929  0.4839  0.2737 -0.7309
   97MOL0     C12710   7.301   5.749   4.789 -0.3434 -0.0238  0.8096
   97MOL0     C12711   7.201   5.847   4.726 -0.0699 -0.3435  0.2417
   97MOL0     C12712   7.155   5.804   4.583  0.3623 -0.5798 -0.6907
   97MOL0     C12713   7.055   5.902   4.513 -0.1288  0.7098  0.2044
   97MOL0     C12714   6.993   5.827   4.390  0.3367  0.4234 -0.4104
   97MOL0     C12715   6.891   5.916   4.322 -0.0013 -0.8254 -0.0666
   97MOL0    Cl12716   6.760   5.947   4.439  0.2954  0.4343  0.0147
   97MOL0     C12717   7.740   5.700   4.854 -0.0644  0.1646 -0.2247
   97MOL0     C12718   7.858   5.769   4.839  0.4259 -0.3758 -0.9336
   97MOL0     O12719   7.883   6.105   4.749 -0.0284 -0.7732  0.5531
   97MOL0     C12720   8.109   6.254   4.695  0.2177  0.2873  0.3140
   97MOL0     C12721   8.238   6.319   4.679 -0.1051 -0.0950  0.3428
   97MOL0     N12722   8.962   6.672   4.964  0.1991 -0.4196 -0.3285
   97MOL0     N12723   9.038   6.612   5.050  1.2624 -0.1625  0.1115
   97MOL0     C12724  10.095   6.433   5.066 -0.5384 -0.7416 -0.9303
   97MOL0     C12725  10.234   6.455   5.029 -0.3571 -0.0324 -0.1766
   97MOL0     C12726  10.600   6.539   4.765 -0.1564  0.2733  0.3420
   97MOL0     C12727  10.673   6.522   4.874  1.0727 -0.2086  0.2593
   97MOL0     C12728  10.810   6.528   4.885 -0.8042  0.4292  0.0570
   97MOL0     C12729  10.889   6.553   4.778  0.9626  0.0639  1.0500
   97MOL0     O12730  11.028   6.546   4.795 -0.2209  0.1273  0.2422
   97MOL0     C12731  11.112   6.547   4.678 -0.1777 -0.0099  0.2003
   97MOL0     C12732  11.252   6.497   4.702 -0.0811 -0.2482  0.1099
   97MOL0     C12733  11.335   6.553   4.824 -0.1919  0.1596  0.5165
   97MOL0     C12734  11.472   6.488   4.822 -0.0695  0.4328  1.0283
   97MOL0     C12735  11.566   6.512   4.714 -0.5614  0.7142  0.2501
   97MOL0     C12736  11.663   6.539   4.645  0.4645 -0.2188 -0.1023
   97MOL0     C12737  10.819   6.559   4.650 -1.1026  0.0615 -0.2862
   97MOL0     C12738  10.679   6.561   4.650 -0.3070  0.4296 -1.0966
   97MOL0     H12739  10.207   6.368   4.701  4.0070  0.1086  1.6325
   97MOL0     H12740   9.967   6.332   4.774 -0.7219 -0.0625  0.5652
   97MOL0     H12741   9.862   6.363   5.205 -1.2541  2.1332 -0.2175
   97MOL0     H12742   9.880   6.215   5.115  2.4973  1.0882 -0.8078
   97MOL0     H12743   9.647   6.395   5.107  2.1729  0.8423  0.9233
   97MOL0     H12744   9.634   6.239   5.185 -0.7919  2.4036  1.0328
   97MOL0     H12745   9.698   6.124   4.968 -2.0777 -1.5862  1.2488
   97MOL0     H12746   9.675   6.279   4.880  0.5443  1.0387  0.7953
   97MOL0     H12747   9.475   6.099   4.895 -2.4495  0.6309 -0.8721
   97MOL0     H12748   9.450   6.151   5.055  1.7847 -2.1904 -0.3349
   97MOL0     H12749   9.459   6.318   4.802 -2.9647 -0.8036 -0.6339
   97MOL0     H12750   9.470   6.392   4.964 -1.1721  2.2354 -0.9435
   97MOL0     H12751   9.231   6.213   4.938 -1.7294  1.1122  2.3071
   97MOL0     H12752   9.240   6.367   4.834  0.7119 -0.8736 -1.1898
   97MOL0     H12753   9.319   6.343   5.125  0.1216 -2.8073 -2.0929
   97MOL0     H12754   9.293   6.488   5.025 -1.3791 -0.1146 -2.6045
   97MOL0     H12755   9.115   6.405   5.201 -1.0085 -0.4246  0.2836
   97MOL0     H12756   9.071   6.282   5.081 -0.2490 -0.0422  0.6598
   97MOL0     H12757   8.931   6.359   4.869  0.0230 -0.2990 -1.1241
   97MOL0     H12758   8.874   6.532   4.674 -0.5263 -1.3237 -0.5645
   97MOL0     H12759   8.824   6.697   4.729  0.2671  0.4136  2.1721
   97MOL0     H12760   8.639   6.581   4.855  0.5108  0.9173 -0.7184
   97MOL0     H12761   8.696   6.429   4.814  1.2836 -0.4150  0.9317
   97MOL0     H12762   8.616   6.619   4.592  0.8821 -0.7398 -2.8784
   97MOL0     H12763   8.681   6.455   4.575  1.3732  0.7292  0.4374
   97MOL0     H12764   8.436   6.480   4.546  2.3717  3.3896 -0.9014
   97MOL0     H12765   8.418   6.506   4.722 -0.5212  0.8649 -0.3576
   97MOL0     H12766   8.438   6.077   4.777  1.0375  0.5406  1.4490
   97MOL0     H12767   8.223   5.984   4.859  2.4346  1.5157  1.4894
   97MOL0     H12768   7.803   5.996   5.087 -0.7596  0.1592  0.8389
   97MOL0     H12769   7.598   5.866   5.108  0.4960  2.7966  0.7134
   97MOL0     H12770   7.435   5.744   5.111  1.3801 -0.4297 -0.2132
   97MOL0     H12771   7.344   5.611   5.035  1.5724 -2.0263  0.0186
   97MOL0     H12772   7.397   5.893   4.919  0.9179  0.2561  1.1521
   97MOL0     H12773   7.244   5.822   4.977 -0.6685  0.5286 -2.9923
   97MOL0     H12774   7.260   5.649   4.802 -1.9798  0.7281  1.9712
   97MOL0     H12775   7.387   5.740   4.722  0.0462 -3.5881  1.6225
   97MOL0     H12776   7.111   5.851   4.788 -0.5663  1.2797 -0.5119
   97MOL0     H12777   7.241   5.949   4.718 -0.7253 -0.1024 -0.0243
   97MOL0     H12778   7.099   5.714   4.611 -2.3241  1.7266  2.1644
   97MOL0     H12779   7.238   5.788   4.515  1.5977  0.8049  0.4107
   97MOL0     H12780   7.104   5.995   4.484  3.5265 -0.8618  0.8014
   97MOL0     H12781   6.982   5.933   4.588 -0.3894 -0.9857  0.6873
   97MOL0     H12782   7.077   5.808   4.323 -0.0622 -1.3504 -0.4462
   97MOL0     H12783   6.945   5.733   4.420 -0.1840  1.2584  1.5520
   97MOL0     H12784   6.842   5.878   4.232  0.0852 -0.2890 -0.3437
   97MOL0     H12785   6.938   6.012   4.303  0.8575 -0.8678  1.6271
   97MOL0     H12786   7.723   5.616   4.787 -1.5627  1.2713 -1.3131
   97MOL0     H12787   7.939   5.726   4.781  2.4286  2.4259 -0.4403
   97MOL0     H12788   8.022   6.306   4.656 -1.0052 -1.8548  0.0708
   97MOL0     H12789   8.234   6.410   4.620 -0.5212 -1.3909 -1.7314
   97MOL0     H12790  10.054   6.461   5.162 -1.1377 -3.3271 -0.3488
   97MOL0     H12791  10.309   6.491   5.099  0.2797 -1.0605 -0.3145
   97MOL0     H12792  10.614   6.498   4.962 -0.0774 -3.3498 -1.2178
   97MOL0     H12793  10.849   6.514   4.986  0.9754  0.3623 -0.6055
   97MOL0     H12794  11.113   6.648   4.636  0.7625 -0.8162 -1.8493
   97MOL0     H12795  11.078   6.481   4.598 -0.5890  0.9528 -0.4348
   97MOL0     H12796  11.242   6.392   4.729 -0.5155 -0.7666 -1.9324
   97MOL0     H12797  11.298   6.496   4.603 -0.7033 -2.6491 -0.1999
   97MOL0     H12798  11.291   6.526   4.920  1.1423 -2.0183  0.5833
   97MOL0     H12799  11.341   6.662   4.820  2.0375  0.0606 -0.5203
   97MOL0     H12800  11.523   6.521   4.913  1.6881 -0.0428  0.2656
   97MOL0     H12801  11.464   6.381   4.844 -2.1014  0.5626  1.1274
   97MOL0     H12802  11.749   6.555   4.583  0.6204 -2.8339 -0.6904
   97MOL0     H12803  10.873   6.556   4.556 -0.9246 -3.7802 -0.2177
   97MOL0     H12804  10.625   6.575   4.557  0.2404 -1.1131 -1.6825
   98MOL0     O12805   2.785   1.912   5.176  0.0317  0.3937 -0.3783
   98MOL0     C12806   2.814   1.901   5.053 -0.1272 -0.4566 -0.1055
   98MOL0     O12807   2.739   1.849   4.954 -0.0891 -1.0662  0.4666
   98MOL0     C12808   2.630   1.772   4.981  0.3237  0.1618  0.6765
   98MOL0     C12809   2.631   1.669   5.082  0.7692  0.0823  0.9395
   98MOL0     C12810   2.507   1.610   5.116  0.1249  0.5317  0.1020
   98MOL0     C12811   2.384   1.643   5.046  0.6360  0.6528  0.0287
   98MOL0     O12812   2.273   1.567   5.076 -0.2121 -0.2936 -0.7959
   98MOL0     C12813   2.180   1.636   5.155  1.2133  0.1541  0.7269
   98MOL0     C12814   2.069   1.520   5.176  0.4004 -0.4815 -1.7678
   98MOL0     C12815   1.927   1.585   5.195 -0.0752 -0.3046 -0.8525
   98MOL0     C12816   1.818   1.493   5.255 -0.1087  0.6698 -0.2398
   98MOL0     C12817   1.695   1.577   5.260  0.9371  0.5509  0.2086
   98MOL0     C12818   1.585   1.521   5.360 -0.1233 -0.1316  0.1460
   98MOL0     C12819   1.562   1.370   5.338  0.4075 -0.7845 -0.5578
   98MOL0     C12820   1.422   1.309   5.391  0.1479 -0.0786 -0.0821
   98MOL0     N12821   1.399   1.329   5.534 -0.7264  0.5612  0.1111
   98MOL0     C12822   1.284   1.380   5.584  0.1958  0.3327  0.5218
   98MOL0     C12823   1.290   1.357   5.717  0.2253  0.4422 -0.4704
   98MOL0     C12824   1.183   1.398   5.806 -0.1564 -0.3870 -0.6805
   98MOL0     C12825   1.055   1.308   5.793 -0.0634  0.2382 -0.3338
   98MOL0     C12826   0.939   1.353   5.705  0.2813  0.4292  0.1107
   98MOL0     C12827   0.826   1.250   5.703 -0.1053  0.0254  0.5185
   98MOL0     O12828   0.716   1.320   5.654  0.0518 -0.5540  0.2560
   98MOL0     C12829   0.601   1.260   5.601 -0.6479  0.2054  0.4161
   98MOL0     C12830   0.488   1.345   5.566 -0.0439 -1.1397  0.0577
   98MOL0     C12831   0.380   1.298   5.498  0.2950  0.3256 -0.3122
   98MOL0     C12832   0.364   1.168   5.464 -0.5255  0.5505  0.6953
   98MOL0     C12833   0.240   1.115   5.421  0.4810  0.1147 -0.0552
   98MOL0     O12834   0.131   1.191   5.435  0.2198  0.2231  0.4737
   98MOL0     C12835  -0.001   1.145   5.425  0.2838 -0.0355  0.2930
   98MOL0     C12836  -0.102   1.234   5.394  0.0181  0.4605  0.6739
   98MOL0     C12837  -0.229   1.179   5.383  0.5699 -0.1904  0.4359
   98MOL0     C12838  -0.269   1.046   5.418  0.1059  0.0566  0.6221
   98MOL0     O12839  -0.398   1.014   5.423  1.0008  0.3158 -0.6372
   98MOL0     C12840  -0.437   0.922   5.317  0.6341 -0.2693  0.0519
   98MOL0     C12841  -0.454   1.002   5.182 -0.4833  0.1607  0.2134
   98MOL0     C12842  -0.506   0.917   5.064  0.3337 -1.0059 -0.2874
   98MOL0     C12843  -0.536   0.991   4.940 -0.5868  0.2367  0.3402
   98MOL0     C12844  -0.607   0.897   4.840 -0.1933 -0.5522  1.0867
   98MOL0     C12845  -0.660   0.972   4.717 -0.6738 -0.8677  0.0268
   98MOL0     C12846  -0.762   0.887   4.640  0.9383  0.8081 -0.9560
   98MOL0     C12847  -0.757   0.902   4.487 -0.4222 -0.3414 -0.6971
   98MOL0    Cl12848  -0.787   1.072   4.448  0.2320 -0.4091  0.1057
   98MOL0     C12849  -0.168   0.957   5.443 -0.2074  0.8257 -1.4802
   98MOL0     C12850  -0.037   1.010   5.454  0.4526 -0.6000  0.4916
   98MOL0     O12851   0.243   1.001   5.373  0.0621 -0.1175 -0.0746
   98MOL0     C12852   0.468   1.079   5.494 -0.6785 -0.6241 -0.2290
   98MOL0     C12853   0.586   1.127   5.562  0.2673  0.7472  0.7598
   98MOL0     N12854   1.408   1.293   5.746 -0.5583  0.7589  0.3098
   98MOL0     N12855   1.469   1.277   5.636  0.0613  0.0607 -0.9069
   98MOL0     C12856   2.389   1.752   4.950  0.8533 -0.0870  1.1829
   98MOL0     C12857   2.514   1.819   4.911 -0.2575  0.1991  0.3881
   98MOL0     C12858   2.950   1.963   5.020 -0.2273 -0.6212 -0.1427
   98MOL0     C12859   3.040   1.993   5.126 -0.3964  0.2818  1.0819
   98MOL0     C12860   3.152   2.066   5.091 -0.3564 -0.1270 -0.0379
   98MOL0     C12861   3.173   2.102   4.955 -0.9209 -0.4556  0.1348
   98MOL0     O12862   3.287   2.165   4.913 -0.6733  0.2032  0.1763
   98MOL0     C12863   3.387   2.203   5.007 -0.2277  0.2168  0.0717
   98MOL0     C12864   3.497   2.280   4.940  0.6369 -0.7048  0.2205
   98MOL0     C12865   3.626   2.299   5.021 -0.3769 -0.1898  0.4597
   98MOL0     C12866   3.708   2.405   4.951  0.3036 -0.8202  0.0116
   98MOL0     C12867   3.786   2.345   4.845 -0.1613  0.3379  0.0323
   98MOL0     C12868   3.849   2.293   4.762  0.1429  0.4964  0.1073
   98MOL0     C12869   3.081   2.068   4.850 -0.1910  0.4009  0.2702
   98MOL0     C12870   2.979   1.989   4.887 -0.5689  0.9959  0.3218
   98MOL0     H12871   2.721   1.636   5.133  1.0511 -0.7546 -0.0490
   98MOL0     H12872   2.512   1.535   5.194  0.9396  1.2952  0.8048
   98MOL0     H12873   2.142   1.724   5.104 -0.0584 -0.9809 -0.3434
   98MOL0     H12874   2.217   1.662   5.255 -1.6147  1.3949  1.5419
   98MOL0     H12875   2.100   1.466   5.266  1.0911  0.3074 -1.5267
   98MOL0     H12876   2.068   1.452   5.090  1.4523 -0.6490 -1.6628
   98MOL0     H12877   1.899   1.629   5.099 -0.8955 -0.6568 -0.7804
   98MOL0     H12878   1.932   1.666   5.268  0.4288  0.0970 -1.3309
   98MOL0     H12879   1.790   1.405   5.195  1.2248 -0.1683  0.3210
   98MOL0     H12880   1.835   1.461   5.358  2.5153  1.2665 -0.4339
   98MOL0     H12881   1.650   1.595   5.162 -0.9987  0.5780  1.0502
   98MOL0     H12882   1.724   1.679   5.286  2.0775  0.8473 -1.9602
   98MOL0     H12883   1.491   1.576   5.348  0.5655  1.1288  0.4251
   98MOL0     H12884   1.622   1.530   5.462 -1.6335  2.2109  0.5689
   98MOL0     H12885   1.565   1.346   5.231 -0.9394 -0.3450 -0.7124
   98MOL0     H12886   1.639   1.309   5.388  1.2381  3.1878  3.6982
   98MOL0     H12887   1.429   1.200   5.383 -0.9162 -0.1053 -0.8386
   98MOL0     H12888   1.338   1.342   5.329  0.6629 -0.1564 -0.8419
   98MOL0     H12889   1.192   1.418   5.540 -0.3884 -0.4210  1.0674
   98MOL0     H12890   1.159   1.503   5.789  3.1302  0.7525  0.9293
   98MOL0     H12891   1.221   1.379   5.907 -0.4171  0.1781 -0.4725
   98MOL0     H12892   1.008   1.301   5.891  1.6705  0.0444  0.5216
   98MOL0     H12893   1.087   1.204   5.782 -0.5653  0.0239  0.1986
   98MOL0     H12894   0.912   1.452   5.742 -0.5226  0.0550  0.5528
   98MOL0     H12895   0.969   1.366   5.600  0.7433  3.1155  0.5039
   98MOL0     H12896   0.799   1.217   5.804  0.1562  0.7548  0.8362
   98MOL0     H12897   0.851   1.165   5.640 -1.7079 -0.7738  0.9052
   98MOL0     H12898   0.488   1.453   5.579  0.6491 -0.7160 -2.7516
   98MOL0     H12899   0.308   1.373   5.469  0.6096  0.5571 -0.4963
   98MOL0     H12900  -0.073   1.338   5.382 -0.0320  0.2889 -1.2698
   98MOL0     H12901  -0.310   1.238   5.342  0.8573  0.0564  0.2228
   98MOL0     H12902  -0.529   0.867   5.343  0.5655 -1.1473 -1.8536
   98MOL0     H12903  -0.369   0.838   5.302  1.7197  0.7049 -0.6204
   98MOL0     H12904  -0.354   1.036   5.153 -0.4107 -0.6489 -0.5357
   98MOL0     H12905  -0.510   1.095   5.196 -0.7331  0.3166 -1.5438
   98MOL0     H12906  -0.600   0.880   5.106 -0.0868  0.8578  0.4968
   98MOL0     H12907  -0.450   0.824   5.051 -0.9331 -2.1001  1.4907
   98MOL0     H12908  -0.593   1.084   4.949  2.0831  2.4075 -2.3707
   98MOL0     H12909  -0.441   1.016   4.891 -1.3272  1.2237 -0.6537
   98MOL0     H12910  -0.693   0.865   4.901 -0.8114 -0.0446  0.5063
   98MOL0     H12911  -0.544   0.814   4.809  0.0095 -0.0035 -0.0466
   98MOL0     H12912  -0.578   0.991   4.647  0.0444 -0.0055  1.0697
   98MOL0     H12913  -0.688   1.076   4.739  0.2116 -0.2780 -1.4500
   98MOL0     H12914  -0.757   0.781   4.664 -0.4885  1.4843  3.0870
   98MOL0     H12915  -0.864   0.919   4.665  0.9062 -0.6649  0.9989
   98MOL0     H12916  -0.836   0.835   4.452  1.1508 -2.7138  0.0525
   98MOL0     H12917  -0.676   0.849   4.437 -3.4794 -2.0418 -4.3478
   98MOL0     H12918  -0.205   0.861   5.477  2.5848 -0.3513 -1.4289
   98MOL0     H12919   0.040   0.940   5.485  1.0856  1.8358  5.4792
   98MOL0     H12920   0.474   0.974   5.468  2.6758 -0.2325 -1.5666
   98MOL0     H12921   0.671   1.063   5.582  0.3997  0.2451 -1.1906
   98MOL0     H12922   2.294   1.780   4.906 -0.1885  1.4252  4.1311
   98MOL0     H12923   2.514   1.902   4.841  1.0282 -0.3112 -0.2403
   98MOL0     H12924   3.023   1.966   5.229 -0.2558 -2.3085  0.5040
   98MOL0     H12925   3.222   2.091   5.170  0.3865 -0.7716 -0.4762
   98MOL0     H12926   3.429   2.115   5.056  1.0102  1.1817  0.8159
   98MOL0     H12927   3.341   2.257   5.090 -0.0890  1.1716 -0.4603
   98MOL0     H12928   3.538   2.228   4.853  2.1597  2.7334 -1.3091
   98MOL0     H12929   3.454   2.378   4.918  0.6900 -0.1452  2.3417
   98MOL0     H12930   3.680   2.206   5.038 -0.3928  0.3120  4.0506
   98MOL0     H12931   3.591   2.327   5.121  1.0776  0.1061  0.9086
   98MOL0     H12932   3.656   2.493   4.913 -0.3501 -1.4389 -0.5397
   98MOL0     H12933   3.778   2.452   5.021 -0.0834 -0.2372  0.0085
   98MOL0     H12934   3.910   2.245   4.687  0.6418 -0.9780  1.4102
   98MOL0     H12935   3.101   2.098   4.747  2.0719  2.0892  1.1362
   98MOL0     H12936   2.912   1.966   4.805  1.8850 -1.2584 -1.1997
   99MOL0     O12937   9.336   5.942   0.565  0.0922  0.1652 -0.0455
   99MOL0     C12938   9.310   6.036   0.493 -0.3853 -0.0105 -0.5954
   99MOL0     O12939   9.186   6.092   0.477  0.0888 -0.0730  0.6001
   99MOL0     C12940   9.072   6.040   0.537  0.3139 -0.3461  0.0611
   99MOL0     C12941   8.979   6.131   0.569  0.3165 -0.2177  0.8242
   99MOL0     C12942   8.856   6.090   0.620  0.0354 -0.5233 -0.4491
   99MOL0     C12943   8.815   5.960   0.624  0.5835  0.4530  0.2900
   99MOL0     O12944   8.702   5.929   0.684  0.0764 -0.6785  0.7793
   99MOL0     C12945   8.634   5.803   0.662 -0.9785 -0.8182  0.4282
   99MOL0     C12946   8.517   5.796   0.766 -0.3229  0.1251 -0.4705
   99MOL0     C12947   8.433   5.686   0.709 -0.7418  0.0429 -0.3564
   99MOL0     C12948   8.311   5.688   0.799  0.3671 -0.7739  0.5435
   99MOL0     C12949   8.225   5.567   0.774  0.9378  0.0049  0.3304
   99MOL0     C12950   8.103   5.549   0.876  0.0491 -0.2262  0.5674
   99MOL0     C12951   8.011   5.669   0.882 -0.0915  0.2392  0.0743
   99MOL0     C12952   7.938   5.708   0.752 -0.1334  0.7709 -1.1821
   99MOL0     N12953   7.848   5.821   0.777 -0.5399  0.7235 -0.9588
   99MOL0     C12954   7.846   5.918   0.872 -0.2196  0.7186 -0.1382
   99MOL0     C12955   7.757   6.012   0.843 -0.0474 -0.0819  0.9357
   99MOL0     C12956   7.739   6.144   0.920 -1.2715 -0.0336  0.2631
   99MOL0     C12957   7.592   6.149   0.961  0.5719 -0.6138  1.5559
   99MOL0     C12958   7.570   6.277   1.034  0.1689 -0.2264  0.0486
   99MOL0     C12959   7.428   6.315   1.065 -1.0951 -0.1971  0.0429
   99MOL0     O12960   7.341   6.340   0.945  0.2402  0.5695  0.0012
   99MOL0     C12961   7.212   6.386   0.975  0.4882  0.6895 -0.2191
   99MOL0     C12962   7.132   6.424   0.872  0.1766 -0.4650  0.2086
   99MOL0     C12963   7.006   6.488   0.886 -0.5611  0.5555  0.1395
   99MOL0     C12964   6.955   6.503   1.017 -0.1186  0.0251 -0.1465
   99MOL0     C12965   6.814   6.548   1.040  0.1111  0.0258 -0.4948
   99MOL0     O12966   6.768   6.559   1.170 -0.0243  0.4941  0.9249
   99MOL0     C12967   6.641   6.597   1.204 -0.4088 -0.1102  0.4601
   99MOL0     C12968   6.528   6.554   1.138  0.0642  1.0298  1.0679
   99MOL0     C12969   6.396   6.595   1.190 -0.1868 -0.7004  0.0503
   99MOL0     C12970   6.389   6.678   1.305 -0.7704  0.5461 -0.2804
   99MOL0     O12971   6.267   6.728   1.357 -0.2235 -0.2513  0.1202
   99MOL0     C12972   6.150   6.721   1.269  0.4539 -0.4716 -0.9296
   99MOL0     C12973   6.032   6.780   1.349 -0.1862  0.1592  0.3843
   99MOL0     C12974   5.896   6.753   1.272 -0.6752 -0.0309  0.0958
   99MOL0     C12975   5.781   6.792   1.360 -0.0733  0.3519 -0.2470
   99MOL0     C12976   5.643   6.759   1.297 -0.8599  0.1765  0.1243
   99MOL0     C12977   5.517   6.768   1.384  0.2090 -0.9937 -0.2744
   99MOL0     C12978   5.492   6.909   1.427  0.3234  0.3352 -0.1887
   99MOL0     C12979   5.365   6.922   1.510  0.2652 -0.6140 -0.3679
   99MOL0    Cl12980   5.227   6.854   1.418  0.1130  0.0435 -0.3749
   99MOL0     C12981   6.510   6.714   1.374  0.5586  1.1431 -0.6628
   99MOL0     C12982   6.630   6.668   1.321 -0.1360  0.8754 -0.1295
   99MOL0     O12983   6.756   6.586   0.942  0.1595  0.2310  0.2753
   99MOL0     C12984   7.028   6.455   1.121 -0.3259  0.1259  0.5003
   99MOL0     C12985   7.158   6.402   1.101 -0.5371 -0.1377  0.3448
   99MOL0     N12986   7.700   5.970   0.731  0.6453 -0.5425 -0.4910
   99MOL0     N12987   7.749   5.854   0.694 -0.0082  0.1574  0.1473
   99MOL0     C12988   8.910   5.868   0.587 -0.4766 -0.3594  0.2241
   99MOL0     C12989   9.043   5.901   0.536  0.0950  0.4409 -0.1896
   99MOL0     C12990   9.423   6.107   0.434 -0.3525  0.0467  0.2702
   99MOL0     C12991   9.405   6.194   0.323 -0.2770  0.1671 -0.0432
   99MOL0     C12992   9.515   6.259   0.261  1.1222  0.1815 -0.1800
   99MOL0     C12993   9.640   6.239   0.303 -0.6319  0.1971  0.8320
   99MOL0     O12994   9.742   6.294   0.225 -0.4815 -0.1747 -0.4809
   99MOL0     C12995   9.876   6.317   0.265  0.1940  0.2759 -0.1451
   99MOL0     C12996   9.959   6.193   0.236  0.2304 -0.6564  0.0255
   99MOL0     C12997  10.112   6.218   0.255  0.3272  0.0657  0.3215
   99MOL0     C12998  10.180   6.085   0.219 -0.6755  0.0315 -0.3916
   99MOL0     C12999  10.319   6.120   0.220  0.4594  0.3349  0.0832
   99MOL0     C13000  10.441   6.130   0.223  1.5530 -0.0328  1.1690
   99MOL0     C13001   9.660   6.156   0.413  0.0990 -0.3456 -0.5661
   99MOL0     C13002   9.554   6.090   0.483 -0.3834  0.1252  0.4555
   99MOL0     H13003   8.994   6.238   0.571 -0.3716 -0.0791  3.6663
   99MOL0     H13004   8.787   6.165   0.656 -1.1171 -2.6141  1.9550
   99MOL0     H13005   8.708   5.730   0.695  0.5716  0.0579 -0.9559
   99MOL0     H13006   8.603   5.777   0.561 -1.3705  0.0097  0.3295
   99MOL0     H13007   8.469   5.893   0.781  0.5281  0.8291 -1.9945
   99MOL0     H13008   8.561   5.765   0.861  0.6278  1.0474 -0.5762
   99MOL0     H13009   8.481   5.589   0.725 -1.4929 -0.1353  0.9127
   99MOL0     H13010   8.405   5.709   0.606  1.2638  2.6809 -0.4134
   99MOL0     H13011   8.335   5.693   0.906 -2.9764 -1.7319  1.4880
   99MOL0     H13012   8.255   5.778   0.771 -0.7329 -1.0992  1.6152
   99MOL0     H13013   8.284   5.476   0.786 -0.4224 -0.8561  0.7544
   99MOL0     H13014   8.186   5.577   0.672  2.6674  0.0194 -0.3751
   99MOL0     H13015   8.147   5.534   0.976  0.9166 -0.2080  0.1960
   99MOL0     H13016   8.049   5.459   0.848 -0.2024  0.5461 -1.5977
   99MOL0     H13017   7.940   5.637   0.959 -0.6741  1.1769 -0.0600
   99MOL0     H13018   8.069   5.756   0.914 -2.0342  1.3681  0.6849
   99MOL0     H13019   7.883   5.621   0.713 -0.8395  0.7716 -0.2333
   99MOL0     H13020   8.017   5.737   0.682 -2.1422 -1.5976 -4.7661
   99MOL0     H13021   7.918   5.930   0.952  1.7439  0.5894 -1.7985
   99MOL0     H13022   7.762   6.232   0.860 -0.7975 -0.2855  0.0655
   99MOL0     H13023   7.804   6.150   1.008  0.9110 -2.8074 -0.9747
   99MOL0     H13024   7.546   6.065   1.015 -0.7318 -1.3633 -0.5733
   99MOL0     H13025   7.533   6.158   0.869  2.2346 -0.4244  0.4765
   99MOL0     H13026   7.625   6.268   1.128 -0.5662 -1.9412  0.3583
   99MOL0     H13027   7.611   6.365   0.983  2.0397 -0.2679  1.3946
   99MOL0     H13028   7.414   6.391   1.142 -2.2810 -0.9292  0.5898
   99MOL0     H13029   7.377   6.226   1.103 -1.4430  0.7423  1.8432
   99MOL0     H13030   7.175   6.411   0.774 -0.7291 -0.7597 -0.1637
   99MOL0     H13031   6.949   6.526   0.802  0.2997 -0.3032 -0.8667
   99MOL0     H13032   6.534   6.487   1.052  5.4546 -0.0237  1.9348
   99MOL0     H13033   6.306   6.561   1.141  1.1507 -2.7067 -1.1859
   99MOL0     H13034   6.124   6.615   1.255  0.5824 -0.5208 -0.7972
   99MOL0     H13035   6.165   6.783   1.181  0.1619 -1.2421 -1.5330
   99MOL0     H13036   6.059   6.886   1.361  1.9057 -0.4556  1.4820
   99MOL0     H13037   6.033   6.739   1.450  0.9264  0.6609  0.5882
   99MOL0     H13038   5.879   6.646   1.256  0.9526 -0.8500  2.9886
   99MOL0     H13039   5.897   6.811   1.180 -2.3650  1.2706  0.8496
   99MOL0     H13040   5.783   6.735   1.454  2.6423 -0.4325 -0.6821
   99MOL0     H13041   5.782   6.898   1.384 -0.3424  1.0924 -3.2147
   99MOL0     H13042   5.660   6.662   1.250  0.5420  0.2757  0.3703
   99MOL0     H13043   5.625   6.829   1.215 -0.9972 -0.7958 -0.6897
   99MOL0     H13044   5.523   6.698   1.468  3.9935  1.0813  1.4334
   99MOL0     H13045   5.427   6.740   1.328 -0.3189 -1.5049  0.8056
   99MOL0     H13046   5.568   6.946   1.497 -0.7371  0.4595  0.9264
   99MOL0     H13047   5.489   6.980   1.344  0.8552 -1.3463 -1.6865
   99MOL0     H13048   5.350   7.026   1.539  2.9387  0.8358 -3.4875
   99MOL0     H13049   5.370   6.865   1.603  0.5168  0.7887  0.5009
   99MOL0     H13050   6.515   6.767   1.469  0.5224  1.6748 -0.9571
   99MOL0     H13051   6.716   6.678   1.387 -0.5874  2.5152  0.2604
   99MOL0     H13052   7.006   6.474   1.226  0.1894 -2.8123  1.2189
   99MOL0     H13053   7.214   6.382   1.192 -0.2873  0.0236  0.2285
   99MOL0     H13054   8.891   5.763   0.604  0.4008 -0.3850  1.1211
   99MOL0     H13055   9.108   5.821   0.502 -1.7890 -1.3510  0.2820
   99MOL0     H13056   9.302   6.204   0.289 -0.1290  1.3455 -0.2198
   99MOL0     H13057   9.485   6.321   0.178  0.6010  1.0615  0.6369
   99MOL0     H13058   9.887   6.321   0.374 -0.0155 -0.4811 -0.0917
   99MOL0     H13059   9.916   6.415   0.237  1.4220  0.6607  2.5714
   99MOL0     H13060   9.919   6.121   0.307  1.0313 -1.5169 -0.3836
   99MOL0     H13061   9.939   6.168   0.132 -0.4254  2.6721 -0.7797
   99MOL0     H13062  10.128   6.250   0.358 -0.0453  1.5720 -0.0744
   99MOL0     H13063  10.144   6.299   0.189  1.1179  1.7775  2.6666
   99MOL0     H13064  10.168   6.014   0.301 -2.0980  0.2723 -0.3598
   99MOL0     H13065  10.156   6.039   0.122  1.5714 -1.7405 -0.2023
   99MOL0     H13066  10.548   6.131   0.212  1.5495  1.0162  1.0521
   99MOL0     H13067   9.764   6.154   0.443 -0.0776  2.8486  0.6902
   99MOL0     H13068   9.574   6.028   0.569 -0.4992  0.0782  0.4491
  100MOL0     O13069   7.656   1.803   3.988  0.0777  0.1215 -0.2702
  100MOL0     C13070   7.766   1.824   3.930 -0.0731 -0.1370 -0.2910
  100MOL0     O13071   7.791   1.908   3.824 -0.5344 -0.2662  0.3792
  100MOL0     C13072   7.677   1.966   3.772 -0.6736 -0.2914 -0.4586
  100MOL0     C13073   7.652   2.101   3.788 -0.6475 -1.1934  0.4672
  100MOL0     C13074   7.525   2.154   3.750 -0.3686  0.1586 -0.3319
  100MOL0     C13075   7.432   2.072   3.683  0.0307 -0.7331  0.7508
  100MOL0     O13076   7.301   2.113   3.654  0.3357 -0.6306  0.6588
  100MOL0     C13077   7.204   2.024   3.709 -0.1880  0.2345 -0.0691
  100MOL0     C13078   7.069   2.097   3.734  0.1150  0.2372  0.3535
  100MOL0     C13079   7.009   2.131   3.602 -0.2997  0.3651  0.1655
  100MOL0     C13080   6.878   2.197   3.620 -0.0277  0.5564  0.2032
  100MOL0     C13081   6.767   2.098   3.641  0.0798 -0.1458 -0.4464
  100MOL0     C13082   6.648   2.182   3.679 -1.3167  0.3507  0.0541
  100MOL0     C13083   6.517   2.112   3.681 -1.0030  0.0521 -0.0643
  100MOL0     C13084   6.505   2.053   3.820  0.3844  0.7285  0.3952
  100MOL0     N13085   6.367   1.993   3.833  0.7883  0.6425 -0.7332
  100MOL0     C13086   6.331   1.929   3.948  0.4587  0.1087  0.6264
  100MOL0     C13087   6.228   1.846   3.912 -0.6004 -0.0832 -0.2360
  100MOL0     C13088   6.174   1.742   4.000 -0.4325  0.4032 -0.9200
  100MOL0     C13089   6.075   1.635   3.943 -0.4071  0.2479  1.0575
  100MOL0     C13090   5.931   1.683   3.931  0.0899  0.3335 -0.4518
  100MOL0     C13091   5.910   1.796   3.830  0.0753 -0.5480  0.2526
  100MOL0     O13092   5.774   1.791   3.779 -0.4757 -0.4976 -0.3005
  100MOL0     C13093   5.669   1.839   3.861 -0.1291  0.1022  0.2076
  100MOL0     C13094   5.681   1.943   3.953 -0.7302  0.4555  1.5135
  100MOL0     C13095   5.571   1.977   4.031 -0.6175  0.0855  0.2335
  100MOL0     C13096   5.444   1.925   4.009  1.6901 -0.1253 -0.2942
  100MOL0     C13097   5.313   1.976   4.076  0.3222  0.1613  0.4232
  100MOL0     O13098   5.193   1.903   4.070 -0.5900 -0.1432  0.0514
  100MOL0     C13099   5.084   1.950   4.132 -0.2202  0.1235 -0.0942
  100MOL0     C13100   5.052   1.908   4.264 -0.0698  0.0240  0.2360
  100MOL0     C13101   4.947   1.970   4.337 -0.3307  0.1760 -0.1458
  100MOL0     C13102   4.877   2.079   4.290  0.8404 -0.8908 -0.0276
  100MOL0     O13103   4.778   2.163   4.341  0.6338  0.3759  0.2538
  100MOL0     C13104   4.738   2.125   4.477  0.4864  0.5594  0.6434
  100MOL0     C13105   4.648   2.247   4.534  0.5730 -0.2855 -0.5777
  100MOL0     C13106   4.625   2.221   4.683 -0.3444 -0.1294  0.0458
  100MOL0     C13107   4.523   2.119   4.732 -0.0821  0.1050 -0.6184
  100MOL0     C13108   4.520   2.100   4.886  0.7975  0.0858  0.2065
  100MOL0     C13109   4.460   1.966   4.932  0.0720  0.0686 -0.3349
  100MOL0     C13110   4.521   1.824   4.897  0.5743  0.1153 -0.7311
  100MOL0     C13111   4.649   1.791   4.975 -0.1007  0.8179  0.3405
  100MOL0    Cl13112   4.681   1.613   4.962  0.1967 -0.1958 -0.4117
  100MOL0     C13113   4.909   2.117   4.159 -0.0831 -0.4230  0.9075
  100MOL0     C13114   5.009   2.057   4.085  0.0554  0.8349  0.0291
  100MOL0     O13115   5.323   2.088   4.131  0.0901 -0.2439 -0.1527
  100MOL0     C13116   5.428   1.829   3.910 -0.8422  0.1955 -1.4160
  100MOL0     C13117   5.544   1.783   3.842  0.2168 -0.6522  0.2162
  100MOL0     N13118   6.206   1.859   3.776 -0.5900  0.2332  0.2598
  100MOL0     N13119   6.295   1.936   3.734  0.0048  1.0561 -0.0780
  100MOL0     C13120   7.469   1.937   3.650  0.4236 -0.3182  0.1210
  100MOL0     C13121   7.586   1.887   3.703 -0.4881  0.0924 -0.0833
  100MOL0     C13122   7.883   1.745   3.978  0.3204 -0.0471  1.1608
  100MOL0     C13123   7.866   1.636   4.066  0.5321 -0.0877  0.2157
  100MOL0     C13124   7.974   1.568   4.107 -0.8034  0.1622 -1.1391
  100MOL0     C13125   8.106   1.601   4.066 -0.5253  0.4040 -0.5096
  100MOL0     O13126   8.214   1.539   4.125  0.6600  0.1180  0.2297
  100MOL0     C13127   8.339   1.537   4.065  0.3931 -0.0002 -0.0422
  100MOL0     C13128   8.423   1.451   4.153  0.1393 -0.6169  0.2218
  100MOL0     C13129   8.446   1.524   4.284 -0.3434  0.9323 -0.6830
  100MOL0     C13130   8.454   1.412   4.391  0.1031  0.2602  0.1340
  100MOL0     C13131   8.491   1.474   4.518  0.0307 -0.8505 -0.5728
  100MOL0     C13132   8.526   1.538   4.621 -0.1172  0.3404  0.0229
  100MOL0     C13133   8.122   1.698   3.973 -0.6548 -0.7422  0.1376
  100MOL0     C13134   8.010   1.771   3.928  0.1899  0.3154 -0.3412
  100MOL0     H13135   7.729   2.161   3.835 -2.2327  0.5715  0.9121
  100MOL0     H13136   7.503   2.260   3.760  1.5940  0.8035 -2.1705
  100MOL0     H13137   7.232   1.985   3.807 -1.8713  0.1888  0.4194
  100MOL0     H13138   7.181   1.948   3.633 -1.2835 -1.0165  1.4474
  100MOL0     H13139   7.082   2.183   3.800  0.7443  0.8054 -0.4926
  100MOL0     H13140   7.010   2.023   3.789  1.8514  2.6985  6.3848
  100MOL0     H13141   7.005   2.057   3.522 -2.6759  0.5003  0.0993
  100MOL0     H13142   7.081   2.206   3.568 -2.7045  2.9202  0.3353
  100MOL0     H13143   6.885   2.266   3.705 -2.1816  0.4146  0.5433
  100MOL0     H13144   6.855   2.246   3.525 -0.1739 -1.3635 -0.7870
  100MOL0     H13145   6.794   2.036   3.727  0.0155  0.7683  0.2365
  100MOL0     H13146   6.748   2.027   3.559 -5.5527 -0.7064  0.8956
  100MOL0     H13147   6.645   2.259   3.602  1.6089  0.1425 -0.3842
  100MOL0     H13148   6.667   2.225   3.778  0.4784  1.6374 -0.7861
  100MOL0     H13149   6.435   2.181   3.656  0.1112  0.9574 -1.4004
  100MOL0     H13150   6.517   2.034   3.603  1.4362  0.4448 -0.5175
  100MOL0     H13151   6.506   2.145   3.880  1.0134  3.0566 -2.9121
  100MOL0     H13152   6.586   1.986   3.851 -0.7652 -1.0331 -0.2503
  100MOL0     H13153   6.379   1.949   4.043  2.0808  3.1147 -0.6578
  100MOL0     H13154   6.111   1.785   4.079  0.6276  1.3063 -0.5539
  100MOL0     H13155   6.255   1.694   4.056  1.1357  2.0224 -1.7221
  100MOL0     H13156   6.082   1.556   4.019 -2.4446 -1.6847 -0.6319
  100MOL0     H13157   6.111   1.591   3.850 -4.2110 -3.1492  0.9386
  100MOL0     H13158   5.882   1.593   3.895 -0.2349  0.0115  0.7381
  100MOL0     H13159   5.885   1.702   4.029 -1.5050  2.0945 -1.4551
  100MOL0     H13160   5.982   1.783   3.748  2.6269  2.2389  1.8671
  100MOL0     H13161   5.946   1.887   3.878  1.6000 -0.2962 -1.2845
  100MOL0     H13162   5.778   1.984   3.978  0.2751 -1.3116  0.6398
  100MOL0     H13163   5.592   2.049   4.109  3.4463 -0.2858 -0.2798
  100MOL0     H13164   5.094   1.820   4.311 -0.4346 -1.3922 -1.9272
  100MOL0     H13165   4.917   1.923   4.430  1.0060 -0.9902 -0.2808
  100MOL0     H13166   4.822   2.112   4.547 -0.7760 -2.4396  1.7860
  100MOL0     H13167   4.680   2.032   4.476 -0.8342  1.3562  0.7112
  100MOL0     H13168   4.563   2.252   4.465  1.1213  2.5675 -1.2085
  100MOL0     H13169   4.699   2.344   4.531  2.2937 -1.1008  0.8411
  100MOL0     H13170   4.606   2.318   4.729  2.7798  0.1507  0.9379
  100MOL0     H13171   4.721   2.183   4.719 -1.3975 -1.7149  1.3289
  100MOL0     H13172   4.425   2.142   4.688  1.5931  3.9607 -2.7896
  100MOL0     H13173   4.556   2.029   4.680 -1.4947 -0.4324 -0.6479
  100MOL0     H13174   4.458   2.177   4.933  0.4472  0.4244 -0.7816
  100MOL0     H13175   4.622   2.107   4.924  0.4153  2.8850  0.9657
  100MOL0     H13176   4.356   1.954   4.901 -0.1588 -1.4005  0.8928
  100MOL0     H13177   4.444   1.970   5.040 -1.6434 -0.2928 -0.5479
  100MOL0     H13178   4.453   1.746   4.932 -0.1423  2.2998  3.3943
  100MOL0     H13179   4.544   1.804   4.792  2.3519 -0.8698 -0.1980
  100MOL0     H13180   4.647   1.836   5.075  1.3643  1.2461  0.1963
  100MOL0     H13181   4.737   1.837   4.929 -0.4538 -0.5247 -1.8107
  100MOL0     H13182   4.852   2.197   4.112  1.0351 -0.7164 -1.0289
  100MOL0     H13183   5.035   2.095   3.986  0.3958  0.8216  0.1134
  100MOL0     H13184   5.333   1.791   3.876 -0.0652 -0.4203 -2.9552
  100MOL0     H13185   5.539   1.701   3.771  0.9921  0.5667 -1.2995
  100MOL0     H13186   7.399   1.871   3.599  0.5918  0.5369 -1.2638
  100MOL0     H13187   7.608   1.783   3.686 -2.6242 -0.3367 -0.5077
  100MOL0     H13188   7.771   1.587   4.083 -0.0177 -0.1660 -2.5710
  100MOL0     H13189   7.958   1.479   4.167 -1.1151 -0.4562 -2.1136
  100MOL0     H13190   8.379   1.639   4.072 -1.1431  0.5471  1.4881
  100MOL0     H13191   8.335   1.497   3.964  0.6189 -1.4846  0.5201
  100MOL0     H13192   8.372   1.355   4.160  0.2552 -0.7537 -0.7553
  100MOL0     H13193   8.517   1.436   4.100  0.8856 -2.5345  1.9668
  100MOL0     H13194   8.365   1.595   4.305 -1.2405  0.0729 -1.1520
  100MOL0     H13195   8.544   1.569   4.269  1.3783 -2.7208 -1.4151
  100MOL0     H13196   8.351   1.376   4.399  0.2898 -0.4278 -0.4586
  100MOL0     H13197   8.518   1.325   4.372  0.1299 -0.3719  2.7868
  100MOL0     H13198   8.551   1.590   4.711 -2.4999  1.8065 -0.0988
  100MOL0     H13199   8.221   1.733   3.947 -0.8762 -1.2289 -1.4126
  100MOL0     H13200   8.029   1.853   3.859  0.7171 -0.6479 -1.3644
  101MOL0     O13201   5.221   0.236   0.068  1.0157 -0.7314  0.1141
  101MOL0     C13202   5.317   0.170   0.046 -0.0895  0.3108  0.3839
  101MOL0     O13203   5.327   0.061  -0.036  0.2267 -0.3749 -0.0101
  101MOL0     C13204   5.214   0.029  -0.109  0.1902 -0.1610 -0.4112
  101MOL0     C13205   5.146  -0.085  -0.062  0.8212  0.0629 -0.7322
  101MOL0     C13206   5.025  -0.127  -0.114  1.0264 -0.5304  0.3316
  101MOL0     C13207   4.964  -0.052  -0.219 -0.3914 -0.1554  0.5202
  101MOL0     O13208   4.846  -0.092  -0.280 -0.5736 -0.2087 -0.2334
  101MOL0     C13209   4.743  -0.153  -0.204  0.0792 -0.3599  0.0158
  101MOL0     C13210   4.600  -0.141  -0.271 -0.4416 -0.0094 -0.3783
  101MOL0     C13211   4.480  -0.177  -0.175 -0.2338 -0.1034 -0.3394
  101MOL0     C13212   4.494  -0.309  -0.096  0.4525 -0.4026  1.5409
  101MOL0     C13213   4.358  -0.373  -0.057 -0.2869 -0.0515 -0.8579
  101MOL0     C13214   4.291  -0.290   0.058 -0.7093  1.1038  1.1196
  101MOL0     C13215   4.151  -0.343   0.083 -0.0675  0.8696  0.4429
  101MOL0     C13216   4.092  -0.286   0.219 -0.8415 -0.0671 -0.0616
  101MOL0     N13217   3.979  -0.345   0.267 -0.3322  0.1649  0.4441
  101MOL0     C13218   3.855  -0.324   0.220 -0.5509  1.4089  0.9024
  101MOL0     C13219   3.778  -0.400   0.299 -0.8503  0.3156  0.1459
  101MOL0     C13220   3.630  -0.427   0.270  0.9013  0.2604 -0.0038
  101MOL0     C13221   3.538  -0.426   0.400 -0.1559  0.5661 -0.0357
  101MOL0     C13222   3.396  -0.478   0.370 -0.1971 -0.4867 -0.0820
  101MOL0     C13223   3.298  -0.447   0.482 -0.0706  0.3415  0.0499
  101MOL0     O13224   3.165  -0.475   0.432  0.7185  0.1326  0.0907
  101MOL0     C13225   3.069  -0.487   0.532 -0.3031  0.5669 -0.1859
  101MOL0     C13226   2.944  -0.527   0.484  0.1114  0.4820  0.4485
  101MOL0     C13227   2.837  -0.531   0.572 -0.0213  0.0370  0.0586
  101MOL0     C13228   2.850  -0.496   0.707 -0.0163 -0.5169 -0.0758
  101MOL0     C13229   2.729  -0.500   0.800 -0.8294  0.0468 -0.9129
  101MOL0     O13230   2.620  -0.556   0.745  0.5480 -0.0837 -0.0941
  101MOL0     C13231   2.497  -0.555   0.807 -0.5581  0.0285  0.0609
  101MOL0     C13232   2.464  -0.543   0.942  0.0382  0.8018 -0.0462
  101MOL0     C13233   2.332  -0.541   0.993 -0.6643 -0.9108  0.1982
  101MOL0     C13234   2.228  -0.568   0.903 -0.5337 -0.2406  0.2989
  101MOL0     O13235   2.096  -0.576   0.935 -0.4634 -0.2753  0.1160
  101MOL0     C13236   2.052  -0.498   1.051 -0.1185  0.5088 -0.5910
  101MOL0     C13237   1.904  -0.468   1.025  0.5391 -0.3014  0.1727
  101MOL0     C13238   1.844  -0.458   1.162  0.6628 -0.6559  0.0537
  101MOL0     C13239   1.707  -0.396   1.154  0.5016  0.6859  0.2439
  101MOL0     C13240   1.610  -0.475   1.059  1.2091 -0.8403 -0.9757
  101MOL0     C13241   1.469  -0.416   1.079 -0.1653 -0.2509  0.2552
  101MOL0     C13242   1.375  -0.440   0.954  0.3554  0.8706  0.3387
  101MOL0     C13243   1.239  -0.371   0.975 -0.4630  0.7532  0.7670
  101MOL0    Cl13244   1.269  -0.189   0.973  0.0877  0.1771 -0.0912
  101MOL0     C13245   2.254  -0.583   0.764 -0.0028 -0.2786 -0.1601
  101MOL0     C13246   2.392  -0.579   0.717 -0.4369  1.0258 -1.1170
  101MOL0     O13247   2.740  -0.461   0.918  0.3488 -1.0276 -0.3887
  101MOL0     C13248   2.977  -0.446   0.754  0.1979 -0.3513  0.6516
  101MOL0     C13249   3.086  -0.444   0.665 -0.0180  0.0288 -0.8917
  101MOL0     N13250   3.858  -0.460   0.390 -0.3012 -0.8852 -0.4304
  101MOL0     N13251   3.977  -0.423   0.376 -0.4378  0.7458 -0.1746
  101MOL0     C13252   5.034   0.061  -0.267  0.1728 -1.2616  0.2530
  101MOL0     C13253   5.154   0.105  -0.213 -0.0867 -0.3007 -0.5398
  101MOL0     C13254   5.434   0.223   0.109 -0.1371 -0.3461  0.6980
  101MOL0     C13255   5.560   0.174   0.066 -0.2049  0.1005 -0.4273
  101MOL0     C13256   5.682   0.221   0.124  0.2534 -0.4239 -0.3573
  101MOL0     C13257   5.682   0.323   0.218 -0.2907 -0.1020  0.2146
  101MOL0     O13258   5.800   0.354   0.290  0.2970 -0.6313  0.4128
  101MOL0     C13259   5.925   0.335   0.232  0.4655 -0.4171  0.6141
  101MOL0     C13260   5.996   0.196   0.260 -0.6664  0.1495 -0.6240
  101MOL0     C13261   6.125   0.175   0.191  0.0737  0.1911 -0.2910
  101MOL0     C13262   6.244   0.253   0.254 -0.6597 -0.6003 -0.5414
  101MOL0     C13263   6.366   0.198   0.194 -0.0355  1.1282 -0.7701
  101MOL0     C13264   6.462   0.159   0.130 -0.0871 -0.0219 -0.6881
  101MOL0     C13265   5.561   0.374   0.250 -0.4725  0.5992 -0.1257
  101MOL0     C13266   5.434   0.332   0.200 -1.1617 -0.3134 -0.4946
  101MOL0     H13267   5.186  -0.134   0.026  0.1796  2.2749  0.9022
  101MOL0     H13268   4.973  -0.217  -0.083  0.8402 -1.4054 -2.2916
  101MOL0     H13269   4.751  -0.124  -0.099  1.9225 -2.0216  0.3936
  101MOL0     H13270   4.758  -0.261  -0.200 -2.2001 -0.7675 -1.1861
  101MOL0     H13271   4.611  -0.196  -0.365  2.9469  0.5401 -0.4145
  101MOL0     H13272   4.594  -0.038  -0.309 -0.9661  0.3001  0.5182
  101MOL0     H13273   4.391  -0.182  -0.239  0.2648 -0.2758 -1.0257
  101MOL0     H13274   4.452  -0.091  -0.115  1.0702  1.2048 -1.5388
  101MOL0     H13275   4.544  -0.372  -0.171  1.2313  1.2617  0.6018
  101MOL0     H13276   4.570  -0.312  -0.018  1.1374 -1.1577  0.8623
  101MOL0     H13277   4.378  -0.478  -0.032 -1.5269  0.3743  2.4442
  101MOL0     H13278   4.283  -0.365  -0.136 -1.6003 -0.5486  0.2975
  101MOL0     H13279   4.283  -0.192   0.009 -1.1042 -0.7499 -2.9286
  101MOL0     H13280   4.351  -0.291   0.150  3.0969  0.1067 -1.1414
  101MOL0     H13281   4.092  -0.301   0.002 -1.3095  2.4606  2.0764
  101MOL0     H13282   4.153  -0.451   0.099  0.2971  0.8601  0.3359
  101MOL0     H13283   4.082  -0.178   0.209  1.3976  0.3977  1.8866
  101MOL0     H13284   4.176  -0.300   0.288  0.5176 -1.4501 -1.8631
  101MOL0     H13285   3.824  -0.277   0.127  1.5845  0.4637 -0.3506
  101MOL0     H13286   3.623  -0.527   0.226 -0.8162  0.1625  0.4488
  101MOL0     H13287   3.602  -0.337   0.216  1.3809  0.2881 -0.2118
  101MOL0     H13288   3.535  -0.332   0.456 -2.2405  0.7591 -0.4214
  101MOL0     H13289   3.586  -0.494   0.471 -0.6343  2.3786  2.1596
  101MOL0     H13290   3.370  -0.439   0.271  4.2672 -0.9854 -1.6580
  101MOL0     H13291   3.403  -0.585   0.351 -0.1801 -0.0072 -3.2079
  101MOL0     H13292   3.320  -0.346   0.519 -0.4487 -0.1835  1.8148
  101MOL0     H13293   3.314  -0.510   0.570  0.3986 -0.1385 -0.3723
  101MOL0     H13294   2.939  -0.560   0.381  0.0315  0.7950  0.3511
  101MOL0     H13295   2.739  -0.561   0.534 -2.1148  3.0846  2.4770
  101MOL0     H13296   2.538  -0.516   1.017  0.2777  0.8954 -0.3135
  101MOL0     H13297   2.305  -0.531   1.098  2.9918 -1.0561  1.2965
  101MOL0     H13298   2.108  -0.407   1.071  0.5103 -0.5692  3.4306
  101MOL0     H13299   2.052  -0.555   1.144 -2.0176  0.2242 -0.7208
  101MOL0     H13300   1.851  -0.545   0.969 -2.0924 -0.1661  2.2997
  101MOL0     H13301   1.897  -0.378   0.962 -0.9993 -0.9486 -0.6324
  101MOL0     H13302   1.903  -0.390   1.224 -0.0761 -1.0481  1.2234
  101MOL0     H13303   1.832  -0.556   1.210  0.7903 -1.2504 -1.0965
  101MOL0     H13304   1.673  -0.415   1.256 -0.2157  0.4312 -0.0365
  101MOL0     H13305   1.712  -0.292   1.121 -1.6430  0.1460 -2.1332
  101MOL0     H13306   1.620  -0.583   1.072 -0.0929 -0.8518  0.1050
  101MOL0     H13307   1.644  -0.454   0.957 -1.2678 -2.1539 -2.1673
  101MOL0     H13308   1.483  -0.307   1.074  2.5655 -0.5788 -1.7518
  101MOL0     H13309   1.426  -0.454   1.172 -0.8840  1.9130  0.8654
  101MOL0     H13310   1.425  -0.400   0.865  2.4814 -1.4700  0.3631
  101MOL0     H13311   1.363  -0.549   0.953  3.5790  0.2336  4.2202
  101MOL0     H13312   1.197  -0.410   1.069 -0.7334  1.0505  0.7699
  101MOL0     H13313   1.171  -0.398   0.895 -0.7910  1.1754  0.9010
  101MOL0     H13314   2.170  -0.606   0.699  0.8216  3.4101 -2.8029
  101MOL0     H13315   2.407  -0.597   0.611 -0.9725  1.4026 -1.2590
  101MOL0     H13316   2.997  -0.405   0.852  2.2077  1.7949 -0.5704
  101MOL0     H13317   3.187  -0.418   0.697 -0.5488  0.5587  0.4164
  101MOL0     H13318   4.993   0.118  -0.350 -2.0463 -0.4203  1.8531
  101MOL0     H13319   5.190   0.206  -0.234 -0.6001 -0.1908 -0.8895
  101MOL0     H13320   5.574   0.098  -0.011  3.2274  0.1015  0.0049
  101MOL0     H13321   5.772   0.164   0.103 -1.3528 -4.1751  1.9243
  101MOL0     H13322   5.998   0.417   0.239  1.0707 -0.4525 -3.1109
  101MOL0     H13323   5.903   0.335   0.125 -0.3380  2.6361  0.6653
  101MOL0     H13324   6.004   0.198   0.369  1.0698  3.5758 -0.6585
  101MOL0     H13325   5.932   0.113   0.230 -0.9797  0.3331 -0.4662
  101MOL0     H13326   6.116   0.205   0.087 -1.3246  2.4353  0.4007
  101MOL0     H13327   6.145   0.068   0.205 -4.6202 -1.0219 -1.3547
  101MOL0     H13328   6.243   0.363   0.255 -0.0546 -0.5564 -1.9784
  101MOL0     H13329   6.233   0.229   0.360 -3.2805 -0.0674 -0.6187
  101MOL0     H13330   6.552   0.135   0.075  0.1364  0.9842 -0.7745
  101MOL0     H13331   5.562   0.453   0.325  0.2980 -0.9840  1.6171
  101MOL0     H13332   5.347   0.384   0.238  0.4283  1.6537  0.7100
  102MOL0     O13333   1.736   4.103   1.427  0.1073  0.0017  0.6997
  102MOL0     C13334   1.810   4.103   1.524 -0.1067  0.5057 -1.0876
  102MOL0     O13335   1.792   4.028   1.646 -0.5289  0.4300  0.0648
  102MOL0     C13336   1.692   3.934   1.641  0.3715 -0.0461 -0.8672
  102MOL0     C13337   1.691   3.820   1.558  0.7818  0.4009 -0.0314
  102MOL0     C13338   1.597   3.716   1.578  0.7123  0.0641  1.0283
  102MOL0     C13339   1.504   3.723   1.684 -0.7288  1.0590 -0.1361
  102MOL0     O13340   1.426   3.609   1.701  0.0827  0.9272  0.4019
  102MOL0     C13341   1.335   3.602   1.818  0.4454 -0.2343 -0.4996
  102MOL0     C13342   1.291   3.462   1.843  0.8099 -0.5075  0.3386
  102MOL0     C13343   1.211   3.434   1.974 -0.0343  0.2430 -0.0791
  102MOL0     C13344   1.106   3.318   1.955  0.4928 -0.8764 -0.5891
  102MOL0     C13345   1.039   3.274   2.088  0.6849 -0.4533 -1.0169
  102MOL0     C13346   1.099   3.152   2.162  0.4601  0.4496 -0.0998
  102MOL0     C13347   1.024   3.125   2.303 -0.7056 -0.4539  0.1073
  102MOL0     C13348   0.884   3.093   2.295 -1.0734  0.0586  0.0492
  102MOL0     N13349   0.846   2.977   2.214  0.6839 -0.5479  0.3275
  102MOL0     C13350   0.822   2.845   2.263  0.1357 -0.1052  0.8416
  102MOL0     C13351   0.804   2.773   2.148  0.9738  0.4401  0.5028
  102MOL0     C13352   0.749   2.633   2.129  0.0440  1.2985 -0.1076
  102MOL0     C13353   0.848   2.558   2.035  0.6941 -0.3719 -0.6361
  102MOL0     C13354   0.823   2.395   2.027 -0.2247  1.0174  0.2816
  102MOL0     C13355   0.703   2.356   1.946  0.3931  0.0815 -0.1835
  102MOL0     O13356   0.595   2.375   2.040  0.3114 -0.1240  0.3954
  102MOL0     C13357   0.459   2.362   1.997  0.4821  0.2521 -0.1141
  102MOL0     C13358   0.408   2.279   1.896  1.1322 -0.7488 -0.2631
  102MOL0     C13359   0.272   2.263   1.869 -0.5334  0.7414  0.3748
  102MOL0     C13360   0.176   2.344   1.924  0.5595  0.6806  0.0665
  102MOL0     C13361   0.029   2.330   1.900 -0.6234  0.1077  0.2231
  102MOL0     O13362  -0.057   2.418   1.967 -0.3166  0.2290 -0.5137
  102MOL0     C13363  -0.192   2.412   1.933 -0.0773 -0.7250 -0.1649
  102MOL0     C13364  -0.293   2.390   2.033 -0.0012  1.2140 -0.8488
  102MOL0     C13365  -0.432   2.401   2.004  0.3647 -0.1070  1.0174
  102MOL0     C13366  -0.475   2.431   1.866 -0.1292  0.0580 -0.2870
  102MOL0     O13367  -0.606   2.436   1.841 -0.0437  0.2239 -0.0857
  102MOL0     C13368  -0.651   2.378   1.724  0.2357  1.1635  0.2632
  102MOL0     C13369  -0.796   2.328   1.728  0.2084 -0.1092 -0.1897
  102MOL0     C13370  -0.861   2.309   1.591 -0.0472 -0.3653 -0.0950
  102MOL0     C13371  -0.990   2.246   1.602  0.3235 -0.2126 -0.2626
  102MOL0     C13372  -1.045   2.202   1.467 -0.6040 -0.4723 -0.3281
  102MOL0     C13373  -0.981   2.082   1.407 -1.2509  0.4114  0.5663
  102MOL0     C13374  -1.065   2.023   1.289  0.1247  0.3505 -0.4342
  102MOL0     C13375  -1.007   1.889   1.251 -0.1520  0.6853  0.1352
  102MOL0    Cl13376  -0.850   1.897   1.185  0.2096  0.2356  0.0503
  102MOL0     C13377  -0.376   2.456   1.774 -1.0050 -0.3705 -0.1216
  102MOL0     C13378  -0.233   2.454   1.805  0.7058  0.0234 -0.4332
  102MOL0     O13379  -0.011   2.256   1.812 -0.1734 -0.4920 -0.1044
  102MOL0     C13380   0.224   2.418   2.027 -0.5843  0.4990 -0.3174
  102MOL0     C13381   0.359   2.429   2.066  0.7599  0.5558 -0.2908
  102MOL0     N13382   0.820   2.857   2.040  0.5215  0.2923 -0.0545
  102MOL0     N13383   0.841   2.978   2.078 -0.1325  0.2281  0.1933
  102MOL0     C13384   1.506   3.834   1.766 -0.2103  0.4717 -1.3516
  102MOL0     C13385   1.597   3.939   1.749 -0.1956 -0.9210  0.0828
  102MOL0     C13386   1.924   4.195   1.529  0.3508  0.0819  0.7578
  102MOL0     C13387   1.966   4.260   1.411 -0.6218  0.7299  0.6347
  102MOL0     C13388   2.059   4.365   1.416 -0.5773 -0.3023 -0.3774
  102MOL0     C13389   2.125   4.396   1.537  0.1635 -1.0828 -0.6779
  102MOL0     O13390   2.229   4.494   1.553  0.2114  0.4471 -0.0206
  102MOL0     C13391   2.301   4.530   1.434 -0.4681 -0.4741 -0.7441
  102MOL0     C13392   2.426   4.607   1.475  0.5304 -0.2975  0.0546
  102MOL0     C13393   2.519   4.519   1.561 -0.2647 -0.4173  0.5779
  102MOL0     C13394   2.642   4.611   1.586 -0.4810 -0.1637 -0.7106
  102MOL0     C13395   2.739   4.533   1.676 -1.4495 -0.3739  0.6647
  102MOL0     C13396   2.828   4.466   1.713 -1.1192  0.3242 -0.0508
  102MOL0     C13397   2.084   4.330   1.650  0.2796  0.8468  0.1315
  102MOL0     C13398   1.981   4.230   1.649  0.0712 -0.1218  0.6354
  102MOL0     H13399   1.762   3.794   1.480  2.0364  1.2515  0.7885
  102MOL0     H13400   1.591   3.629   1.513 -0.4583  0.2727  0.8485
  102MOL0     H13401   1.250   3.670   1.815 -1.0160 -1.8321  1.6778
  102MOL0     H13402   1.396   3.639   1.902 -0.9752  1.4992 -0.1709
  102MOL0     H13403   1.383   3.403   1.842  0.8958 -0.3767 -1.1748
  102MOL0     H13404   1.231   3.415   1.765 -0.5998  2.7622 -0.7314
  102MOL0     H13405   1.150   3.521   2.002  0.7920  2.0647 -3.4720
  102MOL0     H13406   1.283   3.417   2.055 -0.2243  0.7722  0.2142
  102MOL0     H13407   1.029   3.345   1.882 -0.0986  0.6828  0.5513
  102MOL0     H13408   1.156   3.232   1.911 -0.5592 -1.2278 -1.1292
  102MOL0     H13409   0.937   3.249   2.059  0.5235  0.7087 -1.4902
  102MOL0     H13410   1.038   3.367   2.145 -0.7229 -0.6574 -0.6831
  102MOL0     H13411   1.206   3.165   2.183  0.2385  1.2087  0.6271
  102MOL0     H13412   1.101   3.067   2.093 -0.4477 -0.1232  0.5599
  102MOL0     H13413   1.086   3.044   2.344  1.9889  0.4538 -1.8341
  102MOL0     H13414   1.027   3.210   2.372  1.9741 -2.2509  2.4245
  102MOL0     H13415   0.826   3.181   2.265  1.9516  1.7530 -1.3223
  102MOL0     H13416   0.846   3.070   2.395 -0.9854  0.8884  0.2804
  102MOL0     H13417   0.810   2.811   2.365 -2.8807  1.5946  1.1441
  102MOL0     H13418   0.649   2.647   2.088 -0.4971 -1.9042 -0.1255
  102MOL0     H13419   0.734   2.568   2.216 -0.6946 -1.0510 -1.8700
  102MOL0     H13420   0.950   2.584   2.063  1.5517 -3.3095 -0.6938
  102MOL0     H13421   0.828   2.594   1.933 -2.0188  2.2026  0.6450
  102MOL0     H13422   0.909   2.340   1.987 -0.9115  0.0749  0.0502
  102MOL0     H13423   0.820   2.353   2.128  3.1053 -0.3704 -0.0568
  102MOL0     H13424   0.718   2.257   1.902  1.4629  0.4193 -0.6082
  102MOL0     H13425   0.683   2.428   1.866 -0.7530 -0.1756 -0.1416
  102MOL0     H13426   0.474   2.219   1.835  2.3496 -1.9285  2.1067
  102MOL0     H13427   0.242   2.193   1.791  2.6813 -2.0451  1.3804
  102MOL0     H13428  -0.270   2.353   2.133  1.7728 -0.0395 -1.6663
  102MOL0     H13429  -0.504   2.372   2.080 -0.7430  3.0929  1.3579
  102MOL0     H13430  -0.588   2.292   1.696 -2.0068 -0.1503 -1.0628
  102MOL0     H13431  -0.633   2.438   1.634  0.9924  0.0574 -0.3475
  102MOL0     H13432  -0.863   2.396   1.782 -0.3344 -0.1405 -0.8173
  102MOL0     H13433  -0.799   2.233   1.782  2.7505  0.0120  0.2877
  102MOL0     H13434  -0.804   2.239   1.530 -1.7894 -2.6851  0.8025
  102MOL0     H13435  -0.867   2.405   1.538  0.3260  0.6076  1.5430
  102MOL0     H13436  -0.989   2.167   1.677 -0.0393 -1.0536 -1.1213
  102MOL0     H13437  -1.058   2.326   1.634  0.7025  1.2640 -2.7879
  102MOL0     H13438  -1.050   2.292   1.405 -0.7089  2.8390  4.0177
  102MOL0     H13439  -1.144   2.164   1.492 -0.7013 -1.8829 -2.5969
  102MOL0     H13440  -0.975   2.003   1.482  1.2879 -2.7830 -2.6439
  102MOL0     H13441  -0.883   2.110   1.367 -1.6191  1.8379  0.5890
  102MOL0     H13442  -1.171   2.020   1.316  0.8014  0.7015  2.6258
  102MOL0     H13443  -1.047   2.099   1.213  0.7673 -1.4555 -2.1779
  102MOL0     H13444  -1.078   1.847   1.179 -0.6956  0.2899  0.8782
  102MOL0     H13445  -1.005   1.819   1.335 -1.2523  2.2368  1.5320
  102MOL0     H13446  -0.394   2.475   1.669 -0.7500 -1.6269 -0.4082
  102MOL0     H13447  -0.175   2.475   1.716  0.6614  3.1179  0.1530
  102MOL0     H13448   0.153   2.484   2.075  1.8408  3.5664 -0.7122
  102MOL0     H13449   0.397   2.491   2.146  4.0662 -0.4364 -0.9352
  102MOL0     H13450   1.436   3.844   1.848  0.4448 -2.3646 -0.3532
  102MOL0     H13451   1.584   4.031   1.805 -1.2986 -1.4840  0.7989
  102MOL0     H13452   1.918   4.233   1.318  3.2047  0.3426 -1.4015
  102MOL0     H13453   2.097   4.409   1.324 -1.9581  2.2377  0.1721
  102MOL0     H13454   2.237   4.588   1.366 -1.1212 -1.5300 -1.0464
  102MOL0     H13455   2.338   4.441   1.383 -1.7676  0.4839 -3.5634
  102MOL0     H13456   2.488   4.641   1.392 -0.1874  2.8217  0.6707
  102MOL0     H13457   2.406   4.701   1.528  2.0962 -0.5305  1.1189
  102MOL0     H13458   2.537   4.430   1.501 -1.6313 -0.3839  0.0902
  102MOL0     H13459   2.465   4.499   1.653  0.5531  1.0065  1.4003
  102MOL0     H13460   2.699   4.635   1.496  1.3486 -1.1875  0.1190
  102MOL0     H13461   2.612   4.704   1.635  0.7281 -0.2845  0.3098
  102MOL0     H13462   2.910   4.409   1.751 -1.5189  1.1410  2.1891
  102MOL0     H13463   2.130   4.363   1.742  0.5815  0.4600  0.1199
  102MOL0     H13464   1.933   4.188   1.736 -5.4637  1.0882 -1.4477
  103MOL0     O13465   3.584   8.704  10.366  0.5160 -0.0745 -0.6703
  103MOL0     C13466   3.625   8.793  10.291 -0.4750  0.1537 -0.2686
  103MOL0     O13467   3.556   8.887  10.224 -0.3096 -0.4756 -0.1386
  103MOL0     C13468   3.422   8.885  10.209  0.0945  1.0132 -0.7206
  103MOL0     C13469   3.345   9.003  10.178 -1.2089  0.1045 -1.1066
  103MOL0     C13470   3.208   8.987  10.160 -0.3163  0.0432  0.0479
  103MOL0     C13471   3.137   8.861  10.175 -0.3492  0.0164 -0.0132
  103MOL0     O13472   3.005   8.868  10.162 -0.4548  0.0214 -0.8610
  103MOL0     C13473   2.919   8.776  10.228  0.2487  0.2558 -0.8700
  103MOL0     C13474   2.930   8.785  10.379 -0.1756  0.1708 -1.2224
  103MOL0     C13475   2.879   8.921  10.435 -1.2493 -0.3874  0.0548
  103MOL0     C13476   2.842   8.909  10.579 -0.0124  0.0075 -0.4695
  103MOL0     C13477   2.687   8.894  10.597  0.5706  0.2635 -0.2073
  103MOL0     C13478   2.656   8.871  10.749 -0.7850 -0.0174  0.0577
  103MOL0     C13479   2.517   8.906  10.777  0.0329  0.2901 -0.5702
  103MOL0     C13480   2.423   8.785  10.763 -0.2141  0.2950 -0.2162
  103MOL0     N13481   2.393   8.746  10.623  0.3314  0.7461 -0.6565
  103MOL0     C13482   2.326   8.809  10.529 -0.0091 -1.2692 -0.0085
  103MOL0     C13483   2.336   8.746  10.414 -0.3646 -0.0708 -0.4644
  103MOL0     C13484   2.286   8.802  10.290  0.8964  0.9173  0.0773
  103MOL0     C13485   2.133   8.806  10.287 -0.3737 -1.3970  0.0082
  103MOL0     C13486   2.073   8.663  10.286 -0.2770 -0.5140 -0.8504
  103MOL0     C13487   1.922   8.680  10.277 -0.0556  0.1429 -0.6058
  103MOL0     O13488   1.881   8.741  10.151  0.1169 -0.3710 -0.0494
  103MOL0     C13489   1.811   8.668  10.065  0.1242 -1.1255  0.1733
  103MOL0     C13490   1.700   8.742  10.021  1.2087  0.3370 -0.0618
  103MOL0     C13491   1.593   8.684   9.949 -0.0615  0.0027  0.4429
  103MOL0     C13492   1.587   8.549   9.918 -0.2663  0.3042 -0.2702
  103MOL0     C13493   1.486   8.486   9.829  0.3783  0.1052 -0.0321
  103MOL0     O13494   1.487   8.354   9.811 -0.3718 -0.7730 -0.1910
  103MOL0     C13495   1.389   8.299   9.741 -0.5801  0.7620 -0.0277
  103MOL0     C13496   1.433   8.213   9.641 -0.4816  0.0069 -0.2682
  103MOL0     C13497   1.335   8.147   9.560 -0.9788 -0.4242  0.7717
  103MOL0     C13498   1.200   8.171   9.586  0.7890  0.6573  0.5207
  103MOL0     O13499   1.102   8.119   9.506 -0.1505  0.1871 -0.3264
  103MOL0     C13500   1.136   8.085   9.368  0.5105 -0.4268 -0.2654
  103MOL0     C13501   1.018   8.077   9.285  0.6810  0.1017  0.1157
  103MOL0     C13502   0.950   8.210   9.230 -0.0972  0.1534 -0.6780
  103MOL0     C13503   0.928   8.321   9.340 -0.0078 -0.3642 -0.6169
  103MOL0     C13504   0.830   8.283   9.452 -0.0074 -0.3680 -0.4254
  103MOL0     C13505   0.690   8.246   9.405  0.3764 -0.2490  0.3858
  103MOL0     C13506   0.601   8.233   9.539 -0.4948 -0.6829 -0.6137
  103MOL0     C13507   0.538   8.363   9.580 -0.0882 -0.5840 -0.5265
  103MOL0    Cl13508   0.416   8.412   9.460 -0.3805 -0.3177  0.1555
  103MOL0     C13509   1.156   8.252   9.686 -0.2227  0.3628 -0.4697
  103MOL0     C13510   1.250   8.321   9.759 -0.4708  0.1739 -0.7218
  103MOL0     O13511   1.413   8.568   9.773 -0.2441  0.0561  0.0514
  103MOL0     C13512   1.699   8.471   9.965  0.5039 -1.0314  0.5788
  103MOL0     C13513   1.800   8.530  10.041 -0.8516 -0.6692 -0.4664
  103MOL0     N13514   2.409   8.628  10.438  0.4651 -0.0353  0.5528
  103MOL0     N13515   2.442   8.633  10.564 -0.2314 -0.4008  0.2209
  103MOL0     C13516   3.212   8.756  10.216 -1.2451  0.8627  1.1065
  103MOL0     C13517   3.351   8.763  10.213  0.5843 -0.3067 -0.1136
  103MOL0     C13518   3.774   8.794  10.281 -0.8883  0.8795 -0.6562
  103MOL0     C13519   3.850   8.698  10.344 -0.0145 -0.2311 -0.1503
  103MOL0     C13520   3.990   8.712  10.346  0.3092  0.4001  0.2289
  103MOL0     C13521   4.054   8.818  10.282 -0.4102 -0.8497  0.5240
  103MOL0     O13522   4.189   8.807  10.289  0.5491  0.4669 -0.2507
  103MOL0     C13523   4.278   8.904  10.242  0.0586 -1.0437  0.3714
  103MOL0     C13524   4.416   8.856  10.261 -0.5543  0.7459  0.2644
  103MOL0     C13525   4.519   8.920  10.170  0.1847 -0.1481  0.2879
  103MOL0     C13526   4.577   9.051  10.220  0.4287  0.3102 -0.5744
  103MOL0     C13527   4.646   9.052  10.358 -0.2959 -0.1770  0.9576
  103MOL0     C13528   4.711   9.042  10.458  0.0591  0.2337 -0.5075
  103MOL0     C13529   3.980   8.919  10.223 -0.8728 -0.2940 -0.3955
  103MOL0     C13530   3.841   8.904  10.221 -0.2112 -0.5624  0.3553
  103MOL0     H13531   3.402   9.091  10.153  0.5525 -1.3729 -2.6075
  103MOL0     H13532   3.152   9.073  10.124  0.2003 -0.7886 -2.9535
  103MOL0     H13533   2.943   8.672  10.208 -3.0107 -1.0905  1.3483
  103MOL0     H13534   2.812   8.789  10.206  0.0931 -0.0291 -0.3117
  103MOL0     H13535   3.028   8.761  10.422 -1.3048 -1.6873  0.5202
  103MOL0     H13536   2.867   8.707  10.423 -2.0771  0.6795 -2.9225
  103MOL0     H13537   2.793   8.952  10.376  0.7606  1.9253 -1.8533
  103MOL0     H13538   2.958   8.995  10.419 -1.8418  0.8544  2.4034
  103MOL0     H13539   2.887   8.829  10.637 -2.6566 -1.8282 -0.7795
  103MOL0     H13540   2.872   9.003  10.626  0.8278 -0.1204 -0.7358
  103MOL0     H13541   2.655   8.800  10.551  0.9609  0.1753 -0.3005
  103MOL0     H13542   2.624   8.975  10.561 -0.7425  0.1568  1.6893
  103MOL0     H13543   2.720   8.934  10.811 -0.7934  1.4398 -1.3557
  103MOL0     H13544   2.672   8.767  10.778 -0.6135  0.2376  0.8850
  103MOL0     H13545   2.514   8.921  10.885 -2.9294 -2.1752 -0.1477
  103MOL0     H13546   2.469   8.986  10.720  0.3030  1.9281  1.3942
  103MOL0     H13547   2.327   8.811  10.809  1.0078  1.6210  1.6986
  103MOL0     H13548   2.457   8.694  10.813 -2.2487  0.6450  2.0059
  103MOL0     H13549   2.284   8.907  10.551  2.4756  0.3409 -1.8895
  103MOL0     H13550   2.304   8.734  10.207 -1.9978  3.0606 -2.5520
  103MOL0     H13551   2.336   8.896  10.266  0.9930  1.9375  3.6199
  103MOL0     H13552   2.094   8.851  10.195  1.3075 -3.4925 -1.8410
  103MOL0     H13553   2.103   8.853  10.381  2.4173 -0.7584  0.6697
  103MOL0     H13554   2.115   8.610  10.200  0.7213  1.5084 -1.6856
  103MOL0     H13555   2.091   8.611  10.380 -1.5810 -2.2384 -1.4885
  103MOL0     H13556   1.877   8.741  10.357 -2.8370 -1.5989 -0.7056
  103MOL0     H13557   1.878   8.580  10.285  4.7457 -2.1704  0.5862
  103MOL0     H13558   1.685   8.844  10.056 -1.2293  0.0877 -0.2000
  103MOL0     H13559   1.515   8.754   9.923  0.9937  0.7257 -0.9075
  103MOL0     H13560   1.538   8.199   9.619  0.3205  2.9315  1.2748
  103MOL0     H13561   1.368   8.088   9.475 -0.2881  1.9191 -0.7137
  103MOL0     H13562   1.178   7.984   9.375 -0.6631 -0.9779 -0.8251
  103MOL0     H13563   1.202   8.157   9.318  0.1577 -0.6787 -1.1105
  103MOL0     H13564   0.942   8.015   9.335  2.8889 -2.0354  1.0406
  103MOL0     H13565   1.039   8.014   9.198  2.9319  1.8098 -0.6554
  103MOL0     H13566   0.855   8.181   9.183 -2.1425 -0.1612  3.2141
  103MOL0     H13567   1.009   8.259   9.152 -1.9986  3.1506 -0.4025
  103MOL0     H13568   1.026   8.344   9.383 -0.1041 -2.0996  0.6698
  103MOL0     H13569   0.894   8.414   9.294 -0.9192 -0.1236  0.5039
  103MOL0     H13570   0.834   8.369   9.519  2.9552 -1.6649  1.2611
  103MOL0     H13571   0.875   8.204   9.512  0.0188 -0.5822 -0.7196
  103MOL0     H13572   0.693   8.149   9.356  2.1531 -1.1043  2.0286
  103MOL0     H13573   0.648   8.320   9.337 -0.1487  1.7404  2.7239
  103MOL0     H13574   0.519   8.162   9.521  1.0369 -2.7051 -0.0159
  103MOL0     H13575   0.659   8.185   9.618  3.7104 -1.3486 -3.7776
  103MOL0     H13576   0.609   8.444   9.598 -0.1684 -1.1857  3.1782
  103MOL0     H13577   0.489   8.353   9.677 -0.6664  0.2325 -0.7266
  103MOL0     H13578   1.053   8.281   9.700 -0.8038 -1.6282 -0.2685
  103MOL0     H13579   1.222   8.380   9.845 -0.2837 -3.4478  2.0595
  103MOL0     H13580   1.711   8.370   9.928 -0.6954 -0.5818 -1.1893
  103MOL0     H13581   1.882   8.466  10.072  0.1209 -1.0083 -3.4038
  103MOL0     H13582   3.163   8.661  10.232  1.1492 -0.3411  1.5927
  103MOL0     H13583   3.407   8.670  10.212 -0.2048 -0.8020 -1.4893
  103MOL0     H13584   3.812   8.602  10.379  1.7209 -1.3554 -1.1398
  103MOL0     H13585   4.049   8.631  10.388  1.8065  1.7335  0.7569
  103MOL0     H13586   4.261   9.002  10.287 -2.8111 -1.0955 -0.3961
  103MOL0     H13587   4.253   8.922  10.137  1.1968  0.7420  0.3733
  103MOL0     H13588   4.430   8.884  10.365 -2.9475  2.0392  0.3131
  103MOL0     H13589   4.415   8.746  10.257  0.4926  0.7360  0.0308
  103MOL0     H13590   4.482   8.940  10.069  0.8915  0.2350  0.1013
  103MOL0     H13591   4.601   8.848  10.159 -1.1659 -1.3032 -3.8061
  103MOL0     H13592   4.650   9.085  10.145  0.5839 -0.0005 -0.5673
  103MOL0     H13593   4.492   9.119  10.227 -0.0179 -0.1488 -1.4025
  103MOL0     H13594   4.767   9.047  10.550  0.5521  0.5349 -0.8204
  103MOL0     H13595   4.018   9.016  10.193 -1.1092  0.0337  0.3539
  103MOL0     H13596   3.785   8.988  10.179  0.0988 -1.2591 -1.5764
  104MOL0     O13597   9.300   5.181   2.255  0.0073  0.0157 -0.1637
  104MOL0     C13598   9.305   5.213   2.374 -0.3375  0.1637  0.8320
  104MOL0     O13599   9.197   5.253   2.450 -0.0772  0.2526  0.1081
  104MOL0     C13600   9.069   5.207   2.415 -0.5212  0.1288 -0.5342
  104MOL0     C13601   9.039   5.100   2.334 -0.9147 -0.8979  0.3331
  104MOL0     C13602   8.911   5.070   2.297  0.1989  0.7692 -1.2916
  104MOL0     C13603   8.801   5.143   2.344  0.2522 -0.2993 -0.5849
  104MOL0     O13604   8.677   5.120   2.286  0.4911 -0.2945 -0.2366
  104MOL0     C13605   8.557   5.128   2.376 -1.2412 -0.6684  0.7306
  104MOL0     C13606   8.445   5.060   2.304 -0.4058 -0.3999  0.3076
  104MOL0     C13607   8.406   5.126   2.168  0.3079  0.4381 -0.2710
  104MOL0     C13608   8.279   5.058   2.099  0.1977 -0.2327 -0.0698
  104MOL0     C13609   8.156   5.075   2.187 -0.5338  1.0056 -0.3432
  104MOL0     C13610   8.033   5.011   2.119 -0.3953 -0.4334 -0.1818
  104MOL0     C13611   7.909   5.020   2.206 -0.3121  0.2544 -0.3499
  104MOL0     C13612   7.779   5.044   2.127  0.0418 -0.8232 -0.0900
  104MOL0     N13613   7.666   5.022   2.228  0.1639 -0.2728 -0.4860
  104MOL0     C13614   7.623   4.902   2.282 -0.5976 -0.1080  0.1149
  104MOL0     C13615   7.528   4.933   2.373  0.4411  0.6448 -0.6890
  104MOL0     C13616   7.458   4.821   2.458 -0.2354  0.6005  0.0348
  104MOL0     C13617   7.315   4.799   2.417  0.0341  0.3743 -0.3994
  104MOL0     C13618   7.228   4.748   2.538  1.0115 -0.5835  0.6552
  104MOL0     C13619   7.077   4.739   2.499  0.5646  0.7467 -0.2677
  104MOL0     O13620   7.008   4.868   2.484  0.2890  0.1321  0.2556
  104MOL0     C13621   6.869   4.870   2.478 -0.7819  0.3221 -1.3437
  104MOL0     C13622   6.799   4.992   2.480 -0.2753 -0.2427 -0.8136
  104MOL0     C13623   6.659   4.998   2.491 -0.5656 -0.2248  0.5822
  104MOL0     C13624   6.587   4.884   2.516  0.2291 -0.0904 -1.5210
  104MOL0     C13625   6.442   4.897   2.540  0.0624  0.0992  0.2091
  104MOL0     O13626   6.384   4.788   2.605  0.0591  0.3165 -0.1951
  104MOL0     C13627   6.248   4.770   2.630  0.4973  0.6256  0.6402
  104MOL0     C13628   6.157   4.761   2.524 -0.8414  0.3811 -0.1554
  104MOL0     C13629   6.024   4.746   2.550 -0.6882  0.4180 -0.3634
  104MOL0     C13630   5.975   4.734   2.680 -0.5830  0.0360  0.4886
  104MOL0     O13631   5.836   4.726   2.681  0.2399  0.6008  0.6131
  104MOL0     C13632   5.784   4.672   2.803 -0.3277  0.1347  0.1403
  104MOL0     C13633   5.641   4.634   2.780 -0.1219 -0.0018  0.2155
  104MOL0     C13634   5.576   4.544   2.890  0.4421  0.1793  0.3073
  104MOL0     C13635   5.441   4.486   2.838 -0.1783  0.5620 -0.0698
  104MOL0     C13636   5.378   4.417   2.963 -0.1034  0.4797 -0.1429
  104MOL0     C13637   5.454   4.287   3.000  0.9275 -0.4296  0.3596
  104MOL0     C13638   5.376   4.213   3.105 -0.5396 -0.4412 -0.2961
  104MOL0     C13639   5.245   4.150   3.069 -0.3519  0.6223 -0.0575
  104MOL0    Cl13640   5.282   4.005   2.966  0.0058 -0.1275 -0.0947
  104MOL0     C13641   6.071   4.725   2.784 -0.1796  0.0774  0.5123
  104MOL0     C13642   6.205   4.744   2.760  0.1714 -0.6338 -0.9594
  104MOL0     O13643   6.378   4.986   2.481 -0.2090 -0.2511 -0.8377
  104MOL0     C13644   6.658   4.757   2.504 -0.0748 -0.4694 -0.3254
  104MOL0     C13645   6.794   4.749   2.484  0.0509  0.0324 -0.2373
  104MOL0     N13646   7.517   5.070   2.368  0.1846 -0.1396 -0.1365
  104MOL0     N13647   7.603   5.124   2.289  0.8333  0.0172  0.2240
  104MOL0     C13648   8.827   5.259   2.422 -0.1885 -0.7921  0.3375
  104MOL0     C13649   8.964   5.290   2.453  0.5520  0.8134  0.3660
  104MOL0     C13650   9.431   5.227   2.433  0.2492 -0.4906 -0.4885
  104MOL0     C13651   9.543   5.227   2.349 -1.0977  0.5576 -0.2003
  104MOL0     C13652   9.667   5.235   2.408  0.0942  0.1172 -1.2937
  104MOL0     C13653   9.682   5.247   2.546  0.3163  0.2772  0.5959
  104MOL0     O13654   9.798   5.262   2.622  0.0014  0.1690 -0.5141
  104MOL0     C13655   9.930   5.245   2.561  0.0695 -0.2391 -0.7225
  104MOL0     C13656  10.028   5.263   2.688  0.1867  0.1224  0.0288
  104MOL0     C13657  10.176   5.273   2.641 -0.6557 -0.7757  0.2233
  104MOL0     C13658  10.244   5.413   2.659 -0.4746  0.7483  0.6737
  104MOL0     C13659  10.276   5.445   2.796 -0.4778  0.1152 -0.6131
  104MOL0     C13660  10.317   5.473   2.906 -0.0094 -0.2652  0.0301
  104MOL0     C13661   9.570   5.259   2.627  0.0592  0.2853  0.1388
  104MOL0     C13662   9.441   5.247   2.577 -0.4596 -0.4078 -0.0069
  104MOL0     H13663   9.122   5.046   2.289  1.1094  1.2946  1.2173
  104MOL0     H13664   8.910   4.989   2.224  1.8222 -0.4703 -0.0023
  104MOL0     H13665   8.526   5.230   2.402  0.6360 -0.1205  0.9030
  104MOL0     H13666   8.578   5.069   2.466  2.5358  0.4172  0.7245
  104MOL0     H13667   8.361   5.061   2.373 -0.6218 -0.2407  0.0459
  104MOL0     H13668   8.473   4.957   2.280  1.1129  0.5445 -2.4252
  104MOL0     H13669   8.493   5.102   2.106  1.3600  1.4146  0.7630
  104MOL0     H13670   8.395   5.235   2.170  1.0792  0.5154  0.4807
  104MOL0     H13671   8.262   5.114   2.007 -1.9657 -0.8222 -0.0960
  104MOL0     H13672   8.292   4.953   2.069  1.7476 -0.0101 -0.2375
  104MOL0     H13673   8.142   5.181   2.212  0.2359  0.8695  0.7373
  104MOL0     H13674   8.170   5.029   2.285 -0.3939  1.7098 -0.0274
  104MOL0     H13675   8.051   4.904   2.104 -1.7436 -0.3787 -2.8470
  104MOL0     H13676   8.011   5.061   2.024 -0.8263  2.0863  1.1362
  104MOL0     H13677   7.906   4.932   2.271 -0.9109 -0.0649 -0.7977
  104MOL0     H13678   7.920   5.109   2.268  1.5732 -0.0046 -0.2516
  104MOL0     H13679   7.762   4.980   2.040 -1.8706 -1.0237  0.3872
  104MOL0     H13680   7.778   5.146   2.088  0.9275 -0.8210 -0.1317
  104MOL0     H13681   7.652   4.800   2.261  1.9026  0.2795  1.2999
  104MOL0     H13682   7.473   4.849   2.562  1.0645 -2.5535  0.8001
  104MOL0     H13683   7.511   4.725   2.461  0.3293  0.8491 -1.3493
  104MOL0     H13684   7.308   4.732   2.331 -0.0329 -1.5649  1.0672
  104MOL0     H13685   7.272   4.897   2.393 -1.6540  0.7975  3.5756
  104MOL0     H13686   7.253   4.645   2.565  0.6198 -0.5337  1.2348
  104MOL0     H13687   7.238   4.818   2.622 -0.0662  1.2653 -0.6643
  104MOL0     H13688   7.027   4.666   2.565  0.4875 -3.3320 -4.3201
  104MOL0     H13689   7.090   4.695   2.400 -1.9491 -0.8383 -0.0058
  104MOL0     H13690   6.854   5.086   2.484 -0.1248 -0.3520 -0.2954
  104MOL0     H13691   6.609   5.094   2.490 -2.1734 -1.0081  1.8958
  104MOL0     H13692   6.186   4.768   2.419  0.6573 -3.4251 -0.1590
  104MOL0     H13693   5.945   4.745   2.476 -2.8715  0.3454  1.8414
  104MOL0     H13694   5.801   4.743   2.884 -0.7328 -1.9449  2.1565
  104MOL0     H13695   5.845   4.586   2.831  2.8480  0.8386 -3.6428
  104MOL0     H13696   5.638   4.590   2.679  1.3425  0.9877 -0.2825
  104MOL0     H13697   5.579   4.724   2.773 -0.3626 -0.2741 -1.9291
  104MOL0     H13698   5.563   4.599   2.984  1.6659  1.1464 -0.0585
  104MOL0     H13699   5.642   4.461   2.917  1.1007  1.1726  1.8843
  104MOL0     H13700   5.370   4.564   2.811 -1.6172 -0.7312 -0.1883
  104MOL0     H13701   5.448   4.414   2.756 -0.4501  0.8922 -0.3831
  104MOL0     H13702   5.274   4.399   2.936 -0.6206 -0.5974  2.2722
  104MOL0     H13703   5.374   4.485   3.049 -0.0832  1.1747 -0.6889
  104MOL0     H13704   5.556   4.305   3.035  1.0107 -2.6419  1.4875
  104MOL0     H13705   5.473   4.218   2.917  2.2086 -0.7848  0.9233
  104MOL0     H13706   5.443   4.133   3.137  1.2554  1.7865  1.8537
  104MOL0     H13707   5.353   4.290   3.179 -1.7091 -0.5922 -0.4729
  104MOL0     H13708   5.171   4.215   3.022 -2.1275 -1.3111 -0.0904
  104MOL0     H13709   5.204   4.107   3.161 -2.5279  0.1226 -1.2199
  104MOL0     H13710   6.054   4.719   2.891  1.3114 -2.1022  0.7092
  104MOL0     H13711   6.280   4.745   2.839  0.1884 -0.9452 -0.9723
  104MOL0     H13712   6.600   4.668   2.526  2.3833 -1.0497  5.5616
  104MOL0     H13713   6.837   4.650   2.489 -3.3167 -1.4861  1.4441
  104MOL0     H13714   8.746   5.322   2.456 -1.1177 -2.1655  0.7736
  104MOL0     H13715   8.980   5.384   2.505  0.4885  1.2005 -0.2906
  104MOL0     H13716   9.541   5.216   2.241 -1.5452 -0.2117 -0.1272
  104MOL0     H13717   9.759   5.218   2.354  0.0965 -0.6006 -1.0748
  104MOL0     H13718   9.940   5.329   2.493 -1.9190  0.5629 -0.1173
  104MOL0     H13719   9.940   5.151   2.506  1.6705  1.1546 -2.9446
  104MOL0     H13720   9.988   5.346   2.747 -0.5895  0.0969 -0.4474
  104MOL0     H13721  10.027   5.179   2.759  1.6572  0.8134  0.9292
  104MOL0     H13722  10.174   5.244   2.536 -4.4940  2.6741 -0.9039
  104MOL0     H13723  10.239   5.200   2.693 -0.0836 -0.7647 -0.4558
  104MOL0     H13724  10.343   5.410   2.614 -1.5246 -2.6828 -1.7915
  104MOL0     H13725  10.182   5.491   2.612 -1.0673 -0.8490 -1.3217
  104MOL0     H13726  10.354   5.507   3.000  0.4056  1.8263 -0.8337
  104MOL0     H13727   9.595   5.267   2.732 -0.3625 -1.6110  0.4165
  104MOL0     H13728   9.360   5.235   2.649 -0.6717 -0.5759 -0.2727
  105MOL0     O13729   9.796   2.042   7.506 -0.5016  0.0204  0.2265
  105MOL0     C13730   9.867   2.139   7.529  0.4903 -0.2960 -0.3115
  105MOL0     O13731   9.825   2.258   7.579  0.3148  0.2336 -0.4408
  105MOL0     C13732   9.688   2.264   7.606 -0.4998 -0.2818 -0.3957
  105MOL0     C13733   9.635   2.257   7.730 -0.0025 -0.1754  0.0392
  105MOL0     C13734   9.492   2.254   7.744 -0.2838  0.2684 -0.3508
  105MOL0     C13735   9.401   2.264   7.639 -0.9847 -0.0256  0.3423
  105MOL0     O13736   9.265   2.282   7.650 -0.2689  0.2478 -0.0819
  105MOL0     C13737   9.208   2.230   7.770  0.7143 -0.9299 -1.0244
  105MOL0     C13738   9.056   2.258   7.765 -0.6560  0.7291  0.6401
  105MOL0     C13739   8.993   2.193   7.642  1.1960  1.1003 -0.2747
  105MOL0     C13740   8.857   2.241   7.629  0.0202  0.0242  0.4075
  105MOL0     C13741   8.789   2.170   7.510  0.0881 -0.4746 -0.3907
  105MOL0     C13742   8.656   2.236   7.467 -0.8054  0.0770 -0.0031
  105MOL0     C13743   8.580   2.169   7.352  0.6186  0.6953  1.4270
  105MOL0     C13744   8.481   2.067   7.412 -0.8034 -0.2668  0.3279
  105MOL0     N13745   8.365   2.132   7.473 -0.5225 -0.5920  0.7883
  105MOL0     C13746   8.249   2.152   7.405  0.1462  0.2420  0.2433
  105MOL0     C13747   8.165   2.218   7.493 -1.0661  0.0422  0.2138
  105MOL0     C13748   8.014   2.252   7.476  0.0801  0.0811  0.2440
  105MOL0     C13749   7.915   2.124   7.453 -0.0092  0.2673 -0.5254
  105MOL0     C13750   7.931   2.009   7.565  0.9854 -0.5072 -0.0053
  105MOL0     C13751   7.921   2.064   7.708 -0.1516 -0.1328 -0.6675
  105MOL0     O13752   7.825   2.003   7.795  0.2886 -0.7007 -0.4939
  105MOL0     C13753   7.692   2.006   7.760  0.1922  0.3711 -0.4237
  105MOL0     C13754   7.626   2.085   7.671  0.2847 -1.0139 -0.2180
  105MOL0     C13755   7.487   2.080   7.653  0.0059 -0.3523 -0.0202
  105MOL0     C13756   7.407   1.984   7.723 -0.4066  0.2817 -0.4644
  105MOL0     C13757   7.260   1.975   7.707 -0.3648  0.1889 -0.5885
  105MOL0     O13758   7.196   1.861   7.760  0.3190 -0.0244 -0.5805
  105MOL0     C13759   7.059   1.843   7.743  0.2722  0.8107 -0.7947
  105MOL0     C13760   6.949   1.926   7.795 -0.5027  0.3336  0.1707
  105MOL0     C13761   6.818   1.903   7.766  1.2796 -0.2390  0.3237
  105MOL0     C13762   6.781   1.788   7.692 -0.5346 -0.2892  0.0605
  105MOL0     O13763   6.646   1.789   7.658  0.1336  0.8787  0.0951
  105MOL0     C13764   6.602   1.707   7.549 -0.0526  0.1628 -0.2751
  105MOL0     C13765   6.453   1.737   7.516 -0.4880 -0.1407 -1.4596
  105MOL0     C13766   6.401   1.645   7.412  0.8063  0.7708  1.2779
  105MOL0     C13767   6.273   1.693   7.350 -0.2595  1.2359 -0.4880
  105MOL0     C13768   6.225   1.586   7.252 -0.1828  0.1895 -0.1393
  105MOL0     C13769   6.317   1.562   7.131 -0.1880 -0.2196 -0.3246
  105MOL0     C13770   6.244   1.516   7.004 -0.4727  0.2652 -0.4700
  105MOL0     C13771   6.256   1.622   6.887  0.4833 -0.5153  0.3342
  105MOL0    Cl13772   6.432   1.648   6.827 -0.1879  0.1813  0.0729
  105MOL0     C13773   6.880   1.714   7.622 -0.7302  0.1506 -0.0901
  105MOL0     C13774   7.017   1.731   7.660  0.2568 -0.6020  0.6468
  105MOL0     O13775   7.201   2.078   7.667 -0.5583  0.3251 -0.2629
  105MOL0     C13776   7.475   1.909   7.816  0.7954  0.1913  0.0737
  105MOL0     C13777   7.615   1.917   7.837 -0.1105 -0.4657  0.3719
  105MOL0     N13778   8.231   2.222   7.622 -0.0340  0.1434  0.1408
  105MOL0     N13779   8.346   2.160   7.605 -0.1870  0.3914 -0.7531
  105MOL0     C13780   9.464   2.284   7.510  0.6292  0.4339  0.8190
  105MOL0     C13781   9.607   2.287   7.496 -0.0648  0.8422 -0.1504
  105MOL0     C13782  10.013   2.127   7.508  0.7554 -0.4197 -0.4607
  105MOL0     C13783  10.107   2.224   7.555  0.0054 -0.4298  0.3118
  105MOL0     C13784  10.248   2.214   7.528  0.8915 -0.3928 -0.0774
  105MOL0     C13785  10.297   2.094   7.471  0.0880 -0.4701 -0.6372
  105MOL0     O13786  10.431   2.065   7.460  0.8546 -0.0423  0.2246
  105MOL0     C13787  10.496   2.049   7.590 -0.5210 -0.6226 -1.0712
  105MOL0     C13788  10.579   2.168   7.635  0.0362 -0.9740 -0.5771
  105MOL0     C13789  10.705   2.170   7.550 -0.0896  0.8925  0.3841
  105MOL0     C13790  10.827   2.233   7.624  0.1901  0.2324 -0.2085
  105MOL0     C13791  10.829   2.378   7.604  0.0477 -0.0424 -0.2214
  105MOL0     C13792  10.823   2.496   7.568 -0.1899 -0.1409 -0.1602
  105MOL0     C13793  10.207   1.996   7.440  0.1441 -0.3183  0.5570
  105MOL0     C13794  10.068   2.012   7.464  0.5589 -0.7351 -0.0402
  105MOL0     H13795   9.702   2.273   7.814 -1.7978  0.0758  1.4786
  105MOL0     H13796   9.448   2.274   7.841 -1.9800  3.4754 -1.6270
  105MOL0     H13797   9.244   2.275   7.862 -2.5526 -1.0434  0.4445
  105MOL0     H13798   9.235   2.125   7.787  1.7659 -0.2553  2.0815
  105MOL0     H13799   9.038   2.366   7.764 -1.3239  0.6615 -2.0047
  105MOL0     H13800   9.012   2.214   7.855 -0.0714 -1.8470 -0.2461
  105MOL0     H13801   8.982   2.088   7.672 -1.2197  1.4596  0.3232
  105MOL0     H13802   9.047   2.208   7.549  0.9983  2.7399 -0.1510
  105MOL0     H13803   8.787   2.220   7.711 -1.5630  0.3395 -0.8021
  105MOL0     H13804   8.876   2.347   7.613 -1.9241  0.0629 -2.3292
  105MOL0     H13805   8.765   2.069   7.546 -0.6012 -0.3342 -0.4396
  105MOL0     H13806   8.858   2.153   7.427 -0.2183 -2.1299 -0.3403
  105MOL0     H13807   8.691   2.331   7.426  0.8759 -0.8627 -0.8498
  105MOL0     H13808   8.583   2.252   7.547 -1.1967 -0.5506 -0.2308
  105MOL0     H13809   8.517   2.244   7.302 -0.7784 -0.1750  1.8377
  105MOL0     H13810   8.652   2.123   7.284  1.1587 -0.9501  3.0624
  105MOL0     H13811   8.537   2.016   7.490  2.6859 -1.6302 -2.7654
  105MOL0     H13812   8.444   1.995   7.338  0.4698  0.3327 -0.9328
  105MOL0     H13813   8.225   2.125   7.302  0.3419  2.0655 -0.3071
  105MOL0     H13814   8.001   2.312   7.386  0.4827 -0.7912 -0.4085
  105MOL0     H13815   7.969   2.314   7.555 -3.4351 -1.0204 -0.7487
  105MOL0     H13816   7.947   2.077   7.359  3.6836 -0.0187  0.6951
  105MOL0     H13817   7.810   2.153   7.454 -0.5694 -0.6840  5.4342
  105MOL0     H13818   7.857   1.931   7.547 -1.5778  1.2647  2.1014
  105MOL0     H13819   8.036   1.979   7.557  1.0942 -0.0043 -0.5519
  105MOL0     H13820   7.890   2.168   7.694  0.5727  0.1373 -0.3343
  105MOL0     H13821   8.021   2.063   7.754 -0.2640 -0.4593 -0.4323
  105MOL0     H13822   7.671   2.168   7.618 -1.4780  0.2674  0.2006
  105MOL0     H13823   7.435   2.154   7.592 -0.4188 -0.1362  0.5951
  105MOL0     H13824   6.979   2.008   7.860  1.7552 -1.5881  1.7812
  105MOL0     H13825   6.739   1.969   7.799 -0.5341 -1.1379 -1.9295
  105MOL0     H13826   6.609   1.601   7.576  3.4224  0.4148  0.2383
  105MOL0     H13827   6.661   1.732   7.460  1.4048  0.9343  0.8683
  105MOL0     H13828   6.452   1.836   7.469  0.3929  0.1547 -0.8773
  105MOL0     H13829   6.391   1.739   7.607 -1.2452  1.2337 -1.9782
  105MOL0     H13830   6.399   1.538   7.435  3.0956  0.2296 -0.6305
  105MOL0     H13831   6.476   1.649   7.333  1.0763  1.2419  1.5559
  105MOL0     H13832   6.198   1.707   7.429  0.0408 -0.8996  0.2337
  105MOL0     H13833   6.296   1.785   7.296 -0.2574  1.4903 -0.0559
  105MOL0     H13834   6.125   1.614   7.216 -1.2521  0.5950  2.8665
  105MOL0     H13835   6.208   1.492   7.305 -0.7194 -0.3081 -1.1740
  105MOL0     H13836   6.402   1.496   7.152 -0.3471 -0.9450 -1.8410
  105MOL0     H13837   6.374   1.652   7.103  0.1824 -0.4508 -0.3156
  105MOL0     H13838   6.282   1.418   6.971  2.4585  0.9201  0.6714
  105MOL0     H13839   6.136   1.513   7.018 -0.7304  1.2366 -2.0156
  105MOL0     H13840   6.212   1.715   6.923  2.6935  0.5539  0.4308
  105MOL0     H13841   6.189   1.594   6.806  0.2765  1.3230 -0.1732
  105MOL0     H13842   6.854   1.633   7.555 -0.7185 -1.7476  2.0767
  105MOL0     H13843   7.095   1.666   7.622  1.8363  1.3970  0.3213
  105MOL0     H13844   7.409   1.847   7.876  0.5479  0.2165 -0.1695
  105MOL0     H13845   7.663   1.855   7.911 -0.9435 -1.1952  0.3127
  105MOL0     H13846   9.404   2.297   7.420  1.5715 -1.7538 -0.2025
  105MOL0     H13847   9.642   2.294   7.394  0.2916  1.6208  0.0193
  105MOL0     H13848  10.073   2.307   7.617  2.8326 -0.2390  1.7561
  105MOL0     H13849  10.305   2.297   7.567 -0.2276  0.6503 -0.5713
  105MOL0     H13850  10.563   1.962   7.589  0.8514  0.2176  2.3004
  105MOL0     H13851  10.424   2.015   7.665 -0.8958  3.3353  0.6211
  105MOL0     H13852  10.518   2.259   7.634 -0.3477 -1.2219 -0.2730
  105MOL0     H13853  10.601   2.154   7.742  1.2924  0.8884 -0.5566
  105MOL0     H13854  10.684   2.218   7.454 -0.4685  1.4757  0.7508
  105MOL0     H13855  10.745   2.069   7.533 -1.6315  0.6096 -1.9322
  105MOL0     H13856  10.827   2.213   7.732 -3.3493  0.0087 -0.1546
  105MOL0     H13857  10.924   2.190   7.597 -0.8313 -2.2322 -0.1169
  105MOL0     H13858  10.817   2.598   7.535  1.0292  0.6193  1.7334
  105MOL0     H13859  10.222   1.902   7.388 -0.1886 -0.2989  0.4225
  105MOL0     H13860  10.003   1.928   7.445 -1.3553  0.5414  0.5341
  106MOL0     O13861   1.155   9.396  10.159  0.3629  0.4233  0.0973
  106MOL0     C13862   1.078   9.439  10.242 -0.5008 -0.4340 -0.2074
  106MOL0     O13863   1.115   9.486  10.364 -0.0363  0.2535  0.3645
  106MOL0     C13864   1.251   9.520  10.374 -0.4969  0.0075 -0.4790
  106MOL0     C13865   1.345   9.560  10.274 -0.2183  0.2790 -0.1063
  106MOL0     C13866   1.480   9.582  10.325 -0.6477  0.5616 -0.5317
  106MOL0     C13867   1.514   9.584  10.460 -0.3995  0.5294 -0.4154
  106MOL0     O13868   1.642   9.618  10.494 -0.1027 -0.2772 -0.3896
  106MOL0     C13869   1.656   9.654  10.635  0.4829 -0.8814 -0.6045
  106MOL0     C13870   1.787   9.731  10.666 -0.4671 -0.3895  0.0466
  106MOL0     C13871   1.913   9.662  10.610  0.0196  0.8859 -0.6148
  106MOL0     C13872   2.034   9.752  10.634 -0.2685 -0.5992 -0.9008
  106MOL0     C13873   2.176   9.686  10.621  0.3087 -0.0499  0.3713
  106MOL0     C13874   2.292   9.779  10.652  0.0281 -0.4438 -0.5388
  106MOL0     C13875   2.431   9.715  10.629 -0.0073 -0.6422  0.6662
  106MOL0     C13876   2.543   9.801  10.692  0.4292 -0.4388 -0.4691
  106MOL0     N13877   2.517   9.847  10.831 -1.0379  0.2729 -0.3920
  106MOL0     C13878   2.564   9.966  10.879  0.5973 -0.5052 -0.5767
  106MOL0     C13879   2.553   9.956  11.015 -0.1952  0.4059  0.3610
  106MOL0     C13880   2.607  10.056  11.118  0.2935  0.8910  0.2083
  106MOL0     C13881   2.548  10.192  11.097 -0.5899 -0.3778  0.7834
  106MOL0     C13882   2.616  10.283  11.203  0.8583 -0.3843 -0.6285
  106MOL0     C13883   2.546  10.413  11.201  0.5653 -0.0627  0.0492
  106MOL0     O13884   2.417  10.405  11.260 -0.3077  0.3051  0.4352
  106MOL0     C13885   2.334  10.512  11.249 -1.4870 -0.0989 -0.1964
  106MOL0     C13886   2.214  10.507  11.318 -0.6340  0.3997  0.1885
  106MOL0     C13887   2.115  10.600  11.315  0.9091  1.1668 -0.4635
  106MOL0     C13888   2.136  10.726  11.249 -1.2450  0.3385  0.8940
  106MOL0     C13889   2.029  10.827  11.237 -0.7303  0.6569 -0.1916
  106MOL0     O13890   2.057  10.954  11.188  0.1427  0.8339 -0.3018
  106MOL0     C13891   1.950  11.039  11.191  0.5806 -0.0220 -0.4819
  106MOL0     C13892   1.835  11.002  11.124  0.5302  0.1231  0.2636
  106MOL0     C13893   1.720  11.090  11.117 -0.4038 -0.0783 -0.0003
  106MOL0     C13894   1.725  11.205  11.200  0.7217  0.5007 -0.6763
  106MOL0     O13895   1.622  11.283  11.236 -0.3427  0.2195  0.1892
  106MOL0     C13896   1.488  11.216  11.218  0.1140 -0.2091 -0.5605
  106MOL0     C13897   1.369  11.301  11.265 -0.1589 -0.2701 -0.7559
  106MOL0     C13898   1.236  11.234  11.214 -0.2885 -0.1344 -0.4264
  106MOL0     C13899   1.204  11.301  11.077  0.6512  0.3075  0.2128
  106MOL0     C13900   1.095  11.220  11.005 -0.2580  0.2759  0.3796
  106MOL0     C13901   0.949  11.236  11.067 -0.0274 -0.5054  0.0617
  106MOL0     C13902   0.879  11.104  11.038  0.8957  0.3113  0.7499
  106MOL0     C13903   0.726  11.120  11.041 -0.1596  0.2371 -0.5410
  106MOL0    Cl13904   0.674  11.212  10.891 -0.4665 -0.4219 -0.0137
  106MOL0     C13905   1.836  11.237  11.276  0.0429  0.2060  1.0995
  106MOL0     C13906   1.947  11.152  11.273  0.4288 -0.1928  0.3036
  106MOL0     O13907   1.921  10.788  11.275 -0.7291  0.4209  0.1551
  106MOL0     C13908   2.254  10.728  11.173 -0.2318 -0.0157 -0.1729
  106MOL0     C13909   2.355  10.626  11.174  0.5522 -0.3867 -0.4960
  106MOL0     N13910   2.494   9.831  11.046 -0.1372  0.6748  0.6591
  106MOL0     N13911   2.462   9.768  10.937 -0.3595 -1.0542  0.5618
  106MOL0     C13912   1.423   9.542  10.545 -0.2584 -0.4576 -0.0490
  106MOL0     C13913   1.295   9.513  10.513 -0.0356  0.9827  0.0292
  106MOL0     C13914   0.928   9.416  10.224 -0.4505 -0.2537  0.1724
  106MOL0     C13915   0.878   9.349  10.113 -0.2831  0.2629  0.2222
  106MOL0     C13916   0.740   9.329  10.097  0.4839  0.2563 -0.3409
  106MOL0     C13917   0.642   9.369  10.188 -0.2758 -0.1779 -0.0464
  106MOL0     O13918   0.513   9.335  10.167 -0.7513 -0.5057 -0.4291
  106MOL0     C13919   0.400   9.390  10.235 -0.9432  0.2758  0.6840
  106MOL0     C13920   0.293   9.414  10.124  0.1241  0.2774 -0.8345
  106MOL0     C13921   0.156   9.479  10.169  0.0749 -0.3745 -0.2020
  106MOL0     C13922   0.059   9.467  10.046  0.8812 -1.0748  0.4391
  106MOL0     C13923   0.037   9.329  10.008 -1.1400  0.0415  0.6491
  106MOL0     C13924   0.013   9.211  10.000  0.1975  0.1433  0.5700
  106MOL0     C13925   0.699   9.437  10.305 -0.1319  0.1370 -0.7603
  106MOL0     C13926   0.835   9.462  10.317 -0.0223 -1.1176 -0.0097
  106MOL0     H13927   1.314   9.581  10.172 -0.4028  2.1684  0.2997
  106MOL0     H13928   1.558   9.603  10.252 -1.1328  0.1880 -1.1718
  106MOL0     H13929   1.657   9.563  10.695 -0.7138 -0.0432  0.7730
  106MOL0     H13930   1.572   9.716  10.671 -0.9450 -1.6501 -2.4281
  106MOL0     H13931   1.798   9.745  10.774  0.8188  2.1192 -0.3401
  106MOL0     H13932   1.791   9.825  10.611 -2.9279 -0.1315  0.2134
  106MOL0     H13933   1.903   9.634  10.505 -1.6461 -1.2609  0.0337
  106MOL0     H13934   1.916   9.571  10.671  0.9483  3.0947  2.9051
  106MOL0     H13935   2.033   9.839  10.567 -0.0984 -2.6166 -3.6953
  106MOL0     H13936   2.029   9.798  10.733 -0.5918  2.6185 -2.2742
  106MOL0     H13937   2.168   9.653  10.517 -0.3642  1.1101  0.0420
  106MOL0     H13938   2.190   9.598  10.685  0.5787  1.8038  3.0196
  106MOL0     H13939   2.276   9.799  10.759  2.2605  0.0825 -0.2507
  106MOL0     H13940   2.286   9.879  10.608  1.3453 -0.6350 -1.1945
  106MOL0     H13941   2.438   9.619  10.681  1.5604 -1.6960 -1.3541
  106MOL0     H13942   2.441   9.704  10.521  0.2778 -1.0529  0.7301
  106MOL0     H13943   2.560   9.894  10.637  1.9761  0.5897  1.6006
  106MOL0     H13944   2.641   9.753  10.686 -0.3197 -2.0150 -0.5351
  106MOL0     H13945   2.615  10.046  10.827  3.0795  1.0974  3.7207
  106MOL0     H13946   2.715  10.064  11.099  0.3207  2.4612  0.8624
  106MOL0     H13947   2.590  10.011  11.216  2.3913 -1.4588 -0.3923
  106MOL0     H13948   2.439  10.192  11.105 -0.6192  2.7310  1.9575
  106MOL0     H13949   2.579  10.238  11.003 -0.3294  0.1098  1.1024
  106MOL0     H13950   2.602  10.246  11.305 -1.0849 -0.9526 -1.0599
  106MOL0     H13951   2.720  10.292  11.172 -0.0297  0.8299 -3.6477
  106MOL0     H13952   2.544  10.448  11.098 -1.5565  0.4069  0.1951
  106MOL0     H13953   2.589  10.494  11.260  4.4108 -0.7026 -1.5860
  106MOL0     H13954   2.185  10.423  11.380 -2.6628  0.6215 -0.3630
  106MOL0     H13955   2.022  10.579  11.367  0.4255 -0.5876 -1.9290
  106MOL0     H13956   1.823  10.911  11.066 -2.0976 -0.1779  1.1731
  106MOL0     H13957   1.635  11.063  11.054 -1.2352  2.3132  0.0208
  106MOL0     H13958   1.494  11.122  11.273 -0.1508  1.8725  3.4005
  106MOL0     H13959   1.480  11.203  11.110  0.8451  1.2266 -0.8240
  106MOL0     H13960   1.382  11.399  11.218  4.2555 -0.7370 -0.9358
  106MOL0     H13961   1.369  11.316  11.373  0.7574  2.0957 -1.0276
  106MOL0     H13962   1.158  11.269  11.283  0.5014 -1.5935  1.2836
  106MOL0     H13963   1.232  11.125  11.215  1.0050 -0.2130  1.0910
  106MOL0     H13964   1.175  11.404  11.098 -2.4547 -0.6997  1.5060
  106MOL0     H13965   1.297  11.281  11.024  1.8308 -2.9228  3.0432
  106MOL0     H13966   1.131  11.117  10.995 -0.0154  0.2708  1.1963
  106MOL0     H13967   1.096  11.265  10.906  1.5369  0.2239  0.3299
  106MOL0     H13968   0.891  11.323  11.034  0.7276  0.1687  0.4568
  106MOL0     H13969   0.954  11.244  11.176  1.9934 -0.6538  0.0249
  106MOL0     H13970   0.908  11.061  10.942 -1.4554 -2.0939  0.9945
  106MOL0     H13971   0.902  11.028  11.113 -0.1864 -1.7587 -0.9251
  106MOL0     H13972   0.700  11.166  11.136  3.4012  2.9942 -0.6785
  106MOL0     H13973   0.680  11.021  11.040  0.2190  0.0351 -2.4939
  106MOL0     H13974   1.839  11.324  11.341 -1.3407  1.8578 -0.8909
  106MOL0     H13975   2.033  11.183  11.330  0.3430  0.5644  0.0263
  106MOL0     H13976   2.273  10.817  11.114 -0.2942 -0.1769 -0.4357
  106MOL0     H13977   2.436  10.650  11.106 -0.4507  0.4156 -1.4600
  106MOL0     H13978   1.444   9.525  10.650  0.2427 -0.6351 -0.1767
  106MOL0     H13979   1.223   9.470  10.581  1.0037 -1.0410 -0.0824
  106MOL0     H13980   0.947   9.313  10.038  0.2947 -3.0206  2.1585
  106MOL0     H13981   0.698   9.290  10.005  2.1462  0.7410 -1.3467
  106MOL0     H13982   0.436   9.484  10.279 -0.0337  1.8442 -2.9950
  106MOL0     H13983   0.366   9.331  10.321  1.9711 -1.5528  0.6957
  106MOL0     H13984   0.339   9.479  10.049 -0.7457  0.3903 -1.2848
  106MOL0     H13985   0.276   9.315  10.081  0.1118 -0.6386  1.1382
  106MOL0     H13986   0.179   9.579  10.205 -2.7723 -0.5822  2.5668
  106MOL0     H13987   0.109   9.428  10.253 -0.2253  1.2918  0.6808
  106MOL0     H13988  -0.035   9.514  10.076  2.5813  1.6679  1.9032
  106MOL0     H13989   0.090   9.521   9.955  1.9323 -2.2047  0.0953
  106MOL0     H13990  -0.010   9.107   9.986 -1.0847  0.5557 -0.6015
  106MOL0     H13991   0.624   9.465  10.378 -1.0309 -0.6716 -1.3417
  106MOL0     H13992   0.879   9.498  10.410 -1.5483 -2.6528  1.3939
  107MOL0     O13993   7.352   4.663   2.965 -0.1379 -0.6473 -0.0414
  107MOL0     C13994   7.463   4.631   2.925 -0.2571 -1.1778  0.1120
  107MOL0     O13995   7.518   4.506   2.923 -0.0289  0.6644  0.3645
  107MOL0     C13996   7.425   4.405   2.917 -0.6767 -0.4529  0.4119
  107MOL0     C13997   7.334   4.394   2.810 -0.8160  0.3175 -1.0559
  107MOL0     C13998   7.239   4.284   2.807  0.0012  0.0704 -0.1452
  107MOL0     C13999   7.244   4.185   2.911 -0.2041  0.3383  1.0562
  107MOL0     O14000   7.157   4.081   2.891 -0.6241  0.0948 -0.3512
  107MOL0     C14001   7.191   3.962   2.971 -0.0946  0.1160 -0.0837
  107MOL0     C14002   7.067   3.876   2.948  0.6324 -0.2481  0.4083
  107MOL0     C14003   6.936   3.945   3.001 -0.1781 -0.4717 -0.1277
  107MOL0     C14004   6.815   3.853   2.970  0.3079  0.0574 -0.3911
  107MOL0     C14005   6.677   3.921   2.978 -0.0274  0.0001  0.4967
  107MOL0     C14006   6.566   3.813   2.969  0.0314  0.7411 -0.0199
  107MOL0     C14007   6.428   3.867   2.949 -0.0271 -0.0714  0.5138
  107MOL0     C14008   6.318   3.764   2.915 -0.3334  0.1107 -0.1849
  107MOL0     N14009   6.296   3.664   3.030  0.2384  0.3848  0.9833
  107MOL0     C14010   6.191   3.659   3.118  0.9836 -0.4311 -0.1957
  107MOL0     C14011   6.214   3.555   3.193  0.2572 -0.1927  0.1018
  107MOL0     C14012   6.120   3.512   3.299  0.2065  0.8233 -0.5653
  107MOL0     C14013   6.148   3.372   3.361  0.2526  0.1320  0.0720
  107MOL0     C14014   6.072   3.355   3.495  0.7746 -0.3832  0.1255
  107MOL0     C14015   6.017   3.218   3.527  0.3342  0.9626 -0.2882
  107MOL0     O14016   5.925   3.171   3.424  0.3793 -0.6727 -0.3571
  107MOL0     C14017   5.798   3.172   3.471  0.3373  0.9865 -0.2822
  107MOL0     C14018   5.717   3.278   3.436  0.1012  0.8952 -0.1460
  107MOL0     C14019   5.583   3.276   3.465  0.3120 -0.4084  0.4348
  107MOL0     C14020   5.526   3.165   3.538 -0.1322 -0.1245 -0.4243
  107MOL0     C14021   5.381   3.164   3.580  0.3161 -0.1753  0.2404
  107MOL0     O14022   5.347   3.044   3.630  0.1051 -0.1673 -0.7066
  107MOL0     C14023   5.219   3.017   3.663  0.9518  0.5983  0.5484
  107MOL0     C14024   5.194   2.949   3.790 -0.2869 -0.0223  0.5033
  107MOL0     C14025   5.062   2.920   3.835 -0.4360 -0.3483  0.0290
  107MOL0     C14026   4.954   2.932   3.737 -0.3598 -0.3750 -0.0525
  107MOL0     O14027   4.823   2.909   3.763 -0.4236 -0.2365 -0.4558
  107MOL0     C14028   4.798   2.868   3.902  0.4233 -0.3880  0.2167
  107MOL0     C14029   4.640   2.854   3.940 -0.4997  0.2730  1.3932
  107MOL0     C14030   4.567   2.989   3.926 -0.2427 -0.7394  0.0550
  107MOL0     C14031   4.410   2.975   3.957 -1.0281 -0.6192  0.6651
  107MOL0     C14032   4.331   2.902   3.850 -0.5124 -0.3658  0.6192
  107MOL0     C14033   4.211   2.835   3.911  0.4822  0.3635 -0.2225
  107MOL0     C14034   4.119   2.925   3.986 -0.4338  0.0130 -0.2178
  107MOL0     C14035   3.987   2.861   4.004  0.0738  0.9436  0.0233
  107MOL0    Cl14036   4.004   2.700   4.078  0.1621  0.6438  0.2481
  107MOL0     C14037   4.987   2.998   3.616  0.3635 -0.1357  0.4948
  107MOL0     C14038   5.115   3.037   3.576  0.6904 -0.4641  0.3788
  107MOL0     O14039   5.301   3.258   3.569  0.1217 -0.2299 -0.1064
  107MOL0     C14040   5.605   3.059   3.570 -0.1272 -0.1448 -0.0023
  107MOL0     C14041   5.741   3.059   3.536 -0.0545  0.1874  0.2185
  107MOL0     N14042   6.326   3.489   3.154 -0.0706  0.0479 -0.1356
  107MOL0     N14043   6.379   3.563   3.060  0.2338  0.6836  0.0036
  107MOL0     C14044   7.339   4.207   3.015 -0.0057  0.3737 -0.3061
  107MOL0     C14045   7.429   4.302   3.016  0.8514 -0.9803  0.1558
  107MOL0     C14046   7.539   4.739   2.850 -0.3770  1.5026 -0.5277
  107MOL0     C14047   7.665   4.703   2.787 -0.0740 -0.7066 -0.7610
  107MOL0     C14048   7.738   4.803   2.725  0.3462  0.4984 -0.0035
  107MOL0     C14049   7.691   4.937   2.716 -0.6204 -0.0698  0.0982
  107MOL0     O14050   7.758   5.016   2.633  0.2150 -0.0980 -0.1234
  107MOL0     C14051   7.725   5.157   2.628  0.8160  0.3738 -0.0957
  107MOL0     C14052   7.819   5.240   2.543  0.4481 -0.0967 -0.0971
  107MOL0     C14053   7.954   5.246   2.619 -0.0497  0.0735 -0.1678
  107MOL0     C14054   8.057   5.298   2.530  0.4844 -0.2497 -0.9107
  107MOL0     C14055   8.190   5.327   2.593 -0.3507 -0.5942  0.1794
  107MOL0     C14056   8.306   5.351   2.643 -0.0382 -0.1404 -0.8248
  107MOL0     C14057   7.575   4.973   2.792  0.1677 -0.5256 -0.3610
  107MOL0     C14058   7.497   4.874   2.853 -0.9624 -0.1708  0.9585
  107MOL0     H14059   7.333   4.472   2.735 -1.8438  1.1780 -0.1873
  107MOL0     H14060   7.155   4.280   2.738 -0.8524  0.4853  0.8418
  107MOL0     H14061   7.195   3.988   3.077  0.1602 -0.0436 -0.0525
  107MOL0     H14062   7.282   3.909   2.939 -1.1345  0.2065 -3.5842
  107MOL0     H14063   7.078   3.781   3.001 -4.0304 -1.5615 -0.5244
  107MOL0     H14064   7.061   3.852   2.841  0.4766 -2.2617  0.8260
  107MOL0     H14065   6.921   4.038   2.946 -1.8028 -0.5596  0.1008
  107MOL0     H14066   6.944   3.977   3.105  1.0586  0.6323 -0.5387
  107MOL0     H14067   6.832   3.804   2.874 -0.1606  0.8526 -0.8834
  107MOL0     H14068   6.809   3.778   3.050 -0.2760  0.4889 -0.0240
  107MOL0     H14069   6.661   3.994   2.898 -2.1468 -0.0558  0.8111
  107MOL0     H14070   6.678   3.976   3.072  0.6210 -1.8418  1.6130
  107MOL0     H14071   6.567   3.750   3.059 -1.9665 -0.0319 -0.4839
  107MOL0     H14072   6.601   3.746   2.890  2.6878  1.0546  0.7887
  107MOL0     H14073   6.388   3.923   3.034  0.2980  0.0389  0.5953
  107MOL0     H14074   6.433   3.931   2.860 -4.6214 -0.4342 -0.2593
  107MOL0     H14075   6.355   3.705   2.830  1.1226  0.4702  0.1753
  107MOL0     H14076   6.221   3.813   2.901 -0.9015 -1.3839 -1.9393
  107MOL0     H14077   6.110   3.730   3.135  0.8927 -0.2701 -1.2479
  107MOL0     H14078   6.014   3.517   3.270 -0.0530  1.6906  0.4960
  107MOL0     H14079   6.143   3.587   3.375  2.5511 -0.2154 -0.1886
  107MOL0     H14080   6.256   3.363   3.377  0.5046  1.0631 -0.9460
  107MOL0     H14081   6.110   3.295   3.293 -0.1353 -0.3511  0.8300
  107MOL0     H14082   6.135   3.383   3.579 -0.5243 -2.5408  1.9242
  107MOL0     H14083   5.991   3.429   3.501  1.8621  0.8590 -0.2304
  107MOL0     H14084   5.960   3.217   3.621 -1.1997  2.3250 -1.1519
  107MOL0     H14085   6.095   3.142   3.528  1.3089  1.9362  0.7227
  107MOL0     H14086   5.773   3.342   3.368  2.4414 -1.1343 -0.2859
  107MOL0     H14087   5.524   3.356   3.421  2.2275  2.2320  2.4056
  107MOL0     H14088   5.273   2.917   3.857  0.0184  0.3145  0.3010
  107MOL0     H14089   5.061   2.872   3.932  2.1526  1.1910  0.8862
  107MOL0     H14090   4.846   2.928   3.980 -1.2689  0.4333  0.6774
  107MOL0     H14091   4.841   2.767   3.901 -1.3345 -1.1742 -1.7739
  107MOL0     H14092   4.641   2.824   4.045  0.4424 -0.5640  1.1614
  107MOL0     H14093   4.586   2.780   3.881  1.3257 -0.1846  0.2033
  107MOL0     H14094   4.571   3.039   3.829 -2.7433  0.2604  0.3797
  107MOL0     H14095   4.607   3.057   4.002  1.3714 -0.0516 -1.3428
  107MOL0     H14096   4.390   2.928   4.054 -0.7451 -0.3432  0.8607
  107MOL0     H14097   4.368   3.076   3.963  0.4488  0.0742 -0.0648
  107MOL0     H14098   4.398   2.835   3.795 -0.5647  1.1148 -1.3382
  107MOL0     H14099   4.301   2.974   3.773  0.1775 -2.5330 -1.8187
  107MOL0     H14100   4.255   2.762   3.980 -0.0807 -1.2748 -1.5263
  107MOL0     H14101   4.154   2.769   3.844 -0.1459 -1.1905  1.7463
  107MOL0     H14102   4.160   2.954   4.083 -1.0971  3.2366 -0.7982
  107MOL0     H14103   4.100   3.016   3.930  1.3442 -0.0917 -1.0472
  107MOL0     H14104   3.918   2.853   3.920 -2.6585  3.5833  1.8466
  107MOL0     H14105   3.939   2.930   4.073  3.1830  1.5907  1.7140
  107MOL0     H14106   4.908   3.019   3.544 -0.4595  0.8539  1.6308
  107MOL0     H14107   5.123   3.089   3.482 -1.0167  0.7712  0.8561
  107MOL0     H14108   5.573   2.977   3.635  1.6540 -0.3967  0.5984
  107MOL0     H14109   5.794   2.966   3.558  0.2354  0.2966 -0.0075
  107MOL0     H14110   7.344   4.130   3.092 -5.8521 -2.2262 -1.9848
  107MOL0     H14111   7.510   4.309   3.088  0.2587 -2.3025  0.9844
  107MOL0     H14112   7.703   4.601   2.788  1.3175 -0.2512 -2.3162
  107MOL0     H14113   7.825   4.767   2.672  0.7892 -0.3583  1.2484
  107MOL0     H14114   7.730   5.205   2.726  3.0914  1.4864 -0.6895
  107MOL0     H14115   7.624   5.161   2.588  0.1640 -0.5404  1.3715
  107MOL0     H14116   7.826   5.201   2.441  0.0697  2.0966 -1.0158
  107MOL0     H14117   7.772   5.338   2.532 -0.1275 -0.3698 -0.0672
  107MOL0     H14118   7.977   5.142   2.641 -2.7219 -0.3452  1.0522
  107MOL0     H14119   7.951   5.297   2.716 -0.1797  0.3478 -0.3114
  107MOL0     H14120   8.069   5.232   2.444 -2.1490  0.2917 -1.7856
  107MOL0     H14121   8.023   5.392   2.486 -0.8901  0.1323  0.8310
  107MOL0     H14122   8.407   5.375   2.668 -1.1284  3.2048  0.9990
  107MOL0     H14123   7.551   5.079   2.801  0.6140 -0.5070  0.6791
  107MOL0     H14124   7.408   4.903   2.907 -0.9259 -0.8231  1.3825
  108MOL0     O14125   9.287   0.056   5.484 -0.8148 -0.3302  0.3577
  108MOL0     C14126   9.290  -0.053   5.420 -0.4518  0.4819 -0.7943
  108MOL0     O14127   9.183  -0.115   5.366  0.4808  0.0385 -0.6592
  108MOL0     C14128   9.058  -0.062   5.372 -0.2230  0.0502 -0.1663
  108MOL0     C14129   8.946  -0.146   5.403  0.3744 -0.1383  0.8494
  108MOL0     C14130   8.817  -0.106   5.383 -0.4991  0.4694 -0.4660
  108MOL0     C14131   8.787   0.020   5.333  0.2070  0.6917  0.6627
  108MOL0     O14132   8.670   0.079   5.315 -0.0198  0.0507 -1.1010
  108MOL0     C14133   8.553   0.006   5.276 -0.7833  0.1557  0.0309
  108MOL0     C14134   8.435   0.084   5.341  0.6715  0.7515 -0.1701
  108MOL0     C14135   8.305   0.101   5.256  0.3825  0.1090  0.1627
  108MOL0     C14136   8.273  -0.021   5.179  0.5137 -0.1523  0.2655
  108MOL0     C14137   8.119  -0.024   5.163 -0.3339 -0.4006  0.4387
  108MOL0     C14138   8.056   0.099   5.099  0.5560  0.6797 -0.3408
  108MOL0     C14139   7.903   0.063   5.070  0.8545  0.3635 -0.0658
  108MOL0     C14140   7.855   0.157   4.958 -0.8648  0.1840 -0.6079
  108MOL0     N14141   7.891   0.295   4.990  0.2178  0.6154  0.3081
  108MOL0     C14142   7.832   0.349   5.107  0.0921 -0.0920  0.9305
  108MOL0     C14143   7.879   0.476   5.104 -0.4461 -0.0597 -0.0227
  108MOL0     C14144   7.858   0.581   5.212  0.6353 -0.5904 -0.1070
  108MOL0     C14145   7.740   0.662   5.162 -0.0482 -0.0160  0.9037
  108MOL0     C14146   7.600   0.604   5.140 -0.2748 -0.0843  0.0659
  108MOL0     C14147   7.493   0.716   5.173 -0.9279  0.1817  0.3942
  108MOL0     O14148   7.376   0.689   5.094  0.0565 -0.0867 -0.7599
  108MOL0     C14149   7.262   0.763   5.116  1.0983  0.4900  0.8470
  108MOL0     C14150   7.236   0.870   5.215  0.1801  0.1849  0.3945
  108MOL0     C14151   7.108   0.935   5.229  0.2595 -0.1871 -0.0919
  108MOL0     C14152   7.005   0.887   5.147  0.1423 -0.0142 -0.1592
  108MOL0     C14153   6.871   0.956   5.143 -0.1787 -0.1144  1.0801
  108MOL0     O14154   6.770   0.898   5.068 -0.1181 -0.1875 -0.0718
  108MOL0     C14155   6.659   0.975   5.060 -0.9328  0.1541  0.4280
  108MOL0     C14156   6.544   0.928   5.124 -0.8480 -0.0542 -0.5927
  108MOL0     C14157   6.424   0.991   5.118 -0.3814 -0.0811  0.1327
  108MOL0     C14158   6.416   1.104   5.033  0.0697  0.0372  0.8605
  108MOL0     O14159   6.298   1.157   4.998 -0.2362 -0.6753  0.3311
  108MOL0     C14160   6.204   1.097   4.916 -0.0132  0.2339 -0.1475
  108MOL0     C14161   6.070   1.172   4.916 -0.3158 -0.1493 -0.3762
  108MOL0     C14162   5.963   1.118   4.823  0.1706  1.1803  0.3837
  108MOL0     C14163   5.834   1.178   4.843  0.7169 -0.4823  0.5941
  108MOL0     C14164   5.722   1.127   4.743 -0.8741 -0.1295 -0.0333
  108MOL0     C14165   5.578   1.184   4.778 -0.6972  0.4726 -0.0346
  108MOL0     C14166   5.472   1.127   4.693 -0.0378 -0.0154 -0.3758
  108MOL0     C14167   5.394   1.226   4.628  0.0751 -0.7454  0.7300
  108MOL0    Cl14168   5.489   1.299   4.493 -0.2015  0.3698  0.1782
  108MOL0     C14169   6.535   1.166   4.984 -0.1149  0.1136  0.1151
  108MOL0     C14170   6.656   1.102   5.000 -0.3569  0.0451  0.2839
  108MOL0     O14171   6.868   1.061   5.203  0.4487 -0.7420  0.1130
  108MOL0     C14172   7.025   0.772   5.068 -0.2757 -0.0021 -0.5108
  108MOL0     C14173   7.148   0.716   5.047 -0.5102 -0.5010  0.2365
  108MOL0     N14174   7.951   0.492   4.981  0.2629 -0.4262 -0.0548
  108MOL0     N14175   7.954   0.384   4.917 -0.2201  0.2451 -0.5475
  108MOL0     C14176   8.899   0.100   5.292 -0.3912 -0.3560 -0.5222
  108MOL0     C14177   9.037   0.062   5.320  0.1426  0.2166  0.5026
  108MOL0     C14178   9.426  -0.129   5.425 -0.0261  0.1345  0.2618
  108MOL0     C14179   9.542  -0.052   5.444 -0.7739  0.2773  0.5402
  108MOL0     C14180   9.669  -0.119   5.454 -0.6065 -0.1979 -0.5240
  108MOL0     C14181   9.681  -0.257   5.444 -0.6243 -0.3978 -0.9829
  108MOL0     O14182   9.799  -0.331   5.450  0.0458 -0.2299 -0.3325
  108MOL0     C14183   9.919  -0.253   5.446 -0.4756 -0.1965  0.3430
  108MOL0     C14184  10.048  -0.345   5.455 -0.4711  0.6292  0.2871
  108MOL0     C14185  10.062  -0.412   5.593  0.1416  0.6467 -0.1481
  108MOL0     C14186  10.050  -0.330   5.718 -0.1440  0.8484  0.0486
  108MOL0     C14187  10.072  -0.416   5.835  0.4024 -0.0769  0.1262
  108MOL0     C14188  10.064  -0.483   5.943 -0.6701  0.7671 -0.2009
  108MOL0     C14189   9.572  -0.327   5.437 -0.8114  0.8795  0.1548
  108MOL0     C14190   9.445  -0.269   5.425 -0.9172  0.2965 -0.5137
  108MOL0     H14191   8.961  -0.250   5.433 -2.9720 -0.1887  2.8974
  108MOL0     H14192   8.728  -0.161   5.414  0.0773 -0.4546 -0.4080
  108MOL0     H14193   8.556  -0.098   5.310 -0.6569 -0.0644 -0.6422
  108MOL0     H14194   8.551   0.008   5.167  1.3749  2.4703 -0.0614
  108MOL0     H14195   8.465   0.187   5.357 -1.9907  1.4130  1.1802
  108MOL0     H14196   8.424   0.048   5.443  0.5490  1.2789  0.0014
  108MOL0     H14197   8.301   0.194   5.199  1.7850 -0.3816 -0.7779
  108MOL0     H14198   8.228   0.113   5.333 -1.2216 -0.9292 -1.2105
  108MOL0     H14199   8.314  -0.024   5.078  0.7318 -2.1086  0.3833
  108MOL0     H14200   8.302  -0.113   5.229 -2.0402 -0.8796  0.5238
  108MOL0     H14201   8.080  -0.039   5.264  0.4138  0.9997  0.9517
  108MOL0     H14202   8.093  -0.102   5.090  1.0308  0.9131 -1.5424
  108MOL0     H14203   8.115   0.122   5.009 -0.1034  0.6637 -0.7878
  108MOL0     H14204   8.062   0.181   5.172  1.6312  0.8063 -0.5505
  108MOL0     H14205   7.896  -0.036   5.025  1.7076  1.5445 -3.0305
  108MOL0     H14206   7.836   0.066   5.157 -0.3841 -1.3858 -0.9056
  108MOL0     H14207   7.747   0.148   4.943 -1.1844 -1.0978  1.9290
  108MOL0     H14208   7.912   0.132   4.869  0.7962  2.1349 -0.1841
  108MOL0     H14209   7.768   0.301   5.180  2.0333  0.9155  3.4752
  108MOL0     H14210   7.950   0.641   5.214  0.4275 -0.1258 -2.2203
  108MOL0     H14211   7.831   0.542   5.310 -1.5341 -0.6736 -0.6858
  108MOL0     H14212   7.770   0.702   5.065 -0.3929  1.9417  1.5614
  108MOL0     H14213   7.726   0.750   5.225  1.4994 -0.8486  2.5007
  108MOL0     H14214   7.593   0.590   5.031 -0.1563 -1.0693  0.1722
  108MOL0     H14215   7.577   0.510   5.191  3.1227 -0.5036  1.0439
  108MOL0     H14216   7.533   0.817   5.163  0.1502 -0.3877 -1.3970
  108MOL0     H14217   7.466   0.701   5.278  1.6894 -1.6172  0.8899
  108MOL0     H14218   7.322   0.914   5.263  1.5435  0.0119 -1.7483
  108MOL0     H14219   7.097   1.029   5.283  0.2115  0.0398 -0.4878
  108MOL0     H14220   6.548   0.838   5.184  3.0579  0.0081 -0.4892
  108MOL0     H14221   6.333   0.956   5.166  0.0573 -2.6426 -0.7552
  108MOL0     H14222   6.187   0.994   4.950  3.0790 -0.1490  0.5121
  108MOL0     H14223   6.236   1.083   4.812 -2.1383 -1.5021 -0.6426
  108MOL0     H14224   6.092   1.278   4.901  3.7928 -0.3494  2.4741
  108MOL0     H14225   6.033   1.161   5.018 -1.5644 -1.0651 -0.8983
  108MOL0     H14226   5.963   1.011   4.846 -1.7344  1.1312  0.2573
  108MOL0     H14227   5.991   1.127   4.718 -3.6787 -0.0305 -0.9048
  108MOL0     H14228   5.788   1.164   4.941 -1.6628 -3.7725 -0.8196
  108MOL0     H14229   5.850   1.284   4.820 -0.3495 -0.0491  1.7104
  108MOL0     H14230   5.719   1.019   4.761 -0.8809  0.2041  2.3515
  108MOL0     H14231   5.756   1.139   4.640 -1.6912 -2.6877 -0.6672
  108MOL0     H14232   5.587   1.292   4.762 -2.5886  0.9460  1.7387
  108MOL0     H14233   5.561   1.174   4.885 -0.3366 -0.3764 -0.0546
  108MOL0     H14234   5.502   1.057   4.615 -1.4655 -0.6692 -0.3752
  108MOL0     H14235   5.422   1.055   4.759  0.0684 -0.0134 -0.2923
  108MOL0     H14236   5.379   1.306   4.701  0.2646 -0.3740  0.3674
  108MOL0     H14237   5.298   1.195   4.587 -0.0839  0.8796 -0.2153
  108MOL0     H14238   6.537   1.264   4.939 -2.0420  0.2824  0.3140
  108MOL0     H14239   6.743   1.156   4.963 -0.0533 -1.2066 -0.8974
  108MOL0     H14240   6.948   0.732   5.003  1.1610  0.6946 -2.7329
  108MOL0     H14241   7.161   0.635   4.976 -3.7943 -0.4975 -0.5602
  108MOL0     H14242   8.881   0.192   5.239  1.1357  1.0611  1.2673
  108MOL0     H14243   9.123   0.127   5.301  1.9860 -2.3677 -0.6816
  108MOL0     H14244   9.537   0.056   5.455  2.0359  0.5745 -0.3448
  108MOL0     H14245   9.762  -0.065   5.463  0.3646 -2.1297  2.3910
  108MOL0     H14246   9.931  -0.178   5.525 -2.2327  0.8764 -0.3608
  108MOL0     H14247   9.917  -0.197   5.352  1.1251 -1.9684 -0.8336
  108MOL0     H14248  10.021  -0.421   5.380 -1.3993  2.4388 -1.2920
  108MOL0     H14249  10.141  -0.292   5.432 -0.2048  0.5159  1.0610
  108MOL0     H14250  10.165  -0.447   5.596  0.1109  0.5637 -0.0469
  108MOL0     H14251   9.989  -0.494   5.598  0.1339  0.4934 -2.1240
  108MOL0     H14252  10.118  -0.245   5.716  0.5180  0.3747  1.1150
  108MOL0     H14253   9.947  -0.298   5.736 -0.2360 -0.5207  2.4788
  108MOL0     H14254  10.061  -0.532   6.039  1.8941 -0.6191 -0.7489
  108MOL0     H14255   9.585  -0.434   5.434  0.4067  0.9243  2.2265
  108MOL0     H14256   9.362  -0.339   5.426 -0.5098 -0.2988  2.5016
  109MOL0     O14257   0.196   5.842   5.544  0.3389  0.7459  0.3594
  109MOL0     C14258   0.223   5.956   5.571 -0.1333  0.1091 -0.0137
  109MOL0     O14259   0.129   6.056   5.594  0.3502  0.5369 -0.2301
  109MOL0     C14260  -0.003   6.039   5.599  0.0870 -0.2712 -0.8818
  109MOL0     C14261  -0.071   5.916   5.605  0.0387 -0.3236 -0.0286
  109MOL0     C14262  -0.207   5.910   5.648 -0.8189 -0.1399  0.4063
  109MOL0     C14263  -0.282   6.025   5.659  1.1077 -0.5706 -0.0323
  109MOL0     O14264  -0.421   6.011   5.684 -0.0689 -0.1604 -0.7587
  109MOL0     C14265  -0.502   6.126   5.703  1.2378 -0.9184 -0.5076
  109MOL0     C14266  -0.648   6.082   5.719 -0.3215  0.3037 -0.5162
  109MOL0     C14267  -0.739   6.206   5.728  0.1071  0.5445  0.6100
  109MOL0     C14268  -0.878   6.178   5.775  0.1940 -0.1893  0.4254
  109MOL0     C14269  -0.976   6.295   5.753  0.6749  0.0026 -0.1775
  109MOL0     C14270  -0.913   6.440   5.763  0.9518 -0.5069 -0.3930
  109MOL0     C14271  -0.884   6.458   5.912  0.0398  1.1453 -0.9377
  109MOL0     C14272  -0.793   6.577   5.917 -0.3420 -0.0044  0.6156
  109MOL0     N14273  -0.658   6.551   5.866 -0.9801 -0.0397  0.1179
  109MOL0     C14274  -0.559   6.482   5.930 -0.8522  0.8493 -0.3058
  109MOL0     C14275  -0.453   6.481   5.845 -0.3078 -0.2795 -0.5294
  109MOL0     C14276  -0.307   6.436   5.860 -0.1539 -0.1602 -0.2630
  109MOL0     C14277  -0.245   6.527   5.972  0.0731  0.6669 -0.5187
  109MOL0     C14278  -0.254   6.679   5.932  0.5968  0.8153  0.1619
  109MOL0     C14279  -0.253   6.769   6.055 -0.6695 -0.1364  0.3138
  109MOL0     O14280  -0.374   6.760   6.122  1.1448  0.6092 -0.0130
  109MOL0     C14281  -0.484   6.827   6.074 -0.3011 -0.6901 -0.4974
  109MOL0     C14282  -0.488   6.909   5.963  0.8502 -0.0322  0.3003
  109MOL0     C14283  -0.604   6.978   5.930 -0.3641  0.3150 -0.5784
  109MOL0     C14284  -0.714   6.973   6.012 -0.4239 -0.2001 -0.6252
  109MOL0     C14285  -0.835   7.050   5.988 -1.0147  0.7450  0.9386
  109MOL0     O14286  -0.937   7.022   6.079 -0.8267  0.5140  1.2935
  109MOL0     C14287  -1.017   7.128   6.090  0.8757 -0.2272  0.5119
  109MOL0     C14288  -1.000   7.207   6.200 -0.2375  0.1637  0.9177
  109MOL0     C14289  -1.091   7.309   6.221 -0.0205 -0.0099  0.4648
  109MOL0     C14290  -1.194   7.351   6.122  0.4162  0.5315 -0.5402
  109MOL0     O14291  -1.294   7.444   6.139  0.2138  0.5186 -0.0132
  109MOL0     C14292  -1.302   7.510   6.267  0.3742  0.4347 -0.5547
  109MOL0     C14293  -1.419   7.601   6.265 -0.4207  0.0033 -0.8373
  109MOL0     C14294  -1.559   7.535   6.287  0.1283  0.0559  0.4054
  109MOL0     C14295  -1.576   7.496   6.437 -0.0878  0.1119 -0.0359
  109MOL0     C14296  -1.706   7.439   6.467  0.2386  0.1457 -0.5310
  109MOL0     C14297  -1.721   7.400   6.617 -0.0752 -0.2209 -0.1787
  109MOL0     C14298  -1.872   7.363   6.639 -0.5076 -0.0812  0.1173
  109MOL0     C14299  -1.883   7.303   6.778  0.3310  0.7212  0.0044
  109MOL0    Cl14300  -1.794   7.138   6.806 -0.0944 -0.2728  0.3650
  109MOL0     C14301  -1.198   7.271   6.005 -0.1050  0.3640 -0.2655
  109MOL0     C14302  -1.114   7.161   5.996  0.1916 -0.0889 -0.7255
  109MOL0     O14303  -0.830   7.150   5.906 -0.5661 -0.8650  0.2308
  109MOL0     C14304  -0.707   6.899   6.122  0.9800  0.2556  0.2165
  109MOL0     C14305  -0.598   6.825   6.159  0.7047 -0.4435 -0.1991
  109MOL0     N14306  -0.501   6.524   5.720 -0.1772 -0.0196 -0.2304
  109MOL0     N14307  -0.618   6.575   5.734 -0.4640 -0.2287 -0.3240
  109MOL0     C14308  -0.216   6.149   5.650  0.0339 -0.0962  0.3410
  109MOL0     C14309  -0.078   6.157   5.629  0.8033 -0.6884  0.6009
  109MOL0     C14310   0.373   5.981   5.584 -1.1445 -0.3534  0.4770
  109MOL0     C14311   0.431   6.113   5.594  0.6092  0.5837  0.1045
  109MOL0     C14312   0.564   6.129   5.618 -0.3444 -0.0493  0.6098
  109MOL0     C14313   0.650   6.029   5.648  0.0606 -0.0147  0.1006
  109MOL0     O14314   0.762   6.075   5.710 -0.4784  0.1303 -0.6077
  109MOL0     C14315   0.852   5.983   5.764  0.0719 -0.1424  0.1068
  109MOL0     C14316   0.962   6.046   5.850 -0.0120 -0.7230 -0.3989
  109MOL0     C14317   1.068   6.115   5.772 -0.3666 -0.5163  0.6855
  109MOL0     C14318   1.133   6.220   5.863  1.3112  0.1233  0.3003
  109MOL0     C14319   1.247   6.269   5.802 -0.2914 -0.3858 -0.2272
  109MOL0     C14320   1.342   6.319   5.750  0.2885 -0.0878  0.1008
  109MOL0     C14321   0.602   5.899   5.632 -0.3068  0.2128 -0.6243
  109MOL0     C14322   0.471   5.875   5.601  0.0630  0.0321 -0.4678
  109MOL0     H14323  -0.026   5.818   5.607  1.0623 -0.0563  5.3300
  109MOL0     H14324  -0.251   5.812   5.663 -0.9492 -0.1154  0.1715
  109MOL0     H14325  -0.504   6.203   5.626 -4.2628  1.6549  1.6050
  109MOL0     H14326  -0.476   6.174   5.798 -0.8369 -0.9533  0.1349
  109MOL0     H14327  -0.654   6.028   5.814  0.2044 -0.8738 -1.1368
  109MOL0     H14328  -0.675   6.012   5.640 -0.7954 -1.3857  1.0850
  109MOL0     H14329  -0.741   6.244   5.625  2.0934  0.6351  0.5648
  109MOL0     H14330  -0.690   6.285   5.786 -1.1328  1.9563 -0.1745
  109MOL0     H14331  -0.924   6.088   5.733 -1.6560 -0.4633  2.8494
  109MOL0     H14332  -0.866   6.165   5.883 -1.8463  2.9475  1.1922
  109MOL0     H14333  -1.052   6.283   5.831  0.1266 -2.2395 -0.9611
  109MOL0     H14334  -1.017   6.285   5.652  0.1844 -1.1447  0.1125
  109MOL0     H14335  -0.983   6.515   5.725 -0.6896 -1.5412  0.4734
  109MOL0     H14336  -0.823   6.438   5.701  0.5726 -1.2486 -0.9300
  109MOL0     H14337  -0.981   6.462   5.963 -1.8302 -0.7985 -4.0273
  109MOL0     H14338  -0.823   6.377   5.952  1.0815  1.4084 -1.9386
  109MOL0     H14339  -0.781   6.611   6.020 -2.8804  0.0898  0.9499
  109MOL0     H14340  -0.833   6.660   5.858 -1.8790 -0.6848  0.6646
  109MOL0     H14341  -0.562   6.445   6.032  1.9685  4.2906  1.2745
  109MOL0     H14342  -0.245   6.451   5.771 -0.0143 -4.0119 -1.0200
  109MOL0     H14343  -0.302   6.327   5.873  0.3428 -0.3845 -2.0254
  109MOL0     H14344  -0.138   6.501   5.980  0.3525  1.6630 -0.8966
  109MOL0     H14345  -0.295   6.517   6.068 -0.7565  0.3898 -0.9719
  109MOL0     H14346  -0.166   6.719   5.880 -0.0636  3.2021  0.7829
  109MOL0     H14347  -0.339   6.696   5.866  1.9828  2.0150 -1.4115
  109MOL0     H14348  -0.225   6.870   6.024  1.8198 -0.8002  0.1575
  109MOL0     H14349  -0.170   6.739   6.119 -0.5498 -0.7350 -0.1112
  109MOL0     H14350  -0.409   6.907   5.888 -0.0256 -1.2326 -0.6295
  109MOL0     H14351  -0.610   7.040   5.841 -0.2316  1.2603  0.0556
  109MOL0     H14352  -0.910   7.198   6.261  0.5156 -0.9108 -0.2878
  109MOL0     H14353  -1.082   7.362   6.315 -2.9175 -2.2300  2.1635
  109MOL0     H14354  -1.218   7.576   6.292  0.2560 -0.0417  1.2044
  109MOL0     H14355  -1.305   7.431   6.342  2.0630 -1.3831 -2.2682
  109MOL0     H14356  -1.420   7.658   6.171 -1.2462  0.7323 -0.3964
  109MOL0     H14357  -1.407   7.669   6.349  0.7413 -0.0206 -0.9702
  109MOL0     H14358  -1.572   7.443   6.230 -0.1572 -0.2969  1.0407
  109MOL0     H14359  -1.635   7.609   6.261 -1.5997 -1.2074  1.6864
  109MOL0     H14360  -1.494   7.427   6.460  1.1949  1.3386 -0.7959
  109MOL0     H14361  -1.565   7.589   6.494 -0.7870  0.3801 -0.3299
  109MOL0     H14362  -1.714   7.351   6.403 -1.5522 -0.0928 -0.0260
  109MOL0     H14363  -1.787   7.510   6.447 -2.5827 -1.9776  2.2645
  109MOL0     H14364  -1.695   7.484   6.681 -2.0382 -0.2278  0.6786
  109MOL0     H14365  -1.651   7.318   6.633  1.2258  0.6685 -1.1146
  109MOL0     H14366  -1.933   7.454   6.639  2.2858  1.9652 -0.0750
  109MOL0     H14367  -1.896   7.303   6.551  1.1700 -0.4816 -0.1107
  109MOL0     H14368  -1.989   7.291   6.802  0.1124 -2.1657 -1.8541
  109MOL0     H14369  -1.859   7.373   6.858 -0.5233 -0.5000  1.4010
  109MOL0     H14370  -1.276   7.282   5.930  0.6937  1.1873 -0.9980
  109MOL0     H14371  -1.121   7.098   5.908  0.7657  1.3407 -1.8356
  109MOL0     H14372  -0.795   6.891   6.185  0.2224 -1.7855 -1.0062
  109MOL0     H14373  -0.575   6.774   6.252  3.5917  0.3881 -0.3687
  109MOL0     H14374  -0.261   6.247   5.664  1.1138  0.8763 -2.3064
  109MOL0     H14375  -0.037   6.257   5.628 -1.2757  0.2025 -0.1775
  109MOL0     H14376   0.357   6.189   5.569 -3.4293 -3.3717 -1.4736
  109MOL0     H14377   0.587   6.236   5.622  0.7619 -0.2611  0.3748
  109MOL0     H14378   0.892   5.935   5.674  0.9718  2.1297 -0.8060
  109MOL0     H14379   0.809   5.903   5.824  1.8185  0.3500  2.1514
  109MOL0     H14380   0.906   6.114   5.915 -0.1891  0.2802 -1.5587
  109MOL0     H14381   1.002   5.969   5.917  0.3963  2.0494  2.7900
  109MOL0     H14382   1.025   6.152   5.679 -0.3264 -0.3051  0.7489
  109MOL0     H14383   1.144   6.039   5.751  0.6710  1.0277 -1.4841
  109MOL0     H14384   1.072   6.311   5.869  0.2776 -0.5091 -0.4225
  109MOL0     H14385   1.145   6.166   5.957  2.6305 -1.5026 -0.7566
  109MOL0     H14386   1.429   6.358   5.702  2.2186 -1.6552  2.1006
  109MOL0     H14387   0.661   5.815   5.667  2.1410  1.9300 -0.3134
  109MOL0     H14388   0.427   5.776   5.610 -2.3971  1.0180 -1.0034
  110MOL0     O14389   7.523   6.495   5.432  0.5405  0.3427 -1.2820
  110MOL0     C14390   7.534   6.470   5.553  0.7332 -0.9114  0.0656
  110MOL0     O14391   7.430   6.444   5.628 -0.2254 -0.2637 -0.0869
  110MOL0     C14392   7.299   6.482   5.599 -0.0890 -0.6025 -0.1309
  110MOL0     C14393   7.272   6.595   5.524  0.5416 -0.0928  0.5602
  110MOL0     C14394   7.142   6.633   5.496 -0.4158  0.8615 -0.6856
  110MOL0     C14395   7.034   6.555   5.548 -0.0817  1.3187 -0.6299
  110MOL0     O14396   6.900   6.568   5.505 -0.1585 -0.1414 -0.0998
  110MOL0     C14397   6.863   6.689   5.432  0.8887  0.5523  0.7414
  110MOL0     C14398   6.706   6.696   5.416 -1.4995 -0.6320 -1.1189
  110MOL0     C14399   6.646   6.680   5.557 -0.5176 -0.3072  0.1666
  110MOL0     C14400   6.493   6.692   5.560  0.0841 -0.2422  0.2280
  110MOL0     C14401   6.430   6.620   5.679 -0.0948  0.2277 -0.8312
  110MOL0     C14402   6.283   6.671   5.691 -0.1547 -0.0253 -1.1991
  110MOL0     C14403   6.199   6.593   5.797 -0.9734 -0.0328  1.2668
  110MOL0     C14404   6.052   6.598   5.765 -0.2364  0.0823  0.4908
  110MOL0     N14405   5.965   6.558   5.870  0.2880  0.5552 -0.2405
  110MOL0     C14406   5.829   6.546   5.867  0.0322  0.2021 -0.0669
  110MOL0     C14407   5.796   6.531   6.002 -0.2735  0.7678 -0.5213
  110MOL0     C14408   5.656   6.536   6.058 -0.5925  0.8033  0.7296
  110MOL0     C14409   5.577   6.648   5.986 -0.0808 -0.3206 -0.6316
  110MOL0     C14410   5.440   6.652   6.050 -0.0862  0.4851 -0.9573
  110MOL0     C14411   5.360   6.766   6.004 -0.4607  0.2380  0.1579
  110MOL0     O14412   5.315   6.736   5.868  0.4319  0.0631 -0.0301
  110MOL0     C14413   5.214   6.642   5.833 -0.0596  0.8725  0.3065
  110MOL0     C14414   5.197   6.617   5.694 -0.1933 -0.5983  0.7048
  110MOL0     C14415   5.118   6.512   5.650 -0.4018  0.5052 -0.1948
  110MOL0     C14416   5.051   6.426   5.741  0.3735  0.0270  0.1626
  110MOL0     C14417   4.966   6.323   5.693  0.3165 -0.1899  0.2750
  110MOL0     O14418   4.915   6.241   5.787 -0.2660  0.2465 -0.8314
  110MOL0     C14419   4.828   6.140   5.763 -0.2354  0.8675 -0.7904
  110MOL0     C14420   4.851   6.038   5.670 -0.4652 -0.0520  1.4552
  110MOL0     C14421   4.754   5.942   5.657 -0.4923  0.9209 -0.4336
  110MOL0     C14422   4.643   5.926   5.748  0.1295 -0.1478  0.0566
  110MOL0     O14423   4.571   5.812   5.733  0.3427  0.0363  0.0270
  110MOL0     C14424   4.428   5.833   5.744 -0.3206  0.1624 -0.2685
  110MOL0     C14425   4.349   5.733   5.669  0.1222 -0.3989 -0.4791
  110MOL0     C14426   4.198   5.758   5.677 -0.2631  0.5828 -0.2023
  110MOL0     C14427   4.118   5.636   5.621 -0.7066 -0.2272  0.2155
  110MOL0     C14428   3.973   5.686   5.590 -0.6608  0.6212  0.4781
  110MOL0     C14429   3.901   5.743   5.709  0.6575 -0.4373 -0.4145
  110MOL0     C14430   3.752   5.751   5.688  0.2162  0.9007 -0.4804
  110MOL0     C14431   3.715   5.832   5.554 -0.2502  0.6502  0.0747
  110MOL0    Cl14432   3.785   5.993   5.568  0.1860  0.1679  0.5257
  110MOL0     C14433   4.622   6.018   5.845 -0.4823  0.4256  0.4251
  110MOL0     C14434   4.721   6.126   5.849  0.2514  0.4904  0.3587
  110MOL0     O14435   4.942   6.316   5.573 -0.1815  0.3022 -0.2355
  110MOL0     C14436   5.062   6.459   5.878 -0.2200 -0.4630  1.2836
  110MOL0     C14437   5.139   6.561   5.922 -0.3081 -0.3518 -0.2300
  110MOL0     N14438   5.906   6.529   6.081  0.0631  0.2967  0.5513
  110MOL0     N14439   6.005   6.540   6.001 -0.4005  0.5740 -0.0130
  110MOL0     C14440   7.061   6.434   5.621  0.2260 -0.6476 -0.4050
  110MOL0     C14441   7.194   6.405   5.653 -0.2077 -0.1356 -0.7829
  110MOL0     C14442   7.667   6.458   5.617  0.7759 -0.1281 -0.1212
  110MOL0     C14443   7.672   6.428   5.754 -0.6146  0.1202 -0.1258
  110MOL0     C14444   7.800   6.402   5.820 -0.0333  0.1862 -0.6080
  110MOL0     C14445   7.920   6.431   5.760 -0.0336  1.2214  0.7456
  110MOL0     O14446   8.043   6.404   5.819  0.4634 -0.2591 -0.2225
  110MOL0     C14447   8.052   6.366   5.957  0.8140  0.7280  0.5629
  110MOL0     C14448   8.017   6.478   6.050  0.6056 -0.8125 -0.5646
  110MOL0     C14449   8.045   6.441   6.199 -0.6501  0.0146 -0.3942
  110MOL0     C14450   7.935   6.515   6.280 -0.2144 -0.2969  0.4895
  110MOL0     C14451   7.924   6.469   6.421  0.3326  0.2195  1.1597
  110MOL0     C14452   7.891   6.446   6.531  0.7741  0.3614  0.2403
  110MOL0     C14453   7.917   6.461   5.624 -0.6805  0.1745 -0.6288
  110MOL0     C14454   7.793   6.470   5.551  0.5061  0.4366  0.1339
  110MOL0     H14455   7.348   6.666   5.495 -0.3531  0.6609 -0.0219
  110MOL0     H14456   7.119   6.716   5.430  3.2174  1.3048 -1.6102
  110MOL0     H14457   6.906   6.670   5.334  2.0470  0.6046  1.2257
  110MOL0     H14458   6.915   6.774   5.477  4.6452 -0.6277 -1.0209
  110MOL0     H14459   6.676   6.607   5.360 -2.9348  0.1060 -1.5851
  110MOL0     H14460   6.676   6.785   5.359  0.1087 -0.4620 -1.7594
  110MOL0     H14461   6.685   6.753   5.627 -1.7484 -0.5032  1.0882
  110MOL0     H14462   6.672   6.580   5.594  1.6956 -0.2312 -1.0018
  110MOL0     H14463   6.465   6.798   5.564  2.0245  0.5601 -3.2563
  110MOL0     H14464   6.449   6.652   5.469 -1.7600  1.7664  0.1626
  110MOL0     H14465   6.479   6.654   5.770 -0.2021 -1.1240 -0.2542
  110MOL0     H14466   6.451   6.513   5.673 -0.2172  0.2317 -1.4192
  110MOL0     H14467   6.229   6.638   5.602 -3.6607  1.6375  0.1287
  110MOL0     H14468   6.273   6.777   5.715  1.5097 -0.2390  0.7350
  110MOL0     H14469   6.219   6.485   5.792 -2.2874 -0.2755  0.9371
  110MOL0     H14470   6.237   6.629   5.893 -0.5360  0.7294  0.8129
  110MOL0     H14471   6.017   6.542   5.677 -0.3298  0.6958  0.1325
  110MOL0     H14472   6.030   6.701   5.736 -1.5705 -0.3505 -0.1538
  110MOL0     H14473   5.771   6.550   5.775  1.0604  1.7811 -0.6927
  110MOL0     H14474   5.664   6.565   6.163  1.1736  3.1437  0.0337
  110MOL0     H14475   5.614   6.436   6.047 -1.3236  1.3339 -2.4385
  110MOL0     H14476   5.570   6.632   5.878 -1.7126  1.7671 -0.8998
  110MOL0     H14477   5.632   6.740   6.007  1.1771 -1.3051  0.6120
  110MOL0     H14478   5.394   6.553   6.039 -1.0312  0.5564  1.5827
  110MOL0     H14479   5.464   6.664   6.157  1.5677 -0.8874 -1.1220
  110MOL0     H14480   5.416   6.859   6.015  1.4588 -0.7641 -0.6588
  110MOL0     H14481   5.274   6.770   6.071 -0.4097 -3.8726  0.7731
  110MOL0     H14482   5.260   6.663   5.618 -4.1513  1.7570 -1.5009
  110MOL0     H14483   5.120   6.492   5.543 -0.9403  2.7918 -0.6841
  110MOL0     H14484   4.933   6.026   5.600 -2.5721 -2.1205 -0.8662
  110MOL0     H14485   4.780   5.857   5.593  1.0645 -1.2136  2.7363
  110MOL0     H14486   4.400   5.934   5.712  2.5511  1.4400  0.8849
  110MOL0     H14487   4.407   5.825   5.851 -0.0971  2.3522 -0.0084
  110MOL0     H14488   4.369   5.633   5.710  0.7540  0.5071  1.5572
  110MOL0     H14489   4.381   5.737   5.565  0.7281 -1.1590 -0.3359
  110MOL0     H14490   4.174   5.849   5.621  1.9807  1.1433 -0.3278
  110MOL0     H14491   4.166   5.770   5.781  1.5718  1.4393  0.3108
  110MOL0     H14492   4.166   5.594   5.532  1.0163 -0.1700  1.0849
  110MOL0     H14493   4.109   5.558   5.698 -2.6665 -0.4041 -0.1391
  110MOL0     H14494   3.915   5.599   5.559  0.4008 -0.2668  0.8896
  110MOL0     H14495   3.984   5.753   5.504 -0.3447  0.4448  0.3775
  110MOL0     H14496   3.935   5.843   5.736  0.2710 -0.8718  1.9487
  110MOL0     H14497   3.925   5.692   5.804  0.6302 -0.2347 -0.2982
  110MOL0     H14498   3.696   5.658   5.700 -3.3715  2.9086 -0.3332
  110MOL0     H14499   3.703   5.813   5.764 -1.5385 -1.5275  0.4736
  110MOL0     H14500   3.606   5.846   5.556 -0.2178  0.8822  0.5480
  110MOL0     H14501   3.748   5.779   5.465  0.2407  1.0212  0.0291
  110MOL0     H14502   4.543   5.995   5.916 -1.1003 -2.8175 -1.1671
  110MOL0     H14503   4.715   6.202   5.926  3.1298  1.1917  0.0090
  110MOL0     H14504   5.001   6.398   5.944 -1.3523 -0.7463  0.0356
  110MOL0     H14505   5.131   6.572   6.030 -3.3445 -0.1559 -0.3882
  110MOL0     H14506   6.980   6.372   5.659  0.5172  0.3577  2.0673
  110MOL0     H14507   7.217   6.316   5.710  1.1609 -0.6291 -2.0596
  110MOL0     H14508   7.582   6.396   5.806  0.2915 -1.7793  0.3783
  110MOL0     H14509   7.783   6.374   5.924 -0.6060 -0.5636 -0.8955
  110MOL0     H14510   8.151   6.332   5.990  1.6653  0.6567 -1.8522
  110MOL0     H14511   7.984   6.281   5.970 -1.1950  1.2225 -4.5831
  110MOL0     H14512   8.083   6.563   6.029 -1.1913  1.9620  3.6618
  110MOL0     H14513   7.916   6.518   6.036  0.6254 -0.2541  0.7625
  110MOL0     H14514   8.146   6.477   6.221 -1.0287 -0.1883  1.9942
  110MOL0     H14515   8.050   6.332   6.201  0.7520  0.0631  1.1583
  110MOL0     H14516   7.956   6.621   6.263  3.7156 -0.2971  3.7816
  110MOL0     H14517   7.839   6.483   6.237  0.4284 -2.3055  0.4325
  110MOL0     H14518   7.862   6.418   6.630 -3.9264  0.6464 -0.8270
  110MOL0     H14519   8.009   6.486   5.573 -0.0857 -1.0722 -0.1926
  110MOL0     H14520   7.809   6.476   5.444 -0.1807  2.0776  0.0899
  111MOL0     O14521   5.503   8.126   4.735 -0.0829 -0.1895 -0.0067
  111MOL0     C14522   5.562   8.131   4.844  0.2629 -0.2060  0.8071
  111MOL0     O14523   5.496   8.120   4.959  0.4426 -0.1129  0.3467
  111MOL0     C14524   5.361   8.092   4.972  0.0732  0.1702 -0.4990
  111MOL0     C14525   5.281   8.146   5.076 -0.1341  0.0506  0.3572
  111MOL0     C14526   5.158   8.091   5.100  0.1059  1.2858 -0.3749
  111MOL0     C14527   5.097   8.001   5.013  0.3150  0.3951  0.0576
  111MOL0     O14528   4.965   7.958   5.022 -0.1310 -0.1499 -0.2309
  111MOL0     C14529   4.868   8.044   5.088  0.0447 -0.1586 -0.6564
  111MOL0     C14530   4.743   8.023   5.002 -0.4971 -0.0135  0.0199
  111MOL0     C14531   4.623   8.083   5.075  0.7606 -0.5257  0.1969
  111MOL0     C14532   4.501   8.050   4.998 -0.8859 -0.6182 -0.1659
  111MOL0     C14533   4.374   8.093   5.063 -0.5214 -1.0187  0.4149
  111MOL0     C14534   4.325   8.003   5.177  0.6713  0.2978 -0.0424
  111MOL0     C14535   4.284   7.863   5.120 -0.4087 -0.3558  0.1817
  111MOL0     C14536   4.184   7.791   5.216  0.2990  0.4021  0.3108
  111MOL0     N14537   4.053   7.851   5.245 -0.7380  0.0683 -0.0584
  111MOL0     C14538   3.998   7.846   5.371  0.2246  0.1040  0.9947
  111MOL0     C14539   3.873   7.904   5.355  0.5154 -0.5389 -0.5990
  111MOL0     C14540   3.780   7.932   5.472 -0.4128  1.3650  0.0061
  111MOL0     C14541   3.677   7.820   5.477 -0.0183  0.1516  0.8874
  111MOL0     C14542   3.570   7.839   5.576 -0.2227  0.3228 -0.3821
  111MOL0     C14543   3.472   7.724   5.575  0.7629  0.6295  0.1084
  111MOL0     O14544   3.397   7.731   5.696  0.7106 -0.4848 -0.0705
  111MOL0     C14545   3.296   7.638   5.718 -0.7187  0.7919  0.3964
  111MOL0     C14546   3.320   7.505   5.702  0.6669 -0.8165 -0.4319
  111MOL0     C14547   3.225   7.411   5.692  0.4176 -0.6525  0.1944
  111MOL0     C14548   3.094   7.450   5.720  0.1617 -0.1056 -0.1339
  111MOL0     C14549   2.988   7.352   5.743 -0.9646  0.5090 -0.5723
  111MOL0     O14550   2.868   7.401   5.778 -0.1185  0.6078  1.0041
  111MOL0     C14551   2.766   7.316   5.807 -0.0666  0.3072  0.1064
  111MOL0     C14552   2.745   7.261   5.935 -0.3243  0.5507 -0.4054
  111MOL0     C14553   2.638   7.172   5.950 -0.4576 -1.3659  0.0488
  111MOL0     C14554   2.561   7.135   5.839 -0.1510  0.7764  0.6372
  111MOL0     O14555   2.458   7.046   5.856  0.6492  0.3340  0.2811
  111MOL0     C14556   2.342   7.073   5.787  0.5846 -1.1899  0.0647
  111MOL0     C14557   2.273   7.204   5.826  0.7384  0.3731  0.1491
  111MOL0     C14558   2.123   7.203   5.811 -0.0933 -0.4038 -0.4003
  111MOL0     C14559   2.056   7.146   5.934 -0.2518  0.2366  0.2990
  111MOL0     C14560   1.910   7.097   5.903 -0.6230  0.3646 -0.1419
  111MOL0     C14561   1.821   7.224   5.884 -0.9574 -0.1632  0.0281
  111MOL0     C14562   1.680   7.214   5.941  1.2544 -0.5041 -0.4924
  111MOL0     C14563   1.578   7.138   5.856 -0.6990  0.4670  0.9788
  111MOL0    Cl14564   1.409   7.159   5.933  0.0638 -0.0665  0.3592
  111MOL0     C14565   2.586   7.192   5.712 -0.5889  0.1477 -0.2419
  111MOL0     C14566   2.692   7.279   5.693 -0.0314  0.2625 -0.3352
  111MOL0     O14567   3.022   7.232   5.729 -0.5166 -0.1992  0.1250
  111MOL0     C14568   3.068   7.587   5.752 -0.4740 -0.4124  0.9486
  111MOL0     C14569   3.167   7.680   5.752 -0.7472 -0.7089  0.0353
  111MOL0     N14570   3.852   7.933   5.223 -0.2982 -0.2142  0.6322
  111MOL0     N14571   3.962   7.902   5.154  0.1314  0.0537 -0.0892
  111MOL0     C14572   5.171   7.945   4.908  0.5335 -0.0824 -1.1286
  111MOL0     C14573   5.300   7.994   4.887  0.0265 -0.3302 -0.1888
  111MOL0     C14574   5.717   8.142   4.844  0.3569  0.5784  0.5880
  111MOL0     C14575   5.784   8.196   4.958 -0.0069 -0.1304  0.1390
  111MOL0     C14576   5.926   8.211   4.971 -0.3527 -0.5106  0.0636
  111MOL0     C14577   5.992   8.195   4.847 -0.2791 -0.2592  0.2422
  111MOL0     O14578   6.127   8.207   4.849 -0.4070 -0.3098  0.3510
  111MOL0     C14579   6.205   8.206   4.977  0.0047 -0.0243  0.0587
  111MOL0     C14580   6.349   8.239   4.954  0.1866  0.2748  0.8818
  111MOL0     C14581   6.417   8.125   4.877 -0.8385  0.0683 -0.3283
  111MOL0     C14582   6.528   8.172   4.790 -0.8765 -0.6681  0.4226
  111MOL0     C14583   6.656   8.185   4.858 -0.1259  0.6195  0.1709
  111MOL0     C14584   6.768   8.196   4.907 -0.0529  0.3116 -0.3506
  111MOL0     C14585   5.931   8.139   4.735  0.4265 -1.6267 -0.1287
  111MOL0     C14586   5.792   8.117   4.730 -0.4997  0.4469  0.2425
  111MOL0     H14587   5.331   8.210   5.148 -1.1978  1.9733 -0.5326
  111MOL0     H14588   5.098   8.131   5.181 -1.9496  2.5648 -2.3873
  111MOL0     H14589   4.906   8.146   5.084  1.0608 -0.4232  1.2467
  111MOL0     H14590   4.840   8.022   5.191 -1.2090 -0.8217 -1.1162
  111MOL0     H14591   4.732   7.919   4.971  2.4565  0.3749 -2.9234
  111MOL0     H14592   4.747   8.083   4.911  1.0756 -0.2439 -0.0976
  111MOL0     H14593   4.633   8.191   5.080  0.0265 -0.1933 -2.9871
  111MOL0     H14594   4.626   8.045   5.177  1.0873 -1.4824 -0.1541
  111MOL0     H14595   4.505   8.098   4.900 -1.7412 -1.7865 -0.7992
  111MOL0     H14596   4.500   7.943   4.973  1.8079 -1.0763  1.3602
  111MOL0     H14597   4.300   8.101   4.983  3.8578  1.4395 -3.9523
  111MOL0     H14598   4.391   8.194   5.103  3.5730 -1.4873  0.2915
  111MOL0     H14599   4.238   8.040   5.232 -0.9017 -3.2390  0.0834
  111MOL0     H14600   4.410   7.989   5.244  2.2387 -0.3803 -2.0728
  111MOL0     H14601   4.224   7.883   5.031 -1.0570  1.2863  0.9480
  111MOL0     H14602   4.368   7.796   5.100 -0.8325 -0.6903 -0.5064
  111MOL0     H14603   4.237   7.783   5.311 -0.9857  0.5735  1.0679
  111MOL0     H14604   4.153   7.690   5.189  1.1697  0.1086  0.3822
  111MOL0     H14605   4.064   7.814   5.451  1.2242 -2.8059 -0.8376
  111MOL0     H14606   3.726   8.025   5.452 -2.6306  0.4377  1.3758
  111MOL0     H14607   3.829   7.936   5.569  3.5412  1.3416 -1.7806
  111MOL0     H14608   3.732   7.730   5.504  0.1177 -0.1028 -0.2134
  111MOL0     H14609   3.637   7.816   5.375  0.9309 -0.0873  0.5139
  111MOL0     H14610   3.605   7.835   5.679 -0.8941 -3.0060 -0.1567
  111MOL0     H14611   3.524   7.937   5.558 -0.3070  0.0163 -1.9952
  111MOL0     H14612   3.533   7.634   5.571  2.7061  1.8634  0.4932
  111MOL0     H14613   3.409   7.727   5.485  0.2697 -2.9012  0.1912
  111MOL0     H14614   3.416   7.468   5.668  1.1761  1.6625 -1.9152
  111MOL0     H14615   3.252   7.307   5.676  1.1678 -0.2512 -1.3116
  111MOL0     H14616   2.799   7.293   6.024  1.1202 -0.0833 -1.0209
  111MOL0     H14617   2.610   7.138   6.049 -1.4360  0.3341  0.4050
  111MOL0     H14618   2.274   6.991   5.812 -1.0490  0.0537 -0.1140
  111MOL0     H14619   2.359   7.072   5.679  1.4287 -1.7987  0.1934
  111MOL0     H14620   2.306   7.283   5.758 -1.0838  0.4986 -0.6431
  111MOL0     H14621   2.303   7.226   5.929 -2.5562 -2.3085  1.8798
  111MOL0     H14622   2.091   7.143   5.726 -3.1372 -0.6006  0.7515
  111MOL0     H14623   2.089   7.305   5.791 -0.5895 -0.3315  0.7225
  111MOL0     H14624   2.105   7.057   5.974 -0.2182 -0.6748 -1.6684
  111MOL0     H14625   2.055   7.217   6.017 -0.1509 -0.7775  1.1901
  111MOL0     H14626   1.866   7.037   5.983  0.3975  0.2692  0.3673
  111MOL0     H14627   1.911   7.036   5.812  2.1331  2.3318 -1.5735
  111MOL0     H14628   1.823   7.260   5.780  1.0117  0.8514  0.3729
  111MOL0     H14629   1.864   7.307   5.940  0.4091 -1.3214  0.7376
  111MOL0     H14630   1.682   7.163   6.037 -0.2455  1.2166  0.5245
  111MOL0     H14631   1.636   7.311   5.967 -0.3176 -1.6399  1.3299
  111MOL0     H14632   1.592   7.030   5.860  2.4488  0.8217  2.8494
  111MOL0     H14633   1.585   7.159   5.749  1.2333  0.7799  1.1176
  111MOL0     H14634   2.535   7.169   5.619  3.5731 -0.4108 -2.6305
  111MOL0     H14635   2.709   7.329   5.598 -0.5454 -1.5209 -1.4198
  111MOL0     H14636   2.973   7.609   5.798 -2.4202 -5.4071 -0.0590
  111MOL0     H14637   3.140   7.785   5.767  1.0251 -0.2205  0.0117
  111MOL0     H14638   5.114   7.885   4.837 -0.5381  2.8384 -2.9280
  111MOL0     H14639   5.366   7.965   4.806  2.6466  2.7196  0.6325
  111MOL0     H14640   5.725   8.217   5.046 -1.3853 -1.0346 -0.5422
  111MOL0     H14641   5.966   8.239   5.068 -1.3282  1.9458 -0.1782
  111MOL0     H14642   6.198   8.107   5.023 -0.2585 -1.1282 -2.1939
  111MOL0     H14643   6.172   8.272   5.057  2.9209 -0.2698  1.5987
  111MOL0     H14644   6.354   8.335   4.901 -2.4599 -0.7477 -1.5064
  111MOL0     H14645   6.393   8.258   5.052  3.2537  2.1391 -0.6743
  111MOL0     H14646   6.353   8.075   4.803 -2.1123  0.8827  0.1941
  111MOL0     H14647   6.454   8.058   4.955 -0.9609 -0.1368 -0.4457
  111MOL0     H14648   6.548   8.112   4.700  0.4337  1.6808 -0.9691
  111MOL0     H14649   6.503   8.268   4.741  1.5738  0.2236  0.7720
  111MOL0     H14650   6.866   8.202   4.950  0.0114 -2.5838  0.1467
  111MOL0     H14651   5.989   8.133   4.644  1.6249 -0.9966  0.5662
  111MOL0     H14652   5.753   8.091   4.632 -0.8779  0.1793  0.4618
  112MOL0     O14653   8.767   6.789  10.044 -0.7221  0.7580  0.0893
  112MOL0     C14654   8.808   6.680  10.051  0.2582  0.6110 -0.7363
  112MOL0     O14655   8.746   6.585  10.115 -0.2733  0.2073  0.3916
  112MOL0     C14656   8.625   6.587  10.174  0.8790  0.4364  0.5794
  112MOL0     C14657   8.543   6.704  10.206  0.6309 -0.6245  0.3870
  112MOL0     C14658   8.420   6.697  10.277 -0.8033 -0.4840  0.5679
  112MOL0     C14659   8.363   6.563  10.298  0.1018  0.5067  0.1986
  112MOL0     O14660   8.248   6.552  10.371  0.1139 -0.3463  0.2684
  112MOL0     C14661   8.225   6.434  10.449  0.4052 -0.2733  0.9185
  112MOL0     C14662   8.128   6.465  10.564 -0.3988  0.5247  0.3300
  112MOL0     C14663   7.986   6.505  10.535 -0.2401  0.8134 -0.1992
  112MOL0     C14664   7.923   6.426  10.416 -0.0364  0.3383 -0.4807
  112MOL0     C14665   7.774   6.454  10.420  0.3176  0.2203 -0.3832
  112MOL0     C14666   7.703   6.404  10.298 -0.6060 -0.8478  0.3761
  112MOL0     C14667   7.546   6.393  10.321 -0.3996 -1.1006 -0.8526
  112MOL0     C14668   7.470   6.520  10.296  0.0081  0.5294  0.2532
  112MOL0     N14669   7.490   6.616  10.399 -0.6081  0.2412 -0.1690
  112MOL0     C14670   7.449   6.606  10.529 -0.1221  0.5896  0.4072
  112MOL0     C14671   7.466   6.729  10.585 -0.0326 -0.0438  0.4155
  112MOL0     C14672   7.426   6.768  10.719  0.4206 -1.0531 -0.3149
  112MOL0     C14673   7.272   6.789  10.737  0.0444 -0.2903 -0.3038
  112MOL0     C14674   7.224   6.802  10.886 -0.2798  0.2524 -0.3300
  112MOL0     C14675   7.207   6.939  10.942 -0.1211  0.8586 -0.3830
  112MOL0     O14676   7.116   7.019  10.865  0.2804  0.3740  0.5656
  112MOL0     C14677   6.981   6.994  10.860  0.2712  0.7443  0.1689
  112MOL0     C14678   6.891   7.070  10.776 -0.3141  0.5630  0.3169
  112MOL0     C14679   6.755   7.064  10.788 -0.7570 -0.5643 -0.2684
  112MOL0     C14680   6.700   6.989  10.891  1.1046 -0.1973  0.1779
  112MOL0     C14681   6.551   6.982  10.912  0.3299  0.3346  0.5153
  112MOL0     O14682   6.502   6.889  10.995  0.1165 -0.4516 -1.2447
  112MOL0     C14683   6.375   6.891  11.037 -0.1196  0.0636  0.1191
  112MOL0     C14684   6.276   6.857  10.935 -0.1278  0.5173 -0.7835
  112MOL0     C14685   6.141   6.847  10.984 -0.2882  0.2501  0.6187
  112MOL0     C14686   6.109   6.856  11.121  0.4353 -0.1017  0.3393
  112MOL0     O14687   5.979   6.845  11.176  0.2843  0.7633  0.2498
  112MOL0     C14688   5.950   6.707  11.222 -1.1548 -0.4622  0.0949
  112MOL0     C14689   5.861   6.718  11.339 -0.3253 -0.2281  0.7845
  112MOL0     C14690   5.799   6.595  11.388  0.0631  0.7363 -0.7850
  112MOL0     C14691   5.701   6.618  11.496  0.2605 -0.1853  0.3228
  112MOL0     C14692   5.632   6.490  11.526 -0.3922 -0.4088 -0.9251
  112MOL0     C14693   5.539   6.519  11.638  0.1157  0.1273  0.2377
  112MOL0     C14694   5.470   6.381  11.672  0.4390  0.2835  0.9730
  112MOL0     C14695   5.384   6.416  11.793 -0.3792  0.7200 -0.5756
  112MOL0    Cl14696   5.285   6.269  11.845 -0.0440 -0.4935 -0.0316
  112MOL0     C14697   6.207   6.896  11.212 -0.6788  0.3252 -0.6012
  112MOL0     C14698   6.342   6.916  11.170  0.6277  0.4919 -0.9380
  112MOL0     O14699   6.484   7.058  10.840 -0.1491 -0.1158  0.9952
  112MOL0     C14700   6.788   6.907  10.964 -0.0838 -0.4165  0.3503
  112MOL0     C14701   6.922   6.918  10.955 -0.7522  0.4058  0.3130
  112MOL0     N14702   7.510   6.811  10.492 -0.0080 -0.8611 -0.3461
  112MOL0     N14703   7.535   6.744  10.386  0.3759  0.1556 -0.0766
  112MOL0     C14704   8.432   6.457  10.241  0.0978  0.3243  0.2611
  112MOL0     C14705   8.557   6.467  10.185  0.0967  0.8040  0.5113
  112MOL0     C14706   8.936   6.659   9.977  0.0949  0.0281  0.2758
  112MOL0     C14707   8.951   6.534   9.929  0.4175  1.1325 -0.3156
  112MOL0     C14708   9.057   6.515   9.839 -0.1121  0.2015 -1.1246
  112MOL0     C14709   9.142   6.618   9.796 -0.1397 -0.3058  0.1050
  112MOL0     O14710   9.257   6.588   9.723  0.0943 -0.5677  0.2093
  112MOL0     C14711   9.322   6.697   9.660 -0.2921  0.0857  0.3854
  112MOL0     C14712   9.438   6.626   9.583  0.0599 -0.9690 -0.7610
  112MOL0     C14713   9.512   6.718   9.496  0.7034 -0.2217 -0.6221
  112MOL0     C14714   9.613   6.641   9.408 -1.6831  0.2404  0.3118
  112MOL0     C14715   9.728   6.591   9.493  0.2649  0.4003 -0.4038
  112MOL0     C14716   9.824   6.545   9.547  0.1589  0.0750  0.7087
  112MOL0     C14717   9.110   6.750   9.836 -0.8072 -0.2731 -0.0681
  112MOL0     C14718   9.006   6.770   9.928 -0.1181  0.1834 -0.1276
  112MOL0     H14719   8.578   6.803  10.179  0.0142 -0.4896  0.0702
  112MOL0     H14720   8.353   6.781  10.291 -2.1715 -1.8185  2.7521
  112MOL0     H14721   8.321   6.394  10.483  2.1037  3.3349  0.8751
  112MOL0     H14722   8.176   6.366  10.379 -2.7742  3.2125 -0.5809
  112MOL0     H14723   8.157   6.560  10.610 -1.2167  2.5976 -3.0898
  112MOL0     H14724   8.124   6.382  10.634  0.9124  1.7940  1.9874
  112MOL0     H14725   7.986   6.608  10.498 -0.1366  1.5084  1.6570
  112MOL0     H14726   7.926   6.495  10.626  1.3243  0.7584  0.8619
  112MOL0     H14727   7.964   6.463  10.321 -1.7523 -1.1684 -1.9040
  112MOL0     H14728   7.950   6.320  10.410 -0.4390  0.3109 -3.2547
  112MOL0     H14729   7.732   6.548  10.457 -1.1452  0.4413 -2.4676
  112MOL0     H14730   7.749   6.389  10.505  3.6527 -2.2111 -1.0588
  112MOL0     H14731   7.740   6.305  10.271  1.9856 -0.3053  1.6141
  112MOL0     H14732   7.723   6.466  10.210  1.9179 -4.4196 -1.8325
  112MOL0     H14733   7.517   6.331  10.236  0.8101 -1.9501 -0.6739
  112MOL0     H14734   7.512   6.355  10.418  1.4033 -0.2333  0.1735
  112MOL0     H14735   7.366   6.490  10.312 -0.5872  3.8622  4.8044
  112MOL0     H14736   7.487   6.556  10.195  0.2811 -1.1436 -0.3258
  112MOL0     H14737   7.426   6.512  10.578  3.1484 -0.7745 -0.4041
  112MOL0     H14738   7.493   6.847  10.755  2.1044 -3.1680  1.5527
  112MOL0     H14739   7.459   6.691  10.790  0.7032  0.4575  1.2864
  112MOL0     H14740   7.230   6.698  10.694  1.4074 -0.4823 -1.2942
  112MOL0     H14741   7.248   6.879  10.680  0.9425  0.4561  0.4688
  112MOL0     H14742   7.135   6.739  10.888 -1.4245  1.5971 -2.8849
  112MOL0     H14743   7.301   6.752  10.946 -1.5322  2.1925  3.1891
  112MOL0     H14744   7.304   6.988  10.956 -1.4759  3.0520  2.1895
  112MOL0     H14745   7.163   6.932  11.042 -1.0002  1.1710 -0.7350
  112MOL0     H14746   6.931   7.144  10.707  0.6249 -0.5683 -0.3949
  112MOL0     H14747   6.696   7.120  10.715 -0.4286  1.4566  0.9193
  112MOL0     H14748   6.304   6.835  10.833  0.0023 -0.2627 -0.5802
  112MOL0     H14749   6.058   6.817  10.921  0.2497 -1.0347  0.4757
  112MOL0     H14750   6.045   6.657  11.243 -0.5762 -0.0940 -1.4974
  112MOL0     H14751   5.903   6.649  11.143 -0.8214  0.6367 -0.9339
  112MOL0     H14752   5.790   6.795  11.307  2.4573  1.4034 -1.9909
  112MOL0     H14753   5.922   6.768  11.415  1.8042  1.6894 -1.9872
  112MOL0     H14754   5.878   6.533  11.432 -1.3273 -2.7822 -2.7889
  112MOL0     H14755   5.760   6.530  11.308 -2.0322  1.1806 -0.1969
  112MOL0     H14756   5.746   6.663  11.585  1.3340 -0.4189 -0.0891
  112MOL0     H14757   5.624   6.691  11.467 -0.3599 -0.0942  2.0758
  112MOL0     H14758   5.708   6.420  11.561  2.5370  2.5360 -0.9399
  112MOL0     H14759   5.583   6.450  11.437  2.4385 -0.9294 -2.3373
  112MOL0     H14760   5.466   6.586  11.592  0.2506  0.0034 -0.1619
  112MOL0     H14761   5.576   6.564  11.731  1.5698  0.6262 -0.5613
  112MOL0     H14762   5.401   6.365  11.589  0.9663  2.0167  0.1673
  112MOL0     H14763   5.531   6.290  11.684 -0.7621 -0.6097  0.5025
  112MOL0     H14764   5.319   6.503  11.784  0.7166  1.7450  0.8114
  112MOL0     H14765   5.450   6.445  11.876 -1.6384  0.6378  0.4895
  112MOL0     H14766   6.192   6.898  11.320  0.8958  0.5699 -0.3579
  112MOL0     H14767   6.416   6.939  11.246 -0.8868 -0.8355  1.0368
  112MOL0     H14768   6.751   6.842  11.043 -0.8946 -1.2965 -0.7149
  112MOL0     H14769   6.984   6.856  11.019 -0.1534  0.2933 -0.3613
  112MOL0     H14770   8.383   6.360  10.245 -1.3022  0.8762 -1.9963
  112MOL0     H14771   8.599   6.375  10.144  0.7626  2.0383 -1.7418
  112MOL0     H14772   8.891   6.455   9.970  3.2223 -0.2896  1.3328
  112MOL0     H14773   9.087   6.419   9.798  1.0976 -0.1242  0.4422
  112MOL0     H14774   9.363   6.771   9.730  0.3583  0.7549 -0.6839
  112MOL0     H14775   9.254   6.739   9.586 -2.1652 -0.4180  1.7280
  112MOL0     H14776   9.496   6.582   9.664 -0.7471  0.2329  0.5249
  112MOL0     H14777   9.402   6.539   9.528 -1.4363 -1.2217  0.5334
  112MOL0     H14778   9.561   6.799   9.552 -1.5421  0.5838  0.3034
  112MOL0     H14779   9.441   6.757   9.423  0.5741 -0.6083 -0.7015
  112MOL0     H14780   9.565   6.563   9.349  1.0384 -1.2955 -0.0304
  112MOL0     H14781   9.662   6.706   9.335 -2.4549  1.5236  0.8973
  112MOL0     H14782   9.914   6.500   9.584  2.9522  3.6088 -1.1718
  112MOL0     H14783   9.173   6.834   9.810  1.2128 -0.7166  2.8305
  112MOL0     H14784   8.982   6.873   9.950 -0.7730 -0.2669  1.3445
  113MOL0     O14785   1.199   9.133   5.113 -0.0550  0.3320  0.7884
  113MOL0     C14786   1.202   9.102   5.228  0.6064  0.2668 -0.0901
  113MOL0     O14787   1.094   9.061   5.307  0.2239  0.5510  0.1866
  113MOL0     C14788   0.977   9.062   5.239 -0.1340 -0.3203 -0.2089
  113MOL0     C14789   0.939   8.968   5.143  0.6250  0.1368 -0.1778
  113MOL0     C14790   0.832   8.981   5.069 -0.3123 -0.6530  0.9038
  113MOL0     C14791   0.739   9.083   5.095 -0.4387  0.0720  0.0559
  113MOL0     O14792   0.627   9.093   5.017  0.0120 -0.5009  0.4602
  113MOL0     C14793   0.499   9.113   5.077  0.1841 -0.2322 -1.0469
  113MOL0     C14794   0.404   9.092   4.962  0.6380  0.2083  0.2565
  113MOL0     C14795   0.256   9.094   5.005 -0.3329  0.4704  0.7693
  113MOL0     C14796   0.171   9.059   4.886 -0.4296 -0.0760  0.0953
  113MOL0     C14797   0.023   9.054   4.928 -0.2405  0.6297  0.1068
  113MOL0     C14798  -0.049   8.993   4.806  0.3258  1.1444  0.5110
  113MOL0     C14799  -0.198   9.011   4.824  0.5587  0.6649 -0.4259
  113MOL0     C14800  -0.274   8.928   4.718  0.0906  0.2121  0.7406
  113MOL0     N14801  -0.410   8.958   4.743  1.2640  0.9192  0.6578
  113MOL0     C14802  -0.477   8.905   4.855 -0.0588 -0.2031  1.1006
  113MOL0     C14803  -0.616   8.922   4.832 -0.6225 -0.0552  0.8836
  113MOL0     C14804  -0.743   8.879   4.898  0.7037 -0.1316  0.1775
  113MOL0     C14805  -0.815   8.779   4.807  0.2381  0.5795  0.8064
  113MOL0     C14806  -0.933   8.714   4.885  0.1269 -0.7407 -0.3105
  113MOL0     C14807  -1.067   8.788   4.886 -0.0918  0.4968  0.0006
  113MOL0     O14808  -1.155   8.708   4.967 -0.2916 -0.1674  0.0224
  113MOL0     C14809  -1.279   8.759   4.993 -0.3024 -0.4363  0.7927
  113MOL0     C14810  -1.330   8.881   4.934  0.6575 -0.0601 -0.3685
  113MOL0     C14811  -1.468   8.925   4.964 -0.8410  0.6046  0.0878
  113MOL0     C14812  -1.546   8.842   5.046 -0.7193 -0.0267 -0.5297
  113MOL0     C14813  -1.687   8.886   5.070  0.2906 -0.4266 -0.7741
  113MOL0     O14814  -1.768   8.826   5.164  0.6157 -0.3389 -0.1963
  113MOL0     C14815  -1.888   8.886   5.201 -0.0479 -0.3872 -0.3167
  113MOL0     C14816  -1.932   8.856   5.331  0.0046 -0.0405 -0.2988
  113MOL0     C14817  -2.061   8.899   5.372  0.9812 -0.7253 -0.4553
  113MOL0     C14818  -2.127   9.007   5.306 -0.3441 -0.5859  0.6123
  113MOL0     O14819  -2.237   9.080   5.345 -0.1794  0.1531  0.0733
  113MOL0     C14820  -2.290   9.065   5.482 -0.5233 -0.4844 -0.1877
  113MOL0     C14821  -2.410   9.153   5.493 -0.3532  0.6642 -0.2702
  113MOL0     C14822  -2.422   9.208   5.636  0.1967  0.4994 -0.2554
  113MOL0     C14823  -2.489   9.349   5.639  0.3702  0.0627 -0.1667
  113MOL0     C14824  -2.635   9.342   5.599  0.8077 -0.3007  0.3285
  113MOL0     C14825  -2.720   9.304   5.720  0.8599 -0.9241 -0.0752
  113MOL0     C14826  -2.870   9.277   5.675 -0.6894  0.7754 -0.6815
  113MOL0     C14827  -2.884   9.150   5.597  0.3953  0.0056 -0.7221
  113MOL0    Cl14828  -3.060   9.116   5.546 -0.4108 -0.1265 -0.2351
  113MOL0     C14829  -2.084   9.035   5.187  0.9000 -0.4701  0.3236
  113MOL0     C14830  -1.974   8.968   5.128  0.2927 -0.3060 -0.3563
  113MOL0     O14831  -1.721   8.977   4.992 -0.6043  0.4090  0.2364
  113MOL0     C14832  -1.494   8.720   5.099  0.6988  0.0942  0.3240
  113MOL0     C14833  -1.361   8.684   5.071 -0.2564  0.4972 -0.4480
  113MOL0     N14834  -0.623   8.983   4.702  0.1336  1.1267  0.5370
  113MOL0     N14835  -0.506   8.995   4.649  0.0904 -0.4555  0.5091
  113MOL0     C14836   0.761   9.169   5.199 -0.6865 -0.4335 -0.8991
  113MOL0     C14837   0.879   9.153   5.275  0.4439 -0.3630 -0.3747
  113MOL0     C14838   1.331   9.112   5.292  0.0226  0.1917  0.0016
  113MOL0     C14839   1.370   9.030   5.399 -0.3700 -0.2582 -0.6464
  113MOL0     C14840   1.488   9.041   5.465  0.1705 -1.2044  0.4055
  113MOL0     C14841   1.579   9.146   5.426 -0.2179 -0.2347 -0.5990
  113MOL0     O14842   1.692   9.160   5.511 -0.6410  0.0136  0.5675
  113MOL0     C14843   1.807   9.240   5.458 -0.2648  0.3047 -0.1521
  113MOL0     C14844   1.941   9.222   5.533 -0.3954 -0.1310  0.2120
  113MOL0     C14845   2.058   9.297   5.467 -0.8261  0.8386  0.0808
  113MOL0     C14846   2.199   9.274   5.536  0.0232 -0.1513 -0.3901
  113MOL0     C14847   2.287   9.377   5.482 -0.6566  0.4495 -0.2849
  113MOL0     C14848   2.363   9.458   5.427  0.0810  0.6932 -0.5685
  113MOL0     C14849   1.544   9.232   5.320 -0.6456  0.7141 -0.6295
  113MOL0     C14850   1.422   9.211   5.243 -0.8527 -0.2944 -0.3285
  113MOL0     H14851   1.009   8.886   5.132 -0.1253 -0.1673 -3.3836
  113MOL0     H14852   0.810   8.915   4.985  2.1650  0.5772 -0.8357
  113MOL0     H14853   0.489   9.212   5.123  0.0923 -0.9330  0.5216
  113MOL0     H14854   0.491   9.043   5.162  2.9360  0.8356  0.2264
  113MOL0     H14855   0.425   8.999   4.909 -0.1611  0.9000 -1.3139
  113MOL0     H14856   0.428   9.176   4.896  4.8743  0.1782  1.4253
  113MOL0     H14857   0.231   9.191   5.048  1.2746 -0.1059  3.1714
  113MOL0     H14858   0.242   9.013   5.078 -1.1555  0.8737  1.0781
  113MOL0     H14859   0.179   9.138   4.810 -2.7631 -1.7160 -2.0158
  113MOL0     H14860   0.197   8.963   4.840 -0.9917 -0.0266 -0.3320
  113MOL0     H14861  -0.018   9.152   4.954  1.6269  1.0316  1.7270
  113MOL0     H14862   0.006   8.995   5.019 -3.4760  3.9159  1.9208
  113MOL0     H14863  -0.023   8.887   4.800 -0.0968  1.1183 -1.2091
  113MOL0     H14864  -0.024   9.037   4.710  1.3881  0.2059  0.3458
  113MOL0     H14865  -0.223   8.972   4.923 -0.0076 -0.2163 -0.9051
  113MOL0     H14866  -0.238   9.113   4.811 -1.7298 -0.2617 -1.2259
  113MOL0     H14867  -0.262   8.819   4.722 -2.0791 -0.0958  0.2468
  113MOL0     H14868  -0.248   8.970   4.620  0.5513 -1.9957 -0.1647
  113MOL0     H14869  -0.440   8.856   4.944 -1.5908 -1.0231  1.3153
  113MOL0     H14870  -0.804   8.969   4.910 -0.6122 -1.1343  1.4502
  113MOL0     H14871  -0.733   8.838   4.999  1.6215  1.6114  0.8235
  113MOL0     H14872  -0.749   8.694   4.785 -2.1613 -1.4720  1.0537
  113MOL0     H14873  -0.856   8.818   4.714  1.0446  0.7807  0.5263
  113MOL0     H14874  -0.949   8.627   4.821 -3.3008 -0.4184 -0.0495
  113MOL0     H14875  -0.907   8.690   4.989 -0.9333 -2.2997 -0.3822
  113MOL0     H14876  -1.105   8.803   4.784 -1.5474 -1.1867  0.2445
  113MOL0     H14877  -1.057   8.892   4.918 -0.1943  1.3549 -2.4786
  113MOL0     H14878  -1.274   8.947   4.869  1.4381  0.1835  0.5445
  113MOL0     H14879  -1.501   9.007   4.901 -0.8280 -0.9904 -2.1330
  113MOL0     H14880  -1.882   8.774   5.381  1.9212  1.1590 -0.1324
  113MOL0     H14881  -2.099   8.863   5.467 -2.4709  0.7349 -1.1307
  113MOL0     H14882  -2.217   9.093   5.558 -1.1841  2.2063 -0.4418
  113MOL0     H14883  -2.325   8.965   5.506 -1.7924  0.0111  0.1142
  113MOL0     H14884  -2.499   9.096   5.464  0.1951 -0.2795 -0.1510
  113MOL0     H14885  -2.400   9.239   5.426  3.0341  2.1331  1.8799
  113MOL0     H14886  -2.321   9.218   5.677  0.7572 -2.9127 -0.5518
  113MOL0     H14887  -2.472   9.134   5.698  0.4001 -0.0700 -0.7648
  113MOL0     H14888  -2.478   9.384   5.742  2.4351  3.4523 -1.3883
  113MOL0     H14889  -2.436   9.422   5.578  1.5988  0.2036  1.0256
  113MOL0     H14890  -2.642   9.279   5.509  0.7808  2.1457 -1.4676
  113MOL0     H14891  -2.669   9.442   5.572 -0.5059 -0.2706  1.9315
  113MOL0     H14892  -2.720   9.389   5.789 -0.7734  0.9662 -2.2704
  113MOL0     H14893  -2.688   9.213   5.772 -6.2634 -3.9010  0.1973
  113MOL0     H14894  -2.936   9.265   5.761 -1.8849  1.4569 -1.4838
  113MOL0     H14895  -2.910   9.359   5.615 -1.3116  1.0649  0.1308
  113MOL0     H14896  -2.859   9.062   5.658 -1.5688  1.0753  1.8138
  113MOL0     H14897  -2.817   9.146   5.511  1.8540 -0.4727  0.3911
  113MOL0     H14898  -2.135   9.117   5.139  1.5448 -0.0178  0.3853
  113MOL0     H14899  -1.951   8.997   5.026  0.3905  0.1496 -0.2102
  113MOL0     H14900  -1.556   8.656   5.160  0.3945 -1.4408 -1.5071
  113MOL0     H14901  -1.321   8.594   5.118 -1.5601 -0.8603 -1.8204
  113MOL0     H14902   0.701   9.257   5.221  1.0941  0.6510 -0.1815
  113MOL0     H14903   0.892   9.198   5.373 -0.1348  0.0215 -0.4694
  113MOL0     H14904   1.313   8.946   5.437 -0.6781  0.1057 -0.2977
  113MOL0     H14905   1.510   8.972   5.546  0.7954 -0.9847  0.4295
  113MOL0     H14906   1.774   9.343   5.475 -3.3051 -0.7606  1.2591
  113MOL0     H14907   1.821   9.222   5.351  1.4769 -0.2878  0.1406
  113MOL0     H14908   1.931   9.248   5.639 -0.4303 -0.4546  0.2905
  113MOL0     H14909   1.957   9.114   5.532  0.9804 -0.0148  2.3816
  113MOL0     H14910   2.025   9.401   5.462 -1.1415  0.9170  2.5737
  113MOL0     H14911   2.063   9.272   5.361  1.0541  1.6872 -0.0677
  113MOL0     H14912   2.195   9.300   5.642 -0.0695  2.3634 -0.9465
  113MOL0     H14913   2.236   9.171   5.534  1.9518  0.4479  1.3533
  113MOL0     H14914   2.429   9.527   5.378  2.3506 -0.5284  0.6008
  113MOL0     H14915   1.607   9.319   5.302  2.8971 -2.0266 -2.7414
  113MOL0     H14916   1.408   9.281   5.162 -0.4626  1.8512  1.3556
  114MOL0     O14917   0.178   0.616   9.135 -0.5533  0.5324  0.4400
  114MOL0     C14918   0.188   0.733   9.173 -0.8285  0.8136 -0.7565
  114MOL0     O14919   0.082   0.815   9.203  0.7572 -0.8805 -0.3827
  114MOL0     C14920  -0.038   0.753   9.196 -0.5771  0.3233 -0.7118
  114MOL0     C14921  -0.131   0.785   9.096  0.6587 -0.6440 -0.0902
  114MOL0     C14922  -0.260   0.733   9.085 -0.0844  0.3131  0.3536
  114MOL0     C14923  -0.304   0.644   9.181  0.1178  0.7418 -1.8727
  114MOL0     O14924  -0.437   0.604   9.169  0.3591  0.3285 -0.2217
  114MOL0     C14925  -0.503   0.516   9.260  0.3307  0.4021 -0.0551
  114MOL0     C14926  -0.646   0.493   9.207 -0.1928  0.2908 -0.0064
  114MOL0     C14927  -0.731   0.397   9.293 -0.0052 -0.3349 -0.8703
  114MOL0     C14928  -0.874   0.391   9.242 -1.2277  1.0720  0.8377
  114MOL0     C14929  -0.966   0.340   9.354  0.3181 -0.4281  0.5873
  114MOL0     C14930  -1.118   0.375   9.334 -1.0876 -0.3472 -0.0062
  114MOL0     C14931  -1.182   0.310   9.208 -0.3105 -0.3720  0.3552
  114MOL0     C14932  -1.342   0.315   9.197 -0.2121 -0.1515  0.2708
  114MOL0     N14933  -1.405   0.219   9.290 -0.3764 -0.4893  1.0074
  114MOL0     C14934  -1.504   0.257   9.371  0.5094 -0.0151  0.5541
  114MOL0     C14935  -1.582   0.145   9.390  1.2822 -0.2466  0.5455
  114MOL0     C14936  -1.723   0.157   9.431 -0.4185 -0.7088 -0.6348
  114MOL0     C14937  -1.810   0.105   9.309 -0.0581  0.2422  0.0210
  114MOL0     C14938  -1.960   0.131   9.332  0.5379  0.6582  0.3104
  114MOL0     C14939  -2.029   0.013   9.418  0.2749  0.0178 -0.6171
  114MOL0     O14940  -2.155   0.058   9.481  0.1153  0.0724  0.2018
  114MOL0     C14941  -2.274   0.066   9.416  0.6623 -0.3486  0.7347
  114MOL0     C14942  -2.381   0.091   9.496 -0.0143 -0.6181 -1.0901
  114MOL0     C14943  -2.514   0.078   9.452  0.0965  0.2479 -0.2537
  114MOL0     C14944  -2.538   0.042   9.320  0.2451  0.3217  0.1756
  114MOL0     C14945  -2.681   0.026   9.274 -0.4409  0.4411 -0.1076
  114MOL0     O14946  -2.783   0.061   9.373 -0.2815 -0.3340  0.0298
  114MOL0     C14947  -2.919   0.053   9.356  0.0795  0.0974  0.5677
  114MOL0     C14948  -2.984   0.013   9.242 -0.4713 -0.1069  0.9449
  114MOL0     C14949  -3.121   0.005   9.236 -0.1403  0.2674 -0.0637
  114MOL0     C14950  -3.189   0.056   9.347  1.1551 -0.4286 -0.1556
  114MOL0     O14951  -3.323   0.066   9.322 -0.2070 -0.2003  0.1035
  114MOL0     C14952  -3.408   0.107   9.426  0.4975 -0.3741 -0.2931
  114MOL0     C14953  -3.543   0.137   9.361  0.4268  0.5057  0.2929
  114MOL0     C14954  -3.651   0.114   9.473 -0.0660 -0.5131 -0.1394
  114MOL0     C14955  -3.797   0.128   9.419 -0.4950  0.3918  0.0421
  114MOL0     C14956  -3.892   0.135   9.535  0.6828 -0.4085  0.4693
  114MOL0     C14957  -4.030   0.149   9.481  0.1154 -0.3003 -0.0368
  114MOL0     C14958  -4.128   0.172   9.596  0.1790 -0.4146 -0.0665
  114MOL0     C14959  -4.278   0.163   9.545  0.0493 -0.0782 -0.1818
  114MOL0    Cl14960  -4.385   0.201   9.682 -0.0772 -0.1155 -0.0777
  114MOL0     C14961  -3.130   0.096   9.463  0.8476  0.0423  0.0710
  114MOL0     C14962  -2.993   0.094   9.463 -0.3536  0.7281  0.2283
  114MOL0     O14963  -2.701   0.001   9.154  0.2126  0.4203  0.0878
  114MOL0     C14964  -2.429   0.029   9.230  0.0994 -0.4181  0.0865
  114MOL0     C14965  -2.299   0.047   9.282 -0.7857  0.4728 -0.1345
  114MOL0     N14966  -1.521   0.038   9.330 -0.4868 -0.7833 -0.1708
  114MOL0     N14967  -1.416   0.087   9.265 -0.5509 -1.1420  0.8204
  114MOL0     C14968  -0.215   0.612   9.289  1.5311 -1.2783 -0.8239
  114MOL0     C14969  -0.086   0.658   9.292 -0.2728 -0.2892  0.7796
  114MOL0     C14970   0.327   0.787   9.164 -1.3059  0.2698  0.6729
  114MOL0     C14971   0.437   0.697   9.152  1.0040 -1.2102 -0.4337
  114MOL0     C14972   0.569   0.737   9.121  0.3968 -0.3747  0.0081
  114MOL0     C14973   0.595   0.878   9.107  0.6113 -0.0131  0.0657
  114MOL0     O14974   0.713   0.918   9.051 -0.1649 -0.6689  0.5128
  114MOL0     C14975   0.835   0.892   9.121 -0.3952 -0.0495  0.2531
  114MOL0     C14976   0.845   0.982   9.248 -0.1554 -0.0403  1.1176
  114MOL0     C14977   0.853   1.131   9.198 -0.3092 -0.2509  0.1406
  114MOL0     C14978   0.864   1.215   9.330 -0.8443  0.7172  0.3732
  114MOL0     C14979   0.866   1.355   9.288  0.3020 -0.1487  0.1886
  114MOL0     C14980   0.884   1.468   9.237 -0.6053  0.3053 -0.7638
  114MOL0     C14981   0.487   0.959   9.122 -0.5560 -0.7277  0.6264
  114MOL0     C14982   0.361   0.921   9.154  0.3219 -0.1997 -0.1211
  114MOL0     H14983  -0.108   0.863   9.024 -3.6961  1.6468  0.6768
  114MOL0     H14984  -0.326   0.768   9.006 -0.2384 -3.0715 -1.1656
  114MOL0     H14985  -0.509   0.568   9.356 -1.4299  1.3950 -0.6550
  114MOL0     H14986  -0.454   0.420   9.275 -1.1861 -0.2588  0.9077
  114MOL0     H14987  -0.653   0.453   9.106  0.1641 -0.3990  0.2312
  114MOL0     H14988  -0.698   0.589   9.202  2.0422  1.4988 -1.9607
  114MOL0     H14989  -0.720   0.441   9.392  0.3321 -2.6906  0.2005
  114MOL0     H14990  -0.692   0.294   9.293 -0.4580 -0.5077 -0.9612
  114MOL0     H14991  -0.906   0.486   9.199 -0.2467  1.2523  0.4848
  114MOL0     H14992  -0.868   0.329   9.152  2.6885  1.1075  0.8804
  114MOL0     H14993  -0.941   0.379   9.453  1.1165 -3.4913  1.6837
  114MOL0     H14994  -0.952   0.232   9.352  0.9014 -0.3593 -1.9218
  114MOL0     H14995  -1.125   0.484   9.340  0.7077 -0.2812  2.2718
  114MOL0     H14996  -1.168   0.337   9.423  3.6198 -0.1628  3.1149
  114MOL0     H14997  -1.146   0.361   9.118 -4.0430 -0.9158 -1.6319
  114MOL0     H14998  -1.146   0.208   9.196 -0.6218 -0.2675 -1.9131
  114MOL0     H14999  -1.367   0.286   9.095 -0.7585 -0.7751  0.5730
  114MOL0     H15000  -1.380   0.415   9.218  2.6635  0.8755  1.1535
  114MOL0     H15001  -1.535   0.354   9.408  0.2363  0.0524  0.1552
  114MOL0     H15002  -1.744   0.260   9.462 -1.0636 -0.5758 -1.4720
  114MOL0     H15003  -1.756   0.102   9.520  0.5916 -0.9306 -0.3959
  114MOL0     H15004  -1.789  -0.001   9.292  1.7202  0.6398 -0.4752
  114MOL0     H15005  -1.785   0.160   9.217 -0.1632  2.0349  1.0037
  114MOL0     H15006  -1.980   0.231   9.374 -1.9842  0.7496 -0.8995
  114MOL0     H15007  -2.007   0.126   9.233  0.6529 -1.7903  0.3175
  114MOL0     H15008  -1.956  -0.021   9.492 -1.6369 -1.3271  0.7477
  114MOL0     H15009  -2.047  -0.080   9.362  3.9896 -1.2217 -0.0687
  114MOL0     H15010  -2.368   0.113   9.601 -3.2750 -0.7934 -0.5672
  114MOL0     H15011  -2.590   0.093   9.528  2.6532  0.0680  2.5357
  114MOL0     H15012  -2.929   0.006   9.148  0.1245  0.8306  1.2076
  114MOL0     H15013  -3.176  -0.037   9.153  0.9267 -1.6657  0.1466
  114MOL0     H15014  -3.378   0.203   9.470  1.0659 -0.7658  0.1898
  114MOL0     H15015  -3.415   0.027   9.500  2.7327 -1.1177 -0.7860
  114MOL0     H15016  -3.566   0.063   9.284  3.5139 -0.2696 -0.0057
  114MOL0     H15017  -3.543   0.237   9.317 -0.3754  0.8505  1.0308
  114MOL0     H15018  -3.649   0.200   9.541 -1.3764  1.1965 -2.1425
  114MOL0     H15019  -3.644   0.023   9.533 -0.2024  2.6172  5.3173
  114MOL0     H15020  -3.807   0.225   9.370  1.0983  0.4463 -0.2464
  114MOL0     H15021  -3.833   0.046   9.356 -2.0734 -0.1899  1.6346
  114MOL0     H15022  -3.856   0.215   9.600 -1.4251  2.1031 -1.2399
  114MOL0     H15023  -3.891   0.041   9.591 -2.5792 -1.9425 -1.7484
  114MOL0     H15024  -4.047   0.050   9.438  1.7671 -1.1196  1.0911
  114MOL0     H15025  -4.033   0.234   9.412 -0.1009 -2.4289 -2.8225
  114MOL0     H15026  -4.112   0.101   9.677  0.7023 -0.6087 -0.3297
  114MOL0     H15027  -4.102   0.263   9.649  0.8224 -1.8142  2.1453
  114MOL0     H15028  -4.301   0.061   9.513  2.2060 -1.3303  1.9060
  114MOL0     H15029  -4.294   0.242   9.471  1.5148 -1.4201 -2.0283
  114MOL0     H15030  -3.191   0.128   9.547 -2.1624 -0.9027 -1.6236
  114MOL0     H15031  -2.937   0.128   9.549 -0.5742  0.2955  0.5464
  114MOL0     H15032  -2.440  -0.002   9.126 -0.2436  2.2566 -0.7554
  114MOL0     H15033  -2.217   0.032   9.211  1.1188  1.9253  1.6341
  114MOL0     H15034  -0.259   0.557   9.372 -0.7261  1.6183  0.0756
  114MOL0     H15035  -0.020   0.621   9.370  1.3623 -1.3723 -1.0343
  114MOL0     H15036   0.424   0.589   9.154 -0.8908 -1.0036  0.1703
  114MOL0     H15037   0.653   0.670   9.106 -1.6084 -3.0315 -0.0915
  114MOL0     H15038   0.917   0.919   9.054 -2.2887  0.5874 -1.9191
  114MOL0     H15039   0.854   0.788   9.150  2.2024  0.0990 -0.6690
  114MOL0     H15040   0.750   0.973   9.301 -0.2614  0.4426  1.0178
  114MOL0     H15041   0.933   0.959   9.309 -0.5713  2.0503  2.6340
  114MOL0     H15042   0.759   1.159   9.148 -0.4348 -3.4034 -1.6768
  114MOL0     H15043   0.937   1.147   9.130  0.8965 -2.0980  1.1328
  114MOL0     H15044   0.778   1.215   9.397  0.0742 -2.8994  1.7919
  114MOL0     H15045   0.959   1.192   9.379 -0.4995 -0.3119 -0.7309
  114MOL0     H15046   0.911   1.562   9.192 -1.2224 -0.2509 -2.3875
  114MOL0     H15047   0.505   1.062   9.094  1.6502 -0.3783  2.9251
  114MOL0     H15048   0.293   1.003   9.175  0.6804 -0.7256  3.8335
  115MOL0     O15049   2.291   6.506  10.653  0.0389  0.9517 -0.3823
  115MOL0     C15050   2.337   6.426  10.575  0.1370  0.5575  0.2509
  115MOL0     O15051   2.434   6.453  10.485  0.3760  0.3226 -0.1074
  115MOL0     C15052   2.479   6.587  10.470 -0.0448  0.0372  0.1199
  115MOL0     C15053   2.392   6.695  10.450 -0.1979 -0.2062 -0.2601
  115MOL0     C15054   2.448   6.819  10.424 -0.7226 -0.1482  1.4427
  115MOL0     C15055   2.587   6.837  10.432 -0.1655 -0.0527  0.9496
  115MOL0     O15056   2.641   6.957  10.396  0.8768 -0.7152 -0.4864
  115MOL0     C15057   2.788   6.965  10.390 -0.1904 -0.3609  0.1764
  115MOL0     C15058   2.836   7.105  10.343 -0.1242  0.4850  0.0510
  115MOL0     C15059   2.988   7.120  10.326  0.3919  0.5720 -0.1039
  115MOL0     C15060   3.041   7.035  10.207  0.2297 -0.8948  0.4917
  115MOL0     C15061   3.029   7.112  10.072  1.1507 -0.2746 -0.8738
  115MOL0     C15062   3.104   7.057   9.955  0.3568 -0.3983 -0.3090
  115MOL0     C15063   3.255   7.040   9.980 -0.4367  0.2066  0.0647
  115MOL0     C15064   3.324   6.996   9.848  0.4795 -0.1361  1.1745
  115MOL0     N15065   3.320   7.085   9.730  0.1771 -0.4112  0.0314
  115MOL0     C15066   3.309   7.221   9.709 -0.6551 -0.2828  0.3395
  115MOL0     C15067   3.291   7.243   9.575  0.3568 -0.6715 -1.0464
  115MOL0     C15068   3.264   7.371   9.506 -0.0049 -0.7228 -0.7805
  115MOL0     C15069   3.379   7.472   9.545  0.4894 -0.6030 -0.1541
  115MOL0     C15070   3.518   7.443   9.501  0.3092  0.5505  0.7981
  115MOL0     C15071   3.611   7.549   9.570 -0.0177 -0.0392  0.3261
  115MOL0     O15072   3.610   7.682   9.520  0.3797 -0.4978  0.2432
  115MOL0     C15073   3.725   7.760   9.522 -0.6701 -0.5731  0.6233
  115MOL0     C15074   3.724   7.886   9.469  0.2924 -0.1058 -0.2185
  115MOL0     C15075   3.832   7.964   9.462 -0.4994 -0.1491  0.4770
  115MOL0     C15076   3.954   7.924   9.503  0.3463 -0.0376  0.5850
  115MOL0     C15077   4.075   8.011   9.477 -0.1100  0.1905 -0.3565
  115MOL0     O15078   4.193   7.977   9.544 -0.0166 -0.4288 -0.1083
  115MOL0     C15079   4.312   8.045   9.542 -0.1080  0.5415 -0.2092
  115MOL0     C15080   4.338   8.163   9.475  0.7376  0.4454 -0.1074
  115MOL0     C15081   4.461   8.227   9.501  1.0564  0.5527 -0.2977
  115MOL0     C15082   4.558   8.174   9.590 -0.4476 -0.3346  0.1887
  115MOL0     O15083   4.656   8.257   9.636  0.1408 -0.1064  0.6202
  115MOL0     C15084   4.790   8.215   9.630 -0.0205  0.2940  0.2860
  115MOL0     C15085   4.853   8.244   9.766  0.1252 -0.2116 -0.2829
  115MOL0     C15086   4.830   8.137   9.874 -0.3204 -1.0103 -0.5070
  115MOL0     C15087   4.900   8.164  10.010 -0.1664  0.1803 -0.2341
  115MOL0     C15088   5.056   8.188   9.989  0.4228 -0.1994  0.5758
  115MOL0     C15089   5.122   8.207  10.125 -0.9162 -0.0809 -0.4581
  115MOL0     C15090   5.078   8.342  10.194  0.6443 -0.7055  0.3993
  115MOL0     C15091   5.171   8.399  10.299  0.0527  0.1572 -0.0124
  115MOL0    Cl15092   5.160   8.317  10.465  0.0628 -0.2443  0.0841
  115MOL0     C15093   4.535   8.049   9.650 -0.1735 -0.2353  0.3409
  115MOL0     C15094   4.411   7.983   9.619 -1.1231  0.0785  0.4587
  115MOL0     O15095   4.062   8.108   9.408  0.6477 -0.7745  0.5385
  115MOL0     C15096   3.954   7.805   9.574  0.0845 -0.1918  0.3651
  115MOL0     C15097   3.850   7.717   9.578 -0.2785 -0.4871 -0.0993
  115MOL0     N15098   3.279   7.117   9.523  0.2001 -0.1309  0.4509
  115MOL0     N15099   3.285   7.029   9.609 -0.2704  0.1975  0.5836
  115MOL0     C15100   2.670   6.733  10.471 -0.3056  0.2148  0.6498
  115MOL0     C15101   2.616   6.605  10.476 -0.4232 -0.5622  0.1801
  115MOL0     C15102   2.285   6.289  10.581 -0.0536  0.6110  0.0074
  115MOL0     C15103   2.182   6.244  10.673  0.2493 -0.8947  0.1952
  115MOL0     C15104   2.139   6.108  10.678  0.2095  0.2716  0.0509
  115MOL0     C15105   2.190   6.019  10.584 -0.1570  0.2098 -0.0575
  115MOL0     O15106   2.158   5.889  10.565 -0.2030 -0.6321  0.7869
  115MOL0     C15107   2.033   5.839  10.613  0.1002 -0.0104 -0.3531
  115MOL0     C15108   2.035   5.684  10.583 -0.1586  0.3673  0.0772
  115MOL0     C15109   2.144   5.610  10.663  0.3852 -0.2717 -0.0999
  115MOL0     C15110   2.100   5.469  10.679  0.5806 -0.8421 -0.2887
  115MOL0     C15111   2.201   5.391  10.760  0.3800 -0.2443  0.0274
  115MOL0     C15112   2.308   5.335  10.788 -0.2028 -0.7481 -0.7285
  115MOL0     C15113   2.270   6.074  10.486  0.3411  0.7726 -0.6844
  115MOL0     C15114   2.325   6.194  10.482 -0.0002 -0.5640 -0.2224
  115MOL0     H15115   2.285   6.679  10.447 -0.1287 -0.7269 -2.9228
  115MOL0     H15116   2.392   6.907  10.397  2.2220  0.9169 -1.9331
  115MOL0     H15117   2.830   6.892  10.319  1.9000 -1.4121  2.3612
  115MOL0     H15118   2.828   6.936  10.487  0.2196  1.1367  0.4661
  115MOL0     H15119   2.805   7.185  10.411 -2.7107 -2.4486  2.6229
  115MOL0     H15120   2.795   7.124  10.244 -1.5515  0.0053  0.5295
  115MOL0     H15121   3.034   7.073  10.413  0.6770  0.9039 -0.0728
  115MOL0     H15122   3.025   7.223  10.319  0.7877  0.4773  0.5959
  115MOL0     H15123   3.148   7.032  10.230  0.3780 -0.7653 -0.1714
  115MOL0     H15124   2.995   6.938  10.188  2.0628 -1.3279 -2.4146
  115MOL0     H15125   3.052   7.217  10.094 -2.8568  0.4039  0.7854
  115MOL0     H15126   2.925   7.109  10.040  0.8765 -3.1840 -0.0228
  115MOL0     H15127   3.091   7.135   9.879 -0.1340  1.0920  1.2190
  115MOL0     H15128   3.054   6.968   9.915  0.4699 -0.4726 -0.2841
  115MOL0     H15129   3.288   7.132  10.029 -0.4535  0.2876 -0.0748
  115MOL0     H15130   3.281   6.958  10.048  0.6128  0.3142 -0.1915
  115MOL0     H15131   3.275   6.901   9.822  0.0892 -0.2443  2.2348
  115MOL0     H15132   3.424   6.969   9.884 -0.8296 -0.2460  5.2180
  115MOL0     H15133   3.314   7.288   9.795  1.3182 -2.2468  1.8580
  115MOL0     H15134   3.168   7.404   9.545  1.3329 -0.1106  2.2808
  115MOL0     H15135   3.258   7.377   9.397  2.0381  3.3191 -0.8619
  115MOL0     H15136   3.380   7.472   9.655 -1.2101 -1.4585 -0.1112
  115MOL0     H15137   3.335   7.565   9.507 -0.8045 -0.9973  0.3291
  115MOL0     H15138   3.546   7.343   9.533  1.7787  0.1647 -1.4552
  115MOL0     H15139   3.521   7.442   9.391 -1.5502 -2.4860  0.6635
  115MOL0     H15140   3.706   7.513   9.530 -0.1777 -0.2821  0.1661
  115MOL0     H15141   3.620   7.528   9.677  2.3436 -1.3370 -0.0520
  115MOL0     H15142   3.629   7.915   9.425  1.2038  1.3437 -1.3265
  115MOL0     H15143   3.831   8.056   9.405  1.9877  0.0283  0.6362
  115MOL0     H15144   4.267   8.196   9.400 -1.2116 -0.9357  1.0326
  115MOL0     H15145   4.470   8.331   9.470 -3.1113  1.6211  1.4782
  115MOL0     H15146   4.839   8.262   9.545  0.1865 -2.9182 -1.5538
  115MOL0     H15147   4.781   8.108   9.607 -3.1620  0.6173 -0.4924
  115MOL0     H15148   4.814   8.339   9.805 -0.7184 -0.6786  0.0287
  115MOL0     H15149   4.959   8.269   9.751 -0.2137  0.7140 -1.1764
  115MOL0     H15150   4.871   8.043   9.838  1.0487 -0.4906 -0.3758
  115MOL0     H15151   4.726   8.134   9.910  0.3551 -0.1358  1.7298
  115MOL0     H15152   4.849   8.243  10.065  0.1313  0.9637 -1.0456
  115MOL0     H15153   4.893   8.082  10.082 -0.1801  0.2010 -0.2121
  115MOL0     H15154   5.078   8.275   9.928 -3.5231  1.7110  1.5115
  115MOL0     H15155   5.104   8.102   9.942  1.0862 -0.1948  1.2234
  115MOL0     H15156   5.230   8.214  10.111 -1.1783 -0.9077 -3.5186
  115MOL0     H15157   5.104   8.135  10.205 -1.8641  2.3394  1.6774
  115MOL0     H15158   5.066   8.418  10.116 -2.6338 -2.4628 -1.0500
  115MOL0     H15159   4.974   8.330  10.227 -0.3370  1.7054 -1.4935
  115MOL0     H15160   5.137   8.502  10.308  0.6428  0.2855  0.7815
  115MOL0     H15161   5.275   8.383  10.268  0.2447  0.9960  0.2010
  115MOL0     H15162   4.601   8.002   9.722 -1.3064  0.5219  1.9286
  115MOL0     H15163   4.395   7.886   9.666 -0.5788 -0.4408 -0.3935
  115MOL0     H15164   4.052   7.777   9.613  0.7109  1.4693  0.0499
  115MOL0     H15165   3.854   7.616   9.616 -2.4869 -1.2819 -1.8138
  115MOL0     H15166   2.779   6.733  10.478 -0.3076  0.4356  0.6956
  115MOL0     H15167   2.685   6.522  10.481  0.2688 -0.0292 -0.3628
  115MOL0     H15168   2.136   6.309  10.747  0.6965 -3.2169  2.6914
  115MOL0     H15169   2.072   6.078  10.758 -1.8754  2.1997 -0.8694
  115MOL0     H15170   1.938   5.879  10.577 -0.4443  1.1246  2.1549
  115MOL0     H15171   2.037   5.865  10.719  1.0824 -1.7020  0.0630
  115MOL0     H15172   1.937   5.640  10.606  0.4411 -0.3276  1.4408
  115MOL0     H15173   2.049   5.669  10.476 -4.9711 -1.5695 -0.5581
  115MOL0     H15174   2.166   5.661  10.757 -2.0855 -0.9914  0.9480
  115MOL0     H15175   2.234   5.616  10.601  0.0388  4.1209 -0.5171
  115MOL0     H15176   2.002   5.446  10.723  0.1597 -4.6882 -2.7279
  115MOL0     H15177   2.105   5.426  10.579  2.0810 -1.4672  0.0384
  115MOL0     H15178   2.391   5.272  10.810 -2.9794 -4.2478  0.6070
  115MOL0     H15179   2.294   5.997  10.412 -1.2571 -1.5508  1.0724
  115MOL0     H15180   2.388   6.215  10.397  1.4796 -0.3127  0.8844
  116MOL0     O15181   3.955   6.496   9.634  0.0230  0.2935  0.0668
  116MOL0     C15182   4.041   6.406   9.644  0.2842  0.3354 -0.2560
  116MOL0     O15183   4.021   6.285   9.695  0.1206 -0.0160  0.1532
  116MOL0     C15184   3.909   6.263   9.770  1.0313  0.0487  0.7998
  116MOL0     C15185   3.829   6.152   9.748  1.0550  0.8993 -0.3944
  116MOL0     C15186   3.713   6.130   9.825  0.1584  0.1837  0.2039
  116MOL0     C15187   3.664   6.220   9.926 -0.3482  0.1750 -0.3208
  116MOL0     O15188   3.570   6.192  10.023  0.2306 -0.5350 -0.0145
  116MOL0     C15189   3.443   6.149   9.983 -0.3874  0.3812 -0.2908
  116MOL0     C15190   3.338   6.164  10.089  0.0447 -0.0897  0.3652
  116MOL0     C15191   3.206   6.084  10.057  0.9166 -0.7951 -0.6126
  116MOL0     C15192   3.108   6.075  10.174  0.5190 -0.6700  0.7143
  116MOL0     C15193   3.049   6.204  10.216  0.6907  0.3743 -0.2311
  116MOL0     C15194   2.905   6.199  10.291 -0.4952  0.3485 -0.2718
  116MOL0     C15195   2.783   6.218  10.192 -0.2520 -0.2237 -0.1469
  116MOL0     C15196   2.655   6.191  10.274  0.0538 -0.2617 -0.2506
  116MOL0     N15197   2.541   6.231  10.188  0.0986  0.2516 -0.2170
  116MOL0     C15198   2.485   6.354  10.165 -1.1962  0.1815  0.2428
  116MOL0     C15199   2.383   6.326  10.088 -0.3818  0.9065  0.6020
  116MOL0     C15200   2.282   6.429  10.043  0.3140  0.1848 -0.0822
  116MOL0     C15201   2.183   6.478  10.149 -0.6031 -0.0860 -0.5228
  116MOL0     C15202   2.093   6.374  10.206 -1.0894 -0.2189  0.0535
  116MOL0     C15203   2.011   6.444  10.325 -0.2789  0.3147 -0.2996
  116MOL0     O15204   1.899   6.520  10.274  0.2699  0.6489 -0.2306
  116MOL0     C15205   1.784   6.464  10.217 -0.4030  0.3433 -0.5283
  116MOL0     C15206   1.683   6.557  10.178  0.1446  0.5677 -0.2506
  116MOL0     C15207   1.557   6.513  10.134  0.0710 -0.1501 -0.8102
  116MOL0     C15208   1.533   6.372  10.116 -0.5606 -0.7398 -0.1924
  116MOL0     C15209   1.403   6.330  10.065  0.2525  0.3627 -0.2688
  116MOL0     O15210   1.296   6.411  10.072  0.0062  0.2779  0.0484
  116MOL0     C15211   1.168   6.366  10.046  0.0320 -0.4231  0.4305
  116MOL0     C15212   1.110   6.256  10.103  0.4893  0.0956 -0.4901
  116MOL0     C15213   0.981   6.223  10.055  0.3874 -0.4395  0.3246
  116MOL0     C15214   0.899   6.305   9.980  0.5278  0.0296 -0.7223
  116MOL0     O15215   0.772   6.272   9.938  0.1755 -0.3052  0.3389
  116MOL0     C15216   0.668   6.285  10.036  0.8619  0.4463 -0.8722
  116MOL0     C15217   0.532   6.260   9.967 -0.2455  0.4702 -0.1591
  116MOL0     C15218   0.506   6.367   9.861 -0.0842  0.8283 -0.6029
  116MOL0     C15219   0.357   6.384   9.817 -0.8149 -0.2793 -0.3222
  116MOL0     C15220   0.365   6.489   9.695  0.0084 -0.4074 -0.0149
  116MOL0     C15221   0.229   6.532   9.658 -0.5239  0.3417 -0.2863
  116MOL0     C15222   0.225   6.607   9.529 -0.5230 -0.0459 -0.4249
  116MOL0     C15223   0.087   6.654   9.491  0.3779 -0.8906  0.3794
  116MOL0    Cl15224   0.093   6.702   9.325  0.0688  0.4432 -0.2650
  116MOL0     C15225   0.948   6.430   9.947 -0.0974 -0.2880  0.6685
  116MOL0     C15226   1.082   6.456   9.972 -0.5205  0.8859  0.1268
  116MOL0     O15227   1.406   6.214  10.012  0.5537 -0.2191 -0.5650
  116MOL0     C15228   1.631   6.287  10.149 -0.0637 -0.6879  0.4633
  116MOL0     C15229   1.754   6.333  10.208 -0.3887 -0.0878 -0.0802
  116MOL0     N15230   2.375   6.189  10.066  0.9022  0.2811  0.5823
  116MOL0     N15231   2.469   6.130  10.129  0.9753 -0.1832  0.0450
  116MOL0     C15232   3.741   6.337   9.944  0.3679  0.6198 -0.0970
  116MOL0     C15233   3.861   6.355   9.869  0.5693 -0.3056  0.3714
  116MOL0     C15234   4.176   6.434   9.589 -0.5520 -0.9861  0.2838
  116MOL0     C15235   4.291   6.362   9.631  0.4625  1.0223 -0.9782
  116MOL0     C15236   4.409   6.385   9.569 -0.7790  0.0912  0.3702
  116MOL0     C15237   4.423   6.492   9.483 -1.0526 -0.0829  0.0383
  116MOL0     O15238   4.558   6.526   9.451  0.8965  0.3844 -0.4030
  116MOL0     C15239   4.617   6.609   9.559 -0.5632 -0.0134  0.9180
  116MOL0     C15240   4.749   6.536   9.596  0.1378  1.0635 -0.5799
  116MOL0     C15241   4.846   6.512   9.481  0.4593 -0.3748  0.6040
  116MOL0     C15242   4.960   6.417   9.511  0.5377  0.1946 -0.0763
  116MOL0     C15243   5.055   6.474   9.611  0.7882  0.7198 -1.1042
  116MOL0     C15244   5.135   6.519   9.694 -0.7960 -0.6302  0.8586
  116MOL0     C15245   4.314   6.565   9.442 -0.0194  0.1124  0.1949
  116MOL0     C15246   4.189   6.534   9.497 -0.4711  0.0993 -0.1078
  116MOL0     H15247   3.873   6.072   9.689  0.3160 -1.6001  2.1665
  116MOL0     H15248   3.664   6.034   9.811 -1.0907  0.9127 -0.5804
  116MOL0     H15249   3.449   6.041   9.964 -2.9434  0.2242 -0.5873
  116MOL0     H15250   3.426   6.203   9.889 -0.1211 -0.8176 -1.0514
  116MOL0     H15251   3.308   6.269  10.101 -1.6451 -0.6868  1.6763
  116MOL0     H15252   3.380   6.133  10.185 -0.1962 -0.5228  0.3285
  116MOL0     H15253   3.237   5.986  10.020  1.9864 -1.0294  0.8009
  116MOL0     H15254   3.167   6.131   9.966  2.0861 -0.2432 -0.8587
  116MOL0     H15255   3.032   6.007  10.134  0.8490  0.1464 -1.4407
  116MOL0     H15256   3.162   6.033  10.260 -0.3937 -0.6696  1.3057
  116MOL0     H15257   3.032   6.269  10.130  0.0632  1.0022  0.3553
  116MOL0     H15258   3.127   6.258  10.270  1.3986  1.0834 -1.8893
  116MOL0     H15259   2.900   6.282  10.361  0.2031 -0.6044  0.9436
  116MOL0     H15260   2.896   6.100  10.336  1.5676 -0.4297 -1.4148
  116MOL0     H15261   2.797   6.317  10.147  1.9543 -1.9230 -3.6413
  116MOL0     H15262   2.792   6.143  10.112  2.3497 -0.5267  0.3321
  116MOL0     H15263   2.661   6.253  10.364  0.1481 -0.1733 -0.3182
  116MOL0     H15264   2.649   6.085  10.302 -1.2909  0.1488  1.1499
  116MOL0     H15265   2.533   6.443  10.206 -1.1313  0.8001 -1.1068
  116MOL0     H15266   2.228   6.375   9.965  0.8447  1.7717 -1.6197
  116MOL0     H15267   2.330   6.506   9.982  0.0155  0.1496 -0.3635
  116MOL0     H15268   2.123   6.543  10.085  1.1688  2.7191  0.4706
  116MOL0     H15269   2.225   6.538  10.230 -1.7704 -1.0127  0.8282
  116MOL0     H15270   2.025   6.332  10.131 -2.9653 -1.1133  2.1364
  116MOL0     H15271   2.150   6.289  10.243 -1.6286 -0.1220  1.1581
  116MOL0     H15272   2.073   6.518  10.376  0.7233 -1.7895  1.7197
  116MOL0     H15273   1.977   6.367  10.394 -0.1626  1.0368  0.5782
  116MOL0     H15274   1.701   6.663  10.193  0.7423  0.3146  0.9385
  116MOL0     H15275   1.479   6.586  10.113  1.6362  2.2348  1.1038
  116MOL0     H15276   1.161   6.210  10.188  0.0193  4.5820  2.5698
  116MOL0     H15277   0.930   6.129  10.076  0.1762 -0.3936  0.0152
  116MOL0     H15278   0.657   6.384  10.082  0.6203 -0.6849  1.6265
  116MOL0     H15279   0.674   6.207  10.112 -2.7454 -1.4843 -2.3426
  116MOL0     H15280   0.445   6.260  10.033 -0.4196 -0.3050 -0.3822
  116MOL0     H15281   0.528   6.159   9.924 -2.2792 -0.1207  1.2727
  116MOL0     H15282   0.559   6.331   9.772  1.1049 -1.1505  0.8130
  116MOL0     H15283   0.525   6.469   9.896 -0.6901  1.0470 -0.9011
  116MOL0     H15284   0.314   6.289   9.783 -3.0986  1.5601 -3.1250
  116MOL0     H15285   0.289   6.427   9.891  0.0792  3.6489 -1.5112
  116MOL0     H15286   0.422   6.449   9.611  2.5011 -0.1261  1.4351
  116MOL0     H15287   0.418   6.580   9.723 -1.5495  0.7715 -0.7507
  116MOL0     H15288   0.206   6.605   9.736  2.4504  1.4232 -0.2907
  116MOL0     H15289   0.156   6.450   9.651 -0.4356  0.3785 -4.2840
  116MOL0     H15290   0.291   6.694   9.537  0.9541 -1.2549  1.9780
  116MOL0     H15291   0.251   6.546   9.443  0.8192 -1.2797  0.7832
  116MOL0     H15292   0.047   6.733   9.555  0.1097  0.2489 -1.1341
  116MOL0     H15293   0.017   6.570   9.498 -1.5322  0.4487 -1.2918
  116MOL0     H15294   0.892   6.490   9.876  1.4255 -0.9253 -1.1604
  116MOL0     H15295   1.121   6.554   9.946 -0.2356  1.0313  1.0471
  116MOL0     H15296   1.601   6.183  10.139  0.2634 -0.8181  0.7814
  116MOL0     H15297   1.817   6.256  10.251 -2.1326 -3.1559 -2.5674
  116MOL0     H15298   3.705   6.405  10.021 -3.5954 -1.2749 -0.0176
  116MOL0     H15299   3.916   6.448   9.876  0.3125 -0.0200 -1.1249
  116MOL0     H15300   4.303   6.279   9.700  0.0359  0.9365 -1.0054
  116MOL0     H15301   4.504   6.335   9.589  0.5957  2.0456 -0.9383
  116MOL0     H15302   4.546   6.623   9.641 -0.9300  1.7150  0.3545
  116MOL0     H15303   4.644   6.704   9.510 -0.4687 -2.0467 -3.4111
  116MOL0     H15304   4.805   6.585   9.676  1.1636  1.2800 -1.4087
  116MOL0     H15305   4.725   6.440   9.643 -0.9327  1.6172  0.0430
  116MOL0     H15306   4.892   6.606   9.448  0.4691 -1.2683 -2.2407
  116MOL0     H15307   4.793   6.468   9.396 -0.9048  3.1397 -0.5481
  116MOL0     H15308   4.920   6.319   9.540 -0.4462  0.6212  0.0409
  116MOL0     H15309   5.024   6.413   9.423  1.2308  0.6911  0.3926
  116MOL0     H15310   5.206   6.573   9.753 -0.9781  0.2290  0.3207
  116MOL0     H15311   4.312   6.640   9.364 -4.0054 -1.7879 -1.8408
  116MOL0     H15312   4.117   6.599   9.449 -0.0939  0.1639 -0.5847
  117MOL0     O15313   9.120   0.884   7.218 -0.3120  0.2329  0.1589
  117MOL0     C15314   9.149   0.806   7.311 -0.9034 -0.1271  0.2361
  117MOL0     O15315   9.074   0.761   7.409 -0.1305 -0.4985  0.3840
  117MOL0     C15316   8.937   0.790   7.414  0.0362  0.0403 -1.0604
  117MOL0     C15317   8.857   0.787   7.302 -0.0110 -1.1567  0.6057
  117MOL0     C15318   8.717   0.813   7.309 -0.3948 -0.7098  0.4314
  117MOL0     C15319   8.660   0.850   7.431 -0.0779  0.8190  0.1189
  117MOL0     O15320   8.529   0.880   7.422 -0.3832 -0.2149  0.6280
  117MOL0     C15321   8.456   0.929   7.533 -0.0140 -0.7067  0.0532
  117MOL0     C15322   8.319   0.960   7.478  0.9194 -0.4328 -0.6949
  117MOL0     C15323   8.245   0.829   7.433 -0.8259 -0.0334  0.4923
  117MOL0     C15324   8.093   0.863   7.398  0.2520  0.5292  0.9022
  117MOL0     C15325   8.054   0.785   7.280  0.8482 -1.2710  1.0596
  117MOL0     C15326   8.044   0.626   7.286  0.1732 -0.5950 -0.3352
  117MOL0     C15327   7.986   0.581   7.154 -0.6380  0.5296  0.4794
  117MOL0     C15328   7.889   0.458   7.171  0.6011  0.1005 -0.2957
  117MOL0     N15329   7.835   0.416   7.038 -0.8194 -0.2256 -0.8640
  117MOL0     C15330   7.840   0.292   6.986 -1.4968  1.1284  0.4509
  117MOL0     C15331   7.775   0.290   6.869 -0.0952  0.2963  0.4198
  117MOL0     C15332   7.752   0.186   6.764  0.1210 -0.1752  0.5380
  117MOL0     C15333   7.836   0.055   6.772  0.0993 -0.1701 -0.2247
  117MOL0     C15334   7.753  -0.067   6.796 -0.2596  0.2736 -0.0441
  117MOL0     C15335   7.843  -0.198   6.792 -0.5509  0.0299 -0.5030
  117MOL0     O15336   7.782  -0.313   6.837 -1.2806  0.4386  0.2137
  117MOL0     C15337   7.707  -0.394   6.756  0.1919  0.1685 -0.7793
  117MOL0     C15338   7.682  -0.373   6.616 -0.2471  0.6953  0.1561
  117MOL0     C15339   7.594  -0.462   6.553 -0.1399 -0.1015  0.3862
  117MOL0     C15340   7.542  -0.576   6.622  0.0200  0.2494 -0.9164
  117MOL0     C15341   7.455  -0.677   6.543 -0.4219  0.1902 -0.6571
  117MOL0     O15342   7.395  -0.643   6.424 -0.3154  1.0020 -0.4104
  117MOL0     C15343   7.338  -0.737   6.345 -0.6091  0.6918  0.7130
  117MOL0     C15344   7.213  -0.706   6.301 -0.5075 -0.3946 -1.0265
  117MOL0     C15345   7.146  -0.784   6.205  0.2101  0.6116  0.0861
  117MOL0     C15346   7.210  -0.901   6.163 -0.7987  0.5040 -0.5301
  117MOL0     O15347   7.173  -0.987   6.063  0.4671  0.3973 -0.3682
  117MOL0     C15348   7.095  -0.938   5.956  0.0736 -0.4939  0.7009
  117MOL0     C15349   6.952  -0.957   5.970  0.0969 -0.0558 -0.7966
  117MOL0     C15350   6.920  -1.111   5.974  1.1475 -0.4689 -0.0697
  117MOL0     C15351   6.768  -1.141   5.970 -0.7410  0.7603 -0.6663
  117MOL0     C15352   6.743  -1.286   5.951  0.5435 -0.2563  0.4952
  117MOL0     C15353   6.592  -1.316   5.964  0.5674  0.5474  0.0278
  117MOL0     C15354   6.545  -1.452   5.912 -0.6429 -0.5525 -0.6554
  117MOL0     C15355   6.409  -1.479   5.963 -0.2156 -0.5408  0.0371
  117MOL0    Cl15356   6.370  -1.650   5.947 -0.5595  0.4106  0.4202
  117MOL0     C15357   7.338  -0.931   6.214 -0.1323 -0.2517  0.1731
  117MOL0     C15358   7.410  -0.850   6.302 -0.1921 -0.0624  0.4982
  117MOL0     O15359   7.446  -0.789   6.598 -0.2752  0.4204  0.1994
  117MOL0     C15360   7.565  -0.595   6.757 -0.6577 -0.5150  0.0744
  117MOL0     C15361   7.636  -0.490   6.821 -0.4289 -0.1551  0.2755
  117MOL0     N15362   7.727   0.422   6.860 -0.7221 -0.3993 -1.2855
  117MOL0     N15363   7.752   0.492   6.963  0.1469 -0.1204  0.4394
  117MOL0     C15364   8.744   0.852   7.538  0.2541 -1.2664  0.4753
  117MOL0     C15365   8.876   0.812   7.538  0.6836 -0.3897 -0.1010
  117MOL0     C15366   9.289   0.752   7.299  0.1239 -0.3051 -0.0125
  117MOL0     C15367   9.326   0.639   7.369 -0.1887  0.4949 -0.3455
  117MOL0     C15368   9.468   0.601   7.375  0.7820  0.0062  0.1435
  117MOL0     C15369   9.564   0.684   7.320 -0.2840 -0.1593 -0.5450
  117MOL0     O15370   9.701   0.659   7.329  0.0327 -0.9915  0.0171
  117MOL0     C15371   9.758   0.566   7.424  0.1182  1.0581 -0.2529
  117MOL0     C15372   9.907   0.570   7.436 -0.0867  0.6692  0.7308
  117MOL0     C15373   9.967   0.468   7.335  0.6947 -0.3212  0.0806
  117MOL0     C15374  10.114   0.458   7.348  0.3880  0.4734  0.4508
  117MOL0     C15375  10.201   0.574   7.343 -0.4725 -0.9751 -0.6018
  117MOL0     C15376  10.267   0.677   7.360  0.0729 -0.0382  1.1714
  117MOL0     C15377   9.527   0.793   7.245  0.8207 -0.2418  0.3195
  117MOL0     C15378   9.387   0.828   7.231  0.4165 -0.1690  0.2776
  117MOL0     H15379   8.904   0.765   7.207  0.2381  0.4724  0.3250
  117MOL0     H15380   8.659   0.824   7.217 -0.9176  2.3462  1.0313
  117MOL0     H15381   8.498   1.024   7.570 -4.5952  0.6196  2.5946
  117MOL0     H15382   8.458   0.858   7.615  0.1122 -0.4854  0.2422
  117MOL0     H15383   8.322   1.034   7.398  0.0370 -1.3733 -1.6219
  117MOL0     H15384   8.266   0.998   7.566 -0.9503 -0.5343 -1.7161
  117MOL0     H15385   8.237   0.757   7.514  0.1656 -1.7215 -0.8297
  117MOL0     H15386   8.295   0.780   7.348  1.2507 -2.9263  3.1784
  117MOL0     H15387   8.031   0.843   7.487  3.1786 -1.2473  2.7024
  117MOL0     H15388   8.069   0.969   7.388 -0.5791  0.4587  1.8693
  117MOL0     H15389   8.112   0.821   7.194 -3.0124 -0.6740 -1.5769
  117MOL0     H15390   7.948   0.809   7.272  1.2816  0.9927  1.5649
  117MOL0     H15391   7.972   0.583   7.357 -2.1811 -1.2658 -2.9471
  117MOL0     H15392   8.146   0.589   7.300  0.6846  1.4142  2.1145
  117MOL0     H15393   7.925   0.662   7.113  2.0756  3.5470  1.9607
  117MOL0     H15394   8.066   0.546   7.088 -0.9621  0.6078  0.0414
  117MOL0     H15395   7.804   0.505   7.222  0.1193  3.2307 -3.5640
  117MOL0     H15396   7.936   0.376   7.225 -1.0991 -1.2123 -0.7064
  117MOL0     H15397   7.906   0.215   7.023  0.7507  1.8205 -1.8807
  117MOL0     H15398   7.747   0.234   6.666 -3.7084 -0.8353  0.2680
  117MOL0     H15399   7.651   0.152   6.789  0.8190 -0.6552  2.9846
  117MOL0     H15400   7.914   0.062   6.848 -0.6372 -0.8890  0.6242
  117MOL0     H15401   7.899   0.046   6.683  2.6537  0.7846  1.3661
  117MOL0     H15402   7.721  -0.058   6.900  1.8305 -0.6248  0.7127
  117MOL0     H15403   7.668  -0.073   6.726 -0.3499  0.1641  0.0734
  117MOL0     H15404   7.930  -0.179   6.854  0.0154 -0.0026 -1.2734
  117MOL0     H15405   7.882  -0.204   6.690  3.3928 -1.2428  0.9211
  117MOL0     H15406   7.730  -0.291   6.565  0.5700 -0.1861 -0.5272
  117MOL0     H15407   7.553  -0.449   6.454  0.2504 -0.8983  0.1077
  117MOL0     H15408   7.173  -0.610   6.332 -3.2004 -1.6446 -0.3306
  117MOL0     H15409   7.045  -0.760   6.172 -0.0135 -0.9716 -0.4462
  117MOL0     H15410   7.137  -0.983   5.866 -1.2204  0.2209 -0.2809
  117MOL0     H15411   7.103  -0.830   5.946 -1.4828 -0.4269 -0.1125
  117MOL0     H15412   6.900  -0.904   5.889  0.1303  2.0274  0.4682
  117MOL0     H15413   6.921  -0.915   6.066  2.4950 -0.6650  0.3129
  117MOL0     H15414   6.958  -1.149   6.069  0.4599 -0.2569  0.2976
  117MOL0     H15415   6.973  -1.154   5.890 -0.4176 -0.0393 -1.3290
  117MOL0     H15416   6.720  -1.098   6.058  0.8923  0.0811  0.5972
  117MOL0     H15417   6.732  -1.084   5.884 -0.6512  1.5868 -0.1574
  117MOL0     H15418   6.812  -1.344   6.013  2.2263 -1.3464 -2.2013
  117MOL0     H15419   6.772  -1.307   5.848  1.2587  1.8958  0.2066
  117MOL0     H15420   6.534  -1.232   5.923 -4.0356 -2.6117 -0.6268
  117MOL0     H15421   6.569  -1.324   6.070  0.7221 -0.5877 -0.0121
  117MOL0     H15422   6.557  -1.449   5.803 -0.7838  2.1259 -0.6754
  117MOL0     H15423   6.618  -1.527   5.943 -2.4710 -0.9826  3.0383
  117MOL0     H15424   6.349  -1.413   5.900 -1.9867 -0.4375  1.7471
  117MOL0     H15425   6.391  -1.438   6.063 -1.1618 -1.4495  0.2587
  117MOL0     H15426   7.389  -1.009   6.158 -0.6395 -1.4357  1.3130
  117MOL0     H15427   7.514  -0.856   6.333  0.1860  3.5580  0.3063
  117MOL0     H15428   7.525  -0.681   6.810  2.4762 -2.2100 -0.0574
  117MOL0     H15429   7.659  -0.496   6.927  0.1842 -2.4453  0.0649
  117MOL0     H15430   8.690   0.878   7.628 -2.7598 -1.3060 -1.1887
  117MOL0     H15431   8.940   0.814   7.626 -1.7705  3.6456  1.8922
  117MOL0     H15432   9.257   0.566   7.411  0.1866 -1.2401 -2.5464
  117MOL0     H15433   9.503   0.506   7.414  1.2624 -0.7712 -2.0452
  117MOL0     H15434   9.719   0.467   7.400  0.0012  0.1341  3.2897
  117MOL0     H15435   9.715   0.602   7.518  1.7673  1.4692  0.3747
  117MOL0     H15436   9.949   0.671   7.425  0.6269  0.2256 -0.9243
  117MOL0     H15437   9.932   0.543   7.539  2.2795 -0.0954  0.0155
  117MOL0     H15438   9.938   0.495   7.233 -0.6804  1.0810  0.7990
  117MOL0     H15439   9.928   0.366   7.342  0.4503 -0.3218 -1.1075
  117MOL0     H15440  10.128   0.402   7.441 -1.7321 -2.4459 -0.8031
  117MOL0     H15441  10.160   0.391   7.274 -1.0886 -0.1115  0.0300
  117MOL0     H15442  10.329   0.763   7.371 -0.4523  0.7167 -1.2510
  117MOL0     H15443   9.597   0.861   7.198  1.7506 -0.5744  1.1880
  117MOL0     H15444   9.354   0.923   7.190 -0.1091  0.4093  1.9392
  118MOL0     O15445   2.315   3.616   8.351 -0.4910  0.0815  0.5426
  118MOL0     C15446   2.318   3.673   8.244  1.0612  0.5323  0.1242
  118MOL0     O15447   2.203   3.696   8.174  0.9482  0.0434 -0.2404
  118MOL0     C15448   2.091   3.654   8.236  0.6011 -0.1609  0.6864
  118MOL0     C15449   2.052   3.522   8.250 -0.0605  0.6037 -0.1369
  118MOL0     C15450   1.930   3.491   8.314 -0.1869 -0.0073 -0.9100
  118MOL0     C15451   1.838   3.588   8.355 -0.4150  0.2516 -0.3787
  118MOL0     O15452   1.721   3.568   8.416  0.0586  0.0085 -0.2757
  118MOL0     C15453   1.663   3.437   8.408  0.5721 -0.0637 -0.2931
  118MOL0     C15454   1.527   3.427   8.477  1.0120  0.0130 -0.0176
  118MOL0     C15455   1.409   3.433   8.376 -1.5652  0.4475  0.3383
  118MOL0     C15456   1.411   3.547   8.276  0.2146 -0.3372 -0.1714
  118MOL0     C15457   1.262   3.594   8.247 -0.2585 -0.0790 -0.3682
  118MOL0     C15458   1.177   3.486   8.180  0.0520  0.1626  0.6392
  118MOL0     C15459   1.041   3.539   8.125 -0.1564 -0.1125 -0.5680
  118MOL0     C15460   1.068   3.619   8.002  0.2107  0.2635 -0.4665
  118MOL0     N15461   1.060   3.533   7.879 -0.6126  0.2012 -0.1320
  118MOL0     C15462   0.948   3.523   7.793  0.4380  0.1769  0.1505
  118MOL0     C15463   0.994   3.457   7.687  0.7424 -0.6409 -0.1448
  118MOL0     C15464   0.921   3.461   7.557  0.1049 -0.4178 -0.5920
  118MOL0     C15465   0.962   3.332   7.486  0.3382 -0.0953  0.0337
  118MOL0     C15466   0.918   3.328   7.337 -0.8427 -1.3661 -0.4119
  118MOL0     C15467   0.766   3.314   7.310 -0.1506  0.4373 -0.7193
  118MOL0     O15468   0.719   3.207   7.398 -0.4676  0.3057  0.6276
  118MOL0     C15469   0.593   3.158   7.378  0.2625 -1.0516 -0.5033
  118MOL0     C15470   0.507   3.193   7.275 -0.9454 -0.3639  0.0001
  118MOL0     C15471   0.376   3.144   7.268  0.0436  0.1688  1.4029
  118MOL0     C15472   0.336   3.036   7.357 -0.1582 -0.3846  0.1730
  118MOL0     C15473   0.203   2.978   7.339 -0.0171 -0.0543  0.0366
  118MOL0     O15474   0.139   3.018   7.231  0.3354  0.4627  0.2007
  118MOL0     C15475   0.036   2.941   7.185  0.2738  1.0281  0.4858
  118MOL0     C15476  -0.089   3.009   7.156 -1.5457  0.1849 -0.4686
  118MOL0     C15477  -0.196   2.939   7.110  0.0251  0.6543  0.3621
  118MOL0     C15478  -0.198   2.799   7.097 -1.0859 -0.7368 -0.4826
  118MOL0     O15479  -0.303   2.724   7.063  0.5510 -0.6724  0.2468
  118MOL0     C15480  -0.415   2.789   7.007  0.9450  0.6660 -0.4887
  118MOL0     C15481  -0.464   2.677   6.909  1.0038  0.2218  0.0763
  118MOL0     C15482  -0.584   2.720   6.825 -0.0863 -0.2921 -0.1301
  118MOL0     C15483  -0.643   2.596   6.743 -0.2538  0.4953  0.8584
  118MOL0     C15484  -0.775   2.644   6.672  0.5660  0.5581  1.1214
  118MOL0     C15485  -0.891   2.609   6.761  0.7348  0.0576  0.1581
  118MOL0     C15486  -0.930   2.464   6.750  0.0514  0.0275  0.0770
  118MOL0     C15487  -1.041   2.407   6.841  0.2940 -0.5421  0.3194
  118MOL0    Cl15488  -1.033   2.233   6.847  0.0225 -0.2944  0.0061
  118MOL0     C15489  -0.081   2.732   7.128 -0.0396  0.4617  0.4041
  118MOL0     C15490   0.039   2.800   7.175 -0.3942 -0.5499  0.1465
  118MOL0     O15491   0.157   2.899   7.419 -0.9643  0.7466 -0.1951
  118MOL0     C15492   0.419   3.007   7.471  0.2354  0.4026  0.3779
  118MOL0     C15493   0.542   3.072   7.481 -0.2270 -1.0674 -0.4393
  118MOL0     N15494   1.125   3.410   7.709  0.1036 -0.7350  0.4678
  118MOL0     N15495   1.169   3.457   7.822  0.7082 -0.0527 -0.1443
  118MOL0     C15496   1.868   3.715   8.318  0.1731 -0.3961 -0.0569
  118MOL0     C15497   1.986   3.751   8.252 -0.8953  0.9961 -0.8909
  118MOL0     C15498   2.445   3.732   8.196  0.1342  0.6394  0.7616
  118MOL0     C15499   2.444   3.819   8.081  0.4035  0.0662 -0.3816
  118MOL0     C15500   2.563   3.869   8.037  0.0343 -0.9424 -0.7686
  118MOL0     C15501   2.683   3.834   8.109  0.1309  0.4266  0.6593
  118MOL0     O15502   2.801   3.868   8.058 -0.1780  0.5030 -0.5958
  118MOL0     C15503   2.819   3.996   8.010 -0.5277  0.1879 -0.3689
  118MOL0     C15504   2.920   4.065   8.088 -0.5055 -0.3093 -0.2076
  118MOL0     C15505   3.056   3.996   8.092  0.2233  0.3910  0.0766
  118MOL0     C15506   3.156   4.067   8.178 -0.4983 -0.7018 -0.7344
  118MOL0     C15507   3.193   4.193   8.120 -0.0680  0.0020 -0.0168
  118MOL0     C15508   3.238   4.299   8.093 -0.7215  0.0340  0.6208
  118MOL0     C15509   2.686   3.745   8.215 -0.5803 -0.6104 -0.0965
  118MOL0     C15510   2.566   3.692   8.258 -0.2652 -0.3902 -0.3984
  118MOL0     H15511   2.114   3.438   8.220 -2.5055 -1.9367  1.3753
  118MOL0     H15512   1.901   3.390   8.340 -1.7721  0.8430  0.9019
  118MOL0     H15513   1.737   3.375   8.459 -1.2794 -2.0966  0.0891
  118MOL0     H15514   1.653   3.416   8.301  0.6281 -2.8763  0.1690
  118MOL0     H15515   1.509   3.506   8.550 -0.2273 -0.8708  0.6806
  118MOL0     H15516   1.530   3.343   8.547  1.0305  1.1673  1.4109
  118MOL0     H15517   1.316   3.429   8.434  1.2112  3.0882  5.7911
  118MOL0     H15518   1.410   3.340   8.320  0.0014 -1.1637  2.8115
  118MOL0     H15519   1.469   3.622   8.331  0.6254  0.1105 -1.1920
  118MOL0     H15520   1.464   3.519   8.185 -3.8449 -1.9999 -2.2904
  118MOL0     H15521   1.273   3.680   8.180 -2.1964 -0.2972 -1.0238
  118MOL0     H15522   1.205   3.626   8.335 -1.0462  0.7272 -1.1615
  118MOL0     H15523   1.147   3.411   8.254 -2.8791  1.1976  0.6510
  118MOL0     H15524   1.236   3.446   8.097 -1.7090  0.7972 -0.9771
  118MOL0     H15525   0.980   3.453   8.095 -0.6839  0.2177 -0.4563
  118MOL0     H15526   1.007   3.611   8.200  4.8296  0.8250  1.1703
  118MOL0     H15527   1.170   3.660   8.006  1.7115 -2.8676 -2.4206
  118MOL0     H15528   0.995   3.699   7.989  0.4090  0.4245 -0.5912
  118MOL0     H15529   0.859   3.584   7.799 -0.6379 -1.2845 -0.3819
  118MOL0     H15530   0.953   3.549   7.500 -2.3344 -0.3377 -1.9637
  118MOL0     H15531   0.815   3.478   7.578  0.5063  1.0941  0.3848
  118MOL0     H15532   0.908   3.255   7.542  1.6335 -1.0329  0.0195
  118MOL0     H15533   1.069   3.310   7.485  0.3121 -0.3351 -1.7186
  118MOL0     H15534   0.949   3.420   7.285  0.3310 -0.6178  1.4782
  118MOL0     H15535   0.980   3.254   7.287  4.0935  2.0312 -0.0776
  118MOL0     H15536   0.761   3.281   7.206  0.6089 -0.8015 -0.3764
  118MOL0     H15537   0.696   3.397   7.328 -2.7633 -2.1846  2.7197
  118MOL0     H15538   0.531   3.262   7.195 -3.3825  0.0645 -0.4434
  118MOL0     H15539   0.318   3.187   7.186 -0.3121 -0.7858  1.1486
  118MOL0     H15540  -0.090   3.118   7.156  3.2634  0.4800 -1.0883
  118MOL0     H15541  -0.284   3.002   7.100  2.3523  4.1934  0.0123
  118MOL0     H15542  -0.387   2.881   6.954 -2.8731  1.7234 -0.9762
  118MOL0     H15543  -0.486   2.814   7.085  2.4734 -0.4195  1.3424
  118MOL0     H15544  -0.495   2.586   6.961  1.1730  0.2249  0.1806
  118MOL0     H15545  -0.386   2.649   6.839 -1.7640 -1.5651 -2.5538
  118MOL0     H15546  -0.555   2.805   6.761  0.3274  0.0747  0.5324
  118MOL0     H15547  -0.658   2.752   6.899  1.5433 -1.9784  2.3531
  118MOL0     H15548  -0.569   2.579   6.664 -0.1831 -2.7063  1.5091
  118MOL0     H15549  -0.652   2.503   6.801  1.7611 -0.5401 -0.3866
  118MOL0     H15550  -0.784   2.598   6.573  1.9568 -1.5075  1.8913
  118MOL0     H15551  -0.771   2.752   6.657  1.4157  0.4352  0.3743
  118MOL0     H15552  -0.973   2.674   6.731 -0.6559 -2.9152 -3.2849
  118MOL0     H15553  -0.870   2.624   6.868 -0.5245 -0.4110  0.4895
  118MOL0     H15554  -0.959   2.463   6.644  0.4201  3.0839 -0.1196
  118MOL0     H15555  -0.845   2.396   6.766 -0.0376  0.1103  0.9436
  118MOL0     H15556  -1.136   2.435   6.796  0.8925  0.1661 -0.5313
  118MOL0     H15557  -1.024   2.458   6.936  2.0882 -0.5017  0.0213
  118MOL0     H15558  -0.081   2.624   7.131 -1.2527  0.4662  2.2098
  118MOL0     H15559   0.136   2.756   7.198 -0.3779 -0.0765  1.0355
  118MOL0     H15560   0.381   2.946   7.553  0.8876  0.0886  0.4528
  118MOL0     H15561   0.591   3.062   7.577  1.8588 -0.1939 -1.3420
  118MOL0     H15562   1.791   3.790   8.336 -0.4873 -1.3109  1.0418
  118MOL0     H15563   1.998   3.854   8.218 -1.2180  1.5725  0.6653
  118MOL0     H15564   2.351   3.842   8.029 -0.0682 -0.8971  0.0093
  118MOL0     H15565   2.557   3.936   7.952 -2.5019 -1.8502 -1.4041
  118MOL0     H15566   2.727   4.055   8.017  1.0452  2.6737  0.5589
  118MOL0     H15567   2.847   3.999   7.904  1.0415  0.5615  0.0359
  118MOL0     H15568   2.934   4.163   8.041  0.2026 -0.1473  0.3300
  118MOL0     H15569   2.880   4.080   8.189  1.4903 -1.9459  0.8921
  118MOL0     H15570   3.101   4.001   7.992 -1.2973  4.6049 -0.6097
  118MOL0     H15571   3.048   3.895   8.132 -1.8194 -0.0912 -1.3916
  118MOL0     H15572   3.125   4.086   8.281 -0.2693  1.4315 -1.0180
  118MOL0     H15573   3.249   4.010   8.187 -0.1725 -0.1136 -0.2592
  118MOL0     H15574   3.276   4.396   8.066 -0.9476 -0.3105 -0.9894
  118MOL0     H15575   2.782   3.734   8.264  0.5953  0.1422 -2.1176
  118MOL0     H15576   2.567   3.633   8.349 -0.5772  0.4411  0.1589
  119MOL0     O15577   9.934   4.260  11.040  0.6341 -0.5990  0.8508
  119MOL0     C15578   9.988   4.229  10.935  0.4292 -0.3640  0.4496
  119MOL0     O15579   9.941   4.266  10.809  0.1256  0.1922 -0.1735
  119MOL0     C15580   9.815   4.314  10.782  0.2613  0.1848 -0.3622
  119MOL0     C15581   9.803   4.422  10.691 -0.9159 -0.5985  0.1633
  119MOL0     C15582   9.674   4.468  10.665  0.8312 -0.2119 -0.1208
  119MOL0     C15583   9.562   4.421  10.735 -0.0184 -0.4907 -0.2631
  119MOL0     O15584   9.441   4.485  10.719 -0.5478  0.3564 -0.1297
  119MOL0     C15585   9.337   4.471  10.823  0.2822 -1.0303  0.3879
  119MOL0     C15586   9.212   4.553  10.779  0.1148 -0.0479 -0.1292
  119MOL0     C15587   9.099   4.545  10.876 -0.5685 -0.7450 -0.3523
  119MOL0     C15588   9.137   4.608  11.018  0.5843  0.0645 -0.0107
  119MOL0     C15589   9.042   4.561  11.134  0.0580  0.0654  0.4400
  119MOL0     C15590   8.894   4.611  11.110  0.1091 -0.2384  0.6548
  119MOL0     C15591   8.810   4.602  11.242 -0.8071  0.4477  0.0766
  119MOL0     C15592   8.656   4.621  11.215 -0.1311 -0.2360 -0.2655
  119MOL0     N15593   8.622   4.762  11.172 -0.0527  0.4082  0.1998
  119MOL0     C15594   8.585   4.864  11.244 -0.2623 -0.5169 -0.4749
  119MOL0     C15595   8.553   4.965  11.162 -0.1106 -0.4556 -0.2142
  119MOL0     C15596   8.502   5.097  11.223  0.0487 -0.1315  0.5667
  119MOL0     C15597   8.351   5.096  11.260  0.0019  0.5091  0.3379
  119MOL0     C15598   8.245   5.107  11.145 -0.0198 -0.4372 -0.0895
  119MOL0     C15599   8.107   5.058  11.179 -0.1855  0.0349 -0.2367
  119MOL0     O15600   8.082   5.120  11.303 -0.3498 -0.4861 -0.0482
  119MOL0     C15601   7.956   5.165  11.321 -0.0973 -0.3881  0.0957
  119MOL0     C15602   7.942   5.292  11.375  0.1169  0.0979  0.6401
  119MOL0     C15603   7.810   5.349  11.395 -0.7222  0.1316 -0.1804
  119MOL0     C15604   7.700   5.274  11.373  0.2077 -0.7507  1.0921
  119MOL0     C15605   7.565   5.334  11.407  0.4560 -0.2069 -0.0907
  119MOL0     O15606   7.557   5.470  11.419  0.5043  0.6293 -0.6022
  119MOL0     C15607   7.444   5.520  11.480  0.4195  0.0976  1.2385
  119MOL0     C15608   7.414   5.515  11.613  0.6323 -1.0423 -1.2055
  119MOL0     C15609   7.306   5.586  11.675  0.3802  0.0185  0.1480
  119MOL0     C15610   7.215   5.664  11.593 -1.1274  0.1263  0.1018
  119MOL0     O15611   7.106   5.738  11.634  0.6706  0.6532  0.3099
  119MOL0     C15612   7.062   5.714  11.769  0.2006  0.1869 -0.4829
  119MOL0     C15613   6.938   5.798  11.786  0.6370 -0.8669 -0.3503
  119MOL0     C15614   6.850   5.767  11.903 -0.0063  0.3487 -0.1261
  119MOL0     C15615   6.710   5.835  11.887 -0.8001 -0.1451  0.0581
  119MOL0     C15616   6.622   5.809  12.003 -0.1528  0.4037 -0.2124
  119MOL0     C15617   6.501   5.903  12.025  0.5377  0.8677  0.5147
  119MOL0     C15618   6.436   5.871  12.162 -0.0371 -0.2052  0.2419
  119MOL0     C15619   6.321   5.965  12.184  0.0213  0.0345 -0.5243
  119MOL0    Cl15620   6.201   5.893  12.295  0.2362 -0.3062 -0.3161
  119MOL0     C15621   7.241   5.669  11.459 -0.0984 -0.4301  0.2734
  119MOL0     C15622   7.346   5.594  11.402  0.2585  0.3271  0.1647
  119MOL0     O15623   7.472   5.254  11.382  0.7623 -0.5805 -0.3950
  119MOL0     C15624   7.720   5.146  11.323  0.0198  1.1204 -0.3656
  119MOL0     C15625   7.845   5.096  11.293  0.2341  0.1403 -0.2785
  119MOL0     N15626   8.580   4.927  11.034 -0.1008  0.0370 -0.4278
  119MOL0     N15627   8.625   4.807  11.043  0.4922 -0.6536  0.0119
  119MOL0     C15628   9.578   4.323  10.831 -0.0304  0.2434 -0.3158
  119MOL0     C15629   9.702   4.264  10.849 -0.4236  0.2917 -0.1135
  119MOL0     C15630  10.124   4.173  10.942  0.1758  0.3792  0.5511
  119MOL0     C15631  10.172   4.114  11.061 -0.1817  0.5898  0.3477
  119MOL0     C15632  10.301   4.053  11.071  0.5817 -1.0111  0.9828
  119MOL0     C15633  10.385   4.063  10.957  0.6957  0.5918  0.1362
  119MOL0     O15634  10.507   4.000  10.972  0.0666 -1.0724  0.6649
  119MOL0     C15635  10.617   4.030  10.876 -0.3961  0.0450 -0.0139
  119MOL0     C15636  10.744   3.956  10.911 -0.3034 -0.2723  0.4502
  119MOL0     C15637  10.782   3.977  11.054  0.4248 -0.3548 -0.5439
  119MOL0     C15638  10.937   3.980  11.081 -0.2812  0.1406 -0.5131
  119MOL0     C15639  11.001   3.853  11.055 -0.4465  1.2433 -0.4542
  119MOL0     C15640  11.080   3.759  11.032  0.0559 -0.6754  0.3384
  119MOL0     C15641  10.343   4.122  10.840  0.0267  0.1530 -0.3604
  119MOL0     C15642  10.213   4.173  10.833 -0.9474 -0.3260 -0.6838
  119MOL0     H15643   9.889   4.464  10.641 -1.7020 -2.8391 -3.4077
  119MOL0     H15644   9.647   4.540  10.588 -1.5540 -0.8554  0.0466
  119MOL0     H15645   9.377   4.499  10.920 -2.6941  1.5734  1.0149
  119MOL0     H15646   9.305   4.367  10.811 -1.8633 -0.2538 -1.1600
  119MOL0     H15647   9.179   4.516  10.682  0.0850 -0.1664 -0.0759
  119MOL0     H15648   9.231   4.659  10.762 -1.9735  0.3479 -0.3245
  119MOL0     H15649   9.070   4.440  10.878 -0.7110 -0.7034 -0.1877
  119MOL0     H15650   9.012   4.604  10.844  0.1783  1.9967  2.1655
  119MOL0     H15651   9.242   4.594  11.049  0.2742  1.2964  1.7309
  119MOL0     H15652   9.123   4.716  11.009  0.7663  0.1648  0.8630
  119MOL0     H15653   9.077   4.622  11.217 -0.2333  3.8180 -1.9415
  119MOL0     H15654   9.058   4.453  11.136  0.5609  0.0562 -1.4634
  119MOL0     H15655   8.844   4.543  11.040 -2.1228 -0.9245  2.8001
  119MOL0     H15656   8.876   4.714  11.081 -0.4113 -1.0407 -2.1880
  119MOL0     H15657   8.827   4.506  11.292  2.5469  1.1485  0.5321
  119MOL0     H15658   8.844   4.673  11.319 -1.0616  2.1951 -1.3575
  119MOL0     H15659   8.607   4.602  11.311 -0.3165  1.3956 -0.0068
  119MOL0     H15660   8.611   4.545  11.149  1.4569 -1.1121 -0.3713
  119MOL0     H15661   8.577   4.865  11.352  0.5673 -0.3238 -0.4079
  119MOL0     H15662   8.525   5.175  11.151 -1.2950  0.4335  0.7102
  119MOL0     H15663   8.568   5.112  11.309  3.4233 -0.7122 -1.7381
  119MOL0     H15664   8.339   5.187  11.320 -2.2294 -2.1597  4.4382
  119MOL0     H15665   8.336   5.009  11.326 -2.7514  2.7370  2.9414
  119MOL0     H15666   8.250   5.208  11.104  0.5672  0.3127  1.7135
  119MOL0     H15667   8.285   5.037  11.071 -0.4483  0.1653 -0.9039
  119MOL0     H15668   8.100   4.952  11.204 -0.3313  0.3514  1.1509
  119MOL0     H15669   8.041   5.091  11.098  1.9797  1.5073 -1.4951
  119MOL0     H15670   8.031   5.355  11.382 -0.4590  1.1778 -1.1008
  119MOL0     H15671   7.802   5.455  11.414 -0.7951 -0.0188  0.6774
  119MOL0     H15672   7.486   5.473  11.682 -0.5258  0.0226  0.7361
  119MOL0     H15673   7.287   5.580  11.782 -0.6884 -0.7866 -0.0682
  119MOL0     H15674   7.144   5.749  11.834 -0.7887 -0.3124  1.0885
  119MOL0     H15675   7.029   5.610  11.779 -0.8971  0.4746 -0.9762
  119MOL0     H15676   6.875   5.784  11.697 -2.1232  2.1959  0.9166
  119MOL0     H15677   6.970   5.903  11.780  0.0148 -0.6954 -0.7701
  119MOL0     H15678   6.899   5.807  11.992  0.8635 -1.0815  0.0676
  119MOL0     H15679   6.843   5.659  11.915  0.7592  0.3429  0.3164
  119MOL0     H15680   6.732   5.942  11.878  2.5800 -0.5155  2.1545
  119MOL0     H15681   6.658   5.807  11.795 -1.4566  0.6246  0.1786
  119MOL0     H15682   6.687   5.817  12.091 -0.8164  1.3709  0.2087
  119MOL0     H15683   6.584   5.707  11.997 -0.7698  0.4841  1.5493
  119MOL0     H15684   6.426   5.885  11.948  0.4770  2.9671  0.0395
  119MOL0     H15685   6.545   6.003  12.020  0.6680  0.8008  0.3194
  119MOL0     H15686   6.396   5.770  12.151  0.7946 -0.6656  1.3388
  119MOL0     H15687   6.506   5.861  12.245  1.0226 -2.7184 -0.8677
  119MOL0     H15688   6.272   6.006  12.095 -2.2733  0.7787  0.9926
  119MOL0     H15689   6.363   6.051  12.236  1.9352 -1.6852  0.9495
  119MOL0     H15690   7.185   5.725  11.386  1.4300 -1.0845 -1.4700
  119MOL0     H15691   7.348   5.617  11.296 -1.8624  0.6121  0.1307
  119MOL0     H15692   7.635   5.087  11.292  0.2945  0.1692  0.6518
  119MOL0     H15693   7.859   4.996  11.255 -1.5177  0.3557 -1.5818
  119MOL0     H15694   9.493   4.295  10.892  0.2521 -0.8251 -0.3900
  119MOL0     H15695   9.702   4.192  10.930  0.3648 -0.2506 -0.5777
  119MOL0     H15696  10.107   4.102  11.147 -2.0776  1.7697 -0.8516
  119MOL0     H15697  10.328   4.009  11.167  2.6924 -0.0207  0.9093
  119MOL0     H15698  10.640   4.136  10.883 -0.9718  0.1520  0.4021
  119MOL0     H15699  10.600   4.011  10.770 -0.1060  0.5362 -0.1475
  119MOL0     H15700  10.721   3.849  10.906 -0.1417 -0.5510  3.6300
  119MOL0     H15701  10.822   3.971  10.836 -0.9052 -2.1520 -0.6216
  119MOL0     H15702  10.732   3.893  11.103 -2.6379  0.3747 -2.1389
  119MOL0     H15703  10.734   4.064  11.101 -2.0393 -2.5079  1.2930
  119MOL0     H15704  10.977   4.061  11.020  0.7083 -0.7629 -1.0991
  119MOL0     H15705  10.953   4.012  11.184 -0.1664  1.4281 -0.9192
  119MOL0     H15706  11.168   3.698  11.018  0.7521  0.3393  0.1442
  119MOL0     H15707  10.405   4.119  10.751 -1.0777  0.3281 -1.1544
  119MOL0     H15708  10.171   4.190  10.735 -0.6113 -2.7884 -1.3083
  120MOL0     O15709   2.030   3.391   7.194  0.0714 -0.4311  0.1704
  120MOL0     C15710   2.104   3.460   7.260  0.1827  0.1672 -0.3530
  120MOL0     O15711   2.077   3.506   7.386 -0.0912  0.4934  0.5878
  120MOL0     C15712   1.953   3.491   7.430  0.1077 -0.0827 -0.8793
  120MOL0     C15713   1.921   3.389   7.518  0.2298  0.3393 -0.1161
  120MOL0     C15714   1.789   3.384   7.561 -0.8135 -0.3272 -1.2054
  120MOL0     C15715   1.699   3.487   7.540  0.4379  0.2675 -0.0860
  120MOL0     O15716   1.571   3.455   7.585 -0.3635 -0.1997  0.0324
  120MOL0     C15717   1.461   3.551   7.596  0.2317  0.5634 -0.1160
  120MOL0     C15718   1.376   3.575   7.469  1.1292  0.0148  0.0898
  120MOL0     C15719   1.351   3.440   7.397  0.6348 -0.2845  0.0582
  120MOL0     C15720   1.295   3.468   7.259 -0.0015  0.3099  0.3518
  120MOL0     C15721   1.273   3.335   7.181 -1.0507 -0.3706  0.2849
  120MOL0     C15722   1.256   3.359   7.030 -0.5030  0.1402 -0.3624
  120MOL0     C15723   1.107   3.389   7.006 -0.8963 -0.1620 -0.2069
  120MOL0     C15724   1.098   3.380   6.856 -0.2064  0.0817 -0.0494
  120MOL0     N15725   0.966   3.429   6.823  0.5689  0.7826 -0.3516
  120MOL0     C15726   0.858   3.351   6.789  0.3115 -0.4735 -0.1556
  120MOL0     C15727   0.750   3.437   6.790 -0.2612 -0.5277  0.9439
  120MOL0     C15728   0.603   3.402   6.781  0.5441 -0.2725  0.2957
  120MOL0     C15729   0.532   3.449   6.660 -0.0552  0.0395 -0.6036
  120MOL0     C15730   0.384   3.402   6.679 -0.2882 -0.2376  0.3096
  120MOL0     C15731   0.304   3.455   6.556  0.3483  0.1659 -0.7590
  120MOL0     O15732   0.166   3.454   6.586  0.5174  0.4161 -0.0713
  120MOL0     C15733   0.072   3.428   6.494  0.4317 -0.8806  0.3070
  120MOL0     C15734   0.094   3.445   6.353  0.1930  0.7958  0.0059
  120MOL0     C15735   0.002   3.422   6.259 -0.2836 -0.2512  0.0942
  120MOL0     C15736  -0.118   3.361   6.299 -0.5652 -0.1128 -0.0571
  120MOL0     C15737  -0.222   3.323   6.200 -0.2928  0.3431  0.3199
  120MOL0     O15738  -0.352   3.298   6.235 -1.0426 -0.4100  0.2953
  120MOL0     C15739  -0.417   3.210   6.164 -0.5881  0.8939 -0.1746
  120MOL0     C15740  -0.371   3.075   6.153 -0.8041  0.6484 -0.4275
  120MOL0     C15741  -0.448   2.987   6.084 -0.1009  0.3730 -0.8537
  120MOL0     C15742  -0.570   3.026   6.030 -0.0019 -0.5529  0.5114
  120MOL0     O15743  -0.669   2.953   5.973  0.0952  0.2990 -0.0004
  120MOL0     C15744  -0.651   2.810   5.956  0.0717 -0.7233 -0.4661
  120MOL0     C15745  -0.774   2.745   5.883 -0.6656 -0.2903  0.7022
  120MOL0     C15746  -0.920   2.760   5.940  0.0855  0.1948 -0.3163
  120MOL0     C15747  -1.022   2.691   5.858  0.7618 -0.0464  0.4953
  120MOL0     C15748  -1.161   2.717   5.916  0.2768  1.2234 -0.3397
  120MOL0     C15749  -1.261   2.658   5.818  0.1445 -0.1616  0.5315
  120MOL0     C15750  -1.401   2.653   5.876 -0.1276  0.3264 -0.1686
  120MOL0     C15751  -1.500   2.593   5.777 -0.0566 -0.1560  0.3224
  120MOL0    Cl15752  -1.667   2.582   5.851 -0.2050  0.1087 -0.0785
  120MOL0     C15753  -0.612   3.164   6.047 -0.8173  0.6149  0.0288
  120MOL0     C15754  -0.536   3.254   6.109  0.3050  0.2723 -0.3336
  120MOL0     O15755  -0.178   3.318   6.084 -0.1778 -0.1333  0.6058
  120MOL0     C15756  -0.150   3.347   6.439 -0.5739 -0.1244 -0.2489
  120MOL0     C15757  -0.052   3.377   6.532 -0.1481 -0.2993 -0.2875
  120MOL0     N15758   0.804   3.563   6.818  0.1608 -0.1422 -0.2421
  120MOL0     N15759   0.929   3.552   6.844  0.4634  0.0550 -0.2398
  120MOL0     C15760   1.729   3.587   7.452  0.3525 -0.7712  0.0645
  120MOL0     C15761   1.857   3.592   7.403  0.1254 -0.4916 -0.4611
  120MOL0     C15762   2.225   3.519   7.196 -0.5516 -0.6746  0.4767
  120MOL0     C15763   2.219   3.531   7.059 -0.9714 -0.4037 -0.4780
  120MOL0     C15764   2.342   3.570   6.996 -0.7498 -0.6545 -0.0648
  120MOL0     C15765   2.461   3.602   7.060 -0.9776 -0.1819  0.4675
  120MOL0     O15766   2.569   3.652   6.991 -0.0179  0.4412  0.4406
  120MOL0     C15767   2.703   3.656   7.045  0.3449 -0.9534  0.3402
  120MOL0     C15768   2.808   3.656   6.935  0.1823  0.2837  0.3140
  120MOL0     C15769   2.945   3.658   7.000 -0.5089  0.6831  0.2071
  120MOL0     C15770   3.046   3.742   6.924 -0.1024 -0.3229  1.0698
  120MOL0     C15771   3.045   3.708   6.777 -1.1387 -0.5346 -0.2775
  120MOL0     C15772   3.061   3.686   6.657 -0.0246  0.1419 -0.4142
  120MOL0     C15773   2.455   3.590   7.196 -0.5282 -0.5766 -0.8705
  120MOL0     C15774   2.339   3.555   7.272 -0.0229 -0.6653  0.1831
  120MOL0     H15775   1.994   3.315   7.549  2.8441  2.6471 -0.3363
  120MOL0     H15776   1.760   3.304   7.628 -2.0849  0.9465 -0.1690
  120MOL0     H15777   1.502   3.649   7.623  2.0391  0.0824 -0.9991
  120MOL0     H15778   1.400   3.508   7.676  1.9226  1.7304  1.9049
  120MOL0     H15779   1.429   3.640   7.399  5.7668 -0.9539  2.3087
  120MOL0     H15780   1.288   3.632   7.499  0.6655 -0.2867 -0.6540
  120MOL0     H15781   1.273   3.384   7.450  0.0308  0.9511  0.5276
  120MOL0     H15782   1.443   3.383   7.391  0.8156  0.1221 -1.5387
  120MOL0     H15783   1.196   3.515   7.263 -0.3005 -0.3055  0.4220
  120MOL0     H15784   1.367   3.529   7.205 -0.8958  1.3295  0.2853
  120MOL0     H15785   1.185   3.286   7.225  0.0641 -0.0871  3.0633
  120MOL0     H15786   1.359   3.270   7.194  0.1252  0.1350 -3.8012
  120MOL0     H15787   1.284   3.265   6.980  0.7852  0.5467 -0.4422
  120MOL0     H15788   1.325   3.434   6.991 -0.3875  0.4244  0.3709
  120MOL0     H15789   1.038   3.325   7.061  0.1794 -2.9555 -1.8821
  120MOL0     H15790   1.085   3.491   7.038  1.2554  0.7939 -1.5321
  120MOL0     H15791   1.111   3.279   6.816  2.4266  0.4436 -0.2639
  120MOL0     H15792   1.168   3.450   6.810 -0.7465  0.8838  0.3072
  120MOL0     H15793   0.862   3.244   6.773  0.0278 -0.1829 -2.4937
  120MOL0     H15794   0.556   3.432   6.875  2.7511 -0.0806  1.3881
  120MOL0     H15795   0.602   3.293   6.783  1.1165 -0.2705  1.1393
  120MOL0     H15796   0.580   3.408   6.571 -0.2167 -1.1063 -0.1722
  120MOL0     H15797   0.544   3.557   6.643 -2.9560  0.2297 -2.0910
  120MOL0     H15798   0.381   3.294   6.698 -2.1320 -0.7483 -2.2571
  120MOL0     H15799   0.348   3.459   6.765  0.4644 -0.1038  0.5429
  120MOL0     H15800   0.332   3.389   6.473  3.1759  0.6899 -0.3226
  120MOL0     H15801   0.329   3.559   6.534  1.2072  0.2093  0.3881
  120MOL0     H15802   0.191   3.472   6.315  0.1822 -0.7006 -1.1839
  120MOL0     H15803   0.017   3.436   6.152  1.3712 -0.6384  0.2498
  120MOL0     H15804  -0.271   3.051   6.189 -1.1094 -1.5095 -0.8640
  120MOL0     H15805  -0.411   2.885   6.090  0.4860  0.6058 -0.5213
  120MOL0     H15806  -0.645   2.768   6.057 -4.3484  1.3915  0.9070
  120MOL0     H15807  -0.562   2.797   5.894  2.5811 -1.5242  2.9888
  120MOL0     H15808  -0.746   2.639   5.883 -0.4394 -0.2355  1.3116
  120MOL0     H15809  -0.761   2.782   5.781  3.4367 -0.1403  1.0986
  120MOL0     H15810  -0.944   2.865   5.959 -0.6933 -0.0324  0.0008
  120MOL0     H15811  -0.929   2.723   6.043 -0.8990  1.0147 -0.1008
  120MOL0     H15812  -1.013   2.722   5.753  2.2728  1.3040  0.9811
  120MOL0     H15813  -0.994   2.585   5.860 -1.5754 -0.7756  4.3334
  120MOL0     H15814  -1.174   2.825   5.914 -1.0896  1.0914 -3.1224
  120MOL0     H15815  -1.177   2.671   6.015 -0.5883 -3.2216 -2.2962
  120MOL0     H15816  -1.236   2.552   5.806  0.6969 -0.1339  1.3863
  120MOL0     H15817  -1.242   2.702   5.719  1.8411  0.3138  1.0398
  120MOL0     H15818  -1.405   2.596   5.970 -2.9243 -1.0359 -0.9705
  120MOL0     H15819  -1.439   2.755   5.887  0.0194  0.5570 -1.6542
  120MOL0     H15820  -1.454   2.499   5.746  1.1796  0.6853 -0.5380
  120MOL0     H15821  -1.503   2.662   5.692 -2.9009 -0.6560 -0.0787
  120MOL0     H15822  -0.706   3.189   5.997 -1.5625 -0.7964  0.6689
  120MOL0     H15823  -0.557   3.360   6.120 -0.2135 -0.0010  1.9952
  120MOL0     H15824  -0.249   3.308   6.461 -1.0255 -0.4556 -2.6617
  120MOL0     H15825  -0.059   3.363   6.640  0.4835 -2.4849 -0.4929
  120MOL0     H15826   1.659   3.664   7.423  1.1742  0.9257  2.2772
  120MOL0     H15827   1.891   3.673   7.338  0.1598 -1.5722 -1.8287
  120MOL0     H15828   2.136   3.504   6.996 -1.6841  1.3061 -0.3327
  120MOL0     H15829   2.328   3.588   6.890 -2.4072  2.1516  0.5003
  120MOL0     H15830   2.721   3.571   7.111  2.1310  1.2052  2.8379
  120MOL0     H15831   2.722   3.746   7.104  2.7835 -0.2156 -1.4275
  120MOL0     H15832   2.794   3.564   6.877  0.5145  1.5284 -1.8341
  120MOL0     H15833   2.795   3.744   6.871 -0.1547  2.0171  2.6279
  120MOL0     H15834   2.996   3.561   7.000 -1.7185  0.0183 -0.2763
  120MOL0     H15835   2.948   3.685   7.106  0.5582  2.0818 -0.1465
  120MOL0     H15836   3.020   3.847   6.940 -2.5117 -0.1692 -2.6402
  120MOL0     H15837   3.150   3.730   6.957  0.0641 -0.3719  0.5325
  120MOL0     H15838   3.084   3.657   6.556  3.5239 -0.4673  0.4250
  120MOL0     H15839   2.531   3.629   7.263 -1.8651 -1.2351  1.1160
  120MOL0     H15840   2.343   3.541   7.380 -0.1804 -3.5892 -0.1102
  121MOL0     O15841  10.899   8.959  11.068 -0.3613 -0.4432  0.2852
  121MOL0     C15842  10.907   8.858  11.136 -0.3429 -0.3979 -0.0468
  121MOL0     O15843  10.811   8.761  11.156 -0.2491  0.2005  0.0584
  121MOL0     C15844  10.692   8.753  11.084 -0.0077  0.7556  0.3337
  121MOL0     C15845  10.612   8.865  11.069 -0.7250  0.1911  0.4948
  121MOL0     C15846  10.484   8.856  11.014 -0.5015 -1.0109 -0.3091
  121MOL0     C15847  10.442   8.735  10.971  1.2117  0.1888  0.4961
  121MOL0     O15848  10.315   8.724  10.916 -0.1124 -0.0414  0.1218
  121MOL0     C15849  10.216   8.649  10.993  0.1873 -0.6554 -0.2514
  121MOL0     C15850  10.093   8.644  10.915 -0.4460 -0.5028  0.3874
  121MOL0     C15851   9.972   8.582  10.977 -0.5933  0.2379  0.1411
  121MOL0     C15852   9.846   8.579  10.887 -0.6462 -0.9637  0.2377
  121MOL0     C15853   9.731   8.525  10.967 -0.3060  0.3325 -0.2821
  121MOL0     C15854   9.605   8.528  10.878  0.2807 -0.4430 -0.4756
  121MOL0     C15855   9.488   8.455  10.945 -0.5124  0.0932 -0.1873
  121MOL0     C15856   9.362   8.478  10.857 -0.4485 -0.2035  0.1425
  121MOL0     N15857   9.260   8.423  10.942  0.2312 -0.3299  0.0493
  121MOL0     C15858   9.220   8.296  10.946 -0.3229  0.9421 -0.7510
  121MOL0     C15859   9.103   8.299  11.020 -0.3845 -0.2656 -0.7658
  121MOL0     C15860   9.027   8.174  11.042  0.5810 -0.1547  0.1133
  121MOL0     C15861   8.917   8.145  10.942  0.0454  0.0707  0.7027
  121MOL0     C15862   8.832   8.266  10.931  0.3652 -0.1984 -0.3613
  121MOL0     C15863   8.709   8.251  10.837 -0.8663 -0.2044 -0.9234
  121MOL0     O15864   8.628   8.136  10.880 -0.5754 -0.2318  0.3510
  121MOL0     C15865   8.494   8.128  10.827 -0.0755 -0.1041 -0.9294
  121MOL0     C15866   8.407   8.031  10.869 -0.2124 -0.1691  0.1214
  121MOL0     C15867   8.284   8.010  10.813 -0.4100  0.7192  0.0034
  121MOL0     C15868   8.245   8.101  10.711  0.3675  0.1057  0.2445
  121MOL0     C15869   8.125   8.073  10.645  0.1552  0.0787 -0.4913
  121MOL0     O15870   8.035   8.016  10.722 -0.6548  0.5030  0.3113
  121MOL0     C15871   7.923   7.974  10.662 -0.2768  0.3086  0.6296
  121MOL0     C15872   7.925   7.861  10.569  0.3464 -0.0440 -0.8047
  121MOL0     C15873   7.811   7.800  10.528  0.7715 -0.5560 -1.1228
  121MOL0     C15874   7.686   7.859  10.557  0.1635 -0.6604 -0.2122
  121MOL0     O15875   7.568   7.817  10.505 -0.0005  0.2334  0.2484
  121MOL0     C15876   7.561   7.737  10.381 -0.2511  0.0687 -0.3303
  121MOL0     C15877   7.421   7.698  10.341 -0.5053 -0.4173 -0.3384
  121MOL0     C15878   7.410   7.546  10.347 -0.1899  0.4584 -0.2872
  121MOL0     C15879   7.269   7.485  10.312  0.2758 -0.3108  0.3352
  121MOL0     C15880   7.239   7.506  10.170 -0.2191 -0.3830 -0.3240
  121MOL0     C15881   7.127   7.412  10.117 -0.5154  0.4673  0.0582
  121MOL0     C15882   6.989   7.432  10.174  0.0181  0.4106  1.3115
  121MOL0     C15883   6.882   7.358  10.088 -0.0571 -0.1260 -0.0414
  121MOL0    Cl15884   6.711   7.400  10.146  0.7148  0.0033 -0.1799
  121MOL0     C15885   7.680   7.971  10.643  0.2488  0.1253  0.2315
  121MOL0     C15886   7.795   8.019  10.697  0.5592 -0.3802  0.8058
  121MOL0     O15887   8.115   8.099  10.525 -0.2437  0.4300  0.7230
  121MOL0     C15888   8.321   8.209  10.676  0.2304 -0.2339  0.6801
  121MOL0     C15889   8.446   8.227  10.740 -0.0377  0.7797 -0.0457
  121MOL0     N15890   9.084   8.424  11.078  0.3986 -0.6558 -0.2430
  121MOL0     N15891   9.183   8.490  11.033  1.0528  0.0143  0.5304
  121MOL0     C15892  10.521   8.621  10.986  0.3700  0.3801 -1.2874
  121MOL0     C15893  10.656   8.624  11.039 -0.2469  0.0259 -0.8867
  121MOL0     C15894  11.028   8.845  11.218  0.0705  0.3045 -0.0648
  121MOL0     C15895  11.048   8.747  11.320  0.7970  0.3766 -0.1970
  121MOL0     C15896  11.159   8.741  11.402 -0.0806  0.0630 -1.2422
  121MOL0     C15897  11.265   8.830  11.383  0.0361  0.0757  0.2671
  121MOL0     O15898  11.368   8.835  11.478  0.1898 -0.0541  0.6839
  121MOL0     C15899  11.491   8.919  11.459  0.7213  0.6836  0.2879
  121MOL0     C15900  11.568   8.878  11.591  1.4268 -0.2234  0.6530
  121MOL0     C15901  11.690   8.976  11.597  0.1069 -0.7097 -0.1143
  121MOL0     C15902  11.771   8.957  11.724 -0.2291 -0.3453  0.9621
  121MOL0     C15903  11.834   9.081  11.764  0.9696 -0.0515  0.2645
  121MOL0     C15904  11.875   9.187  11.800 -0.3652 -0.2414  0.4255
  121MOL0     C15905  11.248   8.926  11.277  0.2445 -1.2402 -1.2383
  121MOL0     C15906  11.136   8.933  11.194  1.0845 -0.4978 -0.0231
  121MOL0     H15907  10.664   8.951  11.112  1.1280 -0.8734  0.4792
  121MOL0     H15908  10.426   8.945  10.992 -1.0462 -1.5348 -1.0531
  121MOL0     H15909  10.185   8.696  11.087 -3.5776  2.0317 -2.5130
  121MOL0     H15910  10.248   8.549  11.023 -2.2738 -1.0199  1.4397
  121MOL0     H15911  10.109   8.586  10.823  0.4707 -2.3202  1.6409
  121MOL0     H15912  10.064   8.746  10.890  0.6334 -0.3853 -0.4865
  121MOL0     H15913   9.961   8.629  11.075  0.4100  1.6716 -0.4101
  121MOL0     H15914   9.996   8.479  11.005 -0.4311  0.4200  0.6876
  121MOL0     H15915   9.814   8.681  10.863  0.9790 -0.3272  0.6507
  121MOL0     H15916   9.858   8.535  10.788 -2.7475  1.5807 -1.2843
  121MOL0     H15917   9.709   8.585  11.056  0.3333  0.9001 -0.4929
  121MOL0     H15918   9.757   8.422  10.992 -1.4419 -0.2195 -1.2626
  121MOL0     H15919   9.632   8.473  10.788  1.1068  0.2881 -0.6878
  121MOL0     H15920   9.575   8.631  10.854 -0.4087 -0.0660  1.7877
  121MOL0     H15921   9.514   8.350  10.959  0.1462  0.2439 -0.2148
  121MOL0     H15922   9.469   8.490  11.047 -0.6622  0.6387 -0.3986
  121MOL0     H15923   9.370   8.429  10.760 -1.7803  1.2025 -0.7188
  121MOL0     H15924   9.340   8.585  10.842 -1.5513 -0.5437 -0.7575
  121MOL0     H15925   9.261   8.216  10.886 -0.7931  1.7106 -2.1722
  121MOL0     H15926   8.992   8.181  11.145  1.3861  1.3563  0.3143
  121MOL0     H15927   9.098   8.092  11.052 -1.1181 -1.5941  0.8217
  121MOL0     H15928   8.862   8.054  10.968 -1.1370 -0.8376 -3.9801
  121MOL0     H15929   8.957   8.139  10.840  1.4405 -1.4161  1.2895
  121MOL0     H15930   8.788   8.301  11.025 -2.1138 -2.5165 -0.5090
  121MOL0     H15931   8.894   8.343  10.884  0.4429 -1.3896 -2.3570
  121MOL0     H15932   8.744   8.260  10.734  0.1760  0.2558 -0.5471
  121MOL0     H15933   8.646   8.339  10.854  0.8700  0.7937  0.7941
  121MOL0     H15934   8.450   7.958  10.937  0.5118  1.6504  1.7123
  121MOL0     H15935   8.235   7.923  10.853  2.8811 -1.3819 -0.1493
  121MOL0     H15936   8.023   7.816  10.559  0.6221 -0.2590  2.0330
  121MOL0     H15937   7.802   7.706  10.474 -3.2739 -0.7844 -0.3416
  121MOL0     H15938   7.619   7.645  10.385  2.6797  1.7754 -0.7219
  121MOL0     H15939   7.608   7.801  10.305 -1.2339 -0.1924 -1.1888
  121MOL0     H15940   7.397   7.740  10.243  0.4602  0.0491 -0.3894
  121MOL0     H15941   7.363   7.734  10.426  0.7976 -0.4577  0.5900
  121MOL0     H15942   7.435   7.505  10.445 -0.4233 -1.9662 -1.1830
  121MOL0     H15943   7.476   7.511  10.267 -1.6313  2.4555 -2.5069
  121MOL0     H15944   7.278   7.377  10.321  0.4461 -0.3632 -0.4196
  121MOL0     H15945   7.200   7.537  10.380  0.2711 -0.5515  0.5163
  121MOL0     H15946   7.319   7.483  10.098 -0.5633  1.2752 -1.2908
  121MOL0     H15947   7.211   7.608  10.144  2.6643  0.7081  0.5206
  121MOL0     H15948   7.142   7.305  10.132 -1.4650  0.2222 -0.6295
  121MOL0     H15949   7.125   7.429  10.009  1.6933 -0.6535 -0.2146
  121MOL0     H15950   6.983   7.406  10.280  3.3860  2.5572  2.1726
  121MOL0     H15951   6.957   7.536  10.165 -2.3325 -0.0627  2.9659
  121MOL0     H15952   6.899   7.250  10.100  1.1344  0.2783  2.7019
  121MOL0     H15953   6.889   7.395   9.986 -0.2974 -1.1045 -0.4246
  121MOL0     H15954   7.580   8.002  10.672 -0.3802 -3.0163  1.9167
  121MOL0     H15955   7.793   8.091  10.779 -2.2612  0.2641  0.2941
  121MOL0     H15956   8.292   8.267  10.589 -0.5747 -0.8969  0.4949
  121MOL0     H15957   8.510   8.309  10.710 -1.4446  1.1513 -2.2743
  121MOL0     H15958  10.479   8.522  10.974 -4.5557  1.5698  2.8928
  121MOL0     H15959  10.718   8.537  11.056 -0.7772 -0.5030 -1.5975
  121MOL0     H15960  10.961   8.684  11.334  0.8604  0.5600  1.0694
  121MOL0     H15961  11.164   8.674  11.487  1.2812 -0.0450 -1.3978
  121MOL0     H15962  11.468   9.026  11.453  0.3446  0.6219  0.5858
  121MOL0     H15963  11.545   8.893  11.367  0.6684  1.8323 -0.0937
  121MOL0     H15964  11.512   8.882  11.685  2.2997 -2.1554  1.3119
  121MOL0     H15965  11.607   8.776  11.585 -0.1201 -0.7984 -0.2054
  121MOL0     H15966  11.658   9.081  11.593 -2.0644 -1.2775  0.7607
  121MOL0     H15967  11.751   8.958  11.509 -1.1250 -1.5003 -0.8419
  121MOL0     H15968  11.711   8.921  11.808  1.1934  0.1719  2.2449
  121MOL0     H15969  11.854   8.886  11.711 -0.9829 -1.0961  0.1729
  121MOL0     H15970  11.911   9.280  11.841  0.3278  0.1284 -0.9567
  121MOL0     H15971  11.323   9.004  11.267  0.9350 -1.8245 -0.7759
  121MOL0     H15972  11.135   9.011  11.118  1.2668  0.3394  0.8182
  122MOL0     O15973   9.197   3.143   7.035 -0.1601  0.5660  0.2147
  122MOL0     C15974   9.159   3.036   7.086  0.1487 -0.4337  0.2129
  122MOL0     O15975   9.028   2.999   7.104 -0.1165  0.3619 -0.2692
  122MOL0     C15976   8.927   3.089   7.114  0.7567  0.2315  0.6778
  122MOL0     C15977   8.941   3.225   7.154  0.1521  0.7925 -0.7760
  122MOL0     C15978   8.827   3.307   7.177  1.4107 -0.3646  1.0272
  122MOL0     C15979   8.699   3.247   7.154 -0.1381 -0.8174 -0.1888
  122MOL0     O15980   8.585   3.317   7.185  0.0631 -0.7183 -0.1129
  122MOL0     C15981   8.595   3.456   7.242  0.9370  0.6993 -0.4889
  122MOL0     C15982   8.449   3.513   7.243  0.7155  0.3097 -0.1243
  122MOL0     C15983   8.444   3.642   7.331 -0.2226  0.3596  0.7039
  122MOL0     C15984   8.305   3.673   7.395  0.0916  1.1647  0.0060
  122MOL0     C15985   8.286   3.817   7.431  0.3566 -0.2006  0.4047
  122MOL0     C15986   8.374   3.851   7.551 -0.0481  0.2090 -0.4154
  122MOL0     C15987   8.375   4.006   7.578  0.2141  0.0009  0.2264
  122MOL0     C15988   8.448   4.034   7.711 -1.0978 -0.8123  0.6665
  122MOL0     N15989   8.596   4.063   7.683  0.0615  0.4299 -0.1851
  122MOL0     C15990   8.691   3.969   7.682 -0.0176  0.1559 -0.1166
  122MOL0     C15991   8.805   4.028   7.654 -0.2351 -0.0393 -1.1438
  122MOL0     C15992   8.940   3.957   7.664  0.3047 -0.1890  0.3078
  122MOL0     C15993   9.028   3.990   7.793  0.2178 -0.5920 -0.2074
  122MOL0     C15994   9.167   3.934   7.800 -1.1925 -0.3799  0.2332
  122MOL0     C15995   9.240   3.953   7.940  0.9642 -0.7599 -0.5165
  122MOL0     O15996   9.245   4.091   7.979  0.2221  0.2240 -0.6519
  122MOL0     C15997   9.146   4.143   8.061  0.1806  0.2686  0.3409
  122MOL0     C15998   9.170   4.278   8.112  0.3652 -0.1439 -1.0244
  122MOL0     C15999   9.095   4.325   8.216  0.5836  0.1665 -0.7168
  122MOL0     C16000   8.988   4.255   8.272  0.2420  0.0432  0.1828
  122MOL0     C16001   8.893   4.315   8.366 -0.4731  0.3919  0.0581
  122MOL0     O16002   8.799   4.229   8.426  0.2122 -0.1224 -0.6096
  122MOL0     C16003   8.671   4.266   8.463 -0.5856 -0.1388  0.4062
  122MOL0     C16004   8.608   4.395   8.440 -0.7498  0.1982  0.4416
  122MOL0     C16005   8.480   4.417   8.496 -0.3687 -0.1286  0.7246
  122MOL0     C16006   8.412   4.323   8.569 -0.1230  0.3145 -0.1846
  122MOL0     O16007   8.282   4.354   8.614 -0.4952  0.6183 -0.1893
  122MOL0     C16008   8.199   4.258   8.675  0.7771  0.7355 -1.0574
  122MOL0     C16009   8.083   4.334   8.741 -1.1000  0.1783  0.2609
  122MOL0     C16010   7.969   4.253   8.793  0.3674 -0.3938  0.8972
  122MOL0     C16011   7.866   4.354   8.849  0.3958 -0.0428 -0.6359
  122MOL0     C16012   7.737   4.282   8.888  1.0425 -0.0874 -0.1348
  122MOL0     C16013   7.636   4.394   8.943  0.1103 -0.2326  0.5426
  122MOL0     C16014   7.512   4.331   9.008 -0.7613  0.1099 -0.2215
  122MOL0     C16015   7.399   4.437   9.022  0.4871 -0.7035 -0.6015
  122MOL0    Cl16016   7.427   4.550   9.160 -0.3056 -0.2784  0.1172
  122MOL0     C16017   8.464   4.189   8.575 -0.6200  0.1160 -0.5949
  122MOL0     C16018   8.599   4.164   8.525  0.8652 -0.2962  0.6582
  122MOL0     O16019   8.898   4.435   8.379  0.4919  0.0976 -0.3581
  122MOL0     C16020   8.958   4.135   8.211  0.8940  0.4181 -0.1641
  122MOL0     C16021   9.040   4.073   8.118  0.1175  0.4386 -0.4971
  122MOL0     N16022   8.776   4.161   7.612  0.0412 -0.0127  0.2796
  122MOL0     N16023   8.652   4.185   7.640  0.1910  0.1647  0.1069
  122MOL0     C16024   8.685   3.119   7.102 -0.4024 -0.1118  0.2088
  122MOL0     C16025   8.791   3.044   7.089 -1.1738 -0.0187  0.2903
  122MOL0     C16026   9.264   2.939   7.125  0.0882 -0.0350  0.1702
  122MOL0     C16027   9.395   2.966   7.093  0.2188 -0.3985  0.4768
  122MOL0     C16028   9.502   2.884   7.138 -0.4424 -1.0020 -0.1702
  122MOL0     C16029   9.477   2.763   7.203  0.1897 -0.2460  0.0915
  122MOL0     O16030   9.573   2.676   7.237  0.9279 -0.1085  0.1662
  122MOL0     C16031   9.712   2.706   7.220 -0.1188  0.1150  0.2076
  122MOL0     C16032   9.781   2.623   7.098  0.0786  0.2961 -0.2189
  122MOL0     C16033   9.717   2.665   6.967 -0.6703  0.1591  0.5909
  122MOL0     C16034   9.791   2.618   6.838  0.3699 -0.1621 -0.4762
  122MOL0     C16035   9.915   2.683   6.823 -0.0413  0.3586  0.3399
  122MOL0     C16036  10.018   2.735   6.826  0.6419 -0.0717 -0.0770
  122MOL0     C16037   9.344   2.731   7.240 -0.5200 -0.2316 -0.1870
  122MOL0     C16038   9.238   2.825   7.199 -0.0961  1.1389 -0.2455
  122MOL0     H16039   9.042   3.258   7.178  0.8601 -0.8756 -1.3312
  122MOL0     H16040   8.844   3.408   7.214  0.4625  0.4506 -0.6745
  122MOL0     H16041   8.657   3.525   7.185  0.0429 -0.0552 -2.4720
  122MOL0     H16042   8.634   3.458   7.344 -1.8486  3.4328  0.6876
  122MOL0     H16043   8.376   3.439   7.274 -0.5884  0.6233 -2.2227
  122MOL0     H16044   8.421   3.536   7.139  4.0217  2.2382 -0.7522
  122MOL0     H16045   8.481   3.730   7.278  1.3652 -0.0490  1.0791
  122MOL0     H16046   8.518   3.634   7.411  2.4269 -1.6029 -1.7478
  122MOL0     H16047   8.227   3.639   7.326  1.5068 -4.5842  0.7608
  122MOL0     H16048   8.282   3.618   7.487 -1.1717  2.2652  0.3714
  122MOL0     H16049   8.186   3.849   7.464  0.7786  3.8889 -1.6705
  122MOL0     H16050   8.315   3.863   7.336 -2.1804 -1.4138 -1.0628
  122MOL0     H16051   8.473   3.812   7.528 -0.5102 -2.4664  1.6641
  122MOL0     H16052   8.331   3.800   7.638  2.5829 -1.3315  0.0933
  122MOL0     H16053   8.420   4.050   7.488 -0.6136  0.0393 -0.1721
  122MOL0     H16054   8.270   4.032   7.586  0.2026 -0.3907  1.4463
  122MOL0     H16055   8.438   3.959   7.791  2.3715 -1.0446  1.0360
  122MOL0     H16056   8.424   4.132   7.753 -1.2754 -0.1038 -1.0509
  122MOL0     H16057   8.664   3.868   7.711  0.1157  0.0354 -0.4097
  122MOL0     H16058   9.003   3.999   7.585 -0.8858  5.6258  1.9951
  122MOL0     H16059   8.924   3.853   7.636  1.6053 -0.9629  2.2524
  122MOL0     H16060   8.980   3.966   7.888 -0.6788  0.6354 -0.3152
  122MOL0     H16061   9.031   4.100   7.789 -2.2454 -0.4385  0.3379
  122MOL0     H16062   9.166   3.828   7.774  1.6483  0.0556 -2.1203
  122MOL0     H16063   9.230   3.983   7.725 -0.6191  0.2685  1.1201
  122MOL0     H16064   9.343   3.921   7.925  1.2057 -0.5885  0.6728
  122MOL0     H16065   9.203   3.884   8.016 -0.0200 -0.2123 -0.4842
  122MOL0     H16066   9.250   4.341   8.073 -1.1630  1.4515 -1.7106
  122MOL0     H16067   9.131   4.415   8.265  3.3835 -1.7700  1.0909
  122MOL0     H16068   8.661   4.467   8.377  0.3016  0.0501  1.1335
  122MOL0     H16069   8.428   4.512   8.484 -0.6790  0.0428  3.0176
  122MOL0     H16070   8.240   4.185   8.745  1.8103  0.0911 -2.3020
  122MOL0     H16071   8.158   4.195   8.595 -0.5385  0.7996 -0.4662
  122MOL0     H16072   8.046   4.419   8.684 -1.2885 -0.3592 -0.4265
  122MOL0     H16073   8.136   4.393   8.817  0.2700  0.6166 -0.9951
  122MOL0     H16074   8.001   4.191   8.877 -0.9115 -0.1250  1.5991
  122MOL0     H16075   7.932   4.191   8.710 -1.9161  1.1636  0.6833
  122MOL0     H16076   7.914   4.406   8.932 -0.7849  4.4465 -2.4896
  122MOL0     H16077   7.840   4.428   8.773 -0.9330  0.5131  0.3169
  122MOL0     H16078   7.759   4.213   8.969  2.1212 -1.2378 -1.3729
  122MOL0     H16079   7.693   4.221   8.809 -0.7375 -2.5329  2.5324
  122MOL0     H16080   7.597   4.443   8.853  0.0457 -0.8066  0.2521
  122MOL0     H16081   7.681   4.468   9.011 -0.3965 -1.1032  1.8426
  122MOL0     H16082   7.465   4.261   8.939 -0.5842 -1.1838  0.9227
  122MOL0     H16083   7.527   4.276   9.101 -1.0158 -0.8463 -0.7318
  122MOL0     H16084   7.309   4.376   9.035 -0.6018  0.7754 -0.8650
  122MOL0     H16085   7.389   4.480   8.922  0.4385 -0.6173 -0.5599
  122MOL0     H16086   8.407   4.113   8.627 -0.2749 -0.5147 -1.1278
  122MOL0     H16087   8.647   4.066   8.526  0.8831 -0.3315 -1.0863
  122MOL0     H16088   8.874   4.068   8.226  2.0998 -1.2486 -0.4445
  122MOL0     H16089   9.006   3.974   8.089 -2.9558  1.2321  0.0141
  122MOL0     H16090   8.591   3.067   7.088 -0.8804  0.9397 -0.6364
  122MOL0     H16091   8.773   2.943   7.053 -0.4721  0.3296 -1.1328
  122MOL0     H16092   9.409   3.064   7.050 -0.6194  0.4572  2.0778
  122MOL0     H16093   9.604   2.914   7.115 -0.6218  2.4192  2.6824
  122MOL0     H16094   9.761   2.672   7.312  0.1459  1.3927  0.5667
  122MOL0     H16095   9.746   2.810   7.209  1.3658 -0.2681  1.0143
  122MOL0     H16096   9.888   2.647   7.098 -0.0247  1.1585  2.8860
  122MOL0     H16097   9.763   2.515   7.100  3.8220 -0.4525  0.3871
  122MOL0     H16098   9.711   2.774   6.955 -1.8796 -0.2148 -3.7566
  122MOL0     H16099   9.613   2.631   6.965  0.0411 -2.1790 -1.7988
  122MOL0     H16100   9.809   2.511   6.833  1.2060 -0.1413  1.2884
  122MOL0     H16101   9.725   2.647   6.756 -0.1634  0.9944  0.3255
  122MOL0     H16102  10.108   2.792   6.837  1.1332 -0.8819  0.1776
  122MOL0     H16103   9.320   2.645   7.301 -2.3817  0.9456  0.8332
  122MOL0     H16104   9.132   2.813   7.221  0.3167  2.5599  3.0558
  123MOL0     O16105   2.592  10.306   6.437 -0.1042 -0.0864  0.2325
  123MOL0     C16106   2.617  10.366   6.332  0.4333  0.6986 -0.4382
  123MOL0     O16107   2.534  10.367   6.217  0.1020 -0.1336  0.0921
  123MOL0     C16108   2.415  10.299   6.236  0.4197  1.6376  0.0210
  123MOL0     C16109   2.314  10.353   6.312 -0.5766  0.1331 -0.1625
  123MOL0     C16110   2.188  10.298   6.323 -0.4382  0.7439 -0.2018
  123MOL0     C16111   2.160  10.179   6.261  0.4900  0.2289  0.1955
  123MOL0     O16112   2.035  10.116   6.269  0.2351 -0.7330  0.2452
  123MOL0     C16113   1.976  10.112   6.400  0.3485  0.2905  0.2301
  123MOL0     C16114   1.842  10.040   6.399 -0.0342 -0.2203  0.1051
  123MOL0     C16115   1.788  10.017   6.541  0.0830 -0.6054 -0.1887
  123MOL0     C16116   1.653   9.947   6.527 -0.5460  0.6535 -0.3231
  123MOL0     C16117   1.600   9.930   6.668 -0.2279  1.0742  0.1856
  123MOL0     C16118   1.494   9.809   6.654 -0.3742  0.1453 -0.0910
  123MOL0     C16119   1.415   9.775   6.788 -0.1283  0.0694  0.3913
  123MOL0     C16120   1.502   9.668   6.861 -0.2732  0.0466 -0.4243
  123MOL0     N16121   1.432   9.619   6.976 -0.5722  0.2729  0.2754
  123MOL0     C16122   1.486   9.632   7.098 -0.8782  0.4390 -0.2123
  123MOL0     C16123   1.395   9.580   7.180  0.3591 -0.1887  0.7052
  123MOL0     C16124   1.423   9.572   7.328  0.0690  0.4209 -0.3937
  123MOL0     C16125   1.389   9.698   7.405 -0.2296 -0.2038 -0.8212
  123MOL0     C16126   1.239   9.748   7.389  0.3851 -1.3090  0.0848
  123MOL0     C16127   1.142   9.647   7.452 -0.7663 -0.3823  0.3185
  123MOL0     O16128   1.017   9.713   7.450 -0.8354  0.6488  0.2837
  123MOL0     C16129   0.989   9.789   7.558  0.5247 -0.9526 -0.0121
  123MOL0     C16130   0.966   9.733   7.684  1.1029  0.5916 -0.2787
  123MOL0     C16131   0.931   9.821   7.790  0.0750  0.3894  0.3447
  123MOL0     C16132   0.919   9.958   7.771 -0.9618 -0.3245 -0.2966
  123MOL0     C16133   0.899  10.039   7.893 -0.3682 -0.4844 -0.4234
  123MOL0     O16134   0.918   9.986   8.019  0.7073 -0.1709  0.3241
  123MOL0     C16135   0.885  10.064   8.128  0.3992 -0.4233  0.1170
  123MOL0     C16136   0.763  10.127   8.163 -0.5524  0.4161  0.8716
  123MOL0     C16137   0.728  10.187   8.282  0.5127 -0.0781 -0.5772
  123MOL0     C16138   0.820  10.188   8.388  0.5288 -0.1740  0.0843
  123MOL0     O16139   0.781  10.261   8.502 -0.4026 -0.2398  0.7164
  123MOL0     C16140   0.890  10.324   8.585  0.1275  0.3640  0.2375
  123MOL0     C16141   0.844  10.463   8.579 -0.3446 -0.4107  0.4456
  123MOL0     C16142   0.936  10.562   8.653 -0.6415  0.7383  0.0813
  123MOL0     C16143   0.947  10.548   8.803  0.4199 -0.4046 -1.1400
  123MOL0     C16144   0.985  10.676   8.879  0.5033 -0.1416  0.0958
  123MOL0     C16145   1.137  10.706   8.875 -0.1851  0.0787 -0.1103
  123MOL0     C16146   1.214  10.616   8.967 -0.3828 -0.7664  0.1231
  123MOL0     C16147   1.363  10.640   8.962  0.9258  0.6732 -0.1832
  123MOL0    Cl16148   1.414  10.596   8.788 -0.1711  0.2443  0.2276
  123MOL0     C16149   0.947  10.122   8.362 -0.7031 -0.2728 -0.5550
  123MOL0     C16150   0.979  10.062   8.236  0.2134  0.5094 -0.0677
  123MOL0     O16151   0.889  10.161   7.866 -0.7531  0.1640 -0.1133
  123MOL0     C16152   0.934  10.007   7.640 -0.4656  0.6726 -0.2888
  123MOL0     C16153   0.971   9.926   7.538  0.5703  0.1282  0.9184
  123MOL0     N16154   1.294   9.524   7.093 -0.7625 -0.6226  1.4661
  123MOL0     N16155   1.324   9.536   6.970 -1.3720 -0.3525  0.5463
  123MOL0     C16156   2.260  10.129   6.177 -0.1751 -0.6809 -0.4966
  123MOL0     C16157   2.389  10.185   6.161 -0.1138 -0.0203 -0.0923
  123MOL0     C16158   2.723  10.463   6.344 -0.5050  1.1484  0.6106
  123MOL0     C16159   2.793  10.489   6.225 -0.2889 -0.0754  0.6687
  123MOL0     C16160   2.912  10.548   6.216 -0.9500  0.7274 -0.0801
  123MOL0     C16161   2.966  10.601   6.332  0.0102  0.1807 -0.7326
  123MOL0     O16162   3.074  10.686   6.319  0.0878  0.6190  0.1223
  123MOL0     C16163   3.102  10.777   6.431 -0.3344  0.1527  0.1596
  123MOL0     C16164   3.183  10.897   6.387 -0.7366  0.0875 -0.4034
  123MOL0     C16165   3.107  10.990   6.299 -0.1156 -0.6692  0.8253
  123MOL0     C16166   3.193  11.112   6.273 -0.2275 -0.0248  0.5014
  123MOL0     C16167   3.117  11.216   6.205 -0.2117 -0.0825 -0.3155
  123MOL0     C16168   3.069  11.308   6.152  0.1457 -0.9263  0.4801
  123MOL0     C16169   2.908  10.581   6.459 -0.4149  0.1207  0.4760
  123MOL0     C16170   2.784  10.515   6.462  1.0072  0.4789  0.8334
  123MOL0     H16171   2.348  10.439   6.368 -1.3283  1.4539 -1.6573
  123MOL0     H16172   2.112  10.334   6.391 -0.6370 -1.6055  0.9396
  123MOL0     H16173   1.950  10.213   6.433 -2.0514  0.4309 -1.7651
  123MOL0     H16174   2.049  10.067   6.468  0.7412  2.2813  1.1868
  123MOL0     H16175   1.868   9.945   6.352  3.0524 -0.5187  2.1585
  123MOL0     H16176   1.772  10.097   6.337 -0.1023  0.3734  0.7164
  123MOL0     H16177   1.772  10.119   6.577  0.2729  0.2583 -2.3995
  123MOL0     H16178   1.857   9.960   6.604  0.2107 -1.0044 -0.6835
  123MOL0     H16179   1.581  10.006   6.470 -1.9637 -1.7209 -1.1361
  123MOL0     H16180   1.673   9.852   6.478 -1.4280  0.1995  0.1619
  123MOL0     H16181   1.545  10.018   6.702  0.3612  1.9914 -1.1540
  123MOL0     H16182   1.670   9.905   6.748  0.3523 -1.1423 -0.9395
  123MOL0     H16183   1.555   9.726   6.618  1.1763  0.9445  0.5910
  123MOL0     H16184   1.415   9.841   6.584  1.9864  1.9080 -2.1491
  123MOL0     H16185   1.381   9.867   6.838 -0.3973 -0.2295  0.7660
  123MOL0     H16186   1.320   9.738   6.748 -2.1976  4.3789  0.6868
  123MOL0     H16187   1.601   9.705   6.889 -0.7265  0.4473  0.7023
  123MOL0     H16188   1.511   9.580   6.796  0.0204 -0.5776  0.4410
  123MOL0     H16189   1.580   9.681   7.119 -0.8565 -0.0049  0.7735
  123MOL0     H16190   1.529   9.551   7.342  1.1853  5.1300  0.0801
  123MOL0     H16191   1.354   9.494   7.359  1.1330 -0.1838  0.4929
  123MOL0     H16192   1.460   9.778   7.386  2.1389 -1.5125  1.8759
  123MOL0     H16193   1.397   9.662   7.508 -0.5018 -1.4375 -1.2060
  123MOL0     H16194   1.234   9.838   7.450 -2.2163 -1.1773 -0.1961
  123MOL0     H16195   1.210   9.771   7.286 -1.0749  3.0156  1.2466
  123MOL0     H16196   1.173   9.614   7.552 -5.3527  0.1885  2.1533
  123MOL0     H16197   1.129   9.558   7.389 -1.6316  0.1438 -0.2589
  123MOL0     H16198   0.966   9.628   7.708 -0.9254  0.8395  1.0858
  123MOL0     H16199   0.917   9.773   7.886 -1.1167 -1.5289 -0.7292
  123MOL0     H16200   0.699  10.129   8.075  1.5865  0.7471 -0.7765
  123MOL0     H16201   0.636  10.243   8.293  1.0331  1.0787 -1.8110
  123MOL0     H16202   0.990  10.317   8.542 -0.0368 -0.5326 -0.0379
  123MOL0     H16203   0.889  10.265   8.678 -2.0633 -2.1785 -1.2359
  123MOL0     H16204   0.737  10.482   8.594 -0.0945  0.9732  0.6927
  123MOL0     H16205   0.850  10.494   8.474 -0.5958  2.6600  1.2349
  123MOL0     H16206   0.910  10.665   8.626  0.5567  0.9772 -0.2277
  123MOL0     H16207   1.039  10.565   8.618 -1.5412  1.5714 -2.8147
  123MOL0     H16208   0.847  10.527   8.841  0.0308  1.8814 -0.7484
  123MOL0     H16209   1.016  10.467   8.827  1.2825 -0.4550 -3.5569
  123MOL0     H16210   0.969  10.676   8.987  1.3380 -1.3435  0.2265
  123MOL0     H16211   0.941  10.765   8.833  1.5331  1.1852  1.5811
  123MOL0     H16212   1.156  10.810   8.902  2.8272 -0.1994 -0.7876
  123MOL0     H16213   1.164  10.699   8.769 -2.6128 -1.2625 -0.7144
  123MOL0     H16214   1.186  10.636   9.070  0.1718 -3.0996  0.7967
  123MOL0     H16215   1.198  10.511   8.937 -1.2264 -1.3344  2.3365
  123MOL0     H16216   1.418  10.574   9.030 -2.5502 -0.2250  1.9669
  123MOL0     H16217   1.387  10.745   8.984 -0.5113  1.3350 -1.6254
  123MOL0     H16218   1.030  10.115   8.431 -0.9545 -0.8040 -0.2980
  123MOL0     H16219   1.074  10.009   8.238 -0.9814 -1.8393 -1.6671
  123MOL0     H16220   0.916  10.113   7.625 -0.9361  0.4984 -0.9986
  123MOL0     H16221   0.985   9.961   7.436 -1.7530  0.0101  0.4994
  123MOL0     H16222   2.231  10.036   6.130 -1.7007 -1.7991  2.4002
  123MOL0     H16223   2.463  10.134   6.100  1.8271  1.1682  1.1668
  123MOL0     H16224   2.734  10.459   6.139 -2.3238  0.4547  1.8095
  123MOL0     H16225   2.952  10.570   6.118  1.0473  0.8874  0.7294
  123MOL0     H16226   3.162  10.722   6.504  0.7422  1.0901  0.0060
  123MOL0     H16227   3.010  10.813   6.478 -0.9561  1.0110 -1.6233
  123MOL0     H16228   3.224  10.952   6.473 -0.4541  1.3015 -1.2942
  123MOL0     H16229   3.273  10.867   6.331 -0.0461  0.4750  0.4697
  123MOL0     H16230   3.020  11.027   6.353 -0.5598  3.6051 -2.2822
  123MOL0     H16231   3.080  10.941   6.205  1.3359  0.4772 -0.2429
  123MOL0     H16232   3.227  11.152   6.369  1.1478 -1.6063  0.7172
  123MOL0     H16233   3.279  11.096   6.208  1.2697  1.0200  2.1146
  123MOL0     H16234   3.027  11.398   6.112  1.9571  0.3556  1.3206
  123MOL0     H16235   2.952  10.624   6.549  1.1975  0.3294 -0.3721
  123MOL0     H16236   2.732  10.519   6.557 -1.7461  1.7433 -0.5911
  124MOL0     O16237   6.481   2.076  11.183 -0.6232 -0.1707  0.8017
  124MOL0     C16238   6.521   2.048  11.295  0.0377 -0.5537  0.0022
  124MOL0     O16239   6.442   2.017  11.401  0.5136 -0.0020 -0.8170
  124MOL0     C16240   6.305   2.047  11.405 -0.3283 -0.2865  0.6933
  124MOL0     C16241   6.225   1.957  11.478  0.0080 -0.1914 -0.5134
  124MOL0     C16242   6.094   1.992  11.502  0.5331  0.3589 -0.5265
  124MOL0     C16243   6.030   2.115  11.460 -0.2509 -0.6865  1.3491
  124MOL0     O16244   5.899   2.131  11.488 -0.1721  0.1968 -0.3961
  124MOL0     C16245   5.822   2.213  11.392  0.3318 -0.3090  0.0690
  124MOL0     C16246   5.679   2.193  11.428  1.2406  0.3736 -1.1241
  124MOL0     C16247   5.637   2.275  11.554 -0.6490  0.0728  0.6486
  124MOL0     C16248   5.489   2.251  11.574  0.0266 -0.2491 -0.1492
  124MOL0     C16249   5.435   2.320  11.703  1.8459 -0.1171  0.2519
  124MOL0     C16250   5.438   2.239  11.828 -0.2590 -0.3848  0.1654
  124MOL0     C16251   5.353   2.303  11.938  0.1816  0.5590 -0.0821
  124MOL0     C16252   5.408   2.444  11.977  0.6845  0.1441 -0.7597
  124MOL0     N16253   5.323   2.507  12.077 -0.2907 -0.5325 -0.0177
  124MOL0     C16254   5.212   2.579  12.047  0.5133 -0.8618  0.1533
  124MOL0     C16255   5.158   2.620  12.169  0.9701  0.4923  0.4555
  124MOL0     C16256   5.027   2.685  12.184  0.2014 -0.3626  0.2993
  124MOL0     C16257   4.934   2.684  12.060 -0.6049 -0.2235 -0.2920
  124MOL0     C16258   4.884   2.543  12.034 -0.1648  0.5196 -0.4035
  124MOL0     C16259   4.832   2.525  11.895  0.4354  0.2036 -0.7587
  124MOL0     O16260   4.740   2.615  11.831  0.1922  0.8578 -0.0183
  124MOL0     C16261   4.615   2.610  11.884  0.1112  0.0144  0.4340
  124MOL0     C16262   4.562   2.709  11.959 -0.0444 -0.3213 -0.1606
  124MOL0     C16263   4.436   2.707  12.008  0.5584  0.1169  0.0732
  124MOL0     C16264   4.355   2.588  11.996 -0.3382  0.2344  0.4696
  124MOL0     C16265   4.214   2.586  12.043  0.2563  0.0190 -0.3751
  124MOL0     O16266   4.142   2.477  12.017  0.2587  0.2951  0.0661
  124MOL0     C16267   4.003   2.464  12.060 -0.9723  0.1538 -0.6459
  124MOL0     C16268   3.956   2.339  12.045 -0.3929 -0.2849  0.0706
  124MOL0     C16269   3.823   2.318  12.081  0.2363 -0.1335 -1.0843
  124MOL0     C16270   3.729   2.412  12.129 -1.0838  0.5779 -0.1528
  124MOL0     O16271   3.592   2.403  12.116 -0.1574 -0.0547  1.0837
  124MOL0     C16272   3.527   2.279  12.068 -1.3513 -0.2590  0.7936
  124MOL0     C16273   3.373   2.299  12.059  0.4680  0.7105 -0.0522
  124MOL0     C16274   3.321   2.157  12.016  0.2280  0.5293 -0.6399
  124MOL0     C16275   3.180   2.153  11.966 -0.1404 -0.2760  0.0592
  124MOL0     C16276   3.126   2.023  11.912 -0.0007  0.8304 -0.3799
  124MOL0     C16277   2.971   2.018  11.907 -0.2716  0.3672 -1.0355
  124MOL0     C16278   2.918   1.869  11.888  0.8259  0.0400  0.6892
  124MOL0     C16279   2.865   1.863  11.741  0.7381 -1.0101 -0.2749
  124MOL0    Cl16280   2.797   1.708  11.729 -0.4984 -0.2133 -0.2463
  124MOL0     C16281   3.794   2.531  12.164 -0.2675  0.0434 -0.8480
  124MOL0     C16282   3.923   2.559  12.130  0.7308  1.1553 -0.6946
  124MOL0     O16283   4.179   2.682  12.112 -0.1733  0.7509  0.1010
  124MOL0     C16284   4.411   2.477  11.923 -0.2878  0.2504  0.1639
  124MOL0     C16285   4.540   2.492  11.868  0.2329  0.0074 -0.1238
  124MOL0     N16286   5.234   2.559  12.267 -0.1890 -0.6828  0.0713
  124MOL0     N16287   5.330   2.488  12.211  0.3959  0.2275 -0.2863
  124MOL0     C16288   6.104   2.201  11.379 -0.6329 -0.2248 -0.2737
  124MOL0     C16289   6.247   2.171  11.351 -0.3879  0.8359  0.9275
  124MOL0     C16290   6.661   2.042  11.324 -0.6097 -0.3815 -0.2297
  124MOL0     C16291   6.748   2.040  11.217 -0.0662  0.3876 -0.0251
  124MOL0     C16292   6.887   2.024  11.237  0.1470  0.7124  0.5245
  124MOL0     C16293   6.936   1.998  11.361 -0.5614 -0.2021  0.1749
  124MOL0     O16294   7.069   1.969  11.370 -0.1417  0.0285  0.4272
  124MOL0     C16295   7.122   1.908  11.493  0.7274 -0.3157  0.4174
  124MOL0     C16296   7.271   1.890  11.470  0.3991  0.9123  0.3583
  124MOL0     C16297   7.324   1.811  11.346 -0.0833 -0.2886 -0.1367
  124MOL0     C16298   7.463   1.774  11.357  0.1682  0.1987 -0.0284
  124MOL0     C16299   7.562   1.883  11.366  0.5493  0.0160  0.5198
  124MOL0     C16300   7.632   1.984  11.389  0.5179  0.2699 -0.7596
  124MOL0     C16301   6.849   2.001  11.475 -0.2427 -0.9348 -0.1437
  124MOL0     C16302   6.714   2.019  11.449  0.4016  0.3833  0.5163
  124MOL0     H16303   6.267   1.868  11.525  1.6904  1.4507  1.2979
  124MOL0     H16304   6.042   1.920  11.564  2.4715 -0.6340  0.0462
  124MOL0     H16305   5.848   2.180  11.291 -0.2951 -1.2154  0.1955
  124MOL0     H16306   5.845   2.319  11.409  0.6962 -0.2314 -0.8559
  124MOL0     H16307   5.677   2.088  11.457  0.6454  0.7727  0.3451
  124MOL0     H16308   5.609   2.208  11.345  1.5891  2.9515 -1.0454
  124MOL0     H16309   5.659   2.381  11.538 -0.1302 -0.2940 -1.2564
  124MOL0     H16310   5.694   2.239  11.640 -0.3200  1.4923  1.0663
  124MOL0     H16311   5.425   2.286  11.493 -0.0964  0.9385  0.4413
  124MOL0     H16312   5.476   2.142  11.576 -0.1144 -0.2625 -1.1738
  124MOL0     H16313   5.331   2.349  11.685  1.5910 -2.2674 -2.3116
  124MOL0     H16314   5.481   2.419  11.712 -0.7067  1.1563  0.1091
  124MOL0     H16315   5.541   2.243  11.865 -0.1500 -0.0468 -0.1690
  124MOL0     H16316   5.403   2.138  11.807 -1.8254  0.6015 -2.4987
  124MOL0     H16317   5.252   2.315  11.898  0.4268 -3.4877 -2.4593
  124MOL0     H16318   5.357   2.241  12.028  1.9832 -0.0658 -0.5611
  124MOL0     H16319   5.419   2.516  11.895 -0.7388  1.5559  0.2307
  124MOL0     H16320   5.503   2.427  12.028 -0.8149 -0.3611  2.0700
  124MOL0     H16321   5.182   2.598  11.944  0.3735  0.9007  0.4940
  124MOL0     H16322   5.053   2.789  12.206  3.7113 -1.1839  0.5821
  124MOL0     H16323   4.969   2.637  12.263  1.6986  0.5210  2.0202
  124MOL0     H16324   4.986   2.721  11.971  0.6479  0.6864  0.7823
  124MOL0     H16325   4.856   2.757  12.081  1.0262  1.6969 -0.5921
  124MOL0     H16326   4.963   2.470  12.053 -0.8295 -0.1050  0.0216
  124MOL0     H16327   4.805   2.513  12.103  1.5265 -0.2459  1.3159
  124MOL0     H16328   4.796   2.424  11.872 -0.5290  0.0376  1.2068
  124MOL0     H16329   4.920   2.533  11.831  0.5906 -3.3800 -1.2297
  124MOL0     H16330   4.620   2.800  11.947  0.5411 -0.9146 -2.3988
  124MOL0     H16331   4.393   2.795  12.056 -3.0346  0.2026 -2.8471
  124MOL0     H16332   4.007   2.259  11.993 -1.7250 -1.9176  1.1605
  124MOL0     H16333   3.784   2.221  12.054 -0.0335 -0.1786 -0.5482
  124MOL0     H16334   3.558   2.184  12.113  1.9889  0.3134 -0.0014
  124MOL0     H16335   3.554   2.269  11.962 -1.7325 -3.4207  0.8768
  124MOL0     H16336   3.354   2.369  11.978  0.9056 -1.6720 -2.3398
  124MOL0     H16337   3.330   2.329  12.156 -0.0847 -0.7579  0.1933
  124MOL0     H16338   3.330   2.085  12.099 -1.2394  1.0806  0.0366
  124MOL0     H16339   3.383   2.107  11.941  1.7165  0.1666  0.7472
  124MOL0     H16340   3.112   2.189  12.043 -1.9169 -0.2024 -1.4592
  124MOL0     H16341   3.165   2.207  11.872 -2.1796 -1.1068 -0.1528
  124MOL0     H16342   3.155   1.935  11.970 -2.0742 -0.3638 -1.0338
  124MOL0     H16343   3.169   2.006  11.813 -1.2074 -2.5498 -0.4581
  124MOL0     H16344   2.941   2.095  11.836 -0.0632  2.3125  0.9084
  124MOL0     H16345   2.929   2.054  12.002 -1.7217 -1.6556 -0.8442
  124MOL0     H16346   2.995   1.793  11.903 -0.2282 -0.4692  4.8504
  124MOL0     H16347   2.843   1.842  11.963  0.1493 -0.9294 -0.3092
  124MOL0     H16348   2.946   1.880  11.669 -0.5298 -1.6028 -1.8877
  124MOL0     H16349   2.791   1.940  11.719  0.9466 -0.0014  2.1985
  124MOL0     H16350   3.740   2.610  12.216  0.6074  0.1628 -0.0763
  124MOL0     H16351   3.956   2.662  12.141  0.6316  1.3738 -2.1804
  124MOL0     H16352   4.348   2.390  11.906 -0.9685  1.0526 -1.6993
  124MOL0     H16353   4.598   2.423  11.809  3.2074  0.8168  1.6162
  124MOL0     H16354   6.064   2.288  11.328 -0.1403  0.9598  1.2888
  124MOL0     H16355   6.309   2.250  11.310 -0.3962  0.0234 -0.6976
  124MOL0     H16356   6.721   2.049  11.112  2.5435 -2.2879 -1.0799
  124MOL0     H16357   6.944   2.027  11.145 -1.7003  0.6849 -0.6648
  124MOL0     H16358   7.071   1.817  11.527  0.3667  0.2415  1.4016
  124MOL0     H16359   7.117   1.974  11.580  1.0905 -1.2403  1.1709
  124MOL0     H16360   7.317   1.989  11.463  5.4075 -1.1315 -0.1517
  124MOL0     H16361   7.314   1.841  11.557 -0.5333  3.1231  2.1551
  124MOL0     H16362   7.325   1.879  11.260  0.6783  1.5643  1.2551
  124MOL0     H16363   7.260   1.726  11.323 -1.1198  0.5691 -0.4586
  124MOL0     H16364   7.474   1.729  11.456  0.0700  1.9943  0.8307
  124MOL0     H16365   7.484   1.689  11.290 -1.5831 -1.5189  1.4756
  124MOL0     H16366   7.696   2.068  11.406 -1.5511  1.6097  0.9479
  124MOL0     H16367   6.899   2.003  11.571 -2.7530 -0.0854  1.2454
  124MOL0     H16368   6.646   2.027  11.533 -0.1536 -0.5369  0.1624
  125MOL0     O16369   5.819   1.483   1.348  0.2424  0.4502 -0.5889
  125MOL0     C16370   5.826   1.362   1.364 -0.1874  0.2748  0.1358
  125MOL0     O16371   5.724   1.278   1.402 -0.4470  0.6077  0.3227
  125MOL0     C16372   5.589   1.314   1.402 -0.4447  0.6475 -0.0022
  125MOL0     C16373   5.535   1.360   1.287  0.1625 -0.0804 -0.2944
  125MOL0     C16374   5.403   1.399   1.282 -0.0588 -0.2039  0.6659
  125MOL0     C16375   5.320   1.391   1.390  0.7871  0.5642 -0.3523
  125MOL0     O16376   5.182   1.416   1.389 -0.6706  0.1065 -0.2250
  125MOL0     C16377   5.103   1.354   1.284  0.2733 -0.4641  0.2174
  125MOL0     C16378   4.985   1.270   1.347 -0.6857 -0.5684 -0.1790
  125MOL0     C16379   4.894   1.217   1.246 -0.0371  0.5930  0.2239
  125MOL0     C16380   4.838   1.332   1.156  0.4752  0.1690  0.2196
  125MOL0     C16381   4.726   1.293   1.057 -0.1154  0.9973 -0.4108
  125MOL0     C16382   4.601   1.238   1.124 -0.3175  1.2613 -0.6552
  125MOL0     C16383   4.481   1.228   1.030  0.6996  0.4547 -0.0938
  125MOL0     C16384   4.363   1.153   1.085  0.1464  0.1003 -0.2936
  125MOL0     N16385   4.304   1.205   1.211  0.6061  0.2508 -0.6636
  125MOL0     C16386   4.190   1.279   1.220  0.0105 -0.2765  0.0135
  125MOL0     C16387   4.172   1.301   1.355 -0.4481 -0.1426  0.0871
  125MOL0     C16388   4.076   1.391   1.431 -0.1128  0.1346  1.4541
  125MOL0     C16389   4.046   1.355   1.579  0.0025 -0.9191 -0.4501
  125MOL0     C16390   3.943   1.456   1.634 -0.8070 -0.1930 -0.1274
  125MOL0     C16391   3.897   1.396   1.763  0.2200 -0.7346 -0.7118
  125MOL0     O16392   3.774   1.463   1.797  0.9197  0.3225  0.5918
  125MOL0     C16393   3.655   1.412   1.756  0.8423  0.2472  0.1488
  125MOL0     C16394   3.630   1.313   1.662  1.2615  0.2671 -0.0755
  125MOL0     C16395   3.498   1.281   1.628  0.5816  0.2703  0.1314
  125MOL0     C16396   3.388   1.344   1.686  1.1348  0.0379  0.4473
  125MOL0     C16397   3.247   1.311   1.640  0.4571  0.0262 -0.0688
  125MOL0     O16398   3.230   1.235   1.532 -0.3997 -0.6393 -0.1970
  125MOL0     C16399   3.103   1.228   1.484 -0.3449 -0.7223  0.5462
  125MOL0     C16400   3.041   1.335   1.412  0.3130 -1.0514  0.3601
  125MOL0     C16401   2.910   1.321   1.372 -0.1618 -0.3037 -0.1460
  125MOL0     C16402   2.844   1.197   1.383 -0.0073 -0.3196  0.2133
  125MOL0     O16403   2.716   1.174   1.336  0.3812 -0.1502  0.1603
  125MOL0     C16404   2.689   1.205   1.194  0.3645  0.1563  0.2235
  125MOL0     C16405   2.554   1.157   1.169  0.8523  0.2604 -0.0446
  125MOL0     C16406   2.505   1.176   1.019 -0.0851 -0.1357  0.4494
  125MOL0     C16407   2.379   1.098   1.003  0.0194 -0.5478 -0.3143
  125MOL0     C16408   2.321   1.126   0.857  0.2980 -0.1684 -0.5778
  125MOL0     C16409   2.220   1.025   0.821  0.3816 -0.4908  0.2100
  125MOL0     C16410   2.077   1.060   0.889  0.1746 -0.6483  0.2171
  125MOL0     C16411   1.984   1.141   0.784 -0.1932 -0.4208 -0.3619
  125MOL0    Cl16412   1.842   1.190   0.867 -0.5362 -0.3887  0.0688
  125MOL0     C16413   2.906   1.098   1.465  0.8796 -0.3182  0.2879
  125MOL0     C16414   3.032   1.120   1.511  0.8269 -0.2627  0.0532
  125MOL0     O16415   3.158   1.362   1.712 -0.2005  0.6305  0.2845
  125MOL0     C16416   3.408   1.434   1.790  0.0306 -0.0010  1.1030
  125MOL0     C16417   3.541   1.475   1.814  0.1128  0.5875  0.1142
  125MOL0     N16418   4.269   1.232   1.428 -0.0711  0.0945 -0.5187
  125MOL0     N16419   4.344   1.176   1.335  0.0419  0.6352 -0.2185
  125MOL0     C16420   5.374   1.351   1.510  0.4534 -0.2186 -0.5497
  125MOL0     C16421   5.509   1.316   1.515 -0.2836  0.0029 -0.2609
  125MOL0     C16422   5.963   1.318   1.372  0.8127  0.4855 -0.1315
  125MOL0     C16423   6.062   1.383   1.296 -0.1836 -0.1888  0.5610
  125MOL0     C16424   6.197   1.363   1.310 -0.1062 -0.2398  0.5257
  125MOL0     C16425   6.239   1.268   1.408 -0.5188  0.3786  0.0583
  125MOL0     O16426   6.366   1.249   1.457 -0.0164  0.1843 -0.2610
  125MOL0     C16427   6.471   1.301   1.378  0.8699 -0.4129 -0.7266
  125MOL0     C16428   6.606   1.259   1.444  0.5814 -0.9823 -0.4266
  125MOL0     C16429   6.721   1.320   1.360  0.0994  0.0436  1.0424
  125MOL0     C16430   6.844   1.221   1.367  1.4169 -0.3372  0.4825
  125MOL0     C16431   6.958   1.273   1.298 -0.0230 -0.5939  0.4655
  125MOL0     C16432   7.055   1.325   1.244 -0.5739 -0.6894 -0.6820
  125MOL0     C16433   6.141   1.194   1.471  0.1748 -0.3111  0.6026
  125MOL0     C16434   6.006   1.218   1.457  0.3460  0.2846 -0.5869
  125MOL0     H16435   5.593   1.375   1.197 -0.0867 -0.9349 -0.6093
  125MOL0     H16436   5.369   1.457   1.196 -1.8157  2.2000  2.8331
  125MOL0     H16437   5.168   1.287   1.228  0.5885  0.1251 -0.1346
  125MOL0     H16438   5.067   1.431   1.216 -0.3984  1.4814  2.6145
  125MOL0     H16439   4.934   1.336   1.418  0.6545 -0.4163  0.6895
  125MOL0     H16440   5.033   1.193   1.408 -1.2405 -1.0942 -0.3951
  125MOL0     H16441   4.806   1.167   1.287 -0.0779 -1.5563 -2.1750
  125MOL0     H16442   4.941   1.144   1.178 -1.7561 -0.0817 -0.2800
  125MOL0     H16443   4.795   1.406   1.225  0.3054 -0.4956  0.8477
  125MOL0     H16444   4.911   1.388   1.098 -0.1632  0.4227 -0.3502
  125MOL0     H16445   4.759   1.221   0.981  1.1556  2.5272 -1.3695
  125MOL0     H16446   4.701   1.379   0.994  0.6178  1.0210 -0.6786
  125MOL0     H16447   4.565   1.318   1.190  2.0316  2.2258 -0.4557
  125MOL0     H16448   4.618   1.142   1.173  1.7097  2.8427  2.0011
  125MOL0     H16449   4.438   1.325   1.005 -2.0423 -0.1785  1.6893
  125MOL0     H16450   4.512   1.190   0.932  0.1974  0.7033 -0.3510
  125MOL0     H16451   4.398   1.052   1.105  0.0467 -0.1955 -1.5058
  125MOL0     H16452   4.285   1.130   1.011 -0.8082 -1.1424  1.0346
  125MOL0     H16453   4.129   1.316   1.138 -1.4799 -3.1200 -0.2875
  125MOL0     H16454   3.982   1.391   1.374  1.2265 -0.3952 -0.8910
  125MOL0     H16455   4.119   1.491   1.426  0.5429 -0.2011 -0.6938
  125MOL0     H16456   4.142   1.358   1.631 -0.2417 -1.6488  0.0646
  125MOL0     H16457   4.015   1.251   1.592 -0.3717 -0.7223  0.2833
  125MOL0     H16458   3.992   1.552   1.655 -2.4234  0.4759  0.7978
  125MOL0     H16459   3.861   1.469   1.563 -0.5748 -1.5566 -0.6758
  125MOL0     H16460   3.970   1.416   1.842  0.9024 -1.1867 -1.2093
  125MOL0     H16461   3.886   1.288   1.751  4.0621 -1.4021  0.4177
  125MOL0     H16462   3.714   1.268   1.609  1.6698 -0.7005  1.3439
  125MOL0     H16463   3.475   1.207   1.552  1.4207  0.4089 -0.2705
  125MOL0     H16464   3.089   1.428   1.385 -4.4968  0.8221 -3.1038
  125MOL0     H16465   2.848   1.399   1.329  1.3458  1.4760  0.7830
  125MOL0     H16466   2.756   1.142   1.136  1.0031  1.9134 -1.0270
  125MOL0     H16467   2.704   1.311   1.171 -0.8197 -0.1922 -2.4585
  125MOL0     H16468   2.480   1.202   1.236 -0.2269 -0.1972 -0.8978
  125MOL0     H16469   2.556   1.049   1.183 -0.4783  0.2552  0.2641
  125MOL0     H16470   2.589   1.142   0.958  1.6101  2.0650  1.4204
  125MOL0     H16471   2.478   1.280   0.998  0.6400 -0.1224 -0.5140
  125MOL0     H16472   2.395   0.992   1.023 -3.2956 -1.3579 -1.2509
  125MOL0     H16473   2.309   1.126   1.082 -0.4302  1.8885 -1.4722
  125MOL0     H16474   2.405   1.129   0.787  1.1136  2.8086  0.3780
  125MOL0     H16475   2.270   1.222   0.860  2.5052  1.1180 -1.8015
  125MOL0     H16476   2.253   0.924   0.848 -2.7481 -1.0565  2.4686
  125MOL0     H16477   2.208   1.027   0.713  1.5605 -0.6517  0.0549
  125MOL0     H16478   2.028   0.972   0.933  0.7551 -0.1349  1.9802
  125MOL0     H16479   2.095   1.132   0.969  1.0602  1.2397 -1.5770
  125MOL0     H16480   1.956   1.076   0.701  1.1264 -0.2812 -0.9486
  125MOL0     H16481   2.037   1.228   0.743  1.3066 -0.5553  1.1928
  125MOL0     H16482   2.863   1.002   1.491  0.8740  0.1162  2.0130
  125MOL0     H16483   3.076   1.041   1.572  0.0391 -0.5907  0.2154
  125MOL0     H16484   3.337   1.496   1.845 -0.4223 -0.8925  1.5339
  125MOL0     H16485   3.548   1.546   1.896 -1.3523  0.2294  0.5796
  125MOL0     H16486   5.307   1.356   1.595 -0.6588  0.6735 -1.4495
  125MOL0     H16487   5.537   1.282   1.614 -0.7693 -0.3549 -0.2388
  125MOL0     H16488   6.033   1.463   1.228 -2.5185 -0.6995  0.8916
  125MOL0     H16489   6.267   1.415   1.246 -0.7716  0.7677  0.5970
  125MOL0     H16490   6.464   1.410   1.378  0.0395 -0.4246  1.0951
  125MOL0     H16491   6.478   1.265   1.275  0.4449 -2.6217 -0.0287
  125MOL0     H16492   6.612   1.295   1.548 -2.2589 -0.0440 -0.5042
  125MOL0     H16493   6.608   1.149   1.446  1.9286 -0.9731  0.7068
  125MOL0     H16494   6.753   1.420   1.389 -3.3464  1.5268  0.1860
  125MOL0     H16495   6.689   1.319   1.256  0.0591  0.4505  1.0506
  125MOL0     H16496   6.860   1.215   1.475 -1.4276  1.1139  1.0918
  125MOL0     H16497   6.825   1.122   1.325 -1.5298  1.1203 -2.0636
  125MOL0     H16498   7.121   1.395   1.196 -1.5587  0.7939  0.0563
  125MOL0     H16499   6.173   1.121   1.544  1.6589 -0.0241  0.2771
  125MOL0     H16500   5.939   1.169   1.527  0.4895  2.2611  1.0503
  126MOL0     O16501   3.399   6.643   1.491 -0.9658 -0.8645  0.4146
  126MOL0     C16502   3.506   6.589   1.525 -0.7035 -1.1133  0.5543
  126MOL0     O16503   3.519   6.467   1.580  0.4049 -0.3361 -0.0957
  126MOL0     C16504   3.415   6.382   1.563  0.0511 -0.6997  0.5081
  126MOL0     C16505   3.378   6.334   1.445 -0.5597 -0.3171 -0.2543
  126MOL0     C16506   3.262   6.261   1.433  0.1799  0.2911  0.2941
  126MOL0     C16507   3.179   6.233   1.542  0.1569  0.1279 -0.3238
  126MOL0     O16508   3.070   6.151   1.543 -0.3733 -0.3139 -0.5132
  126MOL0     C16509   3.083   6.015   1.503 -0.4294  0.2726  0.7704
  126MOL0     C16510   2.945   5.947   1.472 -0.4056 -0.7045 -0.4516
  126MOL0     C16511   2.904   5.991   1.330  0.3672  0.7944  0.1752
  126MOL0     C16512   2.759   5.967   1.304  0.2994 -0.8290 -0.3516
  126MOL0     C16513   2.707   6.020   1.177  0.1976  0.2370  0.7612
  126MOL0     C16514   2.630   5.919   1.097  0.1474  0.5649 -0.3599
  126MOL0     C16515   2.495   5.875   1.158 -0.6479 -0.5326 -0.7757
  126MOL0     C16516   2.452   5.748   1.076  0.2667 -0.5180  0.2246
  126MOL0     N16517   2.334   5.687   1.138  0.6461  0.2497 -0.4169
  126MOL0     C16518   2.200   5.693   1.104  0.0848 -0.6286 -0.3347
  126MOL0     C16519   2.137   5.618   1.198 -0.1747  0.2893  0.1897
  126MOL0     C16520   1.987   5.617   1.220  1.1108  0.3510  0.1203
  126MOL0     C16521   1.916   5.476   1.191  0.6617 -0.4236  0.1970
  126MOL0     C16522   1.767   5.479   1.223  0.1978 -0.1245 -0.2451
  126MOL0     C16523   1.706   5.339   1.210  0.4645  0.1061  0.5651
  126MOL0     O16524   1.566   5.345   1.251  0.1413  0.5163 -0.7762
  126MOL0     C16525   1.489   5.229   1.250 -0.5450 -0.0585 -0.8612
  126MOL0     C16526   1.528   5.100   1.221  0.1289 -0.7216 -0.1744
  126MOL0     C16527   1.444   4.990   1.234  1.0713 -0.6607  0.3339
  126MOL0     C16528   1.304   5.020   1.257  0.8672  0.0691  0.0298
  126MOL0     C16529   1.209   4.910   1.265  0.3633 -0.2700  0.7014
  126MOL0     O16530   1.244   4.783   1.306 -0.2603 -0.0605  0.3243
  126MOL0     C16531   1.152   4.683   1.315  0.0854 -0.1604 -0.9724
  126MOL0     C16532   1.049   4.657   1.224 -0.4913  0.2573  0.9171
  126MOL0     C16533   0.964   4.547   1.248 -0.6991 -0.4258  0.1902
  126MOL0     C16534   0.972   4.460   1.358 -0.2057  0.0643  0.0947
  126MOL0     O16535   0.893   4.345   1.378 -0.3590 -0.5674 -0.5121
  126MOL0     C16536   0.784   4.324   1.288  0.6000 -0.2121  0.6561
  126MOL0     C16537   0.708   4.195   1.319  0.2891  0.1829 -0.3081
  126MOL0     C16538   0.633   4.217   1.459 -0.4647  0.0581  0.3367
  126MOL0     C16539   0.515   4.119   1.463 -0.2355 -0.0853  0.0693
  126MOL0     C16540   0.427   4.140   1.584 -0.3059 -0.5293 -0.4223
  126MOL0     C16541   0.313   4.043   1.573  0.4244 -0.1734 -0.2092
  126MOL0     C16542   0.207   4.047   1.681  0.2281  0.7398  1.0273
  126MOL0     C16543   0.271   3.982   1.806  0.1008 -0.1170  0.0745
  126MOL0    Cl16544   0.162   4.022   1.946  0.5814 -0.1515 -0.1431
  126MOL0     C16545   1.076   4.483   1.445 -0.2749  0.1388 -0.0793
  126MOL0     C16546   1.166   4.591   1.427 -0.1746 -0.3503  0.5588
  126MOL0     O16547   1.097   4.943   1.226  0.6919  0.3695 -0.9789
  126MOL0     C16548   1.265   5.155   1.271  0.2598  0.1123  0.1281
  126MOL0     C16549   1.359   5.251   1.274  0.7631 -0.0519  0.0387
  126MOL0     N16550   2.238   5.577   1.285  0.2747  0.0672  0.1409
  126MOL0     N16551   2.351   5.611   1.247  0.1440 -0.0575  0.0101
  126MOL0     C16552   3.212   6.288   1.661  0.6756 -0.0964 -0.5342
  126MOL0     C16553   3.333   6.364   1.673  0.4439 -0.4620 -0.1877
  126MOL0     C16554   3.629   6.678   1.512 -0.1248  0.1031  0.7088
  126MOL0     C16555   3.638   6.816   1.506 -0.0664  0.8175  0.5741
  126MOL0     C16556   3.750   6.888   1.486  0.2405 -0.6623  1.0235
  126MOL0     C16557   3.867   6.812   1.470  0.0187  0.0932  0.6211
  126MOL0     O16558   3.986   6.873   1.439  0.3460  0.5111 -0.3167
  126MOL0     C16559   4.073   6.878   1.559  0.9901  0.1248  0.0391
  126MOL0     C16560   4.207   6.815   1.525  0.3102  0.2083 -0.0142
  126MOL0     C16561   4.282   6.889   1.418  0.4408  0.3725  0.1240
  126MOL0     C16562   4.379   6.808   1.330 -0.1246  0.5402 -0.4001
  126MOL0     C16563   4.484   6.750   1.417 -0.0662 -1.0442  0.6099
  126MOL0     C16564   4.573   6.722   1.496  0.3728  0.1288 -0.3816
  126MOL0     C16565   3.877   6.667   1.489  0.2699 -0.9312 -0.6609
  126MOL0     C16566   3.752   6.606   1.506  0.0216  1.0421  0.9013
  126MOL0     H16567   3.432   6.346   1.351 -0.6094  0.0315 -0.2404
  126MOL0     H16568   3.216   6.231   1.339  2.0417 -0.7423 -0.3430
  126MOL0     H16569   3.130   5.957   1.584 -2.6435 -0.5937  1.5104
  126MOL0     H16570   3.157   6.000   1.424 -0.3412 -1.2460  1.1108
  126MOL0     H16571   2.874   5.991   1.543 -0.2038  2.0466 -1.8443
  126MOL0     H16572   2.951   5.840   1.494 -0.8318 -0.5530  0.4692
  126MOL0     H16573   2.956   5.938   1.249 -1.0303 -1.3314  0.5646
  126MOL0     H16574   2.929   6.096   1.319  1.5393  0.8044  2.3972
  126MOL0     H16575   2.738   5.860   1.312 -1.9628 -0.3275  1.4203
  126MOL0     H16576   2.699   6.003   1.387  2.4492 -0.1176  0.9785
  126MOL0     H16577   2.794   6.039   1.114  1.2463  0.5742  2.2762
  126MOL0     H16578   2.641   6.106   1.195 -2.9859 -2.1566  1.5924
  126MOL0     H16579   2.686   5.828   1.074 -1.6318 -0.1848 -1.9794
  126MOL0     H16580   2.612   5.964   0.998 -2.1909 -0.1046 -0.2989
  126MOL0     H16581   2.505   5.859   1.266 -1.5144  0.1287 -0.5857
  126MOL0     H16582   2.422   5.956   1.149  1.4860  2.2219  3.4071
  126MOL0     H16583   2.545   5.690   1.070  2.4974  2.8251 -1.1577
  126MOL0     H16584   2.434   5.778   0.972 -1.0031  0.7011  0.7655
  126MOL0     H16585   2.154   5.754   1.028  1.2713  1.1231  0.2757
  126MOL0     H16586   1.936   5.690   1.157  0.7180  0.9579  1.1108
  126MOL0     H16587   1.961   5.644   1.323  1.5766 -2.7343  1.1508
  126MOL0     H16588   1.960   5.416   1.271  1.2548  0.0491  0.2362
  126MOL0     H16589   1.953   5.436   1.095  0.9480 -0.9206  0.5086
  126MOL0     H16590   1.758   5.514   1.326  1.4310 -0.3474 -0.0456
  126MOL0     H16591   1.721   5.545   1.149  1.1010  2.2929  1.2227
  126MOL0     H16592   1.759   5.264   1.269 -1.5297 -2.1804 -0.3383
  126MOL0     H16593   1.711   5.308   1.105 -0.2310 -0.2571  0.6338
  126MOL0     H16594   1.633   5.087   1.201 -0.3389 -0.5335 -3.0696
  126MOL0     H16595   1.486   4.894   1.208  0.9824 -0.1303 -1.9375
  126MOL0     H16596   1.028   4.723   1.140 -2.5002 -1.2795  0.1249
  126MOL0     H16597   0.905   4.521   1.161 -1.7501  2.3527 -0.0199
  126MOL0     H16598   0.821   4.308   1.186  1.7372 -2.0819  1.3021
  126MOL0     H16599   0.715   4.409   1.289 -0.7833 -1.3026  1.1249
  126MOL0     H16600   0.762   4.100   1.318 -3.7287 -2.3546 -0.0541
  126MOL0     H16601   0.632   4.188   1.241  0.3119  3.5774 -0.7666
  126MOL0     H16602   0.587   4.316   1.448 -2.0519 -0.7333 -0.4660
  126MOL0     H16603   0.693   4.202   1.549 -0.0273 -3.7548 -0.4240
  126MOL0     H16604   0.456   4.148   1.376  1.1504  3.3120  0.0999
  126MOL0     H16605   0.549   4.017   1.442 -1.4156  0.1627 -3.6138
  126MOL0     H16606   0.392   4.244   1.582 -1.5626 -0.8290  1.9932
  126MOL0     H16607   0.468   4.121   1.684 -1.8929 -1.1098  0.1489
  126MOL0     H16608   0.352   3.941   1.584  2.7932  0.6270 -0.5093
  126MOL0     H16609   0.267   4.050   1.474 -1.7112 -0.9001  0.6754
  126MOL0     H16610   0.165   4.147   1.698 -0.7008  0.6998 -0.7650
  126MOL0     H16611   0.125   3.980   1.652  0.2429  1.0696  0.1928
  126MOL0     H16612   0.365   4.029   1.836 -0.5374 -0.2123  2.4172
  126MOL0     H16613   0.271   3.873   1.799 -3.3698 -0.1295 -4.0654
  126MOL0     H16614   1.089   4.415   1.528 -0.7488 -1.8459 -1.5428
  126MOL0     H16615   1.242   4.599   1.504 -0.6526 -0.4827  1.0436
  126MOL0     H16616   1.162   5.180   1.295 -0.1475 -0.1175 -1.2746
  126MOL0     H16617   1.326   5.352   1.295  0.2356 -0.2338  0.1111
  126MOL0     H16618   3.159   6.257   1.750  0.7154  1.3832  0.0381
  126MOL0     H16619   3.357   6.415   1.766  4.8909  2.9633 -2.7797
  126MOL0     H16620   3.539   6.861   1.513 -1.0277 -1.3621  2.0821
  126MOL0     H16621   3.746   6.996   1.479  1.5789 -0.6822 -1.0886
  126MOL0     H16622   4.028   6.843   1.652 -0.8891  2.3327  0.0637
  126MOL0     H16623   4.087   6.985   1.581  0.5565  0.2297 -0.1778
  126MOL0     H16624   4.259   6.827   1.621 -0.9196 -2.7324  1.1489
  126MOL0     H16625   4.207   6.707   1.504 -1.2086  0.4508 -1.5016
  126MOL0     H16626   4.324   6.976   1.469 -2.2111  0.5979  2.1309
  126MOL0     H16627   4.215   6.918   1.337 -0.3768 -3.0736 -0.5745
  126MOL0     H16628   4.338   6.722   1.276  0.1110  1.7557 -2.6648
  126MOL0     H16629   4.408   6.877   1.250 -0.9240  0.4957 -0.7430
  126MOL0     H16630   4.665   6.699   1.545  0.7962 -2.2724 -2.1226
  126MOL0     H16631   3.974   6.619   1.483  1.1087  0.8771 -2.5537
  126MOL0     H16632   3.751   6.499   1.521 -0.0844  0.6514 -1.4881
  127MOL0     O16633   0.719   9.413   2.514  0.4880 -0.8425  0.6320
  127MOL0     C16634   0.758   9.316   2.454 -0.2266  1.0651 -0.7222
  127MOL0     O16635   0.675   9.238   2.367  0.5842 -0.2490 -0.9664
  127MOL0     C16636   0.551   9.283   2.337  0.5315 -0.2040 -0.0265
  127MOL0     C16637   0.527   9.414   2.279  0.6166 -0.1984  0.6098
  127MOL0     C16638   0.400   9.444   2.225  0.1068 -0.5269  0.1839
  127MOL0     C16639   0.294   9.347   2.234 -0.1632  0.2750  0.6768
  127MOL0     O16640   0.159   9.368   2.199  0.0129  0.0885  0.4737
  127MOL0     C16641   0.114   9.507   2.178  0.1653  0.2999 -0.7074
  127MOL0     C16642   0.108   9.591   2.306  0.4117  0.6284  0.6807
  127MOL0     C16643   0.035   9.519   2.416 -0.4704  0.2774 -0.5775
  127MOL0     C16644   0.039   9.586   2.559  0.3335  0.0867  0.5088
  127MOL0     C16645  -0.071   9.690   2.578  0.9276 -0.4647 -0.1951
  127MOL0     C16646  -0.189   9.641   2.659 -0.3621 -0.5693  0.2233
  127MOL0     C16647  -0.308   9.736   2.649  0.5258 -0.0100  0.1569
  127MOL0     C16648  -0.420   9.674   2.737 -0.1570 -0.7423 -0.3312
  127MOL0     N16649  -0.555   9.721   2.689 -0.3786 -0.5047 -0.2184
  127MOL0     C16650  -0.625   9.673   2.584  0.2168 -0.6747  0.7764
  127MOL0     C16651  -0.735   9.748   2.563 -0.0077 -0.2568 -0.5320
  127MOL0     C16652  -0.844   9.727   2.467 -0.3949  0.6947  0.4539
  127MOL0     C16653  -0.965   9.657   2.532 -0.1441 -0.5206  0.0511
  127MOL0     C16654  -1.076   9.643   2.428  0.2029 -0.6866  1.0889
  127MOL0     C16655  -1.209   9.581   2.480 -0.2710 -0.0272  0.7969
  127MOL0     O16656  -1.285   9.569   2.362  0.2179  1.0340  0.7730
  127MOL0     C16657  -1.421   9.545   2.361 -1.4405 -0.4177 -0.4926
  127MOL0     C16658  -1.492   9.504   2.472 -0.3974  0.2212 -0.4507
  127MOL0     C16659  -1.618   9.452   2.452  0.6044 -0.4656  0.5609
  127MOL0     C16660  -1.686   9.462   2.325 -0.0332 -0.1687  0.7291
  127MOL0     C16661  -1.821   9.407   2.315 -0.2518 -0.4225  0.5020
  127MOL0     O16662  -1.884   9.383   2.438  0.0656 -0.2414 -0.5967
  127MOL0     C16663  -1.986   9.293   2.432  0.9067 -0.3523 -0.0606
  127MOL0     C16664  -1.965   9.171   2.499 -0.2999  0.1983 -0.1678
  127MOL0     C16665  -2.067   9.079   2.487 -0.1462  0.0349 -0.8610
  127MOL0     C16666  -2.188   9.111   2.419  0.2139 -0.0789 -1.1264
  127MOL0     O16667  -2.278   9.010   2.412  0.2507  0.6439 -0.0952
  127MOL0     C16668  -2.414   9.039   2.369 -0.6280 -0.0555  0.0501
  127MOL0     C16669  -2.485   8.914   2.399  0.3121 -0.4572  0.2375
  127MOL0     C16670  -2.482   8.882   2.547 -0.0186  0.0311 -0.3633
  127MOL0     C16671  -2.600   8.781   2.572 -0.2140  0.3103  0.5357
  127MOL0     C16672  -2.722   8.846   2.628  1.1852  0.6030  0.5971
  127MOL0     C16673  -2.820   8.749   2.695  0.9419  0.4001  1.1707
  127MOL0     C16674  -2.858   8.632   2.601 -0.1150  0.7571 -0.3294
  127MOL0     C16675  -2.909   8.686   2.470  0.3857 -0.4433  0.5256
  127MOL0    Cl16676  -3.051   8.789   2.497  0.9628 -0.1306  0.1062
  127MOL0     C16677  -2.205   9.240   2.361  0.0766 -0.4339 -0.0091
  127MOL0     C16678  -2.101   9.326   2.358  0.5521 -0.8955  0.4685
  127MOL0     O16679  -1.861   9.381   2.198 -0.1247 -0.0178 -0.2375
  127MOL0     C16680  -1.615   9.512   2.208  0.3596 -0.3564 -0.9386
  127MOL0     C16681  -1.482   9.557   2.234 -0.5270  0.0768  0.3552
  127MOL0     N16682  -0.730   9.839   2.662 -0.3252 -0.6908  0.5619
  127MOL0     N16683  -0.622   9.829   2.733 -0.2433 -0.5647  0.4424
  127MOL0     C16684   0.325   9.223   2.293  0.4494 -0.0792 -0.8651
  127MOL0     C16685   0.453   9.189   2.343  0.3912 -0.1501 -0.6172
  127MOL0     C16686   0.901   9.271   2.462  0.3702 -0.6257  0.0826
  127MOL0     C16687   0.998   9.360   2.515 -1.1900 -0.9123 -0.7764
  127MOL0     C16688   1.130   9.316   2.536  0.6961 -0.5282 -0.5977
  127MOL0     C16689   1.174   9.190   2.488 -0.6681 -0.2479 -0.4955
  127MOL0     O16690   1.307   9.155   2.502 -0.5756  0.4025 -0.3058
  127MOL0     C16691   1.382   9.126   2.377 -0.5920  0.2691  0.4665
  127MOL0     C16692   1.416   8.975   2.382 -0.4987 -0.4955 -0.7215
  127MOL0     C16693   1.516   8.943   2.265  0.1546  0.4827 -0.0410
  127MOL0     C16694   1.524   8.789   2.234  0.1456  0.9075  0.0961
  127MOL0     C16695   1.546   8.717   2.356  0.3070 -0.2339 -0.5439
  127MOL0     C16696   1.568   8.663   2.464 -0.2751 -0.3178 -0.2569
  127MOL0     C16697   1.079   9.114   2.427  0.4290 -0.0275 -0.3315
  127MOL0     C16698   0.945   9.147   2.414  0.2887  0.4479  0.3468
  127MOL0     H16699   0.612   9.482   2.276  0.5867  0.0063  3.0546
  127MOL0     H16700   0.384   9.549   2.201  1.3592 -0.3998 -0.2060
  127MOL0     H16701   0.012   9.500   2.139  0.3137 -0.1145 -1.0278
  127MOL0     H16702   0.179   9.555   2.105 -1.0004  1.4947 -1.0014
  127MOL0     H16703   0.058   9.687   2.290  0.8670  1.3082  3.0061
  127MOL0     H16704   0.208   9.607   2.347  0.5678 -2.5084  1.7696
  127MOL0     H16705   0.077   9.418   2.416  1.2765  0.9570 -2.0134
  127MOL0     H16706  -0.072   9.508   2.393 -1.0693 -1.1936  2.3721
  127MOL0     H16707   0.028   9.512   2.639  0.3679  0.6415  1.0348
  127MOL0     H16708   0.138   9.631   2.565  0.8612 -0.7141 -1.4744
  127MOL0     H16709  -0.111   9.731   2.485 -3.6848 -0.8356  1.3607
  127MOL0     H16710  -0.022   9.774   2.629  3.0129 -1.0247 -1.1477
  127MOL0     H16711  -0.150   9.636   2.761  1.1870  1.5232 -0.1971
  127MOL0     H16712  -0.214   9.542   2.620 -1.4495 -0.4443  0.5593
  127MOL0     H16713  -0.287   9.839   2.677 -3.0913  0.1048  3.2714
  127MOL0     H16714  -0.342   9.737   2.545  0.3742 -0.0071  0.2065
  127MOL0     H16715  -0.405   9.721   2.834  0.1422  1.0017 -1.1781
  127MOL0     H16716  -0.412   9.566   2.753 -0.1090 -0.7010 -0.0796
  127MOL0     H16717  -0.590   9.594   2.519 -0.2537 -0.3645  0.1297
  127MOL0     H16718  -0.800   9.670   2.385 -0.1049  1.5806 -0.0220
  127MOL0     H16719  -0.873   9.828   2.434  0.7800 -0.0207 -3.2167
  127MOL0     H16720  -1.008   9.725   2.606 -2.9562  1.7986 -3.3958
  127MOL0     H16721  -0.937   9.560   2.576  0.0123 -0.0109  1.0960
  127MOL0     H16722  -1.096   9.741   2.385 -1.1249 -1.7990 -0.9559
  127MOL0     H16723  -1.041   9.577   2.348  0.2861 -1.3100  1.6272
  127MOL0     H16724  -1.252   9.651   2.552  0.4414  1.4079 -0.1211
  127MOL0     H16725  -1.189   9.483   2.526  1.4550  0.5872  1.4334
  127MOL0     H16726  -1.444   9.480   2.567  0.5370  0.8472 -0.7481
  127MOL0     H16727  -1.669   9.399   2.531 -0.8533 -0.5263 -0.3939
  127MOL0     H16728  -1.872   9.151   2.550  1.7376  0.6536 -3.4122
  127MOL0     H16729  -2.066   8.978   2.527 -0.6154 -0.2226 -1.4824
  127MOL0     H16730  -2.430   9.074   2.267  0.0170  0.6417  0.1801
  127MOL0     H16731  -2.452   9.109   2.444 -0.1626 -0.6484  0.8616
  127MOL0     H16732  -2.456   8.835   2.330 -0.0163  0.2761 -0.7571
  127MOL0     H16733  -2.590   8.929   2.369  1.0709  3.5163 -1.0715
  127MOL0     H16734  -2.493   8.975   2.604 -2.5680  0.7942 -1.9351
  127MOL0     H16735  -2.391   8.827   2.573  0.0161 -0.4968 -1.5573
  127MOL0     H16736  -2.628   8.715   2.489 -1.4632 -2.2887  2.8658
  127MOL0     H16737  -2.557   8.710   2.644  3.4818  0.7977 -0.9426
  127MOL0     H16738  -2.770   8.910   2.554  2.6010  1.3106  0.2609
  127MOL0     H16739  -2.692   8.913   2.709 -0.7677  0.0290  1.8548
  127MOL0     H16740  -2.915   8.803   2.702  0.1398 -0.1115 -3.1147
  127MOL0     H16741  -2.789   8.718   2.796 -0.0608 -0.7176  1.1611
  127MOL0     H16742  -2.778   8.559   2.580 -2.3769 -1.7812 -0.7351
  127MOL0     H16743  -2.940   8.580   2.651 -0.4942  0.1966 -1.4849
  127MOL0     H16744  -2.948   8.602   2.413 -1.9683  1.2056 -0.4802
  127MOL0     H16745  -2.837   8.739   2.405 -0.1170 -1.3233 -0.7851
  127MOL0     H16746  -2.300   9.269   2.317 -1.2596 -0.4875  2.6421
  127MOL0     H16747  -2.103   9.423   2.310  2.2222 -0.5822  0.9725
  127MOL0     H16748  -1.659   9.507   2.109 -0.5138 -2.5988 -0.5144
  127MOL0     H16749  -1.420   9.579   2.147 -0.7188 -2.3582 -0.4702
  127MOL0     H16750   0.257   9.140   2.307  2.2070 -1.8732 -2.4463
  127MOL0     H16751   0.489   9.096   2.385  4.4148  1.4175 -0.0882
  127MOL0     H16752   0.970   9.458   2.551  1.9930 -0.3067  0.4078
  127MOL0     H16753   1.205   9.377   2.586  0.5476 -1.8943  1.4138
  127MOL0     H16754   1.474   9.186   2.378 -0.5989  0.2896  1.8130
  127MOL0     H16755   1.322   9.155   2.291 -0.3661 -2.4953 -0.7187
  127MOL0     H16756   1.467   8.952   2.476 -0.1771  1.0522 -0.4844
  127MOL0     H16757   1.326   8.913   2.379 -0.5161 -0.6428  1.5291
  127MOL0     H16758   1.615   8.977   2.296  0.1719  0.0584  0.3841
  127MOL0     H16759   1.487   9.004   2.179  0.4203  1.4824  0.5628
  127MOL0     H16760   1.421   8.772   2.200 -0.9680  3.6332  1.8055
  127MOL0     H16761   1.601   8.768   2.159 -0.2516 -0.0239 -0.0541
  127MOL0     H16762   1.586   8.604   2.552 -3.9755  1.2407  1.7675
  127MOL0     H16763   1.107   9.012   2.406 -3.5153 -1.5805  1.0164
  127MOL0     H16764   0.879   9.076   2.367 -0.2477  1.4279 -0.4325
  128MOL0     O16765   8.649   5.322   6.055 -0.3846 -0.5273  1.0754
  128MOL0     C16766   8.704   5.433   6.048 -0.9660  0.9321  0.3897
  128MOL0     O16767   8.675   5.536   5.961  0.7688  0.0319  0.5974
  128MOL0     C16768   8.591   5.519   5.863  0.2278  0.5206  0.6598
  128MOL0     C16769   8.511   5.631   5.836 -0.4515  0.5432 -0.6221
  128MOL0     C16770   8.410   5.623   5.744  0.5090 -0.3994  0.9123
  128MOL0     C16771   8.384   5.499   5.683 -0.7826 -0.9633  0.0677
  128MOL0     O16772   8.282   5.482   5.593 -0.1802  0.1423  0.2104
  128MOL0     C16773   8.149   5.547   5.614  0.2456  0.0452 -0.1780
  128MOL0     C16774   8.057   5.466   5.717  0.0729 -0.1869 -0.5818
  128MOL0     C16775   7.917   5.524   5.745 -0.1221  0.8239  0.1988
  128MOL0     C16776   7.914   5.675   5.783 -0.7274 -0.1513  1.4698
  128MOL0     C16777   7.774   5.725   5.819  0.4532 -0.8717 -0.6279
  128MOL0     C16778   7.766   5.877   5.841 -0.1173 -0.5669 -0.4338
  128MOL0     C16779   7.630   5.923   5.899  0.5975 -0.6192  0.4258
  128MOL0     C16780   7.631   6.078   5.905 -0.1792  0.6168 -0.3148
  128MOL0     N16781   7.512   6.142   5.963  0.2231 -0.2696  0.4762
  128MOL0     C16782   7.374   6.107   5.941  0.5914  0.1888 -0.6353
  128MOL0     C16783   7.307   6.217   5.995  0.2745  0.1963 -0.4700
  128MOL0     C16784   7.159   6.232   5.977 -0.3049 -0.1133 -0.0358
  128MOL0     C16785   7.084   6.213   6.110  0.0249  0.5559  0.4958
  128MOL0     C16786   7.116   6.076   6.170 -0.1432 -0.3320  0.1813
  128MOL0     C16787   7.043   6.053   6.305  0.4875  0.9088  0.8970
  128MOL0     O16788   6.909   6.023   6.263 -0.0026  0.3990 -0.7700
  128MOL0     C16789   6.816   6.009   6.367 -0.8537  0.0693  0.1546
  128MOL0     C16790   6.835   6.003   6.503 -0.0035 -0.0127 -0.5962
  128MOL0     C16791   6.724   5.975   6.586 -0.5811 -0.5377  0.3749
  128MOL0     C16792   6.595   5.964   6.541 -0.2608 -0.3434 -1.0223
  128MOL0     C16793   6.482   5.939   6.629 -0.5001 -0.7132  0.4195
  128MOL0     O16794   6.371   5.890   6.568  0.6149  0.7722  0.6252
  128MOL0     C16795   6.254   5.833   6.625 -0.5042 -0.4895 -0.6020
  128MOL0     C16796   6.170   5.757   6.536 -0.3832  0.0789  0.3664
  128MOL0     C16797   6.054   5.702   6.588 -0.0572 -0.1570 -0.2225
  128MOL0     C16798   6.006   5.733   6.713  0.2844  0.5116  0.2015
  128MOL0     O16799   5.888   5.687   6.766 -0.5025  0.4359 -0.1360
  128MOL0     C16800   5.795   5.619   6.688  0.0281  1.0195  0.2449
  128MOL0     C16801   5.661   5.623   6.763  0.0790 -0.1051 -0.1168
  128MOL0     C16802   5.544   5.526   6.722 -0.3086  0.2198  0.2031
  128MOL0     C16803   5.426   5.562   6.822 -0.0121  0.4103  1.3178
  128MOL0     C16804   5.309   5.459   6.808  0.3681 -0.3295 -0.5743
  128MOL0     C16805   5.168   5.493   6.856  0.6071  0.1057 -0.1584
  128MOL0     C16806   5.080   5.378   6.824  0.3603  0.4806  0.7468
  128MOL0     C16807   4.943   5.376   6.888 -0.2689 -0.2932 -0.2811
  128MOL0    Cl16808   4.839   5.256   6.815  0.3743  0.1209 -0.0621
  128MOL0     C16809   6.068   5.826   6.793  0.2080 -0.3809  0.0590
  128MOL0     C16810   6.199   5.875   6.751  0.0255  0.0638  0.1097
  128MOL0     O16811   6.499   5.943   6.749 -0.3438 -1.0743  0.2454
  128MOL0     C16812   6.580   5.987   6.408  0.1434 -1.2334  0.5852
  128MOL0     C16813   6.685   6.013   6.319  0.1157  0.7314  0.4359
  128MOL0     N16814   7.393   6.304   6.051  0.4667 -0.2888  0.7760
  128MOL0     N16815   7.512   6.260   6.026 -0.4653  0.1990 -0.2612
  128MOL0     C16816   8.476   5.396   5.697  0.1842  0.3014 -0.4686
  128MOL0     C16817   8.578   5.406   5.784  0.4562  0.2841 -0.2307
  128MOL0     C16818   8.805   5.468   6.149  0.5411 -0.0762  0.0901
  128MOL0     C16819   8.820   5.603   6.186  0.5195  0.4551 -0.1052
  128MOL0     C16820   8.924   5.636   6.274  0.9693 -0.3007 -0.3355
  128MOL0     C16821   9.005   5.535   6.320 -0.5434  0.8960 -0.6296
  128MOL0     O16822   9.106   5.587   6.396 -0.7210  0.8413 -0.8275
  128MOL0     C16823   9.200   5.494   6.468  0.1908 -1.2521 -0.3883
  128MOL0     C16824   9.297   5.577   6.555 -0.1175 -0.7863 -0.2295
  128MOL0     C16825   9.402   5.646   6.476  0.4314 -0.2182  0.5584
  128MOL0     C16826   9.510   5.553   6.418 -0.0859 -0.2562  0.9181
  128MOL0     C16827   9.609   5.514   6.523 -0.9685  0.0761 -0.0818
  128MOL0     C16828   9.699   5.483   6.599  0.4541  0.3664 -0.5050
  128MOL0     C16829   8.995   5.398   6.276 -1.0125 -0.3160 -0.1346
  128MOL0     C16830   8.896   5.367   6.194  0.2273 -0.5222 -0.0300
  128MOL0     H16831   8.540   5.719   5.892 -0.9887  1.0070 -1.0545
  128MOL0     H16832   8.344   5.709   5.740  0.9637 -0.0997 -1.1585
  128MOL0     H16833   8.098   5.544   5.517 -1.0223 -2.7622  0.4742
  128MOL0     H16834   8.163   5.650   5.648 -1.4048  0.7805 -1.5862
  128MOL0     H16835   8.123   5.471   5.804  3.0360 -2.2628 -2.5190
  128MOL0     H16836   8.040   5.363   5.685  1.4803 -0.5212 -0.2879
  128MOL0     H16837   7.869   5.458   5.819  0.8658  2.1911  2.1621
  128MOL0     H16838   7.853   5.530   5.657 -0.0160  1.5368  0.1659
  128MOL0     H16839   7.985   5.692   5.865  1.5810  1.1917 -0.6827
  128MOL0     H16840   7.957   5.729   5.699  0.8969 -2.4448  0.7401
  128MOL0     H16841   7.749   5.680   5.916 -2.1054  0.3678 -0.6083
  128MOL0     H16842   7.704   5.689   5.744 -0.7459 -1.1467  0.5754
  128MOL0     H16843   7.784   5.910   5.739 -0.2358  0.6943 -0.0586
  128MOL0     H16844   7.850   5.908   5.903  0.3674  0.6331 -1.6563
  128MOL0     H16845   7.557   5.877   5.830 -0.6629  1.9509 -0.0749
  128MOL0     H16846   7.607   5.880   5.997  3.0866 -4.3004 -0.3822
  128MOL0     H16847   7.632   6.125   5.806  3.8109 -1.3419 -1.4590
  128MOL0     H16848   7.710   6.114   5.972 -0.0024 -0.0211 -0.1718
  128MOL0     H16849   7.334   6.017   5.894  0.0005 -1.5998  2.9029
  128MOL0     H16850   7.122   6.163   5.900 -3.2275  2.4106 -1.1472
  128MOL0     H16851   7.128   6.330   5.938 -1.0449  0.2004  1.2677
  128MOL0     H16852   6.976   6.211   6.095  0.4028 -1.6031 -3.0918
  128MOL0     H16853   7.112   6.295   6.178  1.9352  0.7813 -0.5051
  128MOL0     H16854   7.077   5.992   6.111  0.1065 -2.8529  3.2961
  128MOL0     H16855   7.223   6.059   6.188 -0.3098 -0.1053  1.4917
  128MOL0     H16856   7.041   6.143   6.367 -0.6084  2.8030 -1.7128
  128MOL0     H16857   7.088   5.964   6.348 -0.8812 -1.6217 -2.4094
  128MOL0     H16858   6.929   6.029   6.551  0.0358  2.6014 -1.9227
  128MOL0     H16859   6.740   5.961   6.692 -0.5876 -2.1218  0.1803
  128MOL0     H16860   6.211   5.740   6.437 -0.9517  0.0153  0.1411
  128MOL0     H16861   6.001   5.632   6.523  0.8113  0.5136 -1.6988
  128MOL0     H16862   5.831   5.515   6.683 -2.3475  0.1288  0.3018
  128MOL0     H16863   5.766   5.663   6.592  1.6412 -1.2183 -1.4040
  128MOL0     H16864   5.621   5.724   6.749 -0.5910 -0.5190 -1.4203
  128MOL0     H16865   5.676   5.610   6.870  0.4326  1.1045  0.0031
  128MOL0     H16866   5.574   5.423   6.741  2.4884  1.1147  1.1550
  128MOL0     H16867   5.519   5.534   6.616 -0.9079 -2.5426  0.0737
  128MOL0     H16868   5.467   5.548   6.922  3.9984  0.4286 -0.1375
  128MOL0     H16869   5.382   5.662   6.819 -2.9608 -0.7593  2.0617
  128MOL0     H16870   5.347   5.369   6.858  1.4165 -0.0246 -0.8053
  128MOL0     H16871   5.302   5.440   6.700  1.4638  0.9690 -0.9000
  128MOL0     H16872   5.129   5.586   6.815 -1.9780  0.0180  1.7967
  128MOL0     H16873   5.178   5.511   6.964  1.8843  0.1507 -0.2711
  128MOL0     H16874   5.077   5.380   6.715  0.8246 -0.0484  0.7197
  128MOL0     H16875   5.130   5.285   6.852  3.0645  1.3597 -0.7845
  128MOL0     H16876   4.894   5.472   6.869  0.9256  0.2483 -0.7211
  128MOL0     H16877   4.934   5.351   6.994 -2.1335 -1.5610 -0.6732
  128MOL0     H16878   6.029   5.870   6.884 -1.6815  0.6044 -1.1761
  128MOL0     H16879   6.254   5.948   6.810 -0.0284 -0.3198  0.6414
  128MOL0     H16880   6.481   6.019   6.380  1.0387  1.7475  0.4606
  128MOL0     H16881   6.679   6.028   6.212  0.2474  0.6154  0.4124
  128MOL0     H16882   8.456   5.309   5.636 -1.3024  0.9228 -0.9208
  128MOL0     H16883   8.650   5.325   5.793  0.5342  0.1062 -2.1015
  128MOL0     H16884   8.742   5.672   6.155  0.2934  0.8876  1.3448
  128MOL0     H16885   8.949   5.738   6.300  1.5184 -0.1773 -1.2791
  128MOL0     H16886   9.246   5.445   6.382 -2.4381  0.0433 -2.7145
  128MOL0     H16887   9.142   5.415   6.518  1.1766 -1.7833 -0.0575
  128MOL0     H16888   9.237   5.648   6.612 -2.4680 -2.6181 -0.3009
  128MOL0     H16889   9.354   5.518   6.628 -0.3545 -0.6734  0.0521
  128MOL0     H16890   9.449   5.723   6.538 -0.8189 -0.3131  1.6765
  128MOL0     H16891   9.353   5.704   6.397  0.2884 -0.4384  0.4839
  128MOL0     H16892   9.473   5.456   6.384  0.6496  0.1146 -1.0811
  128MOL0     H16893   9.558   5.612   6.340  0.2253  1.0959  2.0938
  128MOL0     H16894   9.781   5.442   6.656 -1.5982 -1.6374  1.1823
  128MOL0     H16895   9.073   5.325   6.294 -2.9695 -2.7229 -0.7974
  128MOL0     H16896   8.898   5.267   6.152  1.3142  0.3586 -2.2679
  129MOL0     O16897   9.285  10.562   3.117  0.4365  0.5790  0.3520
  129MOL0     C16898   9.312  10.643   3.205  0.1894  0.0302  0.1765
  129MOL0     O16899   9.242  10.758   3.225  0.3552 -0.4856 -0.1047
  129MOL0     C16900   9.113  10.772   3.189 -0.0586 -0.1156  0.5213
  129MOL0     C16901   9.008  10.715   3.260  0.6283  0.2439  0.0364
  129MOL0     C16902   8.879  10.737   3.220  0.5267 -0.3179  0.4326
  129MOL0     C16903   8.848  10.817   3.104 -0.1730  0.2075 -0.6013
  129MOL0     O16904   8.716  10.835   3.075  0.0901  0.3486 -0.1486
  129MOL0     C16905   8.678  10.940   2.986  1.0223  0.2420  0.2882
  129MOL0     C16906   8.530  10.927   2.982  1.0700 -0.4982  0.0882
  129MOL0     C16907   8.460  11.052   2.926  0.0548  0.1070  0.7069
  129MOL0     C16908   8.310  11.049   2.948 -0.8104  0.1495  0.0310
  129MOL0     C16909   8.231  11.151   2.864 -0.9198  0.4477  0.5111
  129MOL0     C16910   8.289  11.290   2.876  0.3532  0.3220  0.7531
  129MOL0     C16911   8.209  11.402   2.795 -1.0349  1.3161 -0.3339
  129MOL0     C16912   8.266  11.538   2.833  0.3404  0.0159 -0.4603
  129MOL0     N16913   8.396  11.558   2.790  0.0055 -0.1661  0.5948
  129MOL0     C16914   8.500  11.528   2.872 -1.0184  0.3700 -0.2697
  129MOL0     C16915   8.613  11.510   2.794 -0.5534  0.5762 -0.9350
  129MOL0     C16916   8.751  11.489   2.848  0.2338 -0.0086  0.4678
  129MOL0     C16917   8.805  11.358   2.793 -0.1475  1.1107 -0.4366
  129MOL0     C16918   8.941  11.332   2.862  0.0497  0.8477  0.0399
  129MOL0     C16919   8.998  11.205   2.794  0.1930 -0.2423 -0.4378
  129MOL0     O16920   9.130  11.180   2.848 -0.2226 -0.6674  0.4862
  129MOL0     C16921   9.216  11.113   2.768 -0.4412  0.9171 -0.0973
  129MOL0     C16922   9.353  11.128   2.810 -1.0366 -0.6231 -0.7786
  129MOL0     C16923   9.461  11.065   2.753 -0.3168 -0.3622 -0.5179
  129MOL0     C16924   9.444  10.976   2.644  0.2522 -0.4563  0.5689
  129MOL0     C16925   9.557  10.915   2.584  0.3254  1.1522  1.1491
  129MOL0     O16926   9.680  10.968   2.607  0.0730 -0.9260 -0.1285
  129MOL0     C16927   9.799  10.900   2.601 -0.2853  0.0691 -0.4431
  129MOL0     C16928   9.907  10.983   2.640  1.0003  0.5888  0.7676
  129MOL0     C16929  10.037  10.939   2.619 -0.2791 -0.3004  0.4814
  129MOL0     C16930  10.069  10.828   2.542 -0.9453 -0.1160 -0.8070
  129MOL0     O16931  10.196  10.800   2.509  1.1018 -0.3400  0.8137
  129MOL0     C16932  10.301  10.856   2.587 -0.1471  0.4521  0.1436
  129MOL0     C16933  10.432  10.785   2.545  0.5022  0.3518 -1.0719
  129MOL0     C16934  10.408  10.636   2.591  0.3918 -0.0987  0.1418
  129MOL0     C16935  10.527  10.556   2.535 -0.1037 -0.3057 -0.4559
  129MOL0     C16936  10.540  10.406   2.592 -0.5633 -0.8086 -0.3201
  129MOL0     C16937  10.417  10.314   2.598 -0.0886 -0.3107 -0.6432
  129MOL0     C16938  10.371  10.265   2.463  0.1637 -0.3639 -0.4475
  129MOL0     C16939  10.259  10.163   2.480  0.9438  0.3514 -0.2976
  129MOL0    Cl16940  10.229  10.090   2.320  0.3997 -0.6774  0.2050
  129MOL0     C16941   9.958  10.747   2.503 -0.1447  0.3627  0.9469
  129MOL0     C16942   9.831  10.776   2.534  0.0997 -0.9174  0.5863
  129MOL0     O16943   9.542  10.830   2.498 -0.2997  0.5679 -1.1860
  129MOL0     C16944   9.309  10.957   2.600  0.4038 -0.5781  0.2265
  129MOL0     C16945   9.199  11.028   2.652  0.4491  0.4609  0.3308
  129MOL0     N16946   8.567  11.529   2.663 -0.2713 -0.1213  0.3330
  129MOL0     N16947   8.444  11.557   2.665 -0.0526 -0.2869  0.0900
  129MOL0     C16948   8.950  10.875   3.036 -0.3998 -0.2801  0.6761
  129MOL0     C16949   9.080  10.845   3.077  0.2902  0.9500  0.7995
  129MOL0     C16950   9.423  10.611   3.288  0.3205 -0.3581  0.1942
  129MOL0     C16951   9.478  10.717   3.367  0.3932  0.0018  0.1911
  129MOL0     C16952   9.594  10.698   3.443 -0.7611  0.4525  0.1735
  129MOL0     C16953   9.659  10.567   3.451  0.0718  0.3675  0.5148
  129MOL0     O16954   9.770  10.556   3.529 -0.4673 -1.0022  0.8282
  129MOL0     C16955   9.880  10.470   3.497 -0.1284  0.7704  0.0515
  129MOL0     C16956   9.944  10.506   3.365 -0.0066 -0.3256  0.0731
  129MOL0     C16957   9.979  10.657   3.368 -0.4902  0.1891  0.3227
  129MOL0     C16958  10.120  10.681   3.307 -0.0931  0.0348  0.0450
  129MOL0     C16959  10.230  10.621   3.393 -0.1540 -0.2797  0.5913
  129MOL0     C16960  10.307  10.565   3.465  0.2383 -0.0181  0.8861
  129MOL0     C16961   9.612  10.463   3.372  0.0367 -0.3229 -0.0974
  129MOL0     C16962   9.502  10.491   3.287 -0.1842 -0.2477 -0.0382
  129MOL0     H16963   9.034  10.646   3.340 -1.6034 -1.5065 -0.6147
  129MOL0     H16964   8.797  10.700   3.280 -1.7050  1.3751 -1.3717
  129MOL0     H16965   8.707  10.928   2.881 -0.0930 -1.6343  0.1616
  129MOL0     H16966   8.725  11.033   3.022  5.5049 -1.3196 -0.8435
  129MOL0     H16967   8.483  10.911   3.079 -2.0212 -4.1367 -1.7366
  129MOL0     H16968   8.508  10.836   2.925  1.1434 -0.7746  0.4947
  129MOL0     H16969   8.486  11.066   2.821  1.0404  0.1838  0.9526
  129MOL0     H16970   8.499  11.141   2.976  0.7860  0.4831 -0.5006
  129MOL0     H16971   8.266  10.950   2.929  0.6431 -0.2275 -1.6282
  129MOL0     H16972   8.295  11.067   3.055  0.2692  1.4206 -0.0113
  129MOL0     H16973   8.127  11.149   2.898 -1.3008  5.0515  0.3037
  129MOL0     H16974   8.238  11.133   2.756  1.1894  3.3598  0.0126
  129MOL0     H16975   8.391  11.280   2.837  0.1062 -1.6905  0.5220
  129MOL0     H16976   8.291  11.317   2.982 -0.3483  1.8606  0.4088
  129MOL0     H16977   8.206  11.382   2.687 -3.2803  4.0123 -0.8846
  129MOL0     H16978   8.104  11.408   2.825 -1.0839 -1.1949  0.1618
  129MOL0     H16979   8.265  11.538   2.942 -0.7064 -3.3872 -0.3497
  129MOL0     H16980   8.197  11.613   2.793  1.5944  0.8301 -1.1475
  129MOL0     H16981   8.496  11.519   2.980 -2.5929  0.7196 -0.2761
  129MOL0     H16982   8.747  11.483   2.957 -0.8734 -0.9633  0.3986
  129MOL0     H16983   8.821  11.564   2.811  2.3338 -1.2478  1.7220
  129MOL0     H16984   8.819  11.365   2.685 -0.6546 -0.5496 -0.6316
  129MOL0     H16985   8.743  11.271   2.815 -0.2700  1.3980  0.4124
  129MOL0     H16986   9.008  11.416   2.845 -0.6408  1.8943  2.0826
  129MOL0     H16987   8.928  11.312   2.969  1.4680  0.5863  0.1714
  129MOL0     H16988   8.992  11.213   2.686 -2.1233  3.5305 -0.2096
  129MOL0     H16989   8.943  11.113   2.817  0.9196 -0.7469 -0.6811
  129MOL0     H16990   9.371  11.192   2.896 -0.9043 -0.6594 -0.7792
  129MOL0     H16991   9.559  11.081   2.797 -1.2162 -0.1697  1.5097
  129MOL0     H16992   9.888  11.076   2.692 -2.0317 -0.6400  2.0526
  129MOL0     H16993  10.114  11.006   2.654 -0.1861 -0.4874  0.6345
  129MOL0     H16994  10.273  10.858   2.693 -4.0926 -2.6389 -0.5810
  129MOL0     H16995  10.317  10.958   2.549  1.6496  0.3133  0.4809
  129MOL0     H16996  10.509  10.835   2.605 -2.2357  1.6410  1.6134
  129MOL0     H16997  10.453  10.796   2.438 -0.8351  2.6439 -1.1661
  129MOL0     H16998  10.317  10.592   2.550  0.8234 -2.3427  1.4243
  129MOL0     H16999  10.404  10.640   2.701  0.0895  1.9866  0.1054
  129MOL0     H17000  10.513  10.541   2.428  0.3953 -0.3495 -0.5198
  129MOL0     H17001  10.621  10.610   2.548  1.0113 -2.4180  0.8103
  129MOL0     H17002  10.573  10.434   2.693 -1.8972  2.7223 -0.7158
  129MOL0     H17003  10.621  10.361   2.534 -1.6771  0.5257 -3.1085
  129MOL0     H17004  10.338  10.370   2.648  0.0115 -0.3371 -0.4540
  129MOL0     H17005  10.444  10.227   2.659 -0.5527  0.2402  0.3728
  129MOL0     H17006  10.340  10.356   2.411  2.6513  0.0472 -1.3288
  129MOL0     H17007  10.450  10.220   2.402 -1.6379 -1.2779 -2.2154
  129MOL0     H17008  10.166  10.206   2.517  0.9281 -2.2761  3.1481
  129MOL0     H17009  10.279  10.094   2.562 -3.8790  2.2528  2.9265
  129MOL0     H17010   9.968  10.652   2.451 -0.4363 -0.1254  1.7634
  129MOL0     H17011   9.759  10.711   2.486 -1.8398  1.0415  0.7073
  129MOL0     H17012   9.289  10.883   2.524 -1.0345  0.6709 -0.6800
  129MOL0     H17013   9.103  10.994   2.615  0.0836 -0.2613  1.8773
  129MOL0     H17014   8.923  10.919   2.940 -0.2995 -3.4006 -0.9097
  129MOL0     H17015   9.156  10.887   3.012  0.2594 -0.1767  0.0178
  129MOL0     H17016   9.439  10.819   3.366 -1.2462 -0.5886 -0.7143
  129MOL0     H17017   9.634  10.781   3.499 -2.6639  1.0622  0.7101
  129MOL0     H17018   9.847  10.366   3.500 -2.3910  1.4519  1.2465
  129MOL0     H17019   9.963  10.474   3.568  0.4171  1.6497 -0.6063
  129MOL0     H17020  10.037  10.451   3.351  0.6038 -0.5706  4.0550
  129MOL0     H17021   9.880  10.488   3.278 -2.5192  1.2601  1.4601
  129MOL0     H17022   9.970  10.699   3.469  2.6128  0.2024  0.6786
  129MOL0     H17023   9.904  10.705   3.304  1.2841 -0.7990 -2.7117
  129MOL0     H17024  10.124  10.634   3.208  0.2953 -2.5216  1.1836
  129MOL0     H17025  10.146  10.786   3.297  2.6772 -0.6926 -1.2186
  129MOL0     H17026  10.378  10.513   3.528 -0.9365 -2.1701  0.5135
  129MOL0     H17027   9.663  10.367   3.367 -3.3946 -2.3167 -0.2355
  129MOL0     H17028   9.488  10.406   3.222 -0.9387 -0.0496 -0.1374
  130MOL0     O17029   3.842   4.478   8.744  0.6218 -1.0798 -0.5854
  130MOL0     C17030   3.850   4.558   8.651 -0.7431  0.2700 -0.0936
  130MOL0     O17031   3.759   4.660   8.625 -0.3717  1.1048 -1.1296
  130MOL0     C17032   3.656   4.677   8.704  0.6070 -0.5455  0.2854
  130MOL0     C17033   3.631   4.808   8.741 -0.0165  0.1048 -0.3623
  130MOL0     C17034   3.524   4.841   8.827 -0.9529 -1.0131  0.0400
  130MOL0     C17035   3.444   4.747   8.880  0.0038  0.5474 -0.2204
  130MOL0     O17036   3.339   4.768   8.967 -0.4780  0.4117  0.2893
  130MOL0     C17037   3.269   4.895   8.958 -0.1456 -0.0797 -0.8340
  130MOL0     C17038   3.120   4.859   8.958 -0.5099  0.3920  0.4545
  130MOL0     C17039   3.063   4.828   9.101  1.0032 -0.5652  0.5770
  130MOL0     C17040   2.910   4.796   9.091  0.0559  0.0881  0.2420
  130MOL0     C17041   2.840   4.740   9.222 -1.2479 -0.3940 -0.3212
  130MOL0     C17042   2.697   4.684   9.207 -0.3988 -0.3696 -0.6336
  130MOL0     C17043   2.671   4.544   9.148 -0.6733  0.3149  0.1087
  130MOL0     C17044   2.519   4.524   9.135  0.1408  0.8640 -0.2319
  130MOL0     N17045   2.462   4.537   9.272  0.6006 -0.1414  1.2435
  130MOL0     C17046   2.368   4.634   9.306  0.9296 -0.0704 -0.1010
  130MOL0     C17047   2.290   4.590   9.404 -0.5998 -0.2786 -0.4294
  130MOL0     C17048   2.173   4.653   9.463 -0.1483 -0.3946  0.2689
  130MOL0     C17049   2.198   4.665   9.617  0.4552  0.5319  0.7614
  130MOL0     C17050   2.070   4.687   9.704 -0.3283  0.5931  0.1590
  130MOL0     C17051   2.012   4.817   9.662 -0.0526 -0.6089 -0.3303
  130MOL0     O17052   1.903   4.841   9.751 -0.9749 -0.1879 -0.2606
  130MOL0     C17053   1.783   4.784   9.709 -0.1697 -0.7796 -0.6549
  130MOL0     C17054   1.671   4.816   9.786  0.1188 -0.5819 -0.2239
  130MOL0     C17055   1.549   4.756   9.764  0.0127  0.2414  0.0224
  130MOL0     C17056   1.536   4.668   9.657  0.5293  0.2830  0.9366
  130MOL0     C17057   1.406   4.601   9.631  0.7827 -1.4555  0.4621
  130MOL0     O17058   1.307   4.597   9.732 -0.6387 -0.2653  0.2551
  130MOL0     C17059   1.203   4.503   9.730  0.1363 -1.2447  0.2042
  130MOL0     C17060   1.219   4.377   9.672 -0.7698  0.1766  0.2720
  130MOL0     C17061   1.118   4.284   9.674 -0.1991  0.7083  0.1896
  130MOL0     C17062   0.990   4.315   9.716 -0.0033 -0.5208 -0.1483
  130MOL0     O17063   0.894   4.214   9.714 -0.3055  0.4420  0.6942
  130MOL0     C17064   0.756   4.247   9.741 -0.2142 -0.3309  0.2534
  130MOL0     C17065   0.658   4.142   9.695  0.1949  0.1476  0.1541
  130MOL0     C17066   0.683   4.012   9.772 -0.4228 -0.2656 -0.3739
  130MOL0     C17067   0.577   3.909   9.743  0.0135  0.1965 -0.2053
  130MOL0     C17068   0.583   3.785   9.835 -0.9394 -0.1732 -0.5300
  130MOL0     C17069   0.564   3.814   9.986  0.9289 -0.1074 -0.0481
  130MOL0     C17070   0.505   3.697  10.070 -0.2745  0.4627 -0.5785
  130MOL0     C17071   0.493   3.722  10.219 -0.0131 -0.0914  0.7485
  130MOL0    Cl17072   0.358   3.829  10.249  0.5051 -0.1921 -0.1769
  130MOL0     C17073   0.967   4.444   9.767 -0.2022 -0.2080 -0.4279
  130MOL0     C17074   1.071   4.537   9.773 -0.0201  0.2005  0.0464
  130MOL0     O17075   1.393   4.548   9.518  0.0055 -0.6022 -0.2003
  130MOL0     C17076   1.645   4.646   9.572 -0.0314  1.2638 -0.5563
  130MOL0     C17077   1.764   4.711   9.594 -0.3957  0.6520  0.2224
  130MOL0     N17078   2.337   4.463   9.436  0.0085 -0.1809 -0.0788
  130MOL0     N17079   2.440   4.433   9.364 -0.0292 -0.3159  0.8304
  130MOL0     C17080   3.481   4.615   8.854 -0.4211  0.4656  0.2778
  130MOL0     C17081   3.578   4.581   8.765 -0.0184  0.3567  0.5787
  130MOL0     C17082   3.967   4.539   8.562 -0.5769 -0.8565 -0.1358
  130MOL0     C17083   3.986   4.634   8.459 -0.0249  0.5179 -0.7679
  130MOL0     C17084   4.095   4.624   8.368  0.7759 -0.5930  0.1411
  130MOL0     C17085   4.186   4.519   8.386  0.0393  0.2279  0.0446
  130MOL0     O17086   4.300   4.496   8.320 -0.4214  0.0653 -0.1008
  130MOL0     C17087   4.330   4.580   8.212  0.1178  0.3133  0.8294
  130MOL0     C17088   4.480   4.547   8.171 -0.2381  0.6449  0.6575
  130MOL0     C17089   4.509   4.616   8.031  0.5153  0.0172  0.2905
  130MOL0     C17090   4.660   4.609   8.010  0.5285 -0.5734 -0.0756
  130MOL0     C17091   4.701   4.709   7.913 -0.9242  0.4034 -0.1072
  130MOL0     C17092   4.762   4.788   7.839  0.0872  0.7211  0.7809
  130MOL0     C17093   4.164   4.423   8.487  0.4332  0.7105  0.3048
  130MOL0     C17094   4.057   4.435   8.571 -0.1459  0.2900 -0.1016
  130MOL0     H17095   3.703   4.885   8.713  0.6746 -0.2679  0.3463
  130MOL0     H17096   3.508   4.946   8.847 -1.1626 -1.0807  0.2345
  130MOL0     H17097   3.292   4.949   8.866  2.0121  0.1678 -0.2238
  130MOL0     H17098   3.288   4.967   9.039 -2.0805 -1.0272  0.5423
  130MOL0     H17099   3.113   4.772   8.892  0.2172  0.6312  0.0606
  130MOL0     H17100   3.058   4.940   8.920  0.8545  1.0656 -0.4280
  130MOL0     H17101   3.076   4.915   9.166 -0.1458  2.1546 -2.5476
  130MOL0     H17102   3.117   4.744   9.145  2.5336  0.1567  0.1470
  130MOL0     H17103   2.861   4.887   9.055  0.6188  0.4164  0.2988
  130MOL0     H17104   2.910   4.719   9.013  0.2730 -0.9229  1.2228
  130MOL0     H17105   2.830   4.822   9.293 -2.8119 -2.9022  2.5912
  130MOL0     H17106   2.900   4.670   9.281 -4.2696 -1.0916  2.1660
  130MOL0     H17107   2.648   4.749   9.134 -2.2209 -1.2019 -0.2067
  130MOL0     H17108   2.651   4.683   9.306 -1.2584 -1.2882 -1.0221
  130MOL0     H17109   2.724   4.536   9.053 -1.3351  0.2283 -0.2598
  130MOL0     H17110   2.697   4.474   9.228 -1.3474 -1.1163 -0.8866
  130MOL0     H17111   2.509   4.425   9.089  0.6796  0.8948 -0.4308
  130MOL0     H17112   2.477   4.597   9.066  3.9351  1.6935 -1.9558
  130MOL0     H17113   2.333   4.714   9.241 -1.0810 -1.2835 -0.6334
  130MOL0     H17114   2.081   4.600   9.437 -0.5812  0.3528  0.2498
  130MOL0     H17115   2.168   4.757   9.428 -1.5148 -1.2032 -2.1858
  130MOL0     H17116   2.272   4.741   9.644  1.1226  0.6032 -1.1491
  130MOL0     H17117   2.246   4.573   9.652 -2.0133 -0.6950  1.1210
  130MOL0     H17118   2.006   4.604   9.672 -0.6587  1.3686 -1.3150
  130MOL0     H17119   2.085   4.684   9.812  3.2673 -0.5172 -0.2436
  130MOL0     H17120   1.982   4.814   9.556 -1.8604 -0.9950  0.1536
  130MOL0     H17121   2.083   4.900   9.676  1.2584 -1.6010 -0.9007
  130MOL0     H17122   1.671   4.881   9.873  2.6217 -0.6321 -0.1012
  130MOL0     H17123   1.468   4.774   9.835  1.6761  1.5865  1.6961
  130MOL0     H17124   1.314   4.347   9.630 -0.7768 -1.1208  1.1239
  130MOL0     H17125   1.149   4.188   9.632  0.8584  1.3369 -0.4995
  130MOL0     H17126   0.732   4.337   9.683  0.4065  1.9021  3.2426
  130MOL0     H17127   0.759   4.266   9.849  0.4595 -1.6061  0.4725
  130MOL0     H17128   0.670   4.126   9.588  0.8208 -3.4266  0.6317
  130MOL0     H17129   0.554   4.174   9.705  0.1834  0.3000 -0.4255
  130MOL0     H17130   0.691   4.037   9.878  0.9688  2.6345 -1.0671
  130MOL0     H17131   0.781   3.977   9.738 -0.4736 -1.2260  0.4171
  130MOL0     H17132   0.481   3.961   9.758  0.8730  1.9817 -0.6168
  130MOL0     H17133   0.596   3.878   9.640  5.2063 -1.1065  0.8710
  130MOL0     H17134   0.678   3.733   9.820 -1.2848 -1.0776  0.3850
  130MOL0     H17135   0.509   3.713   9.798  1.0643 -2.2230 -0.7403
  130MOL0     H17136   0.501   3.902  10.002 -0.3188 -1.3643  2.7738
  130MOL0     H17137   0.665   3.828  10.025  0.6333  0.3024  0.5847
  130MOL0     H17138   0.405   3.674  10.033 -0.4951 -0.9483  0.7471
  130MOL0     H17139   0.549   3.598  10.051 -1.2592 -0.4307  1.4028
  130MOL0     H17140   0.585   3.773  10.251  0.0932 -0.1980  0.6169
  130MOL0     H17141   0.492   3.629  10.277 -2.9084 -0.7882 -0.2352
  130MOL0     H17142   0.871   4.465   9.813 -0.2208 -1.1164 -0.0184
  130MOL0     H17143   1.036   4.624   9.828 -3.2655 -0.0303 -1.3815
  130MOL0     H17144   1.642   4.591   9.478  2.0022 -1.2397  0.7086
  130MOL0     H17145   1.840   4.673   9.526  0.3064 -2.1724  2.3638
  130MOL0     H17146   3.428   4.542   8.914  0.8825  0.1628  1.1244
  130MOL0     H17147   3.593   4.475   8.750 -1.3682  0.0990  0.8945
  130MOL0     H17148   3.926   4.724   8.452 -0.0145  0.5870  0.0129
  130MOL0     H17149   4.095   4.686   8.279  1.4418 -1.9522 -0.8382
  130MOL0     H17150   4.316   4.688   8.224  2.3275  0.4929  2.2070
  130MOL0     H17151   4.260   4.549   8.133  1.3076  1.8828 -0.9119
  130MOL0     H17152   4.544   4.588   8.250  2.0996 -0.3195 -0.6345
  130MOL0     H17153   4.489   4.439   8.155  1.3247  1.0379 -1.6389
  130MOL0     H17154   4.483   4.722   8.034  1.5181  0.3425 -1.2795
  130MOL0     H17155   4.459   4.560   7.951  0.7631  0.3917 -0.1303
  130MOL0     H17156   4.711   4.636   8.103  2.3879  0.8593 -1.4267
  130MOL0     H17157   4.698   4.512   7.977 -0.2004 -0.9762  0.2398
  130MOL0     H17158   4.824   4.859   7.788 -2.7595  0.7347 -3.0909
  130MOL0     H17159   4.234   4.342   8.505 -0.7035  0.0104  1.6608
  130MOL0     H17160   4.041   4.365   8.652  1.0425  0.7489  0.5438
  131MOL0     O17161   3.553   6.670   3.026 -0.1468  0.3825 -0.3537
  131MOL0     C17162   3.598   6.639   2.924 -0.1082  0.4668 -0.4120
  131MOL0     O17163   3.524   6.607   2.812  0.1123 -0.4847 -0.2262
  131MOL0     C17164   3.399   6.561   2.826 -0.1662 -0.4532 -0.5492
  131MOL0     C17165   3.330   6.522   2.942  0.1686 -0.0583 -0.5303
  131MOL0     C17166   3.207   6.457   2.946 -0.2402  0.7206  0.3099
  131MOL0     C17167   3.143   6.429   2.826 -0.3140  0.9146 -0.0843
  131MOL0     O17168   3.041   6.340   2.816 -0.3602  0.5565 -0.4478
  131MOL0     C17169   2.912   6.404   2.824 -0.1772 -0.2749  0.4242
  131MOL0     C17170   2.796   6.299   2.823 -0.3873  0.0794 -0.0020
  131MOL0     C17171   2.698   6.337   2.935  0.3806 -0.8219  0.7288
  131MOL0     C17172   2.587   6.231   2.959  0.4099  0.9459 -0.3594
  131MOL0     C17173   2.501   6.257   3.088 -0.1435  0.4306  0.2823
  131MOL0     C17174   2.388   6.160   3.111  0.7507 -1.0794  0.6649
  131MOL0     C17175   2.300   6.194   3.232 -0.0412  0.7671  0.7462
  131MOL0     C17176   2.336   6.108   3.351  0.7245  0.2404  0.4798
  131MOL0     N17177   2.474   6.121   3.393 -0.1266 -0.2992 -0.8211
  131MOL0     C17178   2.570   6.030   3.372 -0.0986  0.1810 -0.0933
  131MOL0     C17179   2.688   6.082   3.408  0.1982  0.3242 -0.6219
  131MOL0     C17180   2.828   6.031   3.394 -0.0246  0.4779  0.1628
  131MOL0     C17181   2.890   6.081   3.267  0.0524 -0.4980  0.2010
  131MOL0     C17182   3.029   6.034   3.269 -0.1420  0.4684  0.1888
  131MOL0     C17183   3.130   6.110   3.169  0.6449 -0.4576  0.0904
  131MOL0     O17184   3.263   6.086   3.201 -0.3380  0.4513 -0.7992
  131MOL0     C17185   3.359   6.117   3.114 -0.5468  0.0830  1.3911
  131MOL0     C17186   3.333   6.164   2.988 -0.3770 -0.1235 -0.0216
  131MOL0     C17187   3.440   6.207   2.901  0.9411  0.7004 -0.4254
  131MOL0     C17188   3.574   6.175   2.939 -0.1413  0.4342  0.5300
  131MOL0     C17189   3.690   6.212   2.856 -0.0238  0.4113  0.3284
  131MOL0     O17190   3.809   6.199   2.913  0.2013  0.4319 -0.0158
  131MOL0     C17191   3.927   6.235   2.859 -0.0572  0.2106  0.7078
  131MOL0     C17192   4.014   6.308   2.935 -0.6496 -0.4091  0.6015
  131MOL0     C17193   4.145   6.331   2.890  0.6343 -0.5867  0.0451
  131MOL0     C17194   4.181   6.278   2.768  0.2263  0.2483  1.1463
  131MOL0     O17195   4.304   6.288   2.716 -0.8894  0.3851 -0.3282
  131MOL0     C17196   4.413   6.284   2.802  0.9318 -1.0316 -0.1470
  131MOL0     C17197   4.540   6.312   2.722 -0.3386  0.1458  0.2641
  131MOL0     C17198   4.676   6.281   2.792  0.7265 -0.3195  0.9492
  131MOL0     C17199   4.727   6.396   2.874  0.7680  1.1641  0.0858
  131MOL0     C17200   4.774   6.525   2.798 -0.0088 -0.0503 -0.0692
  131MOL0     C17201   4.802   6.633   2.897 -0.1612 -0.0375 -0.3493
  131MOL0     C17202   4.895   6.741   2.843  1.2458  0.2035 -0.2882
  131MOL0     C17203   5.050   6.692   2.839  0.1160 -0.8348 -0.2218
  131MOL0    Cl17204   5.103   6.662   3.003  0.0467  0.1836 -0.0209
  131MOL0     C17205   4.094   6.206   2.683  0.6494 -0.2477  0.2109
  131MOL0     C17206   3.967   6.176   2.732  0.4141  0.3482  0.0626
  131MOL0     O17207   3.664   6.255   2.743  0.3943  0.2890 -0.1343
  131MOL0     C17208   3.599   6.118   3.060 -0.2463 -0.5270 -0.2834
  131MOL0     C17209   3.492   6.090   3.144 -0.3995 -0.0502  1.1818
  131MOL0     N17210   2.659   6.211   3.449 -0.7136 -0.2901  0.1965
  131MOL0     N17211   2.534   6.235   3.434 -0.3169 -0.1840  0.5986
  131MOL0     C17212   3.215   6.461   2.707 -0.3720  0.8016 -0.2589
  131MOL0     C17213   3.340   6.527   2.706  0.7413  0.1999 -0.4770
  131MOL0     C17214   3.743   6.643   2.915  0.6597 -0.0991 -0.5390
  131MOL0     C17215   3.829   6.693   3.021 -0.0639 -0.3544 -0.2540
  131MOL0     C17216   3.970   6.705   3.010 -0.0864  1.0450  1.2577
  131MOL0     C17217   4.023   6.672   2.882  0.2753  0.7770 -0.5885
  131MOL0     O17218   4.157   6.687   2.849  0.0912 -0.2229 -0.6744
  131MOL0     C17219   4.251   6.722   2.952  0.0010 -0.1028  0.2016
  131MOL0     C17220   4.396   6.755   2.913  0.7367  0.3620 -0.1643
  131MOL0     C17221   4.407   6.884   2.835  0.4902 -0.1652 -0.4987
  131MOL0     C17222   4.557   6.917   2.816 -0.1089  0.4122 -0.0879
  131MOL0     C17223   4.563   7.011   2.714 -0.1373 -0.3286 -0.9437
  131MOL0     C17224   4.561   7.101   2.640 -0.2571  0.1145 -0.2168
  131MOL0     C17225   3.946   6.610   2.788 -0.4023  0.3733  0.0644
  131MOL0     C17226   3.804   6.594   2.802 -0.1857 -0.6871  0.0615
  131MOL0     H17227   3.372   6.519   3.042 -1.2564 -0.8963  0.0650
  131MOL0     H17228   3.154   6.430   3.037 -0.0393 -2.3621 -0.3896
  131MOL0     H17229   2.892   6.459   2.732 -3.4672 -3.4441 -1.0415
  131MOL0     H17230   2.915   6.465   2.915  0.6245 -3.2095  2.5325
  131MOL0     H17231   2.839   6.199   2.830  2.2312  1.1914  0.9881
  131MOL0     H17232   2.731   6.298   2.735 -1.2694  1.1621  0.6051
  131MOL0     H17233   2.647   6.433   2.918 -1.2199 -1.5026  1.4157
  131MOL0     H17234   2.748   6.356   3.030 -2.8752  0.3179  2.3803
  131MOL0     H17235   2.518   6.226   2.874 -0.3339 -0.1702  0.2929
  131MOL0     H17236   2.631   6.131   2.970 -0.4055  0.5289 -0.7692
  131MOL0     H17237   2.457   6.357   3.077  1.6918  1.0491 -2.8959
  131MOL0     H17238   2.571   6.248   3.171  0.5704  1.5106 -0.1737
  131MOL0     H17239   2.437   6.063   3.123 -1.0792 -1.9510  1.3233
  131MOL0     H17240   2.332   6.148   3.018 -1.6235 -0.5067  1.9304
  131MOL0     H17241   2.318   6.301   3.249 -0.1585  1.2625 -1.8556
  131MOL0     H17242   2.194   6.175   3.210  0.1695 -0.5105  0.7719
  131MOL0     H17243   2.312   6.006   3.322 -0.1079  0.6883 -0.4759
  131MOL0     H17244   2.267   6.120   3.435 -0.8530 -0.1582 -0.7022
  131MOL0     H17245   2.559   5.933   3.324 -0.7691  0.4691 -0.5551
  131MOL0     H17246   2.833   5.922   3.386  2.9507  0.5997 -0.9345
  131MOL0     H17247   2.887   6.055   3.483 -0.2126  0.6520  0.2416
  131MOL0     H17248   2.889   6.190   3.274  1.1707 -0.5620  1.9310
  131MOL0     H17249   2.821   6.039   3.192 -2.3133  2.7346  0.3676
  131MOL0     H17250   3.074   6.043   3.368 -3.0970 -2.7099  2.0754
  131MOL0     H17251   3.037   5.928   3.242  1.2058  0.5079  0.3864
  131MOL0     H17252   3.105   6.216   3.165 -1.2490 -0.7394  2.3996
  131MOL0     H17253   3.109   6.075   3.067 -0.3900 -2.4314  0.9231
  131MOL0     H17254   3.233   6.175   2.948 -0.7103 -2.2994  0.0727
  131MOL0     H17255   3.416   6.256   2.807 -1.7284  1.1748  0.4141
  131MOL0     H17256   3.971   6.347   3.027  3.1491  0.5203  2.2141
  131MOL0     H17257   4.212   6.382   2.959  1.1637 -2.2122  0.7895
  131MOL0     H17258   4.422   6.183   2.843 -0.0080 -0.0146  2.8744
  131MOL0     H17259   4.399   6.345   2.892 -1.6750  0.2738 -1.3390
  131MOL0     H17260   4.536   6.416   2.686 -2.7593  1.4834  3.8795
  131MOL0     H17261   4.534   6.241   2.639 -0.9360 -0.3376  0.7189
  131MOL0     H17262   4.755   6.260   2.719 -0.0321  0.0084  0.0251
  131MOL0     H17263   4.664   6.194   2.858  0.3995 -0.3833  0.8093
  131MOL0     H17264   4.658   6.414   2.957  2.2343 -0.7469  1.8460
  131MOL0     H17265   4.813   6.367   2.936 -0.3902  2.1581  2.2564
  131MOL0     H17266   4.683   6.558   2.749 -0.0089 -1.3174 -0.9658
  131MOL0     H17267   4.854   6.487   2.734  0.3024 -1.9274  1.3383
  131MOL0     H17268   4.828   6.589   2.994 -1.5075  2.9276  1.5007
  131MOL0     H17269   4.708   6.685   2.919  0.9538  1.6555  0.6771
  131MOL0     H17270   4.867   6.776   2.743  0.1841 -0.1047 -0.1034
  131MOL0     H17271   4.884   6.824   2.913 -2.2132  1.6123 -2.2645
  131MOL0     H17272   5.113   6.775   2.804 -0.2956  0.1248  1.2088
  131MOL0     H17273   5.052   6.608   2.769  1.6978  1.4452 -3.1482
  131MOL0     H17274   4.139   6.159   2.596 -1.5598 -1.1628 -0.5076
  131MOL0     H17275   3.908   6.098   2.685  2.6351 -0.7590 -1.0285
  131MOL0     H17276   3.698   6.092   3.097 -0.1748 -0.9852 -0.7905
  131MOL0     H17277   3.520   6.049   3.241 -3.0465 -1.8133  1.2897
  131MOL0     H17278   3.164   6.441   2.613  3.0121 -2.8387 -1.5689
  131MOL0     H17279   3.391   6.556   2.614  1.4824 -0.1023 -0.1741
  131MOL0     H17280   3.792   6.720   3.119  1.1957  1.4007 -0.2018
  131MOL0     H17281   4.024   6.740   3.098  1.6476  0.1912  0.5668
  131MOL0     H17282   4.262   6.632   3.015  2.6808 -0.9177 -1.2705
  131MOL0     H17283   4.215   6.803   3.016 -1.4467 -1.2474  0.8967
  131MOL0     H17284   4.457   6.749   3.004 -0.5114 -1.4638  0.5985
  131MOL0     H17285   4.443   6.674   2.857  1.0490  0.9945 -0.8471
  131MOL0     H17286   4.372   6.970   2.893 -0.5514 -0.0312 -1.3168
  131MOL0     H17287   4.344   6.881   2.746  2.4361  2.6398 -2.1615
  131MOL0     H17288   4.614   6.936   2.908 -1.4930  0.0879  0.8650
  131MOL0     H17289   4.619   6.838   2.774  1.0671  1.3428 -0.1551
  131MOL0     H17290   4.570   7.189   2.579 -0.8094  0.1369 -0.2730
  131MOL0     H17291   3.985   6.556   2.702 -1.4736  0.2440 -0.3632
  131MOL0     H17292   3.754   6.544   2.720  1.5252 -3.2911  0.4735
  132MOL0     O17293   9.632   1.032   2.932  0.3976  0.4218  0.3425
  132MOL0     C17294   9.728   1.066   2.874 -0.7896  0.5469 -0.4867
  132MOL0     O17295   9.732   1.133   2.751  0.1257 -0.1022  0.5587
  132MOL0     C17296   9.618   1.185   2.689  0.0192 -0.3171 -0.0809
  132MOL0     C17297   9.539   1.284   2.756 -0.3635 -0.0425 -0.5575
  132MOL0     C17298   9.439   1.353   2.687 -0.2225 -0.4900  1.0726
  132MOL0     C17299   9.421   1.335   2.542  0.2250 -0.8132  0.7449
  132MOL0     O17300   9.331   1.411   2.473 -0.2656 -0.2383 -0.2720
  132MOL0     C17301   9.391   1.499   2.378  0.6853  0.5814 -0.0016
  132MOL0     C17302   9.361   1.458   2.239 -0.0804  1.2066 -0.5553
  132MOL0     C17303   9.405   1.557   2.140 -0.0125  0.2078  0.4840
  132MOL0     C17304   9.320   1.532   2.013  0.1183 -0.8064 -0.1123
  132MOL0     C17305   9.373   1.618   1.892 -0.4765  0.1557 -0.0768
  132MOL0     C17306   9.284   1.594   1.765  0.1123 -0.5407  0.1557
  132MOL0     C17307   9.148   1.663   1.760  0.2860 -0.4948  0.0843
  132MOL0     C17308   9.101   1.674   1.611 -0.3738  0.6473 -0.3055
  132MOL0     N17309   8.975   1.737   1.609  0.0951 -0.0058  0.2438
  132MOL0     C17310   8.946   1.873   1.605  0.0419 -0.7143 -0.4848
  132MOL0     C17311   8.809   1.874   1.620 -0.4781  0.1313 -0.5026
  132MOL0     C17312   8.731   2.003   1.612 -0.6818 -0.5312  0.4410
  132MOL0     C17313   8.581   1.982   1.596  0.8389  0.1580 -0.3678
  132MOL0     C17314   8.491   2.107   1.591 -0.1599 -0.5370 -0.2313
  132MOL0     C17315   8.340   2.082   1.624 -0.4254  0.0440  0.4407
  132MOL0     O17316   8.267   2.198   1.605  0.7294  0.0155  0.3381
  132MOL0     C17317   8.132   2.196   1.617 -0.5658 -0.2094 -0.0095
  132MOL0     C17318   8.059   2.089   1.641  1.1979  0.9005  1.1375
  132MOL0     C17319   7.921   2.106   1.658 -0.0623 -1.0587 -0.0587
  132MOL0     C17320   7.858   2.229   1.672  0.2535  0.3345  0.4343
  132MOL0     C17321   7.710   2.238   1.686 -0.4128  0.2560 -0.2742
  132MOL0     O17322   7.653   2.357   1.639 -0.6537 -0.1692  0.1163
  132MOL0     C17323   7.517   2.388   1.652 -0.3734 -0.3436 -0.2711
  132MOL0     C17324   7.420   2.338   1.743  0.0023  0.1283  0.0562
  132MOL0     C17325   7.284   2.379   1.743 -0.1436 -0.3605  0.5050
  132MOL0     C17326   7.245   2.483   1.663  0.0107  0.3177 -0.2253
  132MOL0     O17327   7.111   2.515   1.656  0.1529 -0.1406 -0.3991
  132MOL0     C17328   7.057   2.578   1.545 -0.2316 -0.0458  0.3858
  132MOL0     C17329   6.955   2.486   1.490  0.2890 -0.6489 -0.8811
  132MOL0     C17330   6.859   2.560   1.387 -0.2953 -0.3744 -0.4328
  132MOL0     C17331   6.736   2.461   1.371 -0.1123  0.9372 -0.7433
  132MOL0     C17332   6.620   2.527   1.309  0.2176 -0.3497  0.1693
  132MOL0     C17333   6.653   2.614   1.183 -0.6819 -0.6000 -0.2548
  132MOL0     C17334   6.534   2.643   1.107 -0.0973  0.1447  0.5493
  132MOL0     C17335   6.417   2.717   1.173  0.0531 -0.0241  0.5992
  132MOL0    Cl17336   6.289   2.734   1.052 -0.0691 -0.2427 -0.0253
  132MOL0     C17337   7.340   2.541   1.581  0.2779  0.7420 -0.0740
  132MOL0     C17338   7.472   2.496   1.574  0.2236 -0.8983  0.2250
  132MOL0     O17339   7.645   2.149   1.735 -0.8508 -0.0255 -0.0027
  132MOL0     C17340   7.938   2.343   1.657 -0.2382  0.2121  0.7007
  132MOL0     C17341   8.077   2.325   1.631 -0.2300  0.0582 -0.4635
  132MOL0     N17342   8.756   1.746   1.629 -0.2348 -0.9301  0.4256
  132MOL0     N17343   8.856   1.667   1.619 -1.0573 -0.9107 -0.0073
  132MOL0     C17344   9.492   1.226   2.486 -1.3033  0.8878 -0.2242
  132MOL0     C17345   9.589   1.158   2.558 -0.3412 -0.1211 -0.2679
  132MOL0     C17346   9.855   1.020   2.926 -1.0466  0.1368  0.8306
  132MOL0     C17347   9.869   0.970   3.058 -0.6020  0.2916 -0.3933
  132MOL0     C17348   9.999   0.931   3.095  0.1735  0.4846  0.5539
  132MOL0     C17349  10.112   0.937   3.018  0.1365  0.4133 -0.6751
  132MOL0     O17350  10.234   0.906   3.059 -0.3198  0.3751 -0.7407
  132MOL0     C17351  10.273   0.898   3.199  0.0053 -1.1194  0.5137
  132MOL0     C17352  10.285   0.751   3.238 -0.2816  0.3843  0.1272
  132MOL0     C17353  10.386   0.668   3.158  1.0800  0.7849  0.2985
  132MOL0     C17354  10.404   0.528   3.203  0.1411  1.3228 -0.3118
  132MOL0     C17355  10.304   0.429   3.151 -0.3145 -0.0531  1.1924
  132MOL0     C17356  10.230   0.351   3.098  0.5155  0.1253  0.9991
  132MOL0     C17357  10.094   0.995   2.895  0.3997 -0.1141  0.9514
  132MOL0     C17358   9.978   1.037   2.846  0.8723  0.8763  0.2237
  132MOL0     H17359   9.570   1.310   2.857  1.9858  3.2272 -1.9113
  132MOL0     H17360   9.375   1.424   2.738  1.0706 -0.2648  2.4652
  132MOL0     H17361   9.500   1.490   2.389  0.4959 -0.6505  1.0734
  132MOL0     H17362   9.359   1.599   2.408 -0.5063  0.0542  0.5506
  132MOL0     H17363   9.253   1.445   2.227  0.2181 -0.0182 -2.1943
  132MOL0     H17364   9.410   1.362   2.222  0.6999  1.8638 -2.2127
  132MOL0     H17365   9.512   1.547   2.119 -0.4861  0.3178 -2.4469
  132MOL0     H17366   9.387   1.657   2.180  0.2071  0.2905  0.3813
  132MOL0     H17367   9.324   1.427   1.983  0.8450 -0.7343 -0.2983
  132MOL0     H17368   9.217   1.569   2.022 -0.0701 -0.1893 -3.4212
  132MOL0     H17369   9.470   1.570   1.873 -0.8052 -0.6407  0.2301
  132MOL0     H17370   9.385   1.725   1.910 -0.5229 -0.3089  3.3737
  132MOL0     H17371   9.280   1.487   1.742 -0.8500 -0.5056  0.0999
  132MOL0     H17372   9.350   1.639   1.690 -1.6481  3.6301  0.8335
  132MOL0     H17373   9.070   1.607   1.813 -0.7535 -0.2224 -1.1238
  132MOL0     H17374   9.148   1.762   1.807 -0.5122  1.3032 -3.4246
  132MOL0     H17375   9.091   1.573   1.569  0.7991 -0.5509  2.0938
  132MOL0     H17376   9.176   1.738   1.562  0.8951  1.3387  2.3694
  132MOL0     H17377   9.007   1.963   1.604 -1.9615  0.7600  0.8682
  132MOL0     H17378   8.772   2.066   1.532  1.0032 -2.1651 -0.0563
  132MOL0     H17379   8.738   2.064   1.703 -1.9031  0.3315 -0.0163
  132MOL0     H17380   8.560   1.929   1.690  1.1484  1.5141  0.4958
  132MOL0     H17381   8.569   1.921   1.507  1.4580  2.6131 -2.2313
  132MOL0     H17382   8.537   2.180   1.658 -0.4266 -0.7961  0.2375
  132MOL0     H17383   8.493   2.151   1.491  0.2984  0.9828  0.4171
  132MOL0     H17384   8.330   2.049   1.728  4.1335  1.5258  1.5915
  132MOL0     H17385   8.297   2.015   1.549  0.9496  0.6532 -0.9337
  132MOL0     H17386   8.088   1.989   1.610 -3.6863  0.1511 -2.2426
  132MOL0     H17387   7.860   2.016   1.654  1.3759 -2.1963  1.8684
  132MOL0     H17388   7.449   2.253   1.804  0.4462 -0.0847 -0.4464
  132MOL0     H17389   7.212   2.327   1.806  1.5442 -3.4548  0.1007
  132MOL0     H17390   7.130   2.598   1.465 -0.7048 -2.2624 -0.6875
  132MOL0     H17391   7.006   2.670   1.573 -0.4277 -0.4780  1.4942
  132MOL0     H17392   6.882   2.463   1.568 -1.6557 -1.3466 -2.8136
  132MOL0     H17393   6.997   2.396   1.444  0.1239  0.1864 -2.7335
  132MOL0     H17394   6.907   2.603   1.299 -1.3908 -0.2386 -0.9839
  132MOL0     H17395   6.826   2.653   1.434  4.2064 -0.6050  4.0325
  132MOL0     H17396   6.762   2.387   1.295 -0.6821  2.9013 -2.9714
  132MOL0     H17397   6.697   2.412   1.461  1.1120  0.3617 -0.4927
  132MOL0     H17398   6.567   2.589   1.382 -1.1857 -0.8966 -0.3547
  132MOL0     H17399   6.551   2.446   1.284 -0.1271 -0.5779  1.7437
  132MOL0     H17400   6.722   2.558   1.119 -1.0124 -0.6477 -0.5718
  132MOL0     H17401   6.706   2.702   1.220  1.9142 -2.0011 -0.4044
  132MOL0     H17402   6.566   2.695   1.017  2.2392  1.6266  2.1296
  132MOL0     H17403   6.491   2.550   1.067 -0.5110  1.1346 -1.4082
  132MOL0     H17404   6.444   2.820   1.197  0.9784 -0.2622  0.6343
  132MOL0     H17405   6.378   2.668   1.262 -1.6716 -0.9727 -0.6336
  132MOL0     H17406   7.311   2.619   1.512 -2.1508 -0.2753 -0.2955
  132MOL0     H17407   7.531   2.559   1.509 -0.3093  1.1576  1.6286
  132MOL0     H17408   7.885   2.436   1.671  0.2758  0.8254 -1.1615
  132MOL0     H17409   8.129   2.420   1.624 -0.8657  0.2724 -4.2716
  132MOL0     H17410   9.478   1.187   2.385  1.3745 -0.6795 -0.0815
  132MOL0     H17411   9.641   1.080   2.504 -1.2513 -2.3371  1.8820
  132MOL0     H17412   9.787   0.945   3.125  0.2320 -1.5965 -0.0178
  132MOL0     H17413  10.004   0.884   3.193  0.6030  2.2351  1.4082
  132MOL0     H17414  10.195   0.949   3.257  0.8486  1.5191 -0.5109
  132MOL0     H17415  10.366   0.954   3.214 -0.0789 -1.3498  2.1007
  132MOL0     H17416  10.330   0.747   3.337  2.4447 -0.8799 -1.0751
  132MOL0     H17417  10.183   0.712   3.247 -0.0741 -0.4643 -0.9267
  132MOL0     H17418  10.483   0.718   3.161  1.9097 -0.7867  0.9542
  132MOL0     H17419  10.351   0.669   3.054 -0.2959  0.7464  0.7496
  132MOL0     H17420  10.500   0.489   3.167  1.7852  3.5321  1.4753
  132MOL0     H17421  10.399   0.526   3.312  0.1956 -2.9543 -0.2108
  132MOL0     H17422  10.163   0.281   3.053  0.5570  0.1390  0.9162
  132MOL0     H17423  10.179   0.990   2.827  0.5679 -0.7516  1.1984
  132MOL0     H17424   9.960   1.090   2.753 -1.2374  0.9129  0.5862
  133MOL0     O17425   6.039   8.379   5.903 -0.7084  0.8724 -0.2185
  133MOL0     C17426   6.112   8.466   5.956  0.0116 -0.1163 -0.4681
  133MOL0     O17427   6.079   8.546   6.064 -0.0587 -0.0768  0.4371
  133MOL0     C17428   5.967   8.519   6.140 -0.6425  0.2938 -0.2163
  133MOL0     C17429   5.950   8.397   6.212 -0.3108 -0.4800  0.8243
  133MOL0     C17430   5.842   8.369   6.300 -0.0885 -0.5137 -0.4867
  133MOL0     C17431   5.750   8.472   6.326 -0.9737  0.6898  0.0913
  133MOL0     O17432   5.647   8.440   6.412  0.4697 -0.7457 -0.5315
  133MOL0     C17433   5.513   8.486   6.360 -0.0668 -0.0286 -0.5500
  133MOL0     C17434   5.416   8.464   6.486 -0.1978 -0.1902  0.6022
  133MOL0     C17435   5.300   8.561   6.493  1.0484  0.3578  0.0590
  133MOL0     C17436   5.190   8.536   6.382  0.0024 -0.1087 -0.1019
  133MOL0     C17437   5.097   8.657   6.363 -0.8960  0.6262 -1.1204
  133MOL0     C17438   4.997   8.643   6.250 -0.6366  0.8917 -0.0133
  133MOL0     C17439   4.966   8.782   6.192  0.1301 -0.3789 -0.6072
  133MOL0     C17440   4.836   8.785   6.116 -0.4018  0.2759 -0.6052
  133MOL0     N17441   4.854   8.832   5.983 -0.3274 -0.3324 -0.2781
  133MOL0     C17442   4.850   8.961   5.952  0.3850 -0.3101  0.3292
  133MOL0     C17443   4.873   8.955   5.811  0.1109 -0.6181 -0.1574
  133MOL0     C17444   4.890   9.076   5.722 -0.0723  0.2689  0.0751
  133MOL0     C17445   4.750   9.129   5.702 -0.1587  0.0889 -0.1515
  133MOL0     C17446   4.754   9.233   5.584  0.2769 -0.5824 -0.5544
  133MOL0     C17447   4.838   9.362   5.608 -0.1011 -1.0601 -0.0857
  133MOL0     O17448   4.816   9.460   5.506 -0.3603  0.4242  0.1444
  133MOL0     C17449   4.908   9.562   5.481  0.2566  0.5090 -0.7395
  133MOL0     C17450   4.861   9.681   5.429  0.1620  0.3804  0.3757
  133MOL0     C17451   4.946   9.785   5.401 -0.0154 -0.3426 -0.5664
  133MOL0     C17452   5.079   9.776   5.434  0.2776  0.8769 -0.8735
  133MOL0     C17453   5.171   9.890   5.425 -0.3592 -0.5052  0.2941
  133MOL0     O17454   5.298   9.873   5.459 -0.0248  0.0546  0.1398
  133MOL0     C17455   5.388   9.969   5.417  0.6341 -0.8238  0.6407
  133MOL0     C17456   5.454  10.052   5.513  0.1104  0.1495 -0.2383
  133MOL0     C17457   5.537  10.152   5.476  0.0164  0.5689 -0.2164
  133MOL0     C17458   5.573  10.171   5.336  0.0400  0.9859 -0.5047
  133MOL0     O17459   5.668  10.268   5.326 -0.0047 -0.2791  0.7303
  133MOL0     C17460   5.713  10.325   5.200  0.2348  0.5921  0.2666
  133MOL0     C17461   5.772  10.464   5.231 -0.3371  0.4051  0.2641
  133MOL0     C17462   5.896  10.472   5.323 -0.1024  0.5014 -0.0469
  133MOL0     C17463   6.028  10.447   5.249  0.2344  0.5337 -0.0810
  133MOL0     C17464   6.141  10.422   5.346 -0.0078 -1.1430 -0.5426
  133MOL0     C17465   6.270  10.378   5.279  0.2648  0.2902 -0.3986
  133MOL0     C17466   6.368  10.325   5.384 -0.0681 -0.8087  0.0871
  133MOL0     C17467   6.516  10.327   5.335 -0.2020 -0.3236  0.1850
  133MOL0    Cl17468   6.581  10.501   5.320  0.2022 -0.3788  0.0348
  133MOL0     C17469   5.518  10.087   5.238 -0.4158  0.2976 -0.3719
  133MOL0     C17470   5.423   9.984   5.279  0.5263 -0.2761 -0.1266
  133MOL0     O17471   5.127   9.990   5.371  0.3230 -0.0375  0.0630
  133MOL0     C17472   5.138   9.660   5.484  0.0984  0.3133  0.3766
  133MOL0     C17473   5.049   9.552   5.495 -0.7781  0.2872  0.8682
  133MOL0     N17474   4.902   8.825   5.779 -0.4715  0.1184  0.2960
  133MOL0     N17475   4.889   8.744   5.885 -0.5296  0.4659  0.1413
  133MOL0     C17476   5.771   8.600   6.257  0.2614 -0.0714 -0.2706
  133MOL0     C17477   5.873   8.626   6.159  0.0383 -0.3162  1.2990
  133MOL0     C17478   6.245   8.494   5.891  0.7572 -0.5551  0.1849
  133MOL0     C17479   6.284   8.424   5.781 -0.1861 -0.0315 -0.0679
  133MOL0     C17480   6.401   8.460   5.707  0.2473  0.1386 -1.1870
  133MOL0     C17481   6.489   8.563   5.766 -0.1665  0.1959 -0.0084
  133MOL0     O17482   6.611   8.599   5.709 -0.3390 -0.0775 -0.6411
  133MOL0     C17483   6.662   8.507   5.612  0.0057 -0.0640 -0.1463
  133MOL0     C17484   6.808   8.542   5.599  0.0353  1.1637 -0.0293
  133MOL0     C17485   6.863   8.465   5.473  0.3998  0.2459 -0.1052
  133MOL0     C17486   6.989   8.390   5.513  0.2922  0.1262 -0.3385
  133MOL0     C17487   7.028   8.297   5.406 -0.6521 -0.5387  0.4000
  133MOL0     C17488   7.052   8.221   5.307 -0.2950 -0.0943 -0.1958
  133MOL0     C17489   6.448   8.629   5.889  0.1227  0.5199  0.5486
  133MOL0     C17490   6.328   8.587   5.947 -0.9649 -0.1168 -1.0938
  133MOL0     H17491   6.020   8.317   6.189  1.2170  1.5955 -2.5172
  133MOL0     H17492   5.836   8.269   6.340 -1.1410 -0.9812 -1.7252
  133MOL0     H17493   5.477   8.418   6.282 -2.9796 -1.0298  1.4563
  133MOL0     H17494   5.517   8.592   6.332  3.3138 -0.4260 -2.0060
  133MOL0     H17495   5.477   8.477   6.575  0.2441 -2.0454  0.6091
  133MOL0     H17496   5.384   8.359   6.489  1.8427 -0.8977 -0.4411
  133MOL0     H17497   5.345   8.658   6.468 -0.1900  0.3852 -2.3735
  133MOL0     H17498   5.257   8.556   6.593 -0.4948  0.5368 -0.5655
  133MOL0     H17499   5.240   8.524   6.286 -0.8215 -0.5483 -0.4852
  133MOL0     H17500   5.128   8.449   6.403  0.3774 -0.5887 -0.9037
  133MOL0     H17501   5.168   8.735   6.333  0.4017 -0.6244 -1.4220
  133MOL0     H17502   5.045   8.678   6.456  1.9320  0.7839  0.5448
  133MOL0     H17503   4.914   8.585   6.291  0.7881 -1.3653 -0.1480
  133MOL0     H17504   5.042   8.577   6.176  0.5370  1.1752  0.4284
  133MOL0     H17505   4.965   8.855   6.273  2.9581  0.8140 -1.5201
  133MOL0     H17506   5.048   8.808   6.124 -1.1042 -0.4617 -2.1833
  133MOL0     H17507   4.783   8.861   6.173 -0.8193  0.4802 -1.2523
  133MOL0     H17508   4.777   8.694   6.109 -0.3593  0.2012 -0.0415
  133MOL0     H17509   4.828   9.050   6.009 -1.0700  2.0381 -3.4843
  133MOL0     H17510   4.942   9.030   5.637 -0.6453 -2.1393  0.9524
  133MOL0     H17511   4.950   9.154   5.769 -0.5758  2.5837 -2.8143
  133MOL0     H17512   4.707   9.178   5.790  1.0418  0.3629  0.3019
  133MOL0     H17513   4.682   9.045   5.685 -2.6029  2.0184 -0.4574
  133MOL0     H17514   4.794   9.199   5.489  0.2167  0.6944 -1.0634
  133MOL0     H17515   4.650   9.267   5.578  0.1484 -0.7463  0.5793
  133MOL0     H17516   4.946   9.347   5.622  0.2052 -2.2905 -3.0534
  133MOL0     H17517   4.808   9.412   5.701 -1.6427 -2.6091  0.3011
  133MOL0     H17518   4.756   9.697   5.406 -0.7836 -3.1278  1.6470
  133MOL0     H17519   4.900   9.877   5.367 -0.9809 -1.0206 -1.1509
  133MOL0     H17520   5.431  10.041   5.618  1.3646 -0.1083  0.0283
  133MOL0     H17521   5.584  10.211   5.554 -0.6055 -2.8737  3.0223
  133MOL0     H17522   5.622  10.340   5.142 -0.5833  2.6890  1.9552
  133MOL0     H17523   5.776  10.253   5.146 -1.6547 -2.6714  2.1234
  133MOL0     H17524   5.692  10.526   5.273 -1.6141 -0.4330 -0.8578
  133MOL0     H17525   5.796  10.511   5.136 -2.7762 -0.3866 -0.8150
  133MOL0     H17526   5.889  10.398   5.404  0.5836 -0.2041 -0.6148
  133MOL0     H17527   5.894  10.572   5.366 -0.1033  0.3850  0.2269
  133MOL0     H17528   6.007  10.361   5.185 -2.3997 -0.3503  1.7745
  133MOL0     H17529   6.048  10.537   5.190  0.3114 -0.4673 -1.6240
  133MOL0     H17530   6.105  10.349   5.418 -1.0922 -0.7376 -0.6514
  133MOL0     H17531   6.146  10.515   5.404  1.3667 -0.6298 -1.4291
  133MOL0     H17532   6.323  10.452   5.219 -0.6984 -0.8298 -2.7814
  133MOL0     H17533   6.239  10.303   5.204  1.9336  0.3485 -1.1800
  133MOL0     H17534   6.354  10.385   5.475 -3.3896 -0.7768 -0.3298
  133MOL0     H17535   6.339  10.223   5.408  0.6037 -0.6484  1.7186
  133MOL0     H17536   6.524  10.276   5.238 -1.1973  1.6222 -0.9663
  133MOL0     H17537   6.586  10.278   5.403  2.4639  1.9879 -0.7102
  133MOL0     H17538   5.546  10.084   5.133 -1.1357  1.1957 -0.6057
  133MOL0     H17539   5.375   9.913   5.212  0.2386 -2.0256  1.8243
  133MOL0     H17540   5.240   9.633   5.506 -0.1031 -1.1779 -0.3302
  133MOL0     H17541   5.105   9.465   5.529  0.1143  0.0756 -1.0310
  133MOL0     H17542   5.693   8.674   6.272  0.5314  0.1394  0.1372
  133MOL0     H17543   5.893   8.721   6.112  1.5965 -0.8052  0.9258
  133MOL0     H17544   6.218   8.345   5.748 -1.1433  0.2457  1.0914
  133MOL0     H17545   6.424   8.402   5.618  0.6477 -0.0376 -0.9760
  133MOL0     H17546   6.606   8.526   5.519  1.1451 -0.2585 -0.8972
  133MOL0     H17547   6.646   8.405   5.648  3.6379 -1.6987 -2.5254
  133MOL0     H17548   6.820   8.651   5.598 -1.6172  1.3731  0.0541
  133MOL0     H17549   6.849   8.506   5.694 -0.9397  2.3480  0.8689
  133MOL0     H17550   6.892   8.539   5.397 -0.7244  1.9035  1.0037
  133MOL0     H17551   6.782   8.397   5.446  1.0509 -0.7524  0.3854
  133MOL0     H17552   7.070   8.461   5.530  0.3860 -0.3988  1.7271
  133MOL0     H17553   6.986   8.332   5.606  0.7102  0.1215 -0.3272
  133MOL0     H17554   7.075   8.154   5.227 -0.1089 -0.4293  0.1387
  133MOL0     H17555   6.518   8.696   5.938  0.9344  0.4468 -0.4883
  133MOL0     H17556   6.308   8.630   6.045  0.7311 -3.3216  0.8301
  134MOL0     O17557   5.220   4.197   5.909 -0.7360  0.4886 -0.3262
  134MOL0     C17558   5.228   4.234   5.790  0.6952 -0.1298 -1.0800
  134MOL0     O17559   5.125   4.273   5.715 -0.4433  0.6615  0.5267
  134MOL0     C17560   5.000   4.265   5.768  0.3359  0.5074  0.5325
  134MOL0     C17561   4.914   4.181   5.699  0.0749  0.6526 -0.6931
  134MOL0     C17562   4.779   4.174   5.734  0.2506 -0.3470  0.0622
  134MOL0     C17563   4.728   4.266   5.829 -0.3181 -0.5199 -0.1319
  134MOL0     O17564   4.607   4.231   5.865 -0.4150 -0.8356 -1.0547
  134MOL0     C17565   4.539   4.333   5.934  0.1252  0.1920 -0.1108
  134MOL0     C17566   4.407   4.291   5.980  0.2449  0.8661 -0.2320
  134MOL0     C17567   4.326   4.417   6.008 -0.2935  0.7645 -0.2111
  134MOL0     C17568   4.182   4.373   6.038 -0.3555  0.3583 -0.1154
  134MOL0     C17569   4.100   4.489   6.099  0.2400  0.6317 -0.0499
  134MOL0     C17570   3.957   4.441   6.115  0.3715 -0.2180 -0.6957
  134MOL0     C17571   3.855   4.539   6.172  1.0613 -0.4427  0.4105
  134MOL0     C17572   3.716   4.480   6.217  0.0610 -0.2432 -0.8499
  134MOL0     N17573   3.634   4.596   6.261  0.7986 -1.0113  0.5730
  134MOL0     C17574   3.645   4.665   6.379 -0.1139  0.9267 -0.3345
  134MOL0     C17575   3.571   4.774   6.359  0.1701  0.0339  0.3583
  134MOL0     C17576   3.551   4.878   6.462 -0.2622 -0.0692 -0.1903
  134MOL0     C17577   3.655   4.986   6.465 -0.0837 -1.4146 -0.0764
  134MOL0     C17578   3.652   5.083   6.345 -0.2684 -0.1104 -1.0507
  134MOL0     C17579   3.720   5.218   6.379  0.4841  0.5847 -0.6511
  134MOL0     O17580   3.843   5.198   6.456  0.4445 -0.2919  0.2914
  134MOL0     C17581   3.930   5.303   6.450 -0.5896  0.1182 -0.3770
  134MOL0     C17582   4.060   5.274   6.498  0.1918 -0.1644 -0.0405
  134MOL0     C17583   4.167   5.372   6.506  0.9915 -0.6474 -0.4848
  134MOL0     C17584   4.136   5.502   6.454  1.3473 -0.0609  0.1758
  134MOL0     C17585   4.233   5.615   6.462  0.5266  0.1175 -0.1722
  134MOL0     O17586   4.190   5.736   6.431  0.2427 -0.7878  0.6656
  134MOL0     C17587   4.277   5.841   6.417  0.1344 -0.3695  0.2230
  134MOL0     C17588   4.311   5.873   6.288 -0.3295  0.0607 -0.4895
  134MOL0     C17589   4.405   5.979   6.263  0.0069 -0.3705 -0.2232
  134MOL0     C17590   4.468   6.052   6.366 -0.1707 -0.7158  0.5052
  134MOL0     O17591   4.540   6.165   6.351 -0.2220 -0.3667  0.0005
  134MOL0     C17592   4.647   6.149   6.260 -0.1780 -0.6042 -0.6744
  134MOL0     C17593   4.680   6.301   6.215  0.3360 -0.2446  0.2933
  134MOL0     C17594   4.824   6.324   6.178  0.0531 -0.7492  0.6642
  134MOL0     C17595   4.926   6.300   6.302 -0.6679 -0.6741  0.2929
  134MOL0     C17596   5.065   6.348   6.261 -0.7514 -0.2443 -0.0097
  134MOL0     C17597   5.172   6.340   6.376 -0.5769  0.5158  0.1282
  134MOL0     C17598   5.313   6.368   6.320 -0.5368  0.1166  0.3054
  134MOL0     C17599   5.418   6.290   6.397  0.0417  0.1264 -0.5005
  134MOL0    Cl17600   5.420   6.351   6.559 -0.1223  0.3161 -0.2584
  134MOL0     C17601   4.432   6.018   6.495 -0.4924  1.4447 -0.0297
  134MOL0     C17602   4.342   5.907   6.517 -0.7635 -0.2479 -0.3760
  134MOL0     O17603   4.343   5.588   6.514  0.7745  0.1374 -0.5218
  134MOL0     C17604   4.006   5.526   6.409  0.7396 -0.8160  0.3634
  134MOL0     C17605   3.912   5.431   6.405  0.3239  0.2749 -0.7146
  134MOL0     N17606   3.519   4.780   6.231 -0.5046 -1.2988 -0.6394
  134MOL0     N17607   3.563   4.670   6.177 -0.4556 -0.1646 -0.5859
  134MOL0     C17608   4.815   4.361   5.885  1.0691 -0.5918 -0.0552
  134MOL0     C17609   4.947   4.366   5.855  0.8965  0.0550  0.1787
  134MOL0     C17610   5.365   4.261   5.746 -0.4888 -0.6410  0.4145
  134MOL0     C17611   5.390   4.280   5.608  0.1335  0.5838 -0.0577
  134MOL0     C17612   5.517   4.313   5.560  0.2770  0.4412  0.8835
  134MOL0     C17613   5.628   4.328   5.641 -0.2242  0.1523  0.1783
  134MOL0     O17614   5.750   4.363   5.586  0.1744  0.2194  0.0258
  134MOL0     C17615   5.845   4.425   5.672 -0.0256  0.0349  0.3281
  134MOL0     C17616   5.951   4.313   5.714  0.7448 -1.3534 -0.2646
  134MOL0     C17617   6.076   4.386   5.783 -0.9623 -0.8640 -0.2619
  134MOL0     C17618   6.053   4.464   5.911 -0.2299  0.7279 -0.2362
  134MOL0     C17619   5.953   4.394   5.992 -0.0425 -0.4816 -0.1369
  134MOL0     C17620   5.875   4.345   6.069 -0.0776  0.7515 -0.3605
  134MOL0     C17621   5.606   4.310   5.783 -0.1959 -0.2399  0.0661
  134MOL0     C17622   5.479   4.278   5.831  0.1751  0.4374 -0.4213
  134MOL0     H17623   4.942   4.111   5.620 -0.3256 -0.6981  0.3211
  134MOL0     H17624   4.729   4.100   5.673  1.7027 -1.2170 -0.1312
  134MOL0     H17625   4.535   4.423   5.871 -1.0794  1.7117  2.0227
  134MOL0     H17626   4.587   4.357   6.029  0.5103  1.4095 -0.5944
  134MOL0     H17627   4.420   4.220   6.062  0.3927 -0.1587 -1.1261
  134MOL0     H17628   4.350   4.242   5.901 -2.0607 -0.9134  2.3793
  134MOL0     H17629   4.331   4.477   5.916  0.2474 -1.5415 -1.7600
  134MOL0     H17630   4.375   4.471   6.090 -0.2863 -0.8234  0.8747
  134MOL0     H17631   4.134   4.348   5.942  1.9632 -1.0106 -1.0092
  134MOL0     H17632   4.169   4.292   6.110 -3.9127  0.9369  0.0780
  134MOL0     H17633   4.101   4.574   6.031  0.8141  1.3388  0.8225
  134MOL0     H17634   4.141   4.528   6.192  0.0583  1.9078 -0.4901
  134MOL0     H17635   3.950   4.356   6.183 -1.9251  1.4578  1.3189
  134MOL0     H17636   3.915   4.403   6.021 -0.0085 -1.2345 -0.1357
  134MOL0     H17637   3.901   4.589   6.258 -1.0823  0.6621  0.9876
  134MOL0     H17638   3.845   4.616   6.095  1.6047 -2.1283 -1.4301
  134MOL0     H17639   3.743   4.420   6.305  0.2612  1.4230  0.2535
  134MOL0     H17640   3.672   4.416   6.140 -1.1180 -1.3893  0.6980
  134MOL0     H17641   3.692   4.636   6.472 -2.3136  1.1869  0.9085
  134MOL0     H17642   3.562   4.825   6.558 -0.2310 -0.6693 -0.5199
  134MOL0     H17643   3.454   4.927   6.457  0.2820  1.4583  2.2670
  134MOL0     H17644   3.748   4.929   6.462 -1.4710 -3.7769 -1.0577
  134MOL0     H17645   3.632   5.050   6.550  0.8263 -2.4844  1.0098
  134MOL0     H17646   3.704   5.037   6.261  2.4815 -0.1565  0.5401
  134MOL0     H17647   3.556   5.120   6.307  0.1251  1.3457 -0.6586
  134MOL0     H17648   3.653   5.279   6.441 -0.6552 -2.1995  1.0372
  134MOL0     H17649   3.746   5.260   6.281  2.1777 -0.2418 -0.5923
  134MOL0     H17650   4.076   5.172   6.531  0.3649 -0.2023 -0.2397
  134MOL0     H17651   4.268   5.351   6.539 -0.2330 -1.4808  3.2083
  134MOL0     H17652   4.261   5.827   6.203  0.6737  0.0135 -1.0608
  134MOL0     H17653   4.405   6.003   6.157  3.0878 -1.5402 -0.5700
  134MOL0     H17654   4.615   6.090   6.174  0.6157 -1.3783 -0.4536
  134MOL0     H17655   4.729   6.101   6.316 -1.4983  0.4502  2.4108
  134MOL0     H17656   4.662   6.365   6.302  1.5260  0.8636 -0.2283
  134MOL0     H17657   4.610   6.323   6.134 -1.2629  1.2262  1.9822
  134MOL0     H17658   4.829   6.424   6.134 -1.3376 -1.6437 -1.7543
  134MOL0     H17659   4.848   6.257   6.094  2.3648  0.4082  0.3232
  134MOL0     H17660   4.893   6.338   6.399  1.8299 -1.6052  1.6112
  134MOL0     H17661   4.950   6.194   6.315  1.8294 -0.4006 -1.2466
  134MOL0     H17662   5.061   6.452   6.228  0.1632 -0.1416  0.1800
  134MOL0     H17663   5.108   6.296   6.175  6.1992  1.1171  2.0437
  134MOL0     H17664   5.170   6.245   6.430  0.8987 -0.1965 -0.9876
  134MOL0     H17665   5.141   6.419   6.445 -1.6176  0.7730 -0.5975
  134MOL0     H17666   5.324   6.346   6.213  0.1329  0.4164  0.3049
  134MOL0     H17667   5.346   6.472   6.334  0.9062 -0.4273  1.2051
  134MOL0     H17668   5.516   6.316   6.356  0.8113 -0.7070  0.7465
  134MOL0     H17669   5.406   6.182   6.385 -0.7089 -0.0318  1.4291
  134MOL0     H17670   4.459   6.078   6.581 -0.4846  0.3072  0.7937
  134MOL0     H17671   4.307   5.885   6.617 -2.0251  0.7501 -0.5581
  134MOL0     H17672   3.979   5.619   6.361 -1.2443 -1.2931  0.4555
  134MOL0     H17673   3.818   5.456   6.356 -1.8690 -1.8133  2.1043
  134MOL0     H17674   4.765   4.428   5.954  3.4126 -0.3185  1.5156
  134MOL0     H17675   5.009   4.437   5.908  0.7652  2.2025 -2.3293
  134MOL0     H17676   5.301   4.267   5.547  0.9771  0.1928 -1.2435
  134MOL0     H17677   5.531   4.325   5.453 -1.1138  1.3843  0.7897
  134MOL0     H17678   5.798   4.491   5.747 -1.8879  0.9504 -1.5462
  134MOL0     H17679   5.896   4.502   5.613  0.1447  1.3630  2.1034
  134MOL0     H17680   5.906   4.246   5.788  1.8298 -1.2593  0.5022
  134MOL0     H17681   5.987   4.258   5.627  0.6120 -1.3162 -0.3442
  134MOL0     H17682   6.119   4.450   5.706 -0.6053 -2.2335 -1.2494
  134MOL0     H17683   6.151   4.309   5.807  1.4527  0.8627 -1.8171
  134MOL0     H17684   6.146   4.450   5.968  0.8852 -4.7272 -2.7944
  134MOL0     H17685   6.031   4.567   5.883 -0.2286  0.5713 -0.8146
  134MOL0     H17686   5.790   4.319   6.128  0.6442  1.6259  1.1405
  134MOL0     H17687   5.678   4.322   5.862  1.2338  0.7875 -1.3225
  134MOL0     H17688   5.460   4.262   5.936  1.2880  1.5399 -0.0315
  135MOL0     O17689   9.995   4.243   9.656  0.1177  0.0215 -0.6496
  135MOL0     C17690   9.964   4.322   9.746  0.9408 -0.1583 -0.0461
  135MOL0     O17691  10.038   4.356   9.853  0.6046 -0.2401 -0.6916
  135MOL0     C17692  10.162   4.300   9.890 -0.0966  0.2194  0.1563
  135MOL0     C17693  10.256   4.261   9.794 -0.7259 -0.2324  0.3523
  135MOL0     C17694  10.367   4.182   9.844 -0.7663 -0.3574  0.5273
  135MOL0     C17695  10.388   4.166   9.979 -0.5764  0.3640 -0.5496
  135MOL0     O17696  10.502   4.094  10.007  0.5313 -0.6680 -0.6084
  135MOL0     C17697  10.593   4.164  10.096  0.7559 -0.2397  0.2428
  135MOL0     C17698  10.714   4.077  10.091  0.1743 -0.2781 -0.4173
  135MOL0     C17699  10.790   4.098   9.962 -1.0848 -0.0830 -0.6601
  135MOL0     C17700  10.915   4.008   9.957 -0.4378  0.0861  0.2876
  135MOL0     C17701  11.028   4.076   9.880  0.1319 -0.4176 -0.4411
  135MOL0     C17702  11.165   4.023   9.910  0.3728 -0.8457  0.5050
  135MOL0     C17703  11.182   3.876   9.893  0.5115 -0.4420 -0.4958
  135MOL0     C17704  11.334   3.836   9.885 -0.5496  0.2839  0.8684
  135MOL0     N17705  11.414   3.895   9.774 -0.3394 -0.3307  0.0345
  135MOL0     C17706  11.403   3.867   9.639  0.8507 -0.2251 -0.3086
  135MOL0     C17707  11.436   3.978   9.574 -0.0905  0.2767 -0.1074
  135MOL0     C17708  11.432   3.990   9.424  0.4181 -0.8127 -0.1875
  135MOL0     C17709  11.460   4.131   9.378  0.8852  0.3910  0.0890
  135MOL0     C17710  11.433   4.139   9.229 -0.1318 -0.0191 -0.7856
  135MOL0     C17711  11.448   4.281   9.179 -0.2248 -0.1375  0.7983
  135MOL0     O17712  11.334   4.362   9.199 -1.2265 -0.4562 -0.0567
  135MOL0     C17713  11.233   4.361   9.108  0.4966 -0.0848  0.2943
  135MOL0     C17714  11.123   4.445   9.133 -1.0999  0.1268  0.2315
  135MOL0     C17715  11.004   4.436   9.066 -0.5922  0.2658  0.0459
  135MOL0     C17716  10.995   4.358   8.956  0.0218  0.6000 -0.1556
  135MOL0     C17717  10.864   4.350   8.883  0.1082  0.0672  0.8560
  135MOL0     O17718  10.771   4.450   8.885  0.2417  0.1660 -0.5721
  135MOL0     C17719  10.656   4.426   8.814  0.2250 -1.2333 -0.4534
  135MOL0     C17720  10.652   4.374   8.684  0.1717  0.6248  0.2295
  135MOL0     C17721  10.530   4.330   8.632  0.0634  0.3439  0.1252
  135MOL0     C17722  10.407   4.353   8.700  0.7617  0.3448  0.4974
  135MOL0     O17723  10.287   4.309   8.648  0.4171 -0.8850  1.2174
  135MOL0     C17724  10.268   4.350   8.511 -0.0244  0.0396  0.1624
  135MOL0     C17725  10.132   4.289   8.462  0.7966 -0.1183  0.1795
  135MOL0     C17726  10.144   4.140   8.454  0.3559  0.1924 -1.7926
  135MOL0     C17727  10.007   4.070   8.458 -0.4827 -0.5145  0.7160
  135MOL0     C17728  10.037   3.930   8.400  0.4854  0.8127  0.1370
  135MOL0     C17729  10.121   3.840   8.492  0.0905 -0.3129 -0.2627
  135MOL0     C17730  10.120   3.699   8.447 -0.1752  0.2619 -0.4758
  135MOL0     C17731  10.189   3.599   8.549  0.5130  0.2686 -0.2547
  135MOL0    Cl17732  10.128   3.438   8.521 -0.0245 -0.2676  0.2740
  135MOL0     C17733  10.410   4.431   8.817 -0.2559  0.2056 -0.0484
  135MOL0     C17734  10.535   4.452   8.879  0.7862 -1.1236  0.3997
  135MOL0     O17735  10.854   4.244   8.827  0.3686  0.7743 -0.6621
  135MOL0     C17736  11.102   4.274   8.921  0.3500 -0.2586  0.4886
  135MOL0     C17737  11.221   4.282   8.994  0.5242 -0.0563 -0.1473
  135MOL0     N17738  11.482   4.066   9.664 -0.8528  0.6463  0.4840
  135MOL0     N17739  11.466   4.019   9.781  0.5106  0.0578  0.1616
  135MOL0     C17740  10.302   4.222  10.069 -0.0029 -0.3990  0.2270
  135MOL0     C17741  10.192   4.293  10.025 -0.5182  0.0488  0.0395
  135MOL0     C17742   9.837   4.392   9.731  0.9241 -0.5547  0.6358
  135MOL0     C17743   9.785   4.454   9.846  0.1391  0.1840  0.3763
  135MOL0     C17744   9.663   4.521   9.849 -0.1545  0.3280  1.0904
  135MOL0     C17745   9.595   4.533   9.726  0.0988 -0.0679  0.2606
  135MOL0     O17746   9.463   4.576   9.729  0.5539  0.0930  0.8162
  135MOL0     C17747   9.417   4.671   9.831  0.0658  0.0937  0.3207
  135MOL0     C17748   9.265   4.697   9.812 -0.5150  0.3975 -0.3585
  135MOL0     C17749   9.210   4.775   9.935 -0.5382  0.0988  0.4269
  135MOL0     C17750   9.061   4.833   9.922  0.1912 -0.1852  1.0918
  135MOL0     C17751   8.966   4.724   9.922  0.1360  0.2149 -0.1153
  135MOL0     C17752   8.872   4.636   9.928 -0.5421  0.2144 -0.1477
  135MOL0     C17753   9.652   4.480   9.611 -0.0684  0.2530  0.1096
  135MOL0     C17754   9.772   4.411   9.605 -0.6649  0.9051 -0.9619
  135MOL0     H17755  10.260   4.277   9.687  2.2129 -1.9995  0.0788
  135MOL0     H17756  10.437   4.140   9.772 -1.7225 -0.3743 -0.4251
  135MOL0     H17757  10.542   4.174  10.193 -0.1804  0.0341 -0.2712
  135MOL0     H17758  10.605   4.265  10.056 -2.9951  0.1342 -0.2793
  135MOL0     H17759  10.686   3.972  10.102  3.5050 -0.9899  4.2787
  135MOL0     H17760  10.774   4.099  10.179 -0.3377  0.3111 -0.2118
  135MOL0     H17761  10.823   4.202   9.970  1.1826 -0.8859  2.0488
  135MOL0     H17762  10.733   4.096   9.869 -0.1306  1.1172 -1.3094
  135MOL0     H17763  10.946   3.989  10.060 -0.1136  3.0466  0.8156
  135MOL0     H17764  10.887   3.912   9.913 -0.2897 -0.5786  1.5880
  135MOL0     H17765  11.027   4.182   9.904  2.6688  0.0183 -1.9034
  135MOL0     H17766  11.028   4.068   9.771  2.1115 -1.1179 -0.4299
  135MOL0     H17767  11.201   4.059  10.006  0.9090 -5.0689  2.0982
  135MOL0     H17768  11.237   4.069   9.841 -0.1207 -1.5749 -0.5329
  135MOL0     H17769  11.122   3.818   9.963 -2.0317 -0.0248 -2.1781
  135MOL0     H17770  11.144   3.844   9.795  1.2483 -1.5978 -0.4205
  135MOL0     H17771  11.334   3.728   9.866 -1.9152  0.5328 -0.7753
  135MOL0     H17772  11.381   3.859   9.981 -3.1120 -0.6790  2.4615
  135MOL0     H17773  11.353   3.778   9.602  0.4220 -0.2979  0.4371
  135MOL0     H17774  11.336   3.951   9.391 -0.5380 -0.9614  2.5173
  135MOL0     H17775  11.504   3.920   9.380  0.5964 -1.1820  0.6725
  135MOL0     H17776  11.564   4.152   9.403  0.9028  0.8249 -0.3459
  135MOL0     H17777  11.403   4.212   9.425 -3.1641 -0.1965 -3.2288
  135MOL0     H17778  11.500   4.068   9.179 -1.3025 -2.3733  0.8384
  135MOL0     H17779  11.332   4.100   9.213  0.8012 -2.7537 -0.5668
  135MOL0     H17780  11.473   4.282   9.072  3.3375 -0.7614  1.4789
  135MOL0     H17781  11.534   4.331   9.225  0.5505  0.1254 -0.8585
  135MOL0     H17782  11.127   4.518   9.214 -0.8642 -0.0791  0.4045
  135MOL0     H17783  10.921   4.501   9.090 -0.9208  0.6425 -1.9321
  135MOL0     H17784  10.747   4.371   8.631  1.5965  0.3887  2.6180
  135MOL0     H17785  10.540   4.270   8.542  0.0001 -1.0610  1.0260
  135MOL0     H17786  10.348   4.306   8.451  1.6983  1.6411  1.1947
  135MOL0     H17787  10.263   4.458   8.495  0.4845 -0.1661 -1.5702
  135MOL0     H17788  10.111   4.333   8.364  0.2223 -2.0322 -0.5927
  135MOL0     H17789  10.057   4.309   8.540 -0.4388 -3.0767 -0.1452
  135MOL0     H17790  10.202   4.103   8.540  2.0108  1.3500 -2.3667
  135MOL0     H17791  10.202   4.119   8.364  0.4676 -1.2825 -1.4161
  135MOL0     H17792   9.958   4.071   8.556 -3.6895 -0.0057 -0.7584
  135MOL0     H17793   9.932   4.121   8.396 -0.5247  0.4940  1.5789
  135MOL0     H17794  10.091   3.945   8.306  0.5310  0.2903  0.0767
  135MOL0     H17795   9.942   3.880   8.382  0.0460  1.2384  1.2010
  135MOL0     H17796  10.065   3.842   8.586 -0.7992  1.5088 -0.7812
  135MOL0     H17797  10.224   3.872   8.510 -0.1933 -0.3395  1.5806
  135MOL0     H17798  10.016   3.668   8.432 -0.4286  1.8603 -2.5284
  135MOL0     H17799  10.178   3.699   8.354  0.7312  3.0224 -0.0218
  135MOL0     H17800  10.159   3.624   8.652 -1.4876 -2.5729 -0.0238
  135MOL0     H17801  10.297   3.610   8.537  0.4121  0.7323 -0.7767
  135MOL0     H17802  10.314   4.431   8.867  0.5958 -1.6483  1.7442
  135MOL0     H17803  10.530   4.493   8.980  0.6857  0.3144 -0.1672
  135MOL0     H17804  11.099   4.216   8.830  0.2563  2.1702 -1.1660
  135MOL0     H17805  11.302   4.219   8.958 -0.1720 -0.1300 -1.6654
  135MOL0     H17806  10.323   4.207  10.174  1.0816  0.0085  0.0784
  135MOL0     H17807  10.120   4.330  10.097 -0.9680 -1.8341  0.6127
  135MOL0     H17808   9.842   4.451   9.939  0.0910 -0.1788  0.3977
  135MOL0     H17809   9.651   4.571   9.945 -0.4483  0.4148  1.0091
  135MOL0     H17810   9.474   4.764   9.830  2.8297 -1.4621 -1.9013
  135MOL0     H17811   9.425   4.619   9.927 -1.0539 -1.6472 -0.4724
  135MOL0     H17812   9.256   4.751   9.717 -0.4284  2.4822  0.7535
  135MOL0     H17813   9.213   4.601   9.804  1.3973 -0.7381  0.1333
  135MOL0     H17814   9.276   4.862   9.943  1.5154 -1.4198  1.1264
  135MOL0     H17815   9.227   4.721  10.029  1.5359  0.3085  0.2218
  135MOL0     H17816   9.045   4.907  10.001  1.6651 -1.3595  2.5460
  135MOL0     H17817   9.051   4.895   9.832  0.0252 -2.3373 -0.4374
  135MOL0     H17818   8.784   4.576   9.926 -1.0736  0.9883 -0.7448
  135MOL0     H17819   9.593   4.503   9.523 -2.3135  0.8274  1.6795
  135MOL0     H17820   9.804   4.367   9.511  1.2212 -0.7492  0.3898
  136MOL0     O17821   5.916   9.711   0.045  0.2621  0.2153 -0.2931
  136MOL0     C17822   5.991   9.622   0.086 -0.3690  0.1984  1.1356
  136MOL0     O17823   5.949   9.498   0.123  0.4456  0.2414  0.0815
  136MOL0     C17824   5.814   9.474   0.126  0.0306 -0.1508  0.3756
  136MOL0     C17825   5.742   9.533   0.223 -0.0224  0.2614  1.0517
  136MOL0     C17826   5.607   9.517   0.234 -0.1090 -0.4516  0.4600
  136MOL0     C17827   5.532   9.436   0.145 -0.0441 -0.2155 -0.6872
  136MOL0     O17828   5.397   9.412   0.150 -0.4452 -0.5864  0.2676
  136MOL0     C17829   5.319   9.486   0.243  0.1605 -1.1718 -0.1683
  136MOL0     C17830   5.184   9.430   0.253  0.1546  0.6140  0.4547
  136MOL0     C17831   5.098   9.501   0.355  0.4061 -0.3726 -1.1669
  136MOL0     C17832   4.959   9.455   0.371 -0.0051  0.3988  0.8010
  136MOL0     C17833   4.874   9.534   0.467  0.1378 -0.4122  0.5414
  136MOL0     C17834   4.730   9.491   0.465  0.5383  0.9528 -0.5433
  136MOL0     C17835   4.669   9.484   0.608  0.4592 -0.7441 -0.8275
  136MOL0     C17836   4.551   9.577   0.619 -0.2594 -0.6303 -0.0687
  136MOL0     N17837   4.490   9.588   0.752  0.1958  0.4402 -0.0499
  136MOL0     C17838   4.384   9.508   0.793  0.6257  0.1633  0.9291
  136MOL0     C17839   4.360   9.543   0.920 -0.5253 -0.9644  0.5079
  136MOL0     C17840   4.275   9.462   1.019  0.0167 -0.3116 -0.5412
  136MOL0     C17841   4.144   9.528   1.072  0.1924 -0.5459 -1.3842
  136MOL0     C17842   4.182   9.663   1.131  0.1100 -0.0336 -0.9464
  136MOL0     C17843   4.089   9.710   1.240  0.9404 -0.2227  0.9990
  136MOL0     O17844   3.969   9.761   1.174 -0.0173  0.1403 -0.1486
  136MOL0     C17845   3.854   9.758   1.249 -0.4657  0.7537 -0.1813
  136MOL0     C17846   3.736   9.708   1.196  0.7257 -0.0095 -0.2421
  136MOL0     C17847   3.612   9.726   1.264 -0.5979 -0.2260  1.0342
  136MOL0     C17848   3.603   9.787   1.385  0.5497 -0.6853 -0.9356
  136MOL0     C17849   3.470   9.803   1.460 -0.6145  0.8465 -0.2354
  136MOL0     O17850   3.355   9.752   1.395  0.1606 -0.3100 -0.0277
  136MOL0     C17851   3.229   9.775   1.451 -0.2366 -0.1931  0.3297
  136MOL0     C17852   3.164   9.898   1.426  0.0624  0.5205 -0.5401
  136MOL0     C17853   3.041   9.918   1.490  0.0678  0.2098 -0.3634
  136MOL0     C17854   2.991   9.820   1.577  0.2275  0.0348 -0.0591
  136MOL0     O17855   2.867   9.849   1.634 -0.7169 -0.3871  0.1556
  136MOL0     C17856   2.868   9.921   1.761  0.0458  1.0873 -0.9116
  136MOL0     C17857   2.928   9.849   1.880  0.0476  0.5083 -0.4875
  136MOL0     C17858   2.826   9.780   1.970  0.1384 -0.3261  0.3567
  136MOL0     C17859   2.875   9.684   2.082 -0.1981 -0.0724 -0.2129
  136MOL0     C17860   2.764   9.677   2.194  0.1694 -0.7577  0.4374
  136MOL0     C17861   2.805   9.605   2.316  0.0396  0.5319  0.3852
  136MOL0     C17862   2.709   9.649   2.429 -0.5174  0.9546 -0.8715
  136MOL0     C17863   2.775   9.602   2.564 -0.6068  0.6005 -0.2497
  136MOL0    Cl17864   2.898   9.726   2.614  0.2223 -0.4657 -0.2434
  136MOL0     C17865   3.054   9.695   1.590 -0.9775 -0.0981 -0.1810
  136MOL0     C17866   3.176   9.670   1.526 -0.7495 -0.4385  0.4049
  136MOL0     O17867   3.475   9.855   1.568  0.7370  0.4339 -0.5638
  136MOL0     C17868   3.725   9.836   1.442 -0.6221  0.4229  0.3832
  136MOL0     C17869   3.849   9.819   1.375  0.7517 -0.6157  0.3141
  136MOL0     N17870   4.453   9.636   0.955  0.1110  0.1445 -0.2366
  136MOL0     N17871   4.530   9.659   0.860  0.2028 -0.1751  0.4815
  136MOL0     C17872   5.610   9.368   0.053 -1.0349  0.5165  0.5149
  136MOL0     C17873   5.743   9.381   0.044 -1.0273 -0.1156 -0.6444
  136MOL0     C17874   6.138   9.665   0.083 -0.0946 -0.1461  0.0436
  136MOL0     C17875   6.242   9.571   0.100 -0.4617  1.1213 -0.2585
  136MOL0     C17876   6.380   9.602   0.108 -0.2917  0.4238  0.2698
  136MOL0     C17877   6.418   9.743   0.100  0.3336  0.6010 -0.0314
  136MOL0     O17878   6.550   9.774   0.112 -0.0385  0.4620  0.4427
  136MOL0     C17879   6.588   9.914   0.080  0.3261 -0.2963  0.0979
  136MOL0     C17880   6.736   9.915   0.076 -0.1128 -0.7282 -0.2664
  136MOL0     C17881   6.802   9.931   0.219  0.2172 -0.7802 -0.0582
  136MOL0     C17882   6.956   9.935   0.229  0.5026 -0.4082  0.5765
  136MOL0     C17883   7.026   9.803   0.209  0.2657 -0.2984  0.0738
  136MOL0     C17884   7.090   9.709   0.183  0.4256  0.0714 -0.3806
  136MOL0     C17885   6.315   9.830   0.084  1.0337 -0.6458  0.3238
  136MOL0     C17886   6.183   9.801   0.066  1.6248 -0.0115  0.3689
  136MOL0     H17887   5.784   9.601   0.296 -1.9843  3.3957 -0.4944
  136MOL0     H17888   5.550   9.560   0.316  0.5945 -2.2062  1.9471
  136MOL0     H17889   5.320   9.587   0.201 -1.7807 -1.4757 -1.0680
  136MOL0     H17890   5.372   9.481   0.338  1.7143  0.2290 -0.9019
  136MOL0     H17891   5.195   9.331   0.298 -0.1186  1.0643  1.5419
  136MOL0     H17892   5.133   9.422   0.156  0.4789 -0.6417  0.3608
  136MOL0     H17893   5.094   9.608   0.333 -0.5936  0.3100  1.7638
  136MOL0     H17894   5.144   9.496   0.455  3.2099  0.3707 -2.3317
  136MOL0     H17895   4.912   9.467   0.273  1.3649 -1.7401 -0.1934
  136MOL0     H17896   4.963   9.355   0.414  0.6959 -0.0360 -0.2412
  136MOL0     H17897   4.876   9.641   0.443 -2.2221 -0.2258  0.9042
  136MOL0     H17898   4.926   9.530   0.563  0.9550  2.7427  0.3590
  136MOL0     H17899   4.725   9.392   0.416 -0.1113  1.9193 -2.5731
  136MOL0     H17900   4.667   9.553   0.399 -1.2004 -0.5007 -0.3431
  136MOL0     H17901   4.625   9.385   0.623  0.8713 -0.7016  0.8461
  136MOL0     H17902   4.743   9.491   0.688 -0.8664 -0.3804  0.4183
  136MOL0     H17903   4.478   9.550   0.542  2.0766 -4.1845 -1.3175
  136MOL0     H17904   4.576   9.683   0.604 -0.5811 -0.5966 -0.3797
  136MOL0     H17905   4.331   9.434   0.733  0.6110  0.4725  0.5535
  136MOL0     H17906   4.340   9.440   1.104 -1.4152 -1.7536  0.2378
  136MOL0     H17907   4.258   9.367   0.967 -0.5537  0.5500 -1.9890
  136MOL0     H17908   4.110   9.462   1.152  2.6660  2.2902  2.3608
  136MOL0     H17909   4.069   9.539   0.994 -0.0244 -2.2019 -1.4401
  136MOL0     H17910   4.279   9.654   1.180  0.5407  1.3128 -1.4913
  136MOL0     H17911   4.193   9.729   1.045  1.6925  0.2539 -0.5580
  136MOL0     H17912   4.147   9.790   1.289  1.7886 -0.4967  0.4748
  136MOL0     H17913   4.065   9.627   1.306 -0.3052 -2.5134 -2.0929
  136MOL0     H17914   3.739   9.659   1.099 -1.8126 -0.2986 -0.2283
  136MOL0     H17915   3.526   9.692   1.207 -0.9696  1.5839  0.4571
  136MOL0     H17916   3.209   9.977   1.367  2.3783  0.7839  1.4072
  136MOL0     H17917   2.987  10.010   1.469  1.4488  0.9564 -0.7523
  136MOL0     H17918   2.764   9.940   1.790  0.5441 -1.6153  3.6566
  136MOL0     H17919   2.925  10.012   1.738  2.3688 -0.8752 -3.6403
  136MOL0     H17920   2.973   9.924   1.945 -0.6501  0.9943 -0.5510
  136MOL0     H17921   3.004   9.776   1.851 -0.0992  0.9445 -2.0438
  136MOL0     H17922   2.755   9.721   1.912  1.3777 -1.8446  0.3413
  136MOL0     H17923   2.771   9.864   2.015 -2.2940 -2.8319  2.4022
  136MOL0     H17924   2.915   9.591   2.039 -0.8282  0.8167 -2.9077
  136MOL0     H17925   2.966   9.732   2.120  1.0923 -0.4334 -2.5747
  136MOL0     H17926   2.672   9.632   2.154  1.0723 -2.2478 -0.0589
  136MOL0     H17927   2.742   9.780   2.222  0.4728 -0.3149 -0.9018
  136MOL0     H17928   2.909   9.629   2.339  0.4556 -0.8724  0.0435
  136MOL0     H17929   2.782   9.500   2.299 -1.1608  0.8401 -0.0169
  136MOL0     H17930   2.695   9.758   2.424 -0.1129  0.9432 -3.5508
  136MOL0     H17931   2.621   9.587   2.411  2.5917 -3.4893 -2.3512
  136MOL0     H17932   2.816   9.501   2.563 -3.0551 -0.5384 -3.3554
  136MOL0     H17933   2.697   9.596   2.640  1.9335  1.8006  2.6757
  136MOL0     H17934   3.010   9.622   1.657 -1.1097  0.1611  0.0202
  136MOL0     H17935   3.232   9.578   1.538 -1.2144 -0.7578  0.1914
  136MOL0     H17936   3.719   9.884   1.539 -1.6339  0.1085  0.4919
  136MOL0     H17937   3.932   9.875   1.419 -0.3239  1.5450 -0.2717
  136MOL0     H17938   5.552   9.317  -0.023 -1.2030  0.9564  0.3439
  136MOL0     H17939   5.799   9.325  -0.030 -1.4688 -0.1371 -0.9627
  136MOL0     H17940   6.216   9.465   0.100 -0.7212  1.1831 -0.5933
  136MOL0     H17941   6.451   9.521   0.108 -0.8512 -0.2303  3.9502
  136MOL0     H17942   6.560   9.989   0.154  1.2129  1.7715 -1.5520
  136MOL0     H17943   6.544   9.939  -0.017  2.3703  0.5766 -0.6601
  136MOL0     H17944   6.775   9.820   0.039  0.6010 -0.3059 -0.6151
  136MOL0     H17945   6.773   9.993   0.009  4.0380 -3.3208 -1.3633
  136MOL0     H17946   6.756   9.850   0.276 -2.7212 -1.2728 -2.8584
  136MOL0     H17947   6.760  10.023   0.262 -1.5954 -1.4320 -0.3537
  136MOL0     H17948   6.982  10.013   0.157  2.5801  0.5033  2.2246
  136MOL0     H17949   6.987   9.960   0.331 -1.2475 -3.5912  2.0507
  136MOL0     H17950   7.147   9.621   0.161 -0.7179 -0.6315 -0.6316
  136MOL0     H17951   6.332   9.937   0.081  0.0146 -0.4247  1.6966
  136MOL0     H17952   6.106   9.877   0.064  0.2632 -0.7838  5.7219
  137MOL0     O17953   3.451   5.915   4.273  0.2433 -0.2563 -0.4751
  137MOL0     C17954   3.461   5.827   4.190  0.5259  0.0074 -0.0449
  137MOL0     O17955   3.374   5.727   4.167  0.1747  0.1172 -0.2775
  137MOL0     C17956   3.244   5.736   4.200 -0.1221 -0.1705  0.0020
  137MOL0     C17957   3.162   5.855   4.204 -0.4273  0.4425  0.2174
  137MOL0     C17958   3.027   5.842   4.233 -0.4910 -0.3206  0.3113
  137MOL0     C17959   2.968   5.722   4.254 -0.4525  0.5116 -0.9384
  137MOL0     O17960   2.839   5.730   4.298  0.3749 -0.3659 -0.1385
  137MOL0     C17961   2.790   5.625   4.385 -0.3134  0.3075 -0.6657
  137MOL0     C17962   2.667   5.692   4.450 -0.8342  0.2604  0.2763
  137MOL0     C17963   2.613   5.626   4.584  0.1433  0.0054 -0.1715
  137MOL0     C17964   2.500   5.707   4.660  0.0464  0.6433 -0.9878
  137MOL0     C17965   2.449   5.657   4.801 -0.4474  0.3830  0.2657
  137MOL0     C17966   2.434   5.508   4.806 -0.7205 -0.2193 -0.3493
  137MOL0     C17967   2.386   5.455   4.943  0.7195  0.7321 -0.3292
  137MOL0     C17968   2.359   5.297   4.936  1.4066 -0.4162 -0.1563
  137MOL0     N17969   2.344   5.249   5.077 -0.4298 -0.4930 -0.8484
  137MOL0     C17970   2.265   5.310   5.165 -0.6729  0.2879  0.1360
  137MOL0     C17971   2.261   5.227   5.275  0.2951  0.8241 -0.2650
  137MOL0     C17972   2.180   5.254   5.396  0.2823  0.4646  0.1012
  137MOL0     C17973   2.041   5.320   5.352 -0.3485 -1.1339 -0.4325
  137MOL0     C17974   1.960   5.243   5.249 -0.7755 -0.5549  0.1705
  137MOL0     C17975   1.814   5.286   5.250  0.6624 -0.2107 -0.2596
  137MOL0     O17976   1.730   5.187   5.177 -0.3756 -0.9299  0.9061
  137MOL0     C17977   1.593   5.199   5.162 -0.6214 -0.3479 -0.2184
  137MOL0     C17978   1.525   5.088   5.117  0.7843  0.1959 -0.6943
  137MOL0     C17979   1.388   5.082   5.124  0.3036  0.6158 -1.1497
  137MOL0     C17980   1.312   5.190   5.175 -0.1324  0.2495 -0.1948
  137MOL0     C17981   1.167   5.189   5.186  0.3895  0.1333 -0.1632
  137MOL0     O17982   1.120   5.066   5.226  0.5419  0.2611  0.0899
  137MOL0     C17983   0.986   5.044   5.256  0.5634 -0.5829 -0.2309
  137MOL0     C17984   0.958   4.961   5.359  0.5578  0.7306  0.2043
  137MOL0     C17985   0.835   4.914   5.393  0.0419 -0.4946  0.0348
  137MOL0     C17986   0.726   4.947   5.309  0.1614  0.5826 -0.3640
  137MOL0     O17987   0.604   4.884   5.340  0.0959 -0.7434  0.2395
  137MOL0     C17988   0.479   4.965   5.335 -0.1476  0.4301 -0.5490
  137MOL0     C17989   0.367   4.893   5.403 -0.1699  0.6151 -0.0938
  137MOL0     C17990   0.237   4.973   5.409  0.2843  0.6168 -0.5238
  137MOL0     C17991   0.171   4.964   5.275 -0.3252  0.4452  0.1741
  137MOL0     C17992   0.020   5.006   5.278  1.3693 -0.3818  0.8960
  137MOL0     C17993   0.008   5.161   5.290  0.1289 -1.2313  0.3451
  137MOL0     C17994  -0.055   5.230   5.171 -0.8324 -0.3031 -0.0164
  137MOL0     C17995  -0.039   5.391   5.177  0.2096  0.7655  0.0657
  137MOL0    Cl17996  -0.132   5.439   5.320  0.2726  0.2743  0.0982
  137MOL0     C17997   0.742   5.054   5.208  0.3052  0.8444 -0.3766
  137MOL0     C17998   0.880   5.092   5.170  0.5171  0.1711 -0.5071
  137MOL0     O17999   1.106   5.294   5.180  0.1869  0.2387  0.5057
  137MOL0     C18000   1.383   5.304   5.218 -0.6393  0.8493  1.0651
  137MOL0     C18001   1.518   5.299   5.218 -0.1037 -0.2694  1.0778
  137MOL0     N18002   2.350   5.123   5.240  0.0202 -0.3293  0.3046
  137MOL0     N18003   2.398   5.139   5.125  0.1038  0.5432  0.4742
  137MOL0     C18004   3.043   5.600   4.243  0.7510  0.1913  0.4616
  137MOL0     C18005   3.177   5.614   4.205  0.2848 -0.0151 -0.0353
  137MOL0     C18006   3.571   5.832   4.094 -0.8034 -0.3117 -0.5733
  137MOL0     C18007   3.623   5.958   4.065  0.0904 -0.1348  0.0800
  137MOL0     C18008   3.724   5.965   3.963  0.2823  0.4767 -0.8669
  137MOL0     C18009   3.776   5.847   3.896 -0.4999  0.3145 -0.0799
  137MOL0     O18010   3.889   5.855   3.811  0.3884 -0.1235  0.3324
  137MOL0     C18011   4.012   5.878   3.879 -0.3700  0.1918  0.1119
  137MOL0     C18012   4.038   5.783   3.991  0.2311  0.0336 -0.2862
  137MOL0     C18013   4.166   5.819   4.064 -0.5371 -1.2715 -0.6235
  137MOL0     C18014   4.178   5.953   4.138 -0.6916 -0.0010  0.3348
  137MOL0     C18015   4.049   5.974   4.209 -0.4816  0.3045 -0.1256
  137MOL0     C18016   3.951   6.006   4.261  0.2802 -0.3494 -0.1469
  137MOL0     C18017   3.724   5.725   3.934 -0.0722 -0.1061 -0.2183
  137MOL0     C18018   3.619   5.716   4.031 -0.1893 -0.5357  0.2710
  137MOL0     H18019   3.202   5.956   4.195 -1.3648  0.7136 -1.2715
  137MOL0     H18020   2.971   5.933   4.250  0.2901  0.2624 -0.1620
  137MOL0     H18021   2.869   5.609   4.459 -0.7346 -2.3472 -0.6962
  137MOL0     H18022   2.756   5.532   4.338 -0.5422  0.1690 -0.2374
  137MOL0     H18023   2.581   5.691   4.383 -3.1833  0.4420  3.0610
  137MOL0     H18024   2.691   5.797   4.469 -1.3746  0.9352 -2.4634
  137MOL0     H18025   2.694   5.621   4.658  1.0684 -0.2566 -1.1859
  137MOL0     H18026   2.596   5.519   4.571 -2.7861  0.3415  0.0667
  137MOL0     H18027   2.529   5.812   4.669 -1.1285  0.9403 -0.4779
  137MOL0     H18028   2.407   5.713   4.602  1.0554  1.4046 -2.5795
  137MOL0     H18029   2.353   5.703   4.826 -1.2976  1.1372 -3.6456
  137MOL0     H18030   2.530   5.691   4.866 -0.1811  1.8626 -0.7700
  137MOL0     H18031   2.533   5.465   4.785  1.0933  0.9350  4.4910
  137MOL0     H18032   2.361   5.462   4.739 -0.1925 -0.5360 -0.7217
  137MOL0     H18033   2.461   5.473   5.020  0.0601 -1.1377  0.8213
  137MOL0     H18034   2.297   5.504   4.983 -0.3565 -3.0495  2.4505
  137MOL0     H18035   2.442   5.244   4.888  1.8912  2.1141 -2.3878
  137MOL0     H18036   2.272   5.274   4.873  2.4811  0.1769 -1.9202
  137MOL0     H18037   2.200   5.396   5.147  0.7262  0.9813 -1.9931
  137MOL0     H18038   2.232   5.330   5.454  1.7309  0.9555 -1.7362
  137MOL0     H18039   2.166   5.167   5.462 -2.1926 -0.7833 -1.8842
  137MOL0     H18040   2.068   5.417   5.310 -1.3111 -0.9640 -0.6746
  137MOL0     H18041   1.991   5.341   5.447  1.3339  0.1508  0.2266
  137MOL0     H18042   1.991   5.257   5.145 -0.5147  1.3509  0.4600
  137MOL0     H18043   1.956   5.139   5.283  1.6503 -0.9217 -0.5009
  137MOL0     H18044   1.816   5.378   5.192  0.7854 -0.3063 -0.4099
  137MOL0     H18045   1.776   5.307   5.350 -1.4617 -1.3065 -0.7850
  137MOL0     H18046   1.579   5.006   5.070  1.8327  0.4781 -0.0293
  137MOL0     H18047   1.329   4.995   5.099  0.4278  0.6463 -1.5582
  137MOL0     H18048   1.037   4.922   5.423 -1.7402 -0.8046  2.2650
  137MOL0     H18049   0.821   4.840   5.472 -1.5030  0.3346  0.5826
  137MOL0     H18050   0.454   4.989   5.232 -0.8183  1.2308 -0.2110
  137MOL0     H18051   0.478   5.060   5.389 -2.5918  0.9227 -1.3103
  137MOL0     H18052   0.402   4.869   5.504  3.3702  0.0171 -1.3235
  137MOL0     H18053   0.351   4.800   5.349  0.3308  0.2629  0.3597
  137MOL0     H18054   0.258   5.075   5.442  1.3123  0.5580 -0.9541
  137MOL0     H18055   0.172   4.919   5.478 -1.2110  1.9561 -0.8299
  137MOL0     H18056   0.225   5.035   5.211 -1.8192  0.3818 -1.2419
  137MOL0     H18057   0.172   4.863   5.234 -2.2605  1.1113 -1.7262
  137MOL0     H18058  -0.031   4.955   5.361  0.3032 -0.3418  0.2835
  137MOL0     H18059  -0.030   4.976   5.185 -1.0810 -0.5721  2.1980
  137MOL0     H18060   0.112   5.194   5.302  0.7321 -2.1438 -1.8244
  137MOL0     H18061  -0.055   5.191   5.373  0.0081 -0.6074  0.0323
  137MOL0     H18062  -0.005   5.181   5.087  0.8004 -1.5528  1.5901
  137MOL0     H18063  -0.160   5.205   5.188 -0.8982  0.1019  0.1965
  137MOL0     H18064  -0.075   5.437   5.084 -1.0378 -0.4781 -0.1037
  137MOL0     H18065   0.066   5.417   5.198  0.2404 -0.8613  2.3282
  137MOL0     H18066   0.656   5.081   5.148 -0.4591 -1.3416 -0.3205
  137MOL0     H18067   0.888   5.157   5.084  0.5199  1.0501  0.1484
  137MOL0     H18068   1.332   5.394   5.249  0.8053  0.9339  3.4807
  137MOL0     H18069   1.572   5.384   5.258  1.9403 -0.0965 -1.7407
  137MOL0     H18070   2.990   5.507   4.258 -0.0896  0.5997  0.0982
  137MOL0     H18071   3.233   5.520   4.210  1.3248  0.6382  1.6548
  137MOL0     H18072   3.577   6.047   4.106 -0.7877  0.2870 -1.7016
  137MOL0     H18073   3.771   6.061   3.944  0.1753  0.1985 -2.6833
  137MOL0     H18074   4.018   5.979   3.920  1.0489 -0.5049  1.7315
  137MOL0     H18075   4.089   5.869   3.802 -1.6294  0.1710 -1.1953
  137MOL0     H18076   3.956   5.795   4.063 -0.2121  1.3335 -0.9664
  137MOL0     H18077   4.048   5.679   3.960 -0.4996 -1.0303  2.7408
  137MOL0     H18078   4.244   5.806   3.989  0.1604 -1.4411  0.1226
  137MOL0     H18079   4.181   5.748   4.145  0.1557  1.2512  1.5929
  137MOL0     H18080   4.265   5.946   4.204  2.3507 -1.5833 -3.3845
  137MOL0     H18081   4.200   6.035   4.068  0.0194  0.5714  1.2075
  137MOL0     H18082   3.868   6.039   4.320  0.6212  0.0968  0.0894
  137MOL0     H18083   3.779   5.635   3.910  0.6102 -0.5351  2.5928
  137MOL0     H18084   3.590   5.617   4.066  2.1586 -0.8060  1.6317
  138MOL0     O18085   2.220   5.963   0.963 -0.3516  0.5975  0.5238
  138MOL0     C18086   2.171   5.992   0.859  0.2213 -0.8875 -0.5156
  138MOL0     O18087   2.043   5.993   0.830 -0.2926  0.2308 -0.6235
  138MOL0     C18088   1.953   5.943   0.919 -0.2538  0.2129 -0.6948
  138MOL0     C18089   1.931   5.998   1.045 -0.0596  0.7811 -0.0690
  138MOL0     C18090   1.825   5.953   1.125  0.1717 -0.2151 -0.2973
  138MOL0     C18091   1.736   5.847   1.077 -0.2845 -1.0777 -0.1429
  138MOL0     O18092   1.631   5.812   1.160  0.4618  0.1558  0.2824
  138MOL0     C18093   1.630   5.838   1.303  0.3961 -0.7762  0.7732
  138MOL0     C18094   1.520   5.752   1.373  0.9270  0.1806 -0.5897
  138MOL0     C18095   1.373   5.762   1.305 -0.4196 -0.4689  0.1859
  138MOL0     C18096   1.266   5.708   1.397  0.7749  0.3291 -0.2399
  138MOL0     C18097   1.130   5.714   1.311  1.3170 -0.3780 -0.3578
  138MOL0     C18098   1.007   5.679   1.392 -0.5254 -0.4781 -0.2792
  138MOL0     C18099   0.878   5.695   1.313  0.0635 -1.2190  0.6411
  138MOL0     C18100   0.762   5.651   1.403 -0.4888 -0.2200  0.9589
  138MOL0     N18101   0.630   5.693   1.349 -0.6113  0.1232 -0.3459
  138MOL0     C18102   0.549   5.610   1.277 -0.2954 -0.3543  0.4966
  138MOL0     C18103   0.430   5.674   1.248  0.5855 -0.0933  0.3001
  138MOL0     C18104   0.314   5.631   1.165 -0.9664  0.4938 -0.0912
  138MOL0     C18105   0.198   5.615   1.259 -0.1394  0.1254  0.0921
  138MOL0     C18106   0.074   5.553   1.194 -0.1460  0.2555 -0.1107
  138MOL0     C18107  -0.055   5.558   1.281 -0.3456 -0.3945  0.3214
  138MOL0     O18108  -0.110   5.689   1.271  0.1831 -0.6974 -0.5009
  138MOL0     C18109  -0.246   5.703   1.289 -0.3720  0.6855  0.2213
  138MOL0     C18110  -0.305   5.811   1.223 -0.5858  0.1404 -0.0109
  138MOL0     C18111  -0.445   5.834   1.210  0.1947  0.2123  0.3437
  138MOL0     C18112  -0.531   5.739   1.269  0.2634  0.0562  0.8256
  138MOL0     C18113  -0.683   5.745   1.273 -0.5846 -0.3051  0.8905
  138MOL0     O18114  -0.744   5.631   1.267 -0.1457 -0.6658  0.5884
  138MOL0     C18115  -0.875   5.623   1.238 -0.4356  0.0995  0.6528
  138MOL0     C18116  -0.955   5.568   1.334  0.5844  0.2259  0.2312
  138MOL0     C18117  -1.093   5.559   1.319  0.7307  0.5317  0.9169
  138MOL0     C18118  -1.160   5.611   1.206  0.7039 -0.5031 -0.3438
  138MOL0     O18119  -1.298   5.613   1.214 -0.1659  0.3594  0.2617
  138MOL0     C18120  -1.369   5.612   1.085 -0.1953  0.7399  0.0350
  138MOL0     C18121  -1.519   5.591   1.115  0.0786 -0.4823  0.0083
  138MOL0     C18122  -1.580   5.551   0.978 -0.7129 -0.2303 -0.7629
  138MOL0     C18123  -1.720   5.534   1.000 -0.2138 -0.7105  0.6729
  138MOL0     C18124  -1.811   5.499   0.873 -0.0112  0.0808 -1.0230
  138MOL0     C18125  -1.828   5.618   0.776 -0.3102 -0.2007  0.5041
  138MOL0     C18126  -1.924   5.601   0.649 -0.8394  0.2325  0.5939
  138MOL0     C18127  -1.865   5.514   0.537 -1.0884 -0.9409  0.7443
  138MOL0    Cl18128  -1.686   5.525   0.502 -0.3551 -0.1760 -0.6605
  138MOL0     C18129  -1.076   5.667   1.107  0.6491  0.0028  0.0173
  138MOL0     C18130  -0.934   5.664   1.118 -0.1621  0.0259  0.2785
  138MOL0     O18131  -0.736   5.858   1.249  0.8650 -0.7878 -0.3103
  138MOL0     C18132  -0.468   5.635   1.335  0.5545 -0.6659 -0.5052
  138MOL0     C18133  -0.332   5.613   1.354  0.1869  0.7425 -0.0867
  138MOL0     N18134   0.442   5.801   1.309  0.3533 -0.0718  0.8290
  138MOL0     N18135   0.559   5.809   1.369 -0.2309  0.0660 -0.5459
  138MOL0     C18136   1.756   5.798   0.950 -0.2198 -0.2315  0.0854
  138MOL0     C18137   1.864   5.849   0.870  0.0065 -0.4894  0.3871
  138MOL0     C18138   2.260   6.031   0.753 -0.4851 -0.3211  0.1310
  138MOL0     C18139   2.210   6.052   0.621 -0.6316 -0.3607  0.0675
  138MOL0     C18140   2.289   6.082   0.509 -0.4717  0.2868 -0.1315
  138MOL0     C18141   2.424   6.101   0.532  0.3696  0.0881  0.9600
  138MOL0     O18142   2.491   6.136   0.419 -0.5379  0.0459  0.4121
  138MOL0     C18143   2.632   6.127   0.426  1.0713  0.7883 -1.2875
  138MOL0     C18144   2.690   6.163   0.295 -0.5415 -0.1217  0.7789
  138MOL0     C18145   2.837   6.172   0.278  0.3069  0.0589  0.3099
  138MOL0     C18146   2.898   6.042   0.335  0.2325 -0.7342 -0.4338
  138MOL0     C18147   3.042   6.056   0.329 -0.2303  0.2397 -0.1316
  138MOL0     C18148   3.159   6.085   0.331 -0.0131 -0.1716  0.0247
  138MOL0     C18149   2.483   6.088   0.654  0.1500  0.5061 -0.2622
  138MOL0     C18150   2.400   6.050   0.765  0.6937  0.2157  0.6995
  138MOL0     H18151   2.006   6.071   1.077 -0.1124  1.2207 -0.9057
  138MOL0     H18152   1.810   5.996   1.224 -0.1644  1.3637 -0.9983
  138MOL0     H18153   1.616   5.944   1.326 -0.9708 -1.5491  4.1393
  138MOL0     H18154   1.720   5.801   1.352 -0.1196 -1.7159  1.0379
  138MOL0     H18155   1.505   5.783   1.477  1.8172  1.6496 -0.8848
  138MOL0     H18156   1.551   5.647   1.379 -0.4470 -0.1727  1.3840
  138MOL0     H18157   1.380   5.711   1.209  1.3822 -0.4002  0.2464
  138MOL0     H18158   1.347   5.867   1.293 -1.2343 -0.5005  1.4744
  138MOL0     H18159   1.288   5.603   1.418 -1.7919  0.2893  3.1771
  138MOL0     H18160   1.255   5.769   1.487  2.0736 -0.4890  0.4991
  138MOL0     H18161   1.125   5.654   1.219  0.4147  0.4100 -0.8508
  138MOL0     H18162   1.119   5.815   1.270  1.0181 -1.0839 -2.1221
  138MOL0     H18163   0.998   5.732   1.488 -0.8675 -1.4344  0.2291
  138MOL0     H18164   1.010   5.574   1.423  0.7186  0.5150  3.4748
  138MOL0     H18165   0.853   5.798   1.287  2.0566 -1.2905 -1.9041
  138MOL0     H18166   0.878   5.636   1.221 -0.7037 -2.2876  1.3013
  138MOL0     H18167   0.761   5.703   1.499 -0.6833 -0.1265  0.9070
  138MOL0     H18168   0.771   5.543   1.416  0.2084 -0.8856 -3.4630
  138MOL0     H18169   0.576   5.509   1.251 -0.2527  0.2707 -2.2157
  138MOL0     H18170   0.337   5.539   1.111  1.3524  1.0764 -0.2006
  138MOL0     H18171   0.302   5.701   1.082  1.6950 -0.0577 -1.0426
  138MOL0     H18172   0.162   5.711   1.297 -1.3236  0.6157 -2.0896
  138MOL0     H18173   0.223   5.547   1.341 -1.7180 -1.6012 -0.7727
  138MOL0     H18174   0.059   5.600   1.096  2.2595  0.2903 -0.5369
  138MOL0     H18175   0.105   5.449   1.179  1.6547  0.6238  0.6995
  138MOL0     H18176  -0.008   5.545   1.379  1.0794 -2.2913 -0.5521
  138MOL0     H18177  -0.124   5.479   1.252  1.1518 -1.6116 -0.0417
  138MOL0     H18178  -0.224   5.871   1.183  0.4565 -2.7363 -2.5994
  138MOL0     H18179  -0.482   5.919   1.154  0.6141 -0.5591 -1.1753
  138MOL0     H18180  -0.908   5.533   1.426  1.9697  1.3938 -0.0074
  138MOL0     H18181  -1.156   5.518   1.397 -0.6484  1.1236  0.1363
  138MOL0     H18182  -1.330   5.527   1.029 -1.3145  1.6429 -2.2413
  138MOL0     H18183  -1.341   5.705   1.034  1.7808  0.5307  0.6688
  138MOL0     H18184  -1.564   5.682   1.155 -1.9182 -0.9371 -1.0095
  138MOL0     H18185  -1.540   5.509   1.185 -2.3441  0.5912  0.6682
  138MOL0     H18186  -1.554   5.454   0.934 -0.8377 -0.1775 -0.9561
  138MOL0     H18187  -1.565   5.633   0.906 -2.7013  1.4737  0.6455
  138MOL0     H18188  -1.752   5.469   1.081 -0.9171 -2.4109 -0.9005
  138MOL0     H18189  -1.756   5.634   1.025 -1.4887 -0.4610 -1.8341
  138MOL0     H18190  -1.905   5.464   0.917 -0.1520 -0.1237 -1.4744
  138MOL0     H18191  -1.760   5.415   0.825  2.6894  1.7820 -1.3364
  138MOL0     H18192  -1.728   5.652   0.749 -0.4329  2.1083  2.5874
  138MOL0     H18193  -1.874   5.701   0.831 -0.1171 -2.1208  3.8165
  138MOL0     H18194  -2.020   5.562   0.681 -0.5819  0.0310  1.1356
  138MOL0     H18195  -1.943   5.700   0.604  1.0115  0.2641 -0.2332
  138MOL0     H18196  -1.915   5.545   0.445  0.4807 -1.5552 -0.3631
  138MOL0     H18197  -1.897   5.410   0.553 -2.0148 -1.0446 -1.5260
  138MOL0     H18198  -1.124   5.702   1.016  0.3920 -0.4504 -0.0274
  138MOL0     H18199  -0.867   5.680   1.035  0.1071  2.0211  0.8416
  138MOL0     H18200  -0.537   5.564   1.381  1.2284 -1.2444 -0.3806
  138MOL0     H18201  -0.288   5.531   1.410  1.7531  0.6477 -1.3643
  138MOL0     H18202   1.701   5.713   0.912  0.0535  0.3124 -1.6181
  138MOL0     H18203   1.870   5.810   0.769  0.8179 -0.5409  0.4526
  138MOL0     H18204   2.104   6.053   0.598 -0.2844  0.0297 -1.6548
  138MOL0     H18205   2.239   6.102   0.415 -2.9916 -0.7419  0.8983
  138MOL0     H18206   2.663   6.025   0.454  1.5869  0.7352 -2.0086
  138MOL0     H18207   2.664   6.199   0.502  0.9106 -1.7977  1.4664
  138MOL0     H18208   2.655   6.087   0.223 -1.8232  1.6225 -0.5267
  138MOL0     H18209   2.654   6.261   0.262  0.9399 -0.2604 -1.5340
  138MOL0     H18210   2.882   6.262   0.319 -0.3515  1.9487 -2.8121
  138MOL0     H18211   2.847   6.171   0.169  2.4002 -0.1790  0.4596
  138MOL0     H18212   2.875   6.021   0.440  2.2491 -1.3699 -0.0755
  138MOL0     H18213   2.853   5.959   0.281  0.2909 -0.8956 -0.2362
  138MOL0     H18214   3.265   6.095   0.336 -0.2454  2.8673  1.0190
  138MOL0     H18215   2.589   6.100   0.668  0.4657 -1.8198 -0.1953
  138MOL0     H18216   2.453   6.040   0.859  0.0889  0.2983  1.0532
  139MOL0     O18217   7.519  10.239   8.314  0.2532 -0.0110 -0.7508
  139MOL0     C18218   7.579  10.140   8.278 -0.1373  0.1479  0.2597
  139MOL0     O18219   7.533  10.011   8.285  0.6055 -0.4487  0.1700
  139MOL0     C18220   7.400   9.974   8.318 -0.2971  0.5980 -0.0925
  139MOL0     C18221   7.383   9.845   8.368  1.0618 -0.0387 -0.0255
  139MOL0     C18222   7.254   9.790   8.374  0.7388  0.4562  0.3305
  139MOL0     C18223   7.144   9.861   8.341  0.4699  0.1660 -0.3597
  139MOL0     O18224   7.028   9.795   8.358  0.0947  0.1792 -0.3638
  139MOL0     C18225   6.900   9.853   8.325 -0.0887 -0.5978 -0.1766
  139MOL0     C18226   6.855   9.812   8.179 -0.5597  0.7870 -1.2215
  139MOL0     C18227   6.721   9.869   8.149  0.0783  0.1338  0.0250
  139MOL0     C18228   6.680   9.839   7.999  0.3045  0.0762  0.1752
  139MOL0     C18229   6.574   9.933   7.965  0.5156  0.2008  0.1979
  139MOL0     C18230   6.515   9.912   7.823  0.1471 -1.0976  0.6883
  139MOL0     C18231   6.394  10.005   7.795 -0.5358 -0.3851  0.0323
  139MOL0     C18232   6.275   9.979   7.889 -0.3918 -0.3261 -0.1396
  139MOL0     N18233   6.167  10.063   7.839 -1.0787 -0.3258 -0.2999
  139MOL0     C18234   6.101  10.051   7.723  0.3844  0.2914  0.1220
  139MOL0     C18235   6.016  10.159   7.732 -0.7225  0.7343 -0.6387
  139MOL0     C18236   5.918  10.215   7.636  0.5809 -0.5684 -0.2489
  139MOL0     C18237   5.777  10.172   7.680 -0.2350 -0.4446  0.0522
  139MOL0     C18238   5.746  10.034   7.621 -0.5680  1.1219 -0.7333
  139MOL0     C18239   5.605   9.997   7.672 -0.2970 -0.2332 -0.5570
  139MOL0     O18240   5.534   9.906   7.590 -0.1791 -0.2497 -0.1469
  139MOL0     C18241   5.420   9.846   7.647 -0.5674  0.2009 -0.0746
  139MOL0     C18242   5.364   9.882   7.777 -0.5910  0.0861  0.2836
  139MOL0     C18243   5.245   9.829   7.833  0.0038  1.2586 -0.2046
  139MOL0     C18244   5.175   9.736   7.750 -0.4218  0.1605  0.0315
  139MOL0     C18245   5.064   9.660   7.805  0.2626 -0.4701  0.9740
  139MOL0     O18246   4.984   9.598   7.712 -0.3026  0.6549 -0.4534
  139MOL0     C18247   4.864   9.547   7.739 -0.4061  0.1437 -0.1932
  139MOL0     C18248   4.819   9.432   7.676 -0.0542 -0.6491  1.2169
  139MOL0     C18249   4.689   9.386   7.698 -0.2535  0.1749 -0.5721
  139MOL0     C18250   4.590   9.453   7.769 -0.0703 -0.3880 -0.2726
  139MOL0     O18251   4.463   9.400   7.780 -0.4993  0.2697 -0.5475
  139MOL0     C18252   4.398   9.424   7.905 -0.5086  0.0411 -0.1995
  139MOL0     C18253   4.281   9.334   7.939 -0.0193 -0.0925  0.6008
  139MOL0     C18254   4.178   9.323   7.831  0.1761 -0.7354 -0.9327
  139MOL0     C18255   4.060   9.233   7.867 -1.3222 -0.2077  0.2010
  139MOL0     C18256   4.101   9.089   7.852  0.6430 -0.0934 -0.4173
  139MOL0     C18257   3.977   8.995   7.860 -0.1455  0.1267  0.5496
  139MOL0     C18258   4.017   8.848   7.851  0.1484  0.9073 -0.1512
  139MOL0     C18259   3.901   8.748   7.881 -0.1238 -0.0467  1.1519
  139MOL0    Cl18260   3.748   8.771   7.782  0.0263  0.1171 -0.1871
  139MOL0     C18261   4.639   9.578   7.830  0.4305  0.1124 -0.5763
  139MOL0     C18262   4.770   9.615   7.824  0.0758 -0.5786  0.6776
  139MOL0     O18263   5.049   9.659   7.925  0.6664 -0.1101 -0.6640
  139MOL0     C18264   5.231   9.697   7.625  0.8900 -0.1901 -0.3104
  139MOL0     C18265   5.343   9.749   7.579 -0.8059 -0.1854 -0.3573
  139MOL0     N18266   6.033  10.228   7.854 -0.4446  0.3413 -0.2495
  139MOL0     N18267   6.132  10.175   7.911 -0.3278  0.0736  0.7335
  139MOL0     C18268   7.163   9.994   8.309  0.7379 -0.3607  0.0302
  139MOL0     C18269   7.287  10.048   8.285  0.2590 -0.5477  0.4868
  139MOL0     C18270   7.721  10.161   8.237 -0.2845  0.4080 -0.6117
  139MOL0     C18271   7.798  10.054   8.190  0.1627  0.7263  0.3312
  139MOL0     C18272   7.935  10.066   8.169  0.0664  1.0193  0.1733
  139MOL0     C18273   8.002  10.187   8.176 -0.7942 -0.1935 -0.0098
  139MOL0     O18274   8.139  10.220   8.153 -0.4238  0.7472  0.1183
  139MOL0     C18275   8.223  10.110   8.099 -0.2047 -0.6390  0.6502
  139MOL0     C18276   8.360  10.170   8.070 -0.4130  0.3579  0.0092
  139MOL0     C18277   8.437  10.188   8.198  0.2392  0.6015  0.2980
  139MOL0     C18278   8.588  10.196   8.181 -0.4518  0.3777  0.1066
  139MOL0     C18279   8.634  10.248   8.309 -0.5819  0.2442 -0.4223
  139MOL0     C18280   8.668  10.301   8.408 -0.3892  0.5550 -0.3114
  139MOL0     C18281   7.926  10.294   8.221  0.0843 -0.0078  0.7624
  139MOL0     C18282   7.785  10.283   8.241 -0.4892 -0.3830 -0.0394
  139MOL0     H18283   7.458   9.772   8.399 -0.0209 -0.2214  2.4176
  139MOL0     H18284   7.261   9.683   8.393  1.0264 -0.2224 -3.0041
  139MOL0     H18285   6.893   9.962   8.332 -0.4222 -0.7015  1.8797
  139MOL0     H18286   6.823   9.806   8.387 -0.8450  1.5946  0.6879
  139MOL0     H18287   6.842   9.704   8.165 -0.4967  0.5635  0.2767
  139MOL0     H18288   6.928   9.850   8.108 -0.4823 -2.2826 -2.9731
  139MOL0     H18289   6.730   9.978   8.155 -0.3043  0.2582 -1.3919
  139MOL0     H18290   6.642   9.831   8.215  1.0007 -0.9395  0.5526
  139MOL0     H18291   6.769   9.861   7.940 -1.2562  3.8571 -1.0620
  139MOL0     H18292   6.639   9.738   7.986 -1.4513  0.6588  0.9192
  139MOL0     H18293   6.611  10.036   7.965  2.9405 -0.5316 -2.6497
  139MOL0     H18294   6.487   9.925   8.031 -1.7911 -0.8297 -2.7556
  139MOL0     H18295   6.487   9.806   7.822  0.2955 -1.1346 -0.5516
  139MOL0     H18296   6.591   9.933   7.748 -0.3849  1.0002  0.6517
  139MOL0     H18297   6.425  10.108   7.813  1.9488 -0.9702 -0.5866
  139MOL0     H18298   6.374   9.993   7.688  4.4818  1.8935 -1.4429
  139MOL0     H18299   6.300  10.010   7.990  0.3905 -1.0225 -0.1087
  139MOL0     H18300   6.243   9.874   7.884 -2.1378  0.2032 -3.4871
  139MOL0     H18301   6.123   9.977   7.646  1.9872 -0.6573  1.4210
  139MOL0     H18302   5.958  10.182   7.539  2.6827 -3.4482  1.4562
  139MOL0     H18303   5.920  10.324   7.644  2.5483 -0.3347 -2.5522
  139MOL0     H18304   5.706  10.245   7.640  0.0871 -0.2504 -0.1712
  139MOL0     H18305   5.773  10.174   7.789  0.3819  0.7525  0.0701
  139MOL0     H18306   5.743  10.019   7.513  0.9414  1.2672 -0.8146
  139MOL0     H18307   5.819   9.959   7.656 -2.2042 -1.3047 -2.2031
  139MOL0     H18308   5.541  10.083   7.694 -1.0183 -0.6403 -0.9979
  139MOL0     H18309   5.630   9.947   7.766 -2.1835 -1.7692 -0.8172
  139MOL0     H18310   5.403   9.962   7.839  1.3282 -0.8478  0.3570
  139MOL0     H18311   5.224   9.847   7.938  2.3913 -1.5434  0.8992
  139MOL0     H18312   4.888   9.386   7.606  1.3889 -0.2088  2.3194
  139MOL0     H18313   4.653   9.298   7.646 -0.1308  0.2497 -0.7862
  139MOL0     H18314   4.355   9.523   7.922 -2.3565 -0.8701  0.7629
  139MOL0     H18315   4.471   9.414   7.986 -0.4580  0.1901 -0.2250
  139MOL0     H18316   4.233   9.373   8.029  0.8076  3.1218 -0.1898
  139MOL0     H18317   4.322   9.233   7.943  0.7645  0.0655 -1.7354
  139MOL0     H18318   4.229   9.279   7.745  0.5884  2.4106 -2.4600
  139MOL0     H18319   4.143   9.421   7.794 -1.0192 -0.3720  1.0038
  139MOL0     H18320   4.020   9.273   7.960 -2.3761  2.7649 -1.3883
  139MOL0     H18321   3.985   9.257   7.791  2.1218  0.7113 -3.2433
  139MOL0     H18322   4.179   9.052   7.920  0.7864 -0.5030 -0.7999
  139MOL0     H18323   4.138   9.072   7.751 -3.0845 -1.7101 -1.6562
  139MOL0     H18324   3.913   9.015   7.773 -1.5018 -0.7698  1.3088
  139MOL0     H18325   3.924   9.018   7.953  1.1514 -1.8701  1.8597
  139MOL0     H18326   4.058   8.829   7.752  1.5669  3.4004 -0.1264
  139MOL0     H18327   4.097   8.821   7.921  1.0311  1.8988 -0.7368
  139MOL0     H18328   3.867   8.753   7.985  0.0986 -1.9992  1.3519
  139MOL0     H18329   3.936   8.648   7.857  0.3258  0.5226 -0.6787
  139MOL0     H18330   4.579   9.643   7.893  3.4529  1.5885  0.9848
  139MOL0     H18331   4.823   9.690   7.882  3.9721 -1.2150 -1.6647
  139MOL0     H18332   5.180   9.622   7.566 -2.7497  1.9106 -0.1787
  139MOL0     H18333   5.389   9.720   7.485  3.7555 -1.4031  1.9579
  139MOL0     H18334   7.073  10.053   8.297 -0.1089 -1.6450 -0.1432
  139MOL0     H18335   7.291  10.150   8.247 -3.5278 -0.5115 -0.1948
  139MOL0     H18336   7.759   9.953   8.198  2.4932 -0.5529 -2.6625
  139MOL0     H18337   7.987   9.975   8.143  1.8541  1.3741  2.2356
  139MOL0     H18338   8.170  10.073   8.011 -2.3696  2.8728  0.2836
  139MOL0     H18339   8.225  10.020   8.161  0.3986 -1.2235 -0.1967
  139MOL0     H18340   8.421  10.115   7.998  0.7162  2.6390 -0.8676
  139MOL0     H18341   8.337  10.272   8.037  0.5407  1.2466  1.9211
  139MOL0     H18342   8.408  10.101   8.258 -1.0892  0.1667 -0.9095
  139MOL0     H18343   8.405  10.281   8.244  0.4858  1.6677 -1.5906
  139MOL0     H18344   8.639  10.104   8.154 -1.5822 -0.3864  0.4997
  139MOL0     H18345   8.602  10.271   8.102  0.7888 -0.2835 -0.3300
  139MOL0     H18346   8.678  10.332   8.510  1.6948 -1.7000  0.2560
  139MOL0     H18347   7.969  10.393   8.235  3.3571 -0.6416 -2.9572
  139MOL0     H18348   7.727  10.373   8.259 -0.6098 -0.5363  0.3422
  140MOL0     O18349   0.520  10.893   8.701  0.1468  0.2847 -0.6633
  140MOL0     C18350   0.564  10.927   8.813  1.2800  0.6383  0.5187
  140MOL0     O18351   0.495  10.903   8.934  0.5215 -0.2294  0.1315
  140MOL0     C18352   0.412  10.798   8.956  0.3396  0.0096  0.1274
  140MOL0     C18353   0.462  10.674   8.939  1.4960  0.0189 -0.6572
  140MOL0     C18354   0.389  10.557   8.961 -0.5524  0.0046  0.0505
  140MOL0     C18355   0.265  10.570   9.029  0.1538  0.0522  0.6357
  140MOL0     O18356   0.199  10.450   9.059 -0.5022  0.8911 -0.0660
  140MOL0     C18357   0.066  10.464   9.113 -0.5534  1.2217  0.1453
  140MOL0     C18358  -0.008  10.328   9.128  0.3187  0.6623 -0.4035
  140MOL0     C18359  -0.005  10.275   9.269  0.0117  0.0177 -0.2639
  140MOL0     C18360  -0.078  10.143   9.280  0.0955 -0.2578  0.5612
  140MOL0     C18361  -0.094  10.077   9.417  0.4386  0.4884  0.1985
  140MOL0     C18362  -0.185   9.953   9.406 -0.5782 -0.0090 -0.1935
  140MOL0     C18363  -0.175   9.867   9.535  0.4818  0.2665  0.3614
  140MOL0     C18364  -0.209   9.723   9.507  1.0282  0.0464  0.1941
  140MOL0     N18365  -0.218   9.638   9.625 -0.1266 -0.1155 -0.0874
  140MOL0     C18366  -0.322   9.620   9.710 -0.3145  0.2231 -0.7349
  140MOL0     C18367  -0.266   9.552   9.818 -0.0247  0.0605 -1.1998
  140MOL0     C18368  -0.342   9.507   9.943  0.4341 -1.0749 -0.2933
  140MOL0     C18369  -0.347   9.353   9.940 -0.5824  0.4228  0.2831
  140MOL0     C18370  -0.385   9.291  10.073  0.4569  0.1835  0.5042
  140MOL0     C18371  -0.521   9.337  10.125  0.5335 -0.1971  0.9174
  140MOL0     O18372  -0.556   9.278  10.252  0.1332 -0.1196  0.3558
  140MOL0     C18373  -0.671   9.301  10.319  0.4072  0.8095 -0.8142
  140MOL0     C18374  -0.777   9.390  10.289  0.5321  0.1411 -0.0426
  140MOL0     C18375  -0.891   9.394  10.371  0.7106  0.4397  0.9569
  140MOL0     C18376  -0.914   9.298  10.473  0.9060  0.4538 -0.1578
  140MOL0     C18377  -1.053   9.285  10.534  0.6757  0.8470 -0.2498
  140MOL0     O18378  -1.080   9.174  10.611 -1.0843  0.4439 -0.6055
  140MOL0     C18379  -1.208   9.138  10.645  0.1481 -0.4775  0.3409
  140MOL0     C18380  -1.328   9.170  10.586  0.0324 -0.0463  0.2166
  140MOL0     C18381  -1.446   9.102  10.611  0.4333  0.6196 -0.0014
  140MOL0     C18382  -1.454   9.010  10.711  0.1301  0.2825 -0.4304
  140MOL0     O18383  -1.565   8.944  10.747 -0.2891  0.1053  0.5141
  140MOL0     C18384  -1.694   9.001  10.741  1.0585 -0.6044 -0.1753
  140MOL0     C18385  -1.791   8.918  10.819 -0.0373 -0.2361 -1.1223
  140MOL0     C18386  -1.937   8.940  10.792  0.8110  0.1693  1.0107
  140MOL0     C18387  -2.033   8.875  10.899 -0.4133  1.0128  0.0807
  140MOL0     C18388  -2.179   8.919  10.869  0.5862  0.5348 -0.5695
  140MOL0     C18389  -2.281   8.839  10.952 -0.9559 -1.1763  0.1760
  140MOL0     C18390  -2.422   8.902  10.937  0.0513 -0.0373  0.3773
  140MOL0     C18391  -2.524   8.831  11.024  0.2951  0.3797  1.0463
  140MOL0    Cl18392  -2.516   8.871  11.197  0.4454  0.0015  0.1549
  140MOL0     C18393  -1.335   8.982  10.780  0.0140 -0.1755  0.1006
  140MOL0     C18394  -1.213   9.044  10.750  0.2938 -0.7155  0.8591
  140MOL0     O18395  -1.133   9.379  10.523  0.3713 -0.4496 -0.0368
  140MOL0     C18396  -0.811   9.210  10.508 -0.3942 -0.0112 -0.1712
  140MOL0     C18397  -0.689   9.215  10.435  0.9927 -0.2689  0.5068
  140MOL0     N18398  -0.134   9.526   9.795 -0.3909  0.1994 -0.5903
  140MOL0     N18399  -0.109   9.574   9.677  0.3079  0.6327  0.1103
  140MOL0     C18400   0.217  10.701   9.048 -0.5328 -0.4215 -0.2939
  140MOL0     C18401   0.290  10.816   9.014  0.7823 -0.8004 -0.1906
  140MOL0     C18402   0.696  10.994   8.817 -0.5168  0.8160  0.1667
  140MOL0     C18403   0.745  11.021   8.949  0.3493  0.0350  0.1274
  140MOL0     C18404   0.875  11.073   8.966  0.6689  0.3341 -0.4829
  140MOL0     C18405   0.967  11.086   8.859  0.4961 -0.7517  0.5366
  140MOL0     O18406   1.099  11.112   8.885  0.5756  0.3156 -0.2133
  140MOL0     C18407   1.193  11.107   8.775  0.0590  0.0594 -0.3979
  140MOL0     C18408   1.336  11.079   8.833  0.7685  0.0050 -0.1308
  140MOL0     C18409   1.436  11.180   8.769 -0.2113  0.1857 -0.4586
  140MOL0     C18410   1.576  11.172   8.829  0.0634 -0.9945  0.3919
  140MOL0     C18411   1.619  11.030   8.838  0.1192 -0.6404 -0.1758
  140MOL0     C18412   1.665  10.914   8.852 -0.6609  0.4851 -0.1992
  140MOL0     C18413   0.911  11.060   8.727  0.2817  0.0809 -0.5678
  140MOL0     C18414   0.777  11.015   8.710 -0.3897  0.4186  0.6022
  140MOL0     H18415   0.561  10.647   8.902  1.3200 -2.7781  0.6249
  140MOL0     H18416   0.426  10.460   8.932  0.7548  0.2503  0.7799
  140MOL0     H18417   0.021  10.521   9.031  1.3786  0.3736 -1.5970
  140MOL0     H18418   0.068  10.516   9.209  0.6868 -1.4826  1.6807
  140MOL0     H18419   0.023  10.255   9.052  0.9725  0.6016 -0.0888
  140MOL0     H18420  -0.113  10.341   9.103 -0.5010 -2.2679  1.1721
  140MOL0     H18421  -0.053  10.342   9.340 -0.3225 -1.9689  1.4782
  140MOL0     H18422   0.098  10.257   9.299  1.2985  2.9297 -2.4384
  140MOL0     H18423  -0.176  10.147   9.231 -0.6355  1.1455  2.0368
  140MOL0     H18424  -0.015  10.071   9.228  2.3232 -0.7409  3.6756
  140MOL0     H18425  -0.141  10.139   9.493 -3.5690 -0.2499 -1.4700
  140MOL0     H18426   0.005  10.049   9.456 -0.3759 -1.2977  1.1217
  140MOL0     H18427  -0.168   9.895   9.315 -1.6742  0.8565 -0.9818
  140MOL0     H18428  -0.288   9.988   9.399 -0.3646  0.3359 -3.3133
  140MOL0     H18429  -0.070   9.864   9.566  0.6208 -0.1218 -0.1363
  140MOL0     H18430  -0.234   9.912   9.615  0.0671 -1.8743  1.3174
  140MOL0     H18431  -0.134   9.680   9.441  2.5997 -0.4241  2.1712
  140MOL0     H18432  -0.301   9.726   9.449  0.6496  1.5045  0.8002
  140MOL0     H18433  -0.425   9.643   9.685 -0.6220 -2.2926 -2.0874
  140MOL0     H18434  -0.445   9.541   9.933  1.6589  2.6882 -1.5660
  140MOL0     H18435  -0.288   9.562  10.020 -0.2714 -1.5099  0.5421
  140MOL0     H18436  -0.247   9.313   9.920 -1.4006 -3.2489  2.6878
  140MOL0     H18437  -0.412   9.317   9.860  0.6132 -2.2067  0.3945
  140MOL0     H18438  -0.406   9.185  10.052 -1.1868  0.3266  1.2431
  140MOL0     H18439  -0.311   9.303  10.152 -0.8358  1.3077  1.6017
  140MOL0     H18440  -0.606   9.316  10.059  1.8663  1.0537 -1.3638
  140MOL0     H18441  -0.519   9.446  10.135  1.2101  0.0656 -1.4475
  140MOL0     H18442  -0.775   9.464  10.209 -1.6628  0.6751  0.3403
  140MOL0     H18443  -0.972   9.455  10.331  0.8977 -1.0744 -1.9731
  140MOL0     H18444  -1.326   9.246  10.507 -0.4592 -1.1533 -0.8955
  140MOL0     H18445  -1.535   9.134  10.556  0.9805 -0.3051 -1.4822
  140MOL0     H18446  -1.729   9.005  10.637 -0.6762  0.8395  0.4207
  140MOL0     H18447  -1.695   9.108  10.765 -0.5991 -0.1006 -2.2174
  140MOL0     H18448  -1.764   8.935  10.924  0.3273  1.5366 -1.4721
  140MOL0     H18449  -1.771   8.814  10.791 -1.0061 -0.4850 -0.9347
  140MOL0     H18450  -1.956   8.903  10.691  0.9072 -0.1499  1.1055
  140MOL0     H18451  -1.953   9.048  10.792 -2.9851 -0.2495  0.3019
  140MOL0     H18452  -2.018   8.767  10.887 -1.0329  1.0047 -0.6753
  140MOL0     H18453  -2.017   8.893  11.005 -0.7791 -0.8283  0.4802
  140MOL0     H18454  -2.198   8.899  10.763 -0.3967  1.6569 -0.6322
  140MOL0     H18455  -2.180   9.027  10.889  2.9665  0.5013 -0.0136
  140MOL0     H18456  -2.248   8.830  11.056  0.5523 -0.9912 -0.2642
  140MOL0     H18457  -2.285   8.737  10.911  0.6751 -0.3274 -2.2747
  140MOL0     H18458  -2.417   9.007  10.967 -3.0849  0.0508  1.0027
  140MOL0     H18459  -2.463   8.896  10.835 -1.7153 -1.1248  1.1008
  140MOL0     H18460  -2.503   8.724  11.033 -0.3157  0.1965  0.4625
  140MOL0     H18461  -2.624   8.840  10.980  0.8520 -0.8048 -0.5718
  140MOL0     H18462  -1.342   8.922  10.870  1.1841 -0.4735 -0.0027
  140MOL0     H18463  -1.123   9.016  10.803  1.2500  1.4234  0.4607
  140MOL0     H18464  -0.829   9.133  10.583 -1.7099  0.2817 -0.1592
  140MOL0     H18465  -0.605   9.150  10.459 -0.6126 -2.2626  1.0517
  140MOL0     H18466   0.119  10.717   9.093 -0.6843 -0.3107 -0.6619
  140MOL0     H18467   0.243  10.913   9.026 -0.7936 -1.6297  0.6250
  140MOL0     H18468   0.680  11.006   9.035  3.5273  1.6640  3.0382
  140MOL0     H18469   0.915  11.095   9.064  2.7737  3.2487 -1.8347
  140MOL0     H18470   1.193  11.205   8.726 -2.5127  1.2807  1.7478
  140MOL0     H18471   1.179  11.027   8.703 -1.2412  0.0686 -0.1705
  140MOL0     H18472   1.334  11.086   8.942 -1.1545  0.9541 -0.1939
  140MOL0     H18473   1.366  10.975   8.816  1.8921 -0.1189  2.2436
  140MOL0     H18474   1.393  11.277   8.797  0.0529  0.7531 -1.9301
  140MOL0     H18475   1.450  11.174   8.661  1.1961 -0.0175 -0.2907
  140MOL0     H18476   1.647  11.231   8.770  0.4393 -3.6630 -2.0983
  140MOL0     H18477   1.572  11.208   8.932  1.4315 -1.1620  0.5333
  140MOL0     H18478   1.698  10.813   8.863  1.3770  1.1525  0.2257
  140MOL0     H18479   0.983  11.080   8.649  0.6932  0.7188 -0.0340
  140MOL0     H18480   0.751  10.994   8.607  1.2150 -1.2949  0.4791
  141MOL0     O18481   5.614   5.767   4.192 -0.0175  0.6536  0.1872
  141MOL0     C18482   5.640   5.720   4.075  0.4665 -0.4027 -0.1868
  141MOL0     O18483   5.564   5.638   3.995  1.3599 -0.2032 -0.5970
  141MOL0     C18484   5.444   5.589   4.040  0.5697 -0.2052  0.8682
  141MOL0     C18485   5.408   5.472   3.968 -0.0911  0.1680  1.0617
  141MOL0     C18486   5.285   5.410   3.976 -0.1833 -0.2687 -0.9537
  141MOL0     C18487   5.189   5.457   4.067 -0.0811  0.4010  0.0953
  141MOL0     O18488   5.062   5.407   4.069 -0.0738  0.5671 -0.2382
  141MOL0     C18489   5.035   5.290   3.983  0.1706  0.4734  0.3937
  141MOL0     C18490   4.891   5.235   3.985 -0.4413  0.5129  0.4500
  141MOL0     C18491   4.856   5.196   4.129  0.8663 -0.5785 -0.3339
  141MOL0     C18492   4.733   5.106   4.117  0.5464  0.0341 -0.4553
  141MOL0     C18493   4.688   5.083   4.259  0.9072 -0.0821 -0.4029
  141MOL0     C18494   4.599   4.964   4.276 -0.4525 -0.7427  0.3720
  141MOL0     C18495   4.463   4.986   4.214 -0.1752 -0.5848  0.0415
  141MOL0     C18496   4.362   4.888   4.248  0.2590  0.8578 -0.5484
  141MOL0     N18497   4.231   4.935   4.210 -0.7204  0.7187 -0.0221
  141MOL0     C18498   4.123   4.931   4.291  1.2904 -0.1147  0.3071
  141MOL0     C18499   4.028   4.996   4.213  0.2351 -0.4262 -0.1501
  141MOL0     C18500   3.884   5.027   4.244  0.3382  0.4217 -0.9624
  141MOL0     C18501   3.778   4.921   4.200 -0.5376  1.1516 -0.0157
  141MOL0     C18502   3.628   4.958   4.226  0.8544  0.2136 -0.6804
  141MOL0     C18503   3.557   4.884   4.340 -0.1529 -0.4480  0.8176
  141MOL0     O18504   3.415   4.913   4.350 -0.2925 -0.4278  0.5017
  141MOL0     C18505   3.336   4.834   4.431 -0.7262  0.7685  0.2911
  141MOL0     C18506   3.201   4.848   4.419 -1.0285  0.3785  0.7620
  141MOL0     C18507   3.113   4.769   4.498 -0.4631 -1.0864  0.3277
  141MOL0     C18508   3.157   4.675   4.599 -1.1584 -0.4168  0.3643
  141MOL0     C18509   3.070   4.593   4.667 -0.1328 -0.2614 -1.2305
  141MOL0     O18510   2.945   4.597   4.624 -0.4590 -1.1528 -0.2792
  141MOL0     C18511   2.852   4.509   4.675 -0.3776 -0.0375  0.0794
  141MOL0     C18512   2.886   4.375   4.702  0.5333  0.0736 -0.1997
  141MOL0     C18513   2.782   4.283   4.730  0.1669 -0.0043  0.2429
  141MOL0     C18514   2.653   4.322   4.747 -0.4429 -0.1920  0.3562
  141MOL0     O18515   2.556   4.236   4.793  0.4172  0.3695 -0.2027
  141MOL0     C18516   2.596   4.119   4.875  0.5538  0.1664  1.1597
  141MOL0     C18517   2.503   4.067   4.979 -0.0209 -0.1580  0.4299
  141MOL0     C18518   2.479   4.174   5.076 -0.4607 -0.7718  0.4946
  141MOL0     C18519   2.374   4.124   5.171  0.6258 -0.3190  1.2386
  141MOL0     C18520   2.318   4.238   5.254 -0.3458  0.4780  0.6074
  141MOL0     C18521   2.230   4.183   5.368 -0.2761  0.2478  0.0104
  141MOL0     C18522   2.200   4.284   5.476 -0.3761  0.4746 -0.2843
  141MOL0     C18523   2.091   4.230   5.576 -0.2743  0.1276 -0.5790
  141MOL0    Cl18524   1.936   4.212   5.507  1.0364  0.0499  0.5191
  141MOL0     C18525   2.618   4.447   4.708 -0.3097  0.0251 -0.4689
  141MOL0     C18526   2.717   4.538   4.678 -0.4525  0.0588  0.1876
  141MOL0     O18527   3.106   4.542   4.774 -0.2454  0.9751 -0.3907
  141MOL0     C18528   3.297   4.666   4.601 -0.9240  0.1387  0.4060
  141MOL0     C18529   3.389   4.741   4.521  0.0698 -0.1811 -0.0152
  141MOL0     N18530   4.079   5.038   4.092 -0.3968  0.4767 -0.2293
  141MOL0     N18531   4.203   5.004   4.093 -0.3561  0.0288  0.3462
  141MOL0     C18532   5.214   5.574   4.138 -0.0328  0.1461  0.6645
  141MOL0     C18533   5.340   5.640   4.124  0.1977  0.5891 -0.1759
  141MOL0     C18534   5.761   5.766   4.008  0.2724  0.3332  0.4617
  141MOL0     C18535   5.868   5.804   4.090 -0.2416  0.5515  0.0730
  141MOL0     C18536   5.981   5.871   4.037 -0.2311  0.1658  0.1823
  141MOL0     C18537   5.987   5.897   3.897 -1.4137 -0.5410  0.3630
  141MOL0     O18538   6.097   5.961   3.830  1.3601 -0.1793 -0.2037
  141MOL0     C18539   6.223   5.973   3.907 -0.5832 -0.1137  0.0879
  141MOL0     C18540   6.328   6.012   3.807 -0.9734 -0.1670 -0.3354
  141MOL0     C18541   6.385   6.156   3.829  0.7906  0.7233 -0.5843
  141MOL0     C18542   6.458   6.176   3.956  0.6657  0.1488 -0.4919
  141MOL0     C18543   6.594   6.146   3.942 -0.5699  0.1806  0.1242
  141MOL0     C18544   6.710   6.112   3.917  0.6433  0.1127 -0.3694
  141MOL0     C18545   5.882   5.853   3.816 -0.3886 -0.5510  0.2766
  141MOL0     C18546   5.766   5.789   3.868  1.0860 -0.6496 -0.1788
  141MOL0     H18547   5.472   5.418   3.900 -1.5998 -1.4563  0.8588
  141MOL0     H18548   5.261   5.329   3.908  1.5674  0.7912 -2.9500
  141MOL0     H18549   5.096   5.204   4.013 -0.5441  0.0507  0.6597
  141MOL0     H18550   5.058   5.318   3.880 -1.5428 -0.8301 -0.3951
  141MOL0     H18551   4.893   5.153   3.913 -1.4564  2.2083 -1.6253
  141MOL0     H18552   4.816   5.309   3.954 -1.6876 -0.2864  1.4249
  141MOL0     H18553   4.826   5.289   4.179 -1.3264 -2.1880  1.5851
  141MOL0     H18554   4.941   5.138   4.165 -0.4410 -2.1042  0.4609
  141MOL0     H18555   4.647   5.148   4.065 -2.2140 -0.7838  3.0457
  141MOL0     H18556   4.764   5.010   4.076  0.3928 -0.7476  1.1703
  141MOL0     H18557   4.635   5.172   4.292 -0.7337 -2.3176  3.7032
  141MOL0     H18558   4.774   5.066   4.324  0.1989 -1.1497  0.2962
  141MOL0     H18559   4.583   4.938   4.381 -1.0536  2.0591  1.0569
  141MOL0     H18560   4.648   4.879   4.226 -0.1193 -2.2948  3.1228
  141MOL0     H18561   4.434   5.089   4.237  2.2666 -0.2059  1.8203
  141MOL0     H18562   4.479   4.983   4.106  2.6815  1.1896  0.2900
  141MOL0     H18563   4.375   4.882   4.356  0.8416  0.0790 -0.6535
  141MOL0     H18564   4.380   4.794   4.196 -0.4729  0.9327 -0.9568
  141MOL0     H18565   4.122   4.888   4.390 -0.7634  2.0242  1.3085
  141MOL0     H18566   3.867   5.122   4.194 -0.2784 -0.5407 -2.6662
  141MOL0     H18567   3.871   5.043   4.351 -0.0638 -2.1741 -0.5412
  141MOL0     H18568   3.802   4.829   4.254  2.8494  1.7538 -0.2267
  141MOL0     H18569   3.794   4.892   4.095  1.8655 -1.1557  0.8718
  141MOL0     H18570   3.630   5.066   4.246  3.2986 -0.0442  0.8200
  141MOL0     H18571   3.568   4.941   4.136 -0.0459  0.5379 -0.1635
  141MOL0     H18572   3.590   4.905   4.443 -0.3057  2.2570  0.3917
  141MOL0     H18573   3.564   4.778   4.314 -4.3151 -0.4592 -1.0606
  141MOL0     H18574   3.168   4.921   4.346  1.1118  1.0795  0.4329
  141MOL0     H18575   3.007   4.777   4.479  0.1487 -2.2287 -4.9569
  141MOL0     H18576   2.986   4.335   4.692  1.6206  2.3929  0.8482
  141MOL0     H18577   2.806   4.180   4.758 -1.5794 -0.1682  1.3145
  141MOL0     H18578   2.691   4.144   4.923  1.1338  1.5979 -0.6101
  141MOL0     H18579   2.614   4.035   4.806  0.5020  2.2431 -1.5429
  141MOL0     H18580   2.553   3.985   5.031  0.0733 -1.2477 -1.2913
  141MOL0     H18581   2.409   4.032   4.934 -0.9612  0.2050  2.0350
  141MOL0     H18582   2.440   4.271   5.044 -0.6010 -0.4708  1.5519
  141MOL0     H18583   2.568   4.189   5.138 -0.4104 -1.4840  0.6010
  141MOL0     H18584   2.294   4.073   5.116  1.1242  1.1324 -0.9861
  141MOL0     H18585   2.419   4.050   5.237  1.5906  0.6773  1.7143
  141MOL0     H18586   2.257   4.305   5.193 -1.3781 -2.1472 -1.4280
  141MOL0     H18587   2.404   4.294   5.292  1.3808 -0.5521 -1.5745
  141MOL0     H18588   2.283   4.098   5.413  1.3870 -0.3207 -2.7827
  141MOL0     H18589   2.141   4.136   5.325  0.9923 -1.6708 -0.6493
  141MOL0     H18590   2.293   4.306   5.530 -0.9502 -1.7971  1.8001
  141MOL0     H18591   2.173   4.381   5.433 -0.5988  1.5481  2.0705
  141MOL0     H18592   2.092   4.289   5.668  2.9188  0.8460 -0.9882
  141MOL0     H18593   2.120   4.135   5.622 -0.6515 -0.0481 -0.7009
  141MOL0     H18594   2.513   4.475   4.708 -0.4187 -0.3635 -1.3684
  141MOL0     H18595   2.694   4.639   4.647  4.1683  1.4925  0.7288
  141MOL0     H18596   3.348   4.598   4.669 -0.1734 -0.3517 -0.6164
  141MOL0     H18597   3.497   4.727   4.525 -0.0691 -1.4701 -0.1955
  141MOL0     H18598   5.133   5.623   4.192 -1.2984 -0.1005 -0.9352
  141MOL0     H18599   5.368   5.729   4.180  2.1695  0.1828 -0.4389
  141MOL0     H18600   5.873   5.782   4.196 -1.4936  0.2171  0.0716
  141MOL0     H18601   6.055   5.906   4.108  0.0658 -0.9178  0.4208
  141MOL0     H18602   6.251   5.875   3.946  3.1420  0.1604 -1.4275
  141MOL0     H18603   6.206   6.053   3.980 -2.3650  0.6271 -1.0663
  141MOL0     H18604   6.415   5.947   3.812 -1.4073 -0.8320 -1.1738
  141MOL0     H18605   6.293   6.015   3.704 -2.5005  0.4488  0.1665
  141MOL0     H18606   6.295   6.219   3.823  0.7299  0.7869  0.7022
  141MOL0     H18607   6.444   6.193   3.745 -0.1195  2.0115 -0.6932
  141MOL0     H18608   6.446   6.280   3.989 -0.8743 -0.6898  1.9365
  141MOL0     H18609   6.430   6.114   4.042 -2.3256  2.7277  0.6303
  141MOL0     H18610   6.807   6.077   3.888  1.4460 -0.2044  2.4147
  141MOL0     H18611   5.888   5.869   3.709  0.7745 -0.9288  0.2804
  141MOL0     H18612   5.675   5.763   3.816  0.2350 -1.7472  1.7492
  142MOL0     O18613   7.669   3.799   5.025  0.1652 -0.1724  0.3763
  142MOL0     C18614   7.708   3.872   5.114 -0.3285 -0.1818  0.0032
  142MOL0     O18615   7.639   3.966   5.180  0.0012 -0.2027  0.3844
  142MOL0     C18616   7.505   3.978   5.176  0.4974 -0.1415 -1.1840
  142MOL0     C18617   7.418   3.935   5.077 -0.0226  0.5361  0.0884
  142MOL0     C18618   7.279   3.972   5.082 -0.2035  0.6373 -0.6308
  142MOL0     C18619   7.226   4.051   5.179  0.3865 -0.4482 -0.1752
  142MOL0     O18620   7.097   4.096   5.183 -0.5607 -0.3723 -0.3639
  142MOL0     C18621   7.011   4.093   5.075 -0.6590  0.4600 -0.8636
  142MOL0     C18622   6.886   4.172   5.112 -0.1909 -0.2203 -0.0559
  142MOL0     C18623   6.767   4.118   5.025  0.7363 -0.3704 -0.5971
  142MOL0     C18624   6.649   4.219   5.037 -0.4096 -0.3335  0.4323
  142MOL0     C18625   6.513   4.150   5.009 -0.8187 -0.5679 -0.6019
  142MOL0     C18626   6.403   4.260   4.980  0.0236 -0.3676 -0.0667
  142MOL0     C18627   6.266   4.197   4.973  0.4275 -0.3177 -0.3379
  142MOL0     C18628   6.229   4.158   4.828  0.1189  0.3004 -0.6634
  142MOL0     N18629   6.074   4.139   4.829 -0.4608 -0.3776 -0.1883
  142MOL0     C18630   6.003   4.037   4.888 -0.1920 -0.5737  0.2260
  142MOL0     C18631   5.873   4.076   4.891  0.5308 -0.3340  0.6007
  142MOL0     C18632   5.764   3.992   4.944 -0.1062  0.3200  0.6492
  142MOL0     C18633   5.631   4.064   4.962  0.0757 -0.2425 -0.1240
  142MOL0     C18634   5.543   3.973   5.053 -0.0110  0.0861 -0.1650
  142MOL0     C18635   5.398   4.020   5.044  0.4232 -0.0058 -0.0324
  142MOL0     O18636   5.388   4.151   5.114 -0.5152  0.1747 -0.0577
  142MOL0     C18637   5.266   4.207   5.136  0.7199 -0.9174 -0.2677
  142MOL0     C18638   5.153   4.172   5.055  0.2403 -0.0514 -0.7201
  142MOL0     C18639   5.027   4.215   5.083  0.9331 -0.1675 -0.1979
  142MOL0     C18640   5.002   4.298   5.190 -0.5542 -0.1896 -0.0404
  142MOL0     C18641   4.868   4.343   5.218  0.2695  0.4990 -0.5277
  142MOL0     O18642   4.765   4.309   5.126  0.1035 -0.3016 -0.4509
  142MOL0     C18643   4.632   4.288   5.159  0.0262  0.0031 -0.7961
  142MOL0     C18644   4.560   4.383   5.230 -0.2917  0.0619 -0.5049
  142MOL0     C18645   4.416   4.370   5.246 -0.1127 -0.8562  0.2856
  142MOL0     C18646   4.343   4.262   5.184 -0.4745  0.3185  0.4612
  142MOL0     O18647   4.207   4.246   5.173  0.3143  0.4052 -0.2595
  142MOL0     C18648   4.129   4.344   5.238  0.1272 -0.5619  0.8719
  142MOL0     C18649   3.988   4.311   5.213  1.1280 -0.3481  0.8996
  142MOL0     C18650   3.901   4.303   5.342 -0.2529 -0.1141 -0.6441
  142MOL0     C18651   3.757   4.274   5.304  0.3646  0.0694 -0.2793
  142MOL0     C18652   3.675   4.264   5.429  1.0676  0.0381  0.7294
  142MOL0     C18653   3.531   4.272   5.385  0.3715 -0.2017 -0.7055
  142MOL0     C18654   3.445   4.230   5.503  0.1206  0.5361  0.1852
  142MOL0     C18655   3.303   4.288   5.499 -1.1913 -0.0657 -0.1133
  142MOL0    Cl18656   3.233   4.254   5.340 -0.4917 -0.4466 -0.4375
  142MOL0     C18657   4.418   4.178   5.103 -0.2559 -0.2113 -0.1337
  142MOL0     C18658   4.561   4.190   5.095 -0.5786  0.0841 -0.4221
  142MOL0     O18659   4.854   4.402   5.325  0.1168 -0.6110  0.0357
  142MOL0     C18660   5.114   4.346   5.271  0.9093 -0.1376  0.5286
  142MOL0     C18661   5.242   4.292   5.244 -0.1099 -0.1389 -0.2931
  142MOL0     N18662   5.864   4.196   4.815  0.5272 -0.0920 -0.7131
  142MOL0     N18663   5.986   4.229   4.777 -0.4476 -0.1791  0.0334
  142MOL0     C18664   7.311   4.109   5.266  0.7387  0.6329  0.2172
  142MOL0     C18665   7.451   4.076   5.264 -0.3107 -0.0793 -0.2776
  142MOL0     C18666   7.853   3.870   5.150 -0.7112  0.1035 -0.4951
  142MOL0     C18667   7.903   3.946   5.250 -0.6651 -0.1304 -0.0252
  142MOL0     C18668   8.032   3.946   5.287 -0.4790  0.5250 -0.0629
  142MOL0     C18669   8.123   3.853   5.237  0.5732 -0.2091  0.3624
  142MOL0     O18670   8.252   3.857   5.286  0.7514 -0.0911 -0.4524
  142MOL0     C18671   8.366   3.824   5.210 -1.4542  0.5138 -0.2165
  142MOL0     C18672   8.447   3.953   5.169  0.1339 -0.3922 -0.2112
  142MOL0     C18673   8.493   4.037   5.291  0.2427  0.1977  0.1821
  142MOL0     C18674   8.622   3.984   5.356  0.2497  0.0127  0.2550
  142MOL0     C18675   8.738   4.039   5.277 -0.2736 -0.4983 -0.5635
  142MOL0     C18676   8.837   4.083   5.229  0.0629 -0.4980  0.3235
  142MOL0     C18677   8.083   3.770   5.135  0.8589 -0.3175 -0.0886
  142MOL0     C18678   7.947   3.780   5.083  0.1694  0.6219 -0.2035
  142MOL0     H18679   7.447   3.863   5.001  1.1096  0.4341  0.6118
  142MOL0     H18680   7.200   3.939   5.015 -0.6989  1.5313 -0.5108
  142MOL0     H18681   6.992   3.987   5.057 -0.8828  0.1424  0.9788
  142MOL0     H18682   7.058   4.139   4.988 -1.7048  0.8534 -1.2377
  142MOL0     H18683   6.904   4.275   5.081  3.8007 -0.1394  1.8256
  142MOL0     H18684   6.857   4.170   5.218 -1.1349  1.6250 -0.2519
  142MOL0     H18685   6.739   4.020   5.063  1.3995 -0.6805 -0.8854
  142MOL0     H18686   6.796   4.120   4.919  0.2562  1.3952 -0.7321
  142MOL0     H18687   6.642   4.262   5.137  0.0351 -1.6038  1.0255
  142MOL0     H18688   6.668   4.297   4.962  0.6985  0.8421  1.8736
  142MOL0     H18689   6.496   4.090   5.099  2.5544 -0.0989  0.4829
  142MOL0     H18690   6.519   4.082   4.923  1.3958 -0.0751 -0.8884
  142MOL0     H18691   6.429   4.328   4.899 -0.2745  2.0801  1.8020
  142MOL0     H18692   6.401   4.329   5.064 -1.4440  1.0169 -1.1796
  142MOL0     H18693   6.258   4.116   5.046 -1.9622  0.2075  0.0822
  142MOL0     H18694   6.200   4.280   5.000  0.6038 -0.1936 -0.2804
  142MOL0     H18695   6.278   4.063   4.807 -1.5939 -0.4596 -1.3869
  142MOL0     H18696   6.263   4.230   4.752 -0.7838  2.4543  0.8787
  142MOL0     H18697   6.049   3.945   4.920  0.5571  0.0678  1.0293
  142MOL0     H18698   5.799   3.950   5.039 -1.8443 -0.0017  1.1743
  142MOL0     H18699   5.749   3.911   4.872 -2.2121  0.3762  0.9587
  142MOL0     H18700   5.580   4.080   4.867 -0.7234 -1.2758  0.1113
  142MOL0     H18701   5.641   4.159   5.015 -1.3530 -0.4499  0.5688
  142MOL0     H18702   5.541   3.870   5.016  3.5823 -0.0297 -0.3627
  142MOL0     H18703   5.573   3.963   5.158  2.3445  1.0695 -0.6825
  142MOL0     H18704   5.336   3.939   5.084 -2.8124  1.5595 -1.4968
  142MOL0     H18705   5.372   4.035   4.939  1.2694  0.1601 -0.2263
  142MOL0     H18706   5.162   4.112   4.965 -1.5749 -1.0358 -0.2905
  142MOL0     H18707   4.946   4.177   5.021  0.2193 -0.4793  0.8856
  142MOL0     H18708   4.612   4.465   5.279  0.9363  0.4832 -2.3934
  142MOL0     H18709   4.362   4.453   5.291  1.4559 -0.5694  1.7379
  142MOL0     H18710   4.144   4.442   5.192 -3.7676 -0.0254  0.4692
  142MOL0     H18711   4.153   4.358   5.344 -2.2824  0.9444  1.2926
  142MOL0     H18712   3.971   4.221   5.153  0.8706 -0.0178  0.4650
  142MOL0     H18713   3.944   4.396   5.159 -1.4580 -1.3230  1.3520
  142MOL0     H18714   3.913   4.398   5.394  1.1394  0.1817 -1.4297
  142MOL0     H18715   3.938   4.222   5.406 -1.0496 -2.0846 -2.5256
  142MOL0     H18716   3.723   4.349   5.231  2.0136  0.5678 -0.5705
  142MOL0     H18717   3.749   4.177   5.255 -0.4039 -1.4756  2.6951
  142MOL0     H18718   3.696   4.351   5.492  0.2391 -0.4574  1.7201
  142MOL0     H18719   3.698   4.166   5.473  1.8374 -0.3590 -0.4987
  142MOL0     H18720   3.526   4.195   5.307 -2.5302 -2.0187  1.0751
  142MOL0     H18721   3.512   4.370   5.340  2.1538  0.4816 -0.0475
  142MOL0     H18722   3.425   4.123   5.490 -0.1980  0.6946 -0.6724
  142MOL0     H18723   3.507   4.238   5.593 -1.9458 -4.3310  2.4421
  142MOL0     H18724   3.292   4.395   5.517 -3.1880 -0.5604  2.1894
  142MOL0     H18725   3.240   4.240   5.575 -1.4258  0.1960 -0.1411
  142MOL0     H18726   4.371   4.098   5.047 -0.0964 -1.1665  1.0400
  142MOL0     H18727   4.597   4.121   5.020 -2.2488  0.7302 -1.8946
  142MOL0     H18728   5.089   4.429   5.336  0.6566  0.2933 -0.1065
  142MOL0     H18729   5.321   4.317   5.315 -1.4267  0.2929  1.0904
  142MOL0     H18730   7.272   4.187   5.331 -2.0069  0.0117 -0.5856
  142MOL0     H18731   7.522   4.117   5.335 -0.1841 -1.3988  0.3940
  142MOL0     H18732   7.838   4.015   5.304  0.9025  0.9181  0.5773
  142MOL0     H18733   8.062   4.004   5.374  1.2158 -1.9759  1.1503
  142MOL0     H18734   8.337   3.762   5.124  0.6043 -1.4404  0.3903
  142MOL0     H18735   8.431   3.757   5.268 -0.6637  0.2336 -1.3880
  142MOL0     H18736   8.537   3.921   5.115  0.4854 -1.1486  0.7925
  142MOL0     H18737   8.383   4.010   5.101 -1.5322 -0.3511  1.3235
  142MOL0     H18738   8.415   4.044   5.367  0.8868  4.2610  0.7026
  142MOL0     H18739   8.511   4.138   5.253  4.0293 -0.5651 -0.4635
  142MOL0     H18740   8.623   4.016   5.461 -1.8168 -0.3025  0.4220
  142MOL0     H18741   8.611   3.876   5.360 -1.2449  0.1416  4.3604
  142MOL0     H18742   8.918   4.137   5.185 -0.8561 -0.7367 -1.8013
  142MOL0     H18743   8.137   3.687   5.090  0.2568 -0.9266  0.2930
  142MOL0     H18744   7.926   3.719   4.996  3.9977 -3.0172  1.0433
  143MOL0     O18745   2.114   6.104   9.700  0.3961 -0.1170 -0.1053
  143MOL0     C18746   2.161   6.085   9.593  0.3538 -0.6163 -1.4999
  143MOL0     O18747   2.092   6.058   9.485 -0.3548  0.1478  0.2451
  143MOL0     C18748   1.955   6.073   9.470 -0.4289  0.3450  0.0132
  143MOL0     C18749   1.876   6.135   9.562  0.4358  0.5466 -0.3493
  143MOL0     C18750   1.731   6.141   9.535 -0.6719  0.4208 -0.3664
  143MOL0     C18751   1.667   6.075   9.436 -0.3458  0.6831  0.5922
  143MOL0     O18752   1.527   6.073   9.438 -0.9367  0.3104 -0.1343
  143MOL0     C18753   1.455   6.039   9.322 -1.0677 -0.3051 -1.3849
  143MOL0     C18754   1.318   6.002   9.363  0.3837  0.1698 -0.0479
  143MOL0     C18755   1.216   5.996   9.241  1.3434  0.1918 -0.3438
  143MOL0     C18756   1.066   6.015   9.273  0.2972  0.7297  0.1993
  143MOL0     C18757   0.972   6.005   9.154 -0.4594  0.3471  0.3157
  143MOL0     C18758   1.003   6.123   9.063 -0.2400 -0.2967  0.3804
  143MOL0     C18759   0.874   6.137   8.974 -1.3141 -1.0709  0.5146
  143MOL0     C18760   0.881   6.032   8.864  0.5899  0.1350 -0.2888
  143MOL0     N18761   0.760   6.043   8.788 -0.0475 -0.1032 -0.1497
  143MOL0     C18762   0.743   6.098   8.661  0.3306  0.9529  0.0499
  143MOL0     C18763   0.607   6.102   8.646 -0.7264  0.3955 -0.4496
  143MOL0     C18764   0.533   6.140   8.529  0.4445  0.4138  0.3224
  143MOL0     C18765   0.391   6.173   8.557 -1.1114 -0.2625 -0.9198
  143MOL0     C18766   0.333   6.267   8.448 -1.1929  0.5995 -0.2262
  143MOL0     C18767   0.181   6.255   8.456 -0.3414 -0.2136  0.1585
  143MOL0     O18768   0.129   6.377   8.405 -0.2353 -0.0498 -0.3510
  143MOL0     C18769  -0.005   6.393   8.382 -0.1734  0.1739 -0.5198
  143MOL0     C18770  -0.050   6.516   8.338 -0.4504  0.4983 -0.1177
  143MOL0     C18771  -0.186   6.542   8.311  0.0937  0.8198  0.4026
  143MOL0     C18772  -0.291   6.443   8.331  0.5878 -0.1231  0.0996
  143MOL0     C18773  -0.439   6.458   8.296  0.9092  0.0316 -0.5190
  143MOL0     O18774  -0.484   6.567   8.226 -0.1775  0.3559  0.6845
  143MOL0     C18775  -0.605   6.560   8.173  0.2298 -0.4363  0.5890
  143MOL0     C18776  -0.609   6.530   8.037 -0.6772 -0.4696  0.1662
  143MOL0     C18777  -0.729   6.541   7.975 -0.0827 -0.5683 -0.5777
  143MOL0     C18778  -0.855   6.574   8.035 -0.1164 -0.6639 -0.2777
  143MOL0     O18779  -0.979   6.564   7.972 -0.5450 -0.2256 -0.1733
  143MOL0     C18780  -0.982   6.471   7.859  0.4730  0.1627  0.3052
  143MOL0     C18781  -1.130   6.448   7.811 -0.0612 -0.6384  0.2038
  143MOL0     C18782  -1.199   6.575   7.782 -0.6219  0.2042  0.0250
  143MOL0     C18783  -1.342   6.567   7.721 -0.3447  0.4431  0.0708
  143MOL0     C18784  -1.398   6.705   7.668 -0.2117  0.5708  0.2008
  143MOL0     C18785  -1.470   6.790   7.771 -0.2087  0.2218 -0.3028
  143MOL0     C18786  -1.512   6.920   7.703  1.3038 -0.1054 -0.4550
  143MOL0     C18787  -1.589   7.020   7.788  0.4561  0.7822  0.6342
  143MOL0    Cl18788  -1.607   7.178   7.695  0.2395 -0.3593  0.1108
  143MOL0     C18789  -0.845   6.615   8.170  0.3705  0.9160 -0.3315
  143MOL0     C18790  -0.723   6.608   8.235 -0.1314 -0.1830 -0.2994
  143MOL0     O18791  -0.510   6.368   8.348 -0.6761  0.0357 -0.0905
  143MOL0     C18792  -0.246   6.317   8.378 -0.7068  0.7107 -0.1626
  143MOL0     C18793  -0.106   6.294   8.410 -0.7392  0.1363  0.0529
  143MOL0     N18794   0.550   6.045   8.752  0.2051 -0.3569 -0.0271
  143MOL0     N18795   0.638   6.005   8.832  0.8188 -0.8239  0.0094
  143MOL0     C18796   1.750   6.012   9.344 -0.4015  0.1413 -0.4084
  143MOL0     C18797   1.891   6.015   9.355 -0.8256 -1.2594 -0.7572
  143MOL0     C18798   2.310   6.117   9.582  0.4856 -0.4814  0.6776
  143MOL0     C18799   2.377   6.188   9.677 -0.4011  0.0075  0.0146
  143MOL0     C18800   2.510   6.220   9.647  0.3685 -1.0110 -0.1992
  143MOL0     C18801   2.579   6.186   9.534 -0.0628  0.6347  0.5661
  143MOL0     O18802   2.710   6.212   9.522  0.0383  0.0632 -1.0762
  143MOL0     C18803   2.743   6.279   9.401 -0.2608  0.3596 -0.2695
  143MOL0     C18804   2.882   6.224   9.346  0.3973 -0.4544 -0.0143
  143MOL0     C18805   2.883   6.078   9.316 -0.3592  0.2587  0.6447
  143MOL0     C18806   2.992   6.052   9.214 -0.0378  0.0187 -0.8770
  143MOL0     C18807   3.019   5.904   9.207 -0.2626 -0.4541  0.4009
  143MOL0     C18808   3.049   5.783   9.188 -0.0169 -0.3143 -0.1516
  143MOL0     C18809   2.510   6.096   9.438  0.1379 -0.3176  0.3220
  143MOL0     C18810   2.381   6.069   9.465  0.7309  0.8694  0.1783
  143MOL0     H18811   1.918   6.199   9.638  0.4791  4.9592 -3.7012
  143MOL0     H18812   1.664   6.196   9.601  0.1461  0.8761  0.0925
  143MOL0     H18813   1.508   5.957   9.272  0.1884  1.5882 -3.3372
  143MOL0     H18814   1.464   6.123   9.253  1.8054  0.8908  0.2526
  143MOL0     H18815   1.281   6.060   9.448  1.0561 -1.0592  1.1293
  143MOL0     H18816   1.330   5.902   9.406  2.5624  0.4359  0.0407
  143MOL0     H18817   1.235   5.904   9.186  3.1250  1.0911 -1.3510
  143MOL0     H18818   1.244   6.077   9.173  0.7753  0.1867 -0.5885
  143MOL0     H18819   1.039   5.928   9.334 -0.8862 -0.5627 -2.0465
  143MOL0     H18820   1.053   6.109   9.328  2.7145  1.8059 -0.9535
  143MOL0     H18821   0.870   6.012   9.193 -0.5762 -0.3801  0.1532
  143MOL0     H18822   0.997   5.913   9.100  1.4583  0.4357  0.9561
  143MOL0     H18823   1.090   6.109   8.998 -0.1668  0.4037  0.3271
  143MOL0     H18824   1.034   6.213   9.118  1.4864 -2.7826  3.9283
  143MOL0     H18825   0.785   6.135   9.037 -0.9391 -0.3159  1.0910
  143MOL0     H18826   0.870   6.237   8.929  2.0550  0.0888  2.4407
  143MOL0     H18827   0.890   5.935   8.914  1.3883  0.6455  0.5954
  143MOL0     H18828   0.967   6.042   8.797  1.1055  0.0868  0.3513
  143MOL0     H18829   0.808   6.145   8.588 -1.5911  2.2365 -0.9177
  143MOL0     H18830   0.537   6.062   8.453 -0.0763  1.9244 -1.3385
  143MOL0     H18831   0.583   6.226   8.483  1.7831 -1.5070 -2.0166
  143MOL0     H18832   0.377   6.214   8.658 -1.5521 -1.1882 -0.5943
  143MOL0     H18833   0.341   6.076   8.556  0.3474 -1.0935  1.1677
  143MOL0     H18834   0.375   6.368   8.459  0.8127 -0.1512 -0.5399
  143MOL0     H18835   0.370   6.247   8.347  0.7559 -1.0743  0.7545
  143MOL0     H18836   0.165   6.240   8.563 -0.0401 -1.8141  0.0074
  143MOL0     H18837   0.137   6.178   8.393 -4.4210  2.5050 -0.6725
  143MOL0     H18838   0.028   6.590   8.321  1.0816 -1.1614 -0.6978
  143MOL0     H18839  -0.207   6.637   8.263 -0.0500 -0.7183 -2.8024
  143MOL0     H18840  -0.524   6.498   7.977  0.2876 -0.0375  1.2716
  143MOL0     H18841  -0.740   6.502   7.874 -1.6424  0.1190 -0.6992
  143MOL0     H18842  -0.942   6.373   7.888 -0.2690 -1.0291 -2.4428
  143MOL0     H18843  -0.929   6.506   7.770 -2.2491 -0.8991 -1.8596
  143MOL0     H18844  -1.191   6.388   7.880 -0.4936 -0.8304 -0.3315
  143MOL0     H18845  -1.134   6.396   7.714 -0.9031 -0.1648 -0.0270
  143MOL0     H18846  -1.129   6.619   7.710  2.5198  1.1126  3.3238
  143MOL0     H18847  -1.194   6.632   7.876  0.8448  1.1507 -0.5777
  143MOL0     H18848  -1.332   6.508   7.629 -0.8226 -0.0994  0.3591
  143MOL0     H18849  -1.397   6.523   7.804  2.0244 -0.9461  0.9953
  143MOL0     H18850  -1.455   6.661   7.586  0.7885 -2.4835  0.9857
  143MOL0     H18851  -1.312   6.760   7.628  1.2060  0.6285  3.0465
  143MOL0     H18852  -1.395   6.808   7.849  3.1654 -2.7157 -2.5651
  143MOL0     H18853  -1.557   6.743   7.819 -0.1342  0.9086  0.5421
  143MOL0     H18854  -1.415   6.960   7.672  1.2396  1.8191  1.5792
  143MOL0     H18855  -1.583   6.895   7.624 -3.0192  2.7262  2.1205
  143MOL0     H18856  -1.543   7.028   7.887 -0.1324 -2.1117  1.2273
  143MOL0     H18857  -1.691   6.985   7.806  0.3831  1.3273  1.3301
  143MOL0     H18858  -0.939   6.643   8.215  0.6453  1.8881 -0.3347
  143MOL0     H18859  -0.709   6.636   8.339 -3.8560 -0.2140  0.3593
  143MOL0     H18860  -0.317   6.241   8.407  0.6923 -0.2471  0.9201
  143MOL0     H18861  -0.089   6.195   8.451 -0.4259  0.2996  0.3270
  143MOL0     H18862   1.713   5.942   9.271 -0.9436 -0.2324  0.2169
  143MOL0     H18863   1.963   5.974   9.286 -0.5429 -0.9080 -0.6781
  143MOL0     H18864   2.335   6.218   9.773  1.6324  1.0153  0.6469
  143MOL0     H18865   2.558   6.287   9.717  0.7935  1.3583 -2.5711
  143MOL0     H18866   2.750   6.385   9.430  5.7248  0.8625 -2.1391
  143MOL0     H18867   2.675   6.259   9.319 -0.4470 -0.1510  0.0089
  143MOL0     H18868   2.895   6.281   9.254 -0.2398  0.2121  0.3019
  143MOL0     H18869   2.962   6.249   9.416 -0.3958 -0.8721  1.0732
  143MOL0     H18870   2.786   6.047   9.275  0.8965 -2.4788 -0.5246
  143MOL0     H18871   2.916   6.018   9.402 -0.8963 -0.2970  0.4723
  143MOL0     H18872   2.952   6.099   9.124 -2.7200 -1.2304 -0.4377
  143MOL0     H18873   3.079   6.102   9.259 -1.5713 -0.6884  3.3185
  143MOL0     H18874   3.060   5.679   9.164 -2.4153 -0.5558 -0.4461
  143MOL0     H18875   2.565   6.047   9.359  1.7954 -0.2033  1.3528
  143MOL0     H18876   2.319   6.008   9.400  0.7368  1.4150 -0.3503
  144MOL0     O18877   6.552   9.785   9.243 -0.5111 -0.1009  0.2654
  144MOL0     C18878   6.601   9.722   9.333 -0.3124 -0.9269  0.5967
  144MOL0     O18879   6.538   9.640   9.423  0.5574  0.0942  0.0616
  144MOL0     C18880   6.405   9.614   9.411 -0.4205 -0.7733  0.4874
  144MOL0     C18881   6.344   9.593   9.284  0.4969 -0.7342  0.1053
  144MOL0     C18882   6.202   9.566   9.277 -0.4691  0.3150  0.1631
  144MOL0     C18883   6.123   9.563   9.387 -0.6838 -1.1678 -0.6195
  144MOL0     O18884   5.985   9.539   9.366  0.2786  0.0406 -0.3080
  144MOL0     C18885   5.894   9.562   9.473  0.4531  0.3513  0.0625
  144MOL0     C18886   5.761   9.570   9.397  0.4621 -1.0115 -0.9356
  144MOL0     C18887   5.650   9.658   9.472  0.2543 -1.3085 -0.6123
  144MOL0     C18888   5.506   9.642   9.420  0.2046 -0.0172 -0.3727
  144MOL0     C18889   5.405   9.747   9.483 -0.5656 -0.1143  1.1410
  144MOL0     C18890   5.273   9.739   9.410  1.0190  0.5437  0.2335
  144MOL0     C18891   5.164   9.824   9.470  0.5432  0.9643  0.7786
  144MOL0     C18892   5.188   9.971   9.439 -0.1127 -0.0496  0.0568
  144MOL0     N18893   5.070  10.055   9.472  0.1084  0.0322 -0.7307
  144MOL0     C18894   4.962  10.072   9.388 -0.3962 -1.1511 -0.4209
  144MOL0     C18895   4.882  10.163   9.445 -0.1458  0.0243  0.0550
  144MOL0     C18896   4.752  10.212   9.381 -0.0724  0.4843 -0.1429
  144MOL0     C18897   4.796  10.345   9.308 -0.5563  0.4084  0.2095
  144MOL0     C18898   4.676  10.386   9.225  0.2989 -0.6990 -0.3372
  144MOL0     C18899   4.544  10.373   9.299 -0.6342 -0.4186 -0.2048
  144MOL0     O18900   4.437  10.454   9.242 -0.7487  0.1897  0.2483
  144MOL0     C18901   4.316  10.393   9.235  0.0008 -0.8875 -0.7110
  144MOL0     C18902   4.233  10.414   9.127 -0.0082  1.0067  0.6193
  144MOL0     C18903   4.107  10.362   9.120 -0.2927  0.9477 -0.3022
  144MOL0     C18904   4.054  10.288   9.229 -0.4647 -0.5699  0.4646
  144MOL0     C18905   3.915  10.236   9.224 -0.6467 -0.2746  0.1885
  144MOL0     O18906   3.875  10.218   9.094  0.4428  0.1994  0.1257
  144MOL0     C18907   3.737  10.198   9.087  0.2510  0.3332 -0.0926
  144MOL0     C18908   3.645  10.284   9.148  0.0199  0.0469  0.1010
  144MOL0     C18909   3.508  10.257   9.145 -0.2302  0.3275  0.7305
  144MOL0     C18910   3.457  10.161   9.065  0.5129 -0.1758 -1.3022
  144MOL0     O18911   3.323  10.141   9.076  0.3932 -0.1197  0.1857
  144MOL0     C18912   3.268  10.025   9.031  0.3870 -0.5360  0.6640
  144MOL0     C18913   3.120  10.038   9.064  0.6747  0.7207 -0.4553
  144MOL0     C18914   3.034  10.134   8.993  0.3726  0.1801  0.7561
  144MOL0     C18915   2.884  10.147   9.045 -0.9676  0.4425 -0.0661
  144MOL0     C18916   2.812  10.009   9.034 -0.5053 -0.6803 -0.3354
  144MOL0     C18917   2.672  10.013   9.099  0.0573  0.4908 -0.8679
  144MOL0     C18918   2.578  10.111   9.035 -0.6428  0.2950 -0.8373
  144MOL0     C18919   2.517  10.057   8.913  0.9930 -0.6684 -0.7619
  144MOL0    Cl18920   2.410  10.186   8.845 -0.0745  0.1137 -0.0463
  144MOL0     C18921   3.544  10.080   8.998 -0.1001  0.1601  0.2227
  144MOL0     C18922   3.684  10.106   8.998 -0.5499  0.0246 -0.3171
  144MOL0     O18923   3.860  10.195   9.321 -0.0613 -0.2358 -0.0435
  144MOL0     C18924   4.136  10.267   9.341  0.6857  0.6415  0.2126
  144MOL0     C18925   4.264  10.326   9.344 -0.8236  0.3103 -0.2296
  144MOL0     N18926   4.942  10.198   9.564 -0.7197  0.6647  0.7495
  144MOL0     N18927   5.054  10.137   9.576 -0.0982  0.3775  0.1916
  144MOL0     C18928   6.180   9.596   9.515 -0.4886  1.0734 -1.1318
  144MOL0     C18929   6.317   9.612   9.523 -0.9118 -0.5426 -0.5505
  144MOL0     C18930   6.749   9.740   9.349  1.2907  0.0908  0.4425
  144MOL0     C18931   6.795   9.767   9.476 -0.4397 -0.4813  0.2464
  144MOL0     C18932   6.924   9.792   9.492  0.8363 -0.1127  0.6683
  144MOL0     C18933   7.020   9.806   9.386  0.2239 -0.7663 -0.0227
  144MOL0     O18934   7.153   9.837   9.396  0.2032  0.3701 -0.1739
  144MOL0     C18935   7.208   9.866   9.526 -0.7117  0.5265 -0.2306
  144MOL0     C18936   7.350   9.824   9.544 -0.6500  0.3202 -0.1794
  144MOL0     C18937   7.378   9.676   9.498  0.1735 -0.2630 -0.0750
  144MOL0     C18938   7.505   9.613   9.545  0.3755 -0.4766 -0.1821
  144MOL0     C18939   7.611   9.688   9.483 -0.0668  0.3178  0.2094
  144MOL0     C18940   7.693   9.772   9.432  0.3271 -0.4783 -0.1868
  144MOL0     C18941   6.971   9.783   9.258 -0.1130 -0.0487 -0.7017
  144MOL0     C18942   6.832   9.754   9.236  0.0045 -0.4851 -0.2417
  144MOL0     H18943   6.402   9.586   9.192 -1.9457 -1.6423 -1.4540
  144MOL0     H18944   6.162   9.529   9.183  0.9340 -1.0647  0.0670
  144MOL0     H18945   5.909   9.652   9.534 -3.6926  1.0068  0.4395
  144MOL0     H18946   5.888   9.481   9.546  0.3948  1.1844  0.9971
  144MOL0     H18947   5.724   9.469   9.382  1.4577 -1.5020 -0.1804
  144MOL0     H18948   5.778   9.611   9.297 -4.4588  0.1486 -1.5840
  144MOL0     H18949   5.687   9.761   9.467 -5.4496  1.1154 -0.4065
  144MOL0     H18950   5.650   9.627   9.577 -2.1325  2.5639  0.7200
  144MOL0     H18951   5.499   9.649   9.311 -0.5650 -1.8601 -0.4789
  144MOL0     H18952   5.467   9.541   9.434  1.4584 -0.8398 -2.3444
  144MOL0     H18953   5.437   9.850   9.461 -3.6828  0.5501 -0.7720
  144MOL0     H18954   5.396   9.745   9.592  2.1391  5.6410  1.8876
  144MOL0     H18955   5.243   9.638   9.380  2.4258  0.5752 -1.4814
  144MOL0     H18956   5.297   9.775   9.310  0.5031 -0.6538 -0.3404
  144MOL0     H18957   5.069   9.802   9.421  1.6027 -2.0632 -0.0980
  144MOL0     H18958   5.150   9.799   9.576  0.3010 -2.5484  0.0155
  144MOL0     H18959   5.213   9.989   9.334  3.9645 -0.3113  0.8302
  144MOL0     H18960   5.270  10.001   9.505  0.1171  0.9984 -0.6770
  144MOL0     H18961   4.938  10.016   9.299  1.4620 -2.6535 -0.0601
  144MOL0     H18962   4.691  10.244   9.466  1.4114  1.2687  0.6794
  144MOL0     H18963   4.711  10.136   9.314  3.2358  0.1879 -2.0840
  144MOL0     H18964   4.881  10.333   9.241 -0.0251  2.2693  0.4857
  144MOL0     H18965   4.821  10.421   9.383  5.0370  0.7217 -1.5185
  144MOL0     H18966   4.679  10.487   9.184  0.1428 -0.4007  0.3768
  144MOL0     H18967   4.662  10.323   9.136 -2.1876 -1.0963  0.2440
  144MOL0     H18968   4.562  10.412   9.399  2.0644 -1.7418 -0.0920
  144MOL0     H18969   4.526  10.265   9.302  0.4765 -0.6137 -0.1669
  144MOL0     H18970   4.283  10.466   9.046 -2.2146 -1.2464 -2.4052
  144MOL0     H18971   4.043  10.375   9.033 -0.4662 -1.5589 -0.6103
  144MOL0     H18972   3.671  10.359   9.222  0.3101 -1.0506  1.1547
  144MOL0     H18973   3.443  10.311   9.214  2.9404  1.8131  2.7969
  144MOL0     H18974   3.313   9.938   9.079  1.8100  0.6135  1.5007
  144MOL0     H18975   3.276  10.025   8.922 -1.6810  1.5390  0.4213
  144MOL0     H18976   3.103  10.055   9.171 -1.0947 -2.2717 -0.1572
  144MOL0     H18977   3.074   9.942   9.040  1.0781  0.3750  0.1287
  144MOL0     H18978   3.028  10.124   8.884 -0.0761  0.9116  0.7029
  144MOL0     H18979   3.087  10.230   9.003  2.9099 -0.9996 -0.4377
  144MOL0     H18980   2.868  10.177   9.149 -1.1071  0.9460 -0.2287
  144MOL0     H18981   2.833  10.226   8.988 -0.8470  0.4329 -0.1876
  144MOL0     H18982   2.880   9.938   9.083  2.2740  1.3453 -1.0141
  144MOL0     H18983   2.808   9.978   8.929 -0.5484  1.0802 -0.8774
  144MOL0     H18984   2.684  10.041   9.204 -0.6528 -2.0282 -0.0448
  144MOL0     H18985   2.623   9.915   9.105  0.2502  0.3713 -1.2199
  144MOL0     H18986   2.500  10.142   9.104  0.5713 -1.7636  1.6193
  144MOL0     H18987   2.621  10.210   9.015  0.1149 -0.0298 -0.8711
  144MOL0     H18988   2.452   9.972   8.936 -0.9581  1.7464  4.0281
  144MOL0     H18989   2.584  10.031   8.830  2.7238  0.4741  0.2318
  144MOL0     H18990   3.510   9.994   8.941 -1.3691  1.1684 -0.5898
  144MOL0     H18991   3.759  10.038   8.959  1.3237  1.7741  0.0802
  144MOL0     H18992   4.110  10.208   9.427 -1.1336 -1.5697 -1.7349
  144MOL0     H18993   4.320  10.301   9.434  1.5325 -0.4293 -1.8122
  144MOL0     H18994   6.116   9.601   9.602  0.9074 -3.5568  0.4784
  144MOL0     H18995   6.374   9.644   9.609  1.7181 -2.8048 -1.3196
  144MOL0     H18996   6.722   9.783   9.554 -2.8193 -0.1850 -1.9181
  144MOL0     H18997   6.949   9.801   9.598 -1.0924  2.0361  1.0158
  144MOL0     H18998   7.156   9.831   9.615 -0.2731  1.1974  0.3008
  144MOL0     H18999   7.205   9.975   9.522  0.5763  0.5467 -1.7242
  144MOL0     H19000   7.425   9.888   9.498  0.5036 -0.8601 -0.0235
  144MOL0     H19001   7.371   9.842   9.650 -1.5347  4.2874 -0.5376
  144MOL0     H19002   7.393   9.670   9.390  1.6591  1.0044  0.0324
  144MOL0     H19003   7.291   9.610   9.513  0.4744 -0.8521 -0.8307
  144MOL0     H19004   7.508   9.607   9.654  0.3452  0.4893 -0.1215
  144MOL0     H19005   7.491   9.508   9.520 -0.7136 -0.2381 -0.6444
  144MOL0     H19006   7.763   9.833   9.379  1.4911 -1.7076 -0.1125
  144MOL0     H19007   7.044   9.802   9.180  3.6488  2.3541  2.9961
  144MOL0     H19008   6.784   9.779   9.142 -1.9806 -0.6142  0.6950
  145MOL0     O19009   0.236   3.142   3.328 -0.0724  0.5933  0.7576
  145MOL0     C19010   0.282   3.252   3.303 -0.2131 -0.4924 -0.0389
  145MOL0     O19011   0.224   3.348   3.231  0.1330 -0.6379  0.1198
  145MOL0     C19012   0.095   3.347   3.181 -0.6818 -0.0388 -0.6949
  145MOL0     C19013   0.064   3.451   3.094  0.2600  0.1378  0.2263
  145MOL0     C19014  -0.056   3.460   3.032  0.3176 -0.0662 -1.0665
  145MOL0     C19015  -0.156   3.374   3.069 -0.2914  0.1029 -0.7349
  145MOL0     O19016  -0.280   3.374   3.014  0.2511 -0.1573  0.8511
  145MOL0     C19017  -0.322   3.474   2.918 -0.0818 -0.1223  0.4519
  145MOL0     C19018  -0.410   3.405   2.812  0.2013  0.0241  0.1251
  145MOL0     C19019  -0.486   3.494   2.711 -0.6061  0.1932  0.5794
  145MOL0     C19020  -0.473   3.431   2.572 -0.0335 -0.8087  0.1035
  145MOL0     C19021  -0.556   3.501   2.458  0.5318  0.3204 -0.0089
  145MOL0     C19022  -0.708   3.490   2.484  0.9460 -0.5552  0.3474
  145MOL0     C19023  -0.794   3.581   2.396 -0.1907  1.0632  0.5960
  145MOL0     C19024  -0.806   3.533   2.255 -0.5879  0.2690 -0.0259
  145MOL0     N19025  -0.919   3.602   2.191  0.3413 -0.8983  0.4573
  145MOL0     C19026  -1.049   3.560   2.191 -0.0438 -0.3260 -1.1252
  145MOL0     C19027  -1.107   3.657   2.111  0.3233  0.9051 -0.4283
  145MOL0     C19028  -1.253   3.666   2.081  0.9774  0.4769 -0.3521
  145MOL0     C19029  -1.307   3.804   2.056  0.9611  0.2115 -0.2186
  145MOL0     C19030  -1.457   3.804   2.011  0.3730  0.4360  0.8594
  145MOL0     C19031  -1.559   3.730   2.108  0.4749 -0.6791 -0.4894
  145MOL0     O19032  -1.679   3.808   2.126  0.6527  0.1903  0.0590
  145MOL0     C19033  -1.791   3.779   2.050 -0.5757  0.0400  1.2187
  145MOL0     C19034  -1.796   3.700   1.939 -0.8327 -0.1183  0.3719
  145MOL0     C19035  -1.920   3.669   1.879 -0.3918 -0.0060 -0.5241
  145MOL0     C19036  -2.030   3.753   1.905 -0.2271 -0.0348  0.2979
  145MOL0     C19037  -2.163   3.735   1.841  0.6191 -0.7334  0.1555
  145MOL0     O19038  -2.254   3.829   1.868 -0.4933  0.1628  0.2989
  145MOL0     C19039  -2.367   3.829   1.791  0.4053 -0.3461 -0.0126
  145MOL0     C19040  -2.448   3.718   1.806  0.7509  0.2298  0.0422
  145MOL0     C19041  -2.575   3.725   1.749  0.2693  0.2893 -0.4038
  145MOL0     C19042  -2.612   3.826   1.654 -0.2617 -0.0000 -0.7840
  145MOL0     O19043  -2.720   3.820   1.582  0.1982  0.4023  0.1522
  145MOL0     C19044  -2.713   3.889   1.457  0.5957 -0.5953 -0.2478
  145MOL0     C19045  -2.801   3.832   1.349  0.3303 -0.0321  0.5910
  145MOL0     C19046  -2.949   3.860   1.383 -0.4730  0.2559 -0.4181
  145MOL0     C19047  -2.988   4.008   1.381  0.1173 -0.0306 -0.0079
  145MOL0     C19048  -3.122   4.030   1.441  0.0369  0.2869 -0.0632
  145MOL0     C19049  -3.232   3.927   1.405  0.6134 -0.0072  0.0047
  145MOL0     C19050  -3.365   3.989   1.447  0.4755  0.2453  0.6196
  145MOL0     C19051  -3.478   3.896   1.424  0.0560  0.1057  0.2037
  145MOL0    Cl19052  -3.637   3.969   1.451 -0.4993  0.2765  0.0563
  145MOL0     C19053  -2.518   3.928   1.645  0.6052 -1.1256 -0.2529
  145MOL0     C19054  -2.403   3.934   1.715  0.2355 -0.5062  0.6059
  145MOL0     O19055  -2.183   3.639   1.763 -0.1170 -0.6191 -0.3355
  145MOL0     C19056  -2.017   3.844   2.006  0.6025  0.7092 -0.2568
  145MOL0     C19057  -1.905   3.858   2.082 -0.0211  0.6746  0.1271
  145MOL0     N19058  -1.012   3.748   2.069 -0.3277  0.6730  0.0163
  145MOL0     N19059  -0.894   3.715   2.120  0.3580  0.2535 -0.1985
  145MOL0     C19060  -0.137   3.268   3.166 -0.4465  0.5547  0.9049
  145MOL0     C19061  -0.008   3.260   3.213 -0.8389  0.0574 -0.5195
  145MOL0     C19062   0.416   3.297   3.345 -0.0588  0.4755  0.4227
  145MOL0     C19063   0.451   3.432   3.372  0.1879  0.7739 -0.1856
  145MOL0     C19064   0.583   3.460   3.406 -0.1409 -0.8675  1.0806
  145MOL0     C19065   0.683   3.364   3.414  0.4154  0.1697  0.7127
  145MOL0     O19066   0.811   3.392   3.446  0.4353  0.0750 -0.3211
  145MOL0     C19067   0.869   3.506   3.373  0.5368 -0.3689  0.2607
  145MOL0     C19068   1.020   3.523   3.403  0.3314 -0.0718  0.1712
  145MOL0     C19069   1.095   3.393   3.421  0.3558  0.6120  0.1955
  145MOL0     C19070   1.242   3.411   3.391 -0.1827  0.0403 -0.9219
  145MOL0     C19071   1.318   3.310   3.469  0.0211  0.5327 -0.7115
  145MOL0     C19072   1.397   3.244   3.530 -0.2888  0.3468 -0.6657
  145MOL0     C19073   0.650   3.228   3.393 -0.4103 -0.0622 -0.0764
  145MOL0     C19074   0.513   3.193   3.365 -0.5155  0.2359  0.2190
  145MOL0     H19075   0.148   3.513   3.066  1.2570 -1.0014  0.5777
  145MOL0     H19076  -0.063   3.540   2.960  3.2325  2.0797  0.8114
  145MOL0     H19077  -0.246   3.530   2.863 -1.9837  1.3222 -0.8732
  145MOL0     H19078  -0.386   3.549   2.965 -2.5953 -1.8497  0.0189
  145MOL0     H19079  -0.488   3.350   2.866 -0.8236  1.8495  0.5910
  145MOL0     H19080  -0.345   3.333   2.761  0.7721  0.6088  0.0263
  145MOL0     H19081  -0.439   3.593   2.712  0.1149 -0.1113  2.8523
  145MOL0     H19082  -0.591   3.503   2.742 -0.8159 -0.3305  0.0411
  145MOL0     H19083  -0.369   3.427   2.537  0.3244  0.9122  0.8545
  145MOL0     H19084  -0.526   3.336   2.586 -1.3551 -0.1145 -0.1116
  145MOL0     H19085  -0.537   3.470   2.355 -1.5829  2.6167 -1.1875
  145MOL0     H19086  -0.521   3.604   2.469 -1.4169  1.0823 -0.5503
  145MOL0     H19087  -0.722   3.532   2.585  1.4746 -0.7718  0.5143
  145MOL0     H19088  -0.742   3.387   2.473  0.8746 -0.3593 -1.4898
  145MOL0     H19089  -0.896   3.591   2.435 -0.3513 -2.0342  1.2814
  145MOL0     H19090  -0.755   3.682   2.387  0.7266  0.5876 -1.1617
  145MOL0     H19091  -0.828   3.426   2.258 -2.0756  0.5014  4.4959
  145MOL0     H19092  -0.713   3.563   2.206 -0.0479 -0.0375  0.7890
  145MOL0     H19093  -1.096   3.474   2.237  1.5317 -1.0778 -0.8536
  145MOL0     H19094  -1.302   3.631   2.173  2.7534  0.0326  0.4701
  145MOL0     H19095  -1.288   3.606   1.997 -0.4627  0.8308 -0.0300
  145MOL0     H19096  -1.248   3.844   1.974  0.8533 -1.8226 -1.3612
  145MOL0     H19097  -1.310   3.860   2.150 -2.3298 -1.7783  1.0449
  145MOL0     H19098  -1.485   3.909   1.996  0.3074  0.2857 -0.1466
  145MOL0     H19099  -1.467   3.775   1.906  0.3143  2.5485  0.2371
  145MOL0     H19100  -1.514   3.726   2.208 -1.2574  1.7890  0.4956
  145MOL0     H19101  -1.576   3.627   2.076 -2.2672 -0.3453 -0.4228
  145MOL0     H19102  -1.703   3.645   1.925  0.4740  2.1091 -0.1105
  145MOL0     H19103  -1.938   3.578   1.824  0.0909  0.6835 -1.8569
  145MOL0     H19104  -2.432   3.632   1.870 -1.6906  0.5717  1.2197
  145MOL0     H19105  -2.642   3.643   1.770 -0.6701  1.0028 -0.5323
  145MOL0     H19106  -2.612   3.894   1.417  0.0751  2.5082 -1.4899
  145MOL0     H19107  -2.755   3.985   1.488 -3.3019 -2.5241  1.1193
  145MOL0     H19108  -2.797   3.723   1.346 -2.1584 -0.1572 -1.5901
  145MOL0     H19109  -2.776   3.877   1.253  0.5908 -0.4369  0.4694
  145MOL0     H19110  -2.961   3.829   1.487  1.1502  0.8786 -0.0155
  145MOL0     H19111  -3.009   3.801   1.314  0.8656 -0.3579 -1.0803
  145MOL0     H19112  -2.912   4.068   1.432  1.6859 -0.9994 -1.0880
  145MOL0     H19113  -2.988   4.044   1.277  1.0706  0.9082  0.2996
  145MOL0     H19114  -3.162   4.125   1.403 -1.0551 -0.3754 -0.5921
  145MOL0     H19115  -3.108   4.032   1.550  0.3996  2.4117 -0.1104
  145MOL0     H19116  -3.216   3.841   1.471  1.5891  0.0423 -0.1576
  145MOL0     H19117  -3.225   3.899   1.300 -0.1578  2.3487 -0.7234
  145MOL0     H19118  -3.377   4.032   1.547 -2.4177 -0.6085  0.7310
  145MOL0     H19119  -3.398   4.070   1.382 -0.1468 -0.0085  0.6069
  145MOL0     H19120  -3.469   3.810   1.491 -1.9786  0.9414  1.6590
  145MOL0     H19121  -3.475   3.871   1.318  0.0573 -0.1431  0.2610
  145MOL0     H19122  -2.551   4.015   1.590 -0.5061 -0.6568  1.0978
  145MOL0     H19123  -2.354   4.029   1.733 -1.9317  1.0996 -1.2702
  145MOL0     H19124  -2.108   3.895   2.037 -0.1947 -1.5403  1.3005
  145MOL0     H19125  -1.921   3.923   2.167  0.8545  1.4986 -0.3224
  145MOL0     H19126  -0.222   3.206   3.192 -1.1209 -0.0771 -2.3101
  145MOL0     H19127   0.003   3.176   3.281 -1.4310  0.4429  0.0654
  145MOL0     H19128   0.377   3.510   3.359 -2.7851 -2.0187 -1.3714
  145MOL0     H19129   0.602   3.566   3.422 -2.0662 -0.3467  0.1991
  145MOL0     H19130   0.827   3.603   3.402 -0.6418 -1.0425  0.9137
  145MOL0     H19131   0.859   3.504   3.264 -0.2762 -2.5609  0.3296
  145MOL0     H19132   1.053   3.578   3.315 -0.0321 -0.1576 -0.0245
  145MOL0     H19133   1.030   3.576   3.498 -0.5484 -1.1770  0.9174
  145MOL0     H19134   1.062   3.318   3.349 -0.8718 -0.3285  1.6806
  145MOL0     H19135   1.076   3.345   3.518  2.5654 -0.7408  0.0420
  145MOL0     H19136   1.247   3.390   3.284  0.3621 -3.0831 -0.3764
  145MOL0     H19137   1.280   3.510   3.420  2.0235 -1.1544  0.5606
  145MOL0     H19138   1.462   3.181   3.588 -0.7976 -0.2702 -0.7532
  145MOL0     H19139   0.735   3.161   3.398  0.7021  1.3930  2.1262
  145MOL0     H19140   0.482   3.089   3.367 -1.2952  0.4591  0.3566
  146MOL0     O19141   7.270   1.645   4.419  0.4085  0.4290  0.0788
  146MOL0     C19142   7.373   1.645   4.355  0.0945 -0.0474 -0.3920
  146MOL0     O19143   7.380   1.638   4.216  0.4694  0.1822 -0.5081
  146MOL0     C19144   7.279   1.676   4.135  0.9727  0.0603 -0.5915
  146MOL0     C19145   7.143   1.655   4.162  0.2606 -0.3671 -0.1059
  146MOL0     C19146   7.054   1.680   4.065  0.8102  0.3320 -0.2653
  146MOL0     C19147   7.092   1.741   3.941 -0.2559  0.6433 -0.0827
  146MOL0     O19148   7.009   1.759   3.833 -0.4532 -0.1096  0.2580
  146MOL0     C19149   6.921   1.657   3.788 -0.6135  0.5184  0.3855
  146MOL0     C19150   6.832   1.718   3.676 -0.3300 -0.3084 -0.6255
  146MOL0     C19151   6.718   1.626   3.620  0.1755 -0.9162 -0.4012
  146MOL0     C19152   6.606   1.595   3.724  0.1862  0.7120  0.5591
  146MOL0     C19153   6.530   1.472   3.679  0.8063  0.0309 -0.1129
  146MOL0     C19154   6.600   1.337   3.704  0.2362  0.4556 -0.4423
  146MOL0     C19155   6.520   1.233   3.636 -0.8007 -1.0074  0.1436
  146MOL0     C19156   6.393   1.197   3.713 -0.3457 -0.6339 -0.0172
  146MOL0     N19157   6.329   1.084   3.661 -0.0659 -0.0296 -0.0580
  146MOL0     C19158   6.209   1.089   3.596 -0.2859 -0.4303  0.0908
  146MOL0     C19159   6.172   0.962   3.571 -0.1891  0.8062  0.1297
  146MOL0     C19160   6.064   0.908   3.488  0.3538  0.0854 -0.5229
  146MOL0     C19161   5.929   0.971   3.516  0.3509 -0.1087  0.4285
  146MOL0     C19162   5.878   0.959   3.661  0.3009 -0.1847 -0.0993
  146MOL0     C19163   5.746   1.028   3.669 -0.5932  0.9493 -0.3445
  146MOL0     O19164   5.641   0.950   3.600 -0.0139  0.0915  0.2990
  146MOL0     C19165   5.519   0.972   3.657  0.5758  0.6217 -0.2708
  146MOL0     C19166   5.437   1.063   3.603  0.4491  0.1858 -0.1710
  146MOL0     C19167   5.301   1.076   3.649  0.2542  0.4145 -0.4883
  146MOL0     C19168   5.251   0.985   3.742  0.2926 -0.2347 -0.1598
  146MOL0     C19169   5.118   1.003   3.805  0.0111  0.4057 -0.4572
  146MOL0     O19170   5.062   0.894   3.868  0.3208 -0.1168 -0.9081
  146MOL0     C19171   4.941   0.924   3.941 -0.0218  0.7294  0.2189
  146MOL0     C19172   4.817   0.926   3.871  0.1014  0.2899  0.3576
  146MOL0     C19173   4.696   0.965   3.942 -0.6186  0.3576 -0.0884
  146MOL0     C19174   4.698   0.983   4.079 -0.5929 -0.7792 -0.4144
  146MOL0     O19175   4.585   1.015   4.152 -0.2654 -0.5639 -0.3641
  146MOL0     C19176   4.462   1.063   4.101  0.6109 -0.0111  0.2380
  146MOL0     C19177   4.400   1.153   4.211  0.1972 -0.1413 -0.9862
  146MOL0     C19178   4.296   1.253   4.155 -0.5928 -0.2345 -0.1506
  146MOL0     C19179   4.224   1.339   4.261  0.4165 -0.5658 -0.7310
  146MOL0     C19180   4.167   1.250   4.379 -0.1973  0.2382  0.0942
  146MOL0     C19181   4.054   1.310   4.459  0.2236 -0.3633  0.0483
  146MOL0     C19182   4.032   1.245   4.593  0.1270  0.5975 -0.3639
  146MOL0     C19183   3.904   1.272   4.671  1.0131  0.2339 -0.0493
  146MOL0    Cl19184   3.761   1.187   4.597  0.0789 -0.0917 -0.0846
  146MOL0     C19185   4.819   0.992   4.150  0.2293  0.2662 -0.3755
  146MOL0     C19186   4.937   0.957   4.073  0.2061 -0.5633 -0.1243
  146MOL0     O19187   5.059   1.110   3.779  0.4865 -0.1508 -0.2207
  146MOL0     C19188   5.337   0.887   3.799  0.0351  0.1680  0.6708
  146MOL0     C19189   5.469   0.888   3.757  0.0196 -1.0186 -0.0518
  146MOL0     N19190   6.264   0.877   3.636  0.1318  0.8441  0.0488
  146MOL0     N19191   6.359   0.957   3.684 -0.0783  0.0717 -0.0139
  146MOL0     C19192   7.226   1.754   3.911  0.6334  0.9700  0.5271
  146MOL0     C19193   7.313   1.729   4.013 -0.2207 -0.1709 -0.2451
  146MOL0     C19194   7.502   1.649   4.422 -0.9946  0.9257 -0.3418
  146MOL0     C19195   7.526   1.631   4.556  0.5261  0.4141 -0.4146
  146MOL0     C19196   7.655   1.619   4.609  0.5036  0.5790 -0.6378
  146MOL0     C19197   7.770   1.635   4.534 -0.3970 -0.4646  1.1258
  146MOL0     O19198   7.892   1.636   4.592 -0.4074  0.4166 -0.1930
  146MOL0     C19199   7.985   1.725   4.541 -0.7775  0.1074 -0.1193
  146MOL0     C19200   8.092   1.741   4.645 -0.0361  0.2635 -0.6419
  146MOL0     C19201   8.176   1.612   4.665 -0.7176  0.0125 -0.4295
  146MOL0     C19202   8.124   1.511   4.774 -0.2208 -0.0169  0.0601
  146MOL0     C19203   8.174   1.549   4.910  1.2013 -0.5577  0.3471
  146MOL0     C19204   8.218   1.590   5.014 -0.0146 -1.0021 -0.0211
  146MOL0     C19205   7.741   1.653   4.401  0.3783 -0.2607  0.8423
  146MOL0     C19206   7.617   1.649   4.346  0.0915 -0.1598 -0.0125
  146MOL0     H19207   7.105   1.609   4.252 -3.0834 -2.1365 -2.2117
  146MOL0     H19208   6.949   1.661   4.085  0.8657  1.5447  1.4563
  146MOL0     H19209   6.861   1.627   3.875 -1.6169  1.8417  0.1925
  146MOL0     H19210   6.980   1.572   3.754 -1.0621 -0.8215  2.7618
  146MOL0     H19211   6.887   1.756   3.589  0.9778  1.7559  1.0246
  146MOL0     H19212   6.779   1.800   3.725 -4.2092 -2.7154 -0.3227
  146MOL0     H19213   6.774   1.538   3.587  1.3585  0.8120 -3.4473
  146MOL0     H19214   6.679   1.680   3.533  2.3578  1.5423  0.0023
  146MOL0     H19215   6.655   1.558   3.815  4.6021  0.1440 -1.7926
  146MOL0     H19216   6.530   1.670   3.745 -1.2902 -0.9041  1.2536
  146MOL0     H19217   6.500   1.493   3.576  0.2409  1.3429  0.2953
  146MOL0     H19218   6.444   1.475   3.746  1.9189 -1.3909  1.4752
  146MOL0     H19219   6.608   1.325   3.813  0.0767  1.0061 -0.3648
  146MOL0     H19220   6.705   1.332   3.676  0.3985 -0.9822  0.3061
  146MOL0     H19221   6.500   1.261   3.533 -0.8444 -2.0854 -0.1527
  146MOL0     H19222   6.585   1.145   3.628  0.4802 -0.2769  1.6682
  146MOL0     H19223   6.333   1.289   3.710  2.4286  1.3161  0.5776
  146MOL0     H19224   6.429   1.178   3.814  0.2067 -3.3613 -0.6629
  146MOL0     H19225   6.160   1.176   3.553 -1.5063 -1.7057 -1.2057
  146MOL0     H19226   6.062   0.801   3.510 -0.5352 -0.5048 -3.1994
  146MOL0     H19227   6.089   0.926   3.383 -1.5586  1.0777 -0.8426
  146MOL0     H19228   5.862   0.931   3.440  2.0239  1.6492 -2.1075
  146MOL0     H19229   5.936   1.079   3.497  1.2326 -0.4051 -1.0452
  146MOL0     H19230   5.853   0.853   3.677  2.4451 -0.8523 -0.8191
  146MOL0     H19231   5.949   0.992   3.737  0.6414 -3.6361  1.3046
  146MOL0     H19232   5.755   1.129   3.629  2.4974  1.0448  0.2963
  146MOL0     H19233   5.717   1.048   3.772  0.5894  1.4525 -0.0853
  146MOL0     H19234   5.458   1.134   3.523 -2.5967  0.7943 -0.5282
  146MOL0     H19235   5.224   1.145   3.617  2.6241  3.2120 -0.6208
  146MOL0     H19236   4.807   0.900   3.766 -2.1924  1.8483  0.1053
  146MOL0     H19237   4.608   0.975   3.879  0.7292  0.4965 -2.0587
  146MOL0     H19238   4.393   0.981   4.082  2.0174 -1.5045  1.2524
  146MOL0     H19239   4.466   1.126   4.011 -0.7898  0.6448  0.6081
  146MOL0     H19240   4.461   1.203   4.287 -0.6119 -1.7012  0.7798
  146MOL0     H19241   4.346   1.076   4.268 -0.3914 -0.0982 -1.4746
  146MOL0     H19242   4.215   1.199   4.105 -1.6508  2.2292 -1.2940
  146MOL0     H19243   4.345   1.333   4.098  0.5006  0.3505  1.5235
  146MOL0     H19244   4.296   1.410   4.302 -0.9782  1.0722 -0.9679
  146MOL0     H19245   4.142   1.396   4.215 -1.1242  0.2019  2.6395
  146MOL0     H19246   4.249   1.230   4.449  0.5061  0.4648 -0.6397
  146MOL0     H19247   4.140   1.147   4.353  3.9437 -1.8983  3.0823
  146MOL0     H19248   3.965   1.319   4.396  0.5050  3.6459 -0.0280
  146MOL0     H19249   4.084   1.411   4.490  1.1234 -0.7087  0.3252
  146MOL0     H19250   4.040   1.140   4.566 -0.6125 -0.5410  3.2596
  146MOL0     H19251   4.112   1.274   4.662 -1.0063  0.0020  1.2683
  146MOL0     H19252   3.890   1.380   4.680  1.0062  0.2031  0.3083
  146MOL0     H19253   3.913   1.246   4.777 -1.6179  0.0426  0.1968
  146MOL0     H19254   4.819   1.028   4.252  0.2814 -0.5962 -0.0679
  146MOL0     H19255   5.033   0.956   4.125  0.1517 -0.7469 -0.0273
  146MOL0     H19256   5.306   0.834   3.889 -1.9375 -0.0191 -0.0716
  146MOL0     H19257   5.537   0.820   3.807 -2.4145 -2.6078  1.3140
  146MOL0     H19258   7.251   1.780   3.809 -1.2556 -0.7945 -0.4599
  146MOL0     H19259   7.415   1.751   3.983  0.0931  1.4035  1.7562
  146MOL0     H19260   7.448   1.636   4.631 -1.7357  0.0142 -2.6071
  146MOL0     H19261   7.664   1.604   4.717  0.7187  0.8092 -0.6217
  146MOL0     H19262   7.941   1.821   4.513  1.0002  1.6796  2.1121
  146MOL0     H19263   8.026   1.670   4.456  0.4800 -1.1345  1.2395
  146MOL0     H19264   8.162   1.818   4.612 -0.7854  1.0541 -0.4409
  146MOL0     H19265   8.043   1.773   4.737  3.1000 -0.5131  1.4648
  146MOL0     H19266   8.279   1.642   4.687 -1.5908  1.3122  2.4389
  146MOL0     H19267   8.173   1.562   4.568  1.6841 -0.6340 -0.2234
  146MOL0     H19268   8.015   1.515   4.772 -0.2350  4.8567  0.2176
  146MOL0     H19269   8.154   1.410   4.745  0.9278 -0.2467  1.8803
  146MOL0     H19270   8.238   1.634   5.110 -1.7844 -1.2119  0.4738
  146MOL0     H19271   7.822   1.646   4.329 -1.7093  1.6956 -1.8982
  146MOL0     H19272   7.614   1.648   4.237 -0.3858 -0.3782 -0.0011
  147MOL0     O19273   3.774   0.851   2.409  0.0554 -0.6214 -0.5404
  147MOL0     C19274   3.834   0.747   2.441 -0.0260  0.2525 -0.0739
  147MOL0     O19275   3.773   0.645   2.509  0.2184  0.0071 -0.2158
  147MOL0     C19276   3.640   0.641   2.548 -0.4911  0.1244 -0.2033
  147MOL0     C19277   3.539   0.651   2.448  0.2594 -0.1424 -0.4132
  147MOL0     C19278   3.409   0.657   2.489  0.2669 -1.1231  0.6042
  147MOL0     C19279   3.375   0.664   2.630 -0.5105 -0.2333  0.4106
  147MOL0     O19280   3.243   0.666   2.661 -0.1065 -0.2760  0.2540
  147MOL0     C19281   3.199   0.554   2.732 -0.7206 -0.1029 -0.1893
  147MOL0     C19282   3.049   0.564   2.755 -0.8013 -0.2371 -0.0330
  147MOL0     C19283   2.995   0.434   2.801 -0.0551  0.8655 -0.7688
  147MOL0     C19284   2.841   0.420   2.809 -0.5084 -0.1545 -0.5861
  147MOL0     C19285   2.797   0.277   2.843  0.7069 -0.4244  1.0027
  147MOL0     C19286   2.649   0.275   2.894 -0.5003 -0.4558  0.0004
  147MOL0     C19287   2.612   0.135   2.938  0.0883 -0.0949 -0.2353
  147MOL0     C19288   2.467   0.131   2.958  0.2907  0.1252  0.3210
  147MOL0     N19289   2.422   0.006   3.011 -0.2798  0.8431 -0.2774
  147MOL0     C19290   2.430  -0.115   2.953 -0.1139 -0.2724 -0.4634
  147MOL0     C19291   2.380  -0.205   3.043  0.3839  0.2916 -0.6830
  147MOL0     C19292   2.390  -0.351   3.014  0.3191  0.4441 -0.0297
  147MOL0     C19293   2.437  -0.448   3.129 -0.1047 -0.8427 -0.2243
  147MOL0     C19294   2.341  -0.551   3.164 -0.3685  0.3499  0.1709
  147MOL0     C19295   2.409  -0.660   3.253  0.0133  0.0051  0.3816
  147MOL0     O19296   2.391  -0.638   3.395  0.5787  0.0226 -0.4076
  147MOL0     C19297   2.285  -0.681   3.470  0.6132 -0.0887  1.1459
  147MOL0     C19298   2.176  -0.741   3.422  0.1064  0.8974 -0.1917
  147MOL0     C19299   2.082  -0.781   3.517 -0.1160  0.5246 -0.6816
  147MOL0     C19300   2.084  -0.736   3.655 -0.1885  0.6171  0.5583
  147MOL0     C19301   1.988  -0.778   3.757  0.1732 -1.3875  0.2587
  147MOL0     O19302   1.912  -0.884   3.738 -0.0956  0.1788 -0.4867
  147MOL0     C19303   1.796  -0.928   3.815 -0.9155  0.3201  0.1942
  147MOL0     C19304   1.724  -1.037   3.768 -1.1083 -0.0668 -0.2692
  147MOL0     C19305   1.606  -1.081   3.840 -0.2206 -0.3030 -0.3741
  147MOL0     C19306   1.572  -1.029   3.964  0.6667  0.3227  0.1918
  147MOL0     O19307   1.459  -1.077   4.031  0.0476 -0.4394  0.0491
  147MOL0     C19308   1.375  -0.975   4.098 -0.0730 -0.1953 -0.0779
  147MOL0     C19309   1.253  -1.036   4.159  0.2975  0.1320 -0.1988
  147MOL0     C19310   1.180  -1.136   4.062  0.8173 -0.2234 -0.7549
  147MOL0     C19311   1.054  -1.181   4.127  0.4747 -0.6302 -0.3373
  147MOL0     C19312   0.969  -1.257   4.030  0.2573  0.8270  0.4627
  147MOL0     C19313   0.864  -1.164   3.964 -0.0352 -0.4233  0.3232
  147MOL0     C19314   0.753  -1.256   3.904  0.4671 -0.4042 -0.9002
  147MOL0     C19315   0.619  -1.184   3.916 -0.0482  0.1323 -0.4804
  147MOL0    Cl19316   0.574  -1.207   4.086  0.0994  0.0381 -0.1233
  147MOL0     C19317   1.643  -0.919   4.004  0.0427 -0.5347 -0.7071
  147MOL0     C19318   1.753  -0.867   3.935  0.3129  0.5654  0.1723
  147MOL0     O19319   1.989  -0.698   3.857  0.0994  0.2373  0.4995
  147MOL0     C19320   2.195  -0.664   3.690  0.1835 -1.1069  0.3073
  147MOL0     C19321   2.298  -0.647   3.599  0.2629 -0.1156 -0.6478
  147MOL0     N19322   2.349  -0.148   3.157 -0.4889 -0.0396 -0.4587
  147MOL0     N19323   2.364  -0.022   3.133 -0.6206 -0.1045  0.5758
  147MOL0     C19324   3.475   0.657   2.731 -0.1396 -0.4249  0.6490
  147MOL0     C19325   3.612   0.642   2.691 -0.3532 -0.1778  0.1627
  147MOL0     C19326   3.979   0.744   2.409 -0.2962  0.3079  0.0489
  147MOL0     C19327   4.056   0.850   2.353 -0.0713  1.0112 -0.6564
  147MOL0     C19328   4.186   0.831   2.321 -0.4814  0.1163  0.0287
  147MOL0     C19329   4.250   0.713   2.355 -0.7038  0.4565 -0.4914
  147MOL0     O19330   4.387   0.714   2.340 -0.0441  0.0418  0.1920
  147MOL0     C19331   4.466   0.610   2.400  0.1975  0.2682  0.3371
  147MOL0     C19332   4.601   0.623   2.329  0.0794  0.7510  1.2344
  147MOL0     C19333   4.698   0.515   2.370 -0.4197  0.4088 -0.7760
  147MOL0     C19334   4.824   0.503   2.286 -0.0879 -0.3801  0.7177
  147MOL0     C19335   4.901   0.383   2.323  0.6125  0.2064 -0.1054
  147MOL0     C19336   4.958   0.280   2.346  0.4141  0.7818  0.1660
  147MOL0     C19337   4.174   0.601   2.400  0.0483  0.1729 -0.4264
  147MOL0     C19338   4.042   0.613   2.431  0.7213 -0.0502  1.2296
  147MOL0     H19339   3.577   0.647   2.347  0.4801  0.0173 -0.3372
  147MOL0     H19340   3.335   0.667   2.410  0.0832  1.6581  1.0467
  147MOL0     H19341   3.236   0.554   2.835  0.7069  1.9478 -0.6345
  147MOL0     H19342   3.215   0.464   2.673 -1.2521  0.2989 -0.9623
  147MOL0     H19343   3.004   0.579   2.657  1.2621  1.1999 -0.8152
  147MOL0     H19344   3.017   0.644   2.823  1.3205  0.9722 -0.3768
  147MOL0     H19345   3.043   0.410   2.896  0.5343 -0.5907 -1.4026
  147MOL0     H19346   3.016   0.358   2.725 -1.2711  0.9516 -1.2094
  147MOL0     H19347   2.818   0.493   2.888 -0.1373 -0.3648 -0.2816
  147MOL0     H19348   2.799   0.445   2.712 -1.4661 -1.2540 -0.4742
  147MOL0     H19349   2.876   0.239   2.908  2.8603  1.1389 -0.5274
  147MOL0     H19350   2.795   0.218   2.751 -0.6038 -0.5558  1.1030
  147MOL0     H19351   2.578   0.313   2.821 -0.4383  1.4065  0.8669
  147MOL0     H19352   2.646   0.346   2.977 -2.1611 -2.0936  1.4411
  147MOL0     H19353   2.642   0.066   2.859  2.2055  1.2932 -0.7228
  147MOL0     H19354   2.669   0.103   3.026  0.8993 -0.9853 -1.0695
  147MOL0     H19355   2.423   0.137   2.858  0.7601  0.5177  0.1365
  147MOL0     H19356   2.434   0.211   3.025  2.3433  0.0892  1.4566
  147MOL0     H19357   2.471  -0.134   2.855  0.4362 -0.1257 -0.2645
  147MOL0     H19358   2.442  -0.362   2.918 -1.4504 -0.8575 -0.8929
  147MOL0     H19359   2.290  -0.382   2.984  0.2071 -0.6424  1.3683
  147MOL0     H19360   2.462  -0.394   3.221 -1.7623 -1.0180  0.3675
  147MOL0     H19361   2.525  -0.502   3.093  2.4382  1.8707  1.4516
  147MOL0     H19362   2.252  -0.516   3.217  0.2843 -0.0222  1.5549
  147MOL0     H19363   2.302  -0.600   3.074  0.8823  0.9896 -0.7635
  147MOL0     H19364   2.510  -0.685   3.219  0.1375 -0.2477  0.9345
  147MOL0     H19365   2.363  -0.756   3.228 -0.4413  0.8983 -2.6697
  147MOL0     H19366   2.165  -0.762   3.316  2.1968  0.1553 -0.3070
  147MOL0     H19367   1.996  -0.841   3.486 -1.7856  1.2777  2.1255
  147MOL0     H19368   1.750  -1.081   3.673  2.3983 -0.8498  0.8857
  147MOL0     H19369   1.556  -1.172   3.810  2.4395 -1.6622 -0.9778
  147MOL0     H19370   1.348  -0.887   4.040 -0.9339  0.8143  1.7622
  147MOL0     H19371   1.436  -0.939   4.181  0.2830  0.2651 -0.5372
  147MOL0     H19372   1.186  -0.951   4.177 -1.0617 -1.1465  1.0734
  147MOL0     H19373   1.274  -1.082   4.255  2.6246  1.1766 -0.1414
  147MOL0     H19374   1.246  -1.222   4.044  0.2317 -0.8521  0.0010
  147MOL0     H19375   1.155  -1.088   3.967 -1.5813  0.4239  0.1362
  147MOL0     H19376   1.087  -1.246   4.208 -0.8727 -0.1856  0.6054
  147MOL0     H19377   0.996  -1.098   4.169 -1.2069 -2.7149  1.7571
  147MOL0     H19378   0.919  -1.333   4.091  1.1827 -0.2475 -0.0781
  147MOL0     H19379   1.029  -1.307   3.953 -0.1439 -0.7166  1.1238
  147MOL0     H19380   0.911  -1.096   3.893 -2.0222  2.3380  1.4953
  147MOL0     H19381   0.823  -1.095   4.038  1.8305 -0.4193  1.4111
  147MOL0     H19382   0.771  -1.291   3.802  0.7133 -2.2647 -0.2602
  147MOL0     H19383   0.750  -1.351   3.959 -0.4571  0.2773  0.2959
  147MOL0     H19384   0.542  -1.216   3.845  1.1864  1.0687 -2.3510
  147MOL0     H19385   0.627  -1.079   3.887 -1.5016  1.1204  2.3825
  147MOL0     H19386   1.615  -0.875   4.099  2.3089 -1.3123  0.4013
  147MOL0     H19387   1.804  -0.790   3.992  1.3765 -0.9757  1.4064
  147MOL0     H19388   2.195  -0.623   3.791 -1.2438  0.1618 -0.1531
  147MOL0     H19389   2.395  -0.609   3.631 -0.2303  1.9593 -1.4054
  147MOL0     H19390   3.447   0.660   2.836 -2.6532  1.8491  0.0247
  147MOL0     H19391   3.697   0.649   2.759  0.3282  0.0365 -0.6848
  147MOL0     H19392   3.996   0.939   2.337 -1.6484  0.0426 -0.3422
  147MOL0     H19393   4.258   0.903   2.285  0.9334 -0.6246  1.2386
  147MOL0     H19394   4.423   0.511   2.380  0.2577  0.7518 -2.6789
  147MOL0     H19395   4.484   0.628   2.506 -0.4745  0.7120  0.3825
  147MOL0     H19396   4.590   0.616   2.220  0.8401  1.4017  1.1013
  147MOL0     H19397   4.647   0.718   2.358  3.7250 -1.2406  2.6370
  147MOL0     H19398   4.636   0.425   2.368 -0.5960  0.5440 -1.5115
  147MOL0     H19399   4.725   0.525   2.476 -3.0805 -0.3832  0.0647
  147MOL0     H19400   4.787   0.482   2.185 -2.3547  0.9444  1.1989
  147MOL0     H19401   4.888   0.592   2.288  0.6639 -0.9231  1.1451
  147MOL0     H19402   5.023   0.202   2.379  1.1871  0.9519 -0.8932
  147MOL0     H19403   4.212   0.500   2.407 -0.7392 -0.0603  0.7707
  147MOL0     H19404   3.976   0.529   2.450  0.6633 -1.8113 -4.6993
  148MOL0     O19405  10.587   5.475  11.076 -0.2476  0.1448 -0.3492
  148MOL0     C19406  10.544   5.386  11.151  0.0806 -0.1547  0.5157
  148MOL0     O19407  10.618   5.308  11.228 -1.0895 -0.8691  1.2521
  148MOL0     C19408  10.755   5.339  11.229 -0.0128  0.6105  0.2840
  148MOL0     C19409  10.825   5.408  11.330  0.1120 -0.5025 -0.5614
  148MOL0     C19410  10.964   5.434  11.326 -0.6512  0.4409 -0.0111
  148MOL0     C19411  11.037   5.401  11.211  0.6945 -0.4321  0.2883
  148MOL0     O19412  11.173   5.422  11.214  0.1555  0.3262 -0.1244
  148MOL0     C19413  11.232   5.304  11.265  0.7870 -0.2808  0.7161
  148MOL0     C19414  11.376   5.328  11.301  0.0574 -0.0573  0.2229
  148MOL0     C19415  11.451   5.360  11.178  0.7344 -0.0033 -0.3613
  148MOL0     C19416  11.599   5.354  11.204 -0.4468 -0.0870 -0.6681
  148MOL0     C19417  11.688   5.402  11.085 -0.0640 -0.1043 -0.4271
  148MOL0     C19418  11.839   5.417  11.117 -0.4802  0.1305 -0.5179
  148MOL0     C19419  11.917   5.282  11.151 -0.6270  0.2785 -0.2652
  148MOL0     C19420  12.051   5.317  11.222 -0.2207 -0.1101  0.3446
  148MOL0     N19421  12.035   5.340  11.364  0.3366  0.4880 -0.3779
  148MOL0     C19422  11.943   5.285  11.448 -0.4533  0.3334 -0.0756
  148MOL0     C19423  11.942   5.367  11.551  0.4843  0.3565  0.5659
  148MOL0     C19424  11.845   5.351  11.658 -0.8874  0.1053 -0.2259
  148MOL0     C19425  11.703   5.397  11.634 -0.6411 -0.4829  0.1564
  148MOL0     C19426  11.612   5.409  11.763 -0.7991  0.1190  0.1790
  148MOL0     C19427  11.472   5.419  11.719 -0.2532 -0.3507  0.0154
  148MOL0     O19428  11.442   5.288  11.666  0.9541  0.3529  0.9065
  148MOL0     C19429  11.311   5.269  11.631 -0.2648 -0.1832 -0.0283
  148MOL0     C19430  11.206   5.358  11.653 -0.4707 -0.3032 -0.3313
  148MOL0     C19431  11.074   5.324  11.614  0.0899 -0.2629 -0.4943
  148MOL0     C19432  11.042   5.201  11.565  0.3697  0.4005  0.3751
  148MOL0     C19433  10.892   5.159  11.563  0.4140 -0.2671  0.3009
  148MOL0     O19434  10.799   5.238  11.624 -0.2658  0.3570  0.0404
  148MOL0     C19435  10.667   5.212  11.619  0.2490  0.1589  0.5036
  148MOL0     C19436  10.572   5.306  11.576  0.3099 -0.4160 -0.2874
  148MOL0     C19437  10.426   5.281  11.582  0.7853 -0.6226  1.1219
  148MOL0     C19438  10.387   5.150  11.608 -0.5489  0.4689  0.5688
  148MOL0     O19439  10.250   5.112  11.606  0.2902  0.8277 -0.0551
  148MOL0     C19440  10.178   5.134  11.727 -0.3567 -0.0213 -0.2237
  148MOL0     C19441  10.075   5.250  11.707 -0.2661  0.1595  0.5559
  148MOL0     C19442   9.957   5.183  11.630  0.5601  0.1943 -0.4316
  148MOL0     C19443   9.843   5.274  11.610 -0.4083  0.1209 -0.3738
  148MOL0     C19444   9.738   5.206  11.532 -0.3251 -0.7318  0.2956
  148MOL0     C19445   9.652   5.315  11.466 -0.6060  0.8410  0.0394
  148MOL0     C19446   9.682   5.327  11.318  0.7793  0.0265  0.0415
  148MOL0     C19447   9.590   5.438  11.256 -0.3022  0.3944 -0.1320
  148MOL0    Cl19448   9.426   5.368  11.248 -0.0880 -0.5189 -0.2249
  148MOL0     C19449  10.485   5.051  11.641  0.1157  0.2094  0.1370
  148MOL0     C19450  10.622   5.082  11.653 -0.1794  0.3825  0.6704
  148MOL0     O19451  10.870   5.061  11.494 -0.6280  0.2953 -0.6966
  148MOL0     C19452  11.147   5.109  11.543 -0.4055  0.5346 -0.1833
  148MOL0     C19453  11.283   5.146  11.561 -0.1641 -0.2881 -0.4617
  148MOL0     N19454  12.036   5.460  11.547  0.5881  0.5830  0.1728
  148MOL0     N19455  12.084   5.439  11.432 -0.3480 -0.4691  0.2265
  148MOL0     C19456  10.965   5.331  11.106 -0.1199 -0.0828  0.8686
  148MOL0     C19457  10.828   5.298  11.113 -0.2907  0.1268  0.6019
  148MOL0     C19458  10.399   5.370  11.175  0.5220 -0.6930  0.4783
  148MOL0     C19459  10.304   5.474  11.134 -0.8503 -0.6245  0.7282
  148MOL0     C19460  10.159   5.442  11.138 -0.2220  0.1482 -0.0236
  148MOL0     C19461  10.119   5.313  11.174  0.2888  0.1544 -0.6538
  148MOL0     O19462   9.987   5.284  11.153  0.3920 -0.0028 -0.0482
  148MOL0     C19463   9.959   5.156  11.097 -1.1078 -0.2714 -0.0404
  148MOL0     C19464   9.836   5.157  11.000 -0.6896  0.4905 -0.3685
  148MOL0     C19465   9.869   5.256  10.889 -0.5612 -1.1629  0.9525
  148MOL0     C19466   9.744   5.262  10.786 -0.4291  0.4118 -0.8044
  148MOL0     C19467   9.624   5.302  10.847 -1.2327 -0.1015 -0.3342
  148MOL0     C19468   9.523   5.317  10.902  0.3556  0.2420 -0.1450
  148MOL0     C19469  10.202   5.229  11.245  0.8830 -0.0160  0.3499
  148MOL0     C19470  10.343   5.260  11.247  0.2869  0.5697  0.7566
  148MOL0     H19471  10.773   5.437  11.420 -0.7921 -1.4968 -0.7414
  148MOL0     H19472  11.016   5.488  11.404 -0.2202  0.2003 -0.1296
  148MOL0     H19473  11.223   5.231  11.184 -0.6855 -1.0814  1.5547
  148MOL0     H19474  11.183   5.274  11.358 -0.1140  0.3547  0.4653
  148MOL0     H19475  11.408   5.241  11.360 -1.0417 -1.1898 -0.8053
  148MOL0     H19476  11.373   5.408  11.376  0.7983  3.0700 -2.8215
  148MOL0     H19477  11.429   5.461  11.140 -1.8286  0.3015  1.6303
  148MOL0     H19478  11.420   5.292  11.098  0.7342 -0.7027  0.2262
  148MOL0     H19479  11.622   5.418  11.290 -0.3804  0.4513 -1.0814
  148MOL0     H19480  11.625   5.249  11.222  0.7242  0.1869 -0.6721
  148MOL0     H19481  11.654   5.503  11.061 -2.7316 -0.7074  0.4628
  148MOL0     H19482  11.678   5.337  10.998 -1.0188  1.4368 -1.5018
  148MOL0     H19483  11.847   5.488  11.200 -0.1876  3.1534 -3.0015
  148MOL0     H19484  11.894   5.460  11.033  2.8137 -2.0089  0.3086
  148MOL0     H19485  11.855   5.219  11.214 -0.7094  2.2581  1.7669
  148MOL0     H19486  11.929   5.237  11.052 -0.6868 -0.6846  0.1650
  148MOL0     H19487  12.096   5.408  11.183  4.0522 -1.8497  0.7125
  148MOL0     H19488  12.125   5.240  11.197  0.3996  0.6275 -0.1192
  148MOL0     H19489  11.879   5.201  11.424 -0.5627 -0.2212  1.9837
  148MOL0     H19490  11.879   5.383  11.757 -1.7747 -1.8910  0.7748
  148MOL0     H19491  11.831   5.245  11.679 -2.6083  0.8732  3.1161
  148MOL0     H19492  11.650   5.329  11.565 -2.0991  0.3876  0.3683
  148MOL0     H19493  11.708   5.495  11.587 -3.4428 -0.3298  0.0076
  148MOL0     H19494  11.618   5.324  11.831  0.8003 -0.3384 -0.4738
  148MOL0     H19495  11.640   5.501  11.817  0.8720 -0.1561 -0.1715
  148MOL0     H19496  11.460   5.504  11.651  0.8882 -0.8710 -0.8674
  148MOL0     H19497  11.419   5.441  11.812 -0.2791  2.3819 -0.5472
  148MOL0     H19498  11.221   5.455  11.699  1.4725  0.4357 -2.2985
  148MOL0     H19499  10.999   5.396  11.644 -0.1327 -1.4103  1.9655
  148MOL0     H19500  10.611   5.400  11.540  0.1820  0.8089  2.5178
  148MOL0     H19501  10.356   5.358  11.550 -0.1828 -0.7789  2.7219
  148MOL0     H19502  10.253   5.161  11.802  0.2478 -1.2264 -0.3653
  148MOL0     H19503  10.129   5.042  11.759 -0.1746  0.6175  2.0447
  148MOL0     H19504  10.122   5.333  11.655 -0.6787 -0.5800 -1.0835
  148MOL0     H19505  10.040   5.289  11.802  1.3698  0.5698  1.0059
  148MOL0     H19506   9.912   5.100  11.686  1.7040 -0.9012 -1.0936
  148MOL0     H19507   9.987   5.147  11.531 -0.1980 -0.3633 -0.4698
  148MOL0     H19508   9.784   5.298  11.699 -3.9843  2.0264 -3.0128
  148MOL0     H19509   9.875   5.367  11.562  0.5387  0.3918  0.7283
  148MOL0     H19510   9.683   5.133  11.591 -0.3778  1.3574  3.0346
  148MOL0     H19511   9.785   5.152  11.449  0.0074 -0.3521  0.2324
  148MOL0     H19512   9.670   5.410  11.517  0.8255  0.7557 -0.2798
  148MOL0     H19513   9.547   5.281  11.466 -0.2792 -0.2479  0.9666
  148MOL0     H19514   9.786   5.360  11.307  1.4404 -1.7141  0.7878
  148MOL0     H19515   9.679   5.231  11.266  1.5626  0.5631 -1.0316
  148MOL0     H19516   9.623   5.451  11.153  3.4517 -2.4150  0.4900
  148MOL0     H19517   9.598   5.534  11.308  0.5846 -0.5943  1.6646
  148MOL0     H19518  10.450   4.952  11.666 -0.2347  0.8468  2.4388
  148MOL0     H19519  10.697   5.007  11.673 -1.4402 -0.7757  1.2425
  148MOL0     H19520  11.134   5.005  11.513  2.8457 -1.0088  2.9526
  148MOL0     H19521  11.371   5.084  11.551 -0.2341 -0.9129  1.9790
  148MOL0     H19522  11.009   5.285  11.017  0.2878  2.2907 -0.2379
  148MOL0     H19523  10.782   5.243  11.032 -3.2799  2.8095  0.2717
  148MOL0     H19524  10.331   5.569  11.089 -1.4402 -0.6610  0.2748
  148MOL0     H19525  10.085   5.518  11.115  0.2367  0.1915 -1.4639
  148MOL0     H19526   9.930   5.097  11.184  0.4892  0.5482  1.1034
  148MOL0     H19527  10.047   5.113  11.049 -0.6481 -0.0708  0.6037
  148MOL0     H19528   9.820   5.059  10.952  1.1911  0.0580 -0.1820
  148MOL0     H19529   9.743   5.188  11.048 -1.2300 -0.2263 -0.9113
  148MOL0     H19530   9.961   5.232  10.835 -0.0889  2.1536  0.0386
  148MOL0     H19531   9.890   5.358  10.922 -2.4654 -0.7711  1.0954
  148MOL0     H19532   9.768   5.334  10.707  0.9334 -1.0635 -1.8177
  148MOL0     H19533   9.740   5.161  10.743 -0.8350 -0.7980  1.8906
  148MOL0     H19534   9.427   5.342  10.941 -0.1065 -0.7465 -0.6195
  148MOL0     H19535  10.160   5.146  11.301 -3.6460  0.5584 -1.7675
  148MOL0     H19536  10.412   5.198  11.302 -1.7459  0.0651  2.9271
  149MOL0     O19537   7.276   5.202   8.394 -0.0616 -0.5560  0.2901
  149MOL0     C19538   7.213   5.253   8.478  0.0491 -0.0682 -0.7062
  149MOL0     O19539   7.261   5.283   8.597 -0.3022 -0.4894 -0.0189
  149MOL0     C19540   7.399   5.255   8.630  1.1874  0.0300  0.5828
  149MOL0     C19541   7.498   5.304   8.543  0.7107 -0.0101  0.5768
  149MOL0     C19542   7.632   5.303   8.582 -0.4004  1.0555  1.2149
  149MOL0     C19543   7.661   5.234   8.699  0.1260  0.3659  0.3642
  149MOL0     O19544   7.790   5.220   8.752  0.4258  0.3508  0.9509
  149MOL0     C19545   7.890   5.211   8.649 -0.5383 -0.4355 -0.0367
  149MOL0     C19546   8.024   5.208   8.717 -0.8092  0.5404 -0.3657
  149MOL0     C19547   8.137   5.190   8.607 -0.5169 -0.1308 -0.3310
  149MOL0     C19548   8.273   5.238   8.650 -0.1560  0.5070  0.6429
  149MOL0     C19549   8.383   5.248   8.547 -0.4941  0.7312  0.9193
  149MOL0     C19550   8.415   5.112   8.482 -0.1847  0.6466  0.4825
  149MOL0     C19551   8.546   5.128   8.394  0.5100 -0.7184 -0.1941
  149MOL0     C19552   8.538   5.236   8.285  0.1327  0.8543 -0.3810
  149MOL0     N19553   8.425   5.213   8.195 -0.0319  0.1762 -0.2661
  149MOL0     C19554   8.293   5.243   8.206 -0.2393 -0.3598  0.2641
  149MOL0     C19555   8.230   5.197   8.096 -1.2401  0.8374 -0.3297
  149MOL0     C19556   8.083   5.219   8.064  0.2583 -0.3523  0.3173
  149MOL0     C19557   7.976   5.158   8.155  0.9872  0.6978 -0.2946
  149MOL0     C19558   7.835   5.199   8.109 -0.0877  0.5999  0.1754
  149MOL0     C19559   7.737   5.151   8.214  0.0523 -0.2347  0.1284
  149MOL0     O19560   7.763   5.014   8.257 -0.6363  0.7585  0.0877
  149MOL0     C19561   7.667   4.947   8.325  0.8287  0.3859  0.4302
  149MOL0     C19562   7.546   5.004   8.367  0.2933  0.4942 -0.7326
  149MOL0     C19563   7.458   4.944   8.458 -1.1004 -0.3328  0.1577
  149MOL0     C19564   7.485   4.808   8.496 -0.1168 -0.0487  0.2945
  149MOL0     C19565   7.396   4.746   8.593  0.2426  0.8167  0.3056
  149MOL0     O19566   7.308   4.823   8.656  0.5313 -0.2347  0.1335
  149MOL0     C19567   7.204   4.776   8.729  0.4474  0.0959 -0.2343
  149MOL0     C19568   7.168   4.643   8.759  0.7634  0.9283 -0.0551
  149MOL0     C19569   7.049   4.605   8.828 -0.3193  0.2386  0.5535
  149MOL0     C19570   6.961   4.705   8.866  1.3144  0.0216 -0.2503
  149MOL0     O19571   6.842   4.688   8.938  0.0509  0.4981  0.0051
  149MOL0     C19572   6.762   4.590   8.873 -0.1721  0.1050 -0.0788
  149MOL0     C19573   6.645   4.556   8.955  0.1431 -0.0347  0.0007
  149MOL0     C19574   6.567   4.678   8.996 -0.9669 -0.3288  0.7802
  149MOL0     C19575   6.422   4.636   9.041  0.7255  0.3556  0.3722
  149MOL0     C19576   6.360   4.763   9.098 -0.2855 -0.5645 -0.9682
  149MOL0     C19577   6.227   4.733   9.162  0.2476  1.2333  0.3485
  149MOL0     C19578   6.110   4.729   9.067 -0.4831  0.1892  0.1694
  149MOL0     C19579   5.977   4.718   9.148  0.1573  1.3276 -0.7338
  149MOL0    Cl19580   5.982   4.562   9.256  0.1767 -0.1080  0.3445
  149MOL0     C19581   6.992   4.839   8.833  0.5528  1.0617  0.6451
  149MOL0     C19582   7.106   4.875   8.761  0.9381 -0.4698  0.4151
  149MOL0     O19583   7.410   4.621   8.608  0.5987  0.3680 -0.6004
  149MOL0     C19584   7.600   4.746   8.445 -0.2817 -0.5742 -0.2287
  149MOL0     C19585   7.689   4.813   8.361  0.3840  0.3823  0.5903
  149MOL0     N19586   8.322   5.125   8.024  0.5102 -1.0296 -0.1527
  149MOL0     N19587   8.431   5.127   8.086  0.0837 -0.3364 -0.7522
  149MOL0     C19588   7.565   5.191   8.783  0.9994  0.3838 -0.8912
  149MOL0     C19589   7.428   5.198   8.748  0.9224  0.8416  1.1990
  149MOL0     C19590   7.067   5.281   8.467  0.3198 -0.4034  0.3521
  149MOL0     C19591   7.000   5.241   8.356 -1.1043  0.1140  0.7531
  149MOL0     C19592   6.861   5.248   8.351  1.0221  0.0534 -0.7170
  149MOL0     C19593   6.787   5.285   8.460  0.1395  1.9110  0.8133
  149MOL0     O19594   6.653   5.269   8.451 -0.3269 -0.0686  0.5543
  149MOL0     C19595   6.562   5.343   8.523  0.2854  0.3881 -0.1323
  149MOL0     C19596   6.418   5.295   8.507 -0.1929 -0.4441  0.4334
  149MOL0     C19597   6.364   5.330   8.374 -0.4565  1.0537  1.2214
  149MOL0     C19598   6.281   5.455   8.373  0.3588 -0.0061 -0.7572
  149MOL0     C19599   6.237   5.489   8.238  0.4334 -0.4205  0.1668
  149MOL0     C19600   6.186   5.521   8.137  0.4970 -0.0776 -0.2115
  149MOL0     C19601   6.857   5.330   8.577  0.2399 -0.1127 -0.4278
  149MOL0     C19602   6.996   5.337   8.569 -0.4333 -0.2109  0.2930
  149MOL0     H19603   7.472   5.350   8.448 -1.1091  1.0582  1.5333
  149MOL0     H19604   7.713   5.329   8.515  0.6225 -1.9401  1.1061
  149MOL0     H19605   7.897   5.303   8.591  1.2750 -1.1240 -0.9570
  149MOL0     H19606   7.867   5.132   8.577 -0.3610 -0.2023 -0.3531
  149MOL0     H19607   8.040   5.124   8.786  0.1500  0.4309 -0.6988
  149MOL0     H19608   8.040   5.305   8.764  1.6231  1.4789 -2.8584
  149MOL0     H19609   8.109   5.247   8.518  1.1388 -0.6457 -1.2027
  149MOL0     H19610   8.148   5.086   8.577  1.4408  0.4086 -1.6687
  149MOL0     H19611   8.259   5.339   8.688 -2.8518  0.8144 -0.9164
  149MOL0     H19612   8.311   5.180   8.734  2.9098 -2.5520 -2.4803
  149MOL0     H19613   8.472   5.300   8.584  0.5413  0.1845 -0.6587
  149MOL0     H19614   8.356   5.317   8.466 -0.3400 -0.9336 -0.6125
  149MOL0     H19615   8.331   5.078   8.421 -0.1730  2.0156 -0.3214
  149MOL0     H19616   8.445   5.034   8.553  1.4809 -0.5257 -1.3941
  149MOL0     H19617   8.621   5.161   8.466 -3.3387  1.5103  3.2211
  149MOL0     H19618   8.556   5.030   8.346 -2.7604 -1.7734  1.0568
  149MOL0     H19619   8.625   5.235   8.219  0.4606 -0.6178  0.0434
  149MOL0     H19620   8.523   5.338   8.321  0.7441  0.0211  2.4296
  149MOL0     H19621   8.266   5.322   8.276  1.7760  1.0647 -0.4861
  149MOL0     H19622   8.068   5.188   7.960  2.7870  0.8970 -0.5175
  149MOL0     H19623   8.071   5.328   8.070 -0.8907 -0.5212  1.4432
  149MOL0     H19624   7.975   5.182   8.262 -5.0673  1.5534 -0.2311
  149MOL0     H19625   7.990   5.049   8.161  1.2736  0.7163 -0.5713
  149MOL0     H19626   7.835   5.303   8.077 -0.1195  1.3437  2.3978
  149MOL0     H19627   7.809   5.137   8.023 -2.5710 -0.3297  1.4894
  149MOL0     H19628   7.636   5.160   8.173 -0.0395  1.1023  0.5874
  149MOL0     H19629   7.745   5.209   8.307 -0.3475 -0.5584  0.3683
  149MOL0     H19630   7.540   5.111   8.349  1.7985  0.7998  0.3266
  149MOL0     H19631   7.374   4.996   8.504 -0.8020  1.1259 -0.9003
  149MOL0     H19632   7.242   4.568   8.734  1.2401  1.5544 -0.5449
  149MOL0     H19633   7.043   4.501   8.858 -0.9198  0.3752  0.9056
  149MOL0     H19634   6.823   4.499   8.864 -0.3204  0.1835 -2.7205
  149MOL0     H19635   6.738   4.626   8.773  0.4540 -1.3008 -0.7831
  149MOL0     H19636   6.667   4.505   9.050 -1.1224  2.5042  1.7771
  149MOL0     H19637   6.570   4.495   8.904 -0.1895 -0.4824  0.9895
  149MOL0     H19638   6.552   4.739   8.906 -3.2787  1.3318  2.1764
  149MOL0     H19639   6.620   4.729   9.077 -0.7977 -0.0119  0.4720
  149MOL0     H19640   6.368   4.589   8.957  1.0616  0.9940 -0.2049
  149MOL0     H19641   6.428   4.551   9.109  3.4947  0.7390  0.7151
  149MOL0     H19642   6.346   4.842   9.023  3.7997  1.5845  0.2632
  149MOL0     H19643   6.432   4.801   9.171 -1.7331 -1.6726  1.1686
  149MOL0     H19644   6.212   4.794   9.252 -0.9452  2.0583 -0.3704
  149MOL0     H19645   6.231   4.635   9.210  1.9957  1.8237  1.5204
  149MOL0     H19646   6.106   4.828   9.019  2.2616  0.7403  0.9067
  149MOL0     H19647   6.121   4.648   8.995 -3.0548 -0.6445  0.6335
  149MOL0     H19648   5.885   4.718   9.090 -1.6744 -1.9165  1.7998
  149MOL0     H19649   5.976   4.814   9.201  2.0107  2.3753 -2.4758
  149MOL0     H19650   6.919   4.916   8.858  0.8537  1.3601  0.6116
  149MOL0     H19651   7.124   4.979   8.739  0.1376 -0.4305 -0.0962
  149MOL0     H19652   7.621   4.641   8.465 -0.9671 -0.9188 -1.2303
  149MOL0     H19653   7.768   4.755   8.314 -0.1503  1.1402 -1.3219
  149MOL0     H19654   7.604   5.166   8.881  0.9325 -0.7004 -1.1277
  149MOL0     H19655   7.346   5.158   8.807 -0.7649  2.5759  0.1539
  149MOL0     H19656   7.063   5.202   8.276 -0.8703 -0.5223  1.2408
  149MOL0     H19657   6.805   5.215   8.265  0.8338  0.7521 -0.8738
  149MOL0     H19658   6.561   5.447   8.488 -0.0805  1.9873  4.0004
  149MOL0     H19659   6.586   5.344   8.630 -3.0742 -1.0543  0.7684
  149MOL0     H19660   6.409   5.187   8.524  0.6458 -0.5772  0.0942
  149MOL0     H19661   6.355   5.341   8.584  0.4335  0.5053  0.3865
  149MOL0     H19662   6.300   5.251   8.333  1.5424  0.8316 -1.7546
  149MOL0     H19663   6.444   5.346   8.301 -2.3761  6.7123 -0.0893
  149MOL0     H19664   6.198   5.425   8.438  0.8188  0.2965 -0.0169
  149MOL0     H19665   6.331   5.538   8.423 -0.3021  1.1264 -1.9137
  149MOL0     H19666   6.162   5.551   8.037  1.0043  1.6243  0.1467
  149MOL0     H19667   6.800   5.364   8.663 -0.9506 -1.4402 -0.6527
  149MOL0     H19668   7.043   5.382   8.656  0.8741 -0.7605 -0.1028
  150MOL0     O19669  10.128  10.531   8.777  0.3054 -0.0421 -0.5612
  150MOL0     C19670  10.155  10.414   8.810 -0.0272  0.4568 -0.0053
  150MOL0     O19671  10.069  10.320   8.864 -0.2470  0.2133 -0.1085
  150MOL0     C19672   9.935  10.349   8.866 -0.6028 -0.5312 -0.5364
  150MOL0     C19673   9.857  10.382   8.751  0.5929  0.1765 -0.8058
  150MOL0     C19674   9.720  10.414   8.762  0.0743 -0.0078  0.0503
  150MOL0     C19675   9.657  10.411   8.896 -0.1830 -0.5370  0.1274
  150MOL0     O19676   9.528  10.450   8.900  0.1454 -0.4644 -0.8339
  150MOL0     C19677   9.479  10.459   9.033  0.8275  0.0789  0.4540
  150MOL0     C19678   9.343  10.528   9.013 -0.0078 -0.2949  0.2924
  150MOL0     C19679   9.248  10.412   8.966 -0.2860 -0.1156 -0.6890
  150MOL0     C19680   9.114  10.491   8.943  1.2333 -0.0436  0.6147
  150MOL0     C19681   9.012  10.390   8.872 -0.1232 -0.0671 -0.4144
  150MOL0     C19682   8.874  10.451   8.872 -0.4091 -0.3859 -0.2493
  150MOL0     C19683   8.773  10.379   8.779 -1.0192  0.9080 -0.7642
  150MOL0     C19684   8.632  10.440   8.792 -0.5981 -0.3746  0.0320
  150MOL0     N19685   8.525  10.372   8.716  0.2932  0.4465  0.1751
  150MOL0     C19686   8.480  10.245   8.731  0.9452  0.2428 -0.9245
  150MOL0     C19687   8.380  10.239   8.642 -0.4963  0.3437  0.7468
  150MOL0     C19688   8.285  10.117   8.628 -0.0160 -0.1289  0.0756
  150MOL0     C19689   8.157  10.154   8.559 -0.5048  0.9577  0.6461
  150MOL0     C19690   8.072  10.030   8.535  0.8234 -0.8935 -0.6117
  150MOL0     C19691   7.923  10.057   8.544 -0.0500  0.4322  0.0468
  150MOL0     O19692   7.874  10.064   8.681  1.0441 -0.2112 -0.0542
  150MOL0     C19693   7.789   9.958   8.709 -0.4881  0.1614 -0.0309
  150MOL0     C19694   7.663   9.980   8.765  0.8679  0.4072  0.1855
  150MOL0     C19695   7.573   9.877   8.800 -0.1260 -0.9266  0.0259
  150MOL0     C19696   7.602   9.744   8.785  0.6418  0.6699  0.0610
  150MOL0     C19697   7.508   9.635   8.823 -0.0895 -0.1079 -0.8263
  150MOL0     O19698   7.377   9.674   8.832 -0.0733  0.5270  0.5152
  150MOL0     C19699   7.282   9.611   8.909 -0.5892 -0.2662 -0.4719
  150MOL0     C19700   7.311   9.561   9.037  0.1764 -1.1349 -0.0141
  150MOL0     C19701   7.214   9.514   9.126  0.0681  0.2141  0.8840
  150MOL0     C19702   7.078   9.516   9.078  0.1207 -0.7584 -0.0037
  150MOL0     O19703   6.979   9.463   9.159 -0.0660  0.0200 -0.2014
  150MOL0     C19704   6.856   9.427   9.100  0.9407  0.3578  0.2696
  150MOL0     C19705   6.779   9.380   9.226 -0.1831  0.9946  0.2202
  150MOL0     C19706   6.658   9.314   9.163 -0.1129 -0.4399 -1.4239
  150MOL0     C19707   6.564   9.256   9.277  0.2358  0.2591  0.4977
  150MOL0     C19708   6.450   9.175   9.212 -0.8146 -0.0337  1.4060
  150MOL0     C19709   6.328   9.256   9.156  0.3174  0.0395 -0.5408
  150MOL0     C19710   6.204   9.170   9.119 -0.5046 -0.0484 -0.1587
  150MOL0     C19711   6.106   9.265   9.051 -0.0115  0.6994  0.4318
  150MOL0    Cl19712   6.166   9.347   8.906  0.0829  0.0599  0.2174
  150MOL0     C19713   7.049   9.576   8.956  0.0882 -0.1830  0.1948
  150MOL0     C19714   7.147   9.627   8.873 -0.4444 -0.1786  0.9326
  150MOL0     O19715   7.548   9.525   8.854 -0.0615  0.7692 -0.5800
  150MOL0     C19716   7.733   9.713   8.738 -0.2180  0.3417  0.0115
  150MOL0     C19717   7.822   9.819   8.701  0.2739 -0.1649  0.5291
  150MOL0     N19718   8.377  10.352   8.567 -0.5049  0.3303 -0.1347
  150MOL0     N19719   8.468  10.422   8.607  0.2930  0.3642 -0.3722
  150MOL0     C19720   9.739  10.363   9.009  0.4915  0.0971  0.4789
  150MOL0     C19721   9.872  10.334   8.992 -0.4299 -0.0278 -0.1176
  150MOL0     C19722  10.296  10.382   8.813 -0.4757  0.0688  0.3327
  150MOL0     C19723  10.394  10.485   8.794 -0.3163  0.3761 -0.2544
  150MOL0     C19724  10.530  10.453   8.784 -0.2992  0.3054 -0.4221
  150MOL0     C19725  10.575  10.324   8.777 -1.1135 -0.1556 -0.2181
  150MOL0     O19726  10.705  10.290   8.758 -0.2733 -0.1422 -0.1971
  150MOL0     C19727  10.807  10.381   8.720 -0.2477  0.0661  0.4587
  150MOL0     C19728  10.947  10.313   8.711 -0.6412 -0.3726 -0.1354
  150MOL0     C19729  10.951  10.182   8.623 -0.2663 -0.0532 -0.6850
  150MOL0     C19730  11.083  10.105   8.633  0.0001  0.5237 -1.1154
  150MOL0     C19731  11.151  10.111   8.503 -0.7272 -0.7361  0.0039
  150MOL0     C19732  11.201  10.129   8.393  0.1473  0.4203 -0.5105
  150MOL0     C19733  10.483  10.220   8.804 -0.0144 -0.3876 -0.1171
  150MOL0     C19734  10.343  10.250   8.825  1.1178  1.0550  0.5798
  150MOL0     H19735   9.909  10.409   8.660  1.9819 -0.0674 -0.1139
  150MOL0     H19736   9.652  10.432   8.680 -0.5873  0.6433  0.7203
  150MOL0     H19737   9.551  10.511   9.096  2.3700 -0.8864 -0.4625
  150MOL0     H19738   9.454  10.361   9.076 -1.4416  0.2366 -0.3831
  150MOL0     H19739   9.340  10.614   8.945  2.2384 -2.3216 -2.6224
  150MOL0     H19740   9.306  10.561   9.111 -0.7981  0.4512 -0.2370
  150MOL0     H19741   9.230  10.339   9.045 -2.5549 -0.0726 -1.0949
  150MOL0     H19742   9.281  10.376   8.868  5.1231 -0.4259  0.9170
  150MOL0     H19743   9.063  10.525   9.034 -1.6513  1.5131 -1.4193
  150MOL0     H19744   9.124  10.574   8.872 -1.8561  1.2233  1.4553
  150MOL0     H19745   9.028  10.297   8.927  3.4286 -0.3454 -1.6534
  150MOL0     H19746   9.042  10.369   8.768  2.4329 -3.5764  0.8344
  150MOL0     H19747   8.882  10.557   8.850 -3.2615 -0.3136 -1.3075
  150MOL0     H19748   8.838  10.441   8.975 -1.3771  0.4932 -0.4911
  150MOL0     H19749   8.822  10.376   8.680  1.3219  1.1811  0.3157
  150MOL0     H19750   8.760  10.279   8.823 -0.3266  1.3665  0.5245
  150MOL0     H19751   8.634  10.544   8.760  5.5374 -0.2982 -0.4465
  150MOL0     H19752   8.605  10.441   8.898 -1.3807  0.7989 -0.1597
  150MOL0     H19753   8.509  10.162   8.795  1.7979 -0.1683 -1.7976
  150MOL0     H19754   8.256  10.078   8.726 -0.3133  3.8264  1.7315
  150MOL0     H19755   8.350  10.039   8.588  0.3018 -0.0991  0.5371
  150MOL0     H19756   8.163  10.211   8.466 -3.1640 -0.2535 -0.3805
  150MOL0     H19757   8.111  10.218   8.635  1.2886  1.7144  1.1486
  150MOL0     H19758   8.097  10.006   8.431 -0.0320  1.1940 -1.3542
  150MOL0     H19759   8.098   9.945   8.600  1.1310 -1.1877 -1.1121
  150MOL0     H19760   7.866   9.986   8.483  0.6141 -0.6289  0.6402
  150MOL0     H19761   7.903  10.152   8.493  0.9446  0.3350 -0.5411
  150MOL0     H19762   7.635  10.083   8.785  2.8242  1.2309 -1.0300
  150MOL0     H19763   7.486   9.913   8.855  0.5106 -1.0508  1.1474
  150MOL0     H19764   7.413   9.558   9.074  0.1028  2.5254  0.9583
  150MOL0     H19765   7.241   9.473   9.223  0.8442  2.1101  1.5204
  150MOL0     H19766   6.879   9.356   9.020  0.0141 -2.3801  2.2816
  150MOL0     H19767   6.806   9.515   9.058 -1.1652  0.4278  2.6820
  150MOL0     H19768   6.754   9.460   9.296  0.3404  1.3531 -0.0002
  150MOL0     H19769   6.825   9.306   9.292 -0.9262  0.4182  0.1101
  150MOL0     H19770   6.689   9.239   9.090 -1.1674  0.7318 -3.1559
  150MOL0     H19771   6.594   9.388   9.114  0.6225  0.8887 -0.4733
  150MOL0     H19772   6.624   9.195   9.346  0.3618 -0.8626 -0.5528
  150MOL0     H19773   6.523   9.344   9.327 -1.0404  2.1025 -3.4211
  150MOL0     H19774   6.419   9.095   9.280 -0.6026 -1.1258  0.2696
  150MOL0     H19775   6.504   9.133   9.127 -3.3159  2.0245 -1.3937
  150MOL0     H19776   6.366   9.318   9.074 -0.8710  0.7093 -0.6214
  150MOL0     H19777   6.297   9.326   9.234  1.7803  0.4633 -0.3225
  150MOL0     H19778   6.238   9.098   9.043 -0.0749 -0.0443  0.0276
  150MOL0     H19779   6.173   9.107   9.203  0.7422 -1.1805 -0.4986
  150MOL0     H19780   6.076   9.349   9.114  1.9419  0.3347  1.9520
  150MOL0     H19781   6.017   9.209   9.022 -0.3225  0.5577  1.6453
  150MOL0     H19782   6.946   9.598   8.932  0.1903 -0.7680 -0.7881
  150MOL0     H19783   7.119   9.687   8.787 -1.5366 -3.2703 -1.0358
  150MOL0     H19784   7.776   9.613   8.736 -0.5248  0.1546  1.5992
  150MOL0     H19785   7.914   9.794   8.649 -0.9448 -1.5568 -1.0549
  150MOL0     H19786   9.708  10.356   9.113  2.7108 -0.2522  1.1766
  150MOL0     H19787   9.924  10.293   9.077 -0.9074 -2.2424 -0.8335
  150MOL0     H19788  10.376  10.592   8.798  0.9797  0.5967  0.4076
  150MOL0     H19789  10.586  10.545   8.771  0.6169 -0.1008  0.5417
  150MOL0     H19790  10.802  10.460   8.794  0.9215  0.2074  0.3968
  150MOL0     H19791  10.779  10.423   8.623 -4.3993 -0.5069  1.1991
  150MOL0     H19792  11.017  10.389   8.675 -0.7135 -0.3693 -0.2704
  150MOL0     H19793  10.972  10.276   8.810  0.5410 -0.6706 -0.5373
  150MOL0     H19794  10.925  10.210   8.520  0.7323  5.2132  0.2386
  150MOL0     H19795  10.889  10.106   8.672  0.7058  0.0588  0.7867
  150MOL0     H19796  11.147  10.139   8.714 -0.2606  1.2886 -1.2168
  150MOL0     H19797  11.067   9.997   8.647 -0.5661  0.9816  2.8644
  150MOL0     H19798  11.255  10.157   8.304  0.8530  1.7654  0.3006
  150MOL0     H19799  10.535  10.125   8.799 -1.0417 -0.9422 -0.6203
  150MOL0     H19800  10.281  10.164   8.846 -0.5313  2.3255  1.1763
  151MOL0     O19801   2.950   6.543  10.277  1.2703  0.6529 -0.1110
  151MOL0     C19802   3.025   6.615  10.204 -0.2104 -0.2669 -0.2918
  151MOL0     O19803   3.010   6.655  10.074 -0.1540  0.0415  0.3681
  151MOL0     C19804   2.898   6.615  10.011  0.8937 -0.2588 -0.7605
  151MOL0     C19805   2.914   6.537   9.911 -0.1570  0.4477  0.1169
  151MOL0     C19806   2.809   6.500   9.824 -0.8442 -0.2678 -0.4828
  151MOL0     C19807   2.682   6.546   9.847 -0.9243  0.3722  0.3121
  151MOL0     O19808   2.589   6.519   9.753 -0.3129  0.0592 -0.2951
  151MOL0     C19809   2.515   6.631   9.695  0.5675  0.2893  1.4292
  151MOL0     C19810   2.601   6.756   9.647 -0.2276  0.0293 -0.5454
  151MOL0     C19811   2.540   6.884   9.595 -0.7316 -0.1603  0.0450
  151MOL0     C19812   2.648   6.967   9.516  0.3991 -0.8562 -0.4621
  151MOL0     C19813   2.758   7.028   9.603 -0.4815 -0.1884  0.1951
  151MOL0     C19814   2.688   7.159   9.666 -0.0109  1.2203  0.2235
  151MOL0     C19815   2.787   7.220   9.766  0.2649  0.4807 -0.1111
  151MOL0     C19816   2.874   7.331   9.709 -0.9333 -0.0831 -0.1940
  151MOL0     N19817   2.948   7.392   9.821  0.4091  0.5717 -0.1439
  151MOL0     C19818   2.888   7.450   9.934 -0.5327 -0.2542 -0.0278
  151MOL0     C19819   2.995   7.513   9.999  0.0402 -0.9008  0.6906
  151MOL0     C19820   2.974   7.605  10.120 -0.1526  0.4261 -0.0713
  151MOL0     C19821   2.996   7.537  10.262  0.0730  0.4747 -1.0026
  151MOL0     C19822   3.143   7.492  10.287  0.0398  0.0765  0.8777
  151MOL0     C19823   3.238   7.607  10.321  0.7855 -0.2457 -0.5458
  151MOL0     O19824   3.276   7.678  10.211 -0.1424  0.6214  0.4995
  151MOL0     C19825   3.404   7.663  10.162 -0.7121 -0.2315 -0.9330
  151MOL0     C19826   3.530   7.712  10.211  0.2092  0.4594 -0.1071
  151MOL0     C19827   3.643   7.711  10.132 -1.1087 -0.3236  0.2325
  151MOL0     C19828   3.645   7.635  10.017  0.0334  0.4541  0.1630
  151MOL0     C19829   3.781   7.607   9.954  0.0534 -0.7725 -0.6245
  151MOL0     O19830   3.892   7.671  10.019 -0.3770  0.1948 -0.1399
  151MOL0     C19831   4.018   7.641   9.971  0.2996  0.4578 -0.4896
  151MOL0     C19832   4.112   7.703  10.050 -0.0963  0.1081  0.1290
  151MOL0     C19833   4.242   7.711  10.013 -0.1839  0.0860  0.0583
  151MOL0     C19834   4.290   7.656   9.889  0.9501 -0.6082  0.4159
  151MOL0     O19835   4.423   7.678   9.846 -0.3782  0.7876  0.4482
  151MOL0     C19836   4.512   7.608   9.934  0.0367 -0.1811 -0.2367
  151MOL0     C19837   4.596   7.724  10.000 -0.0746 -0.1958 -0.4859
  151MOL0     C19838   4.731   7.663  10.048 -0.4433 -0.3966 -0.2086
  151MOL0     C19839   4.838   7.763  10.082 -0.5615 -0.1166  0.8031
  151MOL0     C19840   4.966   7.692  10.121 -0.4249  0.6548 -0.5311
  151MOL0     C19841   5.088   7.784  10.134  0.1775 -0.1018  0.9197
  151MOL0     C19842   5.103   7.832  10.278 -0.1896  0.1727  0.3232
  151MOL0     C19843   5.245   7.869  10.310 -0.0530  0.1921  0.2847
  151MOL0    Cl19844   5.247   7.937  10.472  0.0631 -0.0181  0.4758
  151MOL0     C19845   4.192   7.607   9.799 -0.5454 -0.0762  0.1204
  151MOL0     C19846   4.062   7.589   9.844 -0.0805 -0.2865  0.5614
  151MOL0     O19847   3.782   7.528   9.860 -0.2733 -0.8082 -0.3436
  151MOL0     C19848   3.523   7.573   9.975 -0.1060  0.7103  0.5617
  151MOL0     C19849   3.406   7.595  10.039 -0.7006 -0.2799 -1.0398
  151MOL0     N19850   3.109   7.483   9.923  0.2370 -0.5537 -0.7026
  151MOL0     N19851   3.081   7.413   9.818  0.5589 -0.7601 -0.6724
  151MOL0     C19852   2.658   6.609   9.963 -0.2062 -0.5338  0.5139
  151MOL0     C19853   2.768   6.648  10.051  0.6774 -0.7540  0.3905
  151MOL0     C19854   3.138   6.673  10.274  0.1159 -0.5430 -0.8834
  151MOL0     C19855   3.247   6.730  10.210 -0.5138 -0.4080  0.7168
  151MOL0     C19856   3.362   6.777  10.273 -0.1877 -0.1875  0.7400
  151MOL0     C19857   3.371   6.788  10.412  0.1919  0.1619  0.4887
  151MOL0     O19858   3.477   6.859  10.474 -0.5011  0.3662 -0.0333
  151MOL0     C19859   3.542   6.831  10.602  1.1344  0.4594 -0.1827
  151MOL0     C19860   3.591   6.688  10.622 -0.7541  0.5516 -0.6726
  151MOL0     C19861   3.693   6.645  10.526 -0.2508 -0.1259  0.1635
  151MOL0     C19862   3.811   6.743  10.488  0.4808  0.0789 -0.5245
  151MOL0     C19863   3.884   6.761  10.617 -0.5188 -0.7356 -0.2120
  151MOL0     C19864   3.936   6.760  10.726 -0.1185 -0.8210  0.2176
  151MOL0     C19865   3.257   6.737  10.481 -0.4622  0.9090  0.7900
  151MOL0     C19866   3.144   6.684  10.414  0.0569  1.2569  0.3296
  151MOL0     H19867   3.019   6.516   9.895  0.1710  1.0654  1.3098
  151MOL0     H19868   2.826   6.448   9.731 -2.4151  0.4322 -1.1993
  151MOL0     H19869   2.438   6.659   9.767 -2.4868 -2.6833 -0.4407
  151MOL0     H19870   2.461   6.599   9.606  0.9657  1.0398  0.9078
  151MOL0     H19871   2.672   6.726   9.569  1.0366  2.1612 -0.2771
  151MOL0     H19872   2.662   6.793   9.730 -1.4843  0.9894 -0.0308
  151MOL0     H19873   2.491   6.929   9.682 -0.6303  1.4709 -0.7139
  151MOL0     H19874   2.462   6.860   9.522 -2.3897  2.9209  0.6478
  151MOL0     H19875   2.693   6.896   9.446  0.0871 -0.1646 -1.3894
  151MOL0     H19876   2.603   7.039   9.447  2.9993  1.6316  0.2588
  151MOL0     H19877   2.843   7.050   9.538  0.1907 -1.3342  0.6632
  151MOL0     H19878   2.793   6.956   9.678  1.1203  0.0690 -0.2777
  151MOL0     H19879   2.602   7.127   9.725  2.2170 -2.1434  1.9886
  151MOL0     H19880   2.662   7.218   9.578 -0.4350  0.1310 -0.3920
  151MOL0     H19881   2.723   7.267   9.842 -0.7971 -0.2649 -0.5076
  151MOL0     H19882   2.845   7.146   9.822 -0.0830  1.3118  1.3891
  151MOL0     H19883   2.815   7.415   9.671 -1.3347  1.7495  4.0008
  151MOL0     H19884   2.954   7.296   9.642 -2.0156 -0.0539 -1.5363
  151MOL0     H19885   2.782   7.457   9.956 -1.0662 -0.8597 -2.1755
  151MOL0     H19886   2.871   7.640  10.128 -0.0612  0.2444  2.6805
  151MOL0     H19887   3.044   7.688  10.108  0.0620 -0.0689 -3.0418
  151MOL0     H19888   2.934   7.450  10.285  0.8288  0.4362  1.1003
  151MOL0     H19889   2.967   7.598  10.348 -0.0796 -3.4662  2.0053
  151MOL0     H19890   3.136   7.430  10.376 -0.7412 -1.5949 -0.2919
  151MOL0     H19891   3.178   7.439  10.198  1.2670  0.2592  1.2265
  151MOL0     H19892   3.308   7.559  10.390 -2.0769 -1.4350  1.7943
  151MOL0     H19893   3.182   7.675  10.387  1.9619  0.5199 -0.3076
  151MOL0     H19894   3.533   7.774  10.300 -2.3203 -2.1593  1.9859
  151MOL0     H19895   3.718   7.778  10.171 -1.4983 -1.0816  2.4542
  151MOL0     H19896   4.091   7.751  10.145 -0.2317 -0.6101  0.4622
  151MOL0     H19897   4.320   7.745  10.080 -1.5699  1.9180  0.8423
  151MOL0     H19898   4.579   7.546   9.874  0.9385  0.2676  0.2837
  151MOL0     H19899   4.462   7.559  10.018 -0.0047  1.8687  1.0038
  151MOL0     H19900   4.549   7.769  10.087  1.0300  3.4093 -1.5503
  151MOL0     H19901   4.625   7.808   9.935  0.4806  0.3889  0.4927
  151MOL0     H19902   4.774   7.591   9.978 -1.5570 -3.0389  1.6561
  151MOL0     H19903   4.710   7.604  10.137 -1.6812 -0.8859 -0.8100
  151MOL0     H19904   4.872   7.825   9.999  1.2929 -2.5400 -0.3820
  151MOL0     H19905   4.802   7.816  10.171  1.0239  0.7499  0.9611
  151MOL0     H19906   4.986   7.613  10.048  1.5878 -1.1092  1.7713
  151MOL0     H19907   4.952   7.627  10.207  1.2859 -1.5236 -1.7833
  151MOL0     H19908   5.077   7.872  10.071  1.3726 -1.2051 -0.9066
  151MOL0     H19909   5.180   7.740  10.095  0.2403  0.3568  0.5410
  151MOL0     H19910   5.043   7.923  10.290 -0.4748 -0.3375  4.3946
  151MOL0     H19911   5.074   7.764  10.359  1.8851  0.5720  1.4655
  151MOL0     H19912   5.288   7.939  10.238  0.1324  0.9121  1.0771
  151MOL0     H19913   5.303   7.776  10.311 -0.1461  0.0841 -1.4765
  151MOL0     H19914   4.228   7.559   9.708 -1.0194 -0.3841  0.0927
  151MOL0     H19915   3.998   7.540   9.771  1.4444  0.2087 -1.1758
  151MOL0     H19916   3.526   7.515   9.884  1.4306  0.9204  0.4571
  151MOL0     H19917   3.315   7.553   9.997 -1.3073  0.1707 -0.2029
  151MOL0     H19918   2.552   6.620   9.982 -1.2402 -0.8603 -3.8662
  151MOL0     H19919   2.736   6.699  10.141 -1.4487 -2.4044  0.6625
  151MOL0     H19920   3.245   6.734  10.102 -0.8721 -2.3943  0.6187
  151MOL0     H19921   3.440   6.821  10.211 -0.7682 -0.1445  0.0266
  151MOL0     H19922   3.469   6.856  10.680  1.8269 -0.6284  0.8484
  151MOL0     H19923   3.621   6.906  10.614 -0.8508  2.2235  3.9962
  151MOL0     H19924   3.626   6.678  10.725  0.5920 -0.3749 -1.1994
  151MOL0     H19925   3.507   6.618  10.612 -1.7805  1.8167 -1.1776
  151MOL0     H19926   3.649   6.604  10.434  0.5593 -2.6703  0.8327
  151MOL0     H19927   3.741   6.553  10.559 -2.0149 -0.8081  0.9602
  151MOL0     H19928   3.881   6.701  10.415  1.2674  1.1952 -0.4485
  151MOL0     H19929   3.779   6.835  10.437 -0.0478 -0.3320 -0.9459
  151MOL0     H19930   3.983   6.748  10.821 -0.4513  0.3753  0.5440
  151MOL0     H19931   3.262   6.738  10.590  2.6932  1.2431  0.7255
  151MOL0     H19932   3.088   6.626  10.487  2.5402 -0.9029  0.6619
  152MOL0     O19933   2.239   2.370   4.312 -0.0976 -0.0967 -0.0464
  152MOL0     C19934   2.199   2.470   4.362  0.3922  0.0991  0.1440
  152MOL0     O19935   2.280   2.555   4.428 -0.0315 -0.6075  0.1347
  152MOL0     C19936   2.419   2.562   4.406 -0.0940  0.2866  0.0696
  152MOL0     C19937   2.518   2.549   4.510  0.8411  0.0907  0.9081
  152MOL0     C19938   2.655   2.560   4.473  1.2886 -0.2060  0.8641
  152MOL0     C19939   2.692   2.601   4.339 -0.7510 -0.3596  0.1144
  152MOL0     O19940   2.820   2.637   4.294 -0.2816  0.3726  0.2991
  152MOL0     C19941   2.910   2.687   4.397 -0.2010  0.4828  0.1718
  152MOL0     C19942   3.044   2.704   4.335 -0.2745  0.4554 -0.5157
  152MOL0     C19943   3.144   2.584   4.359  0.0105 -0.1230  0.0898
  152MOL0     C19944   3.284   2.611   4.304  0.2868 -0.4872 -0.3171
  152MOL0     C19945   3.354   2.484   4.245 -0.0453  0.0828 -0.3723
  152MOL0     C19946   3.489   2.531   4.184 -0.1518  0.9597 -0.3469
  152MOL0     C19947   3.573   2.407   4.132  0.0130 -0.2633  0.4069
  152MOL0     C19948   3.718   2.451   4.103  0.1375  0.4825  0.0051
  152MOL0     N19949   3.815   2.341   4.069  0.6836 -0.4884 -0.0846
  152MOL0     C19950   3.835   2.285   3.943 -0.1062  0.1714  0.6890
  152MOL0     C19951   3.911   2.171   3.960 -0.5146  0.8942  0.8185
  152MOL0     C19952   3.932   2.057   3.855  1.3246  0.0691 -0.6571
  152MOL0     C19953   3.808   1.966   3.829 -0.1083  0.2543 -0.6994
  152MOL0     C19954   3.739   1.985   3.694 -0.1830 -0.3748  0.5291
  152MOL0     C19955   3.626   1.889   3.687  0.9562  0.8139 -0.6447
  152MOL0     O19956   3.539   1.932   3.793 -0.7657  0.1405 -0.8187
  152MOL0     C19957   3.487   1.852   3.891 -0.7623 -0.0475  0.0975
  152MOL0     C19958   3.500   1.711   3.901  0.3785  0.4866 -0.4377
  152MOL0     C19959   3.431   1.640   4.004 -0.5058 -0.3775  1.0481
  152MOL0     C19960   3.347   1.711   4.095 -0.2089 -0.1380  0.9865
  152MOL0     C19961   3.274   1.645   4.207 -0.1737  0.9362  0.0509
  152MOL0     O19962   3.300   1.511   4.225  0.0020 -0.3739  0.1664
  152MOL0     C19963   3.233   1.431   4.315 -0.4731  0.1129  0.2920
  152MOL0     C19964   3.102   1.431   4.325  0.0106 -0.4549  0.1332
  152MOL0     C19965   3.040   1.335   4.408  0.5120  0.4030  1.0880
  152MOL0     C19966   3.112   1.245   4.487  0.5244  1.2037  0.4167
  152MOL0     O19967   3.051   1.143   4.556 -0.1096  0.4811  0.3412
  152MOL0     C19968   2.924   1.093   4.504  0.0652  0.2140  0.4297
  152MOL0     C19969   2.863   0.988   4.594  0.4614 -1.1758  0.0568
  152MOL0     C19970   2.736   0.913   4.549 -0.0796  0.1120  0.5030
  152MOL0     C19971   2.687   0.824   4.668 -0.4214 -0.7378  0.8514
  152MOL0     C19972   2.540   0.772   4.657 -0.4184 -0.5106  0.5125
  152MOL0     C19973   2.439   0.886   4.638  0.1369 -0.0737 -0.3365
  152MOL0     C19974   2.297   0.825   4.618 -0.5692  0.5621 -0.1320
  152MOL0     C19975   2.205   0.942   4.575 -0.1089 -0.0485  0.5983
  152MOL0    Cl19976   2.031   0.893   4.564 -0.6524 -0.4544 -0.1521
  152MOL0     C19977   3.247   1.253   4.482 -0.1616 -0.2570  0.0992
  152MOL0     C19978   3.313   1.340   4.390  0.3081  0.2117  0.1035
  152MOL0     O19979   3.197   1.711   4.278 -0.3326 -0.2487  0.0549
  152MOL0     C19980   3.341   1.855   4.081 -0.7498  0.1888  0.4637
  152MOL0     C19981   3.415   1.920   3.984  0.0814  0.9868  0.9519
  152MOL0     N19982   3.924   2.154   4.096  0.4350 -0.7524 -0.4746
  152MOL0     N19983   3.866   2.251   4.161 -0.4558  0.5646  0.4596
  152MOL0     C19984   2.596   2.601   4.240  0.2502 -0.2891  0.0145
  152MOL0     C19985   2.462   2.576   4.273 -0.4202  1.0519 -0.5994
  152MOL0     C19986   2.067   2.515   4.346  0.3817 -0.4373 -0.7007
  152MOL0     C19987   2.028   2.650   4.389 -0.6693 -0.0537 -0.3277
  152MOL0     C19988   1.909   2.706   4.343 -0.0992  0.3868 -0.4240
  152MOL0     C19989   1.819   2.619   4.282 -0.7470  0.1413  0.5046
  152MOL0     O19990   1.700   2.683   4.253  0.1833  0.7487 -1.1432
  152MOL0     C19991   1.608   2.604   4.169  0.0124 -0.2981 -0.5632
  152MOL0     C19992   1.507   2.715   4.124 -0.1944 -0.1916  0.6166
  152MOL0     C19993   1.434   2.784   4.252 -0.6952  0.8239  0.5062
  152MOL0     C19994   1.323   2.887   4.215  0.8978 -0.2441  0.2571
  152MOL0     C19995   1.374   2.990   4.120  0.0820  0.4697  0.3728
  152MOL0     C19996   1.409   3.087   4.052 -0.7739 -0.0277  0.1456
  152MOL0     C19997   1.850   2.487   4.244  0.5541 -0.4411 -0.6184
  152MOL0     C19998   1.974   2.436   4.278  0.9640 -0.3644  0.2684
  152MOL0     H19999   2.498   2.534   4.615  0.5827 -1.7288  0.6314
  152MOL0     H20000   2.727   2.542   4.552  3.5005  0.0410 -0.9922
  152MOL0     H20001   2.911   2.618   4.482 -0.5048 -0.8270 -0.8494
  152MOL0     H20002   2.883   2.790   4.421  1.3260  0.6707  1.2156
  152MOL0     H20003   3.103   2.785   4.379  3.7636 -0.8678 -2.9620
  152MOL0     H20004   3.023   2.721   4.229 -1.6010  1.9162 -0.0671
  152MOL0     H20005   3.103   2.498   4.305 -0.0245 -0.5772  0.8195
  152MOL0     H20006   3.152   2.547   4.462  1.0372  0.2564  0.1616
  152MOL0     H20007   3.280   2.690   4.229  0.2374  0.5602  0.7570
  152MOL0     H20008   3.353   2.649   4.380  1.6779  0.4765 -1.9938
  152MOL0     H20009   3.301   2.428   4.168 -0.3340  0.5388 -0.5053
  152MOL0     H20010   3.363   2.410   4.326 -0.2018  0.1748 -0.2697
  152MOL0     H20011   3.553   2.579   4.258  0.8150  0.6240 -0.9417
  152MOL0     H20012   3.473   2.598   4.099  0.6182 -1.5152 -2.6004
  152MOL0     H20013   3.569   2.331   4.211  3.4725  2.2034  3.2961
  152MOL0     H20014   3.524   2.372   4.041 -2.9669 -0.2538  1.8807
  152MOL0     H20015   3.757   2.509   4.188  1.4137 -0.6576  0.2272
  152MOL0     H20016   3.714   2.528   4.025 -1.6737 -0.2085 -0.6308
  152MOL0     H20017   3.801   2.315   3.844  0.4741  0.8003  0.6730
  152MOL0     H20018   4.010   1.987   3.886 -1.1375 -2.5463  0.0790
  152MOL0     H20019   3.968   2.098   3.760  0.9573  1.7728 -0.1047
  152MOL0     H20020   3.741   1.977   3.914  2.3298 -3.8724  2.1581
  152MOL0     H20021   3.838   1.861   3.838 -0.2538  0.1716 -1.1429
  152MOL0     H20022   3.703   2.087   3.678  2.3552  0.4890 -0.1035
  152MOL0     H20023   3.809   1.970   3.611 -1.6510 -0.1361 -0.8022
  152MOL0     H20024   3.665   1.789   3.708  2.4715  1.1316 -1.8503
  152MOL0     H20025   3.565   1.875   3.598 -2.4148  0.0921  1.5714
  152MOL0     H20026   3.572   1.660   3.839  1.0156 -0.5086  1.0766
  152MOL0     H20027   3.454   1.535   4.022 -1.2790 -0.6349  0.6084
  152MOL0     H20028   3.050   1.510   4.270 -1.5869 -0.9944  0.8080
  152MOL0     H20029   2.932   1.329   4.406  0.2967  2.6637 -2.5275
  152MOL0     H20030   2.926   1.051   4.403  0.0217 -0.6627  0.7787
  152MOL0     H20031   2.856   1.178   4.508 -0.8814 -0.3268 -2.3086
  152MOL0     H20032   2.844   1.038   4.690  2.3422 -0.5594  0.1546
  152MOL0     H20033   2.935   0.911   4.622  0.5049 -1.7363 -1.5076
  152MOL0     H20034   2.751   0.852   4.460  1.3627  0.6715  0.3381
  152MOL0     H20035   2.661   0.991   4.531 -1.4800 -0.6842  2.5159
  152MOL0     H20036   2.756   0.741   4.678  0.7663  0.2467  1.0518
  152MOL0     H20037   2.701   0.869   4.767  1.8846 -1.1485  0.7588
  152MOL0     H20038   2.534   0.713   4.750  3.3813  1.5407  2.2937
  152MOL0     H20039   2.533   0.698   4.577  3.1382 -1.3066  0.7516
  152MOL0     H20040   2.457   0.944   4.546 -1.0719 -1.5531 -1.5725
  152MOL0     H20041   2.438   0.956   4.722 -2.5780  1.2431 -1.3309
  152MOL0     H20042   2.280   0.747   4.544 -0.2206 -0.2021  0.5830
  152MOL0     H20043   2.253   0.796   4.714  1.1816  0.5940  0.7160
  152MOL0     H20044   2.246   0.970   4.477 -0.0975 -0.4738  0.4798
  152MOL0     H20045   2.223   1.022   4.647 -1.8147  0.8454  0.0786
  152MOL0     H20046   3.303   1.180   4.539 -2.7952 -4.0690 -1.7157
  152MOL0     H20047   3.419   1.337   4.365  0.7289 -0.4776  1.8598
  152MOL0     H20048   3.293   1.914   4.159  0.6346 -0.6231  1.9994
  152MOL0     H20049   3.398   2.026   3.968  0.8254  0.7802 -1.6125
  152MOL0     H20050   2.621   2.615   4.135  0.0486  1.4576  0.1590
  152MOL0     H20051   2.393   2.572   4.190 -0.4948  2.0184 -0.5894
  152MOL0     H20052   2.098   2.714   4.441 -2.3465  0.8362  0.9332
  152MOL0     H20053   1.882   2.807   4.374 -0.1599  0.8289 -1.8284
  152MOL0     H20054   1.571   2.524   4.233  0.2815  1.5367  2.0420
  152MOL0     H20055   1.655   2.557   4.082 -2.1654 -1.3875 -1.2178
  152MOL0     H20056   1.557   2.787   4.058  0.0892 -0.5230  0.4657
  152MOL0     H20057   1.424   2.665   4.073  0.8602 -2.0658  0.6184
  152MOL0     H20058   1.507   2.839   4.313 -0.3756 -0.4276  1.2898
  152MOL0     H20059   1.393   2.714   4.325 -0.8255 -0.1478 -0.4730
  152MOL0     H20060   1.247   2.821   4.173 -1.4340  0.6429  2.7822
  152MOL0     H20061   1.273   2.930   4.302 -0.2363  2.6565 -1.6798
  152MOL0     H20062   1.441   3.166   3.987 -0.5968 -1.0744 -1.0831
  152MOL0     H20063   1.787   2.413   4.196 -0.2673 -0.3388  0.2802
  152MOL0     H20064   2.001   2.337   4.242  2.3835  0.1533 -0.1592
  153MOL0     O20065   6.394   8.242   8.623 -0.3826  0.4915 -0.3505
  153MOL0     C20066   6.479   8.171   8.568 -0.1128  0.7716 -0.7509
  153MOL0     O20067   6.449   8.062   8.491 -0.1921 -0.0602  0.1926
  153MOL0     C20068   6.327   8.008   8.504  0.2169  0.7612  0.1190
  153MOL0     C20069   6.212   8.073   8.462 -0.2532  0.3901  0.5033
  153MOL0     C20070   6.088   8.020   8.468  0.1872 -0.1965 -0.0279
  153MOL0     C20071   6.068   7.882   8.496  0.6372 -0.4958 -0.0568
  153MOL0     O20072   5.931   7.854   8.481 -0.4701  0.5929 -0.3566
  153MOL0     C20073   5.872   7.755   8.560 -0.2349 -0.4701 -0.1172
  153MOL0     C20074   5.723   7.770   8.551  0.7830 -0.1641  0.9781
  153MOL0     C20075   5.639   7.672   8.638  0.4288 -0.2009 -0.6921
  153MOL0     C20076   5.491   7.693   8.598 -0.4335 -0.3373 -0.0049
  153MOL0     C20077   5.399   7.618   8.692  0.5169  0.6621  0.1697
  153MOL0     C20078   5.289   7.709   8.750  0.9628  0.0403  0.2448
  153MOL0     C20079   5.184   7.619   8.820  0.7635  0.8906 -0.0536
  153MOL0     C20080   5.053   7.694   8.839  0.4420  0.4624 -0.4782
  153MOL0     N20081   4.967   7.612   8.922 -0.5151  0.8635 -0.6790
  153MOL0     C20082   4.927   7.474   8.899  0.2427  0.3049 -0.0872
  153MOL0     C20083   4.851   7.450   9.005 -0.8574  0.1175 -0.1727
  153MOL0     C20084   4.776   7.317   9.022 -0.3530 -0.5000 -0.0327
  153MOL0     C20085   4.868   7.219   9.101  0.8312  0.1854 -0.6796
  153MOL0     C20086   4.912   7.266   9.232 -0.3292 -0.4713 -0.3329
  153MOL0     C20087   4.943   7.147   9.328  0.2712 -0.2384  0.2851
  153MOL0     O20088   5.047   7.070   9.266  0.5640  0.6760 -0.2889
  153MOL0     C20089   5.169   7.097   9.309 -0.1614  0.0704 -0.1947
  153MOL0     C20090   5.247   7.172   9.227 -0.4549  0.9815  0.0279
  153MOL0     C20091   5.376   7.210   9.270  0.2267  0.4000  0.1572
  153MOL0     C20092   5.419   7.177   9.400  0.0712  1.0689 -0.2890
  153MOL0     C20093   5.558   7.224   9.436  0.4023  0.3662  0.3284
  153MOL0     O20094   5.625   7.303   9.347 -0.1928  0.0756  0.5764
  153MOL0     C20095   5.762   7.337   9.369 -0.9016 -0.4203 -0.0340
  153MOL0     C20096   5.832   7.371   9.253  0.3814  0.0224 -0.1096
  153MOL0     C20097   5.968   7.413   9.263 -0.1637  0.1847 -0.2700
  153MOL0     C20098   6.023   7.443   9.392 -1.1701  0.0693 -0.6301
  153MOL0     O20099   6.148   7.499   9.412  0.0567  0.2021  0.4797
  153MOL0     C20100   6.212   7.573   9.308  0.0503 -0.0469 -1.1181
  153MOL0     C20101   6.328   7.650   9.351 -0.8780 -0.0264  0.4991
  153MOL0     C20102   6.444   7.563   9.403  0.0153 -0.5008 -0.5384
  153MOL0     C20103   6.575   7.650   9.419 -0.2209 -0.4310  0.0481
  153MOL0     C20104   6.648   7.680   9.293 -0.0273 -0.3613  0.5261
  153MOL0     C20105   6.782   7.742   9.343  0.7040  1.8798  0.4157
  153MOL0     C20106   6.871   7.794   9.233  1.0252  0.4894 -0.2016
  153MOL0     C20107   7.004   7.835   9.283 -0.1254  0.1233 -0.6490
  153MOL0    Cl20108   7.099   7.694   9.337 -0.3484  0.0197 -0.0035
  153MOL0     C20109   5.946   7.409   9.506  0.0148 -0.1786  0.0101
  153MOL0     C20110   5.815   7.365   9.494 -0.6113  0.1752  0.1292
  153MOL0     O20111   5.602   7.185   9.544  0.9653 -0.3115  0.3667
  153MOL0     C20112   5.332   7.107   9.492 -0.4353  0.1425 -0.1923
  153MOL0     C20113   5.210   7.058   9.436 -1.0085  0.8054 -1.0394
  153MOL0     N20114   4.855   7.556   9.100 -0.2248 -0.0088  0.6355
  153MOL0     N20115   4.917   7.653   9.043 -0.3810 -0.1730 -0.2633
  153MOL0     C20116   6.183   7.807   8.539 -1.0150  0.1971  0.8486
  153MOL0     C20117   6.314   7.877   8.548 -1.4830  0.0846 -0.3300
  153MOL0     C20118   6.617   8.207   8.589 -0.2697 -0.0793  0.0902
  153MOL0     C20119   6.711   8.105   8.606 -0.6109 -0.2364 -0.0981
  153MOL0     C20120   6.848   8.132   8.606  0.6295 -0.4441 -0.0041
  153MOL0     C20121   6.885   8.261   8.592 -0.1339  0.4215 -0.1561
  153MOL0     O20122   7.017   8.288   8.556 -0.0868  0.2583 -0.3225
  153MOL0     C20123   7.124   8.240   8.638  0.3065  0.0078  1.4285
  153MOL0     C20124   7.249   8.326   8.639 -0.2811  0.8987  0.1713
  153MOL0     C20125   7.222   8.462   8.707 -0.5906  0.1211 -0.1050
  153MOL0     C20126   7.334   8.569   8.675  0.1795 -0.1849 -0.3395
  153MOL0     C20127   7.464   8.512   8.711 -0.0150  0.1333  0.3517
  153MOL0     C20128   7.580   8.492   8.725 -0.0687 -0.0315  0.0831
  153MOL0     C20129   6.791   8.370   8.586 -0.0637 -0.5366  0.3418
  153MOL0     C20130   6.654   8.342   8.578 -0.3388  0.5384 -0.0301
  153MOL0     H20131   6.211   8.174   8.422  0.5988  1.4721  3.0049
  153MOL0     H20132   6.002   8.081   8.442  0.8235  0.3090 -1.0149
  153MOL0     H20133   5.910   7.766   8.662 -0.4825 -2.3291  0.2182
  153MOL0     H20134   5.900   7.654   8.529  1.2252 -0.0105 -0.3784
  153MOL0     H20135   5.694   7.740   8.450 -0.4535 -1.3584  1.6391
  153MOL0     H20136   5.698   7.875   8.569 -0.2844  0.1708 -1.8771
  153MOL0     H20137   5.658   7.707   8.740 -0.0876  2.2720 -1.3749
  153MOL0     H20138   5.661   7.565   8.635 -0.0472 -0.4063  1.3684
  153MOL0     H20139   5.468   7.800   8.590  2.7028  0.5043  0.7083
  153MOL0     H20140   5.497   7.654   8.496  3.4166  0.1568 -0.1281
  153MOL0     H20141   5.446   7.560   8.771 -0.6597  1.3822  1.4277
  153MOL0     H20142   5.354   7.544   8.625 -4.2549  1.1202  2.4603
  153MOL0     H20143   5.250   7.745   8.655  0.1617 -3.2176 -0.7976
  153MOL0     H20144   5.310   7.795   8.814 -3.8249  0.5411  1.5294
  153MOL0     H20145   5.156   7.536   8.755  0.4284 -1.0410  2.4331
  153MOL0     H20146   5.229   7.579   8.911 -1.0658 -0.6854  0.2279
  153MOL0     H20147   5.000   7.718   8.747  0.1516  0.1507 -0.3919
  153MOL0     H20148   5.070   7.790   8.890  2.0600  0.7544 -1.5062
  153MOL0     H20149   4.937   7.409   8.813  1.0731  0.4860 -0.1360
  153MOL0     H20150   4.740   7.270   8.931 -1.6043  0.4589 -0.0620
  153MOL0     H20151   4.681   7.337   9.074 -1.5301 -1.4341 -1.7423
  153MOL0     H20152   4.957   7.201   9.040  0.9913 -0.5673 -0.2320
  153MOL0     H20153   4.810   7.127   9.112  1.4717 -0.3849 -1.9266
  153MOL0     H20154   4.995   7.336   9.220  0.3355 -1.1824 -0.0561
  153MOL0     H20155   4.836   7.324   9.285  2.8626  2.0155  1.9495
  153MOL0     H20156   4.855   7.086   9.349  0.2161 -0.5245 -0.7393
  153MOL0     H20157   4.966   7.183   9.429 -3.0089  3.6476 -0.0782
  153MOL0     H20158   5.204   7.207   9.133  1.6454  1.5569 -0.7756
  153MOL0     H20159   5.426   7.271   9.195  0.7888 -0.1109  0.1051
  153MOL0     H20160   5.788   7.343   9.158 -2.1565  0.8023  0.7556
  153MOL0     H20161   6.026   7.421   9.172 -1.4293  0.2968 -1.0888
  153MOL0     H20162   6.140   7.645   9.270  0.3442  0.8758  0.0121
  153MOL0     H20163   6.241   7.494   9.238 -1.5415 -0.7278 -1.0343
  153MOL0     H20164   6.298   7.716   9.433 -0.4621  0.6773  0.0987
  153MOL0     H20165   6.377   7.700   9.266  1.0415 -4.1076 -1.0353
  153MOL0     H20166   6.476   7.486   9.333  3.6598  1.9905 -1.8960
  153MOL0     H20167   6.404   7.524   9.497 -0.6838  1.5034  0.0575
  153MOL0     H20168   6.555   7.738   9.480 -1.5688 -0.6958  0.0210
  153MOL0     H20169   6.642   7.585   9.476  0.7569  0.5438  0.0274
  153MOL0     H20170   6.592   7.753   9.234  2.0044  0.6460 -0.2573
  153MOL0     H20171   6.671   7.597   9.226 -1.5049 -0.3990  0.0236
  153MOL0     H20172   6.825   7.655   9.392 -2.6436 -0.5845 -0.6592
  153MOL0     H20173   6.766   7.821   9.417 -1.1447  0.4016  1.6939
  153MOL0     H20174   6.882   7.706   9.168  0.6607  1.2554 -1.3181
  153MOL0     H20175   6.820   7.880   9.190  1.8607  3.8198  4.5990
  153MOL0     H20176   6.999   7.901   9.370 -2.9489 -2.9590  1.7899
  153MOL0     H20177   7.055   7.882   9.198 -0.0586  0.8911 -0.1997
  153MOL0     H20178   6.001   7.425   9.598  2.4246  1.2649 -1.5850
  153MOL0     H20179   5.746   7.355   9.577 -1.7168 -1.2287 -0.9163
  153MOL0     H20180   5.358   7.061   9.587 -2.5552 -1.1108 -0.1550
  153MOL0     H20181   5.149   7.001   9.505 -0.5976  0.5432 -0.8897
  153MOL0     H20182   6.164   7.703   8.560 -2.1005  0.7105  2.5966
  153MOL0     H20183   6.402   7.825   8.582 -1.1138  1.6295  1.1665
  153MOL0     H20184   6.684   7.999   8.601 -0.7080 -0.1895 -0.5928
  153MOL0     H20185   6.927   8.063   8.579 -1.1636 -1.6864 -2.4141
  153MOL0     H20186   7.143   8.136   8.609  1.0029 -0.0903  2.1890
  153MOL0     H20187   7.092   8.239   8.742 -1.1228  2.2971  1.0583
  153MOL0     H20188   7.326   8.277   8.698  0.3941  4.4934  2.5913
  153MOL0     H20189   7.274   8.339   8.533 -0.0947 -3.1069 -0.4337
  153MOL0     H20190   7.210   8.458   8.816 -2.9163  0.3060 -0.3093
  153MOL0     H20191   7.128   8.504   8.671  0.1700  1.3507 -0.7635
  153MOL0     H20192   7.337   8.589   8.568  4.4574  0.3972 -0.3179
  153MOL0     H20193   7.316   8.661   8.731 -2.7908 -1.3739  0.8155
  153MOL0     H20194   7.682   8.466   8.743 -0.7916 -1.6216  2.3294
  153MOL0     H20195   6.822   8.472   8.569 -0.4475 -0.6723 -1.4721
  153MOL0     H20196   6.589   8.428   8.565  1.0019  1.5157 -0.4048
  154MOL0     O20197   6.063   3.831   7.080  0.2480 -1.1686  0.0740
  154MOL0     C20198   6.033   3.723   7.125  0.0516 -0.3282 -0.3325
  154MOL0     O20199   6.115   3.627   7.165 -0.1450  0.0629  0.2374
  154MOL0     C20200   6.251   3.647   7.129 -0.2965 -0.1246  0.6562
  154MOL0     C20201   6.307   3.698   7.009 -0.1793  0.2225 -0.5552
  154MOL0     C20202   6.447   3.733   7.007 -0.5197  0.9440  0.1648
  154MOL0     C20203   6.534   3.689   7.110 -0.3839  0.1102  0.0866
  154MOL0     O20204   6.673   3.712   7.125  0.2027  0.3946 -0.2279
  154MOL0     C20205   6.743   3.737   6.999  0.0889 -0.2805 -0.3870
  154MOL0     C20206   6.889   3.715   7.006  0.1598  0.0446  0.2876
  154MOL0     C20207   6.967   3.739   6.880  0.0258  0.2146 -0.4855
  154MOL0     C20208   7.109   3.697   6.904 -0.0015  0.0048 -0.0754
  154MOL0     C20209   7.196   3.708   6.769  0.1240  0.1062 -0.3627
  154MOL0     C20210   7.338   3.657   6.787  0.0044 -0.9009 -0.2218
  154MOL0     C20211   7.430   3.664   6.655  0.1810  0.2556 -1.0700
  154MOL0     C20212   7.568   3.619   6.676  0.3659  0.7188 -0.4220
  154MOL0     N20213   7.661   3.632   6.560 -0.0574  0.9081 -0.0339
  154MOL0     C20214   7.795   3.617   6.580 -0.8852 -0.0630  0.3463
  154MOL0     C20215   7.859   3.643   6.459 -0.3174 -0.8217 -0.2886
  154MOL0     C20216   8.007   3.657   6.411  0.4871 -0.0688  0.3307
  154MOL0     C20217   8.082   3.780   6.481  0.0476  0.1028  0.0506
  154MOL0     C20218   8.005   3.906   6.479  0.3313 -0.6792 -0.0817
  154MOL0     C20219   7.986   3.947   6.339  0.2366 -0.9332 -0.0591
  154MOL0     O20220   7.961   4.087   6.328  0.3296 -0.0377 -0.8619
  154MOL0     C20221   7.834   4.130   6.357 -0.3878 -0.3000  0.0380
  154MOL0     C20222   7.820   4.268   6.355  0.0256 -0.5495  0.3640
  154MOL0     C20223   7.695   4.325   6.383 -0.2263  0.6161  0.3374
  154MOL0     C20224   7.583   4.246   6.404  0.8503 -0.4847  0.3429
  154MOL0     C20225   7.450   4.309   6.421 -0.1101  0.0236  0.0380
  154MOL0     O20226   7.341   4.227   6.458  0.4079 -0.8080 -0.4132
  154MOL0     C20227   7.214   4.276   6.488 -0.3879  0.5969  0.4703
  154MOL0     C20228   7.180   4.403   6.532 -0.0942 -0.6712  0.7908
  154MOL0     C20229   7.044   4.438   6.540  0.3034 -0.0576  1.1387
  154MOL0     C20230   6.942   4.346   6.516 -0.2725 -0.5701 -0.4029
  154MOL0     O20231   6.815   4.402   6.508 -0.4677  0.3146 -0.3601
  154MOL0     C20232   6.709   4.327   6.454 -0.5349 -0.8322  0.3116
  154MOL0     C20233   6.577   4.396   6.484 -0.4492  0.1040 -0.4090
  154MOL0     C20234   6.545   4.366   6.630  0.4394 -0.2371 -0.4175
  154MOL0     C20235   6.402   4.412   6.652 -1.1294 -0.0556 -0.2061
  154MOL0     C20236   6.359   4.429   6.799  0.6416 -0.3849 -0.6325
  154MOL0     C20237   6.225   4.505   6.783  0.7269 -0.5359 -0.0911
  154MOL0     C20238   6.169   4.531   6.918 -0.3608 -0.0682 -0.7063
  154MOL0     C20239   6.020   4.488   6.929 -0.2726  0.7102  0.4941
  154MOL0    Cl20240   5.949   4.601   6.812 -0.0423 -0.3195 -0.3069
  154MOL0     C20241   6.975   4.209   6.480  0.9735  0.1089  0.6434
  154MOL0     C20242   7.107   4.182   6.469 -0.5612  0.1530 -0.6852
  154MOL0     O20243   7.442   4.429   6.399  0.8229  0.3280 -0.3221
  154MOL0     C20244   7.607   4.107   6.415 -0.2431  0.1662  0.5613
  154MOL0     C20245   7.730   4.046   6.404 -0.3353 -0.9092  0.7695
  154MOL0     N20246   7.760   3.674   6.372  0.3365 -0.5009  0.1625
  154MOL0     N20247   7.646   3.660   6.422 -0.5297  0.2058 -1.2819
  154MOL0     C20248   6.472   3.633   7.223 -0.8747  0.0141 -0.2152
  154MOL0     C20249   6.339   3.608   7.226  0.3287  0.1644 -1.1436
  154MOL0     C20250   5.887   3.688   7.124  0.1479 -0.3307  0.7695
  154MOL0     C20251   5.789   3.785   7.087  0.7360 -0.6448 -0.2980
  154MOL0     C20252   5.657   3.752   7.082  0.4382  0.0385  0.5763
  154MOL0     C20253   5.615   3.627   7.125 -0.2482  0.1412  0.6151
  154MOL0     O20254   5.480   3.600   7.116 -0.2953 -0.5743 -0.0285
  154MOL0     C20255   5.414   3.474   7.157 -0.1122 -0.2389  0.4494
  154MOL0     C20256   5.341   3.499   7.287  0.4625 -0.6263  0.1240
  154MOL0     C20257   5.211   3.412   7.312  0.0901 -0.0026  0.1823
  154MOL0     C20258   5.087   3.498   7.291  0.1690 -0.0405 -0.3584
  154MOL0     C20259   4.962   3.420   7.290 -0.1058  0.0577 -0.6916
  154MOL0     C20260   4.856   3.353   7.295  0.5618  0.2224  0.0727
  154MOL0     C20261   5.709   3.527   7.170 -0.6501 -0.6081  0.0242
  154MOL0     C20262   5.844   3.563   7.158 -0.5786 -0.2499 -0.1246
  154MOL0     H20263   6.244   3.700   6.921 -2.4011 -1.3914  0.8600
  154MOL0     H20264   6.486   3.781   6.918 -0.8681 -0.4953 -0.8088
  154MOL0     H20265   6.719   3.838   6.965  0.6359  0.8207  2.2395
  154MOL0     H20266   6.710   3.662   6.927  4.6031 -1.1664 -1.8934
  154MOL0     H20267   6.893   3.612   7.043 -0.9316 -0.3583 -0.6514
  154MOL0     H20268   6.938   3.781   7.078  1.1557 -0.1142 -0.2308
  154MOL0     H20269   6.963   3.842   6.844  0.2959  0.2580 -0.3881
  154MOL0     H20270   6.932   3.669   6.803  2.1221 -0.5092 -0.8398
  154MOL0     H20271   7.151   3.757   6.986 -0.8512 -0.4144  0.6724
  154MOL0     H20272   7.104   3.594   6.938 -1.4246 -0.0603 -0.4535
  154MOL0     H20273   7.193   3.813   6.737 -0.7722  0.7631  1.6906
  154MOL0     H20274   7.146   3.654   6.687  0.1324 -0.4256 -0.0184
  154MOL0     H20275   7.334   3.552   6.816  0.0394 -0.6662  0.6506
  154MOL0     H20276   7.390   3.717   6.862 -0.8994 -0.9152  0.4255
  154MOL0     H20277   7.378   3.604   6.580 -1.3127 -0.1741  0.2613
  154MOL0     H20278   7.429   3.766   6.615  0.1218  0.5624 -0.3090
  154MOL0     H20279   7.558   3.514   6.704 -0.5458  0.2295 -2.4099
  154MOL0     H20280   7.606   3.684   6.756 -1.7686 -0.4588  1.6479
  154MOL0     H20281   7.844   3.598   6.675  1.3016  0.7794 -0.5463
  154MOL0     H20282   8.009   3.684   6.304  2.7317  3.0269  1.0056
  154MOL0     H20283   8.065   3.568   6.435  0.4732 -0.6925 -1.7255
  154MOL0     H20284   8.175   3.801   6.426 -0.4943  0.3209 -0.8019
  154MOL0     H20285   8.119   3.748   6.579  1.4588 -1.1108 -0.8328
  154MOL0     H20286   7.906   3.894   6.525  0.3870  1.0688  0.5884
  154MOL0     H20287   8.069   3.973   6.538  1.3524 -1.1723 -0.6053
  154MOL0     H20288   7.898   3.899   6.294 -0.5254 -0.3242  0.7398
  154MOL0     H20289   8.083   3.926   6.293  2.3753 -0.6189  3.8515
  154MOL0     H20290   7.896   4.337   6.321 -1.9852  1.9497  0.6934
  154MOL0     H20291   7.682   4.433   6.386  1.4946  0.8309  2.7001
  154MOL0     H20292   7.254   4.475   6.567  1.6860 -1.9889 -0.1035
  154MOL0     H20293   7.022   4.541   6.564 -3.3587 -0.8332  1.6677
  154MOL0     H20294   6.702   4.225   6.493 -1.2654 -0.8037  0.2701
  154MOL0     H20295   6.715   4.307   6.347  2.4941 -1.7392  0.5442
  154MOL0     H20296   6.497   4.336   6.439 -0.0429 -1.0470  0.3478
  154MOL0     H20297   6.583   4.502   6.461  0.9491  0.7639  2.5427
  154MOL0     H20298   6.606   4.429   6.696 -0.1729 -2.3066  2.2979
  154MOL0     H20299   6.564   4.265   6.666 -0.2219 -0.4569 -0.6865
  154MOL0     H20300   6.388   4.507   6.599  1.2563  1.2762  1.3506
  154MOL0     H20301   6.339   4.333   6.610  0.5718 -1.7755  0.3619
  154MOL0     H20302   6.439   4.488   6.844  0.3268 -0.2197 -0.2849
  154MOL0     H20303   6.352   4.336   6.856  0.4933 -2.0255 -3.1931
  154MOL0     H20304   6.158   4.450   6.716  1.7433 -0.3594 -1.2718
  154MOL0     H20305   6.231   4.603   6.734 -0.7641  0.5218  1.6748
  154MOL0     H20306   6.232   4.486   6.995  0.0874  1.1785 -0.3198
  154MOL0     H20307   6.181   4.638   6.938 -1.3616  0.0484 -0.6815
  154MOL0     H20308   5.981   4.512   7.029  3.1207  0.9047  1.8918
  154MOL0     H20309   5.996   4.384   6.905  0.1427  0.6366  0.3852
  154MOL0     H20310   6.907   4.129   6.457 -1.1130  1.5936  1.3813
  154MOL0     H20311   7.134   4.083   6.434  0.0517 -1.1222  2.9160
  154MOL0     H20312   7.524   4.046   6.448  1.7720 -1.9473  2.0518
  154MOL0     H20313   7.734   3.938   6.406  0.9352 -0.9650 -1.5742
  154MOL0     H20314   6.536   3.597   7.303 -0.1239  1.9515  0.0992
  154MOL0     H20315   6.297   3.550   7.307  1.1272 -0.3582 -1.0938
  154MOL0     H20316   5.824   3.882   7.053  1.5680 -0.4042  1.1374
  154MOL0     H20317   5.588   3.833   7.062  1.5703  0.9472  0.2654
  154MOL0     H20318   5.487   3.393   7.169  0.7232  0.5726  1.0329
  154MOL0     H20319   5.342   3.448   7.079  1.5740 -1.1538 -0.8758
  154MOL0     H20320   5.408   3.485   7.372  0.8651 -0.0181 -0.0906
  154MOL0     H20321   5.308   3.603   7.281 -1.2999 -1.2289 -1.5990
  154MOL0     H20322   5.215   3.381   7.417  0.3309  0.9739  0.4692
  154MOL0     H20323   5.219   3.329   7.241 -2.3894  0.7559 -1.0941
  154MOL0     H20324   5.075   3.563   7.378 -0.1902 -0.7570  0.1385
  154MOL0     H20325   5.086   3.561   7.202 -0.1150 -2.3048 -2.0680
  154MOL0     H20326   4.763   3.299   7.296  0.1610  0.4781 -4.3971
  154MOL0     H20327   5.683   3.434   7.219  1.1189 -1.0811  0.1110
  154MOL0     H20328   5.924   3.495   7.186 -0.8010  0.2417  1.8641
  155MOL0     O20329   6.319   3.659  10.274 -0.7874 -0.0255 -0.0686
  155MOL0     C20330   6.338   3.590  10.176 -0.0238  0.6163  0.1605
  155MOL0     O20331   6.246   3.524  10.106  0.1386  0.1554  0.6597
  155MOL0     C20332   6.115   3.560  10.144  0.1628 -0.6298  0.1056
  155MOL0     C20333   6.058   3.556  10.273 -0.2183  0.1120  0.7556
  155MOL0     C20334   5.921   3.590  10.295 -0.3409 -0.6708 -0.5571
  155MOL0     C20335   5.848   3.632  10.187  0.1171  0.0425 -0.2148
  155MOL0     O20336   5.725   3.677  10.211  0.6380  0.4300 -0.1969
  155MOL0     C20337   5.633   3.590  10.272  0.5228 -0.2703  0.7336
  155MOL0     C20338   5.535   3.530  10.169  0.7142  0.0095  0.6629
  155MOL0     C20339   5.442   3.637  10.116 -0.1959 -0.4898 -0.8680
  155MOL0     C20340   5.350   3.576  10.007 -0.6145  0.3244 -0.3866
  155MOL0     C20341   5.318   3.667   9.884 -0.7117  0.7310  0.0090
  155MOL0     C20342   5.298   3.585   9.749  0.0011  0.1458 -0.0660
  155MOL0     C20343   5.226   3.672   9.648 -0.6524 -0.1660 -0.0098
  155MOL0     C20344   5.234   3.611   9.510 -0.2526 -0.3334 -0.7551
  155MOL0     N20345   5.124   3.515   9.495 -0.7401 -0.4408 -0.7607
  155MOL0     C20346   4.995   3.543   9.456 -0.6037  0.4086  0.6939
  155MOL0     C20347   4.938   3.418   9.442 -0.6829 -0.4189  0.0411
  155MOL0     C20348   4.803   3.402   9.407 -0.1052  0.3619 -0.0890
  155MOL0     C20349   4.721   3.375   9.534 -0.3810  0.5547 -0.9859
  155MOL0     C20350   4.747   3.229   9.569  0.1480  0.3769  0.0917
  155MOL0     C20351   4.663   3.174   9.674 -0.3331 -0.2866  0.0070
  155MOL0     O20352   4.692   3.256   9.792  0.0960 -0.0473  0.0713
  155MOL0     C20353   4.606   3.224   9.893 -0.0186  0.5053 -0.1887
  155MOL0     C20354   4.537   3.096   9.901  0.9177 -0.4359 -0.5510
  155MOL0     C20355   4.454   3.074  10.013  0.1574  0.7683 -0.8004
  155MOL0     C20356   4.428   3.169  10.115  0.2156  0.3144  0.3145
  155MOL0     C20357   4.346   3.132  10.229  0.4436 -0.3247 -0.5258
  155MOL0     O20358   4.291   3.008  10.240 -0.2233 -1.2671  0.3597
  155MOL0     C20359   4.189   2.976  10.323  0.2575  0.2588 -0.0231
  155MOL0     C20360   4.190   2.854  10.392  0.2788 -0.6249  0.8677
  155MOL0     C20361   4.103   2.816  10.488 -0.3673  0.3094 -0.1397
  155MOL0     C20362   3.991   2.903  10.513  0.0592  0.3771 -0.0490
  155MOL0     O20363   3.890   2.869  10.603 -0.7828 -0.0326 -0.2155
  155MOL0     C20364   3.917   2.767  10.702  0.7673 -0.1277  0.2686
  155MOL0     C20365   3.794   2.763  10.783  0.1285 -0.1367 -0.5058
  155MOL0     C20366   3.810   2.663  10.904  0.1953 -0.1629  0.5139
  155MOL0     C20367   3.687   2.665  10.991  0.1102  0.2480 -0.0657
  155MOL0     C20368   3.661   2.554  11.090  0.1562  0.0188 -0.7286
  155MOL0     C20369   3.791   2.502  11.167  0.4639  0.0266  0.4243
  155MOL0     C20370   3.856   2.623  11.238  0.9132 -0.2461 -0.6351
  155MOL0     C20371   3.952   2.571  11.346 -0.0514 -0.0024  0.7716
  155MOL0    Cl20372   4.108   2.500  11.276 -0.1373  0.0640  0.5197
  155MOL0     C20373   3.988   3.020  10.446  0.1942  0.2920 -0.1271
  155MOL0     C20374   4.085   3.060  10.349 -0.1034  0.0599  0.2504
  155MOL0     O20375   4.326   3.223  10.309 -0.6952 -0.4362 -0.2561
  155MOL0     C20376   4.494   3.291  10.108 -0.2107  0.9540  0.1216
  155MOL0     C20377   4.570   3.317   9.996 -0.0116 -0.4883  0.0720
  155MOL0     N20378   5.034   3.317   9.472 -0.2077  0.7791 -0.3373
  155MOL0     N20379   5.146   3.382   9.504  0.3881 -1.0858  0.0016
  155MOL0     C20380   5.908   3.653  10.062 -0.1820  0.1893 -0.5873
  155MOL0     C20381   6.036   3.614  10.038 -0.0318  0.4642 -0.3012
  155MOL0     C20382   6.476   3.584  10.123 -0.3485 -0.0970  1.0791
  155MOL0     C20383   6.517   3.476  10.045  0.1207 -0.3757 -0.7113
  155MOL0     C20384   6.646   3.468   9.998 -0.4763 -0.0993 -0.1033
  155MOL0     C20385   6.739   3.569  10.023  0.3563  0.5535  0.8278
  155MOL0     O20386   6.863   3.561   9.975  0.0064 -0.2999  0.3790
  155MOL0     C20387   6.965   3.609  10.061 -0.2432  0.4526 -0.3441
  155MOL0     C20388   7.100   3.571   9.995 -0.2082  0.2627 -0.7173
  155MOL0     C20389   7.114   3.418   9.993  0.6292 -1.5196 -0.7096
  155MOL0     C20390   7.256   3.370  10.012  0.1830  0.2624  0.0399
  155MOL0     C20391   7.267   3.228  10.031  0.3262 -0.4232  0.4581
  155MOL0     C20392   7.274   3.111  10.058  0.2300  0.3502  0.8112
  155MOL0     C20393   6.698   3.676  10.100  0.3359  0.0140  0.5658
  155MOL0     C20394   6.572   3.683  10.148  0.5711 -0.2506 -0.3238
  155MOL0     H20395   6.119   3.541  10.362  1.2461 -0.2133 -0.2608
  155MOL0     H20396   5.881   3.586  10.396 -3.1317  2.0424 -1.3815
  155MOL0     H20397   5.580   3.651  10.345 -1.4264 -0.0141 -0.8140
  155MOL0     H20398   5.691   3.507  10.312  1.9221  1.8048  3.3310
  155MOL0     H20399   5.471   3.452  10.210 -2.8693  1.8186 -1.0236
  155MOL0     H20400   5.581   3.482  10.083 -1.5993 -1.0035 -0.0862
  155MOL0     H20401   5.496   3.719  10.068 -2.5690  0.8761 -1.3645
  155MOL0     H20402   5.385   3.677  10.201 -0.4902 -2.4264 -0.1089
  155MOL0     H20403   5.404   3.488   9.970 -1.2638  0.2519 -1.1902
  155MOL0     H20404   5.253   3.540  10.042  0.0867  0.0963  1.4222
  155MOL0     H20405   5.405   3.731   9.867  1.1292 -1.7497 -0.6881
  155MOL0     H20406   5.233   3.727   9.915 -0.3548  1.7331 -0.9055
  155MOL0     H20407   5.244   3.491   9.766 -1.8662  0.9922 -0.9659
  155MOL0     H20408   5.396   3.550   9.718 -0.3691 -0.6407 -0.3688
  155MOL0     H20409   5.124   3.702   9.674  0.8649  3.2252  2.8245
  155MOL0     H20410   5.264   3.774   9.653 -1.7044  0.1809  2.1138
  155MOL0     H20411   5.330   3.559   9.501 -0.6540 -0.9561 -1.5847
  155MOL0     H20412   5.221   3.696   9.443 -0.7314  0.1776 -0.0377
  155MOL0     H20413   4.949   3.639   9.441 -0.3934  0.4569  0.3330
  155MOL0     H20414   4.801   3.319   9.335 -0.2595  0.6767 -0.4507
  155MOL0     H20415   4.763   3.492   9.359  2.2915  0.4899 -2.0444
  155MOL0     H20416   4.615   3.398   9.529 -0.2741  1.3050 -0.0471
  155MOL0     H20417   4.759   3.434   9.618 -1.4795  2.9625 -2.0943
  155MOL0     H20418   4.725   3.168   9.481  0.8922  0.6403 -0.2860
  155MOL0     H20419   4.852   3.211   9.596  0.1490  1.7796  1.1540
  155MOL0     H20420   4.687   3.068   9.683  2.5919  0.3448  0.7369
  155MOL0     H20421   4.560   3.201   9.650  0.7433  3.0372 -1.4166
  155MOL0     H20422   4.560   3.015   9.833  1.3286 -1.3163  0.5976
  155MOL0     H20423   4.410   2.975  10.015  3.0315 -0.5928 -0.0548
  155MOL0     H20424   4.275   2.791  10.369 -0.4828 -1.4189  0.1896
  155MOL0     H20425   4.115   2.722  10.541  0.2214  1.7186  2.3859
  155MOL0     H20426   4.005   2.786  10.764 -0.1315  1.0208  1.2387
  155MOL0     H20427   3.936   2.674  10.646  2.9594  0.3449  0.1605
  155MOL0     H20428   3.704   2.731  10.730 -0.8969  0.4970  0.7984
  155MOL0     H20429   3.775   2.863  10.821 -2.9239 -0.6242 -0.4996
  155MOL0     H20430   3.909   2.686  10.944  1.5822 -1.7914 -1.7268
  155MOL0     H20431   3.815   2.565  10.855 -0.6589  0.6228 -1.2537
  155MOL0     H20432   3.688   2.762  11.041 -0.5336  0.9855 -1.4065
  155MOL0     H20433   3.599   2.674  10.926  0.1458 -1.8371 -0.4532
  155MOL0     H20434   3.614   2.468  11.041 -4.1852  1.2725  0.8000
  155MOL0     H20435   3.591   2.596  11.163  1.2385  2.7805 -1.1402
  155MOL0     H20436   3.873   2.452  11.113 -1.1533  0.2134 -2.4127
  155MOL0     H20437   3.750   2.438  11.245  1.1242  2.9409  3.3777
  155MOL0     H20438   3.913   2.691  11.173  2.7865 -0.9805  0.1854
  155MOL0     H20439   3.772   2.682  11.276  3.0724  0.9666  2.6486
  155MOL0     H20440   3.901   2.490  11.398  0.5402 -2.7088 -2.5716
  155MOL0     H20441   3.982   2.653  11.413  1.9182 -0.2267  0.2197
  155MOL0     H20442   3.907   3.088  10.470  2.1475  2.7964 -0.3131
  155MOL0     H20443   4.081   3.155  10.297 -1.7234  0.8729  1.7488
  155MOL0     H20444   4.472   3.373  10.175 -4.2485  1.5495 -1.6625
  155MOL0     H20445   4.606   3.415   9.969  1.4078 -1.8856 -3.7211
  155MOL0     H20446   5.843   3.710   9.996 -1.8300  1.2850  1.8182
  155MOL0     H20447   6.076   3.612   9.937  0.9938  0.6636  0.0890
  155MOL0     H20448   6.457   3.393  10.010 -0.6929 -0.6802  1.2757
  155MOL0     H20449   6.671   3.390   9.928 -2.9930  0.8284 -2.1566
  155MOL0     H20450   6.949   3.563  10.159 -0.4027  0.5411 -0.3276
  155MOL0     H20451   6.961   3.719  10.065  1.4030  0.5357  3.8152
  155MOL0     H20452   7.111   3.603   9.891  2.3279 -0.5491 -0.7647
  155MOL0     H20453   7.179   3.613  10.058 -1.7960  2.3438 -0.0270
  155MOL0     H20454   7.074   3.381   9.897  0.0749 -0.9830 -0.6892
  155MOL0     H20455   7.042   3.382  10.067 -0.2098  0.9957 -0.1949
  155MOL0     H20456   7.330   3.405   9.940  0.6083 -0.5683  0.0563
  155MOL0     H20457   7.268   3.423  10.107 -3.3141  0.7862  0.3244
  155MOL0     H20458   7.290   3.006  10.067  0.0006  0.3189  0.8789
  155MOL0     H20459   6.762   3.761  10.123 -0.0324 -0.2408  2.6827
  155MOL0     H20460   6.543   3.771  10.206  3.1631  0.9942 -0.7280
  156MOL0     O20461   1.567   3.103   5.091  0.5398 -0.4785 -0.6563
  156MOL0     C20462   1.623   3.183   5.168  0.2244 -0.2801  0.6206
  156MOL0     O20463   1.568   3.238   5.279 -0.2011  0.1532  0.6425
  156MOL0     C20464   1.433   3.228   5.319 -0.0410 -0.6954  0.0510
  156MOL0     C20465   1.322   3.168   5.248 -0.2460  0.2814  0.2308
  156MOL0     C20466   1.192   3.171   5.299  0.3161 -0.3799 -0.2935
  156MOL0     C20467   1.162   3.224   5.423 -0.2104  0.3298 -0.3658
  156MOL0     O20468   1.031   3.230   5.452 -1.2223  0.2545  0.3811
  156MOL0     C20469   1.003   3.262   5.598  0.7803  0.4505  0.1100
  156MOL0     C20470   0.865   3.206   5.621  0.0148  0.1027 -0.3840
  156MOL0     C20471   0.858   3.053   5.637  0.3160  0.6277 -0.4797
  156MOL0     C20472   0.748   3.008   5.739  0.0197 -0.0158  0.2115
  156MOL0     C20473   0.614   3.074   5.700 -0.2666 -0.0745  0.0979
  156MOL0     C20474   0.498   2.996   5.768 -1.2556 -0.6350  1.2646
  156MOL0     C20475   0.466   2.867   5.691 -0.6810  0.1545 -0.2747
  156MOL0     C20476   0.339   2.804   5.750  0.5499 -0.4957  0.6854
  156MOL0     N20477   0.316   2.661   5.732 -0.0328  0.1449 -0.6323
  156MOL0     C20478   0.226   2.602   5.644 -0.5126 -0.1006 -0.7478
  156MOL0     C20479   0.193   2.484   5.697  0.5399 -1.3552  0.3882
  156MOL0     C20480   0.104   2.384   5.634  0.0702  0.0437  0.1494
  156MOL0     C20481   0.163   2.314   5.505 -0.0238  0.4437  0.4321
  156MOL0     C20482   0.258   2.204   5.547  0.1421  0.4416  0.3474
  156MOL0     C20483   0.344   2.163   5.441  0.5063 -0.3820 -0.1001
  156MOL0     O20484   0.409   2.032   5.469  0.0901  0.0050 -0.4860
  156MOL0     C20485   0.543   2.035   5.466 -0.1959 -0.3933 -0.4641
  156MOL0     C20486   0.622   1.988   5.570  0.1058  0.3018  0.0068
  156MOL0     C20487   0.767   1.995   5.559 -0.3769 -0.3120  0.4527
  156MOL0     C20488   0.830   2.055   5.460 -0.9678  0.3512  0.1836
  156MOL0     C20489   0.974   2.086   5.450  0.3100  0.2656 -0.8353
  156MOL0     O20490   1.027   2.132   5.562 -0.1788 -0.0297  0.1646
  156MOL0     C20491   1.163   2.175   5.551  0.1706  0.9270 -0.2913
  156MOL0     C20492   1.263   2.121   5.636 -0.5747 -0.2466  1.0363
  156MOL0     C20493   1.393   2.159   5.624 -0.0132 -0.4103 -0.2701
  156MOL0     C20494   1.439   2.252   5.530  0.0874  0.6340 -0.0668
  156MOL0     O20495   1.570   2.291   5.512  0.0488 -0.6697  0.0865
  156MOL0     C20496   1.667   2.204   5.557 -0.7772 -0.3601 -0.2868
  156MOL0     C20497   1.800   2.255   5.502  0.6282 -0.0977 -0.0941
  156MOL0     C20498   1.837   2.388   5.566 -0.0139 -0.1837 -1.1320
  156MOL0     C20499   1.988   2.435   5.551 -0.0197  0.8343  0.2672
  156MOL0     C20500   2.004   2.573   5.614  0.2432 -0.3973 -0.6595
  156MOL0     C20501   2.142   2.604   5.685  0.3318 -0.6848 -0.1014
  156MOL0     C20502   2.242   2.591   5.573  0.6724 -0.2390  0.1063
  156MOL0     C20503   2.379   2.628   5.614  0.1605 -0.5287 -0.2919
  156MOL0    Cl20504   2.504   2.639   5.488 -0.3130 -0.0946 -0.1239
  156MOL0     C20505   1.336   2.312   5.452  0.0887 -0.0657  0.3133
  156MOL0     C20506   1.206   2.272   5.465  0.4835 -0.3970  0.0792
  156MOL0     O20507   1.033   2.057   5.351  0.3631 -0.3256  0.3459
  156MOL0     C20508   0.748   2.108   5.356 -0.1824  0.1189  0.3876
  156MOL0     C20509   0.610   2.099   5.359 -0.2953 -1.0634  0.6654
  156MOL0     N20510   0.258   2.472   5.814  0.5152 -0.3676 -0.1388
  156MOL0     N20511   0.348   2.566   5.829  0.2920 -0.0182  0.1813
  156MOL0     C20512   1.269   3.282   5.497 -0.1685 -0.7429 -1.0843
  156MOL0     C20513   1.400   3.286   5.441 -0.0897 -0.3628 -0.1715
  156MOL0     C20514   1.775   3.179   5.156 -0.3878  1.5498  0.6031
  156MOL0     C20515   1.859   3.188   5.273  0.9184  0.4398  0.0192
  156MOL0     C20516   1.999   3.185   5.265  1.0003  0.9244 -0.3630
  156MOL0     C20517   2.061   3.189   5.141  0.2666  0.7814  1.0258
  156MOL0     O20518   2.194   3.197   5.136 -0.6070  0.6580  0.3564
  156MOL0     C20519   2.263   3.208   5.001 -0.4805  0.1214 -0.8365
  156MOL0     C20520   2.387   3.308   5.020 -0.1857  1.1942  0.6765
  156MOL0     C20521   2.510   3.268   4.934 -0.4073  0.2441 -0.1061
  156MOL0     C20522   2.629   3.354   4.976  0.1947 -0.0203 -0.4882
  156MOL0     C20523   2.763   3.314   4.921  0.1261 -1.1554  0.0709
  156MOL0     C20524   2.878   3.304   4.885 -0.5389 -0.1289 -0.0125
  156MOL0     C20525   1.979   3.176   5.030  0.9158  0.1158  0.6002
  156MOL0     C20526   1.838   3.169   5.035  0.5226  0.8350  0.7941
  156MOL0     H20527   1.330   3.131   5.147 -1.9645 -3.3382  1.2337
  156MOL0     H20528   1.110   3.129   5.243  2.5584 -0.7358 -3.6045
  156MOL0     H20529   1.014   3.371   5.601  1.7397  0.3590  0.2763
  156MOL0     H20530   1.071   3.210   5.666  0.5087  2.8827  2.3778
  156MOL0     H20531   0.807   3.241   5.535 -0.8367  3.7402  1.5022
  156MOL0     H20532   0.806   3.255   5.699 -2.8220 -0.4702 -2.0420
  156MOL0     H20533   0.951   3.006   5.669 -0.4305  0.2653  1.2939
  156MOL0     H20534   0.832   3.014   5.538  1.8688 -1.8975  0.0108
  156MOL0     H20535   0.733   2.900   5.729 -1.5220  0.3738 -2.5850
  156MOL0     H20536   0.766   3.034   5.844 -3.2160  1.4277  0.5297
  156MOL0     H20537   0.598   3.074   5.592 -0.9384  0.2347  0.1875
  156MOL0     H20538   0.621   3.175   5.743 -1.2222 -0.0529  0.2218
  156MOL0     H20539   0.413   3.063   5.751 -0.1694  0.3654 -0.5451
  156MOL0     H20540   0.524   2.984   5.874  2.7810  1.8599  0.7725
  156MOL0     H20541   0.451   2.873   5.583 -2.0568 -2.1270 -0.2679
  156MOL0     H20542   0.550   2.798   5.704 -0.4806  0.7510  1.9310
  156MOL0     H20543   0.259   2.861   5.702 -1.4409 -3.1561  0.5817
  156MOL0     H20544   0.331   2.825   5.857 -1.7213  0.3674  0.3864
  156MOL0     H20545   0.191   2.630   5.546  1.6483  1.6536 -1.0895
  156MOL0     H20546   0.013   2.437   5.606  0.4353 -0.3623 -1.9247
  156MOL0     H20547   0.079   2.308   5.709  0.1206 -3.6755 -3.2341
  156MOL0     H20548   0.214   2.384   5.438  2.1318 -1.9236 -0.5456
  156MOL0     H20549   0.080   2.272   5.446  1.0583  2.0814 -2.4915
  156MOL0     H20550   0.315   2.226   5.637  3.6144 -0.3622 -1.4912
  156MOL0     H20551   0.190   2.120   5.567  1.9414 -2.0647 -2.9439
  156MOL0     H20552   0.416   2.245   5.429  0.7050 -0.7049 -1.2570
  156MOL0     H20553   0.287   2.161   5.347  2.8998 -2.1248 -1.6404
  156MOL0     H20554   0.569   1.950   5.657 -3.4168  2.5607 -0.9237
  156MOL0     H20555   0.829   1.957   5.640  1.3092 -0.5284 -0.8944
  156MOL0     H20556   1.244   2.042   5.708 -0.0228 -1.2105  0.1413
  156MOL0     H20557   1.462   2.110   5.693  1.3924 -2.1068 -2.7330
  156MOL0     H20558   1.643   2.108   5.510 -2.3167  0.7039 -1.7783
  156MOL0     H20559   1.674   2.189   5.665  0.1002 -0.0956 -0.3025
  156MOL0     H20560   1.794   2.255   5.393 -0.1135 -1.7696 -0.0899
  156MOL0     H20561   1.875   2.178   5.520  0.8878  0.0860 -0.3934
  156MOL0     H20562   1.808   2.399   5.671 -2.0240  1.9907 -1.8426
  156MOL0     H20563   1.775   2.454   5.505  0.0628  0.4359 -0.5518
  156MOL0     H20564   2.062   2.363   5.589 -0.7799 -0.4726 -0.6305
  156MOL0     H20565   2.007   2.446   5.444  1.2541 -1.1823  0.2151
  156MOL0     H20566   1.926   2.600   5.685  0.5109  0.7829 -0.8050
  156MOL0     H20567   1.973   2.647   5.540 -1.5766  1.9085  2.1827
  156MOL0     H20568   2.158   2.521   5.755  2.0856  0.5033  0.9948
  156MOL0     H20569   2.140   2.697   5.744  2.1741 -1.3362  1.0821
  156MOL0     H20570   2.245   2.493   5.526  0.1192 -2.4825  4.2651
  156MOL0     H20571   2.212   2.667   5.501 -1.8967 -0.2440  1.0517
  156MOL0     H20572   2.416   2.555   5.687  0.9165  0.3388  0.2129
  156MOL0     H20573   2.389   2.723   5.667  0.0832 -1.5007  1.5424
  156MOL0     H20574   1.358   2.397   5.388 -0.7137  0.0541  0.1958
  156MOL0     H20575   1.126   2.315   5.406  2.3882  2.0368 -0.9177
  156MOL0     H20576   0.796   2.159   5.273  0.6802 -0.1088  0.7362
  156MOL0     H20577   0.552   2.131   5.272  0.3891 -0.1377  0.5352
  156MOL0     H20578   1.262   3.339   5.589 -3.3866 -1.0642 -0.9903
  156MOL0     H20579   1.484   3.326   5.497 -0.3292 -0.9617  0.6366
  156MOL0     H20580   1.817   3.189   5.373  0.6673  0.4046 -0.0844
  156MOL0     H20581   2.061   3.192   5.354 -0.5389  1.2812  0.7420
  156MOL0     H20582   2.196   3.245   4.923  0.4024  1.4657 -0.9912
  156MOL0     H20583   2.290   3.108   4.966 -2.4541  0.2160 -2.8248
  156MOL0     H20584   2.350   3.406   4.988 -2.3624 -0.2805 -1.6734
  156MOL0     H20585   2.421   3.316   5.124  0.7988  0.7242  0.4005
  156MOL0     H20586   2.485   3.278   4.828  3.8425  0.6880 -1.2453
  156MOL0     H20587   2.543   3.164   4.945  1.1075  0.3990 -2.5248
  156MOL0     H20588   2.593   3.455   4.956  1.2769  0.4300 -0.2436
  156MOL0     H20589   2.642   3.352   5.085 -0.9613 -2.8012 -0.3168
  156MOL0     H20590   2.982   3.301   4.858 -0.6856  3.5762 -1.6086
  156MOL0     H20591   2.012   3.161   4.928  0.2573 -1.9748  0.6497
  156MOL0     H20592   1.781   3.177   4.943  1.3062  3.9995  0.4663
  157MOL0     O20593   8.880   4.265   1.817 -0.6340  0.0572 -0.5066
  157MOL0     C20594   8.863   4.212   1.924  0.2039  0.2504 -0.2827
  157MOL0     O20595   8.743   4.171   1.972 -0.1046  0.1904  0.1601
  157MOL0     C20596   8.622   4.181   1.906 -0.7977 -0.2195  0.5445
  157MOL0     C20597   8.580   4.311   1.871  0.0455  0.1130 -0.1002
  157MOL0     C20598   8.444   4.321   1.821  0.0674  0.4071 -0.6419
  157MOL0     C20599   8.364   4.209   1.803 -0.1563 -0.6289 -0.7583
  157MOL0     O20600   8.230   4.213   1.769  0.1869  0.4899  0.0835
  157MOL0     C20601   8.161   4.335   1.788 -0.7846  0.2748 -0.3389
  157MOL0     C20602   8.019   4.319   1.726 -0.9684 -0.1898  0.9157
  157MOL0     C20603   8.013   4.345   1.577  0.3825  0.1287  0.3757
  157MOL0     C20604   7.991   4.492   1.557 -0.6825 -0.5453 -0.0777
  157MOL0     C20605   7.928   4.520   1.422 -0.1143  0.5058  0.3094
  157MOL0     C20606   8.000   4.486   1.298 -0.1585  0.0119 -0.4945
  157MOL0     C20607   7.946   4.570   1.169 -0.7281  0.2702  0.1583
  157MOL0     C20608   8.036   4.577   1.047  0.2023 -0.4045  0.8729
  157MOL0     N20609   7.984   4.670   0.944  0.3155  0.5299  0.1976
  157MOL0     C20610   7.859   4.655   0.895 -0.0713 -0.5956 -0.9355
  157MOL0     C20611   7.828   4.772   0.833  0.3038  0.2926  0.0274
  157MOL0     C20612   7.697   4.810   0.764 -0.5070 -0.4428 -0.5675
  157MOL0     C20613   7.652   4.711   0.656 -0.1836  0.4469 -0.2154
  157MOL0     C20614   7.746   4.680   0.549 -0.7789  0.9273  0.9175
  157MOL0     C20615   7.760   4.793   0.451  0.2136  0.2545  0.4721
  157MOL0     O20616   7.653   4.789   0.350 -0.3059 -0.2029  0.2983
  157MOL0     C20617   7.547   4.871   0.381  0.9697  0.0984 -0.4838
  157MOL0     C20618   7.426   4.810   0.403  0.3245 -0.2957  0.6439
  157MOL0     C20619   7.308   4.874   0.437 -0.8024  0.4819  0.0325
  157MOL0     C20620   7.301   5.018   0.438  0.0487  0.8018  0.9739
  157MOL0     C20621   7.170   5.081   0.460  0.1372  0.2460 -0.5930
  157MOL0     O20622   7.159   5.209   0.446 -0.6234 -0.2032 -0.6268
  157MOL0     C20623   7.033   5.271   0.453  0.8370 -0.1528  0.1350
  157MOL0     C20624   7.001   5.362   0.348 -0.0998  0.0592 -0.0551
  157MOL0     C20625   6.866   5.420   0.352 -0.3468  0.9480 -0.0437
  157MOL0     C20626   6.791   5.407   0.465 -0.0677 -0.5556 -0.1504
  157MOL0     O20627   6.672   5.474   0.482 -0.0227  0.0356 -0.0369
  157MOL0     C20628   6.544   5.398   0.464 -0.5478  0.8347  0.1321
  157MOL0     C20629   6.481   5.385   0.596  0.1419 -0.3299 -0.1252
  157MOL0     C20630   6.338   5.349   0.594  0.4740  0.5611  1.0326
  157MOL0     C20631   6.307   5.219   0.514 -0.3710 -0.1592  0.1920
  157MOL0     C20632   6.194   5.245   0.413  0.1182  0.3783 -1.2376
  157MOL0     C20633   6.072   5.262   0.494 -0.5679  0.5926 -0.1449
  157MOL0     C20634   5.951   5.267   0.407  0.1071 -0.5084 -0.6527
  157MOL0     C20635   5.822   5.245   0.488  0.5722 -0.0689 -0.0700
  157MOL0    Cl20636   5.804   5.386   0.601  0.3645 -0.0794 -0.0839
  157MOL0     C20637   6.827   5.323   0.571 -0.3890  0.5018 -0.7071
  157MOL0     C20638   6.951   5.257   0.563  0.7936  0.6516  0.1457
  157MOL0     O20639   7.066   4.999   0.478  0.0971 -0.7434 -0.6836
  157MOL0     C20640   7.430   5.084   0.413  0.7290 -0.2420  0.4486
  157MOL0     C20641   7.551   5.012   0.381  0.6642  0.2116 -0.4736
  157MOL0     N20642   7.939   4.858   0.840  0.4585  0.1530 -0.0225
  157MOL0     N20643   8.030   4.794   0.912 -0.2165 -0.5638 -0.3057
  157MOL0     C20644   8.423   4.083   1.838  0.3740  0.6322  0.0428
  157MOL0     C20645   8.550   4.062   1.893  0.0040 -0.4823 -0.1479
  157MOL0     C20646   8.983   4.194   2.006 -0.0838 -1.3503  0.1773
  157MOL0     C20647   9.111   4.236   1.958 -0.2650  0.3432 -0.3416
  157MOL0     C20648   9.217   4.237   2.047 -0.3006  0.2320 -0.0635
  157MOL0     C20649   9.218   4.176   2.169  0.5631  0.5903 -0.4029
  157MOL0     O20650   9.322   4.158   2.255 -0.5786  0.3803  0.0423
  157MOL0     C20651   9.429   4.241   2.241 -0.8577 -0.3676  0.0603
  157MOL0     C20652   9.467   4.256   2.384  0.2794  0.1382 -0.0462
  157MOL0     C20653   9.605   4.324   2.403  0.7070  0.1967  0.0111
  157MOL0     C20654   9.648   4.370   2.549 -0.4125  0.8007 -0.0849
  157MOL0     C20655   9.779   4.434   2.552 -0.2737 -0.4098  0.3658
  157MOL0     C20656   9.893   4.487   2.553  0.3548 -0.2939 -0.2123
  157MOL0     C20657   9.095   4.146   2.223 -0.4556  0.6103 -0.8410
  157MOL0     C20658   8.978   4.151   2.143  0.4490  0.2050  0.0034
  157MOL0     H20659   8.645   4.397   1.885 -0.8045  0.6498  0.6155
  157MOL0     H20660   8.417   4.425   1.801 -0.0252  0.3039 -1.0709
  157MOL0     H20661   8.214   4.425   1.755  0.7977 -0.3758  0.3527
  157MOL0     H20662   8.149   4.343   1.896  2.5689  0.4888  0.1233
  157MOL0     H20663   7.957   4.386   1.785 -2.2649 -2.3531  2.1633
  157MOL0     H20664   7.982   4.220   1.757  2.0138 -1.2431  1.4636
  157MOL0     H20665   7.925   4.295   1.537  0.2952  1.4408 -1.1727
  157MOL0     H20666   8.099   4.308   1.519  0.8662 -1.5515  2.0603
  157MOL0     H20667   7.916   4.527   1.629  1.6722 -1.4083  2.9969
  157MOL0     H20668   8.086   4.545   1.564  0.6191 -2.4011 -2.3276
  157MOL0     H20669   7.909   4.628   1.424  1.0855  0.7575 -0.6498
  157MOL0     H20670   7.837   4.460   1.412  0.8152 -0.6903 -1.6431
  157MOL0     H20671   7.988   4.377   1.293  1.5740 -0.4953  3.1053
  157MOL0     H20672   8.105   4.513   1.314  1.4128 -1.5635 -6.0111
  157MOL0     H20673   7.857   4.515   1.136  0.6019 -3.4620  2.2105
  157MOL0     H20674   7.928   4.666   1.218 -2.4881 -1.0616  2.3467
  157MOL0     H20675   8.054   4.477   1.007  2.4942  0.4826 -0.4573
  157MOL0     H20676   8.135   4.612   1.078  0.4012  0.9457 -1.1015
  157MOL0     H20677   7.798   4.566   0.907  1.9174 -1.7771  1.0279
  157MOL0     H20678   7.709   4.911   0.724  2.7851 -0.4509  0.1567
  157MOL0     H20679   7.619   4.814   0.841 -0.8944 -2.2012 -0.8399
  157MOL0     H20680   7.551   4.734   0.620 -0.3349 -1.1855 -0.9586
  157MOL0     H20681   7.620   4.620   0.708 -0.4377  0.5257 -0.2322
  157MOL0     H20682   7.843   4.651   0.591 -1.5088 -1.1259  1.3243
  157MOL0     H20683   7.703   4.595   0.495  2.2826 -1.6931  2.2312
  157MOL0     H20684   7.857   4.787   0.402 -1.0392  1.1864 -2.3040
  157MOL0     H20685   7.759   4.893   0.496  2.0633  1.0375 -1.1006
  157MOL0     H20686   7.416   4.702   0.410  0.4390 -0.2284  2.2813
  157MOL0     H20687   7.227   4.811   0.471 -1.4099  2.1582  1.8976
  157MOL0     H20688   7.062   5.367   0.259 -2.0527 -1.3495 -1.5843
  157MOL0     H20689   6.836   5.489   0.273  0.8031  1.2047 -0.2716
  157MOL0     H20690   6.577   5.299   0.431  2.3379  1.4842  0.8438
  157MOL0     H20691   6.472   5.442   0.393 -1.4222  2.0037  1.6855
  157MOL0     H20692   6.490   5.484   0.642 -1.8249  0.9708 -2.3410
  157MOL0     H20693   6.537   5.320   0.664 -4.4040 -0.0143  4.5561
  157MOL0     H20694   6.287   5.439   0.556  0.4321  1.9217  3.9994
  157MOL0     H20695   6.307   5.331   0.697  2.2033 -0.7604  1.3507
  157MOL0     H20696   6.396   5.185   0.460 -1.1710  1.8820 -2.6452
  157MOL0     H20697   6.280   5.138   0.582  1.3680  1.5934  3.1575
  157MOL0     H20698   6.185   5.159   0.346 -1.1728  1.0314 -1.9328
  157MOL0     H20699   6.214   5.336   0.356  0.5703  1.5249  0.6464
  157MOL0     H20700   6.072   5.352   0.556 -0.7363  0.9423 -0.6457
  157MOL0     H20701   6.064   5.171   0.554 -0.5547  0.7572  0.1062
  157MOL0     H20702   5.952   5.368   0.367  4.0845  0.9855  2.4203
  157MOL0     H20703   5.954   5.187   0.333 -2.0707 -2.2391  0.9937
  157MOL0     H20704   5.822   5.148   0.538 -2.4975  0.7303  1.7655
  157MOL0     H20705   5.727   5.248   0.432 -0.5761  0.3907  1.8107
  157MOL0     H20706   6.780   5.313   0.668 -0.4157  2.1445 -0.5274
  157MOL0     H20707   6.980   5.191   0.644  0.2496  1.2783  0.8639
  157MOL0     H20708   7.442   5.192   0.414 -0.8525 -0.0143 -0.9976
  157MOL0     H20709   7.649   5.048   0.353  0.2463  2.0539  0.3096
  157MOL0     H20710   8.371   3.989   1.825  0.6733  0.5243 -0.3839
  157MOL0     H20711   8.582   3.961   1.915 -1.1071 -1.0728 -1.1316
  157MOL0     H20712   9.125   4.262   1.853  0.9143  0.8981 -0.0637
  157MOL0     H20713   9.318   4.255   2.015  1.3324 -3.8144  1.9955
  157MOL0     H20714   9.391   4.336   2.202 -0.2325 -0.1803 -0.1198
  157MOL0     H20715   9.510   4.198   2.181  0.6253 -0.0368  1.7316
  157MOL0     H20716   9.384   4.302   2.439 -1.3598 -1.9845 -0.6115
  157MOL0     H20717   9.488   4.158   2.428  1.2992  1.0946  1.7201
  157MOL0     H20718   9.599   4.412   2.337 -2.0788 -0.7721 -1.1905
  157MOL0     H20719   9.676   4.260   2.348  1.3444  0.8062  0.1034
  157MOL0     H20720   9.575   4.442   2.587  0.1790  0.6976  1.2986
  157MOL0     H20721   9.653   4.281   2.612 -0.7360 -0.0593 -1.2483
  157MOL0     H20722   9.997   4.507   2.540  0.7449 -2.1674 -0.3573
  157MOL0     H20723   9.089   4.115   2.327 -0.5782 -0.6902 -1.2198
  157MOL0     H20724   8.885   4.118   2.188  0.1438  0.4215 -0.4601
  158MOL0     O20725   1.753   5.709   8.508  0.2489 -0.2278 -1.0714
  158MOL0     C20726   1.788   5.594   8.529  0.0355 -1.0625 -0.6608
  158MOL0     O20727   1.909   5.548   8.499 -0.4536  0.8903 -0.6576
  158MOL0     C20728   2.019   5.637   8.493 -0.0601  0.5091  0.4254
  158MOL0     C20729   2.111   5.628   8.385 -0.3164 -0.5931 -0.9397
  158MOL0     C20730   2.231   5.703   8.389  0.2457  0.1371  0.9834
  158MOL0     C20731   2.257   5.785   8.491  0.4967 -1.0068 -0.6205
  158MOL0     O20732   2.392   5.822   8.479 -0.8418  0.3829 -0.4899
  158MOL0     C20733   2.442   5.929   8.556  0.8554 -0.1681 -0.4500
  158MOL0     C20734   2.598   5.924   8.559 -0.0663 -0.3686 -0.3628
  158MOL0     C20735   2.677   5.969   8.438 -0.0895  0.2097 -0.3083
  158MOL0     C20736   2.824   5.940   8.448  0.0302  0.2604  0.0769
  158MOL0     C20737   2.908   5.995   8.331 -0.2043 -0.8718 -0.3871
  158MOL0     C20738   3.054   5.963   8.353  0.4164  0.6956 -0.1568
  158MOL0     C20739   3.140   6.061   8.270  0.1146  0.2540 -0.2302
  158MOL0     C20740   3.285   6.042   8.294 -0.0738 -0.1975 -0.3503
  158MOL0     N20741   3.349   6.144   8.210  0.1570 -1.2562  0.1096
  158MOL0     C20742   3.382   6.268   8.269  0.4729 -0.8273 -0.7346
  158MOL0     C20743   3.385   6.347   8.160  0.3039 -0.3460  0.2538
  158MOL0     C20744   3.388   6.497   8.174 -0.2619 -0.1701  0.4798
  158MOL0     C20745   3.268   6.579   8.216  1.0998 -0.3048 -0.6494
  158MOL0     C20746   3.135   6.520   8.167  0.4282 -0.0067  0.7160
  158MOL0     C20747   3.081   6.561   8.031 -0.2403  0.1222  0.6308
  158MOL0     O20748   2.940   6.519   8.023  0.1725 -0.0595  0.0495
  158MOL0     C20749   2.913   6.389   7.990 -0.1861  0.5829 -0.1141
  158MOL0     C20750   3.008   6.287   7.966  0.3691 -0.1874 -0.1001
  158MOL0     C20751   2.963   6.155   7.944 -0.5926 -0.0180  0.5454
  158MOL0     C20752   2.825   6.118   7.934 -0.4162 -0.0230  1.2378
  158MOL0     C20753   2.775   5.976   7.927  0.5495 -0.8167 -0.0678
  158MOL0     O20754   2.636   5.960   7.952 -0.7306 -0.1559 -0.7559
  158MOL0     C20755   2.577   5.840   7.915 -0.0859 -0.3110 -0.1308
  158MOL0     C20756   2.509   5.761   8.009  0.0876  1.2918 -0.0369
  158MOL0     C20757   2.434   5.647   7.960  0.2926  0.1115  0.1500
  158MOL0     C20758   2.445   5.608   7.825 -0.2948 -0.2775 -0.3655
  158MOL0     O20759   2.358   5.504   7.783  0.5732 -0.2429  1.0945
  158MOL0     C20760   2.302   5.512   7.654  0.6512 -0.7788  0.4840
  158MOL0     C20761   2.185   5.419   7.636  0.7477 -0.2813 -0.0268
  158MOL0     C20762   2.065   5.453   7.724  0.2602 -0.3764  0.1297
  158MOL0     C20763   1.958   5.339   7.721  0.9816  0.1068 -0.2563
  158MOL0     C20764   1.819   5.379   7.794  0.2258  0.0719 -0.0961
  158MOL0     C20765   1.732   5.465   7.695 -0.1185 -0.2152  0.0051
  158MOL0     C20766   1.593   5.498   7.730 -0.1817  0.3209 -0.6849
  158MOL0     C20767   1.516   5.520   7.598  1.2036 -0.1637  0.2327
  158MOL0    Cl20768   1.355   5.582   7.634 -0.2354  0.0714  0.3090
  158MOL0     C20769   2.527   5.683   7.736  0.5072 -0.1848  0.1042
  158MOL0     C20770   2.588   5.797   7.782 -0.2489  0.1427  0.5469
  158MOL0     O20771   2.852   5.886   7.906 -0.1490 -0.6842 -0.0515
  158MOL0     C20772   2.739   6.226   7.956 -0.6327 -0.9578 -0.0011
  158MOL0     C20773   2.782   6.353   7.984 -0.0642 -0.8245 -0.5853
  158MOL0     N20774   3.382   6.271   8.041  0.9071 -0.3601 -1.3195
  158MOL0     N20775   3.375   6.144   8.076 -0.0640  0.3460 -0.7723
  158MOL0     C20776   2.169   5.800   8.594 -0.7474  0.5078  0.1761
  158MOL0     C20777   2.049   5.726   8.595  1.3032  0.5161  1.0369
  158MOL0     C20778   1.670   5.508   8.546 -0.5543 -0.5969  0.1786
  158MOL0     C20779   1.535   5.557   8.560  0.0863 -1.3287 -0.2823
  158MOL0     C20780   1.423   5.467   8.571  0.0380 -0.2135  0.2535
  158MOL0     C20781   1.437   5.330   8.565  0.2228  0.4350  0.1370
  158MOL0     O20782   1.333   5.239   8.546  1.0110 -0.0321  0.7208
  158MOL0     C20783   1.197   5.282   8.562  0.2090 -0.0036  0.2463
  158MOL0     C20784   1.138   5.292   8.421  0.0762 -0.7620  0.5640
  158MOL0     C20785   0.987   5.310   8.422  0.2154 -0.7013 -0.5614
  158MOL0     C20786   0.914   5.187   8.468  0.2580 -1.2352  0.1861
  158MOL0     C20787   0.769   5.197   8.449  0.0498 -0.2160 -0.3104
  158MOL0     C20788   0.647   5.215   8.431 -0.1326 -0.2382 -1.1113
  158MOL0     C20789   1.573   5.286   8.557  0.3194  0.0865  0.3866
  158MOL0     C20790   1.687   5.370   8.545  0.3281 -0.6829  0.8625
  158MOL0     H20791   2.098   5.549   8.311  1.8212 -1.5232 -0.4118
  158MOL0     H20792   2.302   5.689   8.309 -0.2964 -1.3790  0.7423
  158MOL0     H20793   2.406   5.942   8.658 -2.6415  1.5006 -1.7544
  158MOL0     H20794   2.420   6.025   8.509 -1.1591 -0.6445 -0.5838
  158MOL0     H20795   2.630   5.826   8.596  1.9843  0.8778  1.3385
  158MOL0     H20796   2.629   6.006   8.623 -1.2122  2.5883 -3.3182
  158MOL0     H20797   2.659   6.074   8.416 -0.2920 -0.0311 -1.3690
  158MOL0     H20798   2.627   5.917   8.355 -1.1464  2.0683 -0.8850
  158MOL0     H20799   2.869   5.968   8.544  0.7175 -1.3686  0.2773
  158MOL0     H20800   2.829   5.830   8.447 -2.0035  0.0944  1.3702
  158MOL0     H20801   2.892   6.103   8.326  1.6956 -0.5768 -0.6867
  158MOL0     H20802   2.884   5.960   8.230  1.6996  1.6371 -1.8118
  158MOL0     H20803   3.074   5.860   8.321  0.3927  0.8065 -0.5358
  158MOL0     H20804   3.080   5.963   8.459  0.9293 -0.2264 -0.2727
  158MOL0     H20805   3.114   6.040   8.166 -1.1627  0.9837 -0.0800
  158MOL0     H20806   3.109   6.162   8.299  0.9762  0.0456  1.5600
  158MOL0     H20807   3.322   5.940   8.282  1.0685  0.1116  0.3853
  158MOL0     H20808   3.306   6.046   8.401 -1.2682 -2.7805  0.0516
  158MOL0     H20809   3.383   6.303   8.372  2.0831  1.6926 -1.5072
  158MOL0     H20810   3.415   6.519   8.070  2.1523 -1.9983  0.6356
  158MOL0     H20811   3.474   6.526   8.234 -0.4622  0.2148  0.5883
  158MOL0     H20812   3.275   6.683   8.182 -0.7416 -0.0459 -0.3326
  158MOL0     H20813   3.256   6.578   8.325 -0.4675 -2.4408 -0.7702
  158MOL0     H20814   3.131   6.412   8.182  1.6065 -0.1158  0.3713
  158MOL0     H20815   3.067   6.567   8.238  3.7126  0.6233  3.7102
  158MOL0     H20816   3.134   6.506   7.952 -2.1512 -2.0859  0.8034
  158MOL0     H20817   3.103   6.665   8.007  1.7713 -0.9039 -2.6608
  158MOL0     H20818   3.116   6.297   7.963  0.5195 -0.7956  1.9577
  158MOL0     H20819   3.047   6.087   7.932  2.0182  2.8323  1.3304
  158MOL0     H20820   2.503   5.806   8.108  0.7569 -2.3332  1.8429
  158MOL0     H20821   2.358   5.607   8.026 -0.7259 -0.7354 -1.4804
  158MOL0     H20822   2.373   5.464   7.586 -2.5832 -0.9484 -3.0442
  158MOL0     H20823   2.289   5.610   7.609  1.0967 -1.2661 -0.7593
  158MOL0     H20824   2.210   5.314   7.658 -1.0171 -0.5060  1.0837
  158MOL0     H20825   2.153   5.412   7.531  0.6978 -0.1982 -0.0173
  158MOL0     H20826   2.020   5.543   7.683  1.7843  0.1066 -0.5551
  158MOL0     H20827   2.085   5.461   7.831 -1.8102 -0.9013  0.6024
  158MOL0     H20828   1.936   5.320   7.616  0.5813 -0.7290 -0.0277
  158MOL0     H20829   1.993   5.247   7.768  0.0762 -0.7756 -1.2542
  158MOL0     H20830   1.841   5.426   7.890  0.6756  0.3304 -0.3199
  158MOL0     H20831   1.764   5.285   7.804 -0.3929  0.5414  1.1685
  158MOL0     H20832   1.738   5.419   7.596 -0.1316 -1.0940  0.3965
  158MOL0     H20833   1.789   5.558   7.688  0.0108 -0.2300  0.7454
  158MOL0     H20834   1.544   5.410   7.774 -2.5593  0.8752 -2.0585
  158MOL0     H20835   1.582   5.579   7.803 -3.2952 -0.7686  0.2178
  158MOL0     H20836   1.509   5.438   7.527 -2.4478  0.8959 -0.8048
  158MOL0     H20837   1.576   5.596   7.548 -1.7849  0.5526 -2.6089
  158MOL0     H20838   2.530   5.661   7.629  0.1638 -0.3156  0.1188
  158MOL0     H20839   2.659   5.849   7.718 -0.8828 -1.3917 -1.4793
  158MOL0     H20840   2.631   6.214   7.947 -1.1381  1.6026  1.6786
  158MOL0     H20841   2.712   6.432   8.010  0.6868  0.1226 -1.3481
  158MOL0     H20842   2.186   5.862   8.681 -0.6980 -1.6964  1.8511
  158MOL0     H20843   1.989   5.718   8.685  1.8609 -2.7925  1.2686
  158MOL0     H20844   1.508   5.662   8.556  1.8209 -0.9071 -2.1708
  158MOL0     H20845   1.332   5.525   8.559  2.1562  3.1105 -0.9936
  158MOL0     H20846   1.178   5.379   8.609 -2.5778 -0.8873  1.1344
  158MOL0     H20847   1.151   5.193   8.605  1.9469 -2.5318 -2.6841
  158MOL0     H20848   1.180   5.376   8.366  1.0027 -1.0359  0.8255
  158MOL0     H20849   1.173   5.211   8.357 -0.5661 -1.4477  1.0593
  158MOL0     H20850   0.948   5.343   8.325 -1.1464  3.3436  1.1640
  158MOL0     H20851   0.958   5.381   8.500  0.6715  0.5350 -1.4860
  158MOL0     H20852   0.962   5.110   8.407 -0.8705  0.2659 -2.7964
  158MOL0     H20853   0.934   5.173   8.574  0.2515  1.8145  0.6816
  158MOL0     H20854   0.542   5.235   8.425 -0.4081  0.0247  2.6462
  158MOL0     H20855   1.583   5.180   8.533 -0.8182 -0.6381  2.8760
  158MOL0     H20856   1.784   5.324   8.537 -0.4284 -1.9743 -2.4488
  159MOL0     O20857   2.471   4.977   2.745  0.2231 -0.6979 -0.1959
  159MOL0     C20858   2.591   4.937   2.758 -0.1193 -0.3493  1.1772
  159MOL0     O20859   2.630   4.837   2.834  0.4925 -0.2759 -0.0744
  159MOL0     C20860   2.547   4.799   2.938  0.0451  0.8338  0.1740
  159MOL0     C20861   2.502   4.881   3.033 -0.0231 -0.2802 -0.8473
  159MOL0     C20862   2.408   4.831   3.131 -0.9535 -0.6781  0.2691
  159MOL0     C20863   2.378   4.695   3.145 -0.0570 -0.6889 -0.1555
  159MOL0     O20864   2.306   4.662   3.255  0.1041 -0.0247 -0.6374
  159MOL0     C20865   2.310   4.521   3.297  0.0485 -0.1749  0.7798
  159MOL0     C20866   2.204   4.431   3.239  0.3231  0.6562 -1.2840
  159MOL0     C20867   2.062   4.468   3.278 -0.3130 -0.8613 -0.3429
  159MOL0     C20868   1.969   4.347   3.270 -0.3723 -0.0534  0.2706
  159MOL0     C20869   1.828   4.369   3.311  0.1695 -0.2264  0.5286
  159MOL0     C20870   1.745   4.233   3.321 -0.4470  0.7319  0.4429
  159MOL0     C20871   1.610   4.241   3.245  0.2646  0.0018  0.3428
  159MOL0     C20872   1.531   4.374   3.298 -0.2799  0.3210  0.0682
  159MOL0     N20873   1.507   4.381   3.446  0.1444 -0.5355 -0.8069
  159MOL0     C20874   1.438   4.291   3.530  0.0762 -0.6550  0.5893
  159MOL0     C20875   1.408   4.356   3.639  0.3334  0.4397 -0.0818
  159MOL0     C20876   1.315   4.308   3.755  0.4110 -0.3791 -0.7090
  159MOL0     C20877   1.171   4.284   3.716  0.5783 -0.5533 -0.1953
  159MOL0     C20878   1.092   4.416   3.688 -0.1631  0.5684  0.7539
  159MOL0     C20879   0.944   4.396   3.714 -0.4369 -0.3669  0.1851
  159MOL0     O20880   0.908   4.296   3.619  0.1587  0.3751  0.0688
  159MOL0     C20881   0.777   4.262   3.631  0.8445 -0.1145 -0.5358
  159MOL0     C20882   0.671   4.353   3.668 -0.3982 -0.0179  0.1877
  159MOL0     C20883   0.539   4.310   3.680  0.5667  0.4652  0.0860
  159MOL0     C20884   0.500   4.179   3.647 -0.2045  0.6990  0.4600
  159MOL0     C20885   0.354   4.152   3.653 -0.0604 -0.3682  0.6122
  159MOL0     O20886   0.267   4.240   3.711 -0.2601 -0.1711 -0.7315
  159MOL0     C20887   0.143   4.207   3.746  1.0008  0.2078  1.1182
  159MOL0     C20888   0.044   4.313   3.740 -0.6727  1.0252  0.1630
  159MOL0     C20889  -0.088   4.294   3.769 -0.0681 -0.2532  0.2533
  159MOL0     C20890  -0.127   4.172   3.832 -1.0603  0.3662  0.0613
  159MOL0     O20891  -0.254   4.160   3.885 -0.1338 -1.2420  0.0810
  159MOL0     C20892  -0.299   4.026   3.918 -0.8471  1.1612  0.3025
  159MOL0     C20893  -0.441   4.004   3.964 -0.3885 -1.3158  0.3009
  159MOL0     C20894  -0.456   4.073   4.092 -0.5500 -0.4225  0.3114
  159MOL0     C20895  -0.604   4.089   4.145  0.7717  0.8494  0.3046
  159MOL0     C20896  -0.663   3.955   4.179  1.3552 -0.4728  0.7226
  159MOL0     C20897  -0.804   3.977   4.242 -0.5732 -1.3239 -0.7181
  159MOL0     C20898  -0.882   3.840   4.237  0.5438  0.5450 -0.5879
  159MOL0     C20899  -1.025   3.876   4.280 -0.2252 -0.9771  0.1472
  159MOL0    Cl20900  -1.142   3.746   4.253 -0.0789  0.1177 -0.6374
  159MOL0     C20901  -0.030   4.071   3.838 -0.7942  0.3426 -0.4234
  159MOL0     C20902   0.097   4.082   3.793  0.5449 -0.6347  0.1882
  159MOL0     O20903   0.311   4.046   3.600  0.2629 -0.0528  0.3163
  159MOL0     C20904   0.602   4.089   3.610 -0.0166 -0.7034 -0.0319
  159MOL0     C20905   0.733   4.126   3.608 -0.7189  0.4229  0.0690
  159MOL0     N20906   1.458   4.490   3.622  0.9633 -0.1759  0.4944
  159MOL0     N20907   1.533   4.499   3.514 -0.1037  0.4093 -0.0283
  159MOL0     C20908   2.436   4.609   3.046  0.0419 -0.4127 -0.1065
  159MOL0     C20909   2.520   4.659   2.948  0.2483 -0.6288  0.4386
  159MOL0     C20910   2.690   4.997   2.668  0.0020 -1.2113 -0.3349
  159MOL0     C20911   2.824   4.956   2.683  0.2230 -0.1469 -0.6311
  159MOL0     C20912   2.922   4.993   2.592 -0.0649 -0.3030  0.2532
  159MOL0     C20913   2.888   5.091   2.494 -0.7710  0.1981  0.7579
  159MOL0     O20914   2.966   5.138   2.399  0.0303  0.7967 -0.0637
  159MOL0     C20915   3.108   5.123   2.403  0.3462  0.4327  1.1618
  159MOL0     C20916   3.167   5.164   2.267  0.1891  0.2708  0.0656
  159MOL0     C20917   3.323   5.159   2.286  0.6824 -1.0470  0.3145
  159MOL0     C20918   3.387   5.180   2.146  1.8141  0.2113  0.0402
  159MOL0     C20919   3.530   5.147   2.148 -0.0323  0.0354  0.1022
  159MOL0     C20920   3.653   5.137   2.140  0.3473 -0.2392 -0.5446
  159MOL0     C20921   2.756   5.135   2.485  0.0347  0.1201 -0.0814
  159MOL0     C20922   2.658   5.096   2.574 -0.6102  0.5157  0.0669
  159MOL0     H20923   2.524   4.987   3.023 -0.7705 -0.1513 -1.2341
  159MOL0     H20924   2.369   4.909   3.196  0.0163  0.4066 -0.4059
  159MOL0     H20925   2.297   4.516   3.406 -2.1001 -1.4658  0.5256
  159MOL0     H20926   2.410   4.489   3.265 -0.4471  0.6085 -1.7483
  159MOL0     H20927   2.216   4.328   3.275 -3.7264  0.9180  1.4080
  159MOL0     H20928   2.206   4.439   3.130  0.1839 -2.3617 -1.5903
  159MOL0     H20929   2.029   4.552   3.215 -0.1427 -0.4462  0.1251
  159MOL0     H20930   2.052   4.512   3.377  0.3448  0.9120 -1.0327
  159MOL0     H20931   1.966   4.307   3.168  1.1887  0.0066  0.1811
  159MOL0     H20932   2.011   4.272   3.338 -2.3951 -1.2545  0.2998
  159MOL0     H20933   1.782   4.446   3.249  0.8620  1.5355  2.1073
  159MOL0     H20934   1.836   4.414   3.411  1.7207  0.7417 -0.0052
  159MOL0     H20935   1.729   4.213   3.427 -0.8623  2.3762  0.7087
  159MOL0     H20936   1.790   4.143   3.278 -2.2967 -0.7334  1.4142
  159MOL0     H20937   1.618   4.250   3.136  1.2314  1.0189  0.4839
  159MOL0     H20938   1.558   4.149   3.275  2.4471 -0.7368  2.1314
  159MOL0     H20939   1.429   4.358   3.262  0.0071 -0.6266 -0.3311
  159MOL0     H20940   1.581   4.466   3.265 -1.1692  0.1128 -1.9594
  159MOL0     H20941   1.400   4.191   3.509 -0.9804 -1.1316  4.1381
  159MOL0     H20942   1.317   4.391   3.826  1.5884 -0.5339 -0.5381
  159MOL0     H20943   1.363   4.218   3.795  2.9078  1.6861  1.3140
  159MOL0     H20944   1.121   4.239   3.803 -1.2147  1.0719 -0.3229
  159MOL0     H20945   1.167   4.226   3.624  1.4017  0.0684 -0.6296
  159MOL0     H20946   1.128   4.507   3.737 -2.3133  2.9259 -1.7040
  159MOL0     H20947   1.091   4.434   3.580  0.4827  4.2486  1.2412
  159MOL0     H20948   0.896   4.491   3.688  0.5937  0.1450  0.0992
  159MOL0     H20949   0.929   4.375   3.820  0.0167  0.5474  0.4436
  159MOL0     H20950   0.694   4.459   3.679 -0.1948 -0.0468  0.0365
  159MOL0     H20951   0.468   4.380   3.723 -0.6222 -0.6756  0.0281
  159MOL0     H20952   0.092   4.405   3.708  2.8656  0.1450  2.3157
  159MOL0     H20953  -0.155   4.380   3.771 -0.0543 -0.1689 -1.3325
  159MOL0     H20954  -0.227   3.989   3.992  1.8656 -0.2795 -2.8132
  159MOL0     H20955  -0.280   3.960   3.833  2.6691 -0.3556  2.0471
  159MOL0     H20956  -0.472   3.900   3.963  1.4612 -1.9115  0.4796
  159MOL0     H20957  -0.501   4.058   3.890  0.6069 -1.1704 -0.4344
  159MOL0     H20958  -0.407   4.170   4.090 -0.5349 -0.4400 -0.4717
  159MOL0     H20959  -0.398   4.014   4.164 -2.1124 -0.4363  1.6104
  159MOL0     H20960  -0.602   4.149   4.237  0.9710  2.2042 -0.5444
  159MOL0     H20961  -0.658   4.139   4.064 -4.3545 -1.2090  2.0330
  159MOL0     H20962  -0.597   3.911   4.255 -1.5942  0.7825  4.2745
  159MOL0     H20963  -0.670   3.901   4.084 -0.7016 -0.4491  0.8327
  159MOL0     H20964  -0.865   4.059   4.203 -0.0191 -0.1989  0.6732
  159MOL0     H20965  -0.782   4.007   4.345  1.2296 -1.9971 -0.8713
  159MOL0     H20966  -0.869   3.788   4.142  0.9043 -2.2683  0.9211
  159MOL0     H20967  -0.854   3.762   4.308 -0.2841 -1.0405 -1.9228
  159MOL0     H20968  -1.053   3.973   4.239  2.5506  0.6551  1.7785
  159MOL0     H20969  -1.032   3.896   4.388 -1.0636  0.7489 -0.1926
  159MOL0     H20970  -0.047   3.970   3.872 -0.6084  0.4265 -0.0681
  159MOL0     H20971   0.161   3.995   3.779 -0.6352 -1.1666 -2.5553
  159MOL0     H20972   0.569   3.991   3.578 -3.0492  0.8572 -2.2327
  159MOL0     H20973   0.799   4.050   3.567 -2.2989  0.5439 -2.8880
  159MOL0     H20974   2.439   4.501   3.053  0.1318 -0.3547  0.9609
  159MOL0     H20975   2.561   4.594   2.871  1.5269  0.2951  0.3160
  159MOL0     H20976   2.862   4.887   2.758  0.7422  0.7082 -0.0877
  159MOL0     H20977   3.025   4.959   2.601  0.4637  0.4402 -2.1597
  159MOL0     H20978   3.139   5.020   2.426  1.6153  0.3442 -0.7452
  159MOL0     H20979   3.147   5.188   2.482 -1.3231  2.1016  0.6881
  159MOL0     H20980   3.132   5.089   2.195 -0.1738 -0.2983  0.8152
  159MOL0     H20981   3.137   5.269   2.260 -1.1470  0.4610  5.1332
  159MOL0     H20982   3.344   5.060   2.328  0.3287 -0.6108  1.5660
  159MOL0     H20983   3.348   5.228   2.367 -2.7328 -1.1960  1.7051
  159MOL0     H20984   3.340   5.112   2.073  2.4413  1.0562 -1.1896
  159MOL0     H20985   3.362   5.280   2.110 -3.2869  0.1793  2.6246
  159MOL0     H20986   3.759   5.129   2.130  0.2925 -1.9941 -0.0890
  159MOL0     H20987   2.744   5.203   2.401  3.8388  0.0868 -0.8444
  159MOL0     H20988   2.559   5.136   2.557 -0.8568 -0.7004 -1.7072
  160MOL0     O20989   6.816   2.195   1.539  0.2430  0.0697 -0.3297
  160MOL0     C20990   6.781   2.111   1.625  0.4451 -0.0861  0.3160
  160MOL0     O20991   6.669   2.045   1.629 -0.5735  0.2045 -0.0081
  160MOL0     C20992   6.570   2.084   1.541  0.2182  0.4458 -0.0905
  160MOL0     C20993   6.509   2.212   1.556  0.7785  0.1513 -0.3266
  160MOL0     C20994   6.406   2.253   1.472  0.1800  0.0129 -0.6218
  160MOL0     C20995   6.367   2.178   1.362 -0.1183  0.8494  0.0277
  160MOL0     O20996   6.283   2.215   1.263  0.5261 -0.2876 -0.9886
  160MOL0     C20997   6.144   2.220   1.291 -0.6869 -0.1980 -0.1410
  160MOL0     C20998   6.088   2.239   1.155  0.9118  0.5133 -0.3708
  160MOL0     C20999   6.099   2.113   1.073 -0.0019 -0.2013 -0.7190
  160MOL0     C21000   6.059   2.156   0.924  0.5679  0.1237 -0.2218
  160MOL0     C21001   6.179   2.211   0.848 -0.1057  0.5916  0.6471
  160MOL0     C21002   6.144   2.294   0.718 -0.9936  0.8841  0.4759
  160MOL0     C21003   6.088   2.436   0.741 -0.0396 -1.1360  0.3533
  160MOL0     C21004   6.178   2.537   0.815 -0.1699 -0.3457  0.3752
  160MOL0     N21005   6.308   2.554   0.745 -0.8347  1.2413  0.5275
  160MOL0     C21006   6.418   2.468   0.763  0.3499  0.2987  1.7113
  160MOL0     C21007   6.522   2.517   0.695  0.1443 -0.7615 -0.2031
  160MOL0     C21008   6.667   2.467   0.706  0.5111 -0.4985  0.0275
  160MOL0     C21009   6.723   2.512   0.839 -0.2126 -0.6058 -0.0023
  160MOL0     C21010   6.873   2.478   0.844 -0.7076 -0.1512  0.0665
  160MOL0     C21011   6.975   2.587   0.790  0.4940 -0.2996  0.1388
  160MOL0     O21012   7.113   2.561   0.815  0.7450 -0.0798  0.6653
  160MOL0     C21013   7.189   2.671   0.806 -0.1121  0.9818  0.3009
  160MOL0     C21014   7.168   2.785   0.729  0.4226 -0.9049 -0.3921
  160MOL0     C21015   7.248   2.898   0.756 -0.3338  0.3553  0.2979
  160MOL0     C21016   7.372   2.888   0.833  0.3925  0.3410 -0.2059
  160MOL0     C21017   7.466   3.005   0.837  0.6895 -0.1570 -0.3501
  160MOL0     O21018   7.597   2.966   0.834  0.0423 -0.0005 -0.3881
  160MOL0     C21019   7.689   3.066   0.814  0.3598  0.9011  0.3364
  160MOL0     C21020   7.767   3.102   0.921 -0.9694  0.0907  0.7444
  160MOL0     C21021   7.875   3.188   0.894 -0.1060 -1.0553  0.1291
  160MOL0     C21022   7.910   3.236   0.761 -0.1351  0.6238  0.5686
  160MOL0     O21023   7.998   3.333   0.718  0.6015 -0.4019  0.0736
  160MOL0     C21024   8.064   3.403   0.826 -0.0531  0.2018 -0.3752
  160MOL0     C21025   8.128   3.525   0.771  0.3439 -0.3898  0.5651
  160MOL0     C21026   8.238   3.513   0.665  0.7465  0.3621  0.6891
  160MOL0     C21027   8.359   3.442   0.691  0.7376 -0.1040 -0.0103
  160MOL0     C21028   8.445   3.480   0.569  0.5468  0.9473  0.7623
  160MOL0     C21029   8.583   3.415   0.596  0.2242 -0.0085  0.3919
  160MOL0     C21030   8.691   3.474   0.501 -0.4194  0.1437 -0.4130
  160MOL0     C21031   8.800   3.361   0.493 -0.0800 -0.2632  1.1374
  160MOL0    Cl21032   8.929   3.444   0.391 -0.0452  0.0567  0.0660
  160MOL0     C21033   7.824   3.192   0.649  0.2304 -0.6437 -0.1755
  160MOL0     C21034   7.717   3.111   0.684  0.5150 -0.0281  0.2204
  160MOL0     O21035   7.424   3.124   0.824  0.1317 -0.9983  0.0469
  160MOL0     C21036   7.394   2.768   0.907  0.5785  0.7667  0.1695
  160MOL0     C21037   7.300   2.664   0.891  0.5473  0.2142 -0.4441
  160MOL0     N21038   6.481   2.633   0.633  0.2591  0.3657  0.0662
  160MOL0     N21039   6.355   2.649   0.660  0.0225  0.3017 -0.2325
  160MOL0     C21040   6.429   2.047   1.342 -0.5139  0.3285  0.2159
  160MOL0     C21041   6.529   2.015   1.433 -0.1242 -0.2128 -0.3635
  160MOL0     C21042   6.890   2.054   1.710  0.0595 -0.2974  0.1074
  160MOL0     C21043   7.023   2.102   1.701  0.1867  0.0256 -0.4460
  160MOL0     C21044   7.131   2.038   1.766 -0.3008  0.3675  0.3285
  160MOL0     C21045   7.109   1.928   1.843 -0.3318  0.6460  0.2377
  160MOL0     O21046   7.202   1.848   1.898  0.7606  0.3614 -0.5906
  160MOL0     C21047   7.341   1.883   1.899  0.1205 -0.4790 -0.1645
  160MOL0     C21048   7.397   1.871   1.758  0.3351  0.4247  0.0927
  160MOL0     C21049   7.543   1.820   1.744  0.3335 -0.5205  0.6634
  160MOL0     C21050   7.609   1.833   1.598  0.4534 -0.1421  0.2192
  160MOL0     C21051   7.737   1.761   1.601  0.0885  0.6642  0.5138
  160MOL0     C21052   7.836   1.698   1.606 -0.2894  0.0328 -0.2781
  160MOL0     C21053   6.977   1.880   1.856 -0.0400 -0.5774  0.2432
  160MOL0     C21054   6.872   1.942   1.790  0.2600  0.5391  0.1326
  160MOL0     H21055   6.529   2.286   1.633 -1.0020  0.3160  0.0159
  160MOL0     H21056   6.360   2.352   1.479 -0.9320 -0.2670 -2.8711
  160MOL0     H21057   6.106   2.292   1.364 -1.8610 -0.2844 -0.6528
  160MOL0     H21058   6.116   2.124   1.334  1.1739 -1.3023 -1.2343
  160MOL0     H21059   6.132   2.327   1.106  1.9729  0.0212 -0.3421
  160MOL0     H21060   5.982   2.266   1.161  0.8478  0.6719 -1.9281
  160MOL0     H21061   6.027   2.044   1.118 -0.8043  1.1988  0.2385
  160MOL0     H21062   6.197   2.065   1.081 -0.3775 -0.7062  1.9602
  160MOL0     H21063   6.026   2.073   0.861  1.4991  0.9654 -1.8820
  160MOL0     H21064   5.978   2.229   0.920  1.0724  1.0081  2.8679
  160MOL0     H21065   6.251   2.134   0.817 -1.3879 -0.7399  0.8631
  160MOL0     H21066   6.236   2.268   0.922 -0.6759  2.9001 -0.5908
  160MOL0     H21067   6.068   2.228   0.674  0.4845 -2.3965  2.4769
  160MOL0     H21068   6.223   2.297   0.643 -2.4981 -0.9413 -1.3060
  160MOL0     H21069   6.069   2.475   0.641 -1.8357 -0.1573  1.0358
  160MOL0     H21070   5.989   2.427   0.788 -0.7124  0.2768 -0.7439
  160MOL0     H21071   6.193   2.500   0.916 -0.2230  0.2178  0.5947
  160MOL0     H21072   6.120   2.631   0.812  0.4403  0.1069 -3.7818
  160MOL0     H21073   6.429   2.379   0.825  1.6811 -0.8118 -0.0051
  160MOL0     H21074   6.717   2.511   0.619 -0.0267 -4.2075 -2.3718
  160MOL0     H21075   6.681   2.359   0.698  1.1247 -0.4449  0.3775
  160MOL0     H21076   6.669   2.456   0.917  0.4596  0.6068  1.3953
  160MOL0     H21077   6.702   2.617   0.863  1.0036  0.6666 -3.9017
  160MOL0     H21078   6.899   2.470   0.950 -0.2925 -0.3776 -0.0470
  160MOL0     H21079   6.896   2.383   0.793 -0.3428  0.4582 -0.9356
  160MOL0     H21080   6.945   2.685   0.828  0.1964 -0.1863 -0.3804
  160MOL0     H21081   6.958   2.605   0.684  0.5745 -0.6615  0.0656
  160MOL0     H21082   7.088   2.782   0.657 -0.4432 -2.6937  0.5640
  160MOL0     H21083   7.222   2.992   0.707  0.2231  0.2023 -0.3058
  160MOL0     H21084   7.734   3.083   1.023  0.7517  0.9364  1.4909
  160MOL0     H21085   7.923   3.215   0.987  0.4505 -3.3613  0.5872
  160MOL0     H21086   8.143   3.343   0.871  0.5712  2.1078  1.2342
  160MOL0     H21087   8.001   3.439   0.908 -0.7259  0.9940 -1.2045
  160MOL0     H21088   8.160   3.575   0.863 -2.3485  0.0508  1.3257
  160MOL0     H21089   8.046   3.573   0.717  1.1909  0.9626  0.4424
  160MOL0     H21090   8.252   3.620   0.645 -0.3034  0.2136 -1.0625
  160MOL0     H21091   8.204   3.470   0.570  5.1977 -0.2805 -0.9004
  160MOL0     H21092   8.407   3.484   0.780 -0.1862  0.6259  0.1578
  160MOL0     H21093   8.339   3.337   0.710  3.0151 -0.6466 -0.2790
  160MOL0     H21094   8.457   3.586   0.544 -4.4853  1.2059 -1.7227
  160MOL0     H21095   8.413   3.442   0.472  0.3274  2.0377  0.3983
  160MOL0     H21096   8.579   3.308   0.573 -0.6610 -0.4037  2.2345
  160MOL0     H21097   8.618   3.428   0.699  2.0310 -1.3815  0.0052
  160MOL0     H21098   8.649   3.493   0.402 -0.2320 -3.1689 -1.2483
  160MOL0     H21099   8.728   3.566   0.547 -3.5941  0.2864  2.1987
  160MOL0     H21100   8.767   3.280   0.427 -0.9010  2.0774 -1.5524
  160MOL0     H21101   8.819   3.324   0.594  0.0309  0.8261  1.5260
  160MOL0     H21102   7.853   3.231   0.552  1.2359 -1.9633 -0.4274
  160MOL0     H21103   7.653   3.080   0.602 -0.5123 -0.4156  1.1377
  160MOL0     H21104   7.480   2.751   0.972 -0.8475 -1.2163  1.6931
  160MOL0     H21105   7.311   2.577   0.954  1.5792 -1.1614 -2.3880
  160MOL0     H21106   6.387   1.998   1.255  0.8976  2.1343 -1.5980
  160MOL0     H21107   6.569   1.915   1.421  1.9910  0.2011  2.3386
  160MOL0     H21108   7.048   2.188   1.640 -0.0466  1.1393  0.9620
  160MOL0     H21109   7.224   2.092   1.750  0.5781 -1.0827  0.2949
  160MOL0     H21110   7.387   1.800   1.953 -2.1536 -1.1716  0.8288
  160MOL0     H21111   7.358   1.978   1.950  1.3240 -0.0790 -1.2236
  160MOL0     H21112   7.343   1.795   1.699  0.4660 -1.7098  2.5178
  160MOL0     H21113   7.392   1.971   1.715  2.5981 -0.2659 -1.9719
  160MOL0     H21114   7.552   1.715   1.774  0.2012  0.3291  4.0545
  160MOL0     H21115   7.619   1.880   1.795  3.2368 -1.0636 -2.6290
  160MOL0     H21116   7.539   1.785   1.529 -0.4512 -0.1961  1.1483
  160MOL0     H21117   7.624   1.934   1.559 -3.6976  1.3360  1.8543
  160MOL0     H21118   7.929   1.646   1.595  0.3810  1.0852  0.2652
  160MOL0     H21119   6.953   1.786   1.905 -0.2616 -0.4895  0.3068
  160MOL0     H21120   6.775   1.893   1.795  0.6511 -0.5851 -2.2517
  161MOL0     O21121   5.703   3.932   8.711 -0.1875 -0.3093 -0.0448
  161MOL0     C21122   5.798   3.952   8.633 -0.6420  0.3710  0.2479
  161MOL0     O21123   5.798   4.017   8.515 -0.1757 -0.7440  0.1675
  161MOL0     C21124   5.677   4.051   8.462  1.1657  0.9042  0.3495
  161MOL0     C21125   5.623   3.966   8.366  0.5601 -0.0362  0.3809
  161MOL0     C21126   5.500   4.003   8.306 -0.0874 -0.2339 -0.0514
  161MOL0     C21127   5.433   4.119   8.338 -0.6464  0.4728 -0.2317
  161MOL0     O21128   5.308   4.139   8.291 -0.1788  0.3581  0.4559
  161MOL0     C21129   5.216   4.210   8.377  0.3225 -0.8049  0.3128
  161MOL0     C21130   5.204   4.172   8.529  0.6851 -0.0264  0.7241
  161MOL0     C21131   5.150   4.030   8.539  0.3652  0.2893 -0.0547
  161MOL0     C21132   5.145   3.977   8.687 -0.0324  0.6353 -0.2810
  161MOL0     C21133   5.279   3.905   8.731  0.0004 -0.9328 -0.2382
  161MOL0     C21134   5.271   3.849   8.882  0.0257  0.2518  0.0972
  161MOL0     C21135   5.406   3.775   8.920  0.1424 -0.2515 -0.6630
  161MOL0     C21136   5.389   3.694   9.049 -0.1980  0.4845 -1.5832
  161MOL0     N21137   5.288   3.584   9.044 -0.8498 -0.4669 -0.8871
  161MOL0     C21138   5.263   3.514   8.930  0.2885 -0.0395 -0.1397
  161MOL0     C21139   5.154   3.444   8.951  0.1846 -0.3589 -0.4488
  161MOL0     C21140   5.098   3.332   8.869 -0.5091  0.6687 -0.8701
  161MOL0     C21141   5.091   3.347   8.720 -0.3477 -0.1289 -0.2158
  161MOL0     C21142   5.008   3.474   8.680  0.2642  1.0996  0.9990
  161MOL0     C21143   4.856   3.451   8.706 -0.5875  0.4547 -0.0956
  161MOL0     O21144   4.819   3.543   8.812 -0.0229  0.0144 -0.2130
  161MOL0     C21145   4.706   3.523   8.881  0.2127 -0.4238 -0.5118
  161MOL0     C21146   4.587   3.484   8.821  0.0619 -0.8210 -0.2443
  161MOL0     C21147   4.467   3.476   8.891  0.0900 -0.7597  0.0178
  161MOL0     C21148   4.459   3.519   9.022  0.7428  0.4189  0.0160
  161MOL0     C21149   4.329   3.514   9.102  0.0785 -0.1294  0.4008
  161MOL0     O21150   4.220   3.448   9.051  0.7698 -0.1588  0.1451
  161MOL0     C21151   4.114   3.433   9.132  0.2710 -0.2854 -0.7190
  161MOL0     C21152   4.092   3.302   9.176  0.2174  0.5176 -0.4200
  161MOL0     C21153   3.978   3.285   9.268  0.1358 -0.0950  0.6842
  161MOL0     C21154   3.907   3.386   9.317  0.4485 -1.4901 -0.2719
  161MOL0     O21155   3.798   3.384   9.402 -0.1547  0.0808  0.9385
  161MOL0     C21156   3.692   3.283   9.367 -0.7544 -0.3356 -0.3532
  161MOL0     C21157   3.572   3.285   9.459 -0.2008 -0.2812  0.3858
  161MOL0     C21158   3.468   3.189   9.411  0.8926  0.2488 -0.2084
  161MOL0     C21159   3.327   3.201   9.480 -0.9687  0.3724 -0.1954
  161MOL0     C21160   3.240   3.095   9.421 -0.8733 -0.3030  0.2007
  161MOL0     C21161   3.092   3.100   9.457  0.3234  0.6270 -0.2232
  161MOL0     C21162   3.013   2.988   9.390 -0.0487 -0.4294  0.1921
  161MOL0     C21163   2.969   3.043   9.249 -0.4061 -0.4565  0.8603
  161MOL0    Cl21164   2.888   2.912   9.147  0.0006  0.1153 -0.4677
  161MOL0     C21165   3.945   3.519   9.275  0.1463  0.3768  0.6563
  161MOL0     C21166   4.047   3.540   9.184 -0.6615 -0.4930  0.0533
  161MOL0     O21167   4.334   3.558   9.219 -0.9294  0.1253  0.1342
  161MOL0     C21168   4.572   3.564   9.084  0.6463  0.2992 -0.0079
  161MOL0     C21169   4.696   3.567   9.016  0.0912  0.6982 -0.4319
  161MOL0     N21170   5.106   3.477   9.080 -0.2823  0.3775 -0.2883
  161MOL0     N21171   5.195   3.558   9.137  0.0373  0.1130  0.5244
  161MOL0     C21172   5.504   4.204   8.428 -0.0028  0.6839  0.2674
  161MOL0     C21173   5.613   4.167   8.498 -0.2239  0.1790  0.6303
  161MOL0     C21174   5.926   3.890   8.653  0.5936 -0.4967  0.6023
  161MOL0     C21175   5.955   3.860   8.788 -0.2807 -0.8481 -0.2052
  161MOL0     C21176   6.077   3.798   8.808 -0.5516 -0.6437 -1.2298
  161MOL0     C21177   6.175   3.772   8.707 -0.3540 -0.3921  0.4841
  161MOL0     O21178   6.296   3.716   8.735  0.0675  0.2283 -0.4865
  161MOL0     C21179   6.353   3.725   8.863  0.5382 -0.6993  0.3183
  161MOL0     C21180   6.502   3.700   8.852  0.0616  0.4498 -0.7561
  161MOL0     C21181   6.584   3.822   8.800 -0.2138  0.2174 -0.8286
  161MOL0     C21182   6.558   3.863   8.655  0.6295  0.5477 -0.8063
  161MOL0     C21183   6.674   3.919   8.590 -0.5042  0.2248  0.6612
  161MOL0     C21184   6.780   3.951   8.537  0.4274 -0.5499 -0.7738
  161MOL0     C21185   6.138   3.804   8.573  0.0985 -0.3281 -0.4489
  161MOL0     C21186   6.008   3.852   8.548 -0.4270 -0.9184  0.9376
  161MOL0     H21187   5.665   3.867   8.353  1.1536  0.3723 -1.1062
  161MOL0     H21188   5.442   3.936   8.244  0.2238  0.7672 -1.4573
  161MOL0     H21189   5.118   4.215   8.329  0.7905  0.3833 -0.5645
  161MOL0     H21190   5.250   4.314   8.384 -0.2243 -0.3372 -2.7652
  161MOL0     H21191   5.134   4.241   8.576  1.6098  0.2300  1.7670
  161MOL0     H21192   5.300   4.167   8.582  2.4161 -3.0937 -2.2876
  161MOL0     H21193   5.216   3.966   8.480 -0.2858  0.0659 -0.5480
  161MOL0     H21194   5.046   4.028   8.505 -0.5185 -3.6080  2.1878
  161MOL0     H21195   5.123   4.061   8.754 -2.2798  0.2030 -0.3729
  161MOL0     H21196   5.055   3.915   8.697  0.5448 -0.1489  0.1607
  161MOL0     H21197   5.356   3.981   8.722  2.3857 -3.1355  0.4605
  161MOL0     H21198   5.290   3.819   8.665 -2.4689 -2.1489  0.7823
  161MOL0     H21199   5.194   3.772   8.887  1.9031 -1.8643 -1.2813
  161MOL0     H21200   5.265   3.943   8.938 -1.7242 -0.2263  0.7442
  161MOL0     H21201   5.426   3.709   8.836  1.9807 -1.9510  1.0092
  161MOL0     H21202   5.482   3.844   8.959 -1.2464  0.0459  1.7083
  161MOL0     H21203   5.365   3.762   9.132 -0.7804 -1.5252 -0.0197
  161MOL0     H21204   5.484   3.643   9.066 -0.4808  0.2365 -0.6979
  161MOL0     H21205   5.342   3.498   8.857 -0.1544  0.6244 -0.7775
  161MOL0     H21206   4.992   3.323   8.896 -0.4992  0.4610 -0.8985
  161MOL0     H21207   5.143   3.236   8.894 -3.0056 -0.6400 -1.1364
  161MOL0     H21208   5.053   3.260   8.666  2.7307 -0.7388 -1.6398
  161MOL0     H21209   5.194   3.351   8.683 -0.6937 -2.1871 -1.5043
  161MOL0     H21210   5.039   3.564   8.733  1.0146 -0.5022  3.4371
  161MOL0     H21211   5.020   3.496   8.574 -3.6977  2.5402  0.6737
  161MOL0     H21212   4.827   3.346   8.722 -0.5047 -0.0468 -2.8342
  161MOL0     H21213   4.806   3.483   8.614  0.5686 -1.1047 -1.3309
  161MOL0     H21214   4.584   3.444   8.720  1.6366  0.4000 -0.8267
  161MOL0     H21215   4.377   3.442   8.842 -1.4277 -1.0678  2.8298
  161MOL0     H21216   4.150   3.220   9.135 -0.5421 -1.9016  2.9036
  161MOL0     H21217   3.936   3.187   9.286 -0.2541  0.0322  0.4780
  161MOL0     H21218   3.731   3.182   9.383  3.2007  1.2143  0.9886
  161MOL0     H21219   3.659   3.292   9.263  0.4283  0.9982 -0.6491
  161MOL0     H21220   3.535   3.387   9.465  1.7424  0.4316  1.0892
  161MOL0     H21221   3.606   3.255   9.559 -1.4194 -0.5626  0.7378
  161MOL0     H21222   3.500   3.084   9.416 -1.3856 -0.4590  1.0909
  161MOL0     H21223   3.454   3.210   9.304  0.2551  1.2923  0.0654
  161MOL0     H21224   3.349   3.166   9.581  1.4422 -0.2154 -0.8579
  161MOL0     H21225   3.289   3.303   9.471 -1.6952 -0.0115 -1.8122
  161MOL0     H21226   3.295   3.003   9.444  2.8418  2.2389  2.5510
  161MOL0     H21227   3.242   3.121   9.315  0.6953  0.3423  0.3619
  161MOL0     H21228   3.044   3.194   9.430 -0.1521  0.3567 -0.3194
  161MOL0     H21229   3.090   3.082   9.565  1.1019 -1.8254 -0.5468
  161MOL0     H21230   3.074   2.897   9.384  1.2482  0.2710  1.8301
  161MOL0     H21231   2.926   2.961   9.450 -1.3832  1.2292 -0.9231
  161MOL0     H21232   3.056   3.089   9.201  0.6837 -0.4770  2.7058
  161MOL0     H21233   2.910   3.133   9.267  0.1779 -0.2721  1.9511
  161MOL0     H21234   3.889   3.598   9.323 -1.4516 -0.7137  0.6607
  161MOL0     H21235   4.076   3.640   9.153  1.9635 -0.5788  1.9615
  161MOL0     H21236   4.562   3.604   9.184 -0.2042  0.5046 -0.1721
  161MOL0     H21237   4.785   3.613   9.058  1.1167 -0.8308 -0.8727
  161MOL0     H21238   5.462   4.292   8.474  0.4368  2.5633 -2.6518
  161MOL0     H21239   5.654   4.219   8.584  0.3012 -3.1127  2.5471
  161MOL0     H21240   5.888   3.872   8.873 -1.3189 -3.4547 -0.5536
  161MOL0     H21241   6.102   3.773   8.911 -0.9327  1.5185 -0.5712
  161MOL0     H21242   6.304   3.642   8.916 -1.0764  1.0060  1.6292
  161MOL0     H21243   6.335   3.818   8.917  1.0115 -1.5369  1.9739
  161MOL0     H21244   6.552   3.679   8.948  1.8706  1.9716 -1.2947
  161MOL0     H21245   6.536   3.618   8.788  2.1808 -1.0775  2.0725
  161MOL0     H21246   6.690   3.797   8.810 -0.1402  0.8558  0.2777
  161MOL0     H21247   6.570   3.906   8.869  0.3738  0.6152 -1.1951
  161MOL0     H21248   6.523   3.774   8.602 -0.3503 -0.2562  1.0840
  161MOL0     H21249   6.478   3.937   8.654  2.1474  2.2730 -2.6093
  161MOL0     H21250   6.873   3.966   8.487  0.2846  1.4864 -0.5095
  161MOL0     H21251   6.202   3.771   8.492 -1.0516 -0.5500 -1.3033
  161MOL0     H21252   5.992   3.870   8.442 -0.0370  1.8737  1.2641
  162MOL0     O21253   4.367   5.010   8.140 -0.1144  0.1340  0.0058
  162MOL0     C21254   4.375   5.131   8.124 -0.4789 -0.4170 -0.0765
  162MOL0     O21255   4.281   5.223   8.160 -0.3225  0.7790  0.0244
  162MOL0     C21256   4.162   5.183   8.225 -0.2408 -0.6815  0.1791
  162MOL0     C21257   4.098   5.284   8.304  0.2971 -0.3155 -0.2047
  162MOL0     C21258   3.975   5.278   8.371 -0.5703  1.0435 -0.6159
  162MOL0     C21259   3.904   5.160   8.362 -1.1036 -0.2272 -0.0131
  162MOL0     O21260   3.785   5.152   8.427  0.2033 -0.7879 -0.0913
  162MOL0     C21261   3.704   5.037   8.424  0.1388  0.0265  0.3467
  162MOL0     C21262   3.575   5.102   8.478 -0.1551 -0.5778  0.4277
  162MOL0     C21263   3.466   4.984   8.468 -0.1082  0.1782 -1.0612
  162MOL0     C21264   3.353   5.012   8.569  0.2137 -0.8890  0.4707
  162MOL0     C21265   3.262   5.129   8.520  0.7052  0.2225 -0.4833
  162MOL0     C21266   3.147   5.102   8.417  1.0520  0.9012  0.3013
  162MOL0     C21267   3.033   5.017   8.492 -0.0728  0.0387 -0.0298
  162MOL0     C21268   2.965   5.095   8.601  0.0233 -0.0886 -0.0822
  162MOL0     N21269   2.852   5.003   8.650  0.3497 -0.1290  0.0656
  162MOL0     C21270   2.717   5.035   8.638 -0.6152 -0.1874  0.8150
  162MOL0     C21271   2.667   4.937   8.708 -0.4185 -0.1733 -0.7030
  162MOL0     C21272   2.530   4.892   8.706 -1.2512  0.1817  0.0526
  162MOL0     C21273   2.482   4.841   8.840  0.4073 -0.0581 -0.0687
  162MOL0     C21274   2.330   4.836   8.867 -0.8551  0.5879  0.0525
  162MOL0     C21275   2.266   4.722   8.778 -0.0761 -0.4620 -0.9498
  162MOL0     O21276   2.260   4.596   8.857  0.1982 -0.2651 -0.7496
  162MOL0     C21277   2.149   4.573   8.932 -1.4950  0.6568  0.2088
  162MOL0     C21278   2.052   4.663   8.961  0.1017 -0.1281 -0.2721
  162MOL0     C21279   1.959   4.635   9.054  0.6644  0.9661  0.0169
  162MOL0     C21280   1.963   4.508   9.124 -0.2827  0.0762  0.4513
  162MOL0     C21281   1.881   4.482   9.243 -0.4272  0.3985  1.0696
  162MOL0     O21282   1.886   4.358   9.296 -0.9134  0.6021  0.5295
  162MOL0     C21283   1.833   4.342   9.416  0.8259 -0.5289  0.2211
  162MOL0     C21284   1.908   4.362   9.526 -0.2067  0.2063 -1.1528
  162MOL0     C21285   1.863   4.336   9.661  0.0326 -0.7131  0.0347
  162MOL0     C21286   1.726   4.315   9.675 -0.6174 -0.2758 -0.1178
  162MOL0     O21287   1.663   4.304   9.795 -0.4277 -0.4187  0.1223
  162MOL0     C21288   1.702   4.382   9.902 -0.7745  0.8669 -0.7063
  162MOL0     C21289   1.581   4.421   9.983  0.4973  0.1968 -0.2582
  162MOL0     C21290   1.502   4.301  10.028  0.4294 -0.8393 -0.0474
  162MOL0     C21291   1.424   4.334  10.159 -0.3406  1.3105  0.3500
  162MOL0     C21292   1.319   4.231  10.190  0.1763 -0.5447 -0.3739
  162MOL0     C21293   1.204   4.220  10.091 -0.1777 -0.5554 -0.1247
  162MOL0     C21294   1.098   4.135  10.161 -0.1317  0.1168  0.2716
  162MOL0     C21295   0.973   4.128  10.083 -0.6553 -1.0615  0.0064
  162MOL0    Cl21296   0.867   4.012  10.167  0.3257 -0.0192 -0.4483
  162MOL0     C21297   1.644   4.304   9.559  0.5765 -0.0371 -0.0146
  162MOL0     C21298   1.695   4.314   9.427 -0.4903  0.2939 -0.4785
  162MOL0     O21299   1.817   4.576   9.279 -0.1945  0.3686 -0.3050
  162MOL0     C21300   2.071   4.417   9.098 -0.5594 -0.0774 -0.3992
  162MOL0     C21301   2.163   4.444   8.997 -0.7241  0.1979  0.9687
  162MOL0     N21302   2.758   4.857   8.768  0.5848 -0.4890 -0.1213
  162MOL0     N21303   2.872   4.904   8.738 -0.5018 -0.6479 -0.1548
  162MOL0     C21304   3.965   5.050   8.296 -0.1897  0.9735  0.4601
  162MOL0     C21305   4.088   5.064   8.221  0.5110 -0.9929  0.6218
  162MOL0     C21306   4.503   5.179   8.057  0.0819 -0.4666  0.1733
  162MOL0     C21307   4.529   5.317   8.039  0.2361  0.3359  0.0221
  162MOL0     C21308   4.642   5.372   7.978 -0.1785 -0.3915  0.1306
  162MOL0     C21309   4.741   5.287   7.934 -0.6062 -0.1533 -0.1113
  162MOL0     O21310   4.852   5.325   7.854  0.8192  0.9049  0.0872
  162MOL0     C21311   4.935   5.422   7.914 -1.0029  0.1759 -1.0944
  162MOL0     C21312   4.971   5.424   8.060  0.8909  0.4593 -0.3391
  162MOL0     C21313   5.059   5.313   8.110 -0.0565  0.6940 -0.7852
  162MOL0     C21314   5.094   5.343   8.259 -0.3854  0.3760  0.5238
  162MOL0     C21315   4.993   5.303   8.360  0.3623 -0.3998 -0.3818
  162MOL0     C21316   4.921   5.256   8.442  0.0278  0.0073 -0.5360
  162MOL0     C21317   4.723   5.145   7.950  0.1679 -0.5327  0.9328
  162MOL0     C21318   4.611   5.092   8.011 -0.6122  0.1863  0.3977
  162MOL0     H21319   4.145   5.379   8.326  1.3545 -0.8394 -0.1010
  162MOL0     H21320   3.927   5.354   8.432 -3.6978 -2.4992  1.9090
  162MOL0     H21321   3.747   4.960   8.488  1.8354  1.3342  0.8681
  162MOL0     H21322   3.692   5.011   8.319  1.7347  1.5769 -0.2749
  162MOL0     H21323   3.533   5.192   8.431  1.4761  0.3344  0.6482
  162MOL0     H21324   3.583   5.135   8.582 -1.3393  1.9251 -0.1911
  162MOL0     H21325   3.523   4.893   8.489  0.1195  0.3729 -0.8365
  162MOL0     H21326   3.425   4.986   8.366  0.2348  3.4752 -1.2308
  162MOL0     H21327   3.291   4.922   8.577  2.4630 -2.5099  0.8096
  162MOL0     H21328   3.407   5.029   8.663  0.7870  0.5552 -0.0950
  162MOL0     H21329   3.317   5.214   8.478  3.1642 -1.2505 -0.3818
  162MOL0     H21330   3.217   5.172   8.611 -0.5314  1.0662 -1.4538
  162MOL0     H21331   3.185   5.035   8.339 -0.2459 -3.6961  3.2475
  162MOL0     H21332   3.095   5.187   8.372  0.9916  0.0336 -1.3553
  162MOL0     H21333   2.972   4.981   8.408 -4.3553  1.9760  1.9713
  162MOL0     H21334   3.082   4.935   8.546  0.5645  0.5670  0.2064
  162MOL0     H21335   2.933   5.197   8.578  1.6297  1.1231  2.6235
  162MOL0     H21336   3.044   5.112   8.675  1.6141 -1.1203 -1.4738
  162MOL0     H21337   2.669   5.112   8.579  4.1138  3.9681  1.7686
  162MOL0     H21338   2.523   4.810   8.634 -2.6426 -1.7777  2.2790
  162MOL0     H21339   2.454   4.963   8.672 -3.2453 -3.0750 -3.0050
  162MOL0     H21340   2.522   4.899   8.924 -0.3459  1.4774 -0.7261
  162MOL0     H21341   2.530   4.745   8.856  2.5110  1.0693  0.7423
  162MOL0     H21342   2.301   4.828   8.973 -2.3407  2.1943 -0.1866
  162MOL0     H21343   2.286   4.932   8.839 -0.6282  0.1608 -1.8798
  162MOL0     H21344   2.320   4.708   8.684  0.4240  3.6858 -1.4908
  162MOL0     H21345   2.166   4.756   8.749  0.6951  2.5898 -0.4392
  162MOL0     H21346   2.051   4.768   8.932  1.5045 -0.1524 -0.4520
  162MOL0     H21347   1.882   4.707   9.078 -1.1927  0.0983 -2.8535
  162MOL0     H21348   2.012   4.391   9.511  0.4243 -0.9231  0.6321
  162MOL0     H21349   1.931   4.340   9.746  1.1396 -1.8558 -0.7594
  162MOL0     H21350   1.748   4.474   9.866 -1.2055  0.3803 -2.5967
  162MOL0     H21351   1.774   4.332   9.968  0.6074  2.9069 -0.5713
  162MOL0     H21352   1.519   4.482   9.917 -1.2686 -1.0600  0.1867
  162MOL0     H21353   1.613   4.485  10.066 -3.6821  0.2072  1.5826
  162MOL0     H21354   1.571   4.221  10.057 -1.5419 -2.3188  0.8398
  162MOL0     H21355   1.439   4.275   9.942 -1.2579 -0.8817  1.1589
  162MOL0     H21356   1.495   4.343  10.242 -1.5588 -0.6875  1.7202
  162MOL0     H21357   1.377   4.431  10.141 -0.1079  0.8495 -3.6194
  162MOL0     H21358   1.283   4.249  10.292  2.4221  1.2023  0.1881
  162MOL0     H21359   1.376   4.138  10.187 -0.6187 -1.0272 -1.1730
  162MOL0     H21360   1.240   4.184   9.994  3.0525 -0.3760  0.9033
  162MOL0     H21361   1.165   4.322  10.086 -3.0660 -1.4697  1.5182
  162MOL0     H21362   1.133   4.032  10.175 -0.2760  0.1593  0.9687
  162MOL0     H21363   1.082   4.181  10.259 -1.1964 -0.7514  0.5287
  162MOL0     H21364   1.006   4.092   9.985 -2.0954 -0.8019 -0.5965
  162MOL0     H21365   0.918   4.222  10.074 -1.5861 -1.5999  0.0030
  162MOL0     H21366   1.540   4.283   9.582  0.6241  1.1512  1.5102
  162MOL0     H21367   1.639   4.303   9.335 -0.9264 -0.5037 -0.1220
  162MOL0     H21368   2.097   4.337   9.166 -0.9031 -0.7515 -1.0393
  162MOL0     H21369   2.246   4.376   8.980 -0.2298  0.9181  0.4397
  162MOL0     H21370   3.913   4.957   8.278 -0.1478  1.1093 -0.4057
  162MOL0     H21371   4.111   4.976   8.161 -2.0810 -0.3844 -1.4322
  162MOL0     H21372   4.447   5.379   8.073  0.9136  0.2048  1.9783
  162MOL0     H21373   4.661   5.478   7.965  0.6056 -0.4487  0.7643
  162MOL0     H21374   4.902   5.524   7.892  1.7456  0.6721 -3.4905
  162MOL0     H21375   5.027   5.410   7.856 -0.1014  2.3912 -0.2478
  162MOL0     H21376   5.028   5.517   8.068  1.0284  0.5176 -1.7841
  162MOL0     H21377   4.877   5.435   8.115  0.8308  0.3365 -0.4189
  162MOL0     H21378   5.150   5.324   8.050  1.2421 -1.5521  0.6539
  162MOL0     H21379   5.014   5.214   8.102  0.9284  0.0311  1.2338
  162MOL0     H21380   5.187   5.289   8.275 -0.1829 -0.2412 -2.1837
  162MOL0     H21381   5.129   5.447   8.265 -0.4379  0.6276 -2.1082
  162MOL0     H21382   4.850   5.223   8.516  3.4327  0.4113  3.2907
  162MOL0     H21383   4.797   5.081   7.903  0.8907  1.0196 -0.1638
  162MOL0     H21384   4.606   4.984   8.023  2.7896 -0.1189  0.0083
  163MOL0     O21385   9.180  10.674   9.328 -0.1938 -0.2206  0.1752
  163MOL0     C21386   9.250  10.600   9.393  0.1591  0.1643 -0.5732
  163MOL0     O21387   9.217  10.473   9.441 -0.8223 -0.1167 -0.0984
  163MOL0     C21388   9.077  10.441   9.416 -1.0738  0.1031  0.0147
  163MOL0     C21389   9.043  10.367   9.298 -0.7996 -0.2715  0.2039
  163MOL0     C21390   8.910  10.338   9.271  0.0457 -0.9410  1.0879
  163MOL0     C21391   8.806  10.386   9.351  0.2492 -0.6563  0.1895
  163MOL0     O21392   8.671  10.362   9.342  0.1977  0.0991  0.7613
  163MOL0     C21393   8.613  10.369   9.207 -1.0438 -0.0977  0.8501
  163MOL0     C21394   8.460  10.349   9.217 -0.2973 -0.3997  0.0897
  163MOL0     C21395   8.394  10.341   9.078 -0.1218 -0.1615  1.3372
  163MOL0     C21396   8.245  10.324   9.098  0.2062  0.6728 -0.3358
  163MOL0     C21397   8.174  10.265   8.971 -0.3215 -0.5898  0.5463
  163MOL0     C21398   8.024  10.238   8.989 -0.2361  0.4073 -0.5378
  163MOL0     C21399   7.986  10.117   9.075  0.6914  0.1236  0.2532
  163MOL0     C21400   8.037   9.982   9.030  0.7670 -0.1944  0.5883
  163MOL0     N21401   7.980   9.865   9.102 -0.5662 -0.4148 -0.4701
  163MOL0     C21402   7.872   9.780   9.067  0.2408  0.5589  0.0455
  163MOL0     C21403   7.876   9.668   9.157 -0.2582  0.4388  0.5106
  163MOL0     C21404   7.793   9.537   9.149 -0.2887 -0.0786 -0.1437
  163MOL0     C21405   7.843   9.427   9.053 -0.6111  0.2229  0.2493
  163MOL0     C21406   7.799   9.289   9.088  0.3698 -0.2885 -0.4088
  163MOL0     C21407   7.655   9.274   9.150 -0.3387 -0.3329 -0.2760
  163MOL0     O21408   7.556   9.299   9.059  0.2219 -0.7093 -0.2605
  163MOL0     C21409   7.428   9.260   9.081  0.4397 -0.6439  0.6076
  163MOL0     C21410   7.345   9.236   8.967 -0.1960  0.1386  0.0507
  163MOL0     C21411   7.222   9.174   8.985 -0.4114 -0.1542  0.2745
  163MOL0     C21412   7.174   9.136   9.114 -0.2822  0.0397  0.2845
  163MOL0     C21413   7.052   9.068   9.138 -0.3453 -0.3403 -0.3266
  163MOL0     O21414   7.009   9.051   9.267  0.0455  0.1893  1.2285
  163MOL0     C21415   6.895   8.980   9.295  0.4891  0.8309  0.0376
  163MOL0     C21416   6.824   9.006   9.412 -0.8551 -0.6407 -0.0278
  163MOL0     C21417   6.695   8.949   9.442  0.0527  0.9160  0.3951
  163MOL0     C21418   6.629   8.866   9.350 -0.3751  0.2942  0.1977
  163MOL0     O21419   6.515   8.811   9.394 -0.4174  1.0145 -0.0350
  163MOL0     C21420   6.434   8.762   9.288  0.2229 -0.2051 -0.1464
  163MOL0     C21421   6.289   8.750   9.336 -0.1627 -0.0667  0.5131
  163MOL0     C21422   6.285   8.648   9.457 -0.8543 -0.4437 -0.0730
  163MOL0     C21423   6.140   8.607   9.484  0.5443  0.2668 -0.1653
  163MOL0     C21424   6.044   8.725   9.529  0.7153  0.9813 -0.1645
  163MOL0     C21425   5.915   8.662   9.582 -0.3501  0.6533  0.5060
  163MOL0     C21426   5.804   8.753   9.581  0.4905  0.2087 -0.1714
  163MOL0     C21427   5.676   8.690   9.639 -0.7528  0.0847  0.1778
  163MOL0    Cl21428   5.688   8.648   9.810  0.4025 -0.1352  0.4245
  163MOL0     C21429   6.704   8.823   9.238 -0.0652 -0.2300  1.0960
  163MOL0     C21430   6.828   8.880   9.215  0.3360 -0.3357  0.7224
  163MOL0     O21431   6.988   9.048   9.030  0.5964  0.3734 -0.4226
  163MOL0     C21432   7.251   9.171   9.219 -1.1731 -1.1814 -0.4091
  163MOL0     C21433   7.379   9.232   9.210 -0.5933 -0.0032 -0.4004
  163MOL0     N21434   7.984   9.690   9.241 -0.3921 -0.3364  0.2610
  163MOL0     N21435   8.046   9.799   9.206  0.1554  0.6195 -0.0656
  163MOL0     C21436   8.841  10.474   9.453 -0.3560 -0.7167 -0.3381
  163MOL0     C21437   8.974  10.504   9.487 -0.0961 -0.1530 -0.2147
  163MOL0     C21438   9.387  10.646   9.403 -0.2727  1.0045 -0.1597
  163MOL0     C21439   9.483  10.574   9.483 -0.1061  0.9694  0.5657
  163MOL0     C21440   9.622  10.612   9.487 -0.1569  0.2538  0.7096
  163MOL0     C21441   9.667  10.709   9.401  0.0344 -1.0530  0.3870
  163MOL0     O21442   9.792  10.747   9.431 -0.3463  0.7501  0.8249
  163MOL0     C21443   9.880  10.783   9.315 -0.1930  0.2032  0.1713
  163MOL0     C21444   9.935  10.660   9.248 -0.2058  0.4242  0.2363
  163MOL0     C21445  10.053  10.681   9.165 -0.9081 -0.4083  0.6552
  163MOL0     C21446  10.184  10.707   9.243  0.2390 -0.0876 -0.1579
  163MOL0     C21447  10.312  10.697   9.172  0.2837  0.3681  0.0376
  163MOL0     C21448  10.413  10.670   9.118 -0.3720  0.6272 -1.1016
  163MOL0     C21449   9.569  10.794   9.334  0.8903  0.8849  0.8441
  163MOL0     C21450   9.434  10.757   9.332 -0.4163 -0.0669 -0.7892
  163MOL0     H21451   9.127  10.329   9.241  2.4406  3.4958  2.0311
  163MOL0     H21452   8.882  10.285   9.181  0.4554  0.1763  0.2787
  163MOL0     H21453   8.647  10.288   9.143  1.0798  1.2665  0.1480
  163MOL0     H21454   8.639  10.462   9.154  0.6641 -0.5539  0.8183
  163MOL0     H21455   8.420  10.426   9.284 -0.0891 -2.1248  2.3193
  163MOL0     H21456   8.447  10.254   9.270  2.1402 -0.9529 -0.1650
  163MOL0     H21457   8.445  10.258   9.027 -1.6726  0.8729 -2.2486
  163MOL0     H21458   8.409  10.430   9.016  2.4603 -0.7495  0.9905
  163MOL0     H21459   8.226  10.259   9.184 -1.3796  1.8340  0.2516
  163MOL0     H21460   8.199  10.422   9.111  0.1092  0.5842 -0.0051
  163MOL0     H21461   8.228  10.179   8.931 -0.3824 -1.1112  1.5552
  163MOL0     H21462   8.176  10.343   8.894  2.6337  2.0046  3.0064
  163MOL0     H21463   7.984  10.214   8.890 -1.7518 -1.1182  0.3919
  163MOL0     H21464   7.973  10.324   9.033  2.1098  0.9577  1.2775
  163MOL0     H21465   8.024  10.129   9.177 -1.9887  2.1403  1.1468
  163MOL0     H21466   7.878  10.107   9.084  0.8602 -0.9466  1.4771
  163MOL0     H21467   8.145   9.983   9.044  0.6166  1.4728  1.9271
  163MOL0     H21468   8.009   9.958   8.927 -2.0376 -0.9656  1.4264
  163MOL0     H21469   7.802   9.782   8.983 -0.4929  1.1980  0.6622
  163MOL0     H21470   7.686   9.553   9.132 -0.6217 -1.5334  0.4050
  163MOL0     H21471   7.801   9.506   9.254  0.5650  0.8699  0.0796
  163MOL0     H21472   7.952   9.430   9.051 -0.5389  0.4323  2.3829
  163MOL0     H21473   7.819   9.455   8.950  3.1059  1.7846 -0.3262
  163MOL0     H21474   7.804   9.218   9.005 -0.3260 -1.1976  0.3088
  163MOL0     H21475   7.871   9.262   9.166 -0.8598 -1.0869  0.4770
  163MOL0     H21476   7.650   9.345   9.233  2.1473 -1.9387  1.3991
  163MOL0     H21477   7.644   9.173   9.191 -1.6417 -0.2111 -0.2909
  163MOL0     H21478   7.376   9.261   8.866  3.0343 -2.7481  0.1756
  163MOL0     H21479   7.172   9.154   8.891 -0.1823 -0.0259  0.1258
  163MOL0     H21480   6.868   9.075   9.483  0.8368  0.5368 -2.0807
  163MOL0     H21481   6.644   8.977   9.534  2.4413  1.7703  1.5513
  163MOL0     H21482   6.470   8.661   9.267 -0.5280 -0.5706  0.3238
  163MOL0     H21483   6.444   8.823   9.197 -2.7298  0.8999  0.1462
  163MOL0     H21484   6.237   8.688   9.262 -1.4963 -0.8689  2.0414
  163MOL0     H21485   6.238   8.845   9.354 -1.1112 -0.7706  1.7484
  163MOL0     H21486   6.339   8.696   9.539 -1.1353 -0.0333 -0.1275
  163MOL0     H21487   6.338   8.555   9.432  0.6588  0.7720 -1.5642
  163MOL0     H21488   6.095   8.560   9.396 -2.3997  2.0520  0.2610
  163MOL0     H21489   6.144   8.533   9.564 -0.0370 -0.9011 -1.1721
  163MOL0     H21490   6.025   8.795   9.447 -1.7728 -0.5737 -1.0269
  163MOL0     H21491   6.091   8.782   9.610 -3.6510  1.4544  2.3802
  163MOL0     H21492   5.935   8.616   9.680 -1.5769 -0.1169  0.4163
  163MOL0     H21493   5.885   8.579   9.517 -0.1230 -2.4560  3.9700
  163MOL0     H21494   5.824   8.847   9.633 -0.2257 -0.9696  2.3800
  163MOL0     H21495   5.774   8.779   9.479 -1.6171 -1.6132 -0.0787
  163MOL0     H21496   5.640   8.603   9.583 -3.2088  1.1918 -0.0912
  163MOL0     H21497   5.599   8.766   9.625 -0.4961  0.0042 -2.1723
  163MOL0     H21498   6.668   8.747   9.168  0.8152 -0.4542  0.8704
  163MOL0     H21499   6.864   8.859   9.115 -1.6228  1.3193 -0.4154
  163MOL0     H21500   7.213   9.162   9.321 -2.3906  2.6245 -0.3721
  163MOL0     H21501   7.433   9.264   9.298 -1.0051  1.2954 -0.5977
  163MOL0     H21502   8.760  10.528   9.501  0.3741 -0.5524  0.7375
  163MOL0     H21503   8.999  10.574   9.566 -1.4700  0.5698 -0.4003
  163MOL0     H21504   9.458  10.493   9.550  0.5527  0.8097  0.6208
  163MOL0     H21505   9.679  10.559   9.562 -0.8240 -4.0143 -1.4508
  163MOL0     H21506   9.967  10.829   9.363 -1.3114  0.6987  1.8419
  163MOL0     H21507   9.826  10.855   9.253  0.0461 -0.6400 -1.0399
  163MOL0     H21508   9.975  10.596   9.328  3.6848  1.0003 -1.0241
  163MOL0     H21509   9.862  10.603   9.190  0.4661 -0.0178 -0.1958
  163MOL0     H21510  10.041  10.765   9.096 -0.4730 -0.3442  0.6487
  163MOL0     H21511  10.079  10.601   9.095  5.6660  1.5123  0.2318
  163MOL0     H21512  10.183  10.808   9.284  0.2111 -0.3468  0.4966
  163MOL0     H21513  10.200  10.647   9.333 -1.8340  0.0010  0.3250
  163MOL0     H21514  10.508  10.652   9.071  0.6872  3.0178 -0.0564
  163MOL0     H21515   9.600  10.895   9.306  1.1280  1.2537  2.3211
  163MOL0     H21516   9.362  10.814   9.275  0.2048 -0.3114 -1.8475
  164MOL0     O21517   4.370   7.469   0.113 -0.1599  0.9338  0.1891
  164MOL0     C21518   4.459   7.384   0.113 -0.2603  0.0157 -0.4894
  164MOL0     O21519   4.436   7.249   0.142  0.1473  0.2027 -0.0923
  164MOL0     C21520   4.322   7.208   0.202 -0.5533  0.2460  0.3204
  164MOL0     C21521   4.291   7.199   0.337 -0.5596  0.8626  0.0446
  164MOL0     C21522   4.176   7.135   0.389 -1.0389  0.4574 -0.6998
  164MOL0     C21523   4.080   7.069   0.307 -0.7794 -0.1046  0.8018
  164MOL0     O21524   3.971   7.010   0.365 -0.9718 -0.8840  0.4416
  164MOL0     C21525   3.932   6.887   0.310 -0.0693  0.0509  0.0800
  164MOL0     C21526   3.825   6.820   0.398  0.4066 -0.5015 -0.0247
  164MOL0     C21527   3.704   6.916   0.400  0.4449  0.3908  0.7924
  164MOL0     C21528   3.609   6.882   0.520 -0.2570 -0.6831  0.1218
  164MOL0     C21529   3.473   6.941   0.517 -0.1808 -0.3104 -0.3451
  164MOL0     C21530   3.383   6.871   0.620  0.9667 -0.5060  0.6304
  164MOL0     C21531   3.250   6.940   0.626  0.4973 -0.5308 -0.1440
  164MOL0     C21532   3.271   7.087   0.683  0.8667  0.0781  0.6488
  164MOL0     N21533   3.138   7.158   0.685  0.6437  0.1110 -0.0650
  164MOL0     C21534   3.055   7.188   0.792 -0.1423  0.1052 -0.3365
  164MOL0     C21535   2.957   7.271   0.752 -0.5974 -0.3031 -0.4485
  164MOL0     C21536   2.843   7.335   0.833 -0.1630 -0.2857 -0.1259
  164MOL0     C21537   2.738   7.238   0.895 -0.2299 -0.3826 -0.5540
  164MOL0     C21538   2.616   7.318   0.932  0.3422  0.0539 -0.6337
  164MOL0     C21539   2.527   7.224   1.003  0.7114 -0.3323  0.5642
  164MOL0     O21540   2.500   7.099   0.933 -0.4511  0.6440  0.7053
  164MOL0     C21541   2.412   7.094   0.828 -0.5308 -0.6393 -0.5726
  164MOL0     C21542   2.441   7.148   0.705 -0.2778 -0.5847  0.2533
  164MOL0     C21543   2.346   7.118   0.605  0.5743 -0.3816 -0.4756
  164MOL0     C21544   2.226   7.054   0.632  0.4725  0.3160 -1.0394
  164MOL0     C21545   2.127   7.020   0.528 -0.4266  0.1382 -0.5978
  164MOL0     O21546   2.022   6.953   0.565  1.0168  0.0569 -0.5649
  164MOL0     C21547   1.935   6.903   0.472  0.1402  0.0908  0.2383
  164MOL0     C21548   1.929   6.921   0.335 -0.0926  0.6693  1.2619
  164MOL0     C21549   1.826   6.855   0.262 -1.0113  0.7351  0.1942
  164MOL0     C21550   1.735   6.765   0.323 -0.5574  0.0431  0.4708
  164MOL0     O21551   1.636   6.690   0.260 -0.1275 -0.7276 -0.2534
  164MOL0     C21552   1.635   6.678   0.112  0.0100  0.0674  0.2928
  164MOL0     C21553   1.540   6.560   0.072 -0.5561 -0.1712 -0.6326
  164MOL0     C21554   1.573   6.429   0.153  0.5770  0.5210  0.8592
  164MOL0     C21555   1.479   6.316   0.111 -0.3059 -0.9387  0.2383
  164MOL0     C21556   1.524   6.188   0.178  0.3638 -0.3192 -1.2744
  164MOL0     C21557   1.433   6.069   0.176  0.2281 -0.3458 -0.7190
  164MOL0     C21558   1.414   6.018   0.030 -0.0624 -0.4329  0.3827
  164MOL0     C21559   1.281   5.951  -0.003 -0.0361 -0.2742  0.5389
  164MOL0    Cl21560   1.289   5.850  -0.159  0.1897 -0.1140 -0.1146
  164MOL0     C21561   1.749   6.742   0.460 -0.4377 -0.5190 -0.9965
  164MOL0     C21562   1.849   6.811   0.539 -0.2570 -0.2448  0.6257
  164MOL0     O21563   2.155   7.055   0.412  0.0151 -0.3214 -0.5761
  164MOL0     C21564   2.203   7.010   0.761 -0.5420 -0.1836 -0.2435
  164MOL0     C21565   2.294   7.029   0.856 -0.1672  0.2724 -0.2358
  164MOL0     N21566   2.982   7.287   0.610  0.0817 -0.0956 -0.4036
  164MOL0     N21567   3.093   7.229   0.581 -0.5931  0.3613 -0.6173
  164MOL0     C21568   4.113   7.074   0.167 -0.8444  0.2695 -0.0686
  164MOL0     C21569   4.230   7.134   0.118 -0.6279 -0.3519 -0.4676
  164MOL0     C21570   4.590   7.411   0.049 -0.6082  0.5232  0.0207
  164MOL0     C21571   4.681   7.308   0.033  0.0906 -0.8036  0.1113
  164MOL0     C21572   4.807   7.337  -0.029  0.4673 -0.0686 -0.0104
  164MOL0     C21573   4.845   7.466  -0.070 -0.0920 -0.4218  0.8016
  164MOL0     O21574   4.969   7.473  -0.127  0.1655  0.2576  0.3113
  164MOL0     C21575   5.024   7.588  -0.195  0.3628  0.6066  0.2337
  164MOL0     C21576   5.003   7.578  -0.350  0.0239 -0.5996 -0.1326
  164MOL0     C21577   5.062   7.449  -0.408 -0.1383  0.9962  0.6170
  164MOL0     C21578   5.214   7.430  -0.389  0.1748 -1.4361 -0.3494
  164MOL0     C21579   5.288   7.538  -0.453 -0.7034 -0.4915 -0.4726
  164MOL0     C21580   5.338   7.628  -0.510 -0.0338  0.2951  0.1128
  164MOL0     C21581   4.747   7.563  -0.059  0.3672 -0.4152 -0.0224
  164MOL0     C21582   4.628   7.535   0.004 -0.0695  0.1893 -0.5643
  164MOL0     H21583   4.365   7.239   0.406  1.5757 -1.5302 -0.7200
  164MOL0     H21584   4.191   7.132   0.496  5.5837 -2.5875 -1.1904
  164MOL0     H21585   4.017   6.822   0.285 -1.2859 -1.4856 -0.1702
  164MOL0     H21586   3.892   6.898   0.209 -0.0365  0.7282  0.1361
  164MOL0     H21587   3.864   6.812   0.500 -0.9639  0.8029  0.6397
  164MOL0     H21588   3.780   6.722   0.382 -3.3376  0.2497  3.8310
  164MOL0     H21589   3.652   6.900   0.305  4.0993 -2.8231 -0.9347
  164MOL0     H21590   3.735   7.021   0.408  0.5222  0.8749 -3.5888
  164MOL0     H21591   3.611   6.773   0.536  0.1073 -1.0917 -2.2806
  164MOL0     H21592   3.649   6.928   0.610 -0.2754  0.6942 -0.5530
  164MOL0     H21593   3.425   6.938   0.418 -0.3804  0.7188 -0.2977
  164MOL0     H21594   3.482   7.049   0.534 -1.3665 -0.4221  1.1187
  164MOL0     H21595   3.422   6.876   0.722  0.4045 -0.5714  0.8491
  164MOL0     H21596   3.352   6.772   0.587 -2.1221 -0.2431  2.3419
  164MOL0     H21597   3.214   6.952   0.524  0.8715  0.0678 -0.2075
  164MOL0     H21598   3.189   6.878   0.693  1.0416 -2.4359 -1.3348
  164MOL0     H21599   3.335   7.141   0.613 -0.8138  0.9226 -0.3138
  164MOL0     H21600   3.317   7.097   0.782 -0.7875  0.7443  1.3889
  164MOL0     H21601   3.062   7.163   0.898  2.8574 -0.8888 -0.6821
  164MOL0     H21602   2.793   7.413   0.775 -0.8500 -1.1833 -0.7597
  164MOL0     H21603   2.905   7.376   0.914 -0.4485  3.6539 -1.6794
  164MOL0     H21604   2.777   7.190   0.985  0.4668  0.6750 -0.2651
  164MOL0     H21605   2.703   7.167   0.820 -3.1724  1.1637 -0.7847
  164MOL0     H21606   2.647   7.401   0.997 -1.3978 -1.7317  2.7418
  164MOL0     H21607   2.570   7.365   0.845  1.1898  1.3946 -0.3920
  164MOL0     H21608   2.435   7.282   1.010 -0.1634 -1.8737  3.0378
  164MOL0     H21609   2.574   7.208   1.101  0.3132 -0.1216  0.7907
  164MOL0     H21610   2.524   7.213   0.682 -0.3089 -0.6048  0.0801
  164MOL0     H21611   2.361   7.161   0.506  0.1772 -0.4218 -0.5567
  164MOL0     H21612   1.988   6.989   0.275  2.6457 -4.3961 -2.6190
  164MOL0     H21613   1.827   6.870   0.155 -1.0086  1.9617  0.3593
  164MOL0     H21614   1.738   6.664   0.077 -0.6375 -3.0017 -0.7266
  164MOL0     H21615   1.606   6.767   0.056 -0.1664 -0.6541 -0.8000
  164MOL0     H21616   1.560   6.545  -0.035  2.1375  0.8715 -0.3460
  164MOL0     H21617   1.437   6.588   0.094 -0.0145  0.4727  1.1982
  164MOL0     H21618   1.568   6.449   0.260  2.3125 -0.9720  1.2754
  164MOL0     H21619   1.677   6.403   0.134 -0.3870 -1.8817 -1.8724
  164MOL0     H21620   1.376   6.351   0.122 -0.1183  0.9085 -2.7408
  164MOL0     H21621   1.494   6.297   0.004 -1.8193  0.7012 -0.3245
  164MOL0     H21622   1.537   6.215   0.283 -1.5003 -0.2368 -1.0324
  164MOL0     H21623   1.620   6.159   0.133  1.0284 -0.5347  0.2389
  164MOL0     H21624   1.337   6.089   0.224  0.5227  0.6274 -0.5187
  164MOL0     H21625   1.479   5.986   0.232  2.1921  1.8156  1.0830
  164MOL0     H21626   1.445   6.081  -0.054 -1.8505 -0.7328 -0.5558
  164MOL0     H21627   1.486   5.937   0.025  0.3011 -0.0513 -0.7122
  164MOL0     H21628   1.203   6.027   0.000 -0.2304 -0.5121  2.1703
  164MOL0     H21629   1.267   5.879   0.078 -1.9647 -0.5326  0.0172
  164MOL0     H21630   1.689   6.664   0.507  0.6109 -1.1938 -0.7473
  164MOL0     H21631   1.858   6.784   0.644 -0.2923 -1.7706  0.2647
  164MOL0     H21632   2.106   6.967   0.785  0.0643 -1.2857  0.3042
  164MOL0     H21633   2.270   6.999   0.957  0.2598  0.9563  0.0775
  164MOL0     H21634   4.046   7.027   0.095  0.1463 -1.6217  0.1900
  164MOL0     H21635   4.248   7.134   0.011  1.8708 -1.7635 -0.1263
  164MOL0     H21636   4.662   7.203   0.054 -0.8467 -0.6123  0.3001
  164MOL0     H21637   4.870   7.250  -0.042 -0.5809 -1.1239  1.5897
  164MOL0     H21638   5.130   7.596  -0.173  0.9425 -0.0339 -2.0610
  164MOL0     H21639   4.979   7.677  -0.150  1.6264  2.6082 -2.2313
  164MOL0     H21640   4.896   7.566  -0.368 -0.1052  2.1174 -1.7996
  164MOL0     H21641   5.037   7.665  -0.407 -1.3502 -0.6707 -1.0850
  164MOL0     H21642   5.034   7.458  -0.513 -0.1291  1.6277  0.6700
  164MOL0     H21643   5.018   7.369  -0.346  2.3221 -1.9054 -1.1092
  164MOL0     H21644   5.231   7.438  -0.282  2.7897  4.7821 -0.8222
  164MOL0     H21645   5.251   7.338  -0.436  3.0599  1.5023 -4.5788
  164MOL0     H21646   5.383   7.707  -0.566  0.0542  0.4178  0.3560
  164MOL0     H21647   4.751   7.671  -0.073 -3.7101 -0.0201  0.7142
  164MOL0     H21648   4.564   7.623   0.003 -1.8458 -1.0298  0.5859
  165MOL0     O21649   8.143   4.614   8.985 -0.0553  0.1886  0.6497
  165MOL0     C21650   8.229   4.623   9.077 -0.1061 -0.1121  0.5267
  165MOL0     O21651   8.199   4.648   9.213  0.4394 -0.1707  0.0184
  165MOL0     C21652   8.065   4.656   9.256 -0.4910 -0.6597  0.5211
  165MOL0     C21653   8.035   4.765   9.341  0.2066 -0.3520  0.4150
  165MOL0     C21654   7.908   4.772   9.403 -0.1791  0.9798  0.6036
  165MOL0     C21655   7.810   4.669   9.371  0.5308  0.2600  0.0747
  165MOL0     O21656   7.686   4.665   9.431 -0.5076  0.0051  0.2819
  165MOL0     C21657   7.665   4.742   9.551  0.3869 -1.3673 -0.2362
  165MOL0     C21658   7.529   4.736   9.608 -0.0882  0.1990 -0.7335
  165MOL0     C21659   7.479   4.586   9.619 -0.1447  0.1347  1.1715
  165MOL0     C21660   7.339   4.586   9.658  0.9254 -0.6156  0.2673
  165MOL0     C21661   7.287   4.440   9.665 -0.3476 -0.7984 -0.1196
  165MOL0     C21662   7.140   4.427   9.705 -0.4555 -0.2683  0.7245
  165MOL0     C21663   7.115   4.468   9.857 -0.9188 -0.1232  0.0317
  165MOL0     C21664   7.017   4.376   9.940  0.0700  0.5852 -0.4913
  165MOL0     N21665   6.884   4.368   9.878  0.6615 -0.2089 -0.4784
  165MOL0     C21666   6.786   4.469   9.877 -0.2042  0.4205  0.0805
  165MOL0     C21667   6.696   4.418   9.791 -0.3300 -0.0716  0.3360
  165MOL0     C21668   6.579   4.488   9.736 -0.3133 -0.1489 -0.0592
  165MOL0     C21669   6.466   4.492   9.843  0.2254  0.2929  0.8360
  165MOL0     C21670   6.398   4.357   9.866  0.1687  0.4913 -0.0147
  165MOL0     C21671   6.259   4.369   9.917  0.6010 -1.4048 -0.7303
  165MOL0     O21672   6.166   4.447   9.833 -1.1183 -0.2075  0.0137
  165MOL0     C21673   6.034   4.438   9.875  0.2368 -0.2027  0.2488
  165MOL0     C21674   5.988   4.390   9.996  0.4426  0.7874 -0.1922
  165MOL0     C21675   5.851   4.388  10.036  0.3514  0.0094 -0.1752
  165MOL0     C21676   5.756   4.443   9.944 -1.2807  0.5195 -0.3417
  165MOL0     C21677   5.617   4.447   9.985  0.2428  0.2227  0.3829
  165MOL0     O21678   5.518   4.496   9.892 -0.5724 -0.3361 -0.3475
  165MOL0     C21679   5.383   4.505   9.907  0.7742 -0.2087 -0.0522
  165MOL0     C21680   5.307   4.596   9.829  0.4903 -0.3645 -0.6414
  165MOL0     C21681   5.172   4.619   9.855 -0.5441  0.1427  0.3219
  165MOL0     C21682   5.099   4.555   9.960  1.0012 -0.2990 -0.6640
  165MOL0     O21683   4.965   4.570   9.982 -0.4436  0.3085 -0.2698
  165MOL0     C21684   4.904   4.686   9.919 -0.6550  0.1340  0.1433
  165MOL0     C21685   4.756   4.681   9.907  0.2832 -0.1989  0.4394
  165MOL0     C21686   4.700   4.575   9.806  0.1717 -0.0707  0.5710
  165MOL0     C21687   4.545   4.589   9.804 -0.3652 -0.1988 -0.5534
  165MOL0     C21688   4.489   4.465   9.733 -0.1746 -0.0846  0.0886
  165MOL0     C21689   4.338   4.467   9.761  0.4282  0.7489 -0.0109
  165MOL0     C21690   4.251   4.454   9.632  0.2295  0.3160 -0.3794
  165MOL0     C21691   4.245   4.321   9.552  1.2824 -0.1884 -0.4056
  165MOL0    Cl21692   4.109   4.338   9.433  0.2586  0.4922 -0.3161
  165MOL0     C21693   5.175   4.468  10.036  1.4087  0.8804 -0.4945
  165MOL0     C21694   5.310   4.451  10.017  0.5356  0.9245 -0.7757
  165MOL0     O21695   5.597   4.408  10.106  0.4991  0.2180  0.4219
  165MOL0     C21696   5.800   4.496   9.821  0.3312 -0.2288 -1.3456
  165MOL0     C21697   5.939   4.498   9.796 -0.5489  0.3696 -0.5668
  165MOL0     N21698   6.729   4.290   9.751  0.0781  0.4464  0.4108
  165MOL0     N21699   6.845   4.262   9.799 -0.1812  0.3529 -0.9273
  165MOL0     C21700   7.840   4.578   9.276 -0.0559  0.4660 -0.4555
  165MOL0     C21701   7.963   4.563   9.226  0.9330  0.4694 -0.0071
  165MOL0     C21702   8.366   4.586   9.039 -0.1833 -0.1381 -0.5401
  165MOL0     C21703   8.390   4.537   8.905  0.2693  0.3867 -0.7498
  165MOL0     C21704   8.517   4.500   8.874  0.1098 -0.3484  0.1135
  165MOL0     C21705   8.629   4.515   8.956 -0.5767  1.0484 -0.3048
  165MOL0     O21706   8.754   4.487   8.928 -0.2282  0.0674 -0.0637
  165MOL0     C21707   8.792   4.435   8.803 -0.4523  0.1227  0.4137
  165MOL0     C21708   8.945   4.421   8.794 -0.3921 -0.0990 -0.3055
  165MOL0     C21709   9.006   4.321   8.893 -0.1051 -0.5167  0.1992
  165MOL0     C21710   9.153   4.274   8.860  0.2052  0.0858  0.1928
  165MOL0     C21711   9.260   4.375   8.876 -0.1685 -0.3582 -0.4121
  165MOL0     C21712   9.344   4.463   8.886 -0.0631  0.1624  0.7240
  165MOL0     C21713   8.610   4.570   9.084  0.3625  0.1137  0.8374
  165MOL0     C21714   8.478   4.602   9.125 -0.5541  0.1844 -0.5453
  165MOL0     H21715   8.097   4.852   9.361 -1.2449  0.9389 -0.4972
  165MOL0     H21716   7.887   4.848   9.477  1.6991  1.7119  0.4402
  165MOL0     H21717   7.674   4.850   9.537 -0.1739 -1.2235  0.4512
  165MOL0     H21718   7.730   4.703   9.630 -1.4362 -3.0463  0.5302
  165MOL0     H21719   7.460   4.800   9.553  0.8583  0.9844 -1.0332
  165MOL0     H21720   7.533   4.777   9.710  1.5411  1.5935 -1.3162
  165MOL0     H21721   7.530   4.534   9.701 -0.8062 -0.5033  1.1932
  165MOL0     H21722   7.497   4.525   9.530 -0.4814 -1.1355  1.9460
  165MOL0     H21723   7.329   4.647   9.748 -1.9499 -0.3432 -0.1173
  165MOL0     H21724   7.283   4.634   9.578  2.8758  0.2182 -0.6533
  165MOL0     H21725   7.357   4.385   9.730  0.1784 -0.4131 -0.3584
  165MOL0     H21726   7.300   4.400   9.564  0.0431 -0.6510 -0.1261
  165MOL0     H21727   7.116   4.320   9.699  0.5036 -0.5009  0.9351
  165MOL0     H21728   7.080   4.487   9.636  1.2123  1.5284  0.7342
  165MOL0     H21729   7.215   4.459   9.901  0.1326  0.5647 -2.1153
  165MOL0     H21730   7.081   4.571   9.854 -0.6286  0.1865  3.3195
  165MOL0     H21731   7.017   4.435  10.032  0.7882 -0.1787  0.0094
  165MOL0     H21732   7.045   4.271   9.951 -0.9179  0.1356 -1.8934
  165MOL0     H21733   6.799   4.568   9.920 -1.2402  0.0289  1.3750
  165MOL0     H21734   6.534   4.440   9.649 -1.6029 -1.7161  1.4087
  165MOL0     H21735   6.603   4.592   9.714  0.9612 -0.4484 -0.1578
  165MOL0     H21736   6.394   4.560   9.796  0.5212 -1.8922 -3.2204
  165MOL0     H21737   6.493   4.537   9.939 -3.4528  1.0188  1.6874
  165MOL0     H21738   6.403   4.313   9.766  0.9280  0.9698 -0.1896
  165MOL0     H21739   6.467   4.309   9.936  3.5449  2.3852 -1.7821
  165MOL0     H21740   6.266   4.421  10.013  3.0126  0.8179 -1.9725
  165MOL0     H21741   6.217   4.272   9.945  1.3980 -1.5746 -0.1159
  165MOL0     H21742   6.057   4.364  10.076  2.1506  1.1718 -1.4668
  165MOL0     H21743   5.821   4.362  10.137 -0.4180  0.4987 -0.2657
  165MOL0     H21744   5.345   4.655   9.747  0.1419 -0.5319 -0.9259
  165MOL0     H21745   5.121   4.701   9.805 -3.4439 -0.7129  1.6636
  165MOL0     H21746   4.933   4.679   9.814  2.6262  0.0279  0.9390
  165MOL0     H21747   4.935   4.783   9.959  1.0897 -0.6221  0.7295
  165MOL0     H21748   4.734   4.779   9.863  1.5089 -0.2945 -0.4838
  165MOL0     H21749   4.718   4.684  10.009  1.1693  2.2389  0.7833
  165MOL0     H21750   4.734   4.471   9.811  0.5730  0.0502  0.3605
  165MOL0     H21751   4.734   4.601   9.706 -1.1322  0.0387  0.1361
  165MOL0     H21752   4.513   4.589   9.909  0.2002 -0.2821 -0.3733
  165MOL0     H21753   4.497   4.677   9.762  0.3093  0.9932  1.0606
  165MOL0     H21754   4.535   4.375   9.775  1.6205  0.7722  0.0627
  165MOL0     H21755   4.514   4.481   9.628  2.5659  1.0711  0.8456
  165MOL0     H21756   4.307   4.563   9.802  0.3578  1.5857 -1.9218
  165MOL0     H21757   4.319   4.388   9.835  3.6911 -0.1328  0.0315
  165MOL0     H21758   4.145   4.474   9.653  0.1005 -0.2646 -0.4638
  165MOL0     H21759   4.271   4.529   9.555 -1.0073 -0.5464 -1.5868
  165MOL0     H21760   4.226   4.241   9.625 -0.7398  2.3323  2.0664
  165MOL0     H21761   4.340   4.294   9.504  0.4029 -0.8811 -1.8229
  165MOL0     H21762   5.118   4.413  10.111 -0.2079  1.6339 -1.1271
  165MOL0     H21763   5.352   4.374  10.081  1.4309  0.9175 -1.3538
  165MOL0     H21764   5.724   4.539   9.757 -1.2015  0.9830  1.1196
  165MOL0     H21765   5.978   4.540   9.703 -1.7160  0.5995 -0.9752
  165MOL0     H21766   7.757   4.509   9.268  1.1293 -1.3166  1.5016
  165MOL0     H21767   7.986   4.484   9.155  2.1239  2.6572 -2.2301
  165MOL0     H21768   8.320   4.526   8.823 -1.9428 -1.6224  1.2460
  165MOL0     H21769   8.526   4.459   8.773  3.8056 -1.4376  0.7415
  165MOL0     H21770   8.752   4.503   8.727  0.0133  0.1592  0.2005
  165MOL0     H21771   8.751   4.334   8.790 -2.8521  0.4342  3.9861
  165MOL0     H21772   8.980   4.405   8.691  0.5934 -2.4361  0.3335
  165MOL0     H21773   8.977   4.520   8.827  0.8955 -0.9882  1.1865
  165MOL0     H21774   8.948   4.229   8.905 -0.7304 -0.0725  0.7093
  165MOL0     H21775   9.003   4.380   8.986 -1.6064  1.2637 -0.9159
  165MOL0     H21776   9.186   4.190   8.922  2.8996  0.2723 -0.8664
  165MOL0     H21777   9.143   4.241   8.756 -0.6018 -0.9333  0.5663
  165MOL0     H21778   9.432   4.525   8.887 -0.1432  0.3423 -0.7419
  165MOL0     H21779   8.682   4.583   9.164  1.4664  1.6677 -0.3395
  165MOL0     H21780   8.446   4.624   9.226  0.9888  2.6743 -0.5319
  166MOL0     O21781   3.907   8.741   2.290 -0.6989 -0.1871  0.3112
  166MOL0     C21782   3.943   8.722   2.177 -0.3993 -0.1905  0.7181
  166MOL0     O21783   3.874   8.765   2.065  0.0210 -0.0390 -0.1381
  166MOL0     C21784   3.768   8.843   2.086  0.3600 -0.0431 -0.4291
  166MOL0     C21785   3.648   8.786   2.120 -0.6277  0.3074  0.6710
  166MOL0     C21786   3.534   8.868   2.141  0.1970  0.2168 -0.2214
  166MOL0     C21787   3.546   9.010   2.138 -0.1016  0.4806  0.8788
  166MOL0     O21788   3.444   9.098   2.142 -0.5440  0.5766  0.2893
  166MOL0     C21789   3.315   9.056   2.180  0.4750  0.1101 -0.5877
  166MOL0     C21790   3.226   9.036   2.051 -0.0842  0.3019 -0.4727
  166MOL0     C21791   3.075   9.017   2.093 -0.0159 -0.1411  0.1965
  166MOL0     C21792   2.999   9.034   1.954 -0.0049  0.3862  0.2331
  166MOL0     C21793   2.848   9.009   1.974 -0.6450 -0.7128 -0.3914
  166MOL0     C21794   2.802   8.868   1.978 -0.0363  0.1383 -0.0870
  166MOL0     C21795   2.650   8.873   1.957  1.2386  0.2301 -1.0266
  166MOL0     C21796   2.603   8.731   1.934 -0.3393  0.1196  0.5380
  166MOL0     N21797   2.451   8.723   1.924  0.1310 -0.4073 -0.4737
  166MOL0     C21798   2.377   8.606   1.907  0.2836  0.9123  0.2453
  166MOL0     C21799   2.250   8.635   1.910  0.1365 -0.6957 -0.5936
  166MOL0     C21800   2.138   8.530   1.899 -0.0240 -0.3656 -0.5939
  166MOL0     C21801   2.139   8.432   2.026 -0.2917  0.2655  0.3327
  166MOL0     C21802   2.038   8.322   1.994  0.3372  0.6052  0.3423
  166MOL0     C21803   2.034   8.221   2.121 -1.1402 -0.0664  0.6913
  166MOL0     O21804   1.905   8.166   2.127  0.0379  0.4202 -0.2842
  166MOL0     C21805   1.879   8.078   2.229  0.4006 -0.2665 -0.9030
  166MOL0     C21806   1.752   8.027   2.230 -0.5637 -0.8387  0.2598
  166MOL0     C21807   1.714   7.942   2.334  0.0300 -0.0981  0.1340
  166MOL0     C21808   1.794   7.901   2.440  0.2259  0.2816 -0.1908
  166MOL0     C21809   1.745   7.807   2.548 -0.5190 -1.1863  0.8014
  166MOL0     O21810   1.838   7.768   2.642  0.4504 -0.9452  0.2053
  166MOL0     C21811   1.775   7.717   2.752 -0.3119 -0.0886 -0.4674
  166MOL0     C21812   1.716   7.587   2.757  0.3925  0.0306  0.7958
  166MOL0     C21813   1.650   7.539   2.870  0.6345 -0.3576  0.2105
  166MOL0     C21814   1.656   7.623   2.984  0.0067  0.3038 -0.3891
  166MOL0     O21815   1.585   7.577   3.093  0.5892  0.5862  0.2151
  166MOL0     C21816   1.664   7.519   3.193 -0.4455  0.1995 -0.6207
  166MOL0     C21817   1.588   7.532   3.328 -0.3303  0.3076  0.6702
  166MOL0     C21818   1.600   7.688   3.360 -0.2387 -0.3820  0.2841
  166MOL0     C21819   1.566   7.747   3.496 -1.1424  0.3937  0.4039
  166MOL0     C21820   1.638   7.673   3.598 -0.4718  0.5713 -0.1037
  166MOL0     C21821   1.660   7.751   3.733  0.0602 -0.1420  0.5401
  166MOL0     C21822   1.716   7.650   3.836  0.0293  0.0674  0.0959
  166MOL0     C21823   1.852   7.586   3.789  0.2208  0.2610 -0.2352
  166MOL0    Cl21824   1.969   7.703   3.732  0.2975 -0.4333  0.1914
  166MOL0     C21825   1.726   7.739   2.987 -0.7687 -0.8600 -0.1645
  166MOL0     C21826   1.795   7.778   2.875 -0.1009 -0.1365 -0.2968
  166MOL0     O21827   1.627   7.785   2.551 -0.0086 -0.9826 -0.1535
  166MOL0     C21828   1.922   7.948   2.436  0.6110  0.3272 -0.5182
  166MOL0     C21829   1.963   8.041   2.337 -0.0802 -0.1000 -0.2031
  166MOL0     N21830   2.245   8.776   1.924 -0.7733  0.4979  0.1213
  166MOL0     N21831   2.364   8.819   1.946 -0.0535  0.9363 -0.0903
  166MOL0     C21832   3.672   9.062   2.108 -0.5093  1.3387  0.4923
  166MOL0     C21833   3.780   8.982   2.078  0.6071  1.0852 -0.5652
  166MOL0     C21834   4.077   8.652   2.158 -0.5360  1.0340 -0.9500
  166MOL0     C21835   4.147   8.604   2.275 -1.2942  0.0952 -0.0753
  166MOL0     C21836   4.284   8.557   2.264  0.0251 -0.0435 -0.6435
  166MOL0     C21837   4.352   8.554   2.145  0.4604  0.5114 -0.3745
  166MOL0     O21838   4.480   8.523   2.131  0.6388 -0.3773  0.1319
  166MOL0     C21839   4.558   8.634   2.077  0.2085  0.7523  0.3705
  166MOL0     C21840   4.710   8.590   2.086  0.2962 -0.1201  0.0784
  166MOL0     C21841   4.816   8.695   2.042 -0.6718  0.1264 -0.1714
  166MOL0     C21842   4.960   8.640   2.068  0.1181 -0.3135 -0.5817
  166MOL0     C21843   5.004   8.537   1.977 -0.4617  1.1682  0.4923
  166MOL0     C21844   5.044   8.449   1.901 -1.2213 -0.5112 -0.4475
  166MOL0     C21845   4.281   8.587   2.028  0.7948  0.2178  0.2493
  166MOL0     C21846   4.148   8.629   2.036  0.4738 -0.3186 -0.0316
  166MOL0     H21847   3.640   8.678   2.117 -0.3293  0.2983  0.0632
  166MOL0     H21848   3.439   8.818   2.156  0.0224  0.7045  0.3489
  166MOL0     H21849   3.274   9.132   2.247 -1.7815 -1.7719  0.3070
  166MOL0     H21850   3.316   8.967   2.244  3.0264 -0.2979 -1.1018
  166MOL0     H21851   3.262   8.947   2.000  0.2685  0.6096 -0.7679
  166MOL0     H21852   3.240   9.119   1.980 -1.3220  0.3598 -0.6631
  166MOL0     H21853   3.045   9.088   2.170  0.1215 -1.4393  1.4999
  166MOL0     H21854   3.047   8.918   2.132  1.2495 -0.9383 -0.8385
  166MOL0     H21855   3.011   9.137   1.920  0.4097 -0.0397 -0.9887
  166MOL0     H21856   3.039   8.973   1.872  2.9652  0.5591  1.4301
  166MOL0     H21857   2.810   9.058   1.885  1.4606 -1.5525 -1.8443
  166MOL0     H21858   2.816   9.061   2.065  0.0326 -1.7545  0.4812
  166MOL0     H21859   2.828   8.813   2.069 -2.2968  0.2063  0.6463
  166MOL0     H21860   2.856   8.815   1.898  0.0856 -0.3845  0.3333
  166MOL0     H21861   2.600   8.908   2.047  0.3057 -2.6796 -0.3222
  166MOL0     H21862   2.615   8.937   1.875 -2.5002  1.3788  1.2350
  166MOL0     H21863   2.646   8.669   2.013  2.0680 -0.1902 -0.9410
  166MOL0     H21864   2.638   8.694   1.837  0.4845  1.0448  0.4585
  166MOL0     H21865   2.416   8.505   1.896  1.0635  1.1872  0.4500
  166MOL0     H21866   2.155   8.468   1.811  2.6364 -0.5691 -0.0149
  166MOL0     H21867   2.042   8.575   1.872  0.7709  0.2296 -2.6289
  166MOL0     H21868   2.105   8.496   2.108 -0.4736 -1.6209  1.8074
  166MOL0     H21869   2.240   8.393   2.043  0.4308  0.7460 -2.3283
  166MOL0     H21870   1.940   8.361   1.968 -0.9317 -2.0210  0.7950
  166MOL0     H21871   2.060   8.258   1.908  1.2428  1.1541  0.1537
  166MOL0     H21872   2.047   8.287   2.208 -0.5534 -0.5171  0.9508
  166MOL0     H21873   2.114   8.147   2.117 -0.5306  0.6363 -0.9778
  166MOL0     H21874   1.679   8.065   2.159  0.9247  1.1146 -0.3476
  166MOL0     H21875   1.608   7.920   2.330 -0.1811  0.8180  0.4806
  166MOL0     H21876   1.693   7.532   2.666 -2.0161 -1.1310  2.0135
  166MOL0     H21877   1.583   7.454   2.873 -0.9810  0.8721  0.9289
  166MOL0     H21878   1.767   7.553   3.191  0.1741 -1.5632 -1.0103
  166MOL0     H21879   1.660   7.413   3.166 -0.6096  0.9111 -3.6808
  166MOL0     H21880   1.643   7.464   3.394  1.6795  0.9955 -0.2016
  166MOL0     H21881   1.483   7.505   3.313  0.0670 -0.4344 -1.0660
  166MOL0     H21882   1.534   7.738   3.288  1.4917 -1.5790 -2.2776
  166MOL0     H21883   1.697   7.727   3.328 -1.3440  2.6267  0.2170
  166MOL0     H21884   1.603   7.850   3.500 -1.4199  0.5451 -0.5993
  166MOL0     H21885   1.458   7.742   3.516 -0.9779 -2.6090  1.0243
  166MOL0     H21886   1.736   7.645   3.557 -0.8939  1.1261 -1.5300
  166MOL0     H21887   1.590   7.577   3.617  1.2970 -0.2793  0.3530
  166MOL0     H21888   1.559   7.783   3.760  0.0012  0.9550 -0.8896
  166MOL0     H21889   1.717   7.844   3.730  1.4117 -0.9655 -1.5182
  166MOL0     H21890   1.734   7.702   3.930 -2.3113 -0.8118  1.0955
  166MOL0     H21891   1.644   7.569   3.853  1.2182 -0.7949  1.1670
  166MOL0     H21892   1.835   7.509   3.713  1.7610  1.4094 -1.8285
  166MOL0     H21893   1.889   7.533   3.877 -1.3540  1.0504  0.9522
  166MOL0     H21894   1.722   7.814   3.065 -1.8050 -1.5628  0.4828
  166MOL0     H21895   1.845   7.874   2.864 -1.2741  0.6920  1.2851
  166MOL0     H21896   1.981   7.935   2.525 -0.2770 -0.8214 -0.0640
  166MOL0     H21897   2.064   8.080   2.345  0.7787 -2.4850  2.4561
  166MOL0     H21898   3.679   9.170   2.116 -0.9402  1.6445 -2.3013
  166MOL0     H21899   3.871   9.031   2.047  1.6842 -1.2850 -1.3666
  166MOL0     H21900   4.104   8.621   2.373  0.6169 -0.1893  0.8537
  166MOL0     H21901   4.343   8.533   2.352  0.4475  1.6749 -0.4282
  166MOL0     H21902   4.540   8.725   2.136  2.7856  0.8955  1.0433
  166MOL0     H21903   4.528   8.641   1.972 -0.1435 -1.2938  0.2916
  166MOL0     H21904   4.740   8.556   2.186 -0.4890  2.3941  1.2381
  166MOL0     H21905   4.717   8.501   2.023  0.4844 -1.4867  1.9264
  166MOL0     H21906   4.796   8.786   2.101 -2.0905  0.3482 -0.9579
  166MOL0     H21907   4.813   8.720   1.936  1.8125 -1.9935 -0.8379
  166MOL0     H21908   5.040   8.713   2.073  0.6871 -0.9411 -0.3275
  166MOL0     H21909   4.963   8.605   2.171  2.7209  1.7134  0.1225
  166MOL0     H21910   5.061   8.363   1.839 -2.6527 -2.4196  1.6290
  166MOL0     H21911   4.331   8.567   1.934  0.2475  1.8027 -0.4080
  166MOL0     H21912   4.108   8.664   1.942  2.5540 -0.1951 -0.9221
  167MOL0     O21913   4.937   1.245   7.635  0.2525  0.0096  0.2994
  167MOL0     C21914   4.957   1.286   7.525  0.6086 -0.0924  0.5867
  167MOL0     O21915   5.085   1.291   7.463 -0.0546 -0.2591  0.5007
  167MOL0     C21916   5.194   1.275   7.538 -0.4394 -0.2742 -0.1825
  167MOL0     C21917   5.308   1.233   7.478 -0.0534 -0.3984 -0.0193
  167MOL0     C21918   5.435   1.223   7.542  0.8596  0.5075  0.9707
  167MOL0     C21919   5.441   1.247   7.674  0.4911  0.0299 -0.3442
  167MOL0     O21920   5.547   1.215   7.763  0.4374  0.1276  0.0370
  167MOL0     C21921   5.562   1.077   7.802 -0.2547 -0.8815 -0.1664
  167MOL0     C21922   5.546   1.074   7.955  0.0474  0.0937  0.0460
  167MOL0     C21923   5.553   0.935   8.020 -0.4351  0.3871  0.2197
  167MOL0     C21924   5.697   0.875   7.990 -0.7178 -0.5256 -0.4669
  167MOL0     C21925   5.736   0.764   8.088  0.3230 -0.3258 -0.2687
  167MOL0     C21926   5.674   0.633   8.052  0.1328  0.4543  0.3822
  167MOL0     C21927   5.696   0.521   8.160  0.2296  0.5295  0.0556
  167MOL0     C21928   5.635   0.382   8.113  0.2667  0.4153  0.5752
  167MOL0     N21929   5.692   0.340   7.982  0.4189 -0.0767 -0.3667
  167MOL0     C21930   5.620   0.360   7.867  1.1027  0.0065  1.3198
  167MOL0     C21931   5.672   0.272   7.778  1.1275 -0.9832  0.6572
  167MOL0     C21932   5.626   0.260   7.641  0.6032  0.3078 -0.7023
  167MOL0     C21933   5.507   0.165   7.634  0.1306  0.2049 -0.1648
  167MOL0     C21934   5.467   0.130   7.494  1.0360  0.3953  0.3385
  167MOL0     C21935   5.393   0.239   7.412 -0.0908  0.1298 -0.7776
  167MOL0     O21936   5.334   0.184   7.295 -0.0621 -0.3002  0.2017
  167MOL0     C21937   5.205   0.126   7.296  0.0869  1.1430  0.5210
  167MOL0     C21938   5.129   0.112   7.181 -0.0410  0.0138  0.1971
  167MOL0     C21939   4.994   0.075   7.175  0.5944 -1.0868 -0.2585
  167MOL0     C21940   4.925   0.051   7.297 -0.8281 -0.4152  0.4043
  167MOL0     C21941   4.786   0.001   7.304  0.1089 -0.7978  0.3095
  167MOL0     O21942   4.747  -0.039   7.181  0.3552  0.6677  0.5444
  167MOL0     C21943   4.615  -0.061   7.157  0.1104 -0.6725  0.7714
  167MOL0     C21944   4.538   0.051   7.124 -0.3215 -0.9049  0.3390
  167MOL0     C21945   4.398   0.031   7.104  0.2717 -0.0291 -0.3918
  167MOL0     C21946   4.348  -0.099   7.101 -0.6950  0.3619  0.8343
  167MOL0     O21947   4.214  -0.113   7.071  0.3875 -0.6983  0.0647
  167MOL0     C21948   4.132  -0.226   7.106  0.6477  0.4473 -0.1425
  167MOL0     C21949   3.981  -0.205   7.069 -1.2898 -0.4812 -0.4742
  167MOL0     C21950   3.885  -0.302   7.142 -0.0851 -0.7320  0.5755
  167MOL0     C21951   3.895  -0.441   7.088  0.0653  0.7566 -0.4460
  167MOL0     C21952   3.787  -0.534   7.145  0.7461  0.2389 -0.6039
  167MOL0     C21953   3.748  -0.662   7.069  0.7044  0.2373 -0.3724
  167MOL0     C21954   3.854  -0.762   7.018  0.0247 -0.9397  0.3574
  167MOL0     C21955   3.907  -0.850   7.129  0.3300 -0.0431 -0.2861
  167MOL0    Cl21956   4.025  -0.765   7.228  0.1468  0.4171  0.0085
  167MOL0     C21957   4.431  -0.210   7.121  0.5625 -0.1567  0.0417
  167MOL0     C21958   4.564  -0.189   7.150  0.2374 -0.8364 -0.4145
  167MOL0     O21959   4.716  -0.003   7.410  0.2208 -0.2477 -0.0934
  167MOL0     C21960   5.003   0.052   7.416  1.0425  0.4396 -0.0994
  167MOL0     C21961   5.133   0.085   7.416 -0.6748  0.2758 -0.0197
  167MOL0     N21962   5.783   0.206   7.840  0.4749 -0.8223  0.0784
  167MOL0     N21963   5.788   0.252   7.959 -0.3058  0.6727 -0.7158
  167MOL0     C21964   5.330   1.293   7.735 -0.1778  0.4382 -0.1895
  167MOL0     C21965   5.205   1.314   7.665  0.3498  0.2587 -0.2652
  167MOL0     C21966   4.846   1.341   7.447 -0.3954  0.1833 -0.9429
  167MOL0     C21967   4.725   1.373   7.509  0.5221  0.3396 -0.3386
  167MOL0     C21968   4.618   1.417   7.434  0.4519 -0.5321  0.1958
  167MOL0     C21969   4.622   1.426   7.291 -0.4764 -0.0993 -0.1029
  167MOL0     O21970   4.502   1.455   7.227  0.0014 -0.2718  0.2832
  167MOL0     C21971   4.506   1.498   7.089  0.9039  0.1326  1.1142
  167MOL0     C21972   4.357   1.511   7.022 -0.2188  0.5267 -0.5263
  167MOL0     C21973   4.300   1.640   7.073  0.0887  0.8368  0.2555
  167MOL0     C21974   4.217   1.707   6.963  0.3115  0.2499  0.0007
  167MOL0     C21975   4.102   1.617   6.929  1.1856  0.1219  0.5669
  167MOL0     C21976   4.027   1.524   6.924 -0.4087  0.1033 -0.0444
  167MOL0     C21977   4.750   1.393   7.235 -0.1029 -0.0550  0.0952
  167MOL0     C21978   4.860   1.352   7.311  0.1971  0.1795 -0.4908
  167MOL0     H21979   5.295   1.229   7.370  0.2981  0.3054 -0.0946
  167MOL0     H21980   5.523   1.198   7.485  0.7332 -0.5544  1.2136
  167MOL0     H21981   5.660   1.034   7.779 -0.0521 -1.3784  1.4709
  167MOL0     H21982   5.476   1.023   7.760 -0.6651 -0.0568 -0.4124
  167MOL0     H21983   5.444   1.108   7.976 -1.1357 -2.5160 -1.0863
  167MOL0     H21984   5.621   1.139   8.000  1.1918 -0.5194 -0.9302
  167MOL0     H21985   5.482   0.865   7.975  1.3557 -0.7997 -0.8562
  167MOL0     H21986   5.528   0.944   8.126  0.5726  0.8379  0.4301
  167MOL0     H21987   5.708   0.836   7.889  1.1441 -1.8349  0.1823
  167MOL0     H21988   5.768   0.957   8.006 -2.5191  1.0208  0.0454
  167MOL0     H21989   5.702   0.797   8.186  0.0143 -0.0245 -0.4761
  167MOL0     H21990   5.845   0.753   8.087  0.5484  1.5899 -0.9553
  167MOL0     H21991   5.716   0.601   7.956 -2.5826  0.1383 -0.7892
  167MOL0     H21992   5.567   0.636   8.029  0.0061  0.9770  1.0015
  167MOL0     H21993   5.804   0.508   8.169  0.1330  0.7093  1.6196
  167MOL0     H21994   5.656   0.547   8.258  0.8555  0.7425  0.2546
  167MOL0     H21995   5.526   0.385   8.122 -0.0566 -1.4298 -1.7379
  167MOL0     H21996   5.665   0.302   8.180 -0.1740 -1.3899 -1.2965
  167MOL0     H21997   5.540   0.428   7.837  0.2535 -2.1919 -1.9354
  167MOL0     H21998   5.710   0.231   7.576  2.5478  0.1012  1.7380
  167MOL0     H21999   5.598   0.361   7.610  0.6707  1.6874  3.1627
  167MOL0     H22000   5.426   0.217   7.685 -0.4750  1.0729 -1.9235
  167MOL0     H22001   5.524   0.074   7.693 -1.2926 -0.6516 -1.0104
  167MOL0     H22002   5.552   0.083   7.442 -1.2672 -2.7600 -0.8963
  167MOL0     H22003   5.393   0.050   7.506  3.0143 -1.7523 -0.8010
  167MOL0     H22004   5.465   0.315   7.379 -0.2147 -0.5241 -2.6856
  167MOL0     H22005   5.321   0.286   7.479 -0.7796 -1.1864 -0.5649
  167MOL0     H22006   5.181   0.137   7.090  2.4195 -1.8649  0.9600
  167MOL0     H22007   4.951   0.089   7.076  2.1765  0.1331 -0.8017
  167MOL0     H22008   4.583   0.150   7.115 -1.8735 -0.2564 -0.7126
  167MOL0     H22009   4.327   0.110   7.080 -1.1287 -1.1922 -0.1726
  167MOL0     H22010   4.139  -0.256   7.211  1.9210 -0.6692 -0.5179
  167MOL0     H22011   4.164  -0.318   7.057 -0.6038 -1.4166  2.2986
  167MOL0     H22012   3.966  -0.199   6.961 -2.3728 -0.1668 -0.3207
  167MOL0     H22013   3.960  -0.105   7.107  0.2226 -0.5414  0.5716
  167MOL0     H22014   3.788  -0.253   7.137  1.7627  3.3454  0.5748
  167MOL0     H22015   3.907  -0.300   7.249 -0.8468 -0.2317  0.7251
  167MOL0     H22016   3.880  -0.443   6.980  1.1274  0.3174 -0.5951
  167MOL0     H22017   3.992  -0.489   7.107 -1.0621 -1.6662 -0.4377
  167MOL0     H22018   3.698  -0.469   7.146  0.0428 -0.6341  1.9814
  167MOL0     H22019   3.813  -0.565   7.246  0.1073 -1.0233 -0.8133
  167MOL0     H22020   3.685  -0.631   6.986 -1.8702  2.9218  2.3499
  167MOL0     H22021   3.678  -0.720   7.130  1.6590 -0.7882 -0.2118
  167MOL0     H22022   3.806  -0.825   6.942 -0.2986  0.7488 -0.9221
  167MOL0     H22023   3.937  -0.710   6.968  0.2909 -2.3290 -0.7117
  167MOL0     H22024   3.954  -0.942   7.095 -0.6673 -1.0293  0.9124
  167MOL0     H22025   3.822  -0.889   7.185  1.2059  0.6663  1.6574
  167MOL0     H22026   4.399  -0.313   7.111 -0.2402  0.0804  0.0839
  167MOL0     H22027   4.622  -0.271   7.190  0.4226 -0.6420 -0.2813
  167MOL0     H22028   4.951   0.022   7.506  2.1587  0.7275  0.6700
  167MOL0     H22029   5.187   0.084   7.510 -0.3148  1.6377 -0.1901
  167MOL0     H22030   5.345   1.302   7.842  0.5794 -2.6811  0.0622
  167MOL0     H22031   5.119   1.360   7.713  0.4837 -0.0704  0.3021
  167MOL0     H22032   4.698   1.359   7.614 -1.6104  0.2434 -0.8429
  167MOL0     H22033   4.525   1.450   7.481  1.3132 -2.1988  3.4217
  167MOL0     H22034   4.543   1.413   7.032 -4.1731 -1.1259 -0.8629
  167MOL0     H22035   4.564   1.589   7.074  0.7863  0.2898  1.5838
  167MOL0     H22036   4.372   1.514   6.914  0.5732 -0.4586 -0.4679
  167MOL0     H22037   4.287   1.427   7.029 -0.8987  0.7188 -3.4989
  167MOL0     H22038   4.383   1.706   7.098  2.4826 -1.4812 -1.0168
  167MOL0     H22039   4.231   1.622   7.156  0.4528  1.2579  0.6572
  167MOL0     H22040   4.177   1.802   7.000 -0.8408 -0.5311  0.8262
  167MOL0     H22041   4.266   1.738   6.870  0.7055 -1.3727 -0.3581
  167MOL0     H22042   3.964   1.437   6.926  0.7237 -0.8589 -2.2101
  167MOL0     H22043   4.767   1.394   7.128  3.3763  2.1648  0.5273
  167MOL0     H22044   4.949   1.325   7.255 -1.1989  0.2410 -2.8970
  168MOL0     O22045   1.579  10.117   2.661 -0.6955 -0.1301 -0.3977
  168MOL0     C22046   1.550  10.055   2.762 -0.3249 -0.3246  0.0537
  168MOL0     O22047   1.420  10.041   2.810  0.6840 -0.2848  0.4992
  168MOL0     C22048   1.315  10.093   2.740  0.0115 -0.3484  1.2921
  168MOL0     C22049   1.229  10.009   2.680 -0.7689  0.2138 -0.3392
  168MOL0     C22050   1.124  10.057   2.607  0.1960 -0.4929 -0.0130
  168MOL0     C22051   1.112  10.193   2.577  0.0925  0.8702 -0.1142
  168MOL0     O22052   1.016  10.219   2.485 -0.6488 -0.1444  0.3132
  168MOL0     C22053   1.018  10.354   2.445 -0.6752  0.3059 -0.0006
  168MOL0     C22054   0.939  10.452   2.531 -0.5402  0.5062  0.3678
  168MOL0     C22055   0.796  10.397   2.576 -0.1111 -0.5179  0.5047
  168MOL0     C22056   0.697  10.398   2.459  0.4436 -0.2769 -0.0577
  168MOL0     C22057   0.577  10.318   2.494  0.3483  0.4949 -0.1240
  168MOL0     C22058   0.477  10.394   2.589 -0.3053  0.1673  0.1282
  168MOL0     C22059   0.333  10.336   2.575  0.2857 -0.0552 -0.6060
  168MOL0     C22060   0.307  10.210   2.657 -0.1170  0.4368  1.0025
  168MOL0     N22061   0.164  10.173   2.660  0.0679 -0.2952  0.0244
  168MOL0     C22062   0.072  10.250   2.716 -0.3449 -0.4506  0.1153
  168MOL0     C22063  -0.047  10.180   2.716 -0.5758 -0.1313 -0.4336
  168MOL0     C22064  -0.176  10.239   2.772  0.3975 -0.0490 -0.1086
  168MOL0     C22065  -0.280  10.131   2.796  0.5222 -0.9873 -0.0678
  168MOL0     C22066  -0.407  10.185   2.865 -0.7947 -0.9653 -0.2411
  168MOL0     C22067  -0.472  10.094   2.959 -0.2021  0.0813 -0.2574
  168MOL0     O22068  -0.590  10.150   3.019 -0.5221 -0.2459  0.4642
  168MOL0     C22069  -0.718  10.107   2.977 -0.9508 -0.0301 -0.1359
  168MOL0     C22070  -0.803  10.202   2.940 -0.2729 -0.3819  0.2489
  168MOL0     C22071  -0.935  10.173   2.901 -0.7336 -0.6414 -0.1687
  168MOL0     C22072  -0.979  10.042   2.899  0.9770  0.1827  0.0242
  168MOL0     C22073  -1.116  10.003   2.853 -0.0753 -0.3229  0.0724
  168MOL0     O22074  -1.154   9.877   2.825  0.3497  0.1336 -0.4665
  168MOL0     C22075  -1.284   9.847   2.784 -0.8648 -0.2533  0.3043
  168MOL0     C22076  -1.344   9.902   2.674  0.2867  0.2622 -0.6466
  168MOL0     C22077  -1.474   9.876   2.631  0.5085 -0.1579 -0.0208
  168MOL0     C22078  -1.542   9.773   2.699 -0.2120  0.7472 -0.9884
  168MOL0     O22079  -1.667   9.721   2.676  0.2253  0.0188 -0.2119
  168MOL0     C22080  -1.737   9.780   2.564  0.0914  0.2531  0.5926
  168MOL0     C22081  -1.886   9.723   2.554 -0.7353  0.2375 -0.0817
  168MOL0     C22082  -1.967   9.791   2.666  1.3805 -0.2301 -0.6302
  168MOL0     C22083  -2.108   9.730   2.682  0.3280 -0.0044  0.6472
  168MOL0     C22084  -2.210   9.792   2.594  0.3829  0.9951 -0.5855
  168MOL0     C22085  -2.350   9.778   2.660 -0.7248 -0.0276 -0.3215
  168MOL0     C22086  -2.464   9.835   2.577 -0.4595 -0.6410 -0.5481
  168MOL0     C22087  -2.509   9.727   2.481 -0.0409 -0.0702 -0.0452
  168MOL0    Cl22088  -2.665   9.781   2.408  0.3351 -0.2329 -0.6383
  168MOL0     C22089  -1.478   9.708   2.806  0.2097 -0.5094  0.0893
  168MOL0     C22090  -1.345   9.746   2.851  0.6660  0.2643  0.2227
  168MOL0     O22091  -1.184  10.101   2.834  0.7732 -0.6990  0.2487
  168MOL0     C22092  -0.896   9.941   2.942 -0.2679  0.7064 -0.5070
  168MOL0     C22093  -0.764   9.970   2.987 -0.6940 -0.1422  0.1306
  168MOL0     N22094  -0.018  10.059   2.649  0.1099  0.3980 -0.2676
  168MOL0     N22095   0.106  10.062   2.612 -0.5254  1.2276 -0.5588
  168MOL0     C22096   1.204  10.282   2.635  0.0959 -0.1667 -0.9340
  168MOL0     C22097   1.305  10.233   2.717  0.3022 -0.0229  0.1230
  168MOL0     C22098   1.654   9.985   2.838 -0.4499 -0.7079 -0.0288
  168MOL0     C22099   1.781   9.964   2.781  0.2578 -0.3815 -0.1543
  168MOL0     C22100   1.889   9.915   2.858  0.1784 -0.2000  0.2160
  168MOL0     C22101   1.865   9.871   2.993 -0.6242 -0.0752 -0.0945
  168MOL0     O22102   1.950   9.833   3.087 -0.2065  0.0122  0.0319
  168MOL0     C22103   2.078   9.801   3.050 -0.3707 -1.0049 -0.4658
  168MOL0     C22104   2.158   9.760   3.174 -0.0219  0.4335 -1.1312
  168MOL0     C22105   2.310   9.754   3.145 -0.2305  0.1697 -0.1083
  168MOL0     C22106   2.401   9.727   3.273  0.1221  0.5290  1.1751
  168MOL0     C22107   2.547   9.737   3.237  0.3968  0.2544 -0.6114
  168MOL0     C22108   2.667   9.737   3.231 -0.0337 -0.6922 -0.3063
  168MOL0     C22109   1.737   9.894   3.044  0.8711  0.1702 -0.0081
  168MOL0     C22110   1.631   9.946   2.969 -0.2265  0.5959 -1.1329
  168MOL0     H22111   1.241   9.901   2.686  1.7591  0.4209 -0.5968
  168MOL0     H22112   1.040  10.000   2.569 -0.1184 -0.1111  0.1006
  168MOL0     H22113   0.968  10.362   2.348  2.1438 -0.8066 -1.6867
  168MOL0     H22114   1.118  10.393   2.426 -0.2779 -0.7487 -0.1231
  168MOL0     H22115   0.925  10.550   2.482  2.3712  1.1842  0.7549
  168MOL0     H22116   0.995  10.459   2.624  0.1412 -1.3153  0.1185
  168MOL0     H22117   0.757  10.463   2.654 -0.5381 -1.6312  1.2595
  168MOL0     H22118   0.804  10.294   2.613  1.6188 -1.7965 -2.9601
  168MOL0     H22119   0.652  10.497   2.454  1.9294  0.4283  0.1634
  168MOL0     H22120   0.737  10.358   2.365  3.9864 -0.4046  1.3474
  168MOL0     H22121   0.606  10.224   2.541 -0.4367  0.0942 -0.4125
  168MOL0     H22122   0.524  10.292   2.402 -0.6437  1.9096  0.0061
  168MOL0     H22123   0.474  10.499   2.562  2.4091 -0.2124 -2.0510
  168MOL0     H22124   0.515  10.396   2.691  2.8370  1.2238 -0.9602
  168MOL0     H22125   0.267  10.407   2.625  1.0816  0.4859 -0.3006
  168MOL0     H22126   0.294  10.321   2.474 -0.3090  0.0621 -0.4009
  168MOL0     H22127   0.340  10.224   2.760 -0.7734 -0.3356  1.3243
  168MOL0     H22128   0.368  10.131   2.612 -1.7891 -0.3018 -0.0900
  168MOL0     H22129   0.078  10.350   2.759 -0.1250  0.0859 -1.1299
  168MOL0     H22130  -0.216  10.322   2.713 -1.4318 -1.5426 -1.0714
  168MOL0     H22131  -0.157  10.290   2.867 -2.7139  1.9452 -0.4198
  168MOL0     H22132  -0.232  10.053   2.855 -1.1166 -1.2806  0.9553
  168MOL0     H22133  -0.315  10.097   2.699 -3.9621  2.8378 -0.2099
  168MOL0     H22134  -0.366  10.270   2.920  2.7355 -2.4413 -0.3561
  168MOL0     H22135  -0.488  10.222   2.800  1.2922  2.6636 -1.0515
  168MOL0     H22136  -0.404  10.059   3.038 -0.8710  1.2857  0.8949
  168MOL0     H22137  -0.506  10.009   2.898 -0.5859  1.0234 -1.3912
  168MOL0     H22138  -0.771  10.305   2.932 -0.9401 -0.3126 -2.4187
  168MOL0     H22139  -1.006  10.246   2.863  3.3156  2.6208 -2.2196
  168MOL0     H22140  -1.293   9.982   2.620  0.0064  1.9279  1.4309
  168MOL0     H22141  -1.517   9.932   2.549  0.0719  2.9446  2.1235
  168MOL0     H22142  -1.683   9.765   2.470  0.1190  0.5468  0.5603
  168MOL0     H22143  -1.739   9.888   2.578 -0.1511  0.2873  0.3138
  168MOL0     H22144  -1.878   9.616   2.575  2.0982  0.3575 -0.2367
  168MOL0     H22145  -1.929   9.738   2.455  0.1467 -0.4788 -0.5702
  168MOL0     H22146  -1.975   9.899   2.659  0.0449  0.0545  3.1081
  168MOL0     H22147  -1.906   9.781   2.756 -0.7400 -0.6314  0.8393
  168MOL0     H22148  -2.099   9.622   2.671 -0.4938 -0.1914  1.6057
  168MOL0     H22149  -2.143   9.746   2.785 -0.0206  2.0252  0.2647
  168MOL0     H22150  -2.225   9.739   2.499 -3.7842  1.7215 -0.5197
  168MOL0     H22151  -2.186   9.897   2.578  0.7223  0.7168 -2.0086
  168MOL0     H22152  -2.343   9.839   2.751  3.3207 -2.1335  1.0082
  168MOL0     H22153  -2.370   9.673   2.680 -0.2659  0.1965  1.4727
  168MOL0     H22154  -2.540   9.870   2.648  0.6360 -0.5499  0.6332
  168MOL0     H22155  -2.429   9.926   2.529  1.0915 -2.1967 -2.5307
  168MOL0     H22156  -2.521   9.630   2.530 -2.5487  0.7321  1.0864
  168MOL0     H22157  -2.439   9.707   2.399 -1.4604 -3.1381 -0.6387
  168MOL0     H22158  -1.538   9.634   2.858 -0.7920 -0.8554 -1.4952
  168MOL0     H22159  -1.296   9.690   2.930  0.6895 -2.3150 -1.4761
  168MOL0     H22160  -0.931   9.838   2.943 -0.3298  0.7046  1.6723
  168MOL0     H22161  -0.692   9.895   3.019  0.8720  1.5326  0.7119
  168MOL0     H22162   1.207  10.389   2.616 -1.6121 -0.3927 -2.7249
  168MOL0     H22163   1.380  10.289   2.770 -0.8614  0.4740  1.2917
  168MOL0     H22164   1.794   9.983   2.675  0.4710  1.4629  0.1717
  168MOL0     H22165   1.993   9.915   2.825  0.2002  3.4665 -0.1470
  168MOL0     H22166   2.127   9.892   3.012 -1.6362 -0.1973 -0.2004
  168MOL0     H22167   2.088   9.721   2.977  0.9071  0.2550 -1.7644
  168MOL0     H22168   2.137   9.828   3.257  2.5790  0.8645 -0.7309
  168MOL0     H22169   2.132   9.660   3.210  0.3897  0.1820 -1.5163
  168MOL0     H22170   2.350   9.843   3.095  0.5276 -0.6686 -1.0379
  168MOL0     H22171   2.320   9.664   3.083  0.4381 -0.8667  1.4302
  168MOL0     H22172   2.365   9.797   3.349 -2.5722 -1.1410  1.5760
  168MOL0     H22173   2.383   9.623   3.301 -1.4089  0.8168  1.3098
  168MOL0     H22174   2.770   9.761   3.211 -0.7707  0.3929 -3.4134
  168MOL0     H22175   1.698   9.858   3.139 -0.8000  0.2679 -0.6185
  168MOL0     H22176   1.533   9.958   3.014 -1.4836  0.4222 -3.6329
  169MOL0     O22177   3.261   7.000  11.132  0.1305 -0.2908 -0.5287
  169MOL0     C22178   3.340   6.928  11.078  0.0996  0.0599 -0.6976
  169MOL0     O22179   3.302   6.801  11.039  0.9294 -0.3269  0.0860
  169MOL0     C22180   3.173   6.753  11.076 -0.4323  0.4640  0.0121
  169MOL0     C22181   3.131   6.738  11.216  0.1889  0.1527  0.0914
  169MOL0     C22182   3.001   6.703  11.240 -0.0883 -1.5409 -0.8822
  169MOL0     C22183   2.905   6.687  11.142 -0.0488  1.1846 -0.4606
  169MOL0     O22184   2.773   6.671  11.160  0.2806 -0.2389 -0.2437
  169MOL0     C22185   2.728   6.551  11.218  0.0959 -0.2682 -0.4792
  169MOL0     C22186   2.679   6.476  11.095 -0.3267  0.2291 -0.1600
  169MOL0     C22187   2.603   6.347  11.142  0.1071  0.1783  0.1227
  169MOL0     C22188   2.451   6.372  11.199 -0.2228  0.5067  0.0637
  169MOL0     C22189   2.350   6.395  11.084 -0.2770 -0.7604  1.1643
  169MOL0     C22190   2.208   6.396  11.141  0.8935  0.4631  0.2668
  169MOL0     C22191   2.110   6.396  11.022  0.0417  0.1834 -0.3637
  169MOL0     C22192   1.965   6.424  11.054 -0.1493 -0.8340 -0.1430
  169MOL0     N22193   1.879   6.434  10.936 -0.4651 -0.0040 -0.9778
  169MOL0     C22194   1.817   6.335  10.863  0.4583  0.9068 -0.0738
  169MOL0     C22195   1.748   6.398  10.763  0.4724 -0.5415 -0.4476
  169MOL0     C22196   1.692   6.332  10.644 -0.3635  0.2374  0.4019
  169MOL0     C22197   1.550   6.370  10.621  0.2558 -0.5456  0.8885
  169MOL0     C22198   1.531   6.338  10.468  0.3805 -0.4276 -0.0724
  169MOL0     C22199   1.380   6.354  10.447 -0.7310 -0.0098 -0.3133
  169MOL0     O22200   1.311   6.240  10.494  0.1919  0.0028  0.5171
  169MOL0     C22201   1.184   6.226  10.455  0.4158 -0.5826  0.4401
  169MOL0     C22202   1.142   6.095  10.441 -0.0207  0.7554  0.7416
  169MOL0     C22203   1.009   6.062  10.407 -1.2701  0.5642  0.8052
  169MOL0     C22204   0.908   6.169  10.403 -0.4269 -0.0165 -0.3336
  169MOL0     C22205   0.766   6.141  10.372  0.6200 -0.1837 -0.7173
  169MOL0     O22206   0.670   6.241  10.382 -0.5624 -0.3770 -0.4230
  169MOL0     C22207   0.536   6.197  10.396  0.5517 -0.8323 -0.0518
  169MOL0     C22208   0.494   6.105  10.488 -0.2203 -0.0224 -0.0508
  169MOL0     C22209   0.354   6.074  10.494  0.1044 -0.4332 -0.3924
  169MOL0     C22210   0.263   6.122  10.400 -0.6599 -1.0095 -0.0639
  169MOL0     O22211   0.140   6.067  10.402 -0.0768  0.7362  0.2123
  169MOL0     C22212   0.035   6.141  10.341 -0.0853  1.0897  0.6598
  169MOL0     C22213  -0.101   6.082  10.378  0.3405  0.2760  0.0603
  169MOL0     C22214  -0.112   5.929  10.340 -0.7019  0.0937  0.5191
  169MOL0     C22215  -0.245   5.869  10.369 -0.3053 -0.7209 -0.6526
  169MOL0     C22216  -0.327   5.878  10.245  0.5974 -0.3861  0.2783
  169MOL0     C22217  -0.476   5.842  10.287 -0.8435 -0.2906  0.6579
  169MOL0     C22218  -0.561   5.848  10.161 -0.8661 -0.6485  0.2662
  169MOL0     C22219  -0.703   5.813  10.201  0.4568  0.6497  0.5081
  169MOL0    Cl22220  -0.724   5.626  10.217 -0.1131  0.2426  0.0156
  169MOL0     C22221   0.310   6.220  10.312 -0.3867  0.2980 -0.7500
  169MOL0     C22222   0.444   6.260  10.311 -0.8000 -0.0068  0.0602
  169MOL0     O22223   0.746   6.023  10.341 -0.0434  0.7761 -0.8446
  169MOL0     C22224   0.951   6.300  10.439  0.0829  0.0343 -0.4490
  169MOL0     C22225   1.094   6.333  10.460  0.0521  0.4434  0.7558
  169MOL0     N22226   1.769   6.533  10.777 -0.5391  0.4805  0.4457
  169MOL0     N22227   1.845   6.551  10.879 -0.8437  0.0166  0.2571
  169MOL0     C22228   2.946   6.690  11.011 -0.5306  0.1827  0.8882
  169MOL0     C22229   3.076   6.728  10.977 -1.0962 -0.6950 -0.5674
  169MOL0     C22230   3.479   6.981  11.052  0.2928  0.1485  0.1002
  169MOL0     C22231   3.519   7.109  11.088 -0.0781  0.0575 -0.8946
  169MOL0     C22232   3.634   7.172  11.037 -0.5528 -0.8815  0.0405
  169MOL0     C22233   3.715   7.106  10.941  0.1487 -0.0618  0.0914
  169MOL0     O22234   3.836   7.167  10.909  0.4462  0.5603  0.2344
  169MOL0     C22235   3.903   7.110  10.791  0.2370 -0.5917 -0.0248
  169MOL0     C22236   4.016   7.207  10.770 -0.5339 -0.0116 -0.1753
  169MOL0     C22237   4.084   7.197  10.628 -0.3260  0.1989 -0.1158
  169MOL0     C22238   4.127   7.054  10.587  0.1145  0.5636  0.8242
  169MOL0     C22239   4.233   7.003  10.676 -0.6270  0.2382 -0.3451
  169MOL0     C22240   4.334   6.975  10.745 -0.5508  0.1802 -0.0109
  169MOL0     C22241   3.686   6.972  10.913  0.4131  0.1549 -0.6264
  169MOL0     C22242   3.569   6.909  10.965  0.9535 -1.4621 -0.5597
  169MOL0     H22243   3.212   6.756  11.287  1.2706 -2.8036 -0.2365
  169MOL0     H22244   2.970   6.704  11.344  1.1835  0.6204 -0.4547
  169MOL0     H22245   2.644   6.577  11.283 -0.3861 -0.5883 -0.9703
  169MOL0     H22246   2.804   6.496  11.274  0.8015 -0.0324 -1.1802
  169MOL0     H22247   2.774   6.456  11.045  0.4658 -0.4345  1.5180
  169MOL0     H22248   2.617   6.539  11.031  2.2938  0.6937 -2.4423
  169MOL0     H22249   2.659   6.296  11.221 -1.9941 -1.7076  0.4871
  169MOL0     H22250   2.593   6.274  11.061  1.2750 -0.6849  0.7171
  169MOL0     H22251   2.413   6.292  11.262 -0.0714 -0.1205 -0.6295
  169MOL0     H22252   2.462   6.462  11.261  0.2441  0.2505  0.3544
  169MOL0     H22253   2.364   6.317  11.009 -2.9680 -1.6273  1.4725
  169MOL0     H22254   2.371   6.493  11.041 -1.0404 -0.1912  2.0418
  169MOL0     H22255   2.194   6.478  11.212  0.4649 -0.4666  1.2746
  169MOL0     H22256   2.197   6.297  11.186  2.7810 -0.7890 -1.7578
  169MOL0     H22257   2.145   6.484  10.966  1.0600  0.0974  0.1090
  169MOL0     H22258   2.111   6.305  10.961  2.9998  0.4991 -0.9233
  169MOL0     H22259   1.951   6.513  11.116 -2.9714 -3.2372  3.0382
  169MOL0     H22260   1.928   6.342  11.117 -0.1461 -0.9222 -0.2560
  169MOL0     H22261   1.819   6.229  10.884  1.8830  1.1963  1.4838
  169MOL0     H22262   1.694   6.223  10.638 -0.3451  0.3128 -2.3018
  169MOL0     H22263   1.747   6.371  10.558 -0.6320 -2.1765 -0.9349
  169MOL0     H22264   1.532   6.477  10.638 -0.5323 -0.3364 -1.0569
  169MOL0     H22265   1.479   6.319  10.686 -1.0201  0.1500  0.0895
  169MOL0     H22266   1.595   6.404  10.409 -0.2923  0.9515  0.7025
  169MOL0     H22267   1.568   6.239  10.440 -0.4592 -0.2281 -2.0296
  169MOL0     H22268   1.366   6.367  10.340 -0.3005 -1.3179 -0.5470
  169MOL0     H22269   1.344   6.448  10.490 -3.0502 -0.5925 -0.8410
  169MOL0     H22270   1.215   6.015  10.448 -0.0017  0.8286  1.4315
  169MOL0     H22271   0.969   5.963  10.390 -1.8511  0.7654  0.9839
  169MOL0     H22272   0.564   6.066  10.561 -1.8217  0.2650  1.7280
  169MOL0     H22273   0.324   6.013  10.579  2.2141  0.3221  0.9689
  169MOL0     H22274   0.056   6.143  10.234  2.9276  1.8915  1.1759
  169MOL0     H22275   0.042   6.241  10.385  0.6374  1.9437 -1.2765
  169MOL0     H22276  -0.176   6.147  10.334  1.4100  4.0872  3.2823
  169MOL0     H22277  -0.118   6.093  10.486 -1.0850  1.1702 -0.2422
  169MOL0     H22278  -0.037   5.880  10.403 -2.6645 -1.7407  1.5630
  169MOL0     H22279  -0.079   5.919  10.237  0.9554  4.8815  0.2916
  169MOL0     H22280  -0.248   5.763  10.392 -2.9144 -0.3418  1.3006
  169MOL0     H22281  -0.288   5.926  10.452  1.2807 -0.0220 -0.2758
  169MOL0     H22282  -0.304   5.812  10.161 -2.3597 -1.3018  0.0811
  169MOL0     H22283  -0.317   5.979  10.204  1.0384  0.6127  2.7146
  169MOL0     H22284  -0.506   5.902  10.374  0.5126 -0.2448  1.1061
  169MOL0     H22285  -0.478   5.740  10.326  3.9779 -1.0525 -0.4418
  169MOL0     H22286  -0.563   5.949  10.119 -1.9678  0.6574  3.2023
  169MOL0     H22287  -0.530   5.780  10.081  0.4895  1.0130 -0.6747
  169MOL0     H22288  -0.765   5.849  10.119 -1.5142 -0.5475  1.3923
  169MOL0     H22289  -0.733   5.869  10.291  0.1590  3.0263 -0.9815
  169MOL0     H22290   0.243   6.268  10.242  0.0027 -0.9103 -1.9818
  169MOL0     H22291   0.486   6.333  10.243  0.5219 -2.1634 -1.5706
  169MOL0     H22292   0.879   6.381  10.443 -0.0382 -0.1267  2.1323
  169MOL0     H22293   1.120   6.438  10.472 -0.8538  0.8276 -0.5040
  169MOL0     H22294   2.874   6.679  10.930  0.6131 -2.1234  0.1137
  169MOL0     H22295   3.107   6.727  10.872  1.9406 -1.2452  0.2367
  169MOL0     H22296   3.456   7.171  11.151  2.1465  0.8769  0.6610
  169MOL0     H22297   3.670   7.268  11.073  0.4361 -2.1321  2.6311
  169MOL0     H22298   3.832   7.103  10.708 -0.2683 -1.8322  0.4998
  169MOL0     H22299   3.942   7.012  10.819  1.3338  0.7775  3.9303
  169MOL0     H22300   3.980   7.309  10.788  1.6566  0.2042  4.4848
  169MOL0     H22301   4.096   7.181  10.840 -0.0348  0.1018 -0.6956
  169MOL0     H22302   4.153   7.281  10.621 -0.8898  0.8524  1.6311
  169MOL0     H22303   4.003   7.226  10.561 -1.1263 -0.5936  0.4838
  169MOL0     H22304   4.037   6.992  10.590  1.6482 -1.7622  0.8307
  169MOL0     H22305   4.174   7.059  10.488 -0.5560  1.4760  0.5313
  169MOL0     H22306   4.420   6.967  10.808 -0.4069 -0.5980 -0.2982
  169MOL0     H22307   3.753   6.915  10.849  1.9161  0.8474  0.2707
  169MOL0     H22308   3.534   6.808  10.947 -1.2354 -1.0515  0.9324
  170MOL0     O22309   6.689   2.754   7.197  0.0311 -0.0928  0.4723
  170MOL0     C22310   6.735   2.824   7.287  0.0568  0.0649  0.1338
  170MOL0     O22311   6.669   2.901   7.376  0.0326  0.2576  0.0341
  170MOL0     C22312   6.536   2.873   7.377 -0.2200 -0.5286  0.1023
  170MOL0     C22313   6.492   2.784   7.471 -0.0892 -1.5837 -0.6829
  170MOL0     C22314   6.360   2.754   7.485 -0.9166  0.5134 -0.6696
  170MOL0     C22315   6.267   2.815   7.414  0.3901 -0.2709  0.8184
  170MOL0     O22316   6.134   2.786   7.444 -0.0862  0.8131  0.1166
  170MOL0     C22317   6.068   2.703   7.348  0.0913  0.2382  0.2440
  170MOL0     C22318   6.096   2.558   7.367 -0.2180  0.6260  0.1285
  170MOL0     C22319   6.023   2.491   7.253 -0.2257 -0.1931  0.0692
  170MOL0     C22320   5.870   2.489   7.271 -0.3331  0.1903 -0.0879
  170MOL0     C22321   5.798   2.387   7.185 -0.3713 -0.2467  0.5521
  170MOL0     C22322   5.651   2.420   7.165 -0.0298  0.1407 -0.5891
  170MOL0     C22323   5.580   2.420   7.300  0.2786  0.1340  0.4614
  170MOL0     C22324   5.429   2.445   7.303  0.8391  0.6677 -0.3313
  170MOL0     N22325   5.365   2.399   7.427  0.0909 -0.3445  0.7334
  170MOL0     C22326   5.283   2.285   7.448  0.5592 -0.2927  0.3095
  170MOL0     C22327   5.213   2.314   7.567  0.5037 -0.0529 -0.9676
  170MOL0     C22328   5.112   2.224   7.622  0.5394 -0.1993  0.0316
  170MOL0     C22329   4.975   2.286   7.600  0.9212  1.0365  0.2459
  170MOL0     C22330   4.874   2.180   7.650 -0.7664  0.3745 -0.7315
  170MOL0     C22331   4.729   2.216   7.614  0.5303 -1.0892  0.4682
  170MOL0     O22332   4.637   2.109   7.630  0.1971  0.0351 -0.4454
  170MOL0     C22333   4.497   2.129   7.635 -0.4105 -0.6066  0.3442
  170MOL0     C22334   4.440   2.233   7.566 -0.3406  0.4289 -0.0701
  170MOL0     C22335   4.295   2.245   7.575 -1.7507 -1.2666  1.0744
  170MOL0     C22336   4.215   2.150   7.644  1.0843 -0.6103  0.5642
  170MOL0     C22337   4.066   2.155   7.632 -0.2866  0.6259  0.5301
  170MOL0     O22338   4.005   2.227   7.534 -0.4584  0.0754  0.0244
  170MOL0     C22339   3.871   2.244   7.541  0.1574  0.2103 -0.2884
  170MOL0     C22340   3.816   2.370   7.515  0.0963  0.7796  0.2874
  170MOL0     C22341   3.677   2.403   7.509  0.3762 -0.9119 -0.4385
  170MOL0     C22342   3.589   2.298   7.530  0.0632 -1.4656 -0.0362
  170MOL0     O22343   3.455   2.317   7.513 -0.1232 -0.8703 -0.3380
  170MOL0     C22344   3.367   2.249   7.609  0.1822 -0.1877  0.0600
  170MOL0     C22345   3.226   2.243   7.551 -0.1188 -0.0123  0.7307
  170MOL0     C22346   3.118   2.259   7.654 -0.1189  0.0768  1.5909
  170MOL0     C22347   3.112   2.145   7.750 -0.1758  0.0041  0.5412
  170MOL0     C22348   3.016   2.170   7.865 -0.1508 -0.3543  1.3061
  170MOL0     C22349   3.016   2.047   7.958  0.2416  0.8115 -0.7584
  170MOL0     C22350   2.930   2.069   8.079 -0.2393  0.3219  0.3149
  170MOL0     C22351   2.911   1.942   8.163 -0.2253  0.1610 -0.0838
  170MOL0    Cl22352   3.079   1.863   8.191  0.1752 -0.1270 -0.0367
  170MOL0     C22353   3.642   2.167   7.555  0.0666  0.0647 -0.4600
  170MOL0     C22354   3.782   2.145   7.566  0.9975  0.8367  0.1002
  170MOL0     O22355   4.014   2.088   7.727  0.2994  0.3851  0.2635
  170MOL0     C22356   4.275   2.036   7.691 -0.5224  0.4114 -0.6220
  170MOL0     C22357   4.417   2.029   7.683 -0.2196  0.1665 -0.1546
  170MOL0     N22358   5.251   2.433   7.621  0.4954 -0.2939  0.0942
  170MOL0     N22359   5.336   2.484   7.534  0.2552 -0.1639 -0.8061
  170MOL0     C22360   6.305   2.898   7.311 -0.3158  0.6660 -0.3688
  170MOL0     C22361   6.439   2.926   7.294  0.1513 -0.3660  0.3438
  170MOL0     C22362   6.880   2.838   7.296 -0.0721  0.1632  0.7828
  170MOL0     C22363   6.934   2.903   7.405 -0.4494 -0.2004  0.7927
  170MOL0     C22364   7.067   2.929   7.404  0.2185  0.8304  0.6242
  170MOL0     C22365   7.154   2.893   7.299  0.7373  0.0986  0.5624
  170MOL0     O22366   7.288   2.932   7.308 -0.4770 -0.1150 -0.1275
  170MOL0     C22367   7.391   2.873   7.219  0.8074 -0.4020  0.3579
  170MOL0     C22368   7.526   2.938   7.230 -1.2971  0.1196  0.2849
  170MOL0     C22369   7.645   2.853   7.189 -0.6814 -0.3576  0.0155
  170MOL0     C22370   7.769   2.932   7.165  0.0256  0.3861  0.2111
  170MOL0     C22371   7.799   3.027   7.275  0.1164 -0.6617 -0.7815
  170MOL0     C22372   7.824   3.100   7.371  0.5836 -0.4572 -0.2771
  170MOL0     C22373   7.095   2.821   7.193  0.0220  0.0493  0.3705
  170MOL0     C22374   6.956   2.789   7.191  0.2710 -0.1986  0.2654
  170MOL0     H22375   6.564   2.736   7.536 -0.0085 -1.8237 -0.9457
  170MOL0     H22376   6.327   2.682   7.559  2.7441 -3.2928 -2.3221
  170MOL0     H22377   6.098   2.730   7.247  2.4161  0.1256  0.8406
  170MOL0     H22378   5.963   2.716   7.373 -0.6264 -4.0421  0.2711
  170MOL0     H22379   6.062   2.521   7.464  1.8822 -3.1559 -0.3753
  170MOL0     H22380   6.200   2.534   7.342 -0.8356 -1.8040 -0.3305
  170MOL0     H22381   6.065   2.391   7.238  4.7780  1.7728 -0.7956
  170MOL0     H22382   6.047   2.540   7.159 -0.9000 -2.2622 -1.2591
  170MOL0     H22383   5.841   2.464   7.374 -2.2553  0.9791 -0.3918
  170MOL0     H22384   5.835   2.592   7.256  0.8947  0.5646 -0.5030
  170MOL0     H22385   5.808   2.291   7.235  0.1001 -2.0402 -2.6893
  170MOL0     H22386   5.857   2.379   7.093 -0.4622 -0.1800  0.4877
  170MOL0     H22387   5.597   2.343   7.110 -2.2751  1.5672 -0.5130
  170MOL0     H22388   5.641   2.518   7.118  0.4267  1.8112  2.5344
  170MOL0     H22389   5.594   2.319   7.340 -0.9246 -0.8740 -1.5223
  170MOL0     H22390   5.614   2.493   7.374  0.0921  0.4876  0.1986
  170MOL0     H22391   5.375   2.388   7.227  0.8730  1.1216 -0.7038
  170MOL0     H22392   5.413   2.550   7.277  1.0271  0.4894 -1.2340
  170MOL0     H22393   5.286   2.194   7.389  1.1812 -0.0781  0.0010
  170MOL0     H22394   5.125   2.193   7.726  0.6498 -1.5818 -0.3809
  170MOL0     H22395   5.117   2.130   7.567 -3.0489 -1.0505  0.8806
  170MOL0     H22396   4.951   2.310   7.496 -1.2057  0.6396  0.5976
  170MOL0     H22397   4.962   2.387   7.639  0.0342  1.5067 -1.2104
  170MOL0     H22398   4.910   2.085   7.610  1.1471  0.6370  0.2362
  170MOL0     H22399   4.874   2.156   7.757 -0.2655 -0.8886 -1.0023
  170MOL0     H22400   4.726   2.244   7.509 -1.4021  0.4371  0.8619
  170MOL0     H22401   4.702   2.304   7.673 -0.3326 -1.1086  0.1137
  170MOL0     H22402   4.484   2.321   7.519 -1.1619  1.2268  0.6275
  170MOL0     H22403   4.251   2.334   7.531 -1.0809 -1.1549  0.6152
  170MOL0     H22404   3.887   2.452   7.507 -1.2796  2.0267  0.2347
  170MOL0     H22405   3.650   2.505   7.486 -1.2975 -0.9857  0.9829
  170MOL0     H22406   3.370   2.303   7.704  0.2720  2.7687 -1.5000
  170MOL0     H22407   3.383   2.143   7.628  0.9923  0.1223  1.2461
  170MOL0     H22408   3.204   2.149   7.499  0.3190 -0.8449  1.9990
  170MOL0     H22409   3.222   2.316   7.470  1.0996 -1.4734 -0.7258
  170MOL0     H22410   3.016   2.273   7.617 -0.2898  0.6092  2.2274
  170MOL0     H22411   3.145   2.347   7.712  1.7608  1.0289 -0.5917
  170MOL0     H22412   3.080   2.050   7.707  1.2808 -0.1829 -0.1637
  170MOL0     H22413   3.217   2.126   7.774  0.2158  0.6659 -0.6084
  170MOL0     H22414   2.917   2.174   7.820 -0.8290 -1.0232  2.6768
  170MOL0     H22415   3.054   2.264   7.906  1.2793  1.1271 -2.9214
  170MOL0     H22416   3.119   2.024   7.987  0.1019  0.9796 -0.1064
  170MOL0     H22417   2.974   1.963   7.901 -4.5664  0.5784  2.5521
  170MOL0     H22418   2.989   2.130   8.148 -0.9426  1.0043  0.3173
  170MOL0     H22419   2.830   2.112   8.069 -0.1752  0.4222  0.0919
  170MOL0     H22420   2.847   1.868   8.114  1.3673 -0.9688 -0.5525
  170MOL0     H22421   2.868   1.978   8.256  0.2617 -1.5414  0.8449
  170MOL0     H22422   3.574   2.082   7.556  0.7110 -0.5291 -2.4469
  170MOL0     H22423   3.817   2.043   7.572 -1.5948 -0.2470 -1.6802
  170MOL0     H22424   4.216   1.952   7.727  1.8215 -1.1145 -0.1505
  170MOL0     H22425   4.459   1.933   7.713  0.2938  0.0914 -1.1033
  170MOL0     H22426   6.226   2.939   7.250 -2.1269  0.0888  1.4861
  170MOL0     H22427   6.471   3.011   7.235 -0.6114  0.5806  1.2571
  170MOL0     H22428   6.871   2.941   7.485 -1.1958  1.6094 -0.5767
  170MOL0     H22429   7.118   2.970   7.490 -2.6840  0.0686  2.8705
  170MOL0     H22430   7.353   2.887   7.117  0.2918  1.6881  0.7853
  170MOL0     H22431   7.396   2.764   7.232  1.9324 -0.7849 -2.6015
  170MOL0     H22432   7.536   3.035   7.181  0.3940  0.4790  1.2331
  170MOL0     H22433   7.545   2.953   7.337 -1.7625 -0.1250  0.4022
  170MOL0     H22434   7.623   2.793   7.100  1.1695 -0.0122 -0.7454
  170MOL0     H22435   7.659   2.790   7.277 -2.7162 -0.8920 -0.0097
  170MOL0     H22436   7.841   2.852   7.149 -1.2167 -0.5417 -1.0330
  170MOL0     H22437   7.749   2.985   7.071  4.3239  0.3280 -0.9059
  170MOL0     H22438   7.857   3.160   7.453 -0.0101  2.4906 -2.0754
  170MOL0     H22439   7.151   2.796   7.104 -1.0707  2.2103 -1.0084
  170MOL0     H22440   6.911   2.731   7.110  1.7970  0.3367 -1.0178
  171MOL0     O22441  10.608   3.969   7.216 -0.5664 -0.4213  0.7654
  171MOL0     C22442  10.649   3.855   7.233 -0.5695  0.6925  0.3159
  171MOL0     O22443  10.588   3.736   7.190  0.1474  1.0355 -0.3114
  171MOL0     C22444  10.480   3.745   7.107  0.0567 -0.3246 -0.1544
  171MOL0     C22445  10.375   3.831   7.124  0.3434  0.2784  0.2380
  171MOL0     C22446  10.262   3.831   7.038 -0.8914 -0.3326 -0.8679
  171MOL0     C22447  10.267   3.761   6.913 -0.0518  0.7458 -0.1961
  171MOL0     O22448  10.159   3.779   6.823 -0.1622 -0.2424  0.6455
  171MOL0     C22449  10.149   3.695   6.713  0.3478  0.3700  0.7718
  171MOL0     C22450  10.039   3.724   6.612  0.1099  0.5135 -0.7069
  171MOL0     C22451  10.016   3.874   6.599 -0.4375  0.2653  0.6288
  171MOL0     C22452   9.930   3.897   6.478 -0.3081 -0.5533  0.0755
  171MOL0     C22453   9.844   4.016   6.491 -0.4689 -0.5424  0.5112
  171MOL0     C22454   9.761   4.044   6.357 -0.3980 -0.0047 -0.1169
  171MOL0     C22455   9.718   4.191   6.348  0.3851 -0.1612 -0.3853
  171MOL0     C22456   9.601   4.238   6.442  0.4808  0.1594 -0.4604
  171MOL0     N22457   9.558   4.376   6.414  0.1557 -1.0885 -0.7052
  171MOL0     C22458   9.477   4.423   6.319  0.0766  0.6629  0.5664
  171MOL0     C22459   9.487   4.555   6.328 -0.6011 -0.1318  0.7763
  171MOL0     C22460   9.416   4.637   6.237 -0.4638  0.2348  0.3669
  171MOL0     C22461   9.341   4.736   6.307  0.5615  0.4113  0.3711
  171MOL0     C22462   9.253   4.834   6.221 -0.4808 -0.2000 -0.6072
  171MOL0     C22463   9.113   4.778   6.190  0.0821  0.0642  0.3317
  171MOL0     O22464   9.054   4.887   6.127  0.2342 -0.3559 -0.2051
  171MOL0     C22465   8.917   4.881   6.106 -0.6170  0.3178 -0.7695
  171MOL0     C22466   8.873   4.982   6.023 -0.0414  0.0213 -0.1510
  171MOL0     C22467   8.736   4.993   5.998  0.0905 -0.6561 -0.0811
  171MOL0     C22468   8.645   4.895   6.040  0.1942 -0.2500  0.3257
  171MOL0     C22469   8.495   4.908   6.000 -0.4430 -0.0355  0.4344
  171MOL0     O22470   8.457   5.026   5.932 -0.2860  0.1273 -0.6624
  171MOL0     C22471   8.321   5.030   5.903  1.3733  0.1776 -0.0119
  171MOL0     C22472   8.247   5.127   5.978 -0.9091  0.1123 -0.0241
  171MOL0     C22473   8.114   5.136   5.971  0.4072 -0.4583  0.1617
  171MOL0     C22474   8.041   5.072   5.873 -0.3508 -0.4899 -0.4154
  171MOL0     O22475   7.916   5.097   5.837 -0.3646 -0.8507 -0.7435
  171MOL0     C22476   7.829   5.131   5.942  0.9564 -0.3899  0.1158
  171MOL0     C22477   7.682   5.115   5.895  0.2403  0.3179  0.2707
  171MOL0     C22478   7.631   5.225   5.801  0.2100 -0.1641 -0.5279
  171MOL0     C22479   7.483   5.222   5.788  1.2123  0.0404 -0.4948
  171MOL0     C22480   7.399   5.340   5.741  0.0735  0.6345 -0.0546
  171MOL0     C22481   7.422   5.477   5.813 -0.0699 -0.2165 -0.2453
  171MOL0     C22482   7.318   5.581   5.764  0.0971  0.6263 -0.2728
  171MOL0     C22483   7.315   5.602   5.607 -0.2337 -0.5475 -0.6446
  171MOL0    Cl22484   7.471   5.637   5.531 -0.0653 -0.2437  0.0775
  171MOL0     C22485   8.108   4.982   5.796  0.0649  0.6656 -0.0902
  171MOL0     C22486   8.247   4.950   5.817 -0.3485 -0.7203 -0.8812
  171MOL0     O22487   8.427   4.804   6.012 -0.8827  0.1475 -0.5810
  171MOL0     C22488   8.694   4.782   6.112 -0.0364 -0.3715  0.1803
  171MOL0     C22489   8.826   4.784   6.155  0.9835 -0.3741 -0.2047
  171MOL0     N22490   9.568   4.585   6.440  0.3708 -0.3384  0.2955
  171MOL0     N22491   9.608   4.480   6.491  0.0509  0.4411 -0.2797
  171MOL0     C22492  10.368   3.665   6.898 -0.6214 -0.0573 -0.2114
  171MOL0     C22493  10.471   3.665   6.998  0.0810 -0.7128  0.2034
  171MOL0     C22494  10.780   3.848   7.290  0.3022 -0.0543  0.6179
  171MOL0     C22495  10.814   3.938   7.391 -0.6478  0.7886  0.0270
  171MOL0     C22496  10.931   3.918   7.459  0.3795  0.2200 -0.5104
  171MOL0     C22497  11.016   3.810   7.438 -0.6221  0.2805  0.8675
  171MOL0     O22498  11.116   3.801   7.525 -0.1260 -0.0798 -0.3586
  171MOL0     C22499  11.153   3.677   7.570 -0.1174  0.2877  0.1549
  171MOL0     C22500  11.219   3.701   7.702  0.2070 -0.2094  0.1118
  171MOL0     C22501  11.357   3.772   7.674  0.0672 -0.3868  0.6665
  171MOL0     C22502  11.460   3.753   7.781 -0.0607  0.9750  0.1008
  171MOL0     C22503  11.430   3.845   7.897 -0.1272  0.7628 -0.2628
  171MOL0     C22504  11.387   3.914   7.993 -0.7739 -0.2304 -0.3571
  171MOL0     C22505  10.987   3.725   7.330 -0.0295  0.1352  0.2648
  171MOL0     C22506  10.863   3.737   7.264 -0.0713 -0.5416  0.5834
  171MOL0     H22507  10.369   3.900   7.208  0.1301 -3.3429  3.5197
  171MOL0     H22508  10.176   3.892   7.064 -0.2982  0.3317 -0.4231
  171MOL0     H22509  10.152   3.592   6.750 -0.0408  0.2622  0.5026
  171MOL0     H22510  10.244   3.710   6.661 -0.1503 -0.5458 -0.4423
  171MOL0     H22511   9.952   3.682   6.663  1.3310 -0.8500  0.3081
  171MOL0     H22512  10.061   3.674   6.517  2.0956 -0.9772  0.4716
  171MOL0     H22513  10.103   3.938   6.579 -0.4819 -0.6981 -3.2905
  171MOL0     H22514   9.966   3.916   6.687 -1.3921 -2.3757  1.4323
  171MOL0     H22515  10.003   3.916   6.399  1.1872 -0.2397  1.4800
  171MOL0     H22516   9.872   3.811   6.442  3.2452 -2.7652 -0.8067
  171MOL0     H22517   9.906   4.103   6.513 -0.4027 -0.3712 -0.3280
  171MOL0     H22518   9.778   3.998   6.576  0.5791  2.2570  2.0419
  171MOL0     H22519   9.674   3.978   6.365 -0.4197  0.0603  0.1883
  171MOL0     H22520   9.827   4.021   6.273 -0.9199  0.1145 -0.5619
  171MOL0     H22521   9.806   4.254   6.365  2.0581 -2.6635  1.0094
  171MOL0     H22522   9.703   4.205   6.241  0.9445 -1.7638 -0.6982
  171MOL0     H22523   9.638   4.246   6.545  0.6693  0.7105 -0.5672
  171MOL0     H22524   9.523   4.164   6.419  0.5619  0.0892 -0.5080
  171MOL0     H22525   9.435   4.372   6.233  1.5556 -0.3258  0.3897
  171MOL0     H22526   9.346   4.576   6.180 -2.3717 -0.1807  2.9644
  171MOL0     H22527   9.485   4.682   6.164 -0.3287 -1.7738 -0.8083
  171MOL0     H22528   9.407   4.802   6.364  0.7631  0.7168 -0.2083
  171MOL0     H22529   9.279   4.685   6.381  1.1122 -2.7886 -1.2050
  171MOL0     H22530   9.228   4.928   6.270 -1.7153 -0.7832 -0.0591
  171MOL0     H22531   9.312   4.863   6.134  1.3063 -3.2446 -0.5481
  171MOL0     H22532   9.059   4.748   6.281 -2.1959 -0.4922 -1.1270
  171MOL0     H22533   9.122   4.691   6.125  4.0659 -0.9390  1.9004
  171MOL0     H22534   8.936   5.056   5.974  2.9170 -1.7400  0.7404
  171MOL0     H22535   8.703   5.081   5.944  4.6273  1.2623 -0.1172
  171MOL0     H22536   8.296   5.190   6.052  3.9433 -1.4199 -1.5792
  171MOL0     H22537   8.062   5.220   6.017  1.2991  2.4307 -3.6552
  171MOL0     H22538   7.846   5.238   5.959 -0.7408 -0.2173  0.9450
  171MOL0     H22539   7.853   5.069   6.029  1.2343 -2.2353 -1.2154
  171MOL0     H22540   7.624   5.103   5.988 -0.1935 -2.2281 -0.2489
  171MOL0     H22541   7.678   5.011   5.860  3.6295  0.7003 -1.6130
  171MOL0     H22542   7.692   5.214   5.710  1.8523  0.0961  0.5115
  171MOL0     H22543   7.651   5.324   5.844  0.5395 -0.6323  0.4211
  171MOL0     H22544   7.456   5.145   5.714 -2.2525  0.0149  0.6192
  171MOL0     H22545   7.445   5.188   5.885  2.0835 -1.1969 -0.5620
  171MOL0     H22546   7.299   5.299   5.755  1.0836 -1.5833  1.2585
  171MOL0     H22547   7.427   5.357   5.636  3.5097  4.2426  1.2102
  171MOL0     H22548   7.520   5.523   5.795 -0.9779  1.3946 -1.2685
  171MOL0     H22549   7.413   5.448   5.918 -3.4682 -2.4255 -0.9844
  171MOL0     H22550   7.223   5.544   5.804  2.3595 -3.7970  1.7884
  171MOL0     H22551   7.338   5.673   5.820  0.3088  1.7048 -2.0421
  171MOL0     H22552   7.239   5.675   5.580  0.7634  1.2939  1.2179
  171MOL0     H22553   7.274   5.508   5.568  0.9008 -1.0896 -0.5925
  171MOL0     H22554   8.055   4.920   5.724  1.1953 -1.1049  0.5395
  171MOL0     H22555   8.300   4.877   5.757  1.1315  0.4009 -1.0068
  171MOL0     H22556   8.634   4.696   6.139  0.4839 -0.8578 -0.1869
  171MOL0     H22557   8.856   4.699   6.216  0.3007 -1.6051 -1.5202
  171MOL0     H22558  10.377   3.602   6.809  2.0154  2.9637 -2.3003
  171MOL0     H22559  10.547   3.590   6.978  2.0285  1.6418 -1.8360
  171MOL0     H22560  10.753   4.026   7.410 -0.5697  0.5001  1.8597
  171MOL0     H22561  10.964   3.993   7.531  3.3945 -1.7205  0.3279
  171MOL0     H22562  11.219   3.634   7.494 -1.0331  2.1001 -1.7484
  171MOL0     H22563  11.068   3.611   7.593 -0.7790  1.4102  1.0477
  171MOL0     H22564  11.155   3.756   7.773 -0.3011  0.4179 -0.8161
  171MOL0     H22565  11.220   3.599   7.742 -1.0077 -0.0958  0.4929
  171MOL0     H22566  11.347   3.879   7.652  3.1997 -0.2835 -0.7385
  171MOL0     H22567  11.396   3.723   7.584 -3.3045  0.3226 -1.3863
  171MOL0     H22568  11.459   3.648   7.811  0.9452  0.8422 -0.2942
  171MOL0     H22569  11.557   3.788   7.746  0.4849  1.8716  2.3403
  171MOL0     H22570  11.349   3.965   8.079  3.6979  0.9483  1.1529
  171MOL0     H22571  11.047   3.638   7.304  0.4256  1.1436 -2.4407
  171MOL0     H22572  10.830   3.658   7.199  2.4310 -1.3302  0.1785
  172MOL0     O22573   7.245   1.600   3.598 -0.1663 -0.3973 -0.1826
  172MOL0     C22574   7.270   1.483   3.593 -0.5165  0.3640  0.0788
  172MOL0     O22575   7.200   1.387   3.520 -0.3331  0.1425 -0.0836
  172MOL0     C22576   7.080   1.416   3.452  0.2528 -0.3548 -0.7629
  172MOL0     C22577   7.013   1.300   3.431 -0.6141 -0.5570 -0.6891
  172MOL0     C22578   6.888   1.300   3.365 -0.1941 -0.3237 -0.3509
  172MOL0     C22579   6.837   1.423   3.314 -0.0043  0.5555 -0.1020
  172MOL0     O22580   6.725   1.433   3.236 -0.8482  0.3584 -0.0173
  172MOL0     C22581   6.607   1.364   3.283 -0.2522 -0.3386  0.5844
  172MOL0     C22582   6.495   1.378   3.177  0.4020 -0.4488 -0.3806
  172MOL0     C22583   6.363   1.314   3.226  0.0153 -0.2011  1.1661
  172MOL0     C22584   6.265   1.308   3.115 -0.3234  0.2840 -0.0713
  172MOL0     C22585   6.149   1.219   3.141  0.6092  0.4754  0.1710
  172MOL0     C22586   6.163   1.074   3.107 -0.4830  0.4553  0.2336
  172MOL0     C22587   6.036   1.004   3.066  0.5223  0.1654  0.0987
  172MOL0     C22588   6.024   0.863   3.105 -0.2866  0.4576 -0.0204
  172MOL0     N22589   6.138   0.771   3.073  0.5807 -0.0029 -0.4647
  172MOL0     C22590   6.216   0.702   3.160  0.1786  0.4092  0.0932
  172MOL0     C22591   6.314   0.653   3.078 -0.3582  0.7560  0.7279
  172MOL0     C22592   6.436   0.570   3.108 -0.3652  0.4880 -0.3975
  172MOL0     C22593   6.531   0.631   3.210  0.1576 -0.3793  0.7519
  172MOL0     C22594   6.590   0.763   3.156 -0.5597 -0.4293 -0.3294
  172MOL0     C22595   6.646   0.834   3.277 -0.3155 -0.0999 -0.5019
  172MOL0     O22596   6.753   0.776   3.351 -0.2990 -0.5890 -0.2784
  172MOL0     C22597   6.879   0.753   3.291 -0.0924 -0.1485  1.3748
  172MOL0     C22598   6.931   0.811   3.170  0.0617 -1.0058 -0.0750
  172MOL0     C22599   7.059   0.790   3.124 -0.0495 -1.0940  0.2658
  172MOL0     C22600   7.142   0.702   3.192  0.1356  0.6716  0.6581
  172MOL0     C22601   7.272   0.664   3.143 -0.6786  0.3483  0.5002
  172MOL0     O22602   7.333   0.560   3.202  0.7660  0.0193 -0.0279
  172MOL0     C22603   7.470   0.539   3.180 -0.2575 -0.9748 -0.6946
  172MOL0     C22604   7.519   0.477   3.062  0.0462  0.2592 -0.5509
  172MOL0     C22605   7.651   0.470   3.035 -1.0206 -0.4566 -0.8869
  172MOL0     C22606   7.753   0.512   3.128  0.2172  0.7210 -0.5064
  172MOL0     O22607   7.878   0.506   3.087 -0.3604  0.0384 -0.0102
  172MOL0     C22608   7.950   0.630   3.091 -0.2598  0.5731 -0.8747
  172MOL0     C22609   8.084   0.607   3.147  0.0752 -0.6183  0.0253
  172MOL0     C22610   8.086   0.607   3.299  0.0199 -0.1695  0.7656
  172MOL0     C22611   8.226   0.590   3.361  0.0654 -0.2540 -0.6389
  172MOL0     C22612   8.219   0.546   3.509  0.2232  0.0729  0.3542
  172MOL0     C22613   8.344   0.552   3.593 -0.0400 -0.7514 -0.3977
  172MOL0     C22614   8.466   0.474   3.538  0.0409  0.0340 -0.1188
  172MOL0     C22615   8.587   0.476   3.631  0.1601 -0.2244 -0.7103
  172MOL0    Cl22616   8.723   0.413   3.541  0.3490 -0.3250 -0.8871
  172MOL0     C22617   7.707   0.559   3.251  0.5545  0.9281 -0.9007
  172MOL0     C22618   7.570   0.580   3.275 -0.3894  1.0937 -0.4194
  172MOL0     O22619   7.323   0.730   3.053 -0.2041 -0.0107  0.2638
  172MOL0     C22620   7.093   0.630   3.308 -0.8421 -0.4319 -0.9968
  172MOL0     C22621   6.960   0.665   3.354 -1.0586  0.7668 -0.2092
  172MOL0     N22622   6.289   0.684   2.940 -0.7428  0.5352  0.3497
  172MOL0     N22623   6.180   0.760   2.944 -0.2607  0.9955 -0.0500
  172MOL0     C22624   6.918   1.536   3.323  0.4813  0.3312 -0.4130
  172MOL0     C22625   7.034   1.536   3.396 -0.1350 -0.5545 -0.3480
  172MOL0     C22626   7.395   1.436   3.656 -0.0080 -1.0276  0.7520
  172MOL0     C22627   7.474   1.509   3.744  0.3170  0.5458  0.7679
  172MOL0     C22628   7.575   1.447   3.813  1.2904 -0.5915 -0.0833
  172MOL0     C22629   7.609   1.320   3.791  0.1234 -0.1101 -0.1316
  172MOL0     O22630   7.723   1.281   3.853  0.3997 -0.2420 -0.2419
  172MOL0     C22631   7.809   1.176   3.801 -0.8763 -0.0688  0.3691
  172MOL0     C22632   7.941   1.192   3.876 -0.1185 -0.8200 -0.6959
  172MOL0     C22633   8.011   1.325   3.858 -0.4243 -0.2392 -0.1763
  172MOL0     C22634   8.127   1.327   3.758 -0.8221  0.8404  0.9488
  172MOL0     C22635   8.252   1.268   3.806 -0.2679  0.5888  0.3629
  172MOL0     C22636   8.358   1.220   3.856 -0.2899  0.1838  0.6886
  172MOL0     C22637   7.536   1.239   3.698 -0.2457 -0.2800 -0.4864
  172MOL0     C22638   7.434   1.302   3.628 -0.5340 -0.3350  0.3683
  172MOL0     H22639   7.052   1.206   3.468  0.0114  0.2344  0.7347
  172MOL0     H22640   6.824   1.214   3.351  1.0941 -1.4759  0.6270
  172MOL0     H22641   6.564   1.408   3.374 -1.3130  1.5654 -0.7660
  172MOL0     H22642   6.633   1.260   3.301  0.9896 -0.2796 -0.6577
  172MOL0     H22643   6.538   1.316   3.097 -0.7543 -0.8215 -0.7239
  172MOL0     H22644   6.471   1.480   3.146 -0.4067 -0.5987 -0.2533
  172MOL0     H22645   6.318   1.371   3.308 -2.5165 -3.8220  2.5304
  172MOL0     H22646   6.374   1.213   3.267  1.0246  0.2541  2.0925
  172MOL0     H22647   6.229   1.411   3.105 -2.7625 -0.6816 -2.4624
  172MOL0     H22648   6.306   1.277   3.018 -1.7580  1.8366 -1.2524
  172MOL0     H22649   6.060   1.260   3.092 -2.5441 -2.3399  2.9788
  172MOL0     H22650   6.123   1.230   3.247  0.5173  0.9892  0.0942
  172MOL0     H22651   6.200   1.039   3.204 -1.5905 -0.4697  0.3404
  172MOL0     H22652   6.238   1.052   3.030  0.8420  2.5577  0.8542
  172MOL0     H22653   5.949   1.044   3.119  0.2755 -1.0309  0.6229
  172MOL0     H22654   6.011   1.022   2.961  0.7018 -0.5979 -0.0822
  172MOL0     H22655   5.934   0.828   3.053 -0.3261  0.3268  0.1364
  172MOL0     H22656   6.002   0.851   3.211  2.5899  2.0948  0.8519
  172MOL0     H22657   6.202   0.695   3.268 -0.5497 -2.0602 -0.1091
  172MOL0     H22658   6.490   0.540   3.018 -1.4472 -2.1931 -0.2405
  172MOL0     H22659   6.411   0.471   3.147  0.6926  1.2198  2.3760
  172MOL0     H22660   6.615   0.566   3.235  0.3549 -0.5815 -0.4054
  172MOL0     H22661   6.475   0.646   3.303  0.1031  0.1463  0.6332
  172MOL0     H22662   6.675   0.740   3.091  0.4877  0.9395  0.4838
  172MOL0     H22663   6.518   0.834   3.114  0.5305  0.0025 -1.5140
  172MOL0     H22664   6.559   0.845   3.343  0.7833 -1.3568  1.2290
  172MOL0     H22665   6.674   0.937   3.252  1.9135 -0.4116  0.4580
  172MOL0     H22666   6.861   0.875   3.116  1.3076  0.7339  0.2576
  172MOL0     H22667   7.099   0.838   3.035  1.7032 -0.6568  1.2501
  172MOL0     H22668   7.445   0.440   2.991 -0.3275 -0.6283  0.2724
  172MOL0     H22669   7.686   0.442   2.936  2.2977 -0.3340  0.1373
  172MOL0     H22670   7.911   0.702   3.163  0.2643 -0.7878  0.8479
  172MOL0     H22671   7.952   0.667   2.988 -0.7627  0.8047 -0.8031
  172MOL0     H22672   8.144   0.696   3.122  1.4984 -0.9576  1.9706
  172MOL0     H22673   8.143   0.531   3.096  0.1262 -0.5154 -0.0723
  172MOL0     H22674   8.032   0.517   3.330 -2.5178  0.8324 -0.4973
  172MOL0     H22675   8.046   0.705   3.328 -0.1045  0.5752 -1.7486
  172MOL0     H22676   8.274   0.512   3.301 -1.6978 -0.9967 -1.1290
  172MOL0     H22677   8.290   0.677   3.342 -0.1256 -0.5495 -2.7903
  172MOL0     H22678   8.176   0.446   3.517  2.7556 -1.4011 -2.6787
  172MOL0     H22679   8.151   0.616   3.559 -2.6346 -0.0137 -3.0502
  172MOL0     H22680   8.323   0.532   3.699 -2.7857  0.5690 -0.5990
  172MOL0     H22681   8.367   0.659   3.584 -1.0112 -0.5190 -0.2621
  172MOL0     H22682   8.444   0.369   3.514  2.3589 -0.0426 -2.2237
  172MOL0     H22683   8.507   0.522   3.449 -0.2747  0.7513  0.1152
  172MOL0     H22684   8.565   0.411   3.716 -0.0773 -0.2611 -0.7986
  172MOL0     H22685   8.596   0.578   3.669 -4.4125 -0.4521  1.7207
  172MOL0     H22686   7.778   0.575   3.332  2.1376 -2.5089 -1.4269
  172MOL0     H22687   7.540   0.625   3.368  0.8072 -2.1278  1.7239
  172MOL0     H22688   7.155   0.558   3.360 -1.6634 -0.9021 -0.6531
  172MOL0     H22689   6.926   0.624   3.449 -1.5810 -2.2006 -1.5763
  172MOL0     H22690   6.879   1.627   3.279 -3.2693 -0.3525  1.1852
  172MOL0     H22691   7.090   1.629   3.406 -1.9554  0.5849 -0.2246
  172MOL0     H22692   7.450   1.615   3.746  1.0345  0.7145  3.1611
  172MOL0     H22693   7.635   1.511   3.877  0.6447 -0.6067  0.5614
  172MOL0     H22694   7.828   1.179   3.693  1.3469  0.7787  0.7453
  172MOL0     H22695   7.761   1.082   3.831 -2.6700  0.5776 -0.3442
  172MOL0     H22696   7.923   1.182   3.983  1.7417 -0.4472 -0.3268
  172MOL0     H22697   8.008   1.109   3.849  0.1513 -1.0002  0.4672
  172MOL0     H22698   8.046   1.348   3.959 -0.2890 -1.1119 -0.0218
  172MOL0     H22699   7.935   1.395   3.823 -0.3238  0.8335  1.6121
  172MOL0     H22700   8.107   1.278   3.662 -0.0498  0.5578  0.9181
  172MOL0     H22701   8.153   1.431   3.738  0.3154  0.1758 -1.4539
  172MOL0     H22702   8.454   1.187   3.890 -0.0967  1.1379  1.1174
  172MOL0     H22703   7.572   1.143   3.662  2.3523 -0.6583  2.6221
  172MOL0     H22704   7.385   1.244   3.551  2.0989 -2.1728 -0.0678
  173MOL0     O22705   3.493   1.874   1.757 -0.3666  0.3164 -0.2830
  173MOL0     C22706   3.563   1.861   1.859  0.0094  0.1226 -0.2209
  173MOL0     O22707   3.521   1.867   1.988  0.7477 -0.2145 -0.5401
  173MOL0     C22708   3.397   1.904   2.032  0.7353  0.5590 -0.1146
  173MOL0     C22709   3.376   1.907   2.166 -0.6319  0.0512 -0.7691
  173MOL0     C22710   3.252   1.926   2.229 -0.0297  0.1127  0.7375
  173MOL0     C22711   3.141   1.952   2.151 -0.1063  0.2393 -0.5624
  173MOL0     O22712   3.029   1.985   2.224 -0.6987  0.2102  0.2675
  173MOL0     C22713   2.914   2.044   2.159 -0.5199 -0.1349  0.2342
  173MOL0     C22714   2.822   2.103   2.266  0.2878 -0.6606  0.0677
  173MOL0     C22715   2.730   2.007   2.340  1.0153  0.1833  0.3134
  173MOL0     C22716   2.616   1.975   2.239  0.0582 -0.0760  0.3728
  173MOL0     C22717   2.495   1.883   2.290  0.1606  0.3959 -0.9637
  173MOL0     C22718   2.538   1.736   2.317  0.0196  0.5560  0.8302
  173MOL0     C22719   2.424   1.640   2.312 -0.8600 -0.3604  0.9138
  173MOL0     C22720   2.328   1.653   2.436 -0.5125 -0.0871  0.8054
  173MOL0     N22721   2.198   1.584   2.424  0.0343  0.3595  0.3116
  173MOL0     C22722   2.082   1.641   2.374  0.9274  0.3385  0.3787
  173MOL0     C22723   1.979   1.580   2.444  0.2647 -0.0571  0.2621
  173MOL0     C22724   1.834   1.622   2.443  1.1908 -0.2718  0.1949
  173MOL0     C22725   1.801   1.719   2.559  0.0541  0.8663 -0.6154
  173MOL0     C22726   1.655   1.770   2.540  0.1069 -0.3105  0.8276
  173MOL0     C22727   1.610   1.865   2.645  0.0406  0.5179  0.7024
  173MOL0     O22728   1.623   1.798   2.777  0.9683  0.0331 -0.5452
  173MOL0     C22729   1.497   1.753   2.823 -0.4187  0.6595 -0.7140
  173MOL0     C22730   1.397   1.686   2.756 -0.3706  0.7368  0.0751
  173MOL0     C22731   1.280   1.646   2.818 -0.7171  0.4495  0.3228
  173MOL0     C22732   1.253   1.683   2.952  0.9223 -0.1569  0.1701
  173MOL0     C22733   1.116   1.671   3.015 -0.8046 -0.7391 -0.0660
  173MOL0     O22734   1.013   1.618   2.937  0.2022 -0.0144  0.2091
  173MOL0     C22735   0.891   1.606   2.990 -0.1185  0.0832 -0.5348
  173MOL0     C22736   0.789   1.690   2.941 -0.0873  0.0609 -0.8628
  173MOL0     C22737   0.656   1.663   2.981 -0.1585 -0.3216 -0.2250
  173MOL0     C22738   0.625   1.560   3.062 -0.1243  0.0335 -0.5536
  173MOL0     O22739   0.495   1.543   3.087 -0.0655 -0.3945 -0.3740
  173MOL0     C22740   0.435   1.452   2.986 -0.2059 -0.2228 -0.6674
  173MOL0     C22741   0.285   1.438   3.016 -0.3028  0.1092  0.0651
  173MOL0     C22742   0.198   1.380   2.899 -0.3327 -0.6723  0.4927
  173MOL0     C22743   0.064   1.336   2.957  0.2427  0.1036  0.3228
  173MOL0     C22744  -0.027   1.272   2.849  1.1267  0.2276 -0.1725
  173MOL0     C22745  -0.086   1.377   2.748 -0.1016  0.2555  0.2115
  173MOL0     C22746  -0.204   1.320   2.670  1.2326  0.2561  0.6110
  173MOL0     C22747  -0.319   1.419   2.642 -0.5533 -0.0245 -0.3777
  173MOL0    Cl22748  -0.391   1.475   2.796  0.4018 -0.0756  0.5709
  173MOL0     C22749   0.721   1.477   3.109 -0.6019  0.3639 -1.0319
  173MOL0     C22750   0.859   1.501   3.074 -0.2645 -0.0550  0.2658
  173MOL0     O22751   1.113   1.689   3.141 -0.0646  0.1154  0.1996
  173MOL0     C22752   1.362   1.746   3.020 -0.1077  0.2623  0.7267
  173MOL0     C22753   1.477   1.784   2.959  0.0492 -0.6688  0.0671
  173MOL0     N22754   2.034   1.480   2.524  0.1605  0.2580 -0.6672
  173MOL0     N22755   2.162   1.479   2.501  0.3530 -0.0531 -0.1636
  173MOL0     C22756   3.156   1.952   2.013  0.1671  0.6003  0.8814
  173MOL0     C22757   3.282   1.936   1.952  0.8788  0.8092  0.6694
  173MOL0     C22758   3.709   1.857   1.832  0.3339 -0.2207  0.0353
  173MOL0     C22759   3.770   1.821   1.710  0.3471 -0.8599 -0.3651
  173MOL0     C22760   3.903   1.821   1.687  0.1945  0.4605 -0.6499
  173MOL0     C22761   3.992   1.863   1.780 -0.0391 -0.0739 -0.6375
  173MOL0     O22762   4.124   1.883   1.753 -0.3528  0.6930  0.6181
  173MOL0     C22763   4.177   1.838   1.621  0.4611 -0.0512  0.4055
  173MOL0     C22764   4.330   1.866   1.595  0.5897  0.3256 -0.9996
  173MOL0     C22765   4.409   1.760   1.673  0.0901  0.7324 -0.1073
  173MOL0     C22766   4.448   1.801   1.813  0.6738  0.5700 -0.5002
  173MOL0     C22767   4.519   1.697   1.892 -0.1315 -0.2955 -0.7658
  173MOL0     C22768   4.580   1.614   1.962  0.1149  0.3441 -0.3641
  173MOL0     C22769   3.938   1.913   1.901 -0.4302  0.1526 -0.2276
  173MOL0     C22770   3.799   1.902   1.929 -0.6938 -0.4383 -1.1060
  173MOL0     H22771   3.462   1.894   2.231 -1.3995  0.3574  0.3349
  173MOL0     H22772   3.235   1.931   2.336  0.9632 -2.7166  1.1164
  173MOL0     H22773   2.864   1.966   2.102 -1.3691 -1.0969  2.2107
  173MOL0     H22774   2.940   2.120   2.084  2.3058 -1.4358 -0.2359
  173MOL0     H22775   2.757   2.175   2.215  0.2329  0.4936  1.7016
  173MOL0     H22776   2.891   2.146   2.339  2.2248 -1.1081 -1.4315
  173MOL0     H22777   2.697   2.054   2.433  2.2465  1.5509  0.0855
  173MOL0     H22778   2.786   1.917   2.367  0.7190 -0.5379 -1.3891
  173MOL0     H22779   2.579   2.075   2.212 -1.6025 -0.2121  2.0033
  173MOL0     H22780   2.656   1.930   2.148 -0.3188  0.5789 -0.1285
  173MOL0     H22781   2.418   1.871   2.214 -3.6613  0.6196  2.5221
  173MOL0     H22782   2.447   1.923   2.380 -1.8183 -1.2613 -1.2113
  173MOL0     H22783   2.588   1.736   2.414  0.5100 -1.7652  0.6385
  173MOL0     H22784   2.608   1.707   2.239 -0.7483 -0.1817  0.3951
  173MOL0     H22785   2.369   1.654   2.219  0.9265 -0.9022 -0.2735
  173MOL0     H22786   2.468   1.541   2.300 -1.3348 -0.4049 -0.5982
  173MOL0     H22787   2.301   1.757   2.456  3.2208  1.6086 -1.7908
  173MOL0     H22788   2.379   1.610   2.522  2.3475 -1.3848 -1.3518
  173MOL0     H22789   2.073   1.711   2.292 -0.6897 -3.2294 -2.8134
  173MOL0     H22790   1.769   1.534   2.439 -1.7920  1.7437  0.7203
  173MOL0     H22791   1.800   1.665   2.348 -0.9776 -1.6643  0.2747
  173MOL0     H22792   1.873   1.801   2.569  1.3879 -0.4710  1.2698
  173MOL0     H22793   1.809   1.658   2.649 -0.5665 -0.0724 -1.1753
  173MOL0     H22794   1.644   1.815   2.441 -1.9326 -0.3962  0.9800
  173MOL0     H22795   1.587   1.684   2.537 -3.8665  2.5776 -2.7235
  173MOL0     H22796   1.507   1.894   2.625 -0.6745 -1.5124  1.1804
  173MOL0     H22797   1.680   1.948   2.637  2.2995 -1.3034  0.2168
  173MOL0     H22798   1.415   1.655   2.654 -0.2913  0.3057  0.2152
  173MOL0     H22799   1.211   1.598   2.749  1.2784  0.2380 -1.6406
  173MOL0     H22800   0.819   1.769   2.873 -3.7945  0.8975 -1.7736
  173MOL0     H22801   0.569   1.715   2.943 -1.7691 -2.1381  0.7618
  173MOL0     H22802   0.476   1.351   2.997 -1.8420 -0.8937 -0.4910
  173MOL0     H22803   0.457   1.494   2.887 -1.1758  1.6449 -0.1318
  173MOL0     H22804   0.247   1.529   3.063  0.4378  0.3671  0.1636
  173MOL0     H22805   0.274   1.368   3.100 -2.9596  0.8617  0.4501
  173MOL0     H22806   0.259   1.295   2.866 -0.7334 -2.0684  3.0892
  173MOL0     H22807   0.175   1.452   2.820  0.8218 -1.6283 -0.7615
  173MOL0     H22808   0.095   1.259   3.028  1.2063 -0.7723 -0.9904
  173MOL0     H22809   0.012   1.416   3.010  0.5979 -0.3979  1.4512
  173MOL0     H22810  -0.112   1.224   2.899  2.8724 -0.5054  2.2398
  173MOL0     H22811   0.027   1.194   2.794 -1.9828 -0.4466 -2.5719
  173MOL0     H22812  -0.006   1.412   2.682 -1.0662 -0.1601 -1.2384
  173MOL0     H22813  -0.121   1.459   2.811  1.7818  0.4671  1.0438
  173MOL0     H22814  -0.170   1.293   2.569  1.2234  3.7676 -0.4619
  173MOL0     H22815  -0.251   1.240   2.727  1.9942 -1.7121 -1.3773
  173MOL0     H22816  -0.394   1.380   2.573 -1.8497  1.1832  0.2983
  173MOL0     H22817  -0.273   1.498   2.581  1.1459 -0.6246  0.0567
  173MOL0     H22818   0.707   1.396   3.180  1.7898  2.9173  2.6929
  173MOL0     H22819   0.933   1.436   3.119 -1.4348  0.6377  3.4621
  173MOL0     H22820   1.346   1.785   3.120 -2.2613  2.1289 -0.2509
  173MOL0     H22821   1.552   1.834   3.019 -0.8912  0.6803  0.1597
  173MOL0     H22822   3.072   1.961   1.944  1.2187  0.1491 -0.4950
  173MOL0     H22823   3.286   1.920   1.845 -0.2213 -0.5525  0.8114
  173MOL0     H22824   3.703   1.791   1.630 -0.0684  0.0932 -0.3883
  173MOL0     H22825   3.937   1.789   1.590  2.7344  1.8579 -0.3185
  173MOL0     H22826   4.110   1.883   1.548 -0.0951 -0.0828  0.8852
  173MOL0     H22827   4.159   1.730   1.614  0.7665 -0.1251  0.7060
  173MOL0     H22828   4.357   1.859   1.490  2.0550  0.4741 -0.6564
  173MOL0     H22829   4.350   1.971   1.619 -1.6885  0.7798 -0.8980
  173MOL0     H22830   4.502   1.742   1.618  0.1079  0.7489 -0.0826
  173MOL0     H22831   4.353   1.666   1.682 -0.6922  1.3778  3.4685
  173MOL0     H22832   4.513   1.888   1.801  1.4531  0.1261  0.3640
  173MOL0     H22833   4.358   1.829   1.869 -1.3555 -2.4669 -1.9223
  173MOL0     H22834   4.639   1.555   2.029  1.4192  0.6167 -1.2413
  173MOL0     H22835   4.007   1.952   1.975  1.5210  0.1513 -1.9506
  173MOL0     H22836   3.768   1.928   2.030  0.5848 -0.6495 -0.6404
  174MOL0     O22837   4.722   3.963   4.379 -0.0623  0.1200  0.6568
  174MOL0     C22838   4.737   3.846   4.347  0.7349 -0.1237  1.2516
  174MOL0     O22839   4.629   3.751   4.334  0.3524 -0.9585 -0.2648
  174MOL0     C22840   4.499   3.786   4.364  0.0781 -0.0247  0.1021
  174MOL0     C22841   4.402   3.696   4.322  0.2289 -0.2121  0.6312
  174MOL0     C22842   4.268   3.721   4.331  0.9659 -0.4654  1.0992
  174MOL0     C22843   4.219   3.834   4.388 -0.3773 -0.6914  0.1121
  174MOL0     O22844   4.086   3.861   4.375 -0.2872  0.2826  0.4497
  174MOL0     C22845   4.039   3.991   4.417 -1.0035 -0.2627  1.1347
  174MOL0     C22846   3.899   4.021   4.371 -0.9306 -0.2655 -0.1154
  174MOL0     C22847   3.802   3.932   4.441 -0.0395 -0.5464  0.0807
  174MOL0     C22848   3.649   3.967   4.433 -0.3986 -1.3586  0.9950
  174MOL0     C22849   3.605   3.956   4.286  0.5431  0.2931 -0.2991
  174MOL0     C22850   3.452   3.998   4.273  0.1068  0.4926  0.6895
  174MOL0     C22851   3.396   3.954   4.130 -0.5200  0.1901  0.7907
  174MOL0     C22852   3.414   4.055   4.016  0.3730 -0.1685 -0.7763
  174MOL0     N22853   3.405   3.996   3.879  0.0319 -0.8376 -0.5587
  174MOL0     C22854   3.509   3.955   3.810 -0.4297 -0.0651  0.3240
  174MOL0     C22855   3.471   3.971   3.683  0.5249  0.4918  0.1466
  174MOL0     C22856   3.558   3.928   3.560 -0.0960 -0.3000 -0.0317
  174MOL0     C22857   3.699   3.989   3.571  1.3397 -0.3139  0.0886
  174MOL0     C22858   3.774   3.948   3.447  0.2997  0.2761  0.8264
  174MOL0     C22859   3.912   4.014   3.440  0.3941  0.1275  0.0975
  174MOL0     O22860   4.001   3.994   3.550  0.0854 -0.4091  0.2341
  174MOL0     C22861   4.127   4.047   3.534 -1.4971 -0.4702 -0.2841
  174MOL0     C22862   4.202   4.072   3.646 -0.2804  0.2669 -0.8497
  174MOL0     C22863   4.331   4.121   3.646 -0.2087  0.7890  0.4596
  174MOL0     C22864   4.396   4.149   3.522 -0.4944 -1.1582 -0.9886
  174MOL0     C22865   4.530   4.204   3.545 -0.1871 -0.6254  0.6226
  174MOL0     O22866   4.596   4.195   3.664 -0.0529  0.1409  0.2516
  174MOL0     C22867   4.720   4.252   3.685  0.1357 -0.4550  0.0306
  174MOL0     C22868   4.771   4.372   3.642 -0.1537  0.1411 -1.3225
  174MOL0     C22869   4.896   4.416   3.684  0.2922 -0.1803  0.2030
  174MOL0     C22870   4.971   4.340   3.771  0.5695 -1.1614  0.6294
  174MOL0     O22871   5.096   4.381   3.810 -0.9541 -0.5944  0.3892
  174MOL0     C22872   5.096   4.522   3.837  0.3966 -0.0315 -0.1695
  174MOL0     C22873   5.215   4.555   3.931 -0.5082 -0.3076  0.1140
  174MOL0     C22874   5.356   4.515   3.880 -0.9736 -0.4718  0.2146
  174MOL0     C22875   5.462   4.573   3.976  0.0592 -0.4252  0.1691
  174MOL0     C22876   5.601   4.521   3.949 -0.0754  0.5107  0.4331
  174MOL0     C22877   5.705   4.546   4.054  0.3536 -0.3242 -0.5337
  174MOL0     C22878   5.836   4.502   3.989  0.2996  0.0984 -0.0614
  174MOL0     C22879   5.892   4.599   3.884  0.3523 -0.7828  0.4941
  174MOL0    Cl22880   6.038   4.688   3.962 -0.2010 -0.3218  0.5080
  174MOL0     C22881   4.931   4.224   3.816  0.0019 -0.5501  0.3357
  174MOL0     C22882   4.802   4.183   3.776 -1.2190  0.4481  0.1478
  174MOL0     O22883   4.575   4.255   3.443  0.8429  0.3274  0.2848
  174MOL0     C22884   4.323   4.133   3.402  0.1466  0.3559 -0.4283
  174MOL0     C22885   4.194   4.087   3.412 -0.2630  1.2518 -0.0048
  174MOL0     N22886   3.339   4.013   3.683 -0.5465  0.8099 -0.2221
  174MOL0     N22887   3.294   4.013   3.803 -0.3953 -0.3661  0.2293
  174MOL0     C22888   4.309   3.921   4.446 -0.6147  0.1253 -0.1868
  174MOL0     C22889   4.445   3.902   4.427 -0.0395  0.5438  0.6514
  174MOL0     C22890   4.871   3.798   4.308 -0.5290  0.3603  0.3002
  174MOL0     C22891   4.980   3.879   4.305  0.0656 -0.3674  0.1964
  174MOL0     C22892   5.107   3.839   4.258  0.1014 -0.1521 -0.6917
  174MOL0     C22893   5.122   3.721   4.195 -0.3957  0.0203  0.3281
  174MOL0     O22894   5.243   3.684   4.138  0.3332 -0.0126 -0.2446
  174MOL0     C22895   5.365   3.737   4.181 -0.3789 -0.1467 -0.3331
  174MOL0     C22896   5.494   3.659   4.135 -0.4946 -0.1220  0.2602
  174MOL0     C22897   5.617   3.736   4.190 -1.0174  0.6447 -0.1338
  174MOL0     C22898   5.732   3.701   4.096  0.5802 -0.0564 -0.5991
  174MOL0     C22899   5.855   3.763   4.134 -0.5792 -0.0627  0.4615
  174MOL0     C22900   5.965   3.809   4.160  0.4971  0.7326  0.8849
  174MOL0     C22901   5.008   3.633   4.190  0.1150  0.5292 -1.0832
  174MOL0     C22902   4.888   3.672   4.251  0.1701 -0.2606 -0.1947
  174MOL0     H22903   4.425   3.614   4.255  0.8389  0.8576 -0.4986
  174MOL0     H22904   4.195   3.655   4.284  0.4477 -0.0347  1.2830
  174MOL0     H22905   4.107   4.068   4.380  1.1900 -1.3997  2.5865
  174MOL0     H22906   4.041   4.006   4.526 -0.4964  0.6864  1.0079
  174MOL0     H22907   3.887   4.004   4.263  1.1111  0.4272 -0.4946
  174MOL0     H22908   3.878   4.125   4.395 -1.2816 -0.3043 -0.2468
  174MOL0     H22909   3.830   3.942   4.546  1.4093  0.2778 -0.3527
  174MOL0     H22910   3.815   3.830   4.403 -2.7290 -1.9334  2.4789
  174MOL0     H22911   3.586   3.900   4.492 -1.8284 -2.0194 -1.1542
  174MOL0     H22912   3.637   4.066   4.478  2.2287 -0.5285  0.0830
  174MOL0     H22913   3.611   3.850   4.259 -1.1441  0.1694 -0.2601
  174MOL0     H22914   3.667   4.006   4.211  3.5425  0.7982  2.2850
  174MOL0     H22915   3.439   4.105   4.293 -1.7709  0.2806  0.8472
  174MOL0     H22916   3.405   3.943   4.355  0.3143 -0.8792 -0.0963
  174MOL0     H22917   3.456   3.870   4.093 -0.7473 -0.0923  1.0578
  174MOL0     H22918   3.296   3.910   4.140  0.2028 -1.7245  0.1758
  174MOL0     H22919   3.511   4.099   4.041 -0.5597 -0.5151  4.5352
  174MOL0     H22920   3.339   4.135   4.015  0.2885 -0.1666  1.2402
  174MOL0     H22921   3.604   3.913   3.841  0.9717 -1.0107 -4.4891
  174MOL0     H22922   3.508   3.955   3.467  0.8168  0.9427 -0.1854
  174MOL0     H22923   3.558   3.819   3.561  0.5354 -0.3076  0.6547
  174MOL0     H22924   3.750   3.951   3.660 -0.2314  0.1391  1.2344
  174MOL0     H22925   3.685   4.097   3.580 -1.9584 -0.7937  2.8588
  174MOL0     H22926   3.786   3.840   3.437  4.8397  0.8219 -3.4900
  174MOL0     H22927   3.719   3.996   3.365  2.9889  1.0654 -0.6350
  174MOL0     H22928   3.908   4.123   3.435  2.2663  0.1897 -0.6094
  174MOL0     H22929   3.962   3.980   3.349 -1.6555  1.1916 -1.5167
  174MOL0     H22930   4.166   4.036   3.742 -2.3463  0.0346 -1.6653
  174MOL0     H22931   4.379   4.135   3.742 -0.9001  1.1214  0.7693
  174MOL0     H22932   4.715   4.435   3.574 -1.2398 -1.3140 -1.8285
  174MOL0     H22933   4.940   4.503   3.635  0.4049  1.0661  2.3943
  174MOL0     H22934   5.003   4.543   3.891 -0.6802 -3.4968 -0.4121
  174MOL0     H22935   5.106   4.577   3.743  2.2841 -1.9457 -1.1690
  174MOL0     H22936   5.199   4.505   4.027  1.9501 -1.2753  0.0734
  174MOL0     H22937   5.214   4.664   3.941 -4.1851  0.0261 -1.7738
  174MOL0     H22938   5.373   4.556   3.780 -2.6504 -2.2900 -0.9204
  174MOL0     H22939   5.349   4.406   3.869 -4.3529 -0.5974  2.2366
  174MOL0     H22940   5.455   4.682   3.967 -0.4065 -0.5603 -1.2998
  174MOL0     H22941   5.428   4.548   4.078  1.1700  2.6735  1.4331
  174MOL0     H22942   5.636   4.560   3.853 -1.2914 -0.6035 -0.5153
  174MOL0     H22943   5.584   4.413   3.938  0.2188  0.6481 -1.9642
  174MOL0     H22944   5.690   4.484   4.142 -0.4887 -0.8231 -1.0162
  174MOL0     H22945   5.710   4.653   4.077 -0.6171  0.0484 -1.9074
  174MOL0     H22946   5.916   4.489   4.063  0.2846  0.1228 -0.0409
  174MOL0     H22947   5.820   4.402   3.947  0.2910 -0.0249  0.2311
  174MOL0     H22948   5.819   4.672   3.851 -0.9290 -2.1237  0.2751
  174MOL0     H22949   5.936   4.546   3.799  2.4241  4.6022 -2.2443
  174MOL0     H22950   4.995   4.173   3.887 -1.8795 -0.6783  2.0538
  174MOL0     H22951   4.770   4.084   3.810  1.5964 -0.6353 -0.0888
  174MOL0     H22952   4.368   4.159   3.307 -0.5765  0.9039 -0.6297
  174MOL0     H22953   4.136   4.080   3.320 -0.0898 -1.1346  0.0235
  174MOL0     H22954   4.272   4.008   4.499 -0.9845 -1.8088  2.9554
  174MOL0     H22955   4.516   3.977   4.460  1.7900  0.4435 -2.6335
  174MOL0     H22956   4.969   3.980   4.343  0.8592 -1.2029  2.9302
  174MOL0     H22957   5.181   3.918   4.261 -1.7825  1.7712  3.8982
  174MOL0     H22958   5.373   3.749   4.289 -0.3864  1.1231 -0.4565
  174MOL0     H22959   5.377   3.839   4.143 -0.4718  0.4804  1.2463
  174MOL0     H22960   5.486   3.566   4.191 -0.3001  0.7671  1.8093
  174MOL0     H22961   5.496   3.651   4.025 -0.3862  3.1573 -0.0869
  174MOL0     H22962   5.637   3.704   4.293  0.1975 -2.4451 -1.2134
  174MOL0     H22963   5.607   3.844   4.204 -0.5441  0.3377  3.7626
  174MOL0     H22964   5.753   3.593   4.095  0.1703 -0.1750  0.8024
  174MOL0     H22965   5.699   3.738   3.999 -1.7352 -0.5956 -0.0875
  174MOL0     H22966   6.060   3.838   4.199  0.5137  0.5733  0.9613
  174MOL0     H22967   5.008   3.542   4.131 -0.4889 -0.8358  0.8927
  174MOL0     H22968   4.809   3.597   4.245 -0.3194  0.3090 -1.1397
  175MOL0     O22969   0.365   2.628   8.796 -0.7921 -0.1209  0.1892
  175MOL0     C22970   0.422   2.608   8.903 -0.2784 -0.5587 -0.3482
  175MOL0     O22971   0.362   2.541   9.019 -0.6106  0.1694  0.4610
  175MOL0     C22972   0.223   2.515   9.025 -0.7836 -0.4405 -0.1018
  175MOL0     C22973   0.190   2.411   9.109  0.3376  0.0688  0.0468
  175MOL0     C22974   0.059   2.356   9.102 -0.2674 -0.7363 -0.1369
  175MOL0     C22975  -0.043   2.434   9.032 -0.0805  0.3130  0.7375
  175MOL0     O22976  -0.169   2.386   9.042  0.7482  0.6351  0.1879
  175MOL0     C22977  -0.225   2.356   9.169  0.0254  0.6377  0.7730
  175MOL0     C22978  -0.359   2.304   9.147  1.0983  0.0746  0.8790
  175MOL0     C22979  -0.416   2.257   9.280  0.2514  0.6369  0.6669
  175MOL0     C22980  -0.555   2.201   9.263 -0.1832  0.3176  0.1738
  175MOL0     C22981  -0.580   2.085   9.175  0.3298  0.1217 -1.3550
  175MOL0     C22982  -0.722   2.043   9.173  0.5975  0.2879  0.2600
  175MOL0     C22983  -0.739   1.906   9.106  0.5400  1.2083  0.2153
  175MOL0     C22984  -0.883   1.854   9.103  0.4816 -0.4619  0.1650
  175MOL0     N22985  -0.972   1.943   9.028  0.1052 -0.3328  0.7814
  175MOL0     C22986  -0.987   1.941   8.885  0.6149 -0.4909 -0.9592
  175MOL0     C22987  -1.085   2.033   8.857 -0.7688 -0.4253  0.2519
  175MOL0     C22988  -1.137   2.072   8.713 -1.3393  0.4738 -0.1548
  175MOL0     C22989  -1.239   1.978   8.658 -0.2173  0.2394  0.9921
  175MOL0     C22990  -1.267   2.007   8.506 -0.0002  0.1584 -0.5111
  175MOL0     C22991  -1.391   1.939   8.442  0.5934 -0.5817  0.2151
  175MOL0     O22992  -1.515   1.972   8.507 -0.7544  0.2779 -0.7803
  175MOL0     C22993  -1.624   1.909   8.462  0.1078  1.0523 -0.2022
  175MOL0     C22994  -1.634   1.802   8.371 -1.6656 -0.0497  0.1425
  175MOL0     C22995  -1.759   1.741   8.347  0.3575  0.3751 -0.1609
  175MOL0     C22996  -1.875   1.783   8.404  0.5721  0.0686 -0.3036
  175MOL0     C22997  -2.010   1.735   8.374  0.4565  0.8561 -0.4519
  175MOL0     O22998  -2.109   1.788   8.448 -0.3449  0.1262 -0.0119
  175MOL0     C22999  -2.244   1.745   8.423 -0.3327  0.0610  0.6285
  175MOL0     C23000  -2.303   1.614   8.393  0.4707 -0.1311 -0.3473
  175MOL0     C23001  -2.443   1.595   8.375 -0.0814  0.5002  1.4325
  175MOL0     C23002  -2.536   1.691   8.404  0.3430 -0.3025  0.6386
  175MOL0     O23003  -2.666   1.657   8.383  0.5542 -0.2006  0.1485
  175MOL0     C23004  -2.762   1.759   8.387 -0.0599  0.2503 -0.1836
  175MOL0     C23005  -2.808   1.788   8.532  0.4080 -0.0210  0.6362
  175MOL0     C23006  -2.919   1.702   8.585  0.1138  0.1983 -0.4244
  175MOL0     C23007  -2.953   1.742   8.726  0.1405 -0.2485 -0.7945
  175MOL0     C23008  -2.996   1.615   8.802 -0.4647  0.0256 -0.7977
  175MOL0     C23009  -3.049   1.648   8.939  0.5268  0.2912  0.3068
  175MOL0     C23010  -3.198   1.681   8.930  0.0122 -0.7414 -0.3644
  175MOL0     C23011  -3.265   1.681   9.065 -0.5457  0.4833  0.2684
  175MOL0    Cl23012  -3.270   1.511   9.116  0.4746 -0.0854  0.5483
  175MOL0     C23013  -2.479   1.810   8.447  0.4549 -0.1114 -0.3172
  175MOL0     C23014  -2.341   1.842   8.458 -0.1976  0.0336 -0.3365
  175MOL0     O23015  -2.021   1.641   8.288  0.9569  0.3434  0.2559
  175MOL0     C23016  -1.865   1.897   8.491 -0.3519 -0.4145 -0.1750
  175MOL0     C23017  -1.738   1.952   8.527 -0.3393  0.5847  0.4690
  175MOL0     N23018  -1.133   2.077   8.976 -0.0661 -0.0689 -0.7524
  175MOL0     N23019  -1.070   2.026   9.072  0.1906 -0.7245 -0.1637
  175MOL0     C23020  -0.010   2.536   8.944  0.3182 -0.5394  0.1752
  175MOL0     C23021   0.124   2.580   8.949 -0.2147 -0.6688 -0.8265
  175MOL0     C23022   0.572   2.638   8.901 -0.0096 -0.3754 -1.0411
  175MOL0     C23023   0.623   2.746   8.826  0.2311 -0.2431 -0.3127
  175MOL0     C23024   0.755   2.789   8.823  0.3676 -0.5791  0.6196
  175MOL0     C23025   0.844   2.718   8.907  0.8026 -0.1594  0.4349
  175MOL0     O23026   0.978   2.754   8.922  0.0496 -0.1852 -0.2488
  175MOL0     C23027   1.048   2.805   8.807 -1.3955 -0.5832 -0.6797
  175MOL0     C23028   1.195   2.792   8.832  0.0677 -0.1430  0.2605
  175MOL0     C23029   1.244   2.648   8.813 -0.0969  0.2882 -0.2317
  175MOL0     C23030   1.316   2.603   8.949 -0.0524 -0.7146 -0.0398
  175MOL0     C23031   1.459   2.587   8.920  0.0059  0.6217 -0.2014
  175MOL0     C23032   1.574   2.573   8.901 -0.4317 -0.7029 -0.1289
  175MOL0     C23033   0.797   2.616   8.996 -0.1484 -1.0608 -0.3177
  175MOL0     C23034   0.665   2.574   8.993 -0.2020 -0.8007 -0.6065
  175MOL0     H23035   0.265   2.354   9.163  2.4540 -0.2099 -2.9460
  175MOL0     H23036   0.033   2.258   9.141  3.8120 -1.9495 -0.1067
  175MOL0     H23037  -0.232   2.450   9.225 -1.2430  2.1658 -1.7971
  175MOL0     H23038  -0.174   2.274   9.221  2.0149 -0.1740 -2.2514
  175MOL0     H23039  -0.346   2.219   9.081  0.1406 -0.1827  1.0003
  175MOL0     H23040  -0.424   2.381   9.105  0.7897  1.0913  3.0403
  175MOL0     H23041  -0.436   2.348   9.337  1.0037  3.2034 -2.7731
  175MOL0     H23042  -0.349   2.189   9.332 -0.4769  0.4055  1.3201
  175MOL0     H23043  -0.582   2.157   9.359  0.4537 -1.4834 -0.4250
  175MOL0     H23044  -0.620   2.281   9.227  1.4233  0.2070 -3.5010
  175MOL0     H23045  -0.513   2.004   9.207  0.1019 -0.2786 -1.8657
  175MOL0     H23046  -0.536   2.106   9.077  1.1885  2.8101 -0.4873
  175MOL0     H23047  -0.767   2.122   9.112 -1.4830 -0.3716  0.8688
  175MOL0     H23048  -0.770   2.028   9.270 -0.5184 -0.1511 -0.3473
  175MOL0     H23049  -0.695   1.898   9.006  4.2555 -1.8279  1.8568
  175MOL0     H23050  -0.675   1.842   9.166  0.4804  1.0379  0.0965
  175MOL0     H23051  -0.912   1.827   9.205  1.8202  0.7678  0.8919
  175MOL0     H23052  -0.875   1.759   9.049 -0.7733 -1.0068  0.8941
  175MOL0     H23053  -0.932   1.871   8.822  2.5727 -0.9804  1.1689
  175MOL0     H23054  -1.051   2.075   8.646 -0.0064  1.3023  1.5147
  175MOL0     H23055  -1.187   2.167   8.734 -2.4333 -0.4445  1.7244
  175MOL0     H23056  -1.336   1.983   8.707 -0.1870  1.0040  0.9729
  175MOL0     H23057  -1.199   1.876   8.659 -0.4726  0.1071  3.2886
  175MOL0     H23058  -1.294   2.113   8.507 -0.0988  0.1412 -1.0378
  175MOL0     H23059  -1.179   1.991   8.442 -0.7256 -0.2426 -1.4380
  175MOL0     H23060  -1.384   1.833   8.466 -2.2563 -0.9252 -0.1092
  175MOL0     H23061  -1.401   1.955   8.334 -0.8108  0.2986  0.4532
  175MOL0     H23062  -1.546   1.763   8.321 -2.1082  1.8415 -2.3252
  175MOL0     H23063  -1.755   1.656   8.279  1.9229  1.2517 -1.2357
  175MOL0     H23064  -2.240   1.526   8.386  0.2884 -0.3850  0.9214
  175MOL0     H23065  -2.478   1.498   8.342 -1.3042  1.7153 -1.0650
  175MOL0     H23066  -2.851   1.740   8.327  0.2640  0.2737 -0.6702
  175MOL0     H23067  -2.733   1.854   8.341 -1.7268  1.3104  0.8370
  175MOL0     H23068  -2.848   1.889   8.527 -1.9676 -0.9834 -1.1162
  175MOL0     H23069  -2.718   1.789   8.595  1.3873  1.6619 -0.7031
  175MOL0     H23070  -2.875   1.603   8.572  2.1581  1.1619 -1.3719
  175MOL0     H23071  -3.000   1.715   8.513  1.2782  2.6872 -1.4071
  175MOL0     H23072  -2.871   1.791   8.781 -2.9197  2.6949  1.5887
  175MOL0     H23073  -3.029   1.819   8.709 -0.3629 -0.4817  0.3202
  175MOL0     H23074  -2.912   1.545   8.801  0.5103  1.1386  0.0007
  175MOL0     H23075  -3.073   1.567   8.742  1.2324 -0.4635 -2.7056
  175MOL0     H23076  -2.986   1.724   8.986  1.9622 -0.8453  0.3007
  175MOL0     H23077  -3.041   1.554   8.995  0.2428  1.0594  1.6604
  175MOL0     H23078  -3.205   1.775   8.875  1.6490 -2.8595 -4.6387
  175MOL0     H23079  -3.244   1.595   8.881 -0.5497 -0.7329  0.1392
  175MOL0     H23080  -3.362   1.732   9.067 -0.9296 -0.2306  0.2365
  175MOL0     H23081  -3.198   1.729   9.138 -0.1347 -1.9921  1.6408
  175MOL0     H23082  -2.536   1.899   8.471 -0.5895 -0.3496 -1.7307
  175MOL0     H23083  -2.319   1.938   8.503 -0.5845  1.4050 -2.9360
  175MOL0     H23084  -1.955   1.931   8.541  0.7493  1.3915  0.6811
  175MOL0     H23085  -1.721   2.029   8.602  1.4858  1.1287 -0.4553
  175MOL0     H23086  -0.074   2.591   8.876  1.3603  0.1329 -0.2787
  175MOL0     H23087   0.145   2.666   8.886 -1.8903  0.4552  0.0779
  175MOL0     H23088   0.548   2.793   8.765  0.2944 -1.7542 -1.6295
  175MOL0     H23089   0.785   2.870   8.757 -3.8320 -0.1341 -1.0094
  175MOL0     H23090   1.032   2.913   8.795  0.2713 -0.2959 -0.5669
  175MOL0     H23091   1.031   2.751   8.714  1.9860 -0.7704 -1.3250
  175MOL0     H23092   1.240   2.864   8.763 -1.4334  2.2874  1.6666
  175MOL0     H23093   1.225   2.834   8.928  2.0840  0.1206 -0.4316
  175MOL0     H23094   1.303   2.637   8.722  0.6694  0.4717  0.2337
  175MOL0     H23095   1.161   2.580   8.791 -1.3092  1.9591 -1.0467
  175MOL0     H23096   1.288   2.667   9.033 -0.4461 -0.9127 -0.0158
  175MOL0     H23097   1.287   2.501   8.976 -2.0117  0.1829  1.5473
  175MOL0     H23098   1.680   2.564   8.903 -0.4010 -0.7595 -1.5519
  175MOL0     H23099   0.866   2.566   9.062 -2.3835 -1.3661  1.9657
  175MOL0     H23100   0.633   2.512   9.076 -0.2489  3.3722  2.8128
  176MOL0     O23101   6.902   4.024   0.676 -0.3318  0.6499 -0.6517
  176MOL0     C23102   6.909   3.909   0.713  0.2700  0.5317 -0.2140
  176MOL0     O23103   6.815   3.845   0.779 -0.4220 -0.2370  0.1945
  176MOL0     C23104   6.687   3.887   0.797  0.3881 -0.6254 -1.2307
  176MOL0     C23105   6.637   3.817   0.903  0.3835  0.6357 -0.8232
  176MOL0     C23106   6.495   3.824   0.925 -0.1353 -0.1062 -0.3567
  176MOL0     C23107   6.409   3.907   0.846 -0.2076 -0.6857  0.6191
  176MOL0     O23108   6.280   3.917   0.880  0.6193  0.2731 -0.1526
  176MOL0     C23109   6.186   3.989   0.795  0.1574  0.3508  0.1178
  176MOL0     C23110   6.057   3.987   0.868  0.4541  0.3645  0.0927
  176MOL0     C23111   5.944   4.038   0.779  0.4624 -0.5669  0.6110
  176MOL0     C23112   5.804   4.014   0.833 -0.0111  0.2276  0.0636
  176MOL0     C23113   5.702   3.975   0.726  0.0239 -0.0749  1.1072
  176MOL0     C23114   5.668   4.095   0.630 -0.4282 -0.6799 -0.7367
  176MOL0     C23115   5.558   4.065   0.538 -0.4016 -0.1876 -0.0692
  176MOL0     C23116   5.528   4.184   0.439 -0.5280  0.8601 -0.4120
  176MOL0     N23117   5.622   4.202   0.326  0.2826 -0.3237  0.5244
  176MOL0     C23118   5.759   4.229   0.344 -0.2932 -1.1160  0.4728
  176MOL0     C23119   5.813   4.226   0.219 -0.3846  0.3165 -0.5667
  176MOL0     C23120   5.952   4.266   0.167 -1.0542 -0.6565 -0.9608
  176MOL0     C23121   6.061   4.153   0.191  0.1221  0.7719  0.3878
  176MOL0     C23122   6.066   4.102   0.340  0.4205 -0.4085  0.9578
  176MOL0     C23123   6.100   4.197   0.458 -0.2715 -0.5821 -0.2818
  176MOL0     O23124   6.193   4.292   0.416  0.6022  0.4356  0.6748
  176MOL0     C23125   6.331   4.279   0.426  0.0561 -0.9083 -0.2891
  176MOL0     C23126   6.393   4.147   0.436  0.6361 -1.2941  1.0078
  176MOL0     C23127   6.536   4.144   0.434  1.2044  0.3853  0.4968
  176MOL0     C23128   6.616   4.257   0.413  0.2036  0.2844  0.5484
  176MOL0     C23129   6.764   4.246   0.392  0.3573 -0.4966  0.1209
  176MOL0     O23130   6.833   4.370   0.382  0.3585  0.6443  0.8051
  176MOL0     C23131   6.968   4.389   0.356 -0.0862  0.4963 -0.4237
  176MOL0     C23132   7.011   4.517   0.343 -0.6748 -0.7190 -0.0250
  176MOL0     C23133   7.147   4.538   0.313  0.3580 -0.3987  0.6048
  176MOL0     C23134   7.237   4.443   0.289  0.4244 -0.1576 -0.0158
  176MOL0     O23135   7.365   4.484   0.257  0.0044 -0.0951 -0.7030
  176MOL0     C23136   7.475   4.388   0.256  0.0539 -0.2392  0.1913
  176MOL0     C23137   7.599   4.456   0.206 -0.4390 -0.6462 -0.8011
  176MOL0     C23138   7.706   4.353   0.217 -0.5771 -0.8002  0.1868
  176MOL0     C23139   7.835   4.413   0.156  0.5294 -0.7923 -1.3452
  176MOL0     C23140   7.907   4.522   0.241  0.6070 -0.8138 -0.6288
  176MOL0     C23141   7.995   4.594   0.142  0.0654  0.2920 -0.7200
  176MOL0     C23142   8.111   4.662   0.206 -0.4422 -0.0347  1.3244
  176MOL0     C23143   8.222   4.688   0.109  0.4589 -0.5420  0.4673
  176MOL0    Cl23144   8.268   4.534   0.034 -0.2588  0.0748 -0.0335
  176MOL0     C23145   7.196   4.307   0.308  0.6085 -0.1097  0.1564
  176MOL0     C23146   7.064   4.281   0.336  0.0507  0.3172 -0.0522
  176MOL0     O23147   6.805   4.136   0.372 -0.0197 -0.0158  0.5271
  176MOL0     C23148   6.548   4.382   0.428  0.0909  1.0254  0.3554
  176MOL0     C23149   6.410   4.391   0.434 -1.0104 -0.5049  0.0121
  176MOL0     N23150   5.721   4.189   0.129 -0.1933  0.3279  0.1302
  176MOL0     N23151   5.609   4.174   0.194  0.2724  0.3770 -0.2822
  176MOL0     C23152   6.470   3.985   0.742 -0.4363  0.9056 -0.2938
  176MOL0     C23153   6.609   3.968   0.711  0.3176 -0.0040 -0.8914
  176MOL0     C23154   7.033   3.831   0.698  1.0240  0.5644 -0.5705
  176MOL0     C23155   7.047   3.704   0.760 -0.4492  0.0064 -0.0739
  176MOL0     C23156   7.173   3.642   0.755  0.0285  0.2622 -0.7638
  176MOL0     C23157   7.283   3.689   0.683 -0.0443  0.2443  0.2207
  176MOL0     O23158   7.408   3.640   0.675  0.3874  0.2397 -0.2365
  176MOL0     C23159   7.433   3.503   0.717  0.7683 -0.0156 -0.6940
  176MOL0     C23160   7.577   3.459   0.671 -0.7311  0.2324 -0.2877
  176MOL0     C23161   7.695   3.517   0.753  0.1998 -0.2317  0.3810
  176MOL0     C23162   7.683   3.665   0.790  1.0604  1.1222  0.1077
  176MOL0     C23163   7.801   3.709   0.869  0.0517 -0.4112  0.6795
  176MOL0     C23164   7.901   3.751   0.932 -0.0257  0.4699  0.2108
  176MOL0     C23165   7.272   3.816   0.625  0.5209 -0.8206  0.1908
  176MOL0     C23166   7.151   3.886   0.635 -0.3317 -0.2207  0.4775
  176MOL0     H23167   6.697   3.750   0.963 -2.5163 -2.5287 -1.1381
  176MOL0     H23168   6.452   3.770   1.008 -0.1949  0.0132 -0.3091
  176MOL0     H23169   6.184   3.936   0.699  0.2844 -1.7445  1.2101
  176MOL0     H23170   6.221   4.092   0.787  2.4688 -0.4244 -0.5079
  176MOL0     H23171   6.061   4.029   0.969 -1.8489  1.6943 -0.3032
  176MOL0     H23172   6.024   3.885   0.888 -0.0943  0.3643 -0.7714
  176MOL0     H23173   5.950   3.997   0.678  1.3015  0.8159  0.0725
  176MOL0     H23174   5.951   4.146   0.765 -0.2911 -0.9282 -4.1872
  176MOL0     H23175   5.809   3.929   0.902  0.5223 -0.0752 -0.3437
  176MOL0     H23176   5.758   4.092   0.895  0.7670  0.5665  0.2342
  176MOL0     H23177   5.610   3.947   0.777 -2.0215  2.0749 -1.1316
  176MOL0     H23178   5.737   3.889   0.669 -2.5140 -0.1311 -0.5383
  176MOL0     H23179   5.756   4.108   0.566 -0.5222 -0.2913 -0.7896
  176MOL0     H23180   5.656   4.185   0.690  1.9568 -0.9427  0.2492
  176MOL0     H23181   5.593   3.975   0.487  2.9616  1.4035 -0.8711
  176MOL0     H23182   5.467   4.039   0.593  0.4674 -3.6234 -0.0680
  176MOL0     H23183   5.523   4.278   0.496  2.7838 -0.2032  1.9239
  176MOL0     H23184   5.430   4.160   0.397 -0.3238 -0.6386 -0.0649
  176MOL0     H23185   5.814   4.236   0.437  4.1964 -0.4535 -1.9767
  176MOL0     H23186   5.973   4.360   0.219 -0.0707 -1.4535  0.1506
  176MOL0     H23187   5.942   4.285   0.060 -0.2921  1.7326 -0.6433
  176MOL0     H23188   6.161   4.181   0.156  0.3637 -2.7514 -2.3638
  176MOL0     H23189   6.047   4.067   0.125  3.1842 -0.9429  1.7390
  176MOL0     H23190   5.963   4.070   0.359 -0.8796  1.5382 -2.0712
  176MOL0     H23191   6.131   4.014   0.350  2.7754  1.0134 -0.9123
  176MOL0     H23192   6.143   4.139   0.541  0.1270  0.3536  0.1751
  176MOL0     H23193   6.012   4.245   0.503  0.8637 -1.4793  3.2241
  176MOL0     H23194   6.332   4.058   0.428 -1.7149  0.1120  2.1273
  176MOL0     H23195   6.569   4.041   0.446 -1.0721 -0.3316  1.2086
  176MOL0     H23196   6.945   4.601   0.359 -0.1687 -0.5470  1.2921
  176MOL0     H23197   7.177   4.643   0.313 -1.8211  0.2716  1.4366
  176MOL0     H23198   7.444   4.307   0.190 -1.5104 -0.6880  1.3990
  176MOL0     H23199   7.485   4.351   0.359 -2.2437  0.1089  0.5971
  176MOL0     H23200   7.620   4.543   0.269 -1.0154 -1.1645  0.1260
  176MOL0     H23201   7.583   4.496   0.105 -0.0730  2.0789  0.1370
  176MOL0     H23202   7.665   4.264   0.168  0.0819 -2.3100  2.2584
  176MOL0     H23203   7.726   4.327   0.321  1.2223  0.2559  0.1413
  176MOL0     H23204   7.904   4.329   0.149  1.1037 -0.1919 -4.5027
  176MOL0     H23205   7.807   4.450   0.056  0.0461  2.1425 -0.2240
  176MOL0     H23206   7.957   4.481   0.330 -0.8079  1.7627  1.5153
  176MOL0     H23207   7.833   4.586   0.290 -1.0185 -2.3806 -0.9195
  176MOL0     H23208   7.932   4.662   0.083 -2.6473 -0.3112  1.2924
  176MOL0     H23209   8.036   4.521   0.072  1.1324 -0.3027  0.4936
  176MOL0     H23210   8.083   4.755   0.256  2.2365  2.3554 -1.2071
  176MOL0     H23211   8.152   4.586   0.274 -0.5509 -2.0279 -0.7343
  176MOL0     H23212   8.303   4.735   0.166 -0.3920  1.1296  0.3854
  176MOL0     H23213   8.181   4.749   0.027 -2.3673 -0.3645  1.8639
  176MOL0     H23214   7.267   4.225   0.307  0.2909 -0.3839 -0.7206
  176MOL0     H23215   7.031   4.180   0.360 -0.9238  0.2771 -1.4275
  176MOL0     H23216   6.599   4.478   0.436  0.2826  0.8157  2.1050
  176MOL0     H23217   6.369   4.492   0.432 -1.0826 -0.5403 -1.8839
  176MOL0     H23218   6.422   4.043   0.664  2.3754 -1.4743 -4.1493
  176MOL0     H23219   6.662   4.014   0.628 -0.6255  1.3838 -0.7635
  176MOL0     H23220   6.963   3.648   0.801  0.5141 -2.4977 -1.3292
  176MOL0     H23221   7.182   3.550   0.812  3.2817 -1.0931 -3.1204
  176MOL0     H23222   7.351   3.440   0.679 -2.0712  0.9757  3.1397
  176MOL0     H23223   7.419   3.496   0.826 -2.2907 -0.9844 -1.0432
  176MOL0     H23224   7.584   3.350   0.682  1.2580  0.0540 -2.5163
  176MOL0     H23225   7.593   3.480   0.565  1.6120 -1.1741 -0.3015
  176MOL0     H23226   7.783   3.510   0.688  1.9300  2.4967  2.1972
  176MOL0     H23227   7.713   3.462   0.846 -1.0487  1.5232  1.7231
  176MOL0     H23228   7.688   3.723   0.697  2.8440  2.1372  0.7858
  176MOL0     H23229   7.592   3.675   0.850  1.2827 -1.0316  0.8929
  176MOL0     H23230   7.987   3.791   0.982  0.3689 -0.9009  0.6662
  176MOL0     H23231   7.354   3.865   0.572 -0.6115  0.4351 -0.4707
  176MOL0     H23232   7.155   3.980   0.582  2.2937 -0.6054 -0.1734
  177MOL0     O23233   5.405   5.693  10.464  0.1749 -0.3710 -0.6729
  177MOL0     C23234   5.467   5.632  10.550 -0.2836  0.7511 -0.7808
  177MOL0     O23235   5.415   5.585  10.663 -0.2171 -0.2288 -0.6582
  177MOL0     C23236   5.286   5.588  10.707 -0.1190  0.3947  0.0056
  177MOL0     C23237   5.268   5.543  10.845 -0.3884  0.1341  1.1409
  177MOL0     C23238   5.139   5.529  10.893 -0.0496 -0.1986  0.1392
  177MOL0     C23239   5.029   5.560  10.824 -0.1047  0.0464 -0.6026
  177MOL0     O23240   4.915   5.543  10.892  0.5076 -0.3542 -0.1074
  177MOL0     C23241   4.808   5.459  10.829 -0.1509 -0.4905  0.4601
  177MOL0     C23242   4.704   5.446  10.941  0.2606  0.0174  0.1046
  177MOL0     C23243   4.584   5.355  10.895  0.6752 -0.2023  0.0151
  177MOL0     C23244   4.480   5.350  11.001  0.3238  0.4922  0.4494
  177MOL0     C23245   4.350   5.280  10.960 -0.1112 -0.0174  0.4652
  177MOL0     C23246   4.249   5.270  11.077  0.3164  0.0503  0.2378
  177MOL0     C23247   4.123   5.195  11.037  1.1138  0.6668 -1.3877
  177MOL0     C23248   4.028   5.172  11.161  0.1050  0.1214  0.2609
  177MOL0     N23249   3.897   5.118  11.145  0.4872 -0.3790 -0.1413
  177MOL0     C23250   3.842   5.036  11.237  0.3786  0.7656 -0.0244
  177MOL0     C23251   3.717   5.024  11.211 -0.4966 -0.6572  1.0542
  177MOL0     C23252   3.614   4.962  11.287  0.7766  0.0068 -0.1425
  177MOL0     C23253   3.479   5.034  11.279 -0.9804 -0.8360 -0.1867
  177MOL0     C23254   3.382   4.954  11.361 -1.0210  0.4545  0.3318
  177MOL0     C23255   3.326   4.827  11.290 -0.2067  0.2021 -0.2784
  177MOL0     O23256   3.235   4.755  11.375 -0.2191  0.3166  0.0375
  177MOL0     C23257   3.124   4.687  11.323  0.8410 -0.8026 -0.0109
  177MOL0     C23258   3.027   4.641  11.411 -0.5419  0.8182  0.2208
  177MOL0     C23259   2.917   4.567  11.360  0.2837 -0.1066 -0.4772
  177MOL0     C23260   2.902   4.531  11.217  0.5084 -0.1489 -0.6823
  177MOL0     C23261   2.791   4.447  11.167  0.1782  0.3600 -0.5345
  177MOL0     O23262   2.695   4.416  11.263  0.1115  0.5292 -0.1319
  177MOL0     C23263   2.574   4.369  11.225 -0.6931 -0.5708 -0.2929
  177MOL0     C23264   2.492   4.441  11.133 -0.9941 -0.1148 -0.0488
  177MOL0     C23265   2.365   4.399  11.112 -0.8637  0.8193 -0.4194
  177MOL0     C23266   2.306   4.296  11.184 -0.0119  0.9065 -0.3118
  177MOL0     O23267   2.175   4.266  11.143 -0.1668  0.0783  0.2230
  177MOL0     C23268   2.106   4.161  11.209 -0.2937  0.3042  0.4652
  177MOL0     C23269   1.975   4.141  11.140 -0.8220  0.8175 -0.4098
  177MOL0     C23270   1.903   4.013  11.197  0.5765 -0.4395  0.5180
  177MOL0     C23271   1.766   4.008  11.140 -0.4433 -0.0734  0.8328
  177MOL0     C23272   1.666   4.094  11.222  0.7835  0.0162 -0.4402
  177MOL0     C23273   1.520   4.091  11.161 -0.1053  0.4341  0.1394
  177MOL0     C23274   1.518   4.167  11.028  0.3370  0.8584 -0.4434
  177MOL0     C23275   1.378   4.154  10.974  0.0308  0.5180 -0.2754
  177MOL0    Cl23276   1.275   4.253  11.072  0.7055 -0.0128  0.1942
  177MOL0     C23277   2.383   4.242  11.279 -0.4911 -0.0909  0.3836
  177MOL0     C23278   2.520   4.276  11.301  1.0289 -0.0579 -1.2762
  177MOL0     O23279   2.792   4.411  11.050  0.3031 -0.5442 -0.0847
  177MOL0     C23280   3.001   4.580  11.140  0.8250  0.1002  0.0585
  177MOL0     C23281   3.116   4.651  11.189 -0.5259  0.3843  0.3555
  177MOL0     N23282   3.695   5.108  11.100  0.5593  0.5804  0.0984
  177MOL0     N23283   3.805   5.165  11.053  0.3680  0.0222  0.3759
  177MOL0     C23284   5.043   5.614  10.697  1.2303 -0.2269  0.8396
  177MOL0     C23285   5.170   5.631  10.636 -0.3019 -0.7488  0.6132
  177MOL0     C23286   5.606   5.611  10.524  0.2968  0.4315  0.0482
  177MOL0     C23287   5.694   5.569  10.629  0.0862  0.9989  0.4587
  177MOL0     C23288   5.829   5.555  10.629 -1.0859 -0.3962  0.3234
  177MOL0     C23289   5.890   5.602  10.509  0.4615  0.1466 -0.2594
  177MOL0     O23290   6.023   5.598  10.494 -0.1939 -0.0046 -0.4926
  177MOL0     C23291   6.096   5.648  10.378  0.2543 -0.6853 -0.7487
  177MOL0     C23292   6.240   5.651  10.435 -0.2691  0.5751 -0.2072
  177MOL0     C23293   6.319   5.727  10.337 -0.6852 -0.0374 -0.4981
  177MOL0     C23294   6.462   5.759  10.394  0.8509  0.3138 -0.2404
  177MOL0     C23295   6.455   5.836  10.522  0.6775  0.1900 -0.3223
  177MOL0     C23296   6.440   5.908  10.618  0.4881  0.2512 -0.2092
  177MOL0     C23297   5.809   5.627  10.395  0.0919  0.3071 -0.5039
  177MOL0     C23298   5.666   5.634  10.407 -0.5138 -0.3935  0.4198
  177MOL0     H23299   5.358   5.515  10.899  0.6120  1.7252  0.3589
  177MOL0     H23300   5.127   5.483  10.990 -1.3041 -0.7543 -0.2651
  177MOL0     H23301   4.857   5.366  10.800  1.4805  0.8750 -1.4136
  177MOL0     H23302   4.763   5.507  10.742  1.2460  1.4898  0.7664
  177MOL0     H23303   4.662   5.546  10.951 -5.0303 -1.4638 -2.9680
  177MOL0     H23304   4.759   5.420  11.031  2.1441  1.7792 -0.4749
  177MOL0     H23305   4.616   5.251  10.885  0.9794 -0.1724  0.6161
  177MOL0     H23306   4.549   5.396  10.800 -1.2935  0.3224  0.9246
  177MOL0     H23307   4.519   5.293  11.085 -1.5843 -0.1914  0.9265
  177MOL0     H23308   4.464   5.453  11.034  4.2775  1.9924 -1.6562
  177MOL0     H23309   4.369   5.182  10.914  0.2905  1.3120 -2.3818
  177MOL0     H23310   4.298   5.337  10.883  1.8097 -0.1416 -0.9909
  177MOL0     H23311   4.232   5.371  11.116 -2.7705 -1.8184  4.4218
  177MOL0     H23312   4.292   5.215  11.161  0.5412 -1.7691 -1.0105
  177MOL0     H23313   4.070   5.249  10.958  0.7810 -1.0136 -2.3742
  177MOL0     H23314   4.143   5.104  10.980  2.4998 -0.1801  0.3685
  177MOL0     H23315   4.012   5.265  11.217  1.9442  2.0190 -2.1020
  177MOL0     H23316   4.082   5.092  11.212  0.1636 -1.3462 -1.9760
  177MOL0     H23317   3.893   4.990  11.321 -0.1866  0.6157  0.2457
  177MOL0     H23318   3.643   4.954  11.392  0.8270 -0.3528 -0.1817
  177MOL0     H23319   3.615   4.860  11.248  2.5757 -0.6645  1.5342
  177MOL0     H23320   3.456   5.036  11.172  1.8356 -1.8488 -0.9033
  177MOL0     H23321   3.489   5.136  11.318 -0.8612 -0.7643 -0.4006
  177MOL0     H23322   3.425   4.937  11.460 -0.8407  2.0825  0.5516
  177MOL0     H23323   3.290   5.012  11.374 -0.0644  2.2763 -0.6256
  177MOL0     H23324   3.406   4.757  11.263 -1.3675 -0.8882 -0.9620
  177MOL0     H23325   3.278   4.848  11.194  1.4402  0.8730 -1.0032
  177MOL0     H23326   3.027   4.668  11.517 -0.2665 -0.2574  0.5055
  177MOL0     H23327   2.842   4.525  11.426 -0.4862 -2.5723 -2.7538
  177MOL0     H23328   2.536   4.531  11.090  1.1063 -1.0815 -0.0558
  177MOL0     H23329   2.299   4.442  11.036 -0.1648 -0.0068 -1.5314
  177MOL0     H23330   2.083   4.171  11.316 -1.5088 -0.8131  0.3260
  177MOL0     H23331   2.158   4.066  11.193  0.3469  0.4646  1.5101
  177MOL0     H23332   1.987   4.131  11.032 -0.5571  1.0817 -0.4058
  177MOL0     H23333   1.915   4.231  11.154 -1.6068  0.2920 -0.3237
  177MOL0     H23334   1.909   4.008  11.306  1.2583 -2.0093  0.4345
  177MOL0     H23335   1.951   3.934  11.140 -1.0433  0.8765 -2.9748
  177MOL0     H23336   1.779   4.047  11.039  0.1759  0.8606  1.2611
  177MOL0     H23337   1.727   3.906  11.135 -1.9963  0.5533 -2.6064
  177MOL0     H23338   1.691   4.200  11.235 -1.6400  0.5520  0.2791
  177MOL0     H23339   1.662   4.063  11.327 -1.1454  3.1893  0.5615
  177MOL0     H23340   1.453   4.112  11.245 -1.2613 -1.0451 -0.3800
  177MOL0     H23341   1.495   3.989  11.132  2.0075  0.3308 -1.5859
  177MOL0     H23342   1.556   4.269  11.039  0.3035  0.6965  1.4185
  177MOL0     H23343   1.585   4.107  10.966 -0.5220 -0.8245  0.2024
  177MOL0     H23344   1.346   4.049  10.979 -0.4170  0.6783  3.5321
  177MOL0     H23345   1.378   4.176  10.867 -3.3650 -1.2478 -0.7775
  177MOL0     H23346   2.339   4.159  11.333  1.0286 -2.1691 -1.3920
  177MOL0     H23347   2.586   4.227  11.372 -1.6618 -0.8257  0.9221
  177MOL0     H23348   3.015   4.545  11.038  0.9318 -1.8591  0.6854
  177MOL0     H23349   3.202   4.653  11.123  0.8572 -1.9834  1.9002
  177MOL0     H23350   4.956   5.635  10.635  1.6200 -0.7813  0.0937
  177MOL0     H23351   5.159   5.677  10.539 -1.7619  0.1314  1.1653
  177MOL0     H23352   5.640   5.561  10.723 -0.3469 -1.3975  0.0700
  177MOL0     H23353   5.891   5.526  10.713 -3.0772 -1.7273  1.4226
  177MOL0     H23354   6.059   5.749  10.355 -0.1304 -0.2205  1.7062
  177MOL0     H23355   6.096   5.579  10.293  1.3548 -0.3503 -1.0349
  177MOL0     H23356   6.237   5.702  10.532 -0.2503 -0.7517  0.5136
  177MOL0     H23357   6.279   5.551  10.455 -2.8220 -0.1206  2.0192
  177MOL0     H23358   6.285   5.829  10.319  1.6924  0.7461 -0.8539
  177MOL0     H23359   6.312   5.665  10.247 -1.6169 -0.0385 -0.4354
  177MOL0     H23360   6.506   5.663  10.423 -1.9197 -0.8081  0.5785
  177MOL0     H23361   6.512   5.816  10.315  1.0975  1.4496  0.7125
  177MOL0     H23362   6.421   5.980  10.695  0.3937  1.9919 -1.7916
  177MOL0     H23363   5.856   5.654  10.301 -0.0791  0.1165 -0.6460
  177MOL0     H23364   5.601   5.672  10.329 -2.5343  0.6901  2.5250
  178MOL0     O23365   0.424   2.969   9.015 -0.6962 -0.4681  0.5323
  178MOL0     C23366   0.468   3.062   8.936  1.1644  0.3705  0.7914
  178MOL0     O23367   0.391   3.104   8.834 -0.0362 -0.9629  0.6126
  178MOL0     C23368   0.259   3.065   8.827 -0.0069 -0.0646  0.1114
  178MOL0     C23369   0.212   2.956   8.748  0.3209  0.5082 -0.7866
  178MOL0     C23370   0.078   2.910   8.751 -0.2581 -0.2311 -0.5399
  178MOL0     C23371  -0.019   2.986   8.835 -0.1760  0.1738 -0.2699
  178MOL0     O23372  -0.144   2.927   8.846  0.0123 -0.0616 -0.0757
  178MOL0     C23373  -0.255   3.004   8.907 -0.1938 -0.3156 -0.2218
  178MOL0     C23374  -0.386   2.936   8.878 -0.8750  0.6329  0.9139
  178MOL0     C23375  -0.497   3.015   8.938  0.9247  0.0101  0.1278
  178MOL0     C23376  -0.625   2.931   8.901  0.4462 -0.7392 -0.5067
  178MOL0     C23377  -0.745   3.019   8.929 -0.0435  0.7296  0.2104
  178MOL0     C23378  -0.879   2.954   8.877 -0.4276 -0.1410  0.2108
  178MOL0     C23379  -0.988   3.060   8.892  0.4751  0.4139 -0.6655
  178MOL0     C23380  -1.122   2.992   8.854 -0.2015 -0.1039 -0.4103
  178MOL0     N23381  -1.244   3.071   8.876  0.4842  0.1710 -0.1644
  178MOL0     C23382  -1.309   3.143   8.774 -1.1814  0.3868 -0.7954
  178MOL0     C23383  -1.438   3.157   8.810  0.0186 -0.8825 -0.4717
  178MOL0     C23384  -1.539   3.230   8.722  0.1022 -0.3481  0.0273
  178MOL0     C23385  -1.643   3.127   8.676 -0.3617 -0.5398 -0.6770
  178MOL0     C23386  -1.781   3.181   8.626  0.0218 -0.2385 -0.5709
  178MOL0     C23387  -1.882   3.184   8.747  0.4425 -0.1033 -0.7715
  178MOL0     O23388  -1.922   3.053   8.787  0.2485 -0.1218  0.0957
  178MOL0     C23389  -2.040   3.039   8.866 -0.2358  0.1069  0.0791
  178MOL0     C23390  -2.145   3.123   8.860  0.4140 -0.2874 -0.2314
  178MOL0     C23391  -2.265   3.092   8.927  0.1019  0.4782 -0.4301
  178MOL0     C23392  -2.268   2.980   9.023 -0.5525 -0.6907  0.8314
  178MOL0     C23393  -2.374   2.952   9.116 -0.4281  0.2645  0.5346
  178MOL0     O23394  -2.376   2.823   9.160 -1.1672  0.5779  0.3433
  178MOL0     C23395  -2.442   2.780   9.273 -0.4665 -0.4945 -0.8154
  178MOL0     C23396  -2.513   2.862   9.365 -1.0011  0.1649  0.7004
  178MOL0     C23397  -2.592   2.811   9.474  1.0184 -0.0146  0.2148
  178MOL0     C23398  -2.594   2.672   9.492 -0.4439 -0.2945 -0.2743
  178MOL0     O23399  -2.647   2.607   9.598  0.1353  0.0228  0.4116
  178MOL0     C23400  -2.760   2.664   9.665  0.3712 -0.3018 -0.2207
  178MOL0     C23401  -2.839   2.566   9.750  0.5321 -0.3206  0.1120
  178MOL0     C23402  -2.963   2.628   9.826 -0.0294 -0.2796 -1.0909
  178MOL0     C23403  -3.007   2.528   9.930  0.6070 -0.2933 -0.4640
  178MOL0     C23404  -3.108   2.614  10.020  0.1586 -0.0845  0.3601
  178MOL0     C23405  -3.167   2.532  10.135 -0.5282 -0.7688 -0.0065
  178MOL0     C23406  -3.262   2.604  10.224  0.4719 -0.3708 -0.2768
  178MOL0     C23407  -3.305   2.534  10.349 -0.1533 -0.2078  0.3624
  178MOL0    Cl23408  -3.471   2.485  10.321  0.2224  0.5098 -0.4378
  178MOL0     C23409  -2.526   2.598   9.399  0.0398  0.0308  0.6555
  178MOL0     C23410  -2.454   2.643   9.288  0.3190 -0.2826  0.2843
  178MOL0     O23411  -2.448   3.043   9.141  0.2402  0.0195 -0.4639
  178MOL0     C23412  -2.144   2.910   9.033  1.0693 -0.0563 -0.0792
  178MOL0     C23413  -2.036   2.937   8.956  0.1560 -0.7689 -0.0863
  178MOL0     N23414  -1.453   3.083   8.924 -0.1799  0.2378  0.4679
  178MOL0     N23415  -1.343   3.036   8.962 -0.2064  0.2350 -0.1787
  178MOL0     C23416   0.023   3.105   8.902  0.3568  0.0626 -0.2983
  178MOL0     C23417   0.163   3.130   8.904 -0.1861  0.1225 -0.3498
  178MOL0     C23418   0.609   3.105   8.942 -0.2342  0.3394 -0.7429
  178MOL0     C23419   0.662   3.196   8.843  0.3355 -0.4178 -0.1885
  178MOL0     C23420   0.791   3.250   8.851 -0.6912  0.6163  0.4766
  178MOL0     C23421   0.872   3.198   8.953  0.0238 -0.2217 -0.0646
  178MOL0     O23422   1.001   3.236   8.941 -0.4461 -0.3376 -0.1400
  178MOL0     C23423   1.084   3.228   9.057 -0.2419  0.4115  0.3973
  178MOL0     C23424   1.227   3.264   9.012  0.2713 -0.3472  1.0927
  178MOL0     C23425   1.298   3.130   8.970  0.7366 -0.8455  0.7080
  178MOL0     C23426   1.444   3.145   8.947  0.4315 -1.0062  0.5431
  178MOL0     C23427   1.510   3.028   8.892  0.7327  0.1104  0.2991
  178MOL0     C23428   1.552   2.937   8.825 -0.1392  0.5353 -0.7175
  178MOL0     C23429   0.824   3.100   9.040  0.6861 -0.2679 -0.4751
  178MOL0     C23430   0.692   3.064   9.047 -0.8634 -0.1643  0.0571
  178MOL0     H23431   0.279   2.906   8.679 -3.0587 -1.2040 -3.0970
  178MOL0     H23432   0.050   2.827   8.687 -0.7529  0.9927 -1.9584
  178MOL0     H23433  -0.268   3.100   8.857  1.0704 -0.5357 -1.0064
  178MOL0     H23434  -0.234   3.014   9.014  4.1201  0.4158 -0.9663
  178MOL0     H23435  -0.384   2.844   8.936  0.7349  0.3842  0.5245
  178MOL0     H23436  -0.392   2.931   8.769  2.1287 -0.3073  0.6908
  178MOL0     H23437  -0.504   3.112   8.889  0.1233 -1.2830 -2.5345
  178MOL0     H23438  -0.487   3.033   9.045  0.0396 -1.3879  0.4742
  178MOL0     H23439  -0.621   2.884   8.803 -0.1177 -2.5240  0.2771
  178MOL0     H23440  -0.649   2.848   8.969  2.7279 -1.3261 -0.3199
  178MOL0     H23441  -0.742   3.106   8.862 -0.2959 -0.1034 -0.9108
  178MOL0     H23442  -0.748   3.057   9.031  1.1735  0.3084  0.4109
  178MOL0     H23443  -0.896   2.857   8.923  2.0876  0.6041  3.0400
  178MOL0     H23444  -0.871   2.933   8.770  3.7653  0.4551  0.2427
  178MOL0     H23445  -0.997   3.085   8.998  3.2983  0.7729 -0.4327
  178MOL0     H23446  -0.977   3.144   8.823  1.9748  1.2692  0.5572
  178MOL0     H23447  -1.132   2.902   8.916  0.6650 -1.5127 -2.2194
  178MOL0     H23448  -1.120   2.959   8.750 -0.9676  0.2845 -0.5587
  178MOL0     H23449  -1.256   3.173   8.685  3.0026 -2.3775  0.4679
  178MOL0     H23450  -1.490   3.267   8.632 -1.1143  3.6002  0.7930
  178MOL0     H23451  -1.577   3.314   8.782  0.5542  0.2160 -0.4613
  178MOL0     H23452  -1.664   3.054   8.755  1.6213  0.4502  0.8233
  178MOL0     H23453  -1.594   3.076   8.592  2.1171 -0.1224  0.4359
  178MOL0     H23454  -1.776   3.283   8.589 -0.6365 -0.2722 -0.7673
  178MOL0     H23455  -1.821   3.123   8.542  0.9780  0.5375 -1.5859
  178MOL0     H23456  -1.970   3.225   8.697 -0.9282 -2.4821 -0.5180
  178MOL0     H23457  -1.852   3.245   8.833 -0.8892 -2.1024  1.2592
  178MOL0     H23458  -2.148   3.206   8.790 -1.4029  0.9733  1.2566
  178MOL0     H23459  -2.358   3.148   8.919 -0.5329 -0.3198  1.0282
  178MOL0     H23460  -2.513   2.970   9.351 -3.2615  0.0781 -0.5055
  178MOL0     H23461  -2.634   2.876   9.550 -1.6672 -0.2939 -0.9200
  178MOL0     H23462  -2.839   2.698   9.598 -0.9569 -1.3188  0.7715
  178MOL0     H23463  -2.722   2.755   9.714 -1.1875 -0.2492  0.9850
  178MOL0     H23464  -2.761   2.537   9.821 -1.2625 -0.6617  2.0418
  178MOL0     H23465  -2.873   2.485   9.686  1.9211  0.5545 -1.8514
  178MOL0     H23466  -3.038   2.658   9.752 -0.8723 -0.0704 -0.1657
  178MOL0     H23467  -2.928   2.719   9.875  0.3045 -1.0546  0.1568
  178MOL0     H23468  -3.073   2.457   9.879 -1.3106 -0.3456  1.8997
  178MOL0     H23469  -2.931   2.482   9.995  0.7328 -1.0742 -1.1485
  178MOL0     H23470  -3.194   2.640   9.958  0.6204  0.6090 -0.0035
  178MOL0     H23471  -3.064   2.705  10.062 -0.1005  0.7578 -1.1293
  178MOL0     H23472  -3.079   2.509  10.196  0.6870  1.9566 -0.5653
  178MOL0     H23473  -3.219   2.444  10.096 -0.0650 -1.8152  1.6208
  178MOL0     H23474  -3.222   2.703  10.248 -2.3837  1.2242 -1.5479
  178MOL0     H23475  -3.354   2.626  10.168 -1.4428 -2.2172  1.9178
  178MOL0     H23476  -3.291   2.600  10.435 -0.7785 -0.6605  0.8248
  178MOL0     H23477  -3.252   2.440  10.371  1.7385  0.7466  0.0739
  178MOL0     H23478  -2.520   2.492   9.425  1.0444 -1.1210 -3.5327
  178MOL0     H23479  -2.403   2.574   9.221  2.0655  2.0620 -0.9875
  178MOL0     H23480  -2.133   2.836   9.113  2.0124  2.1552  1.9741
  178MOL0     H23481  -1.944   2.881   8.972 -0.2261 -0.7997  2.4019
  178MOL0     H23482  -0.050   3.162   8.959  2.1381  1.9922  0.1576
  178MOL0     H23483   0.189   3.208   8.975 -3.6772  1.4477 -0.3189
  178MOL0     H23484   0.607   3.211   8.751  0.7324 -1.5553 -0.6277
  178MOL0     H23485   0.846   3.311   8.779 -1.1332  0.4718  0.0102
  178MOL0     H23486   1.086   3.133   9.109  1.1387 -0.6506 -1.4550
  178MOL0     H23487   1.043   3.307   9.121 -1.2491  0.0031  0.2592
  178MOL0     H23488   1.210   3.343   8.938  2.7780  2.2388  3.0469
  178MOL0     H23489   1.272   3.306   9.102  0.7229 -1.2305  1.2923
  178MOL0     H23490   1.244   3.091   8.884  0.3450  1.8509 -0.3691
  178MOL0     H23491   1.289   3.054   9.049  1.7784 -3.7956 -1.8326
  178MOL0     H23492   1.467   3.228   8.879 -3.3386 -0.6270 -0.4642
  178MOL0     H23493   1.491   3.169   9.043  0.0859  2.6818 -0.0376
  178MOL0     H23494   1.582   2.863   8.754  2.0919  1.0537 -0.3975
  178MOL0     H23495   0.888   3.055   9.115  0.0815 -0.3432  0.0003
  178MOL0     H23496   0.652   3.009   9.132  0.0884  1.7341  1.8272
  179MOL0     O23497   9.253   7.271   1.944 -0.3534  0.5414  0.2188
  179MOL0     C23498   9.350   7.317   2.010  0.8949  0.2077  0.6094
  179MOL0     O23499   9.341   7.385   2.133 -0.3294  0.3405 -0.4236
  179MOL0     C23500   9.212   7.410   2.171  0.2569  0.7180 -0.1619
  179MOL0     C23501   9.118   7.305   2.193 -0.6479  0.6444 -0.0265
  179MOL0     C23502   8.999   7.330   2.251 -0.1064  0.0149  0.1215
  179MOL0     C23503   8.956   7.457   2.287  0.4254  0.5220 -0.5379
  179MOL0     O23504   8.821   7.450   2.333  0.0836 -0.5786 -0.6124
  179MOL0     C23505   8.773   7.565   2.408  0.1862 -0.3575  0.6767
  179MOL0     C23506   8.667   7.636   2.317 -0.8098 -0.7712  0.4344
  179MOL0     C23507   8.521   7.600   2.359  0.6648  0.7938  0.1902
  179MOL0     C23508   8.419   7.699   2.292  0.7019 -0.0164  0.6369
  179MOL0     C23509   8.288   7.675   2.348 -0.4371  0.1523 -0.6415
  179MOL0     C23510   8.185   7.780   2.301  0.4405  0.2104  0.7709
  179MOL0     C23511   8.052   7.746   2.360 -0.4439 -0.5846 -0.7126
  179MOL0     C23512   7.940   7.811   2.290 -0.3816  0.6035 -0.0815
  179MOL0     N23513   7.820   7.799   2.369  0.5335  0.1878  0.4787
  179MOL0     C23514   7.755   7.902   2.427  0.5258  0.3468 -0.2303
  179MOL0     C23515   7.640   7.854   2.473 -0.1030  1.0291  0.2363
  179MOL0     C23516   7.521   7.927   2.537  0.0940 -0.1378  0.2477
  179MOL0     C23517   7.462   8.035   2.449 -0.1733  0.1426 -0.8104
  179MOL0     C23518   7.411   7.964   2.323  0.2794 -0.0492  0.3812
  179MOL0     C23519   7.351   8.080   2.235 -0.3978  0.4182  0.0546
  179MOL0     O23520   7.271   8.176   2.303  0.2160 -0.0051  0.2322
  179MOL0     C23521   7.138   8.140   2.336 -0.7697  0.5557 -0.7160
  179MOL0     C23522   7.107   8.147   2.471  0.1177  0.2579 -0.7623
  179MOL0     C23523   6.996   8.067   2.519  0.2754 -0.2627 -0.4545
  179MOL0     C23524   6.907   8.003   2.428 -0.2610  0.6090  0.1483
  179MOL0     C23525   6.780   7.935   2.477 -0.2634  0.5900  0.6518
  179MOL0     O23526   6.732   7.972   2.600  0.1803 -0.0220  0.4452
  179MOL0     C23527   6.616   7.927   2.657  0.5326  0.8985  0.1568
  179MOL0     C23528   6.558   7.998   2.762  0.7899  0.5100 -0.3149
  179MOL0     C23529   6.433   7.966   2.822  0.2241  0.3845  0.0458
  179MOL0     C23530   6.360   7.859   2.776  0.5747 -0.1944  0.9954
  179MOL0     O23531   6.235   7.838   2.820  0.4724  0.3180 -0.2637
  179MOL0     C23532   6.226   7.826   2.967  0.0903  0.0471  0.4975
  179MOL0     C23533   6.306   7.705   3.015 -0.7823  0.3254 -0.0450
  179MOL0     C23534   6.258   7.571   2.949 -0.1645  0.8063  0.8738
  179MOL0     C23535   6.116   7.526   2.995 -0.3062  0.6031  0.0062
  179MOL0     C23536   6.081   7.393   2.928  0.1018 -0.3953 -0.1454
  179MOL0     C23537   5.934   7.351   2.980  1.0001  0.9089  0.6280
  179MOL0     C23538   5.907   7.202   2.953  0.8262  0.2084 -0.3810
  179MOL0     C23539   5.905   7.170   2.807  0.7937  0.2094  0.4691
  179MOL0    Cl23540   5.851   6.992   2.798 -0.0192 -0.0126 -0.1207
  179MOL0     C23541   6.415   7.785   2.672 -0.4569  0.8862 -0.4779
  179MOL0     C23542   6.539   7.816   2.617  0.2984 -0.1157  0.3904
  179MOL0     O23543   6.734   7.846   2.406  0.0060 -0.2392  0.0753
  179MOL0     C23544   6.944   8.003   2.294  0.1961 -0.2880  0.8920
  179MOL0     C23545   7.060   8.072   2.244 -0.9401 -0.4085 -0.3998
  179MOL0     N23546   7.632   7.718   2.445 -0.8176 -0.2055  0.0053
  179MOL0     N23547   7.745   7.686   2.382  0.8438  0.0102 -0.0071
  179MOL0     C23548   9.039   7.564   2.263  0.6145  0.0649 -0.0355
  179MOL0     C23549   9.169   7.541   2.207  0.8010 -0.9814  1.7014
  179MOL0     C23550   9.484   7.309   1.950 -0.6762 -0.8578  0.1489
  179MOL0     C23551   9.587   7.372   2.021 -0.5953 -0.4152 -0.0333
  179MOL0     C23552   9.717   7.371   1.956  0.5050  0.0596 -0.6669
  179MOL0     C23553   9.738   7.318   1.832 -0.0233 -0.6093 -0.0754
  179MOL0     O23554   9.853   7.313   1.758 -0.5168  0.5158 -0.1799
  179MOL0     C23555   9.975   7.325   1.834 -0.1063  0.1072  0.5206
  179MOL0     C23556  10.085   7.261   1.748 -0.7595 -0.4590 -0.8893
  179MOL0     C23557  10.215   7.240   1.836  0.4596  0.9438  0.5284
  179MOL0     C23558  10.327   7.176   1.743  0.1365 -0.4494 -0.4319
  179MOL0     C23559  10.438   7.103   1.813 -0.2447  0.0811 -0.3206
  179MOL0     C23560  10.523   7.038   1.873 -0.7614 -0.5743 -0.7525
  179MOL0     C23561   9.631   7.268   1.760  0.0105 -0.0076 -0.1899
  179MOL0     C23562   9.504   7.269   1.817 -0.0075  1.2266  0.1991
  179MOL0     H23563   9.150   7.205   2.165  0.3483  0.6754  0.9351
  179MOL0     H23564   8.927   7.248   2.252 -0.0389 -0.1451 -2.3860
  179MOL0     H23565   8.857   7.633   2.428 -1.9590  2.8255 -0.2848
  179MOL0     H23566   8.722   7.539   2.501 -2.9983  0.7421 -0.6425
  179MOL0     H23567   8.698   7.632   2.213 -1.5969 -1.4449  0.2143
  179MOL0     H23568   8.685   7.742   2.339  4.6424 -1.1314 -1.0044
  179MOL0     H23569   8.512   7.606   2.468  0.7779 -2.1924  0.4365
  179MOL0     H23570   8.512   7.495   2.329  1.5226  0.8496 -0.3124
  179MOL0     H23571   8.451   7.801   2.312  1.3575  0.0183 -0.4897
  179MOL0     H23572   8.422   7.695   2.182  1.3818  0.1279  0.6472
  179MOL0     H23573   8.294   7.690   2.457 -0.9853 -0.5916 -0.4978
  179MOL0     H23574   8.263   7.569   2.338 -0.4126  0.4067 -5.6557
  179MOL0     H23575   8.188   7.784   2.191  1.7949 -1.5168  0.6927
  179MOL0     H23576   8.218   7.877   2.338 -1.1912  1.0613  0.0575
  179MOL0     H23577   8.038   7.638   2.366  0.1965 -0.6299  0.0764
  179MOL0     H23578   8.052   7.777   2.465 -0.3522 -1.9984 -0.2815
  179MOL0     H23579   7.925   7.771   2.189 -2.6246 -0.7273  0.6880
  179MOL0     H23580   7.973   7.913   2.270  1.4998  0.1640  0.5946
  179MOL0     H23581   7.785   8.006   2.429 -3.3377  1.6664 -1.1535
  179MOL0     H23582   7.558   7.972   2.630 -0.5666  3.0872 -0.9108
  179MOL0     H23583   7.441   7.854   2.552 -0.1833 -0.3162 -1.8381
  179MOL0     H23584   7.547   8.102   2.432  0.9136 -0.4608  1.7961
  179MOL0     H23585   7.390   8.094   2.506 -0.0588  1.1170 -1.6622
  179MOL0     H23586   7.490   7.911   2.269  1.1696  0.2642  1.3401
  179MOL0     H23587   7.325   7.900   2.346  0.5499 -1.6223 -2.5752
  179MOL0     H23588   7.298   8.033   2.152 -0.0516  1.5120 -0.8125
  179MOL0     H23589   7.432   8.137   2.189  2.2552 -4.0106 -1.4244
  179MOL0     H23590   7.171   8.200   2.541 -1.7837  0.3740  0.9850
  179MOL0     H23591   6.960   8.070   2.621  0.3110 -0.1875 -0.4440
  179MOL0     H23592   6.611   8.089   2.787  0.2910  0.8578 -0.5158
  179MOL0     H23593   6.375   8.027   2.890 -0.3700 -3.6539  3.5564
  179MOL0     H23594   6.127   7.790   2.995  1.1601 -3.4990  0.2489
  179MOL0     H23595   6.260   7.921   3.009  0.8939 -0.0979  0.2080
  179MOL0     H23596   6.298   7.687   3.123 -1.4797  0.1591 -0.1187
  179MOL0     H23597   6.410   7.719   2.986 -0.8084  0.6569  0.0197
  179MOL0     H23598   6.324   7.488   2.975 -1.2508 -0.3748 -0.0054
  179MOL0     H23599   6.271   7.578   2.841  0.7996  2.2350  1.0486
  179MOL0     H23600   6.119   7.526   3.105  1.6147  0.9343  0.0014
  179MOL0     H23601   6.041   7.596   2.958 -2.9054 -1.6368  0.7492
  179MOL0     H23602   6.152   7.315   2.959 -0.6437 -0.7416  0.7541
  179MOL0     H23603   6.095   7.398   2.820 -0.0818  1.5203 -0.1092
  179MOL0     H23604   5.856   7.417   2.941  2.4514  2.7216  0.7092
  179MOL0     H23605   5.952   7.369   3.087 -0.0452  1.4753  0.7208
  179MOL0     H23606   5.976   7.136   3.007  1.4398  2.6086  1.9533
  179MOL0     H23607   5.805   7.196   2.991  0.6828 -0.0067 -0.7948
  179MOL0     H23608   6.008   7.181   2.771  0.1149  0.7576 -1.4211
  179MOL0     H23609   5.839   7.240   2.755  1.1064  0.9822  1.0877
  179MOL0     H23610   6.353   7.708   2.628 -0.4407  0.9493 -0.6114
  179MOL0     H23611   6.566   7.769   2.523  0.7170  0.5778  0.1632
  179MOL0     H23612   6.886   7.946   2.222 -0.5466  0.7082  0.6681
  179MOL0     H23613   7.087   8.085   2.140 -3.4664 -1.0708 -1.2157
  179MOL0     H23614   8.993   7.662   2.267 -0.3212 -0.1351 -3.1457
  179MOL0     H23615   9.240   7.620   2.184  0.9144 -1.3150  0.8760
  179MOL0     H23616   9.581   7.414   2.121  1.5739  0.5519 -0.2593
  179MOL0     H23617   9.809   7.410   1.998  0.1833 -0.7527  0.8845
  179MOL0     H23618   9.973   7.275   1.931  1.2791 -0.7946  0.1169
  179MOL0     H23619   9.991   7.432   1.851  4.6642 -0.3515  0.2952
  179MOL0     H23620  10.060   7.166   1.700  3.0228 -1.3857 -1.3394
  179MOL0     H23621  10.107   7.332   1.668  1.0700 -0.6705 -0.6288
  179MOL0     H23622  10.199   7.169   1.917  0.3074  0.4271  0.0496
  179MOL0     H23623  10.263   7.335   1.861  1.6158  0.5358 -0.0524
  179MOL0     H23624  10.278   7.119   1.664 -1.2921  0.4712 -0.2613
  179MOL0     H23625  10.370   7.261   1.689 -1.0014  1.9481  2.1680
  179MOL0     H23626  10.601   6.983   1.922 -2.0339 -0.2267  1.8403
  179MOL0     H23627   9.650   7.228   1.661 -2.0417  0.1026 -0.6581
  179MOL0     H23628   9.419   7.228   1.763 -0.9137  3.2455  0.0016
  180MOL0     O23629   0.773   0.561   5.288  0.2910  0.7477  0.3366
  180MOL0     C23630   0.750   0.452   5.345 -0.5485 -0.6597  0.7838
  180MOL0     O23631   0.673   0.343   5.301  0.4689 -0.2152  0.6545
  180MOL0     C23632   0.577   0.361   5.199 -0.4701  0.2359  0.0477
  180MOL0     C23633   0.512   0.248   5.151  0.0532  0.1635 -0.6841
  180MOL0     C23634   0.408   0.259   5.059 -0.3258  0.1435  0.8241
  180MOL0     C23635   0.370   0.385   5.004  0.5012 -0.2919 -0.8275
  180MOL0     O23636   0.267   0.377   4.915 -0.4288 -0.2314  1.1277
  180MOL0     C23637   0.222   0.497   4.853 -0.2675  0.1768 -0.2297
  180MOL0     C23638   0.109   0.464   4.747 -0.3588 -0.3812  0.0140
  180MOL0     C23639  -0.036   0.477   4.818 -0.1485  0.1844  0.7111
  180MOL0     C23640  -0.133   0.493   4.701 -0.4209  0.5832 -0.9050
  180MOL0     C23641  -0.275   0.525   4.750  0.1314 -0.5107 -0.3123
  180MOL0     C23642  -0.374   0.472   4.636  0.0210 -0.4629 -0.3724
  180MOL0     C23643  -0.516   0.511   4.645  0.0193  0.4315 -0.8732
  180MOL0     C23644  -0.592   0.458   4.523  1.0878 -0.4746 -0.7962
  180MOL0     N23645  -0.732   0.514   4.539  1.0323  0.1878  0.2240
  180MOL0     C23646  -0.810   0.550   4.434 -0.0059 -0.3406 -0.2381
  180MOL0     C23647  -0.937   0.551   4.479 -0.2634 -0.1757 -0.2585
  180MOL0     C23648  -1.055   0.546   4.386 -0.5725 -0.3116 -0.1513
  180MOL0     C23649  -1.158   0.435   4.415 -0.0486 -0.2340 -1.2497
  180MOL0     C23650  -1.263   0.418   4.309 -0.0237  0.2148  0.4942
  180MOL0     C23651  -1.376   0.522   4.317  0.1100 -0.1079 -0.0871
  180MOL0     O23652  -1.463   0.496   4.205 -0.1499  0.5250  0.2697
  180MOL0     C23653  -1.600   0.521   4.221 -0.6792  0.3303 -0.4180
  180MOL0     C23654  -1.686   0.442   4.136 -0.3405  0.2414  0.0108
  180MOL0     C23655  -1.827   0.466   4.141 -1.1132  0.1672  1.3092
  180MOL0     C23656  -1.878   0.569   4.220  0.4275  0.4243  0.1740
  180MOL0     C23657  -2.017   0.604   4.210 -0.2409 -0.3855 -1.0129
  180MOL0     O23658  -2.098   0.516   4.146  0.3564 -0.7548 -0.1511
  180MOL0     C23659  -2.231   0.542   4.143 -0.4305  0.3013 -0.6010
  180MOL0     C23660  -2.311   0.574   4.252 -0.4106 -0.5141 -0.1159
  180MOL0     C23661  -2.446   0.594   4.241 -0.0021  0.4592 -0.1725
  180MOL0     C23662  -2.518   0.570   4.123  0.0702  0.4174  0.4790
  180MOL0     O23663  -2.658   0.585   4.127 -1.2138 -0.5204  0.2906
  180MOL0     C23664  -2.736   0.584   4.008  0.2436 -0.0413  0.2913
  180MOL0     C23665  -2.839   0.693   4.037  0.1730  0.1975  0.5004
  180MOL0     C23666  -2.958   0.694   3.946  1.0154  0.3684  0.5218
  180MOL0     C23667  -3.081   0.765   4.009  0.7652 -0.0392 -0.1722
  180MOL0     C23668  -3.192   0.794   3.910  0.8086 -0.3398 -0.0565
  180MOL0     C23669  -3.247   0.669   3.842  0.1743  0.0023 -0.2385
  180MOL0     C23670  -3.328   0.720   3.723  0.0192 -0.3669  0.5368
  180MOL0     C23671  -3.392   0.609   3.653 -0.2076  0.3267  0.4324
  180MOL0    Cl23672  -3.527   0.524   3.748  0.1717 -0.0319  0.5060
  180MOL0     C23673  -2.446   0.518   4.018  0.9636  0.2351  0.1706
  180MOL0     C23674  -2.304   0.516   4.024 -0.2633 -0.2546  0.2842
  180MOL0     O23675  -2.056   0.713   4.259 -0.7499 -0.2896 -0.1485
  180MOL0     C23676  -1.787   0.648   4.296 -0.3075 -0.8379 -0.4725
  180MOL0     C23677  -1.651   0.619   4.300  0.7354 -0.1724 -0.0940
  180MOL0     N23678  -0.936   0.515   4.614 -0.0111  0.1545 -0.2598
  180MOL0     N23679  -0.812   0.494   4.647  0.1231  0.5210 -0.2170
  180MOL0     C23680   0.435   0.500   5.050 -0.1699 -1.1059 -0.0079
  180MOL0     C23681   0.542   0.486   5.143 -0.0316 -0.2031  0.4743
  180MOL0     C23682   0.835   0.433   5.466 -0.1776 -0.4905  1.1190
  180MOL0     C23683   0.946   0.505   5.495 -0.7409 -0.6041  0.1275
  180MOL0     C23684   1.022   0.477   5.611 -0.2046  0.1129  0.2211
  180MOL0     C23685   0.986   0.381   5.709  0.0300  0.8879  0.2678
  180MOL0     O23686   1.055   0.357   5.826  0.3858 -1.0223  0.7926
  180MOL0     C23687   1.176   0.426   5.850  0.4842 -0.2538 -0.5493
  180MOL0     C23688   1.285   0.360   5.777  0.1407 -0.0827 -0.4254
  180MOL0     C23689   1.410   0.444   5.805 -0.2648 -0.0216 -0.7778
  180MOL0     C23690   1.523   0.380   5.722  0.2090 -0.4754  0.3914
  180MOL0     C23691   1.653   0.406   5.779 -0.7628 -0.5103  0.6813
  180MOL0     C23692   1.751   0.453   5.836  0.0956  0.3196 -0.3080
  180MOL0     C23693   0.871   0.312   5.685 -0.2587  0.6972  0.3649
  180MOL0     C23694   0.795   0.341   5.566  0.6292 -0.2034 -0.5350
  180MOL0     H23695   0.538   0.147   5.180 -1.7665 -0.5786 -1.4871
  180MOL0     H23696   0.362   0.170   5.017  2.3527 -0.5688 -0.8552
  180MOL0     H23697   0.300   0.555   4.804  0.1910 -0.9325 -0.8499
  180MOL0     H23698   0.167   0.554   4.928 -3.7528 -2.5426 -0.4175
  180MOL0     H23699   0.120   0.364   4.704 -1.5746  1.1748 -4.3425
  180MOL0     H23700   0.120   0.532   4.663  0.4431  0.9344  1.1261
  180MOL0     H23701  -0.042   0.561   4.888 -3.1344 -2.4820  4.0228
  180MOL0     H23702  -0.070   0.399   4.887 -0.0703  2.3205  3.3611
  180MOL0     H23703  -0.097   0.564   4.626 -0.5024 -0.6946 -2.2057
  180MOL0     H23704  -0.133   0.394   4.655 -0.8748 -0.1603  0.6519
  180MOL0     H23705  -0.298   0.631   4.764 -0.5971 -0.7528  0.4017
  180MOL0     H23706  -0.308   0.464   4.834 -1.6365 -0.6988 -1.0935
  180MOL0     H23707  -0.367   0.363   4.644 -1.3647 -0.5965 -0.7154
  180MOL0     H23708  -0.336   0.508   4.540 -1.1053 -2.1620 -1.5238
  180MOL0     H23709  -0.558   0.472   4.738  3.3720  3.6542  2.3287
  180MOL0     H23710  -0.538   0.618   4.644  1.9935  0.8903 -0.2737
  180MOL0     H23711  -0.591   0.352   4.497  1.7168 -0.6557 -0.0669
  180MOL0     H23712  -0.554   0.508   4.433  0.9110 -0.4712 -0.8703
  180MOL0     H23713  -0.772   0.568   4.334  2.9528  0.9253  1.0043
  180MOL0     H23714  -1.011   0.544   4.285 -0.4248  1.3005 -0.1367
  180MOL0     H23715  -1.111   0.639   4.396 -0.7085 -0.5682  1.7445
  180MOL0     H23716  -1.202   0.444   4.515 -0.4976  1.0457 -1.5458
  180MOL0     H23717  -1.105   0.339   4.421  1.6950  0.6079 -2.4095
  180MOL0     H23718  -1.216   0.418   4.210  0.4880  2.0676  0.7018
  180MOL0     H23719  -1.310   0.320   4.319 -3.2400  1.5998  0.3721
  180MOL0     H23720  -1.336   0.623   4.326 -1.5519  0.5106  0.7490
  180MOL0     H23721  -1.427   0.500   4.412 -0.3051 -3.7690 -1.0247
  180MOL0     H23722  -1.647   0.372   4.063  0.0070  1.1154 -0.6701
  180MOL0     H23723  -1.897   0.414   4.077 -0.8150  0.9871  0.2745
  180MOL0     H23724  -2.255   0.596   4.342 -0.3679  0.2603 -0.3226
  180MOL0     H23725  -2.516   0.616   4.321 -0.7449 -0.2457 -0.6017
  180MOL0     H23726  -2.775   0.484   3.990 -1.4549  0.9354 -1.8449
  180MOL0     H23727  -2.680   0.622   3.922  1.1203 -0.2223  0.7735
  180MOL0     H23728  -2.789   0.790   4.039 -1.6011  1.1929  3.9281
  180MOL0     H23729  -2.871   0.676   4.140  3.5517  1.0011  1.7912
  180MOL0     H23730  -2.979   0.588   3.927 -1.6692  0.5225  2.1104
  180MOL0     H23731  -2.944   0.752   3.854  2.3955 -0.2657  0.3011
  180MOL0     H23732  -3.112   0.696   4.088 -0.6730  2.8226  1.9597
  180MOL0     H23733  -3.052   0.861   4.052  0.2442  0.1224 -0.1735
  180MOL0     H23734  -3.160   0.873   3.842  0.9030 -1.7007 -1.6437
  180MOL0     H23735  -3.271   0.832   3.976  1.9787 -1.1222  1.8938
  180MOL0     H23736  -3.309   0.611   3.912 -1.8453  0.9280 -1.1834
  180MOL0     H23737  -3.168   0.603   3.804  0.9950  0.5214  0.5494
  180MOL0     H23738  -3.395   0.801   3.754  1.1582  0.4636  0.9009
  180MOL0     H23739  -3.255   0.766   3.656  0.5363  0.5406  1.6762
  180MOL0     H23740  -3.315   0.533   3.637  2.8112  3.1480  0.7026
  180MOL0     H23741  -3.432   0.639   3.556 -2.1250 -1.1655  0.6768
  180MOL0     H23742  -2.491   0.474   3.929  0.0460  0.1763  0.6523
  180MOL0     H23743  -2.239   0.473   3.948 -1.6216 -2.4588  0.2549
  180MOL0     H23744  -1.814   0.734   4.357  0.0289 -1.4546  0.5756
  180MOL0     H23745  -1.580   0.683   4.350 -0.2950 -0.2627  1.5564
  180MOL0     H23746   0.413   0.598   5.008 -2.2609 -1.1500  0.8785
  180MOL0     H23747   0.601   0.574   5.165  0.6791 -0.7088  0.6074
  180MOL0     H23748   0.978   0.590   5.434  0.6315 -1.2988 -0.1404
  180MOL0     H23749   1.116   0.531   5.624 -0.1003  0.4794 -1.8070
  180MOL0     H23750   1.179   0.422   5.960 -1.8722 -3.4844 -0.4549
  180MOL0     H23751   1.170   0.533   5.829  3.4579  0.2106  0.5232
  180MOL0     H23752   1.302   0.265   5.827  0.5897  1.4058  2.4510
  180MOL0     H23753   1.264   0.343   5.671 -1.0458  1.7551 -0.5309
  180MOL0     H23754   1.426   0.426   5.912 -0.3025 -1.7375 -1.0450
  180MOL0     H23755   1.396   0.550   5.778 -2.8617 -0.4151 -1.2509
  180MOL0     H23756   1.502   0.273   5.711  2.6998 -1.0592  0.5639
  180MOL0     H23757   1.525   0.422   5.621  1.7691 -1.0186  0.1634
  180MOL0     H23758   1.836   0.486   5.893  0.1518  0.4241 -0.4516
  180MOL0     H23759   0.836   0.240   5.759 -2.0146  1.1452 -0.0046
  180MOL0     H23760   0.706   0.281   5.549  0.2167  0.1952  0.1940
  181MOL0     O23761   9.449   9.890  10.134  0.0638  0.0127  0.7925
  181MOL0     C23762   9.467   9.922  10.015 -0.2209 -0.4178 -0.2640
  181MOL0     O23763   9.373   9.984   9.925 -0.2041 -0.3133 -0.2048
  181MOL0     C23764   9.249   9.987   9.978 -0.0656 -0.0426  0.3668
  181MOL0     C23765   9.143   9.909   9.927 -1.6275  0.2666  0.7288
  181MOL0     C23766   9.015   9.920   9.971 -0.0985  0.5994 -0.2510
  181MOL0     C23767   8.983  10.018  10.065 -0.7250  0.0469  0.4230
  181MOL0     O23768   8.859  10.042  10.117 -0.3588 -0.7274  0.1183
  181MOL0     C23769   8.759   9.931  10.090  0.0464  0.7519 -0.0159
  181MOL0     C23770   8.634   9.956  10.179  0.5447 -0.2760  0.5792
  181MOL0     C23771   8.539   9.839  10.196 -0.3855  0.2214 -0.5910
  181MOL0     C23772   8.438   9.863  10.310  0.6161 -0.8876 -0.1869
  181MOL0     C23773   8.304   9.788  10.304 -0.2298  0.0307  0.1767
  181MOL0     C23774   8.197   9.838  10.407 -0.4390 -0.1714  0.5556
  181MOL0     C23775   8.064   9.765  10.401 -0.7866 -0.5659  0.0866
  181MOL0     C23776   7.964   9.815  10.505  0.6297  0.4751  0.7842
  181MOL0     N23777   7.833   9.763  10.489  0.2607  0.0931  0.4961
  181MOL0     C23778   7.732   9.761  10.590  0.1060  1.0783  0.0402
  181MOL0     C23779   7.621   9.713  10.529  0.1479  0.0902  0.2790
  181MOL0     C23780   7.489   9.688  10.605  0.5213  0.9335  0.6307
  181MOL0     C23781   7.366   9.678  10.510  0.6464  0.5688 -0.2001
  181MOL0     C23782   7.231   9.644  10.593 -0.4889  0.5367  1.2315
  181MOL0     C23783   7.107   9.691  10.517  0.1757  0.1867 -0.1046
  181MOL0     O23784   7.003   9.679  10.616 -0.8168 -0.0969 -0.0680
  181MOL0     C23785   6.875   9.676  10.562 -0.2482 -0.3034  0.9209
  181MOL0     C23786   6.838   9.702  10.427 -0.2692 -0.5110  0.7725
  181MOL0     C23787   6.708   9.696  10.374  0.1606 -0.7968  0.6732
  181MOL0     C23788   6.598   9.670  10.460  0.5038  0.0020 -1.0566
  181MOL0     C23789   6.459   9.682  10.418  0.8403 -0.6786  0.3543
  181MOL0     O23790   6.363   9.650  10.511  0.1088  0.2277  0.1101
  181MOL0     C23791   6.225   9.660  10.498 -0.9616  0.5494  0.5035
  181MOL0     C23792   6.158   9.634  10.378 -0.3180 -0.1139 -0.8281
  181MOL0     C23793   6.019   9.660  10.373  0.0771 -0.3961  1.1005
  181MOL0     C23794   5.941   9.694  10.489 -0.5547 -0.4155 -0.6438
  181MOL0     O23795   5.807   9.719  10.484 -0.5351  0.2229 -0.2808
  181MOL0     C23796   5.736   9.681  10.364  0.4700  0.0990  0.5373
  181MOL0     C23797   5.584   9.727  10.375 -0.9962  0.5281  0.1581
  181MOL0     C23798   5.497   9.674  10.254 -0.1455  0.1319  0.7819
  181MOL0     C23799   5.345   9.680  10.284 -0.1281 -0.2161 -0.1756
  181MOL0     C23800   5.270   9.581  10.188 -0.1482 -0.1105  0.7127
  181MOL0     C23801   5.119   9.593  10.217 -0.1009  0.1239  0.6153
  181MOL0     C23802   5.072   9.494  10.332  0.6106 -0.1621  0.0057
  181MOL0     C23803   4.916   9.495  10.332  0.3085  0.4257 -0.4867
  181MOL0    Cl23804   4.849   9.459  10.495  0.3526 -0.3260  0.5662
  181MOL0     C23805   6.005   9.687  10.611 -1.0638  0.7398  0.3297
  181MOL0     C23806   6.143   9.677  10.613  0.6914 -0.5131 -0.1469
  181MOL0     O23807   6.433   9.718  10.304 -0.0890  0.5456 -0.1880
  181MOL0     C23808   6.637   9.640  10.590 -0.0769 -0.4890 -0.1287
  181MOL0     C23809   6.768   9.634  10.640  0.3209  0.0888  0.1951
  181MOL0     N23810   7.646   9.686  10.396 -0.3837 -0.2239 -0.3029
  181MOL0     N23811   7.771   9.717  10.379  0.2556 -0.8351  0.0221
  181MOL0     C23812   9.088  10.107  10.115  0.6337  0.0299 -0.5216
  181MOL0     C23813   9.217  10.090  10.072 -0.5844  0.4195 -0.0977
  181MOL0     C23814   9.609   9.910   9.966 -0.3779 -0.9044 -0.5967
  181MOL0     C23815   9.713   9.871  10.053 -0.2548  0.2035  0.2000
  181MOL0     C23816   9.840   9.867  10.000  0.4805  0.2501  0.7088
  181MOL0     C23817   9.880   9.909   9.875 -0.1964 -0.9260  0.5877
  181MOL0     O23818  10.018   9.888   9.841  1.0013  0.1928  0.0508
  181MOL0     C23819  10.074   9.977   9.757 -1.0197 -0.1211  0.1301
  181MOL0     C23820  10.210   9.934   9.703 -0.7324  0.7674 -0.3336
  181MOL0     C23821  10.279  10.041   9.624  0.8482  0.4415  0.4638
  181MOL0     C23822  10.394   9.985   9.537  0.3822 -1.0213 -0.0222
  181MOL0     C23823  10.496   9.938   9.629 -0.1796  0.2390  0.4897
  181MOL0     C23824  10.597   9.902   9.694  0.1781 -0.2099  0.7017
  181MOL0     C23825   9.771   9.955   9.791 -1.4685  0.4425 -0.2791
  181MOL0     C23826   9.639   9.953   9.835 -0.0553  0.5079  1.0428
  181MOL0     H23827   9.174   9.840   9.849 -0.5645 -1.5819  2.6858
  181MOL0     H23828   8.951   9.854   9.915  1.2928  0.3263 -1.5896
  181MOL0     H23829   8.807   9.833  10.096 -0.0645  0.5788 -1.5509
  181MOL0     H23830   8.715   9.927   9.990 -2.7592 -1.1318  1.1989
  181MOL0     H23831   8.574  10.029  10.124  0.6801 -0.6850 -0.1234
  181MOL0     H23832   8.665   9.993  10.278  0.9356 -2.5429  1.3734
  181MOL0     H23833   8.593   9.745  10.211  0.4365  1.0306  2.3011
  181MOL0     H23834   8.484   9.821  10.104  0.8012 -0.0560 -1.2605
  181MOL0     H23835   8.493   9.838  10.401 -0.5714  0.2620  0.8849
  181MOL0     H23836   8.422   9.971  10.304  1.5125 -0.6982  0.6493
  181MOL0     H23837   8.328   9.684  10.329  0.2185  0.4072  1.4230
  181MOL0     H23838   8.268   9.791  10.201  0.0837  1.7713  0.0715
  181MOL0     H23839   8.181   9.945  10.388  1.8840  0.1080 -0.2425
  181MOL0     H23840   8.245   9.824  10.505 -0.2824 -2.4939  0.2038
  181MOL0     H23841   8.022   9.771  10.300  0.2050  2.8249 -0.2742
  181MOL0     H23842   8.079   9.659  10.423 -0.5946 -0.3829  0.8660
  181MOL0     H23843   7.946   9.923  10.501 -2.9733 -0.0211  0.1998
  181MOL0     H23844   7.990   9.794  10.610  2.0486 -1.5584  0.0865
  181MOL0     H23845   7.752   9.770  10.696  1.1018 -3.7677  0.4956
  181MOL0     H23846   7.471   9.777  10.666 -3.2302  1.7327 -1.3506
  181MOL0     H23847   7.485   9.593  10.659  0.0464 -0.0762 -1.1257
  181MOL0     H23848   7.384   9.596  10.441 -3.7681 -0.4778 -0.4285
  181MOL0     H23849   7.357   9.773  10.456 -0.9093  0.5029 -0.0997
  181MOL0     H23850   7.226   9.538  10.621 -1.6372 -0.2923 -1.8123
  181MOL0     H23851   7.231   9.703  10.685 -0.8354  3.0728 -0.3225
  181MOL0     H23852   7.100   9.625  10.430  2.0562  1.6184 -1.4244
  181MOL0     H23853   7.114   9.793  10.480 -0.3912  0.1881 -0.2129
  181MOL0     H23854   6.919   9.738  10.364  0.2898  0.0542  1.7869
  181MOL0     H23855   6.696   9.730  10.272  3.1440 -1.3737  0.0087
  181MOL0     H23856   6.215   9.632  10.285  1.1193 -0.6966  0.0348
  181MOL0     H23857   5.972   9.675  10.277  1.2017 -0.7156  0.4823
  181MOL0     H23858   5.748   9.574  10.349 -1.8454 -0.2564  0.7724
  181MOL0     H23859   5.776   9.734  10.278 -2.0399 -1.1271 -1.5263
  181MOL0     H23860   5.570   9.835  10.385 -2.2748  0.3265  0.7570
  181MOL0     H23861   5.537   9.690  10.467  0.7312 -0.2305  0.7876
  181MOL0     H23862   5.519   9.572  10.224 -0.4860 -0.6713  3.0803
  181MOL0     H23863   5.516   9.727  10.160 -4.0051 -0.4271 -0.4911
  181MOL0     H23864   5.324   9.657  10.389 -1.2674  1.7858  0.0778
  181MOL0     H23865   5.316   9.781  10.253  0.3433  0.7467  2.3463
  181MOL0     H23866   5.301   9.479  10.210 -1.2474 -0.1741  2.1193
  181MOL0     H23867   5.288   9.611  10.085  0.0248  0.7914  0.9900
  181MOL0     H23868   5.056   9.580  10.129  0.4056  0.3324  0.2244
  181MOL0     H23869   5.099   9.695  10.250  1.0931  0.5214  0.1438
  181MOL0     H23870   5.103   9.389  10.321 -1.6896 -0.7534 -1.7039
  181MOL0     H23871   5.105   9.534  10.428  1.0376  1.8743 -0.9387
  181MOL0     H23872   4.885   9.420  10.258  0.3503 -0.8108  0.7036
  181MOL0     H23873   4.878   9.589  10.292  1.0152  2.2887  2.8393
  181MOL0     H23874   5.949   9.688  10.704  0.6381 -0.6046  1.4417
  181MOL0     H23875   6.185   9.689  10.712  1.4602  1.5690 -0.6806
  181MOL0     H23876   6.568   9.610  10.668 -1.3051  1.6044 -0.3307
  181MOL0     H23877   6.791   9.600  10.741  0.9008  2.2640  0.8561
  181MOL0     H23878   9.066  10.186  10.186  1.3931 -1.5065  1.4993
  181MOL0     H23879   9.281  10.174  10.099  1.6132 -0.9022 -0.9128
  181MOL0     H23880   9.702   9.852  10.160 -2.3135  0.7217  0.1178
  181MOL0     H23881   9.919   9.838  10.069 -0.2812 -2.7691  0.4461
  181MOL0     H23882  10.090  10.065   9.820  5.1437 -2.1171  1.9881
  181MOL0     H23883  10.005  10.001   9.675  0.8497  2.2342 -0.8559
  181MOL0     H23884  10.264   9.902   9.793  2.5814  0.1921 -2.3665
  181MOL0     H23885  10.207   9.841   9.645 -1.5040  1.0109 -0.6967
  181MOL0     H23886  10.322  10.126   9.678  0.5408  1.3856 -0.7397
  181MOL0     H23887  10.205  10.091   9.561  0.9147  0.8869  0.7341
  181MOL0     H23888  10.378   9.893   9.479  1.6330 -0.5578 -1.1485
  181MOL0     H23889  10.440  10.060   9.473  2.7708 -1.1276  1.4541
  181MOL0     H23890  10.682   9.863   9.745 -0.5486 -1.8206  0.7518
  181MOL0     H23891   9.782   9.972   9.685 -1.8896 -0.9961 -0.5781
  181MOL0     H23892   9.566   9.995   9.765  2.0080 -0.8078 -2.1486
  182MOL0     O23893  10.445   8.272   4.661 -0.0928 -0.3765  0.2015
  182MOL0     C23894  10.416   8.170   4.729  0.0839 -0.5442  0.7127
  182MOL0     O23895  10.512   8.101   4.800  0.0855  0.3842  0.0799
  182MOL0     C23896  10.641   8.136   4.801 -0.1844 -0.6549 -0.5573
  182MOL0     C23897  10.723   8.208   4.709  0.3705 -0.1321  0.4186
  182MOL0     C23898  10.857   8.232   4.729 -0.0858 -0.2004 -0.5614
  182MOL0     C23899  10.914   8.186   4.849 -0.6150  0.5558 -1.0071
  182MOL0     O23900  11.046   8.214   4.877 -0.5705 -0.4175  0.7963
  182MOL0     C23901  11.138   8.137   4.793  0.3772  0.0163 -0.3746
  182MOL0     C23902  11.285   8.182   4.820 -0.0815 -0.4838  0.2441
  182MOL0     C23903  11.350   8.146   4.954 -0.0739 -0.0659 -0.0989
  182MOL0     C23904  11.495   8.189   4.947 -0.9626 -0.0129 -0.2181
  182MOL0     C23905  11.540   8.179   5.091 -0.1534  0.7043 -0.2854
  182MOL0     C23906  11.686   8.238   5.103  0.1739 -0.4244  0.1968
  182MOL0     C23907  11.743   8.255   5.239  0.2127  0.7280  0.1696
  182MOL0     C23908  11.884   8.315   5.236 -0.6657  0.3608  0.2469
  182MOL0     N23909  11.982   8.241   5.147 -0.2873 -0.6576 -0.0953
  182MOL0     C23910  12.076   8.149   5.179 -0.0133 -0.1837  0.2363
  182MOL0     C23911  12.141   8.126   5.065 -0.1488 -0.2110  0.6468
  182MOL0     C23912  12.249   8.028   5.043  0.1571 -1.1267  0.4939
  182MOL0     C23913  12.221   7.921   4.936 -0.8478 -0.0806 -0.1597
  182MOL0     C23914  12.089   7.847   4.965  0.3213  0.2313  0.4453
  182MOL0     C23915  12.056   7.753   4.848  0.3660  0.0051 -0.1110
  182MOL0     O23916  11.941   7.675   4.878  0.1793  0.2799 -0.3544
  182MOL0     C23917  11.820   7.713   4.848  0.5334 -0.1636  0.9232
  182MOL0     C23918  11.718   7.622   4.884  0.6900 -0.0875 -0.0991
  182MOL0     C23919  11.587   7.648   4.860  1.1342  0.3721  0.7988
  182MOL0     C23920  11.551   7.763   4.789  0.0458  0.5029 -0.3808
  182MOL0     C23921  11.420   7.773   4.728 -0.1274 -0.0227  0.6614
  182MOL0     O23922  11.365   7.658   4.680  0.0089 -0.5806 -0.6599
  182MOL0     C23923  11.236   7.658   4.642 -0.1013 -0.1437  0.3946
  182MOL0     C23924  11.137   7.720   4.718 -0.0957  0.3649  0.4842
  182MOL0     C23925  11.005   7.727   4.674 -0.4458  0.1713  0.2671
  182MOL0     C23926  10.975   7.684   4.545 -0.4476  0.1430 -0.3397
  182MOL0     O23927  10.848   7.706   4.485  0.3899 -0.2961 -1.7055
  182MOL0     C23928  10.778   7.829   4.503 -0.5360  0.3669  0.5469
  182MOL0     C23929  10.659   7.810   4.598  0.9867  0.4808 -0.0409
  182MOL0     C23930  10.529   7.770   4.519 -0.6581 -0.5503 -0.7272
  182MOL0     C23931  10.416   7.751   4.624 -0.0936 -0.7309  0.4827
  182MOL0     C23932  10.278   7.761   4.551  0.1322 -1.0579 -0.3442
  182MOL0     C23933  10.247   7.644   4.446 -0.3021  0.3490  0.3355
  182MOL0     C23934  10.116   7.674   4.381 -0.4978 -0.7066  0.1222
  182MOL0     C23935  10.079   7.579   4.271  0.0515  0.4252 -0.7983
  182MOL0    Cl23936   9.917   7.623   4.196 -0.2353 -0.2201 -0.2053
  182MOL0     C23937  11.079   7.625   4.467  0.3967  0.0626 -0.5215
  182MOL0     C23938  11.206   7.607   4.517  0.2958  0.6418 -0.6972
  182MOL0     O23939  11.382   7.883   4.700 -0.3015 -0.1843  0.3292
  182MOL0     C23940  11.648   7.856   4.758 -0.2817  0.4490 -0.0429
  182MOL0     C23941  11.779   7.838   4.793  0.1148 -0.1762 -0.8849
  182MOL0     N23942  12.090   8.188   4.959 -0.3379 -0.4790  0.0194
  182MOL0     N23943  11.986   8.259   5.012 -1.0233  0.4035  0.3553
  182MOL0     C23944  10.836   8.111   4.935 -0.2634  0.6473  0.3101
  182MOL0     C23945  10.705   8.084   4.912 -0.6905 -0.1520  0.6118
  182MOL0     C23946  10.270   8.126   4.738 -0.0227 -0.6387 -0.2252
  182MOL0     C23947  10.241   8.014   4.819  1.1354  0.0302 -0.6162
  182MOL0     C23948  10.110   7.966   4.827  0.4446  0.1525 -1.0919
  182MOL0     C23949  10.015   8.017   4.750  0.7243 -0.8898 -0.4557
  182MOL0     O23950   9.887   7.959   4.762  0.3375  0.4515 -0.1849
  182MOL0     C23951   9.777   8.053   4.789  1.6386 -0.5817  0.5367
  182MOL0     C23952   9.673   7.979   4.869  0.0356  0.5207 -0.1145
  182MOL0     C23953   9.736   7.931   5.013  0.6291  0.5288  0.7929
  182MOL0     C23954   9.625   7.890   5.121 -0.5672 -0.0098 -0.1098
  182MOL0     C23955   9.559   8.007   5.191 -0.6961  0.3247  0.3109
  182MOL0     C23956   9.514   8.102   5.249 -0.6863  0.6718  0.1667
  182MOL0     C23957  10.034   8.132   4.670 -0.2180 -0.2104  0.8683
  182MOL0     C23958  10.167   8.184   4.665  0.4387 -0.9324  1.0513
  182MOL0     H23959  10.674   8.228   4.614 -0.1212  0.2672  0.7494
  182MOL0     H23960  10.909   8.288   4.652 -3.3796  1.8186 -1.5155
  182MOL0     H23961  11.129   8.155   4.685  2.1424  0.3131 -0.5023
  182MOL0     H23962  11.126   8.029   4.804  1.2482 -0.3466 -2.4982
  182MOL0     H23963  11.284   8.291   4.816 -1.5220 -0.5116 -0.9785
  182MOL0     H23964  11.344   8.149   4.733  1.2564 -0.8882  1.2776
  182MOL0     H23965  11.326   8.040   4.968  0.1255 -0.0605  0.2821
  182MOL0     H23966  11.289   8.199   5.028 -1.1642 -0.4490 -0.7003
  182MOL0     H23967  11.551   8.121   4.883 -0.5760  0.1710 -0.0766
  182MOL0     H23968  11.519   8.289   4.910 -0.6224  0.5009  1.3344
  182MOL0     H23969  11.544   8.074   5.124  1.8972  1.0357  0.7303
  182MOL0     H23970  11.477   8.232   5.164  1.9521  2.1164  0.6121
  182MOL0     H23971  11.694   8.326   5.038 -0.3238 -1.3717 -1.1890
  182MOL0     H23972  11.741   8.168   5.040 -1.0299  1.3177 -3.0171
  182MOL0     H23973  11.678   8.326   5.291  1.6653  1.6780  0.7473
  182MOL0     H23974  11.751   8.157   5.287  0.0298  2.0060  3.0239
  182MOL0     H23975  11.918   8.298   5.339  0.9953  0.7267 -0.2012
  182MOL0     H23976  11.897   8.421   5.214  0.2425  0.3840  0.8465
  182MOL0     H23977  12.100   8.097   5.271  0.3594 -1.1656 -0.3962
  182MOL0     H23978  12.270   7.979   5.138  1.7179  1.7542  1.7400
  182MOL0     H23979  12.343   8.082   5.026  0.8019 -2.0473  1.0707
  182MOL0     H23980  12.302   7.847   4.933 -1.3615 -0.9661  3.4061
  182MOL0     H23981  12.214   7.977   4.842  1.5480 -1.1355 -1.0426
  182MOL0     H23982  12.099   7.795   5.060 -0.0044  1.8101  1.3708
  182MOL0     H23983  12.010   7.922   4.974 -0.7421 -0.9646  1.3607
  182MOL0     H23984  12.130   7.677   4.822  2.1750  1.8976 -0.7250
  182MOL0     H23985  12.041   7.809   4.755 -0.1098  0.8390  0.4559
  182MOL0     H23986  11.751   7.533   4.937 -0.4274 -1.2010 -1.2089
  182MOL0     H23987  11.521   7.567   4.890  3.5692 -1.7455  0.7025
  182MOL0     H23988  11.162   7.778   4.806  0.8997 -1.3514  1.3785
  182MOL0     H23989  10.933   7.779   4.736 -0.4149  0.2711  0.2205
  182MOL0     H23990  10.748   7.865   4.405  3.1128  0.0807 -0.8475
  182MOL0     H23991  10.847   7.907   4.537 -0.0691 -0.0715  0.6319
  182MOL0     H23992  10.647   7.903   4.655  1.5655 -0.3778  1.5176
  182MOL0     H23993  10.676   7.730   4.670 -3.4369 -0.5868  0.1164
  182MOL0     H23994  10.544   7.677   4.465  0.2122 -0.7029 -0.2496
  182MOL0     H23995  10.502   7.856   4.457 -0.7675 -0.4142 -0.4910
  182MOL0     H23996  10.433   7.652   4.669  0.1055 -1.3929 -0.9841
  182MOL0     H23997  10.410   7.824   4.705  0.5505  0.4656 -0.5100
  182MOL0     H23998  10.268   7.858   4.502  1.2932 -1.6025 -1.7560
  182MOL0     H23999  10.200   7.763   4.627  2.0676 -0.1494  1.7131
  182MOL0     H24000  10.244   7.541   4.483  0.4413 -0.7510 -2.4401
  182MOL0     H24001  10.330   7.659   4.377 -1.4403  0.9471 -0.9518
  182MOL0     H24002  10.029   7.671   4.448 -1.1825 -2.9286 -0.7906
  182MOL0     H24003  10.112   7.773   4.334 -1.2797 -0.6999  0.1766
  182MOL0     H24004  10.080   7.476   4.309  1.8542  0.1384 -1.4683
  182MOL0     H24005  10.166   7.587   4.205  2.3105 -4.4121  1.0597
  182MOL0     H24006  11.060   7.593   4.365 -1.3430  0.6759 -0.4288
  182MOL0     H24007  11.280   7.562   4.453  0.2027  1.7233 -1.5839
  182MOL0     H24008  11.620   7.944   4.701  0.9083 -0.0740 -1.4872
  182MOL0     H24009  11.851   7.918   4.778 -0.7498  0.8637  0.3229
  182MOL0     H24010  10.871   8.085   5.034 -2.2962  0.2473  0.9773
  182MOL0     H24011  10.646   8.013   4.969 -2.5960  0.5093 -0.4479
  182MOL0     H24012  10.319   7.968   4.879 -1.1504 -2.6706  0.5172
  182MOL0     H24013  10.083   7.881   4.889  1.6006  0.1786 -0.5283
  182MOL0     H24014   9.740   8.078   4.689  0.6128 -0.5614  0.9173
  182MOL0     H24015   9.800   8.144   4.846 -2.3120 -0.5027  2.3127
  182MOL0     H24016   9.586   8.040   4.896 -1.7495 -1.5079 -0.9581
  182MOL0     H24017   9.633   7.889   4.822 -0.5026 -0.4182  2.0054
  182MOL0     H24018   9.804   8.006   5.056  2.1945 -1.1663  1.3877
  182MOL0     H24019   9.799   7.844   4.994  0.7355  0.4083  1.6484
  182MOL0     H24020   9.545   7.832   5.075 -3.2084  1.3100  2.5058
  182MOL0     H24021   9.675   7.822   5.190 -1.0348 -1.3636 -1.0809
  182MOL0     H24022   9.491   8.196   5.296 -0.3501  2.0583 -2.2816
  182MOL0     H24023   9.951   8.169   4.611  1.0639  2.0191  0.3499
  182MOL0     H24024  10.187   8.266   4.596  1.1795 -0.4955  1.7824
  183MOL0     O24025   3.576   7.204   4.415  0.1095 -0.0528  0.3451
  183MOL0     C24026   3.642   7.183   4.316  0.2431  0.0242  0.1034
  183MOL0     O24027   3.595   7.162   4.184 -0.2704 -0.4427 -0.1515
  183MOL0     C24028   3.458   7.168   4.151 -0.8073  0.0756  0.3862
  183MOL0     C24029   3.373   7.251   4.220  0.0007  0.0685  0.2144
  183MOL0     C24030   3.238   7.253   4.198  0.2539 -0.2901 -0.1250
  183MOL0     C24031   3.181   7.165   4.109  0.8533  0.1819  0.6134
  183MOL0     O24032   3.045   7.151   4.086 -1.3606 -0.5429 -0.5269
  183MOL0     C24033   2.959   7.191   4.195 -0.5258  0.1614 -0.3764
  183MOL0     C24034   2.840   7.103   4.166 -0.2441 -0.7657  0.2350
  183MOL0     C24035   2.717   7.150   4.245  0.3206  0.7282  0.2254
  183MOL0     C24036   2.736   7.153   4.399  0.3562  0.2445 -1.0731
  183MOL0     C24037   2.612   7.150   4.484  0.6458 -0.3500  0.0424
  183MOL0     C24038   2.562   7.007   4.498  0.0531  0.0743 -1.0264
  183MOL0     C24039   2.442   6.990   4.589 -0.5750  0.0861  0.3831
  183MOL0     C24040   2.311   7.051   4.542  0.4552 -0.3252  0.1445
  183MOL0     N24041   2.198   6.962   4.565  0.0190  0.6194  0.7819
  183MOL0     C24042   2.152   6.924   4.685 -0.6163 -0.4673 -0.4200
  183MOL0     C24043   2.048   6.836   4.657 -0.7941 -0.5892  0.9982
  183MOL0     C24044   1.937   6.783   4.740 -0.1581  0.4251 -1.4177
  183MOL0     C24045   1.970   6.647   4.816 -0.2092  0.3834 -0.4447
  183MOL0     C24046   2.026   6.537   4.713 -0.0366  0.8433  0.2453
  183MOL0     C24047   1.921   6.504   4.603  0.3761 -0.2911 -1.3962
  183MOL0     O24048   1.823   6.428   4.681  0.6496 -0.9432 -0.0105
  183MOL0     C24049   1.719   6.358   4.623  0.1954  0.7702  0.7291
  183MOL0     C24050   1.630   6.295   4.713  0.4283  0.6294  0.0939
  183MOL0     C24051   1.529   6.212   4.663  0.2223  0.5171  0.7711
  183MOL0     C24052   1.519   6.178   4.531 -0.5976  0.0756  0.4612
  183MOL0     C24053   1.403   6.092   4.491  0.0621  0.0705 -0.1201
  183MOL0     O24054   1.293   6.091   4.573 -0.4638  0.5973 -0.0465
  183MOL0     C24055   1.169   6.043   4.542 -0.1202  1.3434 -0.5525
  183MOL0     C24056   1.056   6.124   4.566 -0.4964 -0.1098  0.3492
  183MOL0     C24057   0.931   6.064   4.542  0.0966 -0.2011 -0.7178
  183MOL0     C24058   0.913   5.927   4.505 -0.2063 -0.1998 -0.2535
  183MOL0     O24059   0.788   5.869   4.495  0.9861 -0.2986 -0.2582
  183MOL0     C24060   0.759   5.738   4.450 -0.3487  0.1076  0.9886
  183MOL0     C24061   0.625   5.696   4.506 -0.8046  0.1893  0.2087
  183MOL0     C24062   0.504   5.785   4.494 -0.2670  0.8249  0.9289
  183MOL0     C24063   0.399   5.742   4.592  0.2124  0.8920  0.0795
  183MOL0     C24064   0.287   5.848   4.618 -0.0627  0.4499 -0.3772
  183MOL0     C24065   0.351   5.985   4.639 -0.1993 -0.7701  0.1603
  183MOL0     C24066   0.254   6.079   4.710 -0.1822 -0.2641  0.0711
  183MOL0     C24067   0.119   6.108   4.654 -0.3651  0.0574  0.7255
  183MOL0    Cl24068  -0.004   5.979   4.677  0.0628 -0.2197  0.0597
  183MOL0     C24069   1.035   5.858   4.479  0.4907 -0.9487  0.1809
  183MOL0     C24070   1.153   5.914   4.494 -0.7132  0.4133  0.3978
  183MOL0     O24071   1.404   6.033   4.382 -0.5644  0.3022 -0.1971
  183MOL0     C24072   1.607   6.238   4.443 -0.5418 -0.3270  0.0573
  183MOL0     C24073   1.706   6.330   4.486 -0.1949 -0.1102 -0.4076
  183MOL0     N24074   2.042   6.833   4.517 -0.2751 -0.6151  1.0490
  183MOL0     N24075   2.128   6.907   4.467  0.0773 -0.1856  0.4494
  183MOL0     C24076   3.266   7.086   4.034  0.3772 -0.2688 -0.2899
  183MOL0     C24077   3.404   7.077   4.060 -0.1521 -0.6015 -0.7512
  183MOL0     C24078   3.779   7.182   4.343  0.4083 -0.0312  0.1660
  183MOL0     C24079   3.828   7.168   4.476 -0.4545 -0.7560 -0.1349
  183MOL0     C24080   3.962   7.189   4.506  0.5720  0.3155 -0.4382
  183MOL0     C24081   4.057   7.217   4.403 -1.0002 -0.6922 -0.1752
  183MOL0     O24082   4.193   7.248   4.419  0.2071  0.2354 -0.2261
  183MOL0     C24083   4.245   7.254   4.552 -0.3438 -0.1899  0.6217
  183MOL0     C24084   4.388   7.307   4.529 -0.2484  0.1154 -0.6267
  183MOL0     C24085   4.479   7.261   4.648 -0.0262 -0.8734  1.2145
  183MOL0     C24086   4.631   7.281   4.627 -0.6541 -1.1484  0.6216
  183MOL0     C24087   4.671   7.215   4.504 -0.2498 -0.3291  0.7689
  183MOL0     C24088   4.706   7.133   4.421  0.1630  0.0046  1.0144
  183MOL0     C24089   4.012   7.224   4.272 -0.1820  0.3131 -0.3086
  183MOL0     C24090   3.871   7.201   4.246 -1.0906 -0.0298 -1.0170
  183MOL0     H24091   3.407   7.319   4.298  0.2743  0.6900 -0.4317
  183MOL0     H24092   3.176   7.308   4.268  1.1377  0.3830  0.1457
  183MOL0     H24093   2.945   7.297   4.170  0.4543  0.1791 -0.9257
  183MOL0     H24094   2.996   7.191   4.298  0.5377 -1.3749 -0.7189
  183MOL0     H24095   2.864   7.002   4.200 -1.3715 -1.1042  0.0740
  183MOL0     H24096   2.807   7.100   4.062  0.9026  3.3660 -0.4450
  183MOL0     H24097   2.644   7.071   4.224 -1.7934  2.4550  0.6033
  183MOL0     H24098   2.674   7.244   4.208 -0.6282 -0.4626 -1.8882
  183MOL0     H24099   2.788   7.059   4.424 -0.1419  0.3477  0.4287
  183MOL0     H24100   2.789   7.243   4.432 -3.4418  1.5393  2.4450
  183MOL0     H24101   2.531   7.211   4.444 -0.5787 -1.5634  0.5639
  183MOL0     H24102   2.631   7.192   4.582 -0.1333 -1.1104  0.5334
  183MOL0     H24103   2.645   6.952   4.543  1.4720  2.9038  0.0506
  183MOL0     H24104   2.533   6.977   4.397  1.4299  1.9593 -2.0350
  183MOL0     H24105   2.428   6.882   4.591  1.0943 -0.3391 -3.0646
  183MOL0     H24106   2.452   7.020   4.694 -1.3827 -2.3409  1.2251
  183MOL0     H24107   2.317   7.061   4.433  2.4982  3.4378  0.4168
  183MOL0     H24108   2.289   7.149   4.584 -1.9966 -1.1588  0.9615
  183MOL0     H24109   2.199   6.931   4.782 -3.3981 -2.8305  1.2838
  183MOL0     H24110   1.851   6.764   4.674 -1.1899  0.6380 -0.1715
  183MOL0     H24111   1.905   6.866   4.803  0.5059 -1.1793  1.1933
  183MOL0     H24112   1.893   6.608   4.882  2.3817 -0.5595  2.2253
  183MOL0     H24113   2.050   6.669   4.887  0.8714 -1.0045 -1.1744
  183MOL0     H24114   2.119   6.566   4.663 -0.7358  1.8049 -0.5379
  183MOL0     H24115   2.051   6.448   4.771  0.8322  0.3635 -0.8350
  183MOL0     H24116   1.969   6.433   4.534 -0.1920 -2.6484  0.4807
  183MOL0     H24117   1.878   6.588   4.548  0.9880  0.3525 -0.9102
  183MOL0     H24118   1.647   6.319   4.818 -0.7283  0.8122  0.2568
  183MOL0     H24119   1.456   6.175   4.733 -0.8096 -0.7524 -0.8933
  183MOL0     H24120   1.070   6.225   4.602  3.2493  0.1498 -1.3397
  183MOL0     H24121   0.830   6.104   4.550 -1.3063 -3.6798  1.6648
  183MOL0     H24122   0.834   5.664   4.477  1.3345  1.4202  0.0834
  183MOL0     H24123   0.759   5.750   4.341  0.5854  1.5968  1.1170
  183MOL0     H24124   0.644   5.686   4.613 -2.3373  0.9318  0.5757
  183MOL0     H24125   0.604   5.598   4.462  0.8921  0.4168 -1.2093
  183MOL0     H24126   0.465   5.768   4.394 -2.9366  1.7650  1.7294
  183MOL0     H24127   0.539   5.888   4.495  2.6464 -0.0135  4.1409
  183MOL0     H24128   0.345   5.652   4.561  1.8062  0.0840 -0.4620
  183MOL0     H24129   0.442   5.720   4.690  1.6100  2.1745 -0.2107
  183MOL0     H24130   0.245   5.817   4.714  1.0472 -0.2049 -0.0842
  183MOL0     H24131   0.216   5.854   4.535  1.5675  1.8400 -1.7384
  183MOL0     H24132   0.390   6.028   4.546 -3.0049 -0.2103 -0.8402
  183MOL0     H24133   0.440   5.987   4.703 -0.2786  2.7103  0.3349
  183MOL0     H24134   0.247   6.037   4.811  0.0425  2.2097  1.1833
  183MOL0     H24135   0.303   6.172   4.740 -2.3675  0.2639  2.4785
  183MOL0     H24136   0.127   6.138   4.549  0.3204 -2.7544 -0.1010
  183MOL0     H24137   0.084   6.191   4.717  0.5557  0.0751  1.2176
  183MOL0     H24138   1.042   5.758   4.437 -1.4406  0.7770 -4.9846
  183MOL0     H24139   1.250   5.865   4.488 -0.0307  1.5420  1.7263
  183MOL0     H24140   1.592   6.211   4.338 -1.8023  2.6354 -0.6258
  183MOL0     H24141   1.769   6.381   4.414  0.5902 -0.9061 -0.3062
  183MOL0     H24142   3.222   7.014   3.966 -1.3797 -0.4253  0.9506
  183MOL0     H24143   3.472   7.005   4.016 -0.6375 -1.8876  0.5508
  183MOL0     H24144   3.766   7.155   4.564  2.2733  0.3210  2.1091
  183MOL0     H24145   3.991   7.191   4.611 -1.7507 -0.3288  0.2973
  183MOL0     H24146   4.254   7.148   4.577  1.5845 -0.5097 -1.1183
  183MOL0     H24147   4.182   7.307   4.624 -0.5607  3.1943 -1.8220
  183MOL0     H24148   4.416   7.265   4.432 -1.5059 -0.3463 -0.8223
  183MOL0     H24149   4.388   7.416   4.517  2.9161  0.2441 -0.2580
  183MOL0     H24150   4.477   7.154   4.668  1.6968 -1.1550  0.1257
  183MOL0     H24151   4.445   7.323   4.731 -0.1413  0.6287  0.0822
  183MOL0     H24152   4.660   7.386   4.615 -0.8395 -1.2591 -0.9453
  183MOL0     H24153   4.675   7.239   4.718 -0.0002  0.6940  1.2072
  183MOL0     H24154   4.712   7.055   4.348 -0.1152  2.4944 -1.8678
  183MOL0     H24155   4.067   7.241   4.180 -1.9841  0.0691 -1.4871
  183MOL0     H24156   3.839   7.223   4.145  4.9245 -1.4606 -3.6492
  184MOL0     O24157   0.553  10.646   1.667  0.0371 -0.6388 -0.3490
  184MOL0     C24158   0.632  10.593   1.590 -0.2885 -0.4816  0.4114
  184MOL0     O24159   0.607  10.530   1.476  0.1992  0.5164 -0.4328
  184MOL0     C24160   0.470  10.518   1.443 -0.6697 -0.3796  0.7082
  184MOL0     C24161   0.381  10.433   1.501 -0.7336  0.0888 -1.0895
  184MOL0     C24162   0.260  10.402   1.436 -0.1010  0.4469 -0.5261
  184MOL0     C24163   0.221  10.461   1.314 -0.8737 -0.0661 -0.5137
  184MOL0     O24164   0.109  10.410   1.256  0.3889  0.0679  0.0315
  184MOL0     C24165   0.027  10.490   1.170  0.8310  0.1244  0.1762
  184MOL0     C24166  -0.082  10.411   1.098  0.2405 -1.0151  0.1404
  184MOL0     C24167  -0.199  10.380   1.202 -0.2308  0.2043  0.6832
  184MOL0     C24168  -0.329  10.344   1.134 -0.4079 -0.7058  0.5930
  184MOL0     C24169  -0.435  10.280   1.220  1.0847  0.3092 -0.7498
  184MOL0     C24170  -0.568  10.244   1.145  0.5813 -0.0220 -0.0280
  184MOL0     C24171  -0.655  10.139   1.220 -0.6572 -0.0236  0.3187
  184MOL0     C24172  -0.710  10.186   1.352 -0.1309  0.5109  0.4451
  184MOL0     N24173  -0.857  10.170   1.378 -0.2864  0.5291  0.3764
  184MOL0     C24174  -0.927  10.054   1.385  0.4617  0.6035 -0.5923
  184MOL0     C24175  -1.049  10.098   1.405  0.7750  0.5465  0.2876
  184MOL0     C24176  -1.169   9.999   1.422 -0.5338  0.1871  0.0479
  184MOL0     C24177  -1.306  10.076   1.424  0.6239  0.5522  0.1475
  184MOL0     C24178  -1.331  10.119   1.282  0.2140 -0.1291 -0.3742
  184MOL0     C24179  -1.474  10.183   1.278  0.5566 -0.3840  0.6015
  184MOL0     O24180  -1.563  10.133   1.386 -0.1081  0.5922  0.2702
  184MOL0     C24181  -1.703  10.137   1.376 -0.5328 -0.2685  0.6550
  184MOL0     C24182  -1.773  10.068   1.471  1.0895 -0.1671 -1.0860
  184MOL0     C24183  -1.918  10.065   1.468  0.5871  0.0093 -0.0610
  184MOL0     C24184  -1.988  10.130   1.370 -0.0634 -0.6721 -0.4243
  184MOL0     C24185  -2.130  10.121   1.354 -0.1421 -1.2420 -0.4420
  184MOL0     O24186  -2.192  10.233   1.317 -0.2183 -0.3268  0.7303
  184MOL0     C24187  -2.322  10.228   1.290 -0.1988 -0.1465  1.0478
  184MOL0     C24188  -2.415  10.228   1.394  0.6551 -0.5446  0.4348
  184MOL0     C24189  -2.559  10.227   1.374  0.3651  0.4577 -0.0530
  184MOL0     C24190  -2.601  10.224   1.245 -1.4605  0.2565 -0.2249
  184MOL0     O24191  -2.731  10.233   1.224  0.4851  1.2477  0.8974
  184MOL0     C24192  -2.775  10.357   1.173  0.5702  0.4099 -0.9448
  184MOL0     C24193  -2.926  10.345   1.158  0.1968  0.4584 -0.2833
  184MOL0     C24194  -2.988  10.483   1.168 -0.7408 -0.1999  0.0612
  184MOL0     C24195  -3.144  10.477   1.156 -0.8669  0.0624  0.4258
  184MOL0     C24196  -3.199  10.620   1.152  0.7615  0.4658  0.9466
  184MOL0     C24197  -3.348  10.625   1.196 -0.6206 -0.2500 -0.7022
  184MOL0     C24198  -3.389  10.773   1.208  0.3682  0.1505  0.3649
  184MOL0     C24199  -3.514  10.768   1.299 -0.3510 -0.5929 -0.8319
  184MOL0    Cl24200  -3.639  10.672   1.222  0.1435  0.0077 -0.3346
  184MOL0     C24201  -2.508  10.228   1.140 -0.4201 -0.1042  0.3987
  184MOL0     C24202  -2.366  10.227   1.163  0.0077 -0.2657 -0.1006
  184MOL0     O24203  -2.184  10.012   1.375  0.3007  1.0530 -0.1529
  184MOL0     C24204  -1.911  10.204   1.281  0.4450 -0.1624  0.2782
  184MOL0     C24205  -1.772  10.213   1.283  0.2343 -0.5644  0.2008
  184MOL0     N24206  -1.060  10.240   1.427 -0.1153 -0.2234 -0.6816
  184MOL0     N24207  -0.942  10.281   1.395 -0.0498 -0.2128 -0.2763
  184MOL0     C24208   0.305  10.563   1.265 -0.0225 -0.0435  0.3496
  184MOL0     C24209   0.428  10.590   1.330  0.4450 -0.6462  0.3793
  184MOL0     C24210   0.774  10.607   1.618  0.8884 -0.0085  0.1334
  184MOL0     C24211   0.867  10.520   1.566 -1.0855  0.3337  0.5213
  184MOL0     C24212   1.002  10.523   1.596 -0.1864 -0.0367 -0.4431
  184MOL0     C24213   1.045  10.609   1.699 -0.0855 -0.6936  1.4118
  184MOL0     O24214   1.179  10.604   1.731  0.4901 -0.6208  0.0954
  184MOL0     C24215   1.240  10.717   1.798  0.5442  0.5217 -0.4765
  184MOL0     C24216   1.219  10.723   1.955  0.4900 -0.0200 -0.2100
  184MOL0     C24217   1.256  10.589   2.025  0.3128  0.4524  0.3293
  184MOL0     C24218   1.214  10.590   2.171  0.2284  0.0838 -0.5982
  184MOL0     C24219   1.061  10.584   2.177 -0.2952  0.7118 -0.4919
  184MOL0     C24220   0.938  10.573   2.173  0.0243  0.1651 -0.6145
  184MOL0     C24221   0.954  10.708   1.738 -0.0214 -0.7256  0.5114
  184MOL0     C24222   0.819  10.701   1.704  0.9223  0.4080  0.0437
  184MOL0     H24223   0.426  10.380   1.585 -0.0011  0.2771 -1.3548
  184MOL0     H24224   0.203  10.316   1.470  1.1498 -0.1698  0.1065
  184MOL0     H24225   0.084  10.541   1.091  0.9177 -1.1531 -0.6049
  184MOL0     H24226  -0.020  10.572   1.225  1.4493  2.0464 -1.9958
  184MOL0     H24227  -0.052  10.319   1.047 -3.2584 -2.0095 -0.3907
  184MOL0     H24228  -0.129  10.474   1.022 -1.0987 -0.2618  1.5374
  184MOL0     H24229  -0.205  10.462   1.274 -1.7497 -0.1584  1.0204
  184MOL0     H24230  -0.168  10.292   1.260 -0.3060 -0.9234 -0.9133
  184MOL0     H24231  -0.381  10.434   1.101  0.2661 -0.4807  0.1249
  184MOL0     H24232  -0.322  10.284   1.042 -1.9030 -0.0479  0.0139
  184MOL0     H24233  -0.461  10.344   1.305  1.9231 -1.3152  0.7894
  184MOL0     H24234  -0.399  10.180   1.248 -1.1381 -0.5182 -0.6089
  184MOL0     H24235  -0.541  10.206   1.046 -1.3474  1.0580 -1.0248
  184MOL0     H24236  -0.626  10.334   1.123  2.5228  0.5598 -3.4151
  184MOL0     H24237  -0.741  10.124   1.155 -2.7900  2.1459  2.4232
  184MOL0     H24238  -0.608  10.040   1.219 -2.6902 -1.0883 -2.8990
  184MOL0     H24239  -0.680  10.292   1.359  0.2433  0.5226 -0.9758
  184MOL0     H24240  -0.660  10.127   1.429 -1.0694  0.5398  1.0823
  184MOL0     H24241  -0.890   9.954   1.365 -2.0737 -0.5608  0.1035
  184MOL0     H24242  -1.158   9.949   1.519  2.4248  0.0904 -0.2372
  184MOL0     H24243  -1.188   9.925   1.343 -2.3873  2.4088 -1.7378
  184MOL0     H24244  -1.321  10.162   1.490 -0.0674  0.6280 -0.1025
  184MOL0     H24245  -1.374   9.999   1.461  1.2155 -1.8525 -3.2602
  184MOL0     H24246  -1.258  10.192   1.245  0.3269  0.3157  0.6955
  184MOL0     H24247  -1.332  10.032   1.216  0.0961  0.9044 -1.7786
  184MOL0     H24248  -1.522  10.163   1.182 -4.2059  0.0463  2.6108
  184MOL0     H24249  -1.466  10.292   1.285 -0.4474 -0.1931 -0.8581
  184MOL0     H24250  -1.728  10.031   1.562  1.1297  0.4002 -0.8739
  184MOL0     H24251  -1.969  10.008   1.546  2.4229 -2.7162 -0.7038
  184MOL0     H24252  -2.375  10.231   1.495 -1.1094  0.7970  1.1424
  184MOL0     H24253  -2.632  10.217   1.454  2.0949  0.7684  1.6209
  184MOL0     H24254  -2.736  10.375   1.072 -1.1648 -2.5365 -2.2814
  184MOL0     H24255  -2.755  10.436   1.246  1.4345 -1.6949  1.2335
  184MOL0     H24256  -2.965  10.289   1.244 -0.5520  2.1098  0.5050
  184MOL0     H24257  -2.949  10.298   1.062 -1.1093  0.3397  0.0798
  184MOL0     H24258  -2.949  10.547   1.088  2.3852 -1.0115  0.8056
  184MOL0     H24259  -2.961  10.525   1.266 -1.9240  0.0108  0.3148
  184MOL0     H24260  -3.176  10.423   1.067  1.2660 -0.2144 -0.2422
  184MOL0     H24261  -3.183  10.426   1.245  0.5281  0.6889  1.4265
  184MOL0     H24262  -3.205  10.648   1.046  2.9592  0.5948  0.8102
  184MOL0     H24263  -3.139  10.688   1.212 -1.3183  0.8716  2.7157
  184MOL0     H24264  -3.352  10.575   1.293 -3.3945 -0.3285 -0.7836
  184MOL0     H24265  -3.408  10.562   1.130 -1.8471 -0.2477  0.3727
  184MOL0     H24266  -3.304  10.836   1.236  0.2362  0.8966 -0.8310
  184MOL0     H24267  -3.426  10.818   1.115  0.6291  1.5976  0.9365
  184MOL0     H24268  -3.542  10.873   1.312 -1.1470 -0.9142  0.1693
  184MOL0     H24269  -3.487  10.730   1.398  1.3090  2.0963 -0.1279
  184MOL0     H24270  -2.546  10.234   1.038  1.2304  0.5986 -0.2148
  184MOL0     H24271  -2.303  10.227   1.075 -0.7811  4.2837 -0.9148
  184MOL0     H24272  -1.961  10.249   1.195  1.1584 -0.4443 -0.2926
  184MOL0     H24273  -1.723  10.271   1.205 -1.2296 -0.3275 -0.5665
  184MOL0     H24274   0.278  10.604   1.168  1.1879 -0.4478 -0.1873
  184MOL0     H24275   0.504  10.651   1.282 -1.1905 -1.1041 -3.0813
  184MOL0     H24276   0.839  10.445   1.493  0.1949  0.8956 -0.5954
  184MOL0     H24277   1.067  10.446   1.557  1.4488 -0.1140  2.2121
  184MOL0     H24278   1.204  10.814   1.764 -0.3404  0.3681  0.0110
  184MOL0     H24279   1.350  10.714   1.795  0.7735  1.4667  2.7812
  184MOL0     H24280   1.285  10.799   1.998  0.5782 -0.4576  0.4398
  184MOL0     H24281   1.117  10.755   1.979 -0.0004 -2.1135  0.7136
  184MOL0     H24282   1.363  10.566   2.017  0.5294  1.3725  0.4553
  184MOL0     H24283   1.208  10.502   1.979 -1.3713  0.8703  1.2386
  184MOL0     H24284   1.242  10.495   2.219 -2.5006  0.4472  2.0761
  184MOL0     H24285   1.257  10.674   2.226  0.2817 -0.1420 -0.2884
  184MOL0     H24286   0.831  10.581   2.167 -0.1243  4.2742  2.7987
  184MOL0     H24287   0.969  10.794   1.802 -1.6301  2.7939 -3.3683
  184MOL0     H24288   0.753  10.778   1.742 -1.6766 -1.8298  0.4069
  185MOL0     O24289   7.564  10.986   9.271 -0.2034  0.1259 -0.0323
  185MOL0     C24290   7.529  10.976   9.390  0.6291  0.3529  0.4326
  185MOL0     O24291   7.615  10.942   9.489 -0.0804 -0.0418 -0.2069
  185MOL0     C24292   7.749  10.921   9.457 -0.4918  0.2626 -0.1485
  185MOL0     C24293   7.789  10.819   9.368 -0.4977 -0.0613  0.1793
  185MOL0     C24294   7.928  10.788   9.356  0.6151  0.3927  0.3096
  185MOL0     C24295   8.026  10.877   9.404  0.6415  1.1994 -0.5125
  185MOL0     O24296   8.152  10.836   9.380  0.2439 -0.0970 -0.2288
  185MOL0     C24297   8.257  10.923   9.406 -0.5143  0.2548 -0.4791
  185MOL0     C24298   8.388  10.854   9.427 -0.8447  0.0961 -0.8214
  185MOL0     C24299   8.505  10.948   9.436  0.3216 -0.0116  0.1816
  185MOL0     C24300   8.633  10.881   9.478  0.1986  0.8091  0.5046
  185MOL0     C24301   8.769  10.965   9.461  0.8587  0.0502 -1.2826
  185MOL0     C24302   8.878  10.895   9.540  0.5518  0.6494 -0.2754
  185MOL0     C24303   9.006  10.950   9.486 -0.0091 -0.3774  0.3546
  185MOL0     C24304   9.130  10.902   9.561 -0.7372 -0.3367  0.3147
  185MOL0     N24305   9.131  10.936   9.703 -1.0816  0.8201 -0.4719
  185MOL0     C24306   9.159  11.052   9.764 -1.3029  0.3332 -0.2322
  185MOL0     C24307   9.163  11.038   9.899 -0.3079 -0.4720  0.1153
  185MOL0     C24308   9.182  11.152  10.007 -0.5849 -0.2058  0.2671
  185MOL0     C24309   9.050  11.222  10.037  0.7707 -0.1017 -0.8028
  185MOL0     C24310   8.957  11.257   9.917 -0.9440 -0.5168  0.0349
  185MOL0     C24311   8.828  11.172   9.903  0.8569  0.3598 -0.1934
  185MOL0     O24312   8.744  11.238   9.804  0.3902 -0.2897 -0.6970
  185MOL0     C24313   8.609  11.217   9.812  0.5805  0.3572  0.9046
  185MOL0     C24314   8.544  11.094   9.838 -0.1547  0.3544 -0.5083
  185MOL0     C24315   8.410  11.083   9.844 -0.9579 -0.0866 -0.1407
  185MOL0     C24316   8.327  11.187   9.810  0.6622 -0.3730  0.0476
  185MOL0     C24317   8.180  11.162   9.806  0.7898 -0.0319  0.7101
  185MOL0     O24318   8.101  11.264   9.775  0.5871 -0.4805  0.0317
  185MOL0     C24319   7.961  11.272   9.785 -0.3736  0.1260 -0.6622
  185MOL0     C24320   7.914  11.405   9.768  0.8843  0.0158 -0.4543
  185MOL0     C24321   7.778  11.434   9.797 -0.4852  1.0137 -0.6694
  185MOL0     C24322   7.687  11.330   9.826  0.2139  0.0330 -0.0095
  185MOL0     O24323   7.549  11.364   9.850 -0.1071 -0.2088 -0.5396
  185MOL0     C24324   7.477  11.267   9.926 -0.2292  0.3837 -0.4307
  185MOL0     C24325   7.349  11.345   9.947  0.0714  0.3680 -0.7552
  185MOL0     C24326   7.253  11.243  10.015 -0.2832 -0.3566 -0.3958
  185MOL0     C24327   7.127  11.316  10.037  0.4848 -0.4634 -0.7666
  185MOL0     C24328   7.027  11.232  10.121 -0.1474  0.4767  0.2977
  185MOL0     C24329   6.877  11.281  10.118 -0.0672 -1.0707  0.2796
  185MOL0     C24330   6.805  11.190  10.216 -0.1903  0.4976  0.3606
  185MOL0     C24331   6.658  11.200  10.222  0.1901 -0.3664 -0.0962
  185MOL0    Cl24332   6.599  11.123  10.072  0.4115  0.2354 -0.5870
  185MOL0     C24333   7.744  11.203   9.845  0.2042 -0.1643  0.3897
  185MOL0     C24334   7.876  11.177   9.833  0.5444  0.7008 -0.0179
  185MOL0     O24335   8.142  11.053   9.844 -0.6301 -0.4043  0.2767
  185MOL0     C24336   8.381  11.308   9.786 -0.7432 -0.0415  0.8328
  185MOL0     C24337   8.522  11.323   9.785 -0.8845  0.1944  0.0158
  185MOL0     N24338   9.116  10.910   9.915 -0.3759 -0.2782  0.0591
  185MOL0     N24339   9.094  10.854   9.804 -1.2136 -0.3192 -0.2193
  185MOL0     C24340   7.982  10.983   9.493  0.1153 -0.5643 -1.2006
  185MOL0     C24341   7.841  11.001   9.508  0.7114  0.1159 -0.7375
  185MOL0     C24342   7.388  10.996   9.419  0.1416 -0.0018 -0.5338
  185MOL0     C24343   7.336  10.995   9.554  0.6562 -0.4739  0.3210
  185MOL0     C24344   7.196  10.997   9.575  1.0568  0.3228  0.5645
  185MOL0     C24345   7.105  11.009   9.458 -0.2827 -0.3630  0.2323
  185MOL0     O24346   6.970  11.012   9.461  0.1599  0.2423  1.1782
  185MOL0     C24347   6.906  11.009   9.592  0.2342  0.1890 -0.7372
  185MOL0     C24348   6.753  11.015   9.575  0.7008 -0.6000 -0.4667
  185MOL0     C24349   6.711  11.150   9.516 -0.0836 -0.2555  0.1054
  185MOL0     C24350   6.560  11.164   9.479 -1.2235 -0.5655  0.2308
  185MOL0     C24351   6.472  11.154   9.598  0.6097  0.9644  0.2036
  185MOL0     C24352   6.398  11.150   9.698  0.1547 -0.4015  0.3210
  185MOL0     C24353   7.153  11.019   9.331 -0.4916  0.0138 -0.1661
  185MOL0     C24354   7.290  11.005   9.314 -0.1765 -0.0814  0.2332
  185MOL0     H24355   7.724  10.757   9.306  0.4674 -1.0912  0.1647
  185MOL0     H24356   7.963  10.702   9.300 -1.1277 -1.9106  2.5231
  185MOL0     H24357   8.239  10.980   9.497  1.6906  0.3188 -0.0127
  185MOL0     H24358   8.268  10.996   9.324 -2.1747  1.8665  0.6540
  185MOL0     H24359   8.404  10.767   9.363  0.4638 -2.3947  2.5644
  185MOL0     H24360   8.382  10.796   9.520 -1.8533  1.3952 -0.0504
  185MOL0     H24361   8.487  11.029   9.507  1.0700 -0.1970  0.5971
  185MOL0     H24362   8.516  10.996   9.338 -0.3689  1.6105  0.8507
  185MOL0     H24363   8.626  10.849   9.582  1.3671 -1.2413  0.0093
  185MOL0     H24364   8.658  10.789   9.424  0.6735  0.6653  0.9608
  185MOL0     H24365   8.732  11.063   9.492 -0.5876  0.2236 -3.3569
  185MOL0     H24366   8.792  10.981   9.356  2.7802  3.2529 -0.5068
  185MOL0     H24367   8.881  10.788   9.517 -0.4650  0.9475 -2.0471
  185MOL0     H24368   8.864  10.906   9.648 -2.0435 -1.7560 -0.2452
  185MOL0     H24369   9.020  10.941   9.378 -1.4296  2.4139 -0.1575
  185MOL0     H24370   9.013  11.058   9.504  1.7993 -0.8301  3.0904
  185MOL0     H24371   9.218  10.948   9.516  1.8235 -1.3806  3.8669
  185MOL0     H24372   9.148  10.795   9.554  3.0095  0.1266  0.8127
  185MOL0     H24373   9.172  11.142   9.704  0.9090  0.2722  0.0754
  185MOL0     H24374   9.254  11.227   9.973 -1.5205  0.6650  0.1269
  185MOL0     H24375   9.225  11.113  10.099  4.0932  0.9063 -1.2086
  185MOL0     H24376   9.065  11.308  10.103 -0.8708 -0.7762  0.5305
  185MOL0     H24377   8.996  11.155  10.104  2.6755  1.5354  2.6624
  185MOL0     H24378   8.907  11.352   9.938 -3.0044 -1.2066 -1.4136
  185MOL0     H24379   9.020  11.270   9.829  0.1807  3.3540  1.2195
  185MOL0     H24380   8.773  11.172   9.997 -1.7254 -1.3201 -1.5505
  185MOL0     H24381   8.852  11.069   9.872 -0.7645  0.8064 -3.4286
  185MOL0     H24382   8.600  11.002   9.851 -2.4880 -1.2029 -0.9493
  185MOL0     H24383   8.373  10.990   9.885 -0.1221 -0.6327 -0.5947
  185MOL0     H24384   7.984  11.484   9.742  1.6974 -0.8724 -1.0190
  185MOL0     H24385   7.740  11.535   9.788 -0.4051  1.0736 -0.3581
  185MOL0     H24386   7.525  11.244  10.022 -0.9138 -1.2069 -0.4406
  185MOL0     H24387   7.458  11.172   9.877 -0.2264 -0.2683  0.8003
  185MOL0     H24388   7.307  11.376   9.851 -1.6324 -1.6319 -0.7160
  185MOL0     H24389   7.367  11.438  10.002  0.6989 -0.4372  0.4507
  185MOL0     H24390   7.284  11.211  10.114 -1.1250  0.3245  0.1040
  185MOL0     H24391   7.237  11.151   9.958  1.6516 -1.6416  1.0080
  185MOL0     H24392   7.145  11.409  10.091 -0.1876 -1.4732  1.3284
  185MOL0     H24393   7.092  11.346   9.938  0.8149  2.2076 -0.1465
  185MOL0     H24394   7.073  11.234  10.221  1.0377  2.2121 -0.2268
  185MOL0     H24395   7.025  11.127  10.093 -1.9819  0.3620  0.7475
  185MOL0     H24396   6.845  11.273  10.014  0.5432  2.8299 -0.3451
  185MOL0     H24397   6.861  11.384  10.151 -0.3718 -0.4690 -1.6141
  185MOL0     H24398   6.821  11.089  10.177  1.0433  1.7308 -2.6676
  185MOL0     H24399   6.856  11.204  10.311 -1.2513 -3.1559  1.6452
  185MOL0     H24400   6.622  11.304  10.219  1.6692  0.3494  2.8307
  185MOL0     H24401   6.617  11.151  10.311 -0.1025 -0.0015 -0.0256
  185MOL0     H24402   7.688  11.111   9.865  0.8776 -0.3401  1.5563
  185MOL0     H24403   7.911  11.082   9.873  1.6038  1.0111 -0.1624
  185MOL0     H24404   8.318  11.393   9.767  0.1700  0.8537  1.6846
  185MOL0     H24405   8.566  11.418   9.758 -0.6570  0.7478  2.1135
  185MOL0     H24406   8.051  11.051   9.543 -2.9186  0.8774  1.4100
  185MOL0     H24407   7.804  11.085   9.565  0.7915  1.1077 -2.1105
  185MOL0     H24408   7.396  10.979   9.643  0.4923 -0.9795  0.3438
  185MOL0     H24409   7.164  10.969   9.675  2.9300  0.2701  1.1877
  185MOL0     H24410   6.939  11.083   9.665 -0.7933  0.4093 -0.4748
  185MOL0     H24411   6.922  10.909   9.633 -1.8799 -0.1954 -0.7239
  185MOL0     H24412   6.719  10.929   9.517 -1.0934 -0.4949  0.3725
  185MOL0     H24413   6.716  11.016   9.678 -0.1820 -0.9863 -0.7749
  185MOL0     H24414   6.768  11.162   9.423 -1.8698 -0.4868 -1.0807
  185MOL0     H24415   6.741  11.219   9.595  1.2836 -2.2776  1.4476
  185MOL0     H24416   6.543  11.264   9.437 -0.6865  0.8042  3.0303
  185MOL0     H24417   6.533  11.084   9.410  1.8534 -2.0481  0.5486
  185MOL0     H24418   6.335  11.182   9.779 -1.4384 -0.0661 -0.9953
  185MOL0     H24419   7.089  11.030   9.244 -0.8608 -3.3149 -0.4732
  185MOL0     H24420   7.326  11.007   9.211  0.4310 -0.4937  0.4296
  186MOL0     O24421   3.984   2.544   9.489  0.4629 -0.6233 -0.0512
  186MOL0     C24422   3.993   2.520   9.369  0.2714  0.2051  0.0480
  186MOL0     O24423   3.900   2.451   9.289  0.3838  0.2972  0.0327
  186MOL0     C24424   3.790   2.407   9.357  0.4660 -0.1264  0.5333
  186MOL0     C24425   3.807   2.300   9.449  0.9339 -0.4086 -0.7562
  186MOL0     C24426   3.699   2.253   9.531  0.8309  1.2479 -0.1012
  186MOL0     C24427   3.575   2.304   9.503  0.4768  0.4013 -1.0890
  186MOL0     O24428   3.475   2.226   9.568 -0.1241 -0.4269 -0.1330
  186MOL0     C24429   3.345   2.264   9.545  0.6163  0.2994 -0.4511
  186MOL0     C24430   3.251   2.150   9.599 -0.4194 -0.2643 -0.9559
  186MOL0     C24431   3.100   2.148   9.560 -0.4412 -0.1608  0.4152
  186MOL0     C24432   3.016   2.056   9.654  0.4409  0.8809 -0.5921
  186MOL0     C24433   3.064   1.912   9.649  0.0350  0.7350  0.3984
  186MOL0     C24434   2.952   1.835   9.716  0.2068  0.0308 -0.0525
  186MOL0     C24435   3.003   1.698   9.743  0.1105 -0.2329  0.5115
  186MOL0     C24436   2.890   1.604   9.779 -0.1900  0.1785 -0.5533
  186MOL0     N24437   2.813   1.642   9.902 -1.1855  0.6587  0.0322
  186MOL0     C24438   2.842   1.580  10.025 -0.1457 -0.0969  0.2015
  186MOL0     C24439   2.732   1.616  10.100  0.4993  0.4404 -0.0816
  186MOL0     C24440   2.699   1.544  10.233 -0.6754 -0.0135  1.1640
  186MOL0     C24441   2.686   1.649  10.351  0.4774  0.0129 -0.5062
  186MOL0     C24442   2.549   1.727  10.354  0.5120  0.7776  0.2088
  186MOL0     C24443   2.427   1.651  10.416  0.3168  0.2394 -0.3480
  186MOL0     O24444   2.445   1.639  10.563  0.2722  0.4116  0.3431
  186MOL0     C24445   2.335   1.595  10.636  0.5024 -0.2269 -0.0421
  186MOL0     C24446   2.218   1.525  10.592 -0.3345 -0.0173  0.4892
  186MOL0     C24447   2.115   1.482  10.676 -0.0973 -0.3652 -0.2452
  186MOL0     C24448   2.107   1.535  10.805 -0.1972 -0.3843  0.5125
  186MOL0     C24449   1.993   1.505  10.896  0.0537 -0.2726 -0.2227
  186MOL0     O24450   1.990   1.572  11.011 -0.2626  0.9849 -0.2062
  186MOL0     C24451   1.879   1.560  11.088 -0.5805 -0.1738  1.2947
  186MOL0     C24452   1.784   1.669  11.084 -0.3787  0.3337  0.8958
  186MOL0     C24453   1.665   1.662  11.142  0.1028  0.3396  0.3743
  186MOL0     C24454   1.634   1.554  11.218 -0.5429  0.4281 -0.1255
  186MOL0     O24455   1.507   1.542  11.266 -0.1283 -0.1138 -0.3200
  186MOL0     C24456   1.479   1.469  11.390 -0.5923  0.1016 -0.8794
  186MOL0     C24457   1.334   1.496  11.435 -0.1402  0.3168  0.0760
  186MOL0     C24458   1.238   1.418  11.344  0.3877 -0.1441 -0.4930
  186MOL0     C24459   1.097   1.434  11.407 -0.2860  0.7865 -0.7590
  186MOL0     C24460   1.018   1.310  11.359  0.4551  0.4040 -0.7327
  186MOL0     C24461   0.875   1.330  11.401  0.1661 -0.0248  0.0042
  186MOL0     C24462   0.777   1.217  11.344 -0.5486  0.1074  0.2357
  186MOL0     C24463   0.641   1.227  11.415 -0.3333 -1.3696 -0.0406
  186MOL0    Cl24464   0.555   1.366  11.325  0.2505 -0.1593 -0.5956
  186MOL0     C24465   1.721   1.443  11.231 -0.1194  0.2242  0.3395
  186MOL0     C24466   1.846   1.449  11.169 -0.6142 -0.5606  0.3936
  186MOL0     O24467   1.898   1.440  10.851 -0.3696 -0.1643 -0.0853
  186MOL0     C24468   2.216   1.618  10.856 -0.6339  0.4122  0.3700
  186MOL0     C24469   2.329   1.638  10.773 -0.7094 -0.5662 -0.1155
  186MOL0     N24470   2.644   1.684  10.030 -0.5839 -0.0115  0.3344
  186MOL0     N24471   2.698   1.710   9.914  0.1150  0.1553 -0.2250
  186MOL0     C24472   3.555   2.413   9.415 -0.0147 -0.8333  0.1742
  186MOL0     C24473   3.665   2.463   9.346  0.5502  0.2542 -0.1694
  186MOL0     C24474   4.124   2.551   9.301  0.1677 -0.6929 -0.0730
  186MOL0     C24475   4.237   2.604   9.370 -0.3590 -0.1084 -0.8158
  186MOL0     C24476   4.363   2.616   9.306  0.3481 -0.6077  0.7318
  186MOL0     C24477   4.385   2.584   9.174 -0.4285 -0.2717 -0.0094
  186MOL0     O24478   4.505   2.606   9.096  0.3190 -0.6937 -0.0851
  186MOL0     C24479   4.627   2.627   9.164 -0.3047  0.0368 -0.6094
  186MOL0     C24480   4.732   2.660   9.067  0.0914  0.7096  0.2472
  186MOL0     C24481   4.735   2.589   8.932  0.5448  0.1493 -0.5355
  186MOL0     C24482   4.831   2.651   8.831 -0.2785 -0.0279  0.1749
  186MOL0     C24483   4.969   2.663   8.890 -0.0548  0.1194 -0.2565
  186MOL0     C24484   5.080   2.671   8.939 -0.4301 -0.9495  0.9776
  186MOL0     C24485   4.277   2.519   9.109 -0.2141 -0.0705 -0.1666
  186MOL0     C24486   4.157   2.501   9.174  0.6397 -0.2847 -0.0844
  186MOL0     H24487   3.908   2.265   9.469  0.3189 -2.1128 -0.4438
  186MOL0     H24488   3.716   2.174   9.604  1.3883  2.2310  0.8773
  186MOL0     H24489   3.322   2.274   9.439  0.6897  0.3453 -0.4624
  186MOL0     H24490   3.323   2.356   9.601 -0.7122 -1.1046  1.4714
  186MOL0     H24491   3.260   2.156   9.708  2.9202 -0.6013 -1.1100
  186MOL0     H24492   3.309   2.063   9.568  0.4874  0.4511 -1.3310
  186MOL0     H24493   3.088   2.129   9.453 -0.9716 -0.7049  0.5662
  186MOL0     H24494   3.063   2.250   9.566  3.3031  1.7092 -3.2950
  186MOL0     H24495   3.024   2.086   9.759 -1.0081  0.2551 -0.2768
  186MOL0     H24496   2.909   2.063   9.632  1.0334  1.7490 -3.6748
  186MOL0     H24497   3.158   1.899   9.703  1.3923 -1.3053 -2.2462
  186MOL0     H24498   3.069   1.865   9.550 -0.7500 -0.3748  0.8657
  186MOL0     H24499   2.868   1.841   9.646  0.6527  3.4166 -0.4708
  186MOL0     H24500   2.922   1.876   9.812 -0.4052  0.1533 -0.2949
  186MOL0     H24501   3.059   1.649   9.662 -1.1194  0.8733 -1.0852
  186MOL0     H24502   3.064   1.692   9.833 -0.1868 -1.3063  0.6530
  186MOL0     H24503   2.929   1.502   9.784 -1.2156 -0.3675 -2.4045
  186MOL0     H24504   2.818   1.593   9.697 -2.1140  0.3747  1.0261
  186MOL0     H24505   2.928   1.516  10.044 -0.2160  0.2992  2.0050
  186MOL0     H24506   2.766   1.458  10.243  0.2890  0.2075 -2.1186
  186MOL0     H24507   2.602   1.495  10.225 -0.1521 -1.1116  1.4083
  186MOL0     H24508   2.771   1.715  10.330 -0.5081  1.8766  1.0335
  186MOL0     H24509   2.720   1.606  10.446  0.4890  1.2542  0.0705
  186MOL0     H24510   2.569   1.817  10.412  0.8613  1.5525 -1.0740
  186MOL0     H24511   2.529   1.766  10.254 -0.8433  0.6722  0.4173
  186MOL0     H24512   2.407   1.547  10.389 -0.7237  0.5098 -0.6790
  186MOL0     H24513   2.336   1.703  10.384 -0.2023  0.3898  1.3117
  186MOL0     H24514   2.213   1.495  10.488  0.2831  3.3584 -0.6601
  186MOL0     H24515   2.046   1.409  10.636 -1.5329  0.4326  0.6784
  186MOL0     H24516   1.806   1.757  11.024 -0.8981 -1.2981 -1.8703
  186MOL0     H24517   1.589   1.735  11.115  1.0261  0.8996 -0.7641
  186MOL0     H24518   1.538   1.505  11.474 -0.3653 -0.0988 -0.9509
  186MOL0     H24519   1.495   1.361  11.382 -3.0841 -0.3757 -0.3148
  186MOL0     H24520   1.324   1.604  11.419 -2.2428  0.0987 -0.4102
  186MOL0     H24521   1.320   1.467  11.539  2.0106 -1.9099 -0.1636
  186MOL0     H24522   1.263   1.312  11.339 -0.8555 -0.4246 -0.9691
  186MOL0     H24523   1.238   1.444  11.238  0.5617 -1.4020 -0.8179
  186MOL0     H24524   1.105   1.460  11.513  1.0767  1.5895 -1.0313
  186MOL0     H24525   1.043   1.518  11.363 -0.2636  1.1958 -0.0157
  186MOL0     H24526   1.051   1.217  11.407 -0.8093  0.7390  0.8904
  186MOL0     H24527   1.042   1.287  11.254 -0.3350  0.6261 -0.9657
  186MOL0     H24528   0.836   1.424  11.361  0.6916  0.6353  1.0241
  186MOL0     H24529   0.867   1.335  11.509  1.2515  0.9586  0.0592
  186MOL0     H24530   0.757   1.232  11.237  2.2432  2.3269 -0.1123
  186MOL0     H24531   0.819   1.122  11.378 -3.9737 -1.2316  1.1105
  186MOL0     H24532   0.654   1.253  11.521 -1.2118  3.7561 -0.9109
  186MOL0     H24533   0.590   1.131  11.404  0.8103 -1.9345 -0.5755
  186MOL0     H24534   1.712   1.356  11.294  1.6926 -0.2975 -0.0596
  186MOL0     H24535   1.921   1.371  11.176 -0.2862 -0.3428 -0.5802
  186MOL0     H24536   2.212   1.647  10.961  1.5413 -2.5213  1.3866
  186MOL0     H24537   2.416   1.694  10.807 -1.1068  0.8413 -1.3151
  186MOL0     H24538   3.458   2.460   9.419 -0.3110 -1.4902  1.0094
  186MOL0     H24539   3.649   2.548   9.280  1.6428  0.2279 -0.4898
  186MOL0     H24540   4.214   2.638   9.471  0.6022 -0.9125 -0.3071
  186MOL0     H24541   4.448   2.653   9.362 -0.5341  0.6881  1.2620
  186MOL0     H24542   4.665   2.541   9.220  0.2310  1.0987  0.7382
  186MOL0     H24543   4.614   2.712   9.232 -2.1399 -2.4730  2.4614
  186MOL0     H24544   4.735   2.765   9.039  0.5621  1.0840  1.6373
  186MOL0     H24545   4.822   2.649   9.127 -0.1759  0.1535  0.5600
  186MOL0     H24546   4.634   2.595   8.891  0.0654 -2.2854  0.1261
  186MOL0     H24547   4.755   2.482   8.935 -2.1977 -0.4361 -0.1803
  186MOL0     H24548   4.844   2.592   8.739 -1.7669 -0.2587  0.0847
  186MOL0     H24549   4.800   2.749   8.794  0.0187 -1.2594 -3.7967
  186MOL0     H24550   5.176   2.681   8.986 -0.0616 -0.0144  0.0697
  186MOL0     H24551   4.299   2.476   9.012 -0.7237 -4.6107  1.4668
  186MOL0     H24552   4.085   2.448   9.112 -0.1611  2.1669 -1.3831
  187MOL0     O24553  10.479   5.087   8.746 -0.0572  0.0345  0.1086
  187MOL0     C24554  10.472   5.203   8.770  0.2757 -0.5380 -0.4336
  187MOL0     O24555  10.363   5.279   8.777  0.3600 -0.1278 -0.0307
  187MOL0     C24556  10.238   5.208   8.769 -0.1906  0.3695 -0.8112
  187MOL0     C24557  10.209   5.107   8.873 -0.3620  0.3147 -0.0276
  187MOL0     C24558  10.080   5.043   8.864  0.2602 -0.8954 -0.0812
  187MOL0     C24559   9.978   5.084   8.778 -0.4807  0.7960  0.2597
  187MOL0     O24560   9.851   5.032   8.775  0.1819 -0.2369  0.0008
  187MOL0     C24561   9.821   4.909   8.836  0.2225 -0.7551 -0.4274
  187MOL0     C24562   9.705   4.851   8.751  0.4333 -0.5804  0.7065
  187MOL0     C24563   9.574   4.923   8.768 -0.9699 -0.2474  0.1365
  187MOL0     C24564   9.514   4.918   8.909  0.3017  0.2855  0.2678
  187MOL0     C24565   9.359   4.966   8.900 -0.3747 -0.4314 -1.0999
  187MOL0     C24566   9.316   4.976   9.050  0.5091 -0.1807  0.4629
  187MOL0     C24567   9.199   5.073   9.071  1.2639  0.4643  0.8973
  187MOL0     C24568   9.125   5.043   9.204  0.0447 -0.0098 -0.0920
  187MOL0     N24569   9.049   5.159   9.259 -0.1338  0.5396  0.0754
  187MOL0     C24570   8.930   5.210   9.208 -0.0053 -0.8630 -0.2990
  187MOL0     C24571   8.881   5.291   9.311  0.5473  0.2613 -0.3529
  187MOL0     C24572   8.751   5.355   9.324  0.2682 -0.2904 -0.3166
  187MOL0     C24573   8.654   5.278   9.417 -0.6550  0.1489 -0.6818
  187MOL0     C24574   8.631   5.135   9.376 -0.0007 -0.0882 -0.4892
  187MOL0     C24575   8.483   5.093   9.419  0.7181  0.1110  0.4802
  187MOL0     O24576   8.487   5.061   9.557  0.0430  0.4268  0.2205
  187MOL0     C24577   8.399   4.980   9.622 -1.0465 -0.7065 -0.0137
  187MOL0     C24578   8.422   4.972   9.764  0.0095  0.3492  0.8856
  187MOL0     C24579   8.334   4.904   9.855  0.4434 -0.2450  0.0415
  187MOL0     C24580   8.225   4.841   9.791 -1.2574 -0.6215  0.1635
  187MOL0     C24581   8.130   4.770   9.870 -0.4986  1.1117 -1.1530
  187MOL0     O24582   8.016   4.735   9.814 -0.2179 -0.0366 -0.1384
  187MOL0     C24583   7.903   4.728   9.894  0.1583 -0.1460  0.1184
  187MOL0     C24584   7.861   4.832   9.974  0.0296 -0.8128 -0.0337
  187MOL0     C24585   7.750   4.805  10.068  0.4499 -0.0547  0.3756
  187MOL0     C24586   7.668   4.699  10.048 -0.1567  0.9637 -0.7908
  187MOL0     O24587   7.563   4.683  10.137  0.3552 -0.3568 -0.2554
  187MOL0     C24588   7.488   4.568  10.125 -0.3457 -0.0749  0.0583
  187MOL0     C24589   7.394   4.568  10.247  0.4993  0.7591  0.0783
  187MOL0     C24590   7.257   4.517  10.206 -0.0079  0.7246 -0.0354
  187MOL0     C24591   7.178   4.512  10.334 -0.5942  1.1608 -0.7411
  187MOL0     C24592   7.193   4.382  10.407  0.0371 -0.0823  1.0672
  187MOL0     C24593   7.110   4.391  10.539  0.7630  0.3519  0.1737
  187MOL0     C24594   6.962   4.373  10.513  0.2186 -0.3686  0.1727
  187MOL0     C24595   6.887   4.337  10.641 -0.1626 -0.1959  0.8381
  187MOL0    Cl24596   6.914   4.163  10.672 -0.0323  0.0965 -0.7174
  187MOL0     C24597   7.692   4.608   9.943 -0.1690  0.0645 -0.3415
  187MOL0     C24598   7.818   4.615   9.869 -0.1743  0.1604 -0.8072
  187MOL0     O24599   8.160   4.754   9.991  0.9032 -0.1661  0.5031
  187MOL0     C24600   8.201   4.851   9.646  0.2980 -1.0355 -0.3953
  187MOL0     C24601   8.291   4.925   9.568  1.0725  0.7646 -0.4965
  187MOL0     N24602   8.972   5.295   9.416  0.0804  0.4453 -0.0666
  187MOL0     N24603   9.070   5.210   9.377 -0.1719 -0.6250 -0.5750
  187MOL0     C24604  10.010   5.192   8.698  0.0917  0.4104  0.0902
  187MOL0     C24605  10.136   5.255   8.689  0.3449 -0.0998  0.3753
  187MOL0     C24606  10.592   5.284   8.796  0.1448  0.1079  0.0108
  187MOL0     C24607  10.716   5.224   8.798 -0.3030 -0.9098 -0.0449
  187MOL0     C24608  10.823   5.296   8.828 -0.5608 -0.2369 -0.6810
  187MOL0     C24609  10.826   5.432   8.865 -0.0281 -0.8581  0.2638
  187MOL0     O24610  10.941   5.496   8.903 -0.0424 -0.4188  1.0785
  187MOL0     C24611  10.938   5.632   8.959 -0.3651 -0.3767 -0.1144
  187MOL0     C24612  10.905   5.624   9.110  0.3034 -0.0620  0.5673
  187MOL0     C24613  10.800   5.726   9.150 -1.0073  0.1372 -0.2232
  187MOL0     C24614  10.844   5.868   9.146 -0.4142  0.2933 -0.7078
  187MOL0     C24615  10.742   5.956   9.214 -0.7328 -0.6926 -0.7210
  187MOL0     C24616  10.657   6.035   9.254 -1.0229 -0.3595  0.1147
  187MOL0     C24617  10.700   5.499   8.861 -0.1610 -1.0305  0.5498
  187MOL0     C24618  10.582   5.423   8.822 -0.4756 -0.7000 -0.1350
  187MOL0     H24619  10.279   5.083   8.953 -0.5693  2.2727  0.8143
  187MOL0     H24620  10.068   4.964   8.936 -3.5968  0.7305  1.3279
  187MOL0     H24621   9.793   4.927   8.940  0.8739 -0.9577 -0.2149
  187MOL0     H24622   9.909   4.845   8.845  1.9833  1.7995  2.4255
  187MOL0     H24623   9.673   4.748   8.770 -2.0345 -0.1201 -0.5922
  187MOL0     H24624   9.739   4.851   8.647 -0.5308  0.0530  0.3819
  187MOL0     H24625   9.500   4.885   8.697 -1.7160 -3.1867  2.2819
  187MOL0     H24626   9.592   5.028   8.740 -0.0528 -0.6738 -0.9374
  187MOL0     H24627   9.528   4.816   8.946  0.1411 -0.5038 -1.6765
  187MOL0     H24628   9.571   4.986   8.973  0.0826  3.5767 -2.7355
  187MOL0     H24629   9.293   4.896   8.849 -1.9276  0.4226 -0.3529
  187MOL0     H24630   9.339   5.061   8.850  0.8865  0.2399 -0.3648
  187MOL0     H24631   9.406   5.012   9.100  1.0646  0.1057 -0.7093
  187MOL0     H24632   9.283   4.886   9.103  2.6373 -0.3835  1.5556
  187MOL0     H24633   9.237   5.176   9.066  0.5181  0.8154  2.0993
  187MOL0     H24634   9.119   5.050   9.000 -1.1873  0.7056  3.4378
  187MOL0     H24635   9.198   5.002   9.274 -0.2812  0.4434  0.5235
  187MOL0     H24636   9.049   4.966   9.194 -1.0990  1.0898 -0.1118
  187MOL0     H24637   8.866   5.191   9.123 -3.9396  1.2102  1.9284
  187MOL0     H24638   8.712   5.371   9.223 -0.6508  2.7036  0.4125
  187MOL0     H24639   8.764   5.455   9.367 -0.2865  1.0154 -2.9295
  187MOL0     H24640   8.559   5.332   9.416  0.3201  1.9626  0.1557
  187MOL0     H24641   8.703   5.279   9.515 -0.0111  0.2039 -0.9967
  187MOL0     H24642   8.635   5.123   9.268 -2.5659  0.9835 -0.7820
  187MOL0     H24643   8.706   5.075   9.428 -1.0711  0.9572  2.4711
  187MOL0     H24644   8.455   5.010   9.353  1.2698  2.6969 -3.3707
  187MOL0     H24645   8.408   5.168   9.392  2.2281  1.4751 -0.1056
  187MOL0     H24646   8.517   5.014   9.796 -0.4450  1.2987  1.0173
  187MOL0     H24647   8.344   4.915   9.963 -1.5199  1.9153  0.0898
  187MOL0     H24648   7.915   4.925   9.992 -0.4080 -0.2257 -1.5947
  187MOL0     H24649   7.725   4.876  10.146 -0.7230 -0.1429  0.1106
  187MOL0     H24650   7.544   4.474  10.128 -0.9257 -0.4758 -1.3960
  187MOL0     H24651   7.428   4.564  10.034  0.5996  0.1132 -0.5844
  187MOL0     H24652   7.381   4.674  10.272  0.1532  0.9934 -1.0301
  187MOL0     H24653   7.441   4.515  10.330  0.6867  2.8666  1.3918
  187MOL0     H24654   7.242   4.420  10.158 -0.5102  1.2961 -1.0734
  187MOL0     H24655   7.205   4.591  10.144 -1.8175  1.3053  2.0679
  187MOL0     H24656   7.216   4.596  10.393 -2.3854  0.9682  0.7740
  187MOL0     H24657   7.073   4.530  10.309 -1.0241  2.3289  1.6820
  187MOL0     H24658   7.301   4.376  10.420  0.5088  2.9059 -0.5549
  187MOL0     H24659   7.159   4.297  10.347 -2.2339  1.3904  0.1147
  187MOL0     H24660   7.128   4.492  10.577 -1.5117  1.5068 -1.5579
  187MOL0     H24661   7.146   4.308  10.601  3.7689  0.3479 -1.3625
  187MOL0     H24662   6.925   4.467  10.473  0.6236  0.1516  0.9868
  187MOL0     H24663   6.941   4.298  10.436  1.7402  0.9847 -1.6448
  187MOL0     H24664   6.780   4.355  10.625 -0.0324 -1.4608 -2.0511
  187MOL0     H24665   6.921   4.398  10.725 -0.9764 -0.5150  1.4145
  187MOL0     H24666   7.622   4.535   9.904 -2.0492  1.1636  0.8000
  187MOL0     H24667   7.841   4.542   9.792 -0.1983  1.8610 -2.5197
  187MOL0     H24668   8.116   4.804   9.600  0.5905 -1.0127 -0.9644
  187MOL0     H24669   8.277   4.934   9.461 -0.9910 -0.5285 -0.3885
  187MOL0     H24670   9.921   5.215   8.639 -0.5338 -3.4964 -0.7754
  187MOL0     H24671  10.156   5.337   8.621 -1.0048 -0.2095 -0.1916
  187MOL0     H24672  10.712   5.118   8.774 -0.9014 -1.5687  2.5796
  187MOL0     H24673  10.920   5.248   8.832 -0.7841 -0.5818  1.3264
  187MOL0     H24674  10.866   5.698   8.910 -3.1967 -1.0100  2.8521
  187MOL0     H24675  11.036   5.678   8.939  0.0961 -0.3151  2.0459
  187MOL0     H24676  10.872   5.520   9.126 -2.5137  0.8093  0.9669
  187MOL0     H24677  10.996   5.636   9.168  0.8298  3.3094 -0.7522
  187MOL0     H24678  10.774   5.703   9.254 -0.1347 -2.2722 -0.4634
  187MOL0     H24679  10.704   5.711   9.099 -1.1309 -0.0319  0.0603
  187MOL0     H24680  10.940   5.874   9.198  0.0955  0.0943 -1.5994
  187MOL0     H24681  10.861   5.905   9.044  0.9496 -0.4868 -0.7828
  187MOL0     H24682  10.586   6.115   9.265 -3.1388 -1.9055 -1.4280
  187MOL0     H24683  10.673   5.602   8.879 -2.0649 -1.6363  1.3826
  187MOL0     H24684  10.485   5.472   8.829 -0.8923 -1.4515 -0.4651
  188MOL0     O24685   3.406   2.911   2.875 -0.3020  0.2706 -0.3842
  188MOL0     C24686   3.446   2.795   2.890  0.5536  0.0908 -0.2127
  188MOL0     O24687   3.366   2.687   2.923  0.1306 -0.8983  0.0867
  188MOL0     C24688   3.232   2.708   2.962 -0.4941 -0.0048  0.3214
  188MOL0     C24689   3.133   2.621   2.907 -0.5305 -0.2557 -0.5345
  188MOL0     C24690   2.999   2.620   2.952 -0.2998 -1.1158  0.0327
  188MOL0     C24691   2.957   2.696   3.064 -0.1775  0.7564  0.1760
  188MOL0     O24692   2.833   2.684   3.114  0.1999  0.4742  0.0790
  188MOL0     C24693   2.717   2.658   3.030 -0.0334 -0.4391 -0.0112
  188MOL0     C24694   2.589   2.727   3.083 -0.2748 -0.7153 -0.3058
  188MOL0     C24695   2.507   2.645   3.189 -0.0315  0.1824  0.3351
  188MOL0     C24696   2.376   2.726   3.212  0.3752 -0.2225  0.2753
  188MOL0     C24697   2.291   2.674   3.332 -0.0168  0.3099  0.2676
  188MOL0     C24698   2.342   2.711   3.475  0.2364  0.5658 -0.6385
  188MOL0     C24699   2.254   2.675   3.587  0.2740 -0.2464 -0.4327
  188MOL0     C24700   2.138   2.767   3.617 -0.4852 -0.0807 -0.2587
  188MOL0     N24701   2.032   2.767   3.510 -0.0202  0.3036  0.3679
  188MOL0     C24702   1.953   2.659   3.470  0.0871 -0.3403 -0.0132
  188MOL0     C24703   1.891   2.699   3.361  0.1027  0.0501 -0.6974
  188MOL0     C24704   1.805   2.614   3.269 -0.5533  0.0478  0.7466
  188MOL0     C24705   1.656   2.646   3.291 -0.0086 -0.0763  1.3313
  188MOL0     C24706   1.566   2.563   3.198 -0.1820 -0.0492  0.3329
  188MOL0     C24707   1.422   2.580   3.242 -0.1471 -0.5673  0.3248
  188MOL0     O24708   1.402   2.545   3.384  0.2076  0.3596 -0.2257
  188MOL0     C24709   1.269   2.527   3.407 -0.2284 -0.3269 -0.2623
  188MOL0     C24710   1.176   2.629   3.391  0.1087  0.0439 -0.1473
  188MOL0     C24711   1.041   2.608   3.413 -0.3116 -0.3405 -0.3047
  188MOL0     C24712   0.996   2.486   3.466  0.8184  0.2037  0.4429
  188MOL0     C24713   0.849   2.471   3.494 -0.0679 -0.2376  0.3926
  188MOL0     O24714   0.769   2.574   3.450  0.4060 -0.0118  0.2603
  188MOL0     C24715   0.631   2.558   3.464 -0.2971  0.6108  0.0392
  188MOL0     C24716   0.553   2.435   3.489 -0.0669 -0.4419  0.4692
  188MOL0     C24717   0.419   2.450   3.508  0.0657  0.6856  0.2879
  188MOL0     C24718   0.356   2.576   3.493  0.3205  0.4090  0.5537
  188MOL0     O24719   0.220   2.593   3.516 -0.0839 -0.5435  0.5444
  188MOL0     C24720   0.141   2.538   3.409  0.3678 -0.2363  0.1777
  188MOL0     C24721  -0.003   2.574   3.430  1.3759 -0.6640  0.2952
  188MOL0     C24722  -0.090   2.511   3.321 -0.6635  0.3461 -0.0336
  188MOL0     C24723  -0.228   2.504   3.360  0.9654  0.5206  0.5078
  188MOL0     C24724  -0.319   2.410   3.266  0.1791  0.3422 -0.3673
  188MOL0     C24725  -0.351   2.456   3.125  0.1145  0.1575  0.8717
  188MOL0     C24726  -0.480   2.539   3.113  0.2432  0.3589  0.3040
  188MOL0     C24727  -0.496   2.618   2.982  0.4674  0.8725 -0.0369
  188MOL0    Cl24728  -0.649   2.696   2.979  0.1185  0.1405 -0.0037
  188MOL0     C24729   0.439   2.689   3.459  0.7130 -0.0195 -0.2330
  188MOL0     C24730   0.574   2.678   3.445  0.6969 -0.6821  0.1834
  188MOL0     O24731   0.816   2.394   3.582  0.4778 -0.1342  0.2011
  188MOL0     C24732   1.090   2.386   3.496  0.7049 -0.3980  1.0979
  188MOL0     C24733   1.227   2.411   3.471  0.2990  0.2834  0.3588
  188MOL0     N24734   1.934   2.831   3.336  0.4475 -0.0385 -0.2955
  188MOL0     N24735   2.011   2.870   3.424 -0.1889  0.5289 -1.4074
  188MOL0     C24736   3.053   2.784   3.119 -0.5243 -0.6395 -0.1178
  188MOL0     C24737   3.188   2.789   3.071  0.3464 -0.7372  0.1866
  188MOL0     C24738   3.591   2.782   2.873  0.2379 -0.2566 -0.2068
  188MOL0     C24739   3.661   2.675   2.925 -0.9790  0.2144 -0.7426
  188MOL0     C24740   3.805   2.662   2.911  0.4442  0.1668 -0.0954
  188MOL0     C24741   3.876   2.757   2.839  0.8809 -0.7293 -0.2414
  188MOL0     O24742   4.007   2.733   2.838 -0.6986 -0.0148 -0.2004
  188MOL0     C24743   4.098   2.801   2.743 -0.2245  0.4560  0.0477
  188MOL0     C24744   4.233   2.740   2.756 -0.1157 -0.2288 -0.5287
  188MOL0     C24745   4.247   2.602   2.686  0.3390 -0.3169 -0.2549
  188MOL0     C24746   4.378   2.546   2.679  0.5479  0.1484  0.0740
  188MOL0     C24747   4.361   2.419   2.599 -0.0485 -0.5810 -0.2072
  188MOL0     C24748   4.338   2.327   2.525  0.9848 -0.4967 -0.0311
  188MOL0     C24749   3.809   2.870   2.785 -0.6983  0.9897 -0.7056
  188MOL0     C24750   3.666   2.877   2.803 -0.9943  0.2640  0.0118
  188MOL0     H24751   3.158   2.558   2.822 -1.7876 -0.5929 -0.6707
  188MOL0     H24752   2.940   2.543   2.902 -1.7593 -0.0855  0.1131
  188MOL0     H24753   2.698   2.550   3.032 -0.7697 -0.3640  3.6049
  188MOL0     H24754   2.729   2.684   2.925 -2.0691 -1.9743 -0.6985
  188MOL0     H24755   2.521   2.745   2.999 -1.8428  1.5953  1.3413
  188MOL0     H24756   2.613   2.827   3.119 -1.7026  0.2115 -1.7553
  188MOL0     H24757   2.568   2.621   3.277 -1.3340 -0.2990  1.1447
  188MOL0     H24758   2.478   2.548   3.147 -1.2703 -0.0413  1.6139
  188MOL0     H24759   2.400   2.831   3.235 -2.5723  0.1108  2.4654
  188MOL0     H24760   2.313   2.730   3.123 -1.4149 -0.8218  1.4564
  188MOL0     H24761   2.289   2.565   3.321 -2.8527  0.3658 -0.5615
  188MOL0     H24762   2.189   2.706   3.311 -0.6297 -2.2300 -1.0185
  188MOL0     H24763   2.344   2.819   3.486 -0.2956  0.4685  0.6327
  188MOL0     H24764   2.442   2.671   3.496 -0.2185 -0.4498 -0.3056
  188MOL0     H24765   2.209   2.578   3.565 -2.3960  0.8864 -0.4110
  188MOL0     H24766   2.304   2.663   3.684 -0.4589  3.3567  0.5333
  188MOL0     H24767   2.172   2.868   3.640  0.6685 -0.4265 -0.4184
  188MOL0     H24768   2.096   2.740   3.714  2.0386 -0.5000  0.7768
  188MOL0     H24769   1.943   2.562   3.519 -0.6247  1.7240  4.4314
  188MOL0     H24770   1.823   2.507   3.283 -1.0747  0.0227  1.2344
  188MOL0     H24771   1.830   2.642   3.166  0.6138 -4.7081 -0.5323
  188MOL0     H24772   1.632   2.750   3.267 -3.0309 -0.8612  0.5453
  188MOL0     H24773   1.647   2.625   3.398 -0.2124 -1.4900  1.0492
  188MOL0     H24774   1.579   2.595   3.094 -1.2663  1.3273  0.5954
  188MOL0     H24775   1.582   2.455   3.205 -1.8712 -0.3311  0.3836
  188MOL0     H24776   1.369   2.511   3.176  0.7917  0.8955 -2.1000
  188MOL0     H24777   1.388   2.684   3.229 -0.0221 -0.2852  2.0950
  188MOL0     H24778   1.219   2.719   3.348 -1.9971  1.7135  1.0753
  188MOL0     H24779   0.972   2.689   3.393 -0.1891 -0.2171 -0.2328
  188MOL0     H24780   0.597   2.337   3.503 -2.6752 -1.4404  2.5130
  188MOL0     H24781   0.358   2.362   3.527  1.0746  0.1507  1.1474
  188MOL0     H24782   0.138   2.429   3.405  0.1802 -0.2591  0.7788
  188MOL0     H24783   0.173   2.576   3.312 -2.2245 -0.6196 -0.9139
  188MOL0     H24784  -0.024   2.681   3.433  1.3129 -0.5935 -1.7053
  188MOL0     H24785  -0.026   2.534   3.529  2.1735 -2.3641 -0.1597
  188MOL0     H24786  -0.064   2.410   3.288  0.5046  0.3014  0.9497
  188MOL0     H24787  -0.088   2.580   3.236 -0.7600 -0.4015 -0.6571
  188MOL0     H24788  -0.240   2.455   3.457 -0.2632  3.0111  1.6908
  188MOL0     H24789  -0.266   2.607   3.357  1.4719  0.7439 -3.2230
  188MOL0     H24790  -0.416   2.396   3.315 -0.5936  0.3502 -1.8618
  188MOL0     H24791  -0.268   2.313   3.264 -3.9447 -2.0694  0.3413
  188MOL0     H24792  -0.347   2.363   3.069  2.8764  1.1098 -0.6904
  188MOL0     H24793  -0.271   2.523   3.091  2.2554 -1.8151  1.7533
  188MOL0     H24794  -0.568   2.474   3.117  1.2361 -1.0349  0.2367
  188MOL0     H24795  -0.476   2.600   3.204  0.5354  0.3424  0.3033
  188MOL0     H24796  -0.495   2.555   2.892  1.5180  2.2445 -1.0259
  188MOL0     H24797  -0.422   2.697   2.969  2.4240 -0.9273 -0.4518
  188MOL0     H24798   0.388   2.784   3.458 -0.5749 -0.5480  3.3800
  188MOL0     H24799   0.633   2.766   3.423  0.2204  0.0710  1.7893
  188MOL0     H24800   1.046   2.303   3.550 -1.7963  0.6747  0.8514
  188MOL0     H24801   1.295   2.335   3.508 -1.5819 -0.6889  2.0739
  188MOL0     H24802   3.015   2.837   3.206  0.6149 -0.0967  0.0700
  188MOL0     H24803   3.264   2.842   3.127 -1.1533  1.6542  0.1183
  188MOL0     H24804   3.610   2.596   2.980 -1.7630  0.9561 -0.3770
  188MOL0     H24805   3.862   2.577   2.949  2.1758  0.6313 -1.5336
  188MOL0     H24806   4.121   2.905   2.768  0.1524  0.1794  0.8509
  188MOL0     H24807   4.076   2.778   2.638  4.7275  0.4523 -1.2263
  188MOL0     H24808   4.307   2.808   2.712 -0.2349  1.3295  1.5311
  188MOL0     H24809   4.260   2.727   2.862  1.7306 -1.9327 -1.1289
  188MOL0     H24810   4.212   2.608   2.582  2.3732 -0.8759 -1.0097
  188MOL0     H24811   4.191   2.523   2.737 -1.5262  0.8599 -0.3798
  188MOL0     H24812   4.448   2.620   2.638 -0.4363  1.3730  0.5402
  188MOL0     H24813   4.412   2.524   2.781 -1.8226 -1.4593  0.5976
  188MOL0     H24814   4.337   2.241   2.461  1.6520 -0.0175 -0.6932
  188MOL0     H24815   3.864   2.946   2.731 -1.8360  1.5339 -1.1399
  188MOL0     H24816   3.611   2.961   2.762 -0.4282  0.4536 -0.3725
  189MOL0     O24817   3.332   0.071   7.423  0.4124  0.0604  0.0305
  189MOL0     C24818   3.304   0.181   7.390 -0.1954 -0.7099  0.2911
  189MOL0     O24819   3.197   0.223   7.323 -0.2430 -0.3660 -0.4753
  189MOL0     C24820   3.105   0.126   7.297 -0.1406  0.7579 -0.2763
  189MOL0     C24821   3.121   0.031   7.188  0.2519 -0.7137  0.0131
  189MOL0     C24822   3.025  -0.067   7.182 -0.2048 -0.2849  0.2088
  189MOL0     C24823   2.924  -0.084   7.273 -0.2380  0.1680  0.3620
  189MOL0     O24824   2.839  -0.190   7.248  0.1615  0.9418  0.0263
  189MOL0     C24825   2.706  -0.182   7.291 -1.2729 -0.2274 -0.4248
  189MOL0     C24826   2.611  -0.229   7.178 -0.1039  0.4818  0.2197
  189MOL0     C24827   2.469  -0.175   7.203 -0.4436 -0.6945  0.0298
  189MOL0     C24828   2.385  -0.203   7.079  0.4939 -0.8519  0.1142
  189MOL0     C24829   2.233  -0.188   7.096  0.2430 -0.0551 -0.5113
  189MOL0     C24830   2.151  -0.293   7.172  0.5319  0.2313  1.1226
  189MOL0     C24831   2.000  -0.316   7.143  0.0793 -0.7726  0.2865
  189MOL0     C24832   1.935  -0.424   7.234  0.5308 -0.3413 -0.3792
  189MOL0     N24833   1.970  -0.554   7.200  0.3485  0.1369  0.7964
  189MOL0     C24834   2.086  -0.603   7.241  0.8793 -0.1628 -0.4780
  189MOL0     C24835   2.076  -0.734   7.205  0.1652 -0.4202 -0.3412
  189MOL0     C24836   2.194  -0.822   7.230 -0.3558  0.6969 -0.3737
  189MOL0     C24837   2.168  -0.975   7.204  0.2614 -0.4005 -0.3620
  189MOL0     C24838   2.294  -1.059   7.195  0.2624 -0.3554 -0.1831
  189MOL0     C24839   2.396  -1.002   7.089 -0.2904 -0.1241  0.2685
  189MOL0     O24840   2.517  -1.080   7.067  0.6933 -0.0950  0.1897
  189MOL0     C24841   2.502  -1.208   7.036 -0.0128 -0.7180  0.8367
  189MOL0     C24842   2.522  -1.307   7.128  0.2420 -0.2901 -0.0741
  189MOL0     C24843   2.495  -1.439   7.090  0.0473  1.0845 -0.0776
  189MOL0     C24844   2.473  -1.469   6.957  0.5081 -0.0810  0.0417
  189MOL0     C24845   2.436  -1.609   6.930 -0.1921 -0.2726 -0.1249
  189MOL0     O24846   2.394  -1.634   6.803 -0.2422 -0.4979  0.3597
  189MOL0     C24847   2.346  -1.757   6.769 -0.4523  0.6128  0.5977
  189MOL0     C24848   2.266  -1.837   6.843  0.0540 -0.1673  0.0960
  189MOL0     C24849   2.227  -1.965   6.801 -0.9515 -0.6505  0.0399
  189MOL0     C24850   2.256  -2.012   6.671 -0.6357 -0.1338  0.2788
  189MOL0     O24851   2.206  -2.131   6.616 -0.0383  0.9239 -0.2679
  189MOL0     C24852   2.134  -2.229   6.690  0.3296 -0.1460  0.2108
  189MOL0     C24853   2.079  -2.334   6.586 -0.2262  0.4231  0.2885
  189MOL0     C24854   1.986  -2.272   6.473 -0.2924 -0.0857 -0.7657
  189MOL0     C24855   1.856  -2.224   6.528  0.0623  1.3402  0.0650
  189MOL0     C24856   1.761  -2.194   6.407  0.2875 -0.2938  0.1406
  189MOL0     C24857   1.621  -2.156   6.441 -0.0118  0.2503 -0.3547
  189MOL0     C24858   1.600  -2.012   6.478 -0.4422 -0.8607  0.7360
  189MOL0     C24859   1.483  -1.953   6.403 -0.3112  0.0125 -0.0183
  189MOL0    Cl24860   1.450  -1.796   6.465 -0.0322 -0.2970 -0.1118
  189MOL0     C24861   2.325  -1.923   6.593 -0.7498  0.7289  0.9682
  189MOL0     C24862   2.367  -1.798   6.638 -0.0540 -0.0193  0.4801
  189MOL0     O24863   2.445  -1.697   7.021  0.2536 -0.0695  0.7251
  189MOL0     C24864   2.470  -1.370   6.860 -0.9572 -1.2597  0.0968
  189MOL0     C24865   2.484  -1.238   6.895 -0.0622  0.0126 -0.8669
  189MOL0     N24866   1.963  -0.762   7.126 -0.0562  0.1732 -0.0145
  189MOL0     N24867   1.900  -0.644   7.127  0.1703  0.6444  0.8080
  189MOL0     C24868   2.911   0.010   7.376 -0.0465 -0.2016 -0.5324
  189MOL0     C24869   2.998   0.113   7.380  0.6057 -0.5176  0.1816
  189MOL0     C24870   3.408   0.283   7.414 -0.8442 -0.9089 -0.0539
  189MOL0     C24871   3.391   0.418   7.408 -0.5087 -0.4164 -0.1488
  189MOL0     C24872   3.493   0.508   7.450 -0.5201 -0.6662 -0.0049
  189MOL0     C24873   3.609   0.466   7.502 -0.5443 -0.2477  1.0217
  189MOL0     O24874   3.680   0.573   7.547  0.6645  0.2501 -0.1493
  189MOL0     C24875   3.804   0.540   7.615  0.6403  0.4625  0.8503
  189MOL0     C24876   3.931   0.554   7.534 -0.2431  0.0407  0.2104
  189MOL0     C24877   3.949   0.676   7.453 -0.7692  0.2355 -0.0371
  189MOL0     C24878   3.858   0.676   7.335  0.1383 -0.7976 -0.2565
  189MOL0     C24879   3.916   0.736   7.215 -0.6709 -0.0700  0.9379
  189MOL0     C24880   3.952   0.790   7.112 -0.0153  0.2136  0.1965
  189MOL0     C24881   3.631   0.328   7.501 -0.1138  0.2670  0.5073
  189MOL0     C24882   3.531   0.231   7.463  0.4902 -0.3320  0.3460
  189MOL0     H24883   3.215   0.038   7.133  0.1786  5.7317 -0.0314
  189MOL0     H24884   3.028  -0.148   7.110 -1.7634  0.8940 -1.2645
  189MOL0     H24885   2.679  -0.081   7.323  0.3137 -0.4207  1.7153
  189MOL0     H24886   2.698  -0.247   7.378 -0.5892  0.1561 -0.0723
  189MOL0     H24887   2.601  -0.338   7.173  1.2163  0.3650 -3.9859
  189MOL0     H24888   2.649  -0.190   7.083 -0.2156  0.9522  0.3676
  189MOL0     H24889   2.461  -0.067   7.219 -2.4069 -0.6846 -0.7669
  189MOL0     H24890   2.423  -0.231   7.285 -0.4073  0.3181  0.7671
  189MOL0     H24891   2.415  -0.129   7.004 -1.0459  1.6291  1.8062
  189MOL0     H24892   2.406  -0.305   7.044 -0.4876 -0.9135 -0.3253
  189MOL0     H24893   2.190  -0.193   6.995 -2.8656 -2.6798  0.7809
  189MOL0     H24894   2.221  -0.090   7.142 -0.7179 -1.3701  2.2051
  189MOL0     H24895   2.172  -0.293   7.280 -1.3705  2.1048  1.5738
  189MOL0     H24896   2.201  -0.387   7.149 -1.0289 -0.4607  0.4145
  189MOL0     H24897   1.942  -0.226   7.162 -0.0320 -0.4841 -1.2908
  189MOL0     H24898   1.991  -0.358   7.042 -2.1748 -0.1400  0.1763
  189MOL0     H24899   1.828  -0.415   7.213  0.2490 -3.2574 -0.6163
  189MOL0     H24900   1.956  -0.403   7.339 -1.5591  2.3923 -0.3757
  189MOL0     H24901   2.165  -0.550   7.293  1.6472 -1.2090 -0.5374
  189MOL0     H24902   2.231  -0.815   7.333 -1.6213 -1.7094  0.3140
  189MOL0     H24903   2.269  -0.780   7.163 -1.3389 -1.1680 -2.7905
  189MOL0     H24904   2.112  -0.977   7.110  0.9705  0.8591 -0.8375
  189MOL0     H24905   2.110  -1.016   7.287  0.7327 -0.6687 -0.1632
  189MOL0     H24906   2.342  -1.080   7.291 -0.2249  0.7985  0.3279
  189MOL0     H24907   2.266  -1.159   7.158  1.6447 -1.2140  0.9650
  189MOL0     H24908   2.431  -0.903   7.120 -0.7883  1.6903 -4.2179
  189MOL0     H24909   2.346  -0.996   6.993  0.4463  1.6928 -0.0446
  189MOL0     H24910   2.550  -1.286   7.230  0.6840  0.6755 -0.3847
  189MOL0     H24911   2.499  -1.520   7.162 -2.0461  2.2096  1.3933
  189MOL0     H24912   2.233  -1.802   6.941 -0.4483  0.5675 -0.3257
  189MOL0     H24913   2.171  -2.026   6.870 -0.8570  1.2146  1.8649
  189MOL0     H24914   2.047  -2.182   6.736 -1.6435 -2.7863 -0.6275
  189MOL0     H24915   2.203  -2.262   6.769  1.8874  5.7787  1.8641
  189MOL0     H24916   2.023  -2.416   6.632 -0.1645  1.6115  2.5997
  189MOL0     H24917   2.164  -2.386   6.540 -0.0320  2.3541 -1.6825
  189MOL0     H24918   1.956  -2.344   6.396  0.6138  0.8596 -2.0453
  189MOL0     H24919   2.040  -2.195   6.416 -1.4989 -0.7157 -2.8890
  189MOL0     H24920   1.819  -2.312   6.581  1.1767  1.3770  0.9593
  189MOL0     H24921   1.869  -2.146   6.604  1.7375  0.3652  0.8475
  189MOL0     H24922   1.756  -2.283   6.343  2.0814  0.1812 -0.7135
  189MOL0     H24923   1.797  -2.120   6.336 -0.2944 -0.1338  0.0091
  189MOL0     H24924   1.575  -2.223   6.515  2.4347 -1.9630 -0.7185
  189MOL0     H24925   1.569  -2.168   6.345 -0.3354  0.6081 -0.2264
  189MOL0     H24926   1.580  -2.009   6.585  1.1269 -0.6283  1.0372
  189MOL0     H24927   1.692  -1.956   6.461  1.7162 -4.1060  0.6484
  189MOL0     H24928   1.396  -2.019   6.406  0.6626 -1.5592 -2.4266
  189MOL0     H24929   1.507  -1.943   6.296 -0.0271 -1.4527 -0.1201
  189MOL0     H24930   2.344  -1.963   6.494  2.6979 -0.2050  1.8759
  189MOL0     H24931   2.421  -1.736   6.567 -2.4277  0.0965 -1.3692
  189MOL0     H24932   2.462  -1.393   6.755  1.0777  1.2203 -0.7014
  189MOL0     H24933   2.462  -1.156   6.828  0.7657  0.6430 -0.3955
  189MOL0     H24934   2.825   0.006   7.442 -0.4996 -2.8932 -1.1759
  189MOL0     H24935   2.969   0.193   7.447 -0.6755  0.4727 -1.4986
  189MOL0     H24936   3.295   0.458   7.377 -1.3088 -2.0437  0.1244
  189MOL0     H24937   3.485   0.616   7.445  0.1818 -0.5982  0.1400
  189MOL0     H24938   3.799   0.438   7.653 -0.9154 -0.9103 -2.6042
  189MOL0     H24939   3.818   0.608   7.699  1.1513  1.2551  0.1490
  189MOL0     H24940   4.021   0.548   7.595  0.5686  1.7159 -0.7383
  189MOL0     H24941   3.936   0.461   7.476 -1.8185  0.3221 -0.4463
  189MOL0     H24942   4.053   0.697   7.429 -0.3560  0.7329  2.0140
  189MOL0     H24943   3.917   0.763   7.512 -2.7658 -0.1091 -0.5325
  189MOL0     H24944   3.839   0.573   7.302 -1.0609  0.1097 -2.6004
  189MOL0     H24945   3.765   0.726   7.364 -0.1013 -0.5242 -1.4271
  189MOL0     H24946   3.975   0.859   7.033  0.7750  1.1184  1.1738
  189MOL0     H24947   3.726   0.286   7.534  0.9224  1.5041 -0.7718
  189MOL0     H24948   3.539   0.127   7.491 -2.8854 -0.2583  2.1842
  190MOL0     O24949   4.354   6.503   5.741 -0.0294  0.0371 -0.2310
  190MOL0     C24950   4.431   6.416   5.699 -0.1669 -0.4142 -1.3583
  190MOL0     O24951   4.572   6.422   5.726  0.1841  0.0479 -0.0022
  190MOL0     C24952   4.623   6.519   5.804  0.3297 -0.6835  0.1138
  190MOL0     C24953   4.748   6.572   5.765 -1.0724 -0.5888  0.4798
  190MOL0     C24954   4.827   6.658   5.844  0.7302 -0.0141 -0.3603
  190MOL0     C24955   4.769   6.711   5.964 -0.3728  0.1221 -0.9487
  190MOL0     O24956   4.821   6.821   6.030  0.2107  0.2566 -0.5674
  190MOL0     C24957   4.935   6.893   5.980 -0.8746  0.3750 -0.2611
  190MOL0     C24958   4.986   6.993   6.095  0.4429  0.4439 -0.2539
  190MOL0     C24959   5.087   7.094   6.035  0.6313 -0.0876 -0.2398
  190MOL0     C24960   5.137   7.188   6.142  0.2999  0.1103 -0.0632
  190MOL0     C24961   5.242   7.296   6.103  0.1575  1.0817  0.2899
  190MOL0     C24962   5.239   7.405   6.209  0.3603 -0.2271  0.3351
  190MOL0     C24963   5.343   7.510   6.168 -0.7377 -0.5940 -0.2732
  190MOL0     C24964   5.486   7.470   6.204 -0.0188  0.0242 -0.0144
  190MOL0     N24965   5.572   7.450   6.082  0.1010  0.0678 -0.7139
  190MOL0     C24966   5.638   7.548   6.020  0.5863  0.0090  0.0935
  190MOL0     C24967   5.714   7.482   5.931 -0.1129 -0.3107  0.8001
  190MOL0     C24968   5.822   7.532   5.843  0.1241  0.7476  1.2030
  190MOL0     C24969   5.784   7.660   5.770 -0.1800 -0.1352  0.3830
  190MOL0     C24970   5.667   7.633   5.677 -0.1843  0.6681  0.4697
  190MOL0     C24971   5.583   7.755   5.659  0.6588 -0.1449  0.0203
  190MOL0     O24972   5.514   7.786   5.779 -0.0381 -0.9252  0.4181
  190MOL0     C24973   5.386   7.741   5.800  0.7243  0.1698 -0.6048
  190MOL0     C24974   5.300   7.810   5.886 -0.9606 -0.3563 -0.1979
  190MOL0     C24975   5.171   7.769   5.917  0.5675  0.3549  0.1820
  190MOL0     C24976   5.119   7.648   5.849  0.2319  0.2803 -0.0626
  190MOL0     C24977   4.977   7.606   5.875 -0.7837  0.3417  0.0553
  190MOL0     O24978   4.932   7.491   5.817 -0.2994  0.1696 -0.0544
  190MOL0     C24979   4.812   7.453   5.857  0.2100 -0.5441  0.7841
  190MOL0     C24980   4.698   7.525   5.797 -0.7665 -0.0653  0.2657
  190MOL0     C24981   4.565   7.488   5.820  0.2537  0.2750  0.1307
  190MOL0     C24982   4.540   7.380   5.906 -0.8280  0.7537  0.2865
  190MOL0     O24983   4.412   7.347   5.938  0.0206 -0.2302 -0.2084
  190MOL0     C24984   4.387   7.243   6.027 -0.3100  0.5427  0.5381
  190MOL0     C24985   4.230   7.232   6.054  0.4575 -0.0316  0.4087
  190MOL0     C24986   4.171   7.162   5.927  0.2544  0.0888 -0.6216
  190MOL0     C24987   4.018   7.126   5.945 -0.3804 -0.3211 -0.6095
  190MOL0     C24988   3.949   7.073   5.821 -0.4308 -0.2665 -0.3801
  190MOL0     C24989   3.948   7.181   5.709 -0.0214  0.2254 -0.3948
  190MOL0     C24990   3.827   7.175   5.621 -0.4285 -0.2576 -0.5474
  190MOL0     C24991   3.744   7.295   5.632 -0.7733 -0.1708 -0.1317
  190MOL0    Cl24992   3.613   7.280   5.519 -0.1040 -0.0211  0.0072
  190MOL0     C24993   4.651   7.302   5.955 -0.1973 -0.5931  0.0415
  190MOL0     C24994   4.785   7.333   5.929 -0.3676 -0.2220 -0.1408
  190MOL0     O24995   4.919   7.672   5.958  0.9540 -0.0113 -0.0828
  190MOL0     C24996   5.207   7.583   5.759  0.7617 -0.2603  0.2662
  190MOL0     C24997   5.338   7.628   5.729 -0.0763  1.0050 -0.0744
  190MOL0     N24998   5.687   7.347   5.936 -0.1847 -0.0334 -0.0435
  190MOL0     N24999   5.595   7.326   6.027 -0.5623 -0.7447  0.3037
  190MOL0     C25000   4.639   6.667   5.998 -0.2109 -0.5546  0.3846
  190MOL0     C25001   4.568   6.569   5.919 -0.1520 -0.6157 -0.2146
  190MOL0     C25002   4.366   6.307   5.624 -0.8040 -0.1709 -0.0478
  190MOL0     C25003   4.226   6.284   5.625 -0.2131  0.4923 -0.6232
  190MOL0     C25004   4.179   6.182   5.548 -0.0106  0.1894 -0.1084
  190MOL0     C25005   4.254   6.102   5.468 -1.2914 -0.3033  0.2082
  190MOL0     O25006   4.187   6.012   5.386  0.2880  1.1976 -0.0665
  190MOL0     C25007   4.232   5.959   5.256 -0.6894  0.5105  0.4078
  190MOL0     C25008   4.161   5.829   5.221 -0.4480  0.3992  0.0957
  190MOL0     C25009   4.228   5.718   5.290 -0.6184  0.3937  0.0561
  190MOL0     C25010   4.353   5.673   5.208 -0.1332 -0.3584  0.3197
  190MOL0     C25011   4.480   5.705   5.278  0.2192 -0.3018  0.0066
  190MOL0     C25012   4.557   5.748   5.361 -0.5507  0.3385 -0.1188
  190MOL0     C25013   4.392   6.118   5.467 -0.6662 -0.5570 -0.5067
  190MOL0     C25014   4.451   6.221   5.546  0.6779  0.1643  0.5599
  190MOL0     H25015   4.798   6.547   5.672  0.6186  0.7722  0.9645
  190MOL0     H25016   4.924   6.687   5.806  1.0528 -1.0115 -0.3150
  190MOL0     H25017   4.916   6.962   5.897 -1.0844  0.3258 -0.2546
  190MOL0     H25018   5.015   6.826   5.947 -0.6728  1.4414 -2.0446
  190MOL0     H25019   5.037   6.928   6.168 -0.1265  1.1423  0.7921
  190MOL0     H25020   4.904   7.053   6.135  1.2053  2.0737 -1.0620
  190MOL0     H25021   5.046   7.162   5.959 -0.6200  1.4112  1.6585
  190MOL0     H25022   5.164   7.027   5.998  0.9708  0.2929 -0.2298
  190MOL0     H25023   5.051   7.234   6.191  0.0222 -1.1478  0.6833
  190MOL0     H25024   5.190   7.120   6.209  1.6273 -0.4574 -1.6000
  190MOL0     H25025   5.203   7.333   6.008  2.0742  1.6844 -0.3111
  190MOL0     H25026   5.340   7.249   6.093 -0.0201  1.0959 -1.7802
  190MOL0     H25027   5.251   7.355   6.306  3.9575  1.2731  0.8394
  190MOL0     H25028   5.139   7.445   6.194 -0.4062 -2.8735 -2.5662
  190MOL0     H25029   5.329   7.539   6.063 -0.3341  1.2608  0.1546
  190MOL0     H25030   5.329   7.602   6.225  1.3073 -0.2296 -0.2978
  190MOL0     H25031   5.468   7.380   6.263 -4.3364 -0.2383 -1.4452
  190MOL0     H25032   5.535   7.545   6.267 -0.0641 -0.6997  0.8910
  190MOL0     H25033   5.643   7.656   6.033 -1.3258  0.1177  0.2150
  190MOL0     H25034   5.841   7.456   5.767 -4.4094  1.8481 -1.4027
  190MOL0     H25035   5.901   7.564   5.912 -1.0920  0.1497  2.9360
  190MOL0     H25036   5.870   7.680   5.707 -0.7954  0.5218 -0.2670
  190MOL0     H25037   5.771   7.745   5.838  1.9167  1.9360 -1.6346
  190MOL0     H25038   5.703   7.599   5.579  1.2917  1.5802  0.6687
  190MOL0     H25039   5.607   7.559   5.730  1.5843  0.1989  1.8866
  190MOL0     H25040   5.512   7.749   5.576 -0.0866 -1.2372  0.7005
  190MOL0     H25041   5.658   7.832   5.639  1.0793 -0.8669 -1.3284
  190MOL0     H25042   5.340   7.887   5.951 -0.3925 -0.6808 -0.1608
  190MOL0     H25043   5.100   7.817   5.983 -2.1982 -2.0149 -0.8395
  190MOL0     H25044   4.718   7.606   5.729  0.7187 -0.9479 -0.3911
  190MOL0     H25045   4.475   7.532   5.778 -0.5873 -1.1022  0.4235
  190MOL0     H25046   4.441   7.262   6.121 -0.0048 -3.0275  1.2181
  190MOL0     H25047   4.425   7.149   5.986  0.2558  2.3012 -3.3406
  190MOL0     H25048   4.179   7.328   6.070 -2.2180 -0.7328 -2.5742
  190MOL0     H25049   4.218   7.160   6.136  0.4472 -1.0951 -0.4956
  190MOL0     H25050   4.231   7.073   5.905  1.7354  0.2221  2.4350
  190MOL0     H25051   4.173   7.244   5.854  0.6841  2.2186  1.6288
  190MOL0     H25052   4.016   7.050   6.023  3.3986 -0.6958 -0.6858
  190MOL0     H25053   3.957   7.209   5.983 -2.9696 -2.6301  0.6539
  190MOL0     H25054   3.845   7.057   5.852  0.7257 -0.5162  3.8748
  190MOL0     H25055   3.991   6.975   5.795  1.8024 -0.6798  3.9025
  190MOL0     H25056   4.035   7.164   5.645 -2.5362  1.6237 -4.5826
  190MOL0     H25057   3.954   7.283   5.749  2.5150 -1.5745  4.8076
  190MOL0     H25058   3.855   7.168   5.515 -3.3805 -0.4481 -1.4142
  190MOL0     H25059   3.760   7.090   5.634 -1.2306  0.5341  0.7366
  190MOL0     H25060   3.796   7.388   5.607  1.6344 -1.5124 -0.4206
  190MOL0     H25061   3.704   7.301   5.734 -1.1441  2.1771 -0.3557
  190MOL0     H25062   4.635   7.210   6.009 -1.2545  0.7467  2.1382
  190MOL0     H25063   4.866   7.269   5.962 -0.0697 -0.5417 -1.4034
  190MOL0     H25064   5.170   7.488   5.722 -2.0246  0.8642 -0.0781
  190MOL0     H25065   5.394   7.568   5.658  0.3243  0.3101  0.7973
  190MOL0     H25066   4.598   6.702   6.092  0.3463  1.6233 -0.1156
  190MOL0     H25067   4.478   6.525   5.959 -0.0345 -2.5249 -1.8614
  190MOL0     H25068   4.158   6.347   5.681  0.6530  0.0391  1.0039
  190MOL0     H25069   4.071   6.172   5.546 -0.0751  0.8649 -0.7226
  190MOL0     H25070   4.340   5.941   5.259 -0.6427  0.3132 -1.3265
  190MOL0     H25071   4.212   6.032   5.177 -1.8320 -0.5883 -0.3633
  190MOL0     H25072   4.057   5.825   5.254 -0.7663  0.4375 -0.8825
  190MOL0     H25073   4.157   5.813   5.113 -0.4657  0.7331  0.0455
  190MOL0     H25074   4.152   5.639   5.295 -2.1044  1.8125  1.4663
  190MOL0     H25075   4.257   5.745   5.392 -0.3538 -1.0087  0.3702
  190MOL0     H25076   4.346   5.566   5.187 -1.1278 -0.0820 -0.8481
  190MOL0     H25077   4.354   5.712   5.106  0.1911 -1.0606  0.0452
  190MOL0     H25078   4.615   5.778   5.446 -0.3132 -0.6426  0.0688
  190MOL0     H25079   4.465   6.050   5.424  0.2148  0.3662 -0.5171
  190MOL0     H25080   4.558   6.235   5.530  0.5142 -0.6175 -1.4735
  191MOL0     O25081   2.994  11.124   0.368  0.4233 -0.5214  0.2263
  191MOL0     C25082   3.064  11.151   0.464 -0.1758 -0.3126 -0.2397
  191MOL0     O25083   3.027  11.171   0.597  0.6555  0.1370  0.3298
  191MOL0     C25084   2.897  11.182   0.645  0.3637 -0.5792  0.9634
  191MOL0     C25085   2.874  11.134   0.768  0.6591 -0.1080 -0.3590
  191MOL0     C25086   2.745  11.121   0.818  0.1584 -0.4069  0.6306
  191MOL0     C25087   2.638  11.170   0.752 -0.1298 -0.0674  0.0124
  191MOL0     O25088   2.517  11.161   0.809  0.3612 -0.0871 -0.3412
  191MOL0     C25089   2.437  11.055   0.753 -0.0377  0.1695 -0.1160
  191MOL0     C25090   2.314  11.036   0.823  0.3877 -0.0001 -0.4358
  191MOL0     C25091   2.214  11.154   0.788 -0.0130 -0.1021  0.0343
  191MOL0     C25092   2.075  11.107   0.851 -0.2344 -0.6417 -0.6092
  191MOL0     C25093   1.979  11.222   0.831  0.1236  0.0490 -0.3741
  191MOL0     C25094   1.841  11.171   0.888 -0.3385 -0.1247 -0.1283
  191MOL0     C25095   1.721  11.260   0.854  0.3806 -0.2311 -0.5132
  191MOL0     C25096   1.595  11.202   0.920 -0.9927 -0.4291 -0.3195
  191MOL0     N25097   1.561  11.267   1.053 -0.0693  0.1056 -0.2555
  191MOL0     C25098   1.451  11.336   1.064  0.2594 -0.0380  0.2826
  191MOL0     C25099   1.452  11.371   1.197  0.3933 -0.0760 -0.6276
  191MOL0     C25100   1.344  11.438   1.268  0.1969 -0.2151  0.0301
  191MOL0     C25101   1.355  11.594   1.252 -0.3453 -0.6160  0.3918
  191MOL0     C25102   1.255  11.681   1.345 -1.0889 -0.3601  0.6804
  191MOL0     C25103   1.110  11.634   1.311  0.6271  0.6524 -0.0361
  191MOL0     O25104   1.015  11.726   1.364 -0.3978  0.0048  0.7743
  191MOL0     C25105   0.884  11.713   1.325  0.3565 -0.2301 -0.2773
  191MOL0     C25106   0.836  11.609   1.240 -0.0050  0.0826  0.6865
  191MOL0     C25107   0.701  11.606   1.212  0.0292  0.1009 -0.1708
  191MOL0     C25108   0.613  11.713   1.252 -0.2451  0.1064 -0.1813
  191MOL0     C25109   0.465  11.707   1.214 -0.1016 -0.5427 -1.0134
  191MOL0     O25110   0.425  11.599   1.139 -0.1572 -0.0761  0.1468
  191MOL0     C25111   0.293  11.589   1.103 -0.0322 -0.5758  0.8289
  191MOL0     C25112   0.240  11.679   1.011  0.8275  0.2119 -0.0386
  191MOL0     C25113   0.108  11.675   0.973  0.0022 -0.8256 -0.9574
  191MOL0     C25114   0.021  11.587   1.037  0.0634 -0.7117 -0.1337
  191MOL0     O25115  -0.115  11.585   1.012 -0.4061  0.0461 -0.3771
  191MOL0     C25116  -0.169  11.661   0.903  0.3441 -0.0108  0.0824
  191MOL0     C25117  -0.320  11.667   0.921 -0.1948 -0.6211  0.4497
  191MOL0     C25118  -0.398  11.682   0.785 -0.0114 -0.1945 -0.4304
  191MOL0     C25119  -0.544  11.702   0.810  0.2069  0.3064 -0.7104
  191MOL0     C25120  -0.632  11.651   0.690 -0.3527  0.1361  0.1715
  191MOL0     C25121  -0.777  11.655   0.734  1.0509  0.9214 -0.2023
  191MOL0     C25122  -0.883  11.698   0.628  0.6370 -0.8252  0.6065
  191MOL0     C25123  -0.874  11.847   0.579 -0.5620  0.6733  0.1213
  191MOL0    Cl25124  -0.860  11.957   0.716 -0.1611 -0.3583  0.1506
  191MOL0     C25125   0.071  11.495   1.124 -0.3395 -0.0125 -0.1198
  191MOL0     C25126   0.205  11.502   1.160 -0.0216  0.0503  0.3198
  191MOL0     O25127   0.386  11.792   1.254 -0.1723 -0.0158 -0.2462
  191MOL0     C25128   0.667  11.818   1.328  0.2353 -0.5708 -0.6100
  191MOL0     C25129   0.801  11.821   1.365 -0.5531  0.0258 -0.5606
  191MOL0     N25130   1.572  11.342   1.258  0.0868  0.0814  0.0235
  191MOL0     N25131   1.637  11.264   1.171  1.3785  0.4561 -0.3972
  191MOL0     C25132   2.656  11.229   0.628 -0.3917 -0.5791  0.9615
  191MOL0     C25133   2.787  11.227   0.573  0.3494  0.4223 -0.3989
  191MOL0     C25134   3.204  11.185   0.437 -0.0952  0.2157  0.1651
  191MOL0     C25135   3.285  11.255   0.531 -0.0286 -0.6673 -0.2994
  191MOL0     C25136   3.418  11.275   0.510  0.3566 -0.2920 -0.0434
  191MOL0     C25137   3.473  11.236   0.389 -0.5535 -1.0247  0.1083
  191MOL0     O25138   3.608  11.275   0.374 -0.3640 -0.3064 -0.1981
  191MOL0     C25139   3.680  11.238   0.256  0.3893 -0.3620 -0.0311
  191MOL0     C25140   3.814  11.305   0.255 -0.1061  0.1478 -0.5289
  191MOL0     C25141   3.798  11.459   0.267 -0.2650 -0.1038  0.5409
  191MOL0     C25142   3.929  11.519   0.324 -0.4377 -1.2145 -0.3886
  191MOL0     C25143   3.930  11.670   0.331 -0.0598  0.4659  0.1494
  191MOL0     C25144   3.957  11.793   0.331  0.7248  0.5383  0.5024
  191MOL0     C25145   3.398  11.171   0.289 -0.3051 -0.0508  0.5779
  191MOL0     C25146   3.257  11.150   0.307 -0.4169  0.0332  0.1385
  191MOL0     H25147   2.965  11.113   0.823  0.4466  2.3125  1.0439
  191MOL0     H25148   2.729  11.080   0.916  0.2642  0.5675  1.0694
  191MOL0     H25149   2.477  10.954   0.767 -2.2574 -0.5064  2.0481
  191MOL0     H25150   2.413  11.091   0.653 -2.6688 -1.2728 -0.0863
  191MOL0     H25151   2.339  11.016   0.928  0.6055 -3.5999 -1.0472
  191MOL0     H25152   2.271  10.943   0.783  0.5215  0.2866 -1.2634
  191MOL0     H25153   2.200  11.169   0.681 -2.5375  1.1720  0.4547
  191MOL0     H25154   2.244  11.249   0.834 -0.5765  0.6258 -1.0577
  191MOL0     H25155   2.042  11.011   0.810 -0.3746 -0.5193 -0.7847
  191MOL0     H25156   2.087  11.074   0.955  3.6802 -3.5434 -1.7315
  191MOL0     H25157   1.974  11.247   0.724  2.3308  0.4146 -0.4362
  191MOL0     H25158   2.013  11.313   0.879 -0.0500  1.3744 -2.6022
  191MOL0     H25159   1.843  11.157   0.997 -1.5854  1.4016  0.1254
  191MOL0     H25160   1.820  11.074   0.842  1.2037 -1.4012  1.6795
  191MOL0     H25161   1.725  11.366   0.879 -5.0754 -0.2046  1.8201
  191MOL0     H25162   1.699  11.245   0.748 -1.4895 -0.1285 -0.1818
  191MOL0     H25163   1.595  11.095   0.941 -6.0005 -0.6389 -0.1525
  191MOL0     H25164   1.519  11.210   0.842  0.6025 -0.0403 -1.8961
  191MOL0     H25165   1.367  11.343   0.996  0.0199 -0.1658  0.5639
  191MOL0     H25166   1.335  11.408   1.372  0.7429 -0.3473  0.0398
  191MOL0     H25167   1.243  11.407   1.238 -0.0837  0.7605 -0.0797
  191MOL0     H25168   1.322  11.624   1.152 -0.3743  1.1731  0.9038
  191MOL0     H25169   1.458  11.629   1.266 -0.0880 -1.0960 -0.2916
  191MOL0     H25170   1.270  11.669   1.452 -0.8306 -4.2834  0.3446
  191MOL0     H25171   1.248  11.787   1.317  0.5941 -1.0967 -3.2141
  191MOL0     H25172   1.090  11.539   1.362 -4.2270 -0.1729 -2.9003
  191MOL0     H25173   1.095  11.617   1.204 -0.6753 -0.9322  0.3555
  191MOL0     H25174   0.904  11.531   1.206 -2.9492 -1.3370 -2.6247
  191MOL0     H25175   0.674  11.524   1.146 -1.2584  0.1420  0.2674
  191MOL0     H25176   0.313  11.753   0.981  0.2105  0.7768 -0.1805
  191MOL0     H25177   0.068  11.756   0.913  1.0783 -0.3518 -1.0511
  191MOL0     H25178  -0.140  11.623   0.805  1.5394 -0.3316  0.5394
  191MOL0     H25179  -0.140  11.767   0.897 -0.2933  0.6138  4.4138
  191MOL0     H25180  -0.350  11.754   0.979  3.1109  1.7546 -1.0554
  191MOL0     H25181  -0.350  11.574   0.970  1.6805 -1.4746  0.0614
  191MOL0     H25182  -0.391  11.589   0.728 -0.9540  0.0836 -1.0123
  191MOL0     H25183  -0.376  11.770   0.725  5.6249 -1.2555 -0.4335
  191MOL0     H25184  -0.568  11.635   0.894 -2.4800 -0.7034 -2.1341
  191MOL0     H25185  -0.557  11.807   0.837 -0.0897 -0.6849  3.6941
  191MOL0     H25186  -0.592  11.552   0.663 -1.8473 -0.0648 -1.5360
  191MOL0     H25187  -0.614  11.730   0.617  1.3518  0.6330  1.0797
  191MOL0     H25188  -0.792  11.727   0.815 -1.2749  1.9354 -1.4294
  191MOL0     H25189  -0.801  11.559   0.782 -5.1620  2.3705  0.4693
  191MOL0     H25190  -0.874  11.636   0.538 -2.0409  2.3592 -2.1096
  191MOL0     H25191  -0.986  11.693   0.664 -0.7820 -0.0737 -2.9802
  191MOL0     H25192  -0.969  11.863   0.526 -1.4343 -0.5469  1.2839
  191MOL0     H25193  -0.790  11.865   0.510  0.7910 -0.7049  1.3517
  191MOL0     H25194   0.008  11.419   1.170  2.2166 -2.7175 -0.7457
  191MOL0     H25195   0.239  11.439   1.242 -1.4436  0.6209  1.3754
  191MOL0     H25196   0.616  11.912   1.348  2.7781  0.4476  1.6146
  191MOL0     H25197   0.833  11.908   1.421 -0.2731 -0.4490  0.0190
  191MOL0     H25198   2.582  11.284   0.572  0.8043  0.0005 -0.1043
  191MOL0     H25199   2.814  11.261   0.474  1.3114 -1.4211 -0.8172
  191MOL0     H25200   3.239  11.283   0.626 -2.2410 -1.7967 -0.9560
  191MOL0     H25201   3.483  11.325   0.581  1.8221 -0.5270 -1.1764
  191MOL0     H25202   3.632  11.275   0.165  1.9129 -2.1348 -1.6370
  191MOL0     H25203   3.686  11.130   0.247 -0.4595 -0.4375  0.2356
  191MOL0     H25204   3.871  11.265   0.339  1.5793  0.1996 -1.6141
  191MOL0     H25205   3.868  11.277   0.165 -2.2017 -1.2804 -1.4218
  191MOL0     H25206   3.713  11.493   0.327 -1.2659  1.0514 -1.4417
  191MOL0     H25207   3.787  11.508   0.170  0.5891  0.1016  0.5403
  191MOL0     H25208   3.955  11.471   0.419 -2.2440 -2.5341 -0.5026
  191MOL0     H25209   4.000  11.485   0.247  2.0001 -1.3512  1.7858
  191MOL0     H25210   3.967  11.900   0.330 -1.2959  1.0866 -6.2522
  191MOL0     H25211   3.439  11.162   0.189  0.6586  4.5941  0.3105
  191MOL0     H25212   3.192  11.104   0.234  0.7690  1.2894 -1.7865
  192MOL0     O25213   2.146   2.238   5.274 -0.1026  0.7236  0.2700
  192MOL0     C25214   2.234   2.153   5.252  0.2791 -1.7276 -0.2074
  192MOL0     O25215   2.230   2.040   5.172  0.1266  0.2575  0.2977
  192MOL0     C25216   2.105   2.013   5.124 -0.3630 -0.2939  0.0858
  192MOL0     C25217   2.076   2.008   4.990  0.5385  0.0107 -0.3257
  192MOL0     C25218   1.940   1.992   4.940  0.4893 -0.6138 -0.2314
  192MOL0     C25219   1.836   1.974   5.038  0.2301 -1.0632 -0.2580
  192MOL0     O25220   1.706   1.956   5.002 -0.5998 -0.4827  0.1232
  192MOL0     C25221   1.637   2.087   4.983  1.1874 -1.1774 -0.4453
  192MOL0     C25222   1.501   2.086   5.064  0.1522 -0.0326  0.2636
  192MOL0     C25223   1.405   2.202   5.041 -0.1980 -0.1579  0.7312
  192MOL0     C25224   1.273   2.193   5.110  0.5301 -0.3401  0.5223
  192MOL0     C25225   1.165   2.295   5.061  0.2149  0.0138  0.5976
  192MOL0     C25226   1.138   2.291   4.905 -0.1234  0.3352 -0.2129
  192MOL0     C25227   1.008   2.357   4.874  0.3209  0.2110  0.5707
  192MOL0     C25228   0.885   2.287   4.938  0.0321 -0.5330  0.6974
  192MOL0     N25229   0.761   2.363   4.909 -1.6651  0.2092 -0.0381
  192MOL0     C25230   0.711   2.390   4.786 -0.8658 -0.8486  1.0057
  192MOL0     C25231   0.612   2.478   4.808 -0.0039 -0.5370  0.2452
  192MOL0     C25232   0.525   2.532   4.695 -0.4390  0.1712  0.2057
  192MOL0     C25233   0.380   2.521   4.724 -0.8523  0.3530  0.6077
  192MOL0     C25234   0.308   2.570   4.586 -0.2946 -0.4458  0.5828
  192MOL0     C25235   0.155   2.602   4.627  0.0233  0.7529  0.5388
  192MOL0     O25236   0.090   2.480   4.666 -0.0384  0.2365  0.1049
  192MOL0     C25237  -0.047   2.477   4.664  0.1846  0.5154  0.8536
  192MOL0     C25238  -0.127   2.592   4.676  0.0316  0.3198 -0.2481
  192MOL0     C25239  -0.267   2.585   4.680  0.3569 -0.6056 -0.0803
  192MOL0     C25240  -0.328   2.463   4.674  0.0532 -0.4459 -0.2079
  192MOL0     C25241  -0.477   2.454   4.675 -0.0684 -0.1552 -0.0176
  192MOL0     O25242  -0.541   2.340   4.652 -0.4010  0.0588  0.3214
  192MOL0     C25243  -0.671   2.322   4.618 -0.4878  0.0780 -0.2858
  192MOL0     C25244  -0.694   2.242   4.509  0.3873  0.6420 -0.0369
  192MOL0     C25245  -0.827   2.228   4.460  0.1101 -0.1111 -0.0561
  192MOL0     C25246  -0.942   2.302   4.517  0.0350 -0.1390 -0.0779
  192MOL0     O25247  -1.067   2.313   4.456 -0.7361 -0.4643  0.4993
  192MOL0     C25248  -1.105   2.227   4.337 -0.2079 -0.1728  0.5338
  192MOL0     C25249  -1.249   2.248   4.298 -1.7838  0.0848  0.4721
  192MOL0     C25250  -1.348   2.244   4.413  0.0795 -0.1599  0.1909
  192MOL0     C25251  -1.488   2.273   4.361  0.2837 -0.3788 -0.5757
  192MOL0     C25252  -1.515   2.422   4.317  0.7535  0.9583  0.2507
  192MOL0     C25253  -1.663   2.469   4.285  0.4210  0.3641  0.8356
  192MOL0     C25254  -1.715   2.381   4.174  0.6724  0.1291 -0.2202
  192MOL0     C25255  -1.840   2.425   4.106  0.4600  0.9738 -0.1002
  192MOL0    Cl25256  -1.846   2.595   4.057  0.0035 -0.7779  0.3686
  192MOL0     C25257  -0.909   2.385   4.631  0.1800  0.5882 -0.4873
  192MOL0     C25258  -0.777   2.393   4.685 -0.3054 -0.2755  0.6799
  192MOL0     O25259  -0.532   2.563   4.683 -0.0615 -0.2825 -0.7992
  192MOL0     C25260  -0.256   2.350   4.641 -0.4558 -0.4942  0.2359
  192MOL0     C25261  -0.116   2.359   4.648 -0.1985  0.2097 -0.0500
  192MOL0     N25262   0.597   2.493   4.945  0.0662  0.6051  0.3215
  192MOL0     N25263   0.687   2.426   5.008 -0.0412  0.0858  0.2177
  192MOL0     C25264   1.871   1.964   5.169 -0.9049 -0.0580 -0.0919
  192MOL0     C25265   2.005   1.992   5.213 -0.0808  0.6774  0.0449
  192MOL0     C25266   2.364   2.199   5.295  0.3155  0.2574  0.0342
  192MOL0     C25267   2.371   2.275   5.411 -0.0201 -0.3951  0.8937
  192MOL0     C25268   2.490   2.309   5.467 -0.7387  0.7582  1.1737
  192MOL0     C25269   2.607   2.272   5.400 -0.9645  0.3952  1.3587
  192MOL0     O25270   2.724   2.308   5.465 -0.7732  0.0573 -0.3834
  192MOL0     C25271   2.840   2.310   5.379 -0.3037 -0.5393  0.0288
  192MOL0     C25272   2.948   2.397   5.442 -0.1868 -0.0274  0.0585
  192MOL0     C25273   3.071   2.371   5.356  0.3948 -0.4236  0.5891
  192MOL0     C25274   3.082   2.483   5.246  0.1348  0.7915 -0.5262
  192MOL0     C25275   3.220   2.514   5.214 -0.9606  0.4540  0.0014
  192MOL0     C25276   3.343   2.527   5.192  0.6266  0.7302 -0.1501
  192MOL0     C25277   2.601   2.194   5.279 -0.1974  0.1890  0.2011
  192MOL0     C25278   2.474   2.156   5.229  0.4755 -0.2112 -0.4219
  192MOL0     H25279   2.162   2.034   4.930  1.6927 -1.2202  0.7164
  192MOL0     H25280   1.907   2.001   4.837 -4.3798 -0.3677  1.1050
  192MOL0     H25281   1.616   2.082   4.876 -2.6787  0.9286  0.0464
  192MOL0     H25282   1.688   2.183   4.995 -2.2565  0.7412 -0.0447
  192MOL0     H25283   1.531   2.075   5.169  2.4225 -1.6100 -0.4826
  192MOL0     H25284   1.453   1.991   5.043  0.0752  0.4450 -1.9063
  192MOL0     H25285   1.390   2.205   4.932  0.8741 -0.9626  0.5423
  192MOL0     H25286   1.454   2.298   5.061 -0.0084  0.0969 -0.7703
  192MOL0     H25287   1.221   2.097   5.111  0.6596 -0.4384  2.7447
  192MOL0     H25288   1.295   2.210   5.215  1.8737 -2.1264  0.5815
  192MOL0     H25289   1.214   2.391   5.080 -0.3558  0.9279 -2.0580
  192MOL0     H25290   1.069   2.282   5.111 -1.9885  0.5857 -3.1021
  192MOL0     H25291   1.144   2.187   4.873  3.5122  0.1916  0.5824
  192MOL0     H25292   1.230   2.326   4.857  1.5931 -2.3004  0.9518
  192MOL0     H25293   1.012   2.456   4.921  2.9395  0.2075  0.4972
  192MOL0     H25294   0.996   2.360   4.765 -0.8731  0.1274  0.6896
  192MOL0     H25295   0.889   2.289   5.047 -1.4967 -0.4697  0.7716
  192MOL0     H25296   0.879   2.182   4.909  0.1342  0.1383 -2.0153
  192MOL0     H25297   0.739   2.356   4.687 -0.8882  1.7466  0.0501
  192MOL0     H25298   0.556   2.493   4.598  0.3692  1.3198 -0.0211
  192MOL0     H25299   0.546   2.640   4.694 -2.2823  0.6459  2.4066
  192MOL0     H25300   0.367   2.602   4.797 -1.1077  3.0175 -2.1708
  192MOL0     H25301   0.350   2.420   4.752  1.4443 -0.8640 -0.9781
  192MOL0     H25302   0.364   2.651   4.538 -0.8522 -1.2149 -1.5028
  192MOL0     H25303   0.301   2.487   4.514  0.7497 -0.2554  0.2439
  192MOL0     H25304   0.108   2.637   4.535  0.9257 -0.3202 -0.3571
  192MOL0     H25305   0.148   2.681   4.702 -0.7344  0.1972  1.0667
  192MOL0     H25306  -0.089   2.690   4.702  1.6241  0.3555 -2.4192
  192MOL0     H25307  -0.320   2.671   4.719  0.2711  0.3566 -2.1958
  192MOL0     H25308  -0.606   2.196   4.466  0.0222  0.0394 -0.1501
  192MOL0     H25309  -0.864   2.161   4.383 -2.0881  1.2407 -0.2555
  192MOL0     H25310  -1.093   2.122   4.363 -2.4711 -0.5090  0.3920
  192MOL0     H25311  -1.042   2.257   4.253 -2.1839  2.3117 -0.1960
  192MOL0     H25312  -1.260   2.165   4.228  2.8761 -3.0823  2.9386
  192MOL0     H25313  -1.253   2.346   4.251  2.3222  0.9458  1.4984
  192MOL0     H25314  -1.314   2.330   4.471  0.1061 -0.7504  1.0792
  192MOL0     H25315  -1.349   2.150   4.469  0.3112 -0.5985 -0.5233
  192MOL0     H25316  -1.501   2.198   4.282  0.3771 -4.1112  2.6614
  192MOL0     H25317  -1.558   2.241   4.438  0.9299 -1.7494 -0.5293
  192MOL0     H25318  -1.453   2.438   4.229 -1.3596  1.0938 -1.2825
  192MOL0     H25319  -1.468   2.482   4.395  2.2712 -0.5484  0.5387
  192MOL0     H25320  -1.658   2.575   4.257  2.2100  0.3825  1.1046
  192MOL0     H25321  -1.732   2.447   4.367 -0.9240  1.9101  0.1857
  192MOL0     H25322  -1.639   2.367   4.097 -1.8488 -0.0395 -2.8249
  192MOL0     H25323  -1.724   2.283   4.222 -0.7164  0.5933  0.5361
  192MOL0     H25324  -1.928   2.401   4.165  1.1468 -1.1476  0.1685
  192MOL0     H25325  -1.851   2.366   4.014 -0.9921  0.7405  0.2056
  192MOL0     H25326  -0.991   2.433   4.684  1.4608  1.4797  0.7916
  192MOL0     H25327  -0.758   2.459   4.769  1.4757  0.2568 -0.0968
  192MOL0     H25328  -0.288   2.247   4.629  2.6015 -1.2511 -3.0119
  192MOL0     H25329  -0.066   2.263   4.642  2.9206  1.7154 -0.2431
  192MOL0     H25330   1.802   1.948   5.251  0.6546 -0.3726  1.2019
  192MOL0     H25331   2.016   2.000   5.321  3.2932  1.5403 -0.2532
  192MOL0     H25332   2.283   2.294   5.471 -0.0004 -1.4005  1.2693
  192MOL0     H25333   2.489   2.357   5.564  2.9300  2.6888  0.4625
  192MOL0     H25334   2.810   2.350   5.282 -0.1877  0.6264  0.4598
  192MOL0     H25335   2.885   2.211   5.368  2.5518  0.7564 -0.8184
  192MOL0     H25336   2.916   2.501   5.436 -2.8306 -0.8113 -0.3763
  192MOL0     H25337   2.985   2.370   5.542  0.8969  0.5830 -0.1621
  192MOL0     H25338   3.073   2.279   5.296  1.2348  0.6646 -1.1376
  192MOL0     H25339   3.162   2.371   5.416  0.3228  2.0554  0.7897
  192MOL0     H25340   3.040   2.458   5.148  0.0058 -1.4164  0.0474
  192MOL0     H25341   3.034   2.573   5.286  1.4739  0.3103  2.4125
  192MOL0     H25342   3.448   2.538   5.175  0.8514 -0.6456  0.2140
  192MOL0     H25343   2.689   2.148   5.235 -0.0196 -1.4897  2.1327
  192MOL0     H25344   2.475   2.096   5.139 -0.9954  1.7218 -1.8354
  193MOL0     O25345   7.414   3.347   8.336 -0.0893 -0.0580 -0.0149
  193MOL0     C25346   7.464   3.416   8.245 -0.6322 -1.1086  0.1703
  193MOL0     O25347   7.402   3.506   8.162  0.0926 -0.3127  0.2932
  193MOL0     C25348   7.270   3.517   8.182 -0.2554 -1.2517  0.3132
  193MOL0     C25349   7.226   3.640   8.221 -0.5839 -0.3043  1.1624
  193MOL0     C25350   7.095   3.663   8.249 -0.8075  0.9694 -0.1697
  193MOL0     C25351   6.995   3.567   8.241 -0.0791 -0.5518 -0.3599
  193MOL0     O25352   6.864   3.594   8.274  0.3006 -0.4579  0.0134
  193MOL0     C25353   6.796   3.503   8.356 -0.0797 -0.6226  0.2709
  193MOL0     C25354   6.673   3.555   8.432  0.7707  0.0697 -0.2801
  193MOL0     C25355   6.547   3.598   8.348  0.1835  0.1838  0.0048
  193MOL0     C25356   6.496   3.475   8.273  0.4709 -0.3845  0.4117
  193MOL0     C25357   6.421   3.371   8.359 -0.2315 -0.6167 -0.2772
  193MOL0     C25358   6.273   3.413   8.402 -0.0688  0.5237  0.3325
  193MOL0     C25359   6.189   3.511   8.311 -0.1032 -0.3520 -0.0547
  193MOL0     C25360   6.041   3.513   8.350 -0.0620 -0.6350  0.1375
  193MOL0     N25361   5.957   3.598   8.260  0.4777  0.0163  0.2870
  193MOL0     C25362   5.944   3.566   8.128  0.1826 -0.1396 -0.0496
  193MOL0     C25363   5.835   3.636   8.089  0.0412  0.4147  0.7134
  193MOL0     C25364   5.797   3.643   7.940 -0.1894  0.6051  0.2248
  193MOL0     C25365   5.665   3.566   7.902 -0.0765 -0.3351  0.2440
  193MOL0     C25366   5.537   3.618   7.966 -0.2047 -0.9356  0.6084
  193MOL0     C25367   5.498   3.750   7.912  1.3261  0.3721 -0.1892
  193MOL0     O25368   5.383   3.820   7.971  0.4251  0.4948 -0.1875
  193MOL0     C25369   5.259   3.771   7.952 -0.2712  0.7476  0.2612
  193MOL0     C25370   5.161   3.840   8.023 -0.6526 -0.2403  0.5773
  193MOL0     C25371   5.030   3.791   8.029  0.0956  0.1950  0.8156
  193MOL0     C25372   4.996   3.672   7.960  0.5055  0.2934  0.4970
  193MOL0     C25373   4.847   3.618   7.965 -1.7697 -0.1894  0.3174
  193MOL0     O25374   4.750   3.692   8.031 -0.0892 -0.0290 -0.5461
  193MOL0     C25375   4.618   3.649   8.024  0.3513  0.9821 -0.2819
  193MOL0     C25376   4.550   3.672   7.902  0.3019  0.0122 -0.6504
  193MOL0     C25377   4.414   3.667   7.899 -0.0869  0.5721 -0.1194
  193MOL0     C25378   4.340   3.632   8.017 -0.7167 -0.2651  0.0809
  193MOL0     O25379   4.205   3.629   8.024 -0.4493  0.2881 -0.2639
  193MOL0     C25380   4.130   3.663   7.910  0.0827  0.0808  0.2593
  193MOL0     C25381   3.979   3.630   7.937  0.7848 -0.3632 -0.0756
  193MOL0     C25382   3.908   3.718   8.036 -0.6569 -0.0375  0.2897
  193MOL0     C25383   3.753   3.701   8.034 -0.2776 -0.3852  0.7644
  193MOL0     C25384   3.670   3.801   8.109 -0.1062 -0.6395 -0.8848
  193MOL0     C25385   3.522   3.759   8.106 -0.4429  0.3458  0.2206
  193MOL0     C25386   3.493   3.628   8.191 -0.0629 -0.4798  0.5155
  193MOL0     C25387   3.340   3.604   8.208 -0.8046 -0.2752 -0.2852
  193MOL0    Cl25388   3.268   3.565   8.046 -0.1580  0.2384  0.5171
  193MOL0     C25389   4.412   3.600   8.136  0.1552 -0.4123 -1.1050
  193MOL0     C25390   4.549   3.615   8.144  0.1553 -0.1709 -0.4811
  193MOL0     O25391   4.830   3.504   7.917 -0.0244 -0.1757  0.4307
  193MOL0     C25392   5.087   3.607   7.880  0.4593  0.3904 -0.3846
  193MOL0     C25393   5.217   3.657   7.870 -0.3990 -0.5901 -0.4448
  193MOL0     N25394   5.780   3.700   8.194 -0.3148  0.0582 -0.7994
  193MOL0     N25395   5.856   3.667   8.299 -0.2762  0.3229 -0.6783
  193MOL0     C25396   7.032   3.437   8.201 -0.7589  0.7328  0.2632
  193MOL0     C25397   7.172   3.419   8.174  0.3545 -0.0907  0.4526
  193MOL0     C25398   7.612   3.411   8.223  0.0336 -0.8269  0.1741
  193MOL0     C25399   7.672   3.480   8.115  0.3904 -0.3938  0.1261
  193MOL0     C25400   7.805   3.466   8.081 -0.2908  0.4773 -0.2789
  193MOL0     C25401   7.880   3.370   8.147  0.2879  0.6401  0.4068
  193MOL0     O25402   8.010   3.353   8.116 -0.4132 -0.3720 -0.1427
  193MOL0     C25403   8.089   3.272   8.207  1.0172 -0.5275 -0.1587
  193MOL0     C25404   8.236   3.313   8.184  0.4224 -0.6503 -0.2094
  193MOL0     C25405   8.322   3.222   8.262  0.6860  0.7906 -0.9561
  193MOL0     C25406   8.467   3.238   8.255 -0.6396  1.1351 -0.3608
  193MOL0     C25407   8.522   3.332   8.352 -0.7406 -0.9228 -0.4706
  193MOL0     C25408   8.579   3.414   8.416 -0.3893 -0.7251 -0.4301
  193MOL0     C25409   7.818   3.302   8.259 -0.0978 -0.2650 -0.4215
  193MOL0     C25410   7.685   3.314   8.288  0.0262  0.2154 -0.0394
  193MOL0     H25411   7.306   3.713   8.214  0.4237 -1.5732 -3.4408
  193MOL0     H25412   7.073   3.766   8.274 -1.5422  1.4420 -2.5558
  193MOL0     H25413   6.861   3.467   8.436 -1.4079 -1.1851  1.1284
  193MOL0     H25414   6.762   3.421   8.293 -0.0897  0.0432 -0.5979
  193MOL0     H25415   6.704   3.639   8.495 -1.2783 -0.3702  1.4513
  193MOL0     H25416   6.654   3.474   8.503  3.5282 -1.7562 -1.4789
  193MOL0     H25417   6.578   3.678   8.280  1.9867 -1.4432 -1.1912
  193MOL0     H25418   6.468   3.633   8.417 -0.1617 -0.6727  0.0505
  193MOL0     H25419   6.436   3.519   8.193 -1.0453 -2.2798  0.4142
  193MOL0     H25420   6.580   3.432   8.217 -0.0419  1.1134 -1.6148
  193MOL0     H25421   6.482   3.349   8.447 -0.2844 -3.1719 -0.7984
  193MOL0     H25422   6.407   3.285   8.293  0.6696  0.3486 -1.7971
  193MOL0     H25423   6.259   3.458   8.501 -2.7425  1.4041 -0.3569
  193MOL0     H25424   6.230   3.312   8.404 -0.5102  0.6339 -1.7681
  193MOL0     H25425   6.235   3.610   8.313  1.4775 -1.0354 -0.8214
  193MOL0     H25426   6.193   3.475   8.208  0.4826  2.6833 -1.2082
  193MOL0     H25427   6.029   3.546   8.453 -1.1074 -0.1529 -0.1245
  193MOL0     H25428   6.010   3.409   8.345  1.8859 -1.3133  1.1601
  193MOL0     H25429   6.013   3.507   8.068  0.7650 -0.3152  0.7689
  193MOL0     H25430   5.871   3.592   7.879 -0.9775 -2.9024  1.8970
  193MOL0     H25431   5.788   3.747   7.908 -0.1654  0.5201 -0.0559
  193MOL0     H25432   5.681   3.463   7.936 -3.0644 -0.2937  2.1356
  193MOL0     H25433   5.650   3.567   7.794  1.8590  0.0300 -0.0665
  193MOL0     H25434   5.457   3.544   7.957 -2.6916  1.6128  0.7843
  193MOL0     H25435   5.553   3.628   8.074 -2.9530 -0.0915  1.0098
  193MOL0     H25436   5.487   3.745   7.804  2.9254 -1.1104 -0.3394
  193MOL0     H25437   5.582   3.818   7.934 -0.0860  0.7021  5.9205
  193MOL0     H25438   5.197   3.931   8.070  0.1586  0.0583 -0.5746
  193MOL0     H25439   4.962   3.835   8.101 -0.0704  1.5895 -0.1415
  193MOL0     H25440   4.605   3.692   7.810  0.7965 -5.0879 -1.7447
  193MOL0     H25441   4.373   3.666   7.798 -0.0806 -5.2488 -0.3562
  193MOL0     H25442   4.164   3.606   7.823  0.4046 -0.6591  0.8567
  193MOL0     H25443   4.135   3.769   7.887  1.1694 -0.2457 -1.1097
  193MOL0     H25444   3.964   3.524   7.960  1.9014 -1.0950 -2.4270
  193MOL0     H25445   3.934   3.651   7.840 -0.0775 -1.6807  0.0126
  193MOL0     H25446   3.935   3.823   8.028 -0.5596  0.4069  4.3839
  193MOL0     H25447   3.951   3.691   8.133 -0.9350  0.1091  0.4551
  193MOL0     H25448   3.725   3.695   7.929  1.0152  1.6785  0.2552
  193MOL0     H25449   3.731   3.604   8.080 -2.5313 -1.2854 -1.9412
  193MOL0     H25450   3.685   3.900   8.064  2.0545 -0.2241  0.5302
  193MOL0     H25451   3.723   3.801   8.205 -1.5882  1.8130  0.0288
  193MOL0     H25452   3.486   3.741   8.005  1.6123 -0.8789 -0.3698
  193MOL0     H25453   3.452   3.831   8.148  0.4596  0.4802  1.5621
  193MOL0     H25454   3.520   3.546   8.125 -1.3504 -0.7969  0.3513
  193MOL0     H25455   3.544   3.637   8.288 -0.3987 -0.1417  0.6624
  193MOL0     H25456   3.294   3.695   8.247 -1.8478 -1.5520  1.6116
  193MOL0     H25457   3.320   3.524   8.280  1.9459 -1.4033 -0.6263
  193MOL0     H25458   4.350   3.580   8.223 -0.0576  4.7342  0.2770
  193MOL0     H25459   4.605   3.590   8.233 -0.8829 -0.6671  0.0541
  193MOL0     H25460   5.053   3.527   7.815  1.8061 -0.3568 -0.2204
  193MOL0     H25461   5.287   3.594   7.818  1.2529  0.0756  0.8835
  193MOL0     H25462   6.973   3.346   8.196  2.9114 -1.8076 -1.0495
  193MOL0     H25463   7.197   3.319   8.141  2.0918  0.0850  1.1241
  193MOL0     H25464   7.612   3.553   8.062  0.1346 -0.1996  0.6789
  193MOL0     H25465   7.862   3.525   8.011 -0.5368 -1.2617 -2.0344
  193MOL0     H25466   8.085   3.163   8.197  1.9956 -0.6248  0.4189
  193MOL0     H25467   8.062   3.297   8.310 -3.0480 -2.3982 -0.5895
  193MOL0     H25468   8.266   3.301   8.079  2.0631  2.1843 -0.1527
  193MOL0     H25469   8.242   3.418   8.213  0.2918 -0.9549  0.9810
  193MOL0     H25470   8.300   3.117   8.238 -0.3720 -0.9484  5.6290
  193MOL0     H25471   8.294   3.232   8.367 -1.6468  1.6258 -1.5912
  193MOL0     H25472   8.514   3.143   8.280  0.4687  1.7038 -0.2131
  193MOL0     H25473   8.495   3.279   8.158  1.3488  2.0136  0.5444
  193MOL0     H25474   8.627   3.498   8.461 -1.6094 -0.2255 -0.0487
  193MOL0     H25475   7.866   3.223   8.316  0.1330 -0.3233 -0.6906
  193MOL0     H25476   7.639   3.249   8.361  0.9390 -1.3047 -0.7715
  194MOL0     O25477   7.776   9.139   2.087 -0.6800 -0.3244  0.0216
  194MOL0     C25478   7.872   9.065   2.071 -0.2020  0.0307  0.4526
  194MOL0     O25479   7.878   8.962   1.985  0.3950 -0.0024 -0.8749
  194MOL0     C25480   7.777   8.941   1.892  0.4205  0.7711  0.7138
  194MOL0     C25481   7.652   8.889   1.919  0.2162  1.3592 -0.4328
  194MOL0     C25482   7.550   8.868   1.822  0.1990 -0.2943 -0.2568
  194MOL0     C25483   7.578   8.907   1.691  0.4560 -0.5710  0.3965
  194MOL0     O25484   7.485   8.886   1.583  0.6142 -0.4443  0.2282
  194MOL0     C25485   7.382   8.786   1.611  0.3891 -0.5766  0.1309
  194MOL0     C25486   7.276   8.782   1.497 -0.2978 -0.3217  0.5112
  194MOL0     C25487   7.126   8.788   1.546 -0.2127 -0.2216  0.6375
  194MOL0     C25488   7.049   8.805   1.417  0.2586 -0.1857  0.2148
  194MOL0     C25489   6.894   8.794   1.440  0.7487  0.5670 -0.7962
  194MOL0     C25490   6.808   8.823   1.317  0.1765  0.8558  0.5856
  194MOL0     C25491   6.797   8.973   1.289  0.1760 -0.2661  0.0560
  194MOL0     C25492   6.761   9.011   1.149  0.3153  0.4343 -0.0005
  194MOL0     N25493   6.622   8.978   1.109 -0.1779 -0.2716 -0.6016
  194MOL0     C25494   6.581   8.876   1.021 -0.5981  0.0660  0.6978
  194MOL0     C25495   6.451   8.891   1.006 -0.4651 -0.4023 -1.2222
  194MOL0     C25496   6.361   8.797   0.933  0.3710 -0.0694 -0.1186
  194MOL0     C25497   6.379   8.795   0.778  0.0391  0.1433  0.3907
  194MOL0     C25498   6.361   8.937   0.712 -0.2363  0.5936  0.4960
  194MOL0     C25499   6.228   8.995   0.749 -0.0937 -0.2760 -0.1696
  194MOL0     O25500   6.121   8.912   0.729  0.4429  0.4079  0.3690
  194MOL0     C25501   6.008   8.937   0.804 -0.3385 -0.4404 -0.3767
  194MOL0     C25502   6.007   8.970   0.941  0.4236 -0.5030 -0.1187
  194MOL0     C25503   5.881   9.000   1.005 -1.2534  1.0052  0.0818
  194MOL0     C25504   5.773   9.018   0.917 -0.0993  0.8230 -0.4695
  194MOL0     C25505   5.644   9.062   0.967 -0.0140  1.0201  0.8299
  194MOL0     O25506   5.531   9.052   0.881 -0.3113  0.2841 -1.3561
  194MOL0     C25507   5.402   9.071   0.932 -0.6245 -0.6561 -0.3979
  194MOL0     C25508   5.353   9.185   0.993  0.3773  0.2119  0.4657
  194MOL0     C25509   5.221   9.200   1.050 -1.0341  0.2687 -0.6126
  194MOL0     C25510   5.141   9.088   1.064 -0.4126  0.1298 -0.5837
  194MOL0     O25511   5.015   9.102   1.106  0.0387 -0.5912 -0.0139
  194MOL0     C25512   4.994   9.049   1.238 -0.2416 -0.5987 -0.1324
  194MOL0     C25513   4.842   9.067   1.271 -0.7392 -0.1032 -0.3198
  194MOL0     C25514   4.750   8.946   1.229  0.3858  0.0503  0.3116
  194MOL0     C25515   4.723   8.858   1.342 -0.6923 -0.0508  0.4991
  194MOL0     C25516   4.656   8.737   1.291  0.0989  0.0230 -0.1497
  194MOL0     C25517   4.509   8.750   1.248 -0.0205  0.2825 -0.1540
  194MOL0     C25518   4.445   8.616   1.241  0.0188  0.2079 -0.0659
  194MOL0     C25519   4.299   8.633   1.244  0.9511  0.5818  0.4782
  194MOL0    Cl25520   4.210   8.487   1.277 -0.2475 -0.3525 -0.4283
  194MOL0     C25521   5.192   8.971   1.010 -0.4551  0.2538 -0.3293
  194MOL0     C25522   5.317   8.966   0.944  0.8025 -0.2595  0.2877
  194MOL0     O25523   5.639   9.094   1.086 -0.8350 -0.6156 -0.4160
  194MOL0     C25524   5.775   8.975   0.782 -0.3298  0.4538  0.0293
  194MOL0     C25525   5.896   8.937   0.730  0.3965  0.8595  0.0426
  194MOL0     N25526   6.412   9.000   1.079 -0.2610 -0.6590 -0.3962
  194MOL0     N25527   6.512   9.047   1.143 -1.1239 -0.4295 -0.0045
  194MOL0     C25528   7.703   8.959   1.655  1.3337 -0.0888  0.4157
  194MOL0     C25529   7.801   8.978   1.753  0.6292 -0.2456  0.2416
  194MOL0     C25530   7.981   9.071   2.165  0.5302 -1.0491  0.3823
  194MOL0     C25531   7.962   9.142   2.284  0.1829 -0.5084  1.2990
  194MOL0     C25532   8.065   9.178   2.365  0.2222  0.0048  0.3340
  194MOL0     C25533   8.192   9.135   2.337 -0.3764  0.5737  1.3826
  194MOL0     O25534   8.304   9.166   2.407  0.0041  0.0088 -0.2176
  194MOL0     C25535   8.321   9.233   2.534  0.1330 -0.7929 -0.1509
  194MOL0     C25536   8.273   9.381   2.519 -0.9174  0.6432  0.0990
  194MOL0     C25537   8.319   9.458   2.649 -0.2688 -0.2748  0.6847
  194MOL0     C25538   8.295   9.606   2.622 -0.0927 -0.2521  0.0637
  194MOL0     C25539   8.150   9.640   2.624 -0.2360 -0.4141  0.2261
  194MOL0     C25540   8.026   9.658   2.622  0.8055  0.0735 -0.1551
  194MOL0     C25541   8.212   9.044   2.229  0.2088 -0.3891  0.7413
  194MOL0     C25542   8.107   9.012   2.142 -0.3739 -0.4165 -0.4934
  194MOL0     H25543   7.634   8.876   2.026 -1.8565  3.2008 -0.4850
  194MOL0     H25544   7.454   8.830   1.855 -1.1801  2.3167 -0.9560
  194MOL0     H25545   7.320   8.811   1.698  1.5397  1.6301  0.4072
  194MOL0     H25546   7.421   8.685   1.626  0.5375 -0.0401  5.2465
  194MOL0     H25547   7.291   8.690   1.439 -0.4565 -0.3209  0.4678
  194MOL0     H25548   7.292   8.863   1.425 -1.4310  0.5966  1.2515
  194MOL0     H25549   7.118   8.876   1.611 -3.7164  0.8816 -1.0396
  194MOL0     H25550   7.083   8.699   1.592  0.8899 -1.3210 -0.3776
  194MOL0     H25551   7.071   8.903   1.374  0.6516 -0.8383 -1.0980
  194MOL0     H25552   7.070   8.738   1.334 -5.3663 -1.6145 -0.4792
  194MOL0     H25553   6.858   8.858   1.521 -0.1372 -1.0648  0.1768
  194MOL0     H25554   6.871   8.689   1.464 -1.6119  1.0937 -0.5242
  194MOL0     H25555   6.710   8.781   1.341  0.1285  0.1452 -0.8036
  194MOL0     H25556   6.857   8.775   1.232 -0.0585 -0.1116  0.9826
  194MOL0     H25557   6.725   9.020   1.356 -0.5087 -1.3884  0.1210
  194MOL0     H25558   6.893   9.021   1.313  0.7659 -1.4619  0.1871
  194MOL0     H25559   6.827   8.944   1.092  2.0870 -0.0430  2.4614
  194MOL0     H25560   6.789   9.115   1.132 -1.1233  0.9766  0.7964
  194MOL0     H25561   6.652   8.799   0.993 -0.9568 -0.5926  1.5701
  194MOL0     H25562   6.259   8.819   0.969  1.0060  0.8841  1.1856
  194MOL0     H25563   6.380   8.693   0.963 -1.2964 -1.0108 -2.0461
  194MOL0     H25564   6.328   8.715   0.723 -1.0299  1.5373 -0.7240
  194MOL0     H25565   6.482   8.763   0.762 -0.2920 -0.0735 -1.4197
  194MOL0     H25566   6.443   9.004   0.743 -0.5999 -0.0928  3.1952
  194MOL0     H25567   6.369   8.921   0.604  1.1099  1.6831  0.3923
  194MOL0     H25568   6.213   9.089   0.695 -1.0870 -1.6223 -2.3666
  194MOL0     H25569   6.243   9.016   0.855 -4.8130 -2.4415  1.1784
  194MOL0     H25570   6.106   8.980   0.984  1.4074 -2.2576 -1.7916
  194MOL0     H25571   5.882   9.033   1.108  2.6927  0.8099  0.2552
  194MOL0     H25572   5.422   9.268   0.998 -0.6725  1.0639  1.2936
  194MOL0     H25573   5.184   9.296   1.084 -1.0400 -0.1269  0.5541
  194MOL0     H25574   5.055   9.111   1.304  2.6261 -1.1190 -2.1078
  194MOL0     H25575   5.023   8.947   1.266 -2.1852 -0.8565  1.2105
  194MOL0     H25576   4.800   9.155   1.223 -2.2531 -0.2993  0.6038
  194MOL0     H25577   4.828   9.077   1.379 -0.8117  2.2780 -0.5055
  194MOL0     H25578   4.798   8.898   1.144 -1.3124  1.9341 -1.8215
  194MOL0     H25579   4.652   8.983   1.200  0.9830  0.5868 -1.0690
  194MOL0     H25580   4.818   8.831   1.389  1.2630  3.2576 -1.1426
  194MOL0     H25581   4.662   8.907   1.418  1.3374  1.4659  1.2390
  194MOL0     H25582   4.675   8.656   1.362 -0.7018 -0.3725 -0.3861
  194MOL0     H25583   4.707   8.701   1.201 -0.4584  0.7473 -0.7623
  194MOL0     H25584   4.501   8.800   1.151 -2.5355  0.9495  0.3309
  194MOL0     H25585   4.460   8.810   1.325 -1.5372  0.2638 -1.0507
  194MOL0     H25586   4.480   8.565   1.151  0.7065 -2.8861  1.8269
  194MOL0     H25587   4.468   8.558   1.331  2.2794  0.0488 -0.6878
  194MOL0     H25588   4.267   8.668   1.146 -2.3372 -1.3374  0.6998
  194MOL0     H25589   4.258   8.708   1.313  0.4392  1.0794 -0.3499
  194MOL0     H25590   5.127   8.884   1.009 -0.6777  0.4237 -1.2125
  194MOL0     H25591   5.342   8.867   0.908 -0.3317 -0.1063 -0.9882
  194MOL0     H25592   5.688   8.977   0.717 -1.0207 -0.5616  0.8903
  194MOL0     H25593   5.888   8.907   0.626  2.2188 -1.7021  0.5432
  194MOL0     H25594   7.724   8.981   1.551 -1.0365 -0.1741 -0.1304
  194MOL0     H25595   7.902   9.010   1.725  0.6801 -2.4358 -2.5428
  194MOL0     H25596   7.862   9.177   2.311  0.4870  0.5237  1.1089
  194MOL0     H25597   8.050   9.230   2.459  2.9999 -0.5364  1.1364
  194MOL0     H25598   8.428   9.238   2.553  0.0421 -0.1803  0.2442
  194MOL0     H25599   8.268   9.187   2.618  0.8181 -3.2112 -0.9670
  194MOL0     H25600   8.328   9.437   2.443  0.7509  0.7078  1.2895
  194MOL0     H25601   8.167   9.387   2.496 -0.3268  2.9146 -2.5322
  194MOL0     H25602   8.421   9.438   2.685  0.2887  0.4747 -0.4303
  194MOL0     H25603   8.263   9.412   2.731 -1.8173 -1.4945 -0.9836
  194MOL0     H25604   8.347   9.641   2.712  2.7750 -1.8929 -0.8120
  194MOL0     H25605   8.353   9.654   2.543 -2.4979  3.7385  0.4839
  194MOL0     H25606   7.922   9.683   2.611  0.6687  0.3967  1.5717
  194MOL0     H25607   8.312   9.003   2.221 -0.3307 -1.7103  0.5509
  194MOL0     H25608   8.127   8.949   2.056 -1.4173 -0.1586 -0.9294
  195MOL0     O25609  10.816   6.187  11.222  0.7626 -0.2295  0.1627
  195MOL0     C25610  10.822   6.313  11.257  1.1207  0.8468 -0.5376
  195MOL0     O25611  10.735   6.409  11.215  0.0825 -0.3684  0.0355
  195MOL0     C25612  10.620   6.373  11.149  0.7320  0.7500  0.0886
  195MOL0     C25613  10.557   6.474  11.080 -0.3614  0.1840 -0.4135
  195MOL0     C25614  10.439   6.443  11.008  0.5087  1.0265  0.1326
  195MOL0     C25615  10.368   6.326  11.025 -0.1699 -0.5485  1.0659
  195MOL0     O25616  10.248   6.317  10.970 -0.2879 -0.4575  1.0483
  195MOL0     C25617  10.139   6.243  11.016  0.1058 -0.6041  0.2464
  195MOL0     C25618  10.010   6.308  10.955  0.7390 -0.2865  0.1862
  195MOL0     C25619   9.884   6.228  11.003 -0.0287  0.4071  0.6121
  195MOL0     C25620   9.755   6.248  10.919  0.1994 -0.5698  0.1050
  195MOL0     C25621   9.631   6.167  10.959 -0.4412  0.6357  0.1973
  195MOL0     C25622   9.498   6.185  10.884 -0.4702 -0.8738 -0.8108
  195MOL0     C25623   9.419   6.061  10.932 -0.0311 -0.6236  0.5510
  195MOL0     C25624   9.265   6.052  10.909  0.0024 -1.0219 -0.7672
  195MOL0     N25625   9.230   6.115  10.780 -0.4390  0.0918  0.8708
  195MOL0     C25626   9.182   6.244  10.766 -0.4888  0.1709 -0.1149
  195MOL0     C25627   9.138   6.246  10.639 -0.0763  0.4178 -0.2479
  195MOL0     C25628   9.064   6.363  10.595 -0.0625  0.0487 -0.1152
  195MOL0     C25629   8.986   6.333  10.467  0.0340  0.5766  0.8784
  195MOL0     C25630   8.919   6.458  10.411 -1.3515 -1.2491 -0.9515
  195MOL0     C25631   8.785   6.497  10.481 -0.3933 -0.0461  0.3379
  195MOL0     O25632   8.800   6.512  10.625  0.2638  0.1426  0.4331
  195MOL0     C25633   8.715   6.596  10.688  0.4400  0.2599 -0.1334
  195MOL0     C25634   8.730   6.608  10.832  0.1944  0.3405 -0.3685
  195MOL0     C25635   8.661   6.702  10.904 -0.8333  0.9085 -0.1823
  195MOL0     C25636   8.558   6.782  10.843 -0.5440 -0.4297 -0.5884
  195MOL0     C25637   8.471   6.873  10.929 -0.5569 -0.7700  1.2564
  195MOL0     O25638   8.396   6.972  10.862  0.2643  0.4606 -0.0965
  195MOL0     C25639   8.315   7.057  10.938 -0.3279 -0.3247 -0.1581
  195MOL0     C25640   8.381   7.135  11.032 -0.0128  0.1329 -0.0782
  195MOL0     C25641   8.300   7.222  11.107  0.4523 -0.5241 -0.6750
  195MOL0     C25642   8.166   7.242  11.085  0.0540  0.3444  0.2090
  195MOL0     O25643   8.086   7.337  11.153  0.0278  0.4877  0.3907
  195MOL0     C25644   8.129   7.376  11.286  0.7146 -0.7084 -0.1295
  195MOL0     C25645   8.013   7.410  11.384  0.0559  0.7709  0.0669
  195MOL0     C25646   7.921   7.285  11.407 -1.4870 -0.6243 -0.5220
  195MOL0     C25647   7.829   7.310  11.527  0.2431  0.5089  0.1911
  195MOL0     C25648   7.760   7.177  11.563 -0.3219 -0.1475  0.2058
  195MOL0     C25649   7.644   7.194  11.671  0.0832 -0.4150 -0.1858
  195MOL0     C25650   7.568   7.069  11.697 -0.7292 -0.3396 -0.3723
  195MOL0     C25651   7.526   7.047  11.847  0.2932 -0.3084  0.2413
  195MOL0    Cl25652   7.407   7.174  11.894 -0.5260  0.2221 -0.3947
  195MOL0     C25653   8.102   7.158  10.991  0.3798 -0.2791  0.7325
  195MOL0     C25654   8.180   7.075  10.911  0.6220 -0.6665 -0.0119
  195MOL0     O25655   8.473   6.862  11.051 -1.3199  0.1267 -0.4424
  195MOL0     C25656   8.535   6.769  10.707  0.5322 -0.3714 -0.4397
  195MOL0     C25657   8.610   6.668  10.633  0.7096 -0.0547  0.5188
  195MOL0     N25658   9.180   6.133  10.574 -0.1055  0.1479  0.4044
  195MOL0     N25659   9.238   6.055  10.664 -0.5638 -0.5530  0.1513
  195MOL0     C25660  10.426   6.225  11.104  0.2759  0.5557 -0.6880
  195MOL0     C25661  10.551   6.243  11.167 -0.6351 -0.2351 -0.3074
  195MOL0     C25662  10.945   6.349  11.332  0.2855 -0.4250  0.3367
  195MOL0     C25663  11.031   6.255  11.399  0.8450  0.5345 -0.0914
  195MOL0     C25664  11.143   6.292  11.472 -0.1150  0.4423 -0.7004
  195MOL0     C25665  11.178   6.429  11.475 -0.2624 -0.2256 -0.4347
  195MOL0     O25666  11.289   6.479  11.546 -0.3110 -0.1690  0.1510
  195MOL0     C25667  11.345   6.406  11.655  0.0382 -0.1370  0.1375
  195MOL0     C25668  11.473   6.468  11.722 -0.2396 -0.4607  0.2604
  195MOL0     C25669  11.472   6.612  11.768 -0.2667 -0.7423  0.6442
  195MOL0     C25670  11.600   6.677  11.823  0.5731  0.1922 -0.1690
  195MOL0     C25671  11.689   6.702  11.711  0.1015 -0.1096  0.0163
  195MOL0     C25672  11.766   6.721  11.620  0.2877  0.0500 -0.3754
  195MOL0     C25673  11.094   6.523  11.412  0.3515  0.6752 -1.1590
  195MOL0     C25674  10.977   6.484  11.343 -0.4929 -0.5930 -0.1338
  195MOL0     H25675  10.603   6.572  11.073 -2.3407  1.1301 -0.9998
  195MOL0     H25676  10.393   6.525  10.953  0.5722  0.3255 -0.9893
  195MOL0     H25677  10.126   6.273  11.120 -2.6224  0.5553 -0.3357
  195MOL0     H25678  10.140   6.134  11.008 -1.4860 -0.8792  2.7006
  195MOL0     H25679  10.019   6.294  10.847 -0.2603 -3.9867  0.4617
  195MOL0     H25680  10.003   6.414  10.979  1.1894 -0.8337  3.0506
  195MOL0     H25681   9.863   6.258  11.106 -2.0268 -0.3042  0.4537
  195MOL0     H25682   9.899   6.120  11.001  1.3101  0.5766  0.2451
  195MOL0     H25683   9.727   6.352  10.935  0.5110  0.0554 -2.8596
  195MOL0     H25684   9.774   6.226  10.814  2.5607 -0.8781  0.5274
  195MOL0     H25685   9.613   6.168  11.067 -2.1566 -0.6236 -0.0435
  195MOL0     H25686   9.664   6.064  10.942  0.6360  0.4631  2.7641
  195MOL0     H25687   9.499   6.174  10.775 -0.3644 -1.3800 -0.7611
  195MOL0     H25688   9.438   6.270  10.918  0.5964 -0.9437  1.4734
  195MOL0     H25689   9.449   5.983  10.861  0.5697  0.2593 -0.1748
  195MOL0     H25690   9.435   6.045  11.039 -1.8695  0.5183  1.0352
  195MOL0     H25691   9.215   6.099  10.994  1.8490 -1.1366  0.4328
  195MOL0     H25692   9.233   5.948  10.910 -1.0843 -0.7315 -2.0760
  195MOL0     H25693   9.163   6.311  10.849  2.1124 -0.2811  0.9701
  195MOL0     H25694   9.139   6.441  10.578  0.0061  0.7121  2.7634
  195MOL0     H25695   8.993   6.397  10.670  0.1895 -0.6897  0.4617
  195MOL0     H25696   8.914   6.254  10.490 -1.4203  1.6530  0.1756
  195MOL0     H25697   9.053   6.292  10.392 -3.9964  0.2080 -2.9137
  195MOL0     H25698   8.989   6.541  10.421 -0.2426 -2.2728 -0.0312
  195MOL0     H25699   8.892   6.435  10.308 -1.8743 -1.9836 -0.6645
  195MOL0     H25700   8.706   6.422  10.467  1.8558 -2.4974 -0.1136
  195MOL0     H25701   8.755   6.594  10.439  1.3547 -0.6174 -2.4996
  195MOL0     H25702   8.803   6.554  10.892 -0.5074  1.0681  1.2118
  195MOL0     H25703   8.692   6.716  11.007 -0.2844 -0.2032 -0.1909
  195MOL0     H25704   8.489   7.128  11.046 -0.0952 -0.7907  0.1610
  195MOL0     H25705   8.348   7.292  11.175 -0.9872 -0.5217  0.3920
  195MOL0     H25706   8.184   7.469  11.266 -2.4670  1.3332 -0.0243
  195MOL0     H25707   8.192   7.298  11.328  1.8751 -0.2703 -0.9966
  195MOL0     H25708   7.952   7.494  11.348  1.6426  1.4064 -1.2133
  195MOL0     H25709   8.052   7.435  11.483 -1.4382 -0.6142  1.0641
  195MOL0     H25710   7.996   7.209  11.428  2.6750  3.0629 -0.4880
  195MOL0     H25711   7.862   7.251  11.322 -1.7950 -0.9880 -0.1658
  195MOL0     H25712   7.891   7.343  11.610  0.3663  0.6300  0.0532
  195MOL0     H25713   7.755   7.389  11.507  0.4875  0.8297  0.5435
  195MOL0     H25714   7.842   7.112  11.596  1.6844  1.8802 -0.4923
  195MOL0     H25715   7.723   7.128  11.472  0.9652 -1.1499  0.1834
  195MOL0     H25716   7.576   7.273  11.640  0.8806  0.6817  0.7698
  195MOL0     H25717   7.693   7.227  11.763 -2.8621 -1.8078  2.0487
  195MOL0     H25718   7.476   7.065  11.638 -2.0036  0.5901  1.4559
  195MOL0     H25719   7.631   6.991  11.652  0.0105  1.0944 -1.9065
  195MOL0     H25720   7.614   7.065  11.911  1.2508  0.8683 -1.3293
  195MOL0     H25721   7.473   6.952  11.858 -0.5923  0.2153  0.6065
  195MOL0     H25722   7.996   7.150  10.970  0.0552 -0.8498  2.4734
  195MOL0     H25723   8.146   7.022  10.822 -0.2245  0.0288 -0.1201
  195MOL0     H25724   8.469   6.830  10.647  3.3743 -0.3783 -3.8730
  195MOL0     H25725   8.582   6.665  10.528  1.7870  4.6309 -0.1512
  195MOL0     H25726  10.388   6.125  11.120 -1.0264  0.9913 -0.9007
  195MOL0     H25727  10.585   6.158  11.225 -2.0674  0.7435  2.1167
  195MOL0     H25728  11.017   6.148  11.390  0.2258  0.4265  1.8053
  195MOL0     H25729  11.209   6.222  11.523  0.0120 -1.8315 -3.7241
  195MOL0     H25730  11.372   6.303  11.629  1.4102 -0.1687  1.4893
  195MOL0     H25731  11.259   6.407  11.723  1.0571  0.4792  1.4796
  195MOL0     H25732  11.509   6.411  11.808  0.9160 -0.2975 -0.1083
  195MOL0     H25733  11.550   6.473  11.645 -1.3361 -0.5741 -0.8814
  195MOL0     H25734  11.412   6.598  11.858 -1.5798 -1.3640 -0.2786
  195MOL0     H25735  11.418   6.678  11.698  1.8132 -1.2980 -1.6340
  195MOL0     H25736  11.568   6.766  11.879  1.2747  0.7342 -0.6129
  195MOL0     H25737  11.651   6.607  11.891  1.7382  0.5191 -0.6936
  195MOL0     H25738  11.830   6.746  11.538  0.9343 -0.5218 -0.0636
  195MOL0     H25739  11.135   6.624  11.408  0.5382  0.7429  1.0220
  195MOL0     H25740  10.918   6.550  11.279 -0.1040  1.9923  1.9937
  196MOL0     O25741   2.642   1.968   7.107 -0.3876  0.3471 -0.2003
  196MOL0     C25742   2.560   1.959   7.015  0.5017 -0.1143 -0.1549
  196MOL0     O25743   2.433   1.927   7.024 -0.0810  0.1870  0.6447
  196MOL0     C25744   2.365   1.918   7.147 -0.0436 -0.2112  0.7394
  196MOL0     C25745   2.238   1.846   7.149 -0.5000 -0.1597 -0.2941
  196MOL0     C25746   2.157   1.846   7.269 -0.4792  0.5222  0.2157
  196MOL0     C25747   2.207   1.908   7.387  0.4546 -0.7428  0.2099
  196MOL0     O25748   2.134   1.929   7.501 -0.8104  0.5961  0.1790
  196MOL0     C25749   2.045   1.817   7.537 -0.1105  0.5857 -0.9080
  196MOL0     C25750   1.959   1.878   7.644 -0.2752  0.2799  0.2005
  196MOL0     C25751   1.834   1.797   7.695  0.0237  1.2836  0.0287
  196MOL0     C25752   1.730   1.764   7.583 -0.5384 -0.4684  0.1734
  196MOL0     C25753   1.587   1.768   7.636 -0.5053  0.2404  0.7122
  196MOL0     C25754   1.493   1.780   7.518  0.1579 -0.0688  0.0075
  196MOL0     C25755   1.356   1.822   7.578  0.3632 -0.1649  0.8395
  196MOL0     C25756   1.252   1.841   7.471  0.1052  0.2667 -0.1289
  196MOL0     N25757   1.125   1.885   7.530 -0.0144 -0.6403 -0.5828
  196MOL0     C25758   1.040   1.828   7.622 -0.2182 -0.0547  0.5607
  196MOL0     C25759   0.938   1.913   7.629  0.2376 -0.8316  0.4671
  196MOL0     C25760   0.822   1.905   7.716  0.9510 -0.3812 -0.8288
  196MOL0     C25761   0.683   1.928   7.650  0.4198 -0.0596  0.3373
  196MOL0     C25762   0.670   2.060   7.566 -1.0246 -0.1999 -0.5407
  196MOL0     C25763   0.515   2.096   7.569  0.0856 -0.2554  0.3744
  196MOL0     O25764   0.457   2.113   7.701  0.0577 -0.3069  0.7092
  196MOL0     C25765   0.329   2.081   7.737  0.1107  0.3422 -1.1871
  196MOL0     C25766   0.238   2.005   7.671 -0.4767  0.9748  1.2155
  196MOL0     C25767   0.114   1.974   7.730 -0.3159  1.0451 -0.3477
  196MOL0     C25768   0.073   2.025   7.850 -0.4904  0.3803 -0.9274
  196MOL0     C25769  -0.061   2.009   7.890 -0.5154  0.6077  0.0195
  196MOL0     O25770  -0.144   1.996   7.787  0.8536 -0.1635  0.0232
  196MOL0     C25771  -0.268   1.950   7.803  0.3748 -0.1236 -0.7141
  196MOL0     C25772  -0.317   1.851   7.717  0.2845 -0.0996  1.0914
  196MOL0     C25773  -0.443   1.798   7.733 -0.5615  0.6811  0.6203
  196MOL0     C25774  -0.538   1.866   7.808 -1.1766 -0.5913  1.0075
  196MOL0     O25775  -0.667   1.823   7.814 -0.0794 -0.2443 -0.3763
  196MOL0     C25776  -0.680   1.685   7.866  0.0167 -0.4153 -0.1254
  196MOL0     C25777  -0.829   1.638   7.862  0.1203  0.7664  0.1739
  196MOL0     C25778  -0.862   1.515   7.943  0.4098  0.3520  1.1521
  196MOL0     C25779  -0.788   1.391   7.903 -0.7814 -0.1812  0.9834
  196MOL0     C25780  -0.836   1.272   7.984  0.1482 -0.0719  0.0262
  196MOL0     C25781  -0.741   1.148   7.994  0.2486  0.5392 -0.1401
  196MOL0     C25782  -0.596   1.167   8.037  0.8312  0.0354 -0.6356
  196MOL0     C25783  -0.538   1.026   8.014 -0.0957 -0.6639 -0.3131
  196MOL0    Cl25784  -0.608   0.903   8.124 -0.3469 -0.0527  0.0649
  196MOL0     C25785  -0.488   1.971   7.899  0.2391 -0.1835  0.6007
  196MOL0     C25786  -0.354   2.005   7.895  0.3750 -0.5045  0.2903
  196MOL0     O25787  -0.092   2.004   8.009 -0.4783 -0.1247  0.7538
  196MOL0     C25788   0.160   2.110   7.921  0.0202  0.6381 -0.5389
  196MOL0     C25789   0.289   2.130   7.865  1.0937 -0.7373  0.1604
  196MOL0     N25790   0.965   2.030   7.556  0.3832  0.3068 -0.5029
  196MOL0     N25791   1.071   2.010   7.487  0.4308  0.0281 -0.3186
  196MOL0     C25792   2.327   1.972   7.387  0.1102  0.6628  0.0094
  196MOL0     C25793   2.401   1.972   7.274 -0.0149 -1.1271 -0.8240
  196MOL0     C25794   2.614   1.999   6.882  0.5988  0.9654 -0.6898
  196MOL0     C25795   2.754   2.005   6.849  0.1195  0.3194  0.3135
  196MOL0     C25796   2.801   2.028   6.720 -0.6164 -0.6105  0.1179
  196MOL0     C25797   2.708   2.048   6.611  0.0824  0.0215 -0.2325
  196MOL0     O25798   2.743   2.096   6.488  0.4070 -0.3644  0.0762
  196MOL0     C25799   2.875   2.139   6.461 -0.1732  0.4209  0.0851
  196MOL0     C25800   2.868   2.195   6.313  0.1610 -0.4532 -0.7507
  196MOL0     C25801   2.985   2.153   6.232  0.0263  0.3573 -0.2670
  196MOL0     C25802   3.111   2.216   6.300 -0.5044  0.6554 -0.0701
  196MOL0     C25803   3.230   2.178   6.230 -0.7775 -0.8625  0.1303
  196MOL0     C25804   3.322   2.133   6.166  0.1289  0.3692 -0.6357
  196MOL0     C25805   2.568   2.041   6.639 -0.7845  0.1141  0.3759
  196MOL0     C25806   2.526   2.020   6.773 -0.6308 -0.2917 -0.3772
  196MOL0     H25807   2.218   1.783   7.063 -0.6530 -1.3057  0.5678
  196MOL0     H25808   2.056   1.808   7.270 -1.4045  2.8431  1.0137
  196MOL0     H25809   2.105   1.735   7.578 -0.4223  1.0146  0.4805
  196MOL0     H25810   1.980   1.772   7.462 -2.5937  1.3185  0.7082
  196MOL0     H25811   1.931   1.979   7.613  0.6212  0.7057  0.7408
  196MOL0     H25812   2.024   1.899   7.730 -0.1686  1.4050 -0.1371
  196MOL0     H25813   1.786   1.868   7.763  0.0595  0.0462  1.3930
  196MOL0     H25814   1.866   1.712   7.756 -0.9492 -0.7963 -2.2205
  196MOL0     H25815   1.746   1.840   7.506  0.7551 -0.6520  0.2258
  196MOL0     H25816   1.756   1.663   7.551  4.7815 -0.0840  2.1735
  196MOL0     H25817   1.574   1.855   7.701  1.5519  3.6112 -2.9207
  196MOL0     H25818   1.579   1.677   7.696  1.8443 -0.4789  0.0412
  196MOL0     H25819   1.478   1.691   7.456 -1.3058  0.1244  0.0318
  196MOL0     H25820   1.528   1.865   7.457  1.1371 -0.2832  0.2568
  196MOL0     H25821   1.328   1.732   7.633  0.9093 -2.0731 -1.7781
  196MOL0     H25822   1.358   1.914   7.636  2.5135 -0.1404  0.8065
  196MOL0     H25823   1.245   1.749   7.412 -0.9644  0.4593 -0.3202
  196MOL0     H25824   1.291   1.918   7.403 -0.2378  0.4081 -0.1638
  196MOL0     H25825   1.057   1.735   7.675  1.4567 -1.0547 -1.5518
  196MOL0     H25826   0.841   1.980   7.793 -0.2835  0.9655 -1.7775
  196MOL0     H25827   0.822   1.808   7.767  2.0689  0.4492  0.8512
  196MOL0     H25828   0.609   1.923   7.730 -0.2792  2.3697 -0.0617
  196MOL0     H25829   0.663   1.853   7.573  1.4197 -1.2336  1.1857
  196MOL0     H25830   0.723   2.146   7.607 -0.5863 -1.2913  1.3164
  196MOL0     H25831   0.709   2.040   7.466  0.2171 -1.0143  0.0815
  196MOL0     H25832   0.460   2.021   7.512 -1.1831 -0.3766  1.7204
  196MOL0     H25833   0.501   2.193   7.520  0.5752 -0.8066 -0.9198
  196MOL0     H25834   0.273   1.969   7.575 -2.1041 -1.4474  1.4559
  196MOL0     H25835   0.051   1.906   7.674  1.1596  2.0992 -3.5023
  196MOL0     H25836  -0.248   1.808   7.645  0.3260  3.3309 -1.1290
  196MOL0     H25837  -0.465   1.709   7.673 -0.0834 -0.1050  1.5770
  196MOL0     H25838  -0.628   1.669   7.961  0.6675  1.3913 -0.1458
  196MOL0     H25839  -0.624   1.627   7.792  3.0517  1.2304  0.7125
  196MOL0     H25840  -0.863   1.624   7.759  0.6885 -2.9779  0.3622
  196MOL0     H25841  -0.880   1.716   7.918  2.0388 -0.3259  3.8025
  196MOL0     H25842  -0.969   1.492   7.950  0.4485 -0.3935 -0.2878
  196MOL0     H25843  -0.828   1.542   8.043  4.1837  1.6100 -0.3111
  196MOL0     H25844  -0.795   1.369   7.796  2.7710 -1.9521  0.9436
  196MOL0     H25845  -0.685   1.417   7.929 -1.5275  0.3981  3.6214
  196MOL0     H25846  -0.934   1.238   7.948  0.7859  0.4403 -2.4103
  196MOL0     H25847  -0.850   1.306   8.087 -1.3931 -1.1845  0.2294
  196MOL0     H25848  -0.745   1.096   7.897 -0.2571 -1.2189  0.7758
  196MOL0     H25849  -0.782   1.074   8.062 -0.1206  0.5713 -0.3269
  196MOL0     H25850  -0.548   1.242   7.973  0.1575  0.4169 -0.7070
  196MOL0     H25851  -0.584   1.189   8.143  0.5469 -2.9192  0.1031
  196MOL0     H25852  -0.433   1.032   8.043 -0.4005 -0.1835  0.7471
  196MOL0     H25853  -0.543   1.008   7.906 -1.4201  1.1704 -0.6103
  196MOL0     H25854  -0.554   2.020   7.970 -0.7447  0.8555 -0.9849
  196MOL0     H25855  -0.313   2.078   7.963 -0.3082  2.0590 -1.8996
  196MOL0     H25856   0.140   2.166   8.011  0.9767  2.5099 -1.4347
  196MOL0     H25857   0.354   2.195   7.922  0.9409  1.7634 -2.2506
  196MOL0     H25858   2.358   2.021   7.479 -4.0971 -0.4578  2.2775
  196MOL0     H25859   2.490   2.034   7.286  1.0412 -2.6662 -0.5269
  196MOL0     H25860   2.831   1.978   6.920 -0.6856 -1.5392  0.5412
  196MOL0     H25861   2.907   2.040   6.700 -0.3029  0.2903  2.0681
  196MOL0     H25862   2.948   2.058   6.464 -0.9953 -0.3188  0.9162
  196MOL0     H25863   2.904   2.217   6.531  0.3864  1.4336 -1.2467
  196MOL0     H25864   2.779   2.161   6.259  0.7829  0.4346 -2.3985
  196MOL0     H25865   2.876   2.304   6.312  0.3365 -0.4321 -3.1457
  196MOL0     H25866   2.979   2.182   6.127  0.3567 -2.0252 -1.0134
  196MOL0     H25867   2.994   2.044   6.229 -0.6678  0.2451 -4.2062
  196MOL0     H25868   3.106   2.326   6.300  0.7115  0.7294  0.4387
  196MOL0     H25869   3.124   2.184   6.404 -1.6992  1.2436  0.2790
  196MOL0     H25870   3.405   2.080   6.123  0.1420 -1.1243  1.0887
  196MOL0     H25871   2.499   2.052   6.555 -0.3450 -1.7538 -0.2849
  196MOL0     H25872   2.420   2.035   6.792 -0.3730 -1.1400  2.0481
  197MOL0     O25873   3.503  10.279   6.388 -0.1357  0.3565  0.0129
  197MOL0     C25874   3.486  10.396   6.344 -0.4052  0.4443  0.2884
  197MOL0     O25875   3.433  10.430   6.228 -0.1332 -0.6855  0.4443
  197MOL0     C25876   3.391  10.329   6.143  0.5925  0.1780 -0.0347
  197MOL0     C25877   3.448  10.202   6.111  0.3566  0.0589  0.6507
  197MOL0     C25878   3.384  10.116   6.021  0.6398 -0.0054  0.2494
  197MOL0     C25879   3.271  10.158   5.952 -0.2634  1.1162 -0.8923
  197MOL0     O25880   3.229  10.070   5.860  1.2182  0.4218  0.0440
  197MOL0     C25881   3.090  10.074   5.805  0.2535 -0.2686  0.4440
  197MOL0     C25882   3.081   9.966   5.698 -0.3030  0.0811  0.2974
  197MOL0     C25883   2.929   9.948   5.655 -0.2577 -0.9478 -0.0905
  197MOL0     C25884   2.863  10.074   5.583  0.0319 -0.2502  0.7005
  197MOL0     C25885   2.724  10.036   5.535  0.1789  0.1547  0.3856
  197MOL0     C25886   2.719   9.910   5.442  1.1057  0.5435 -0.6332
  197MOL0     C25887   2.593   9.923   5.358  0.8301  0.4992  0.7213
  197MOL0     C25888   2.515   9.790   5.357  0.6648 -0.3842 -0.2519
  197MOL0     N25889   2.434   9.775   5.237  0.1181 -0.0350 -0.6665
  197MOL0     C25890   2.363   9.880   5.176 -0.7227 -0.3664 -0.1797
  197MOL0     C25891   2.331   9.828   5.054 -1.3284  0.3502  0.6341
  197MOL0     C25892   2.239   9.877   4.945 -0.0021 -0.4345 -0.3493
  197MOL0     C25893   2.109   9.918   5.007  0.7543  0.6111  0.5411
  197MOL0     C25894   2.043  10.026   4.922  0.4890 -0.5092  0.2833
  197MOL0     C25895   1.889  10.024   4.943  0.1360 -0.3338 -0.6252
  197MOL0     O25896   1.839  10.089   5.065 -0.3149 -0.0217  0.0787
  197MOL0     C25897   1.705  10.090   5.070 -0.1027 -0.2177 -0.4864
  197MOL0     C25898   1.612  10.026   4.984 -0.3250  0.2513  0.5515
  197MOL0     C25899   1.476  10.014   5.018 -0.8430  0.6531 -0.0202
  197MOL0     C25900   1.438  10.075   5.137  0.2435 -0.1408  0.2934
  197MOL0     C25901   1.295  10.066   5.193 -0.5058 -0.2897  0.2870
  197MOL0     O25902   1.266  10.141   5.300 -0.0701 -0.6656 -0.1134
  197MOL0     C25903   1.131  10.145   5.322 -0.2907 -0.0641  0.5799
  197MOL0     C25904   1.069  10.266   5.295 -0.7600  0.9644  0.8308
  197MOL0     C25905   0.932  10.280   5.312  0.9777  0.1596  0.4199
  197MOL0     C25906   0.861  10.165   5.361  0.2984  0.3014 -0.4193
  197MOL0     O25907   0.728  10.178   5.399 -0.0425 -0.2843  0.8200
  197MOL0     C25908   0.711  10.235   5.524  0.6132 -0.8163  0.1072
  197MOL0     C25909   0.557  10.251   5.557 -0.1077  0.4187 -0.2178
  197MOL0     C25910   0.499  10.354   5.457 -0.1127  0.2331 -0.0998
  197MOL0     C25911   0.350  10.392   5.490 -0.3186 -0.6519 -0.7012
  197MOL0     C25912   0.283  10.469   5.380  0.5411  0.0927 -0.8594
  197MOL0     C25913   0.133  10.494   5.400 -0.8256  0.4532 -0.5080
  197MOL0     C25914   0.055  10.531   5.276  0.1259 -0.0786 -0.0926
  197MOL0     C25915  -0.097  10.530   5.294 -0.2992  0.4502  0.1953
  197MOL0    Cl25916  -0.164  10.579   5.124 -0.0881 -0.4556 -0.0649
  197MOL0     C25917   0.920  10.037   5.382 -0.3402 -0.3887  0.7675
  197MOL0     C25918   1.052  10.032   5.358  0.1195  0.1445 -0.5946
  197MOL0     O25919   1.216   9.982   5.135  0.3040 -0.2872 -0.5795
  197MOL0     C25920   1.529  10.153   5.218 -0.0079  0.6233 -0.0629
  197MOL0     C25921   1.663  10.155   5.187  0.0090 -0.9068  0.1386
  197MOL0     N25922   2.392   9.699   5.045 -0.8344  0.4066 -0.3714
  197MOL0     N25923   2.456   9.669   5.153  0.3110 -0.2836  0.1828
  197MOL0     C25924   3.208  10.275   5.992 -1.1889 -0.4558  0.1107
  197MOL0     C25925   3.265  10.354   6.088 -1.0720  0.0680  0.8689
  197MOL0     C25926   3.531  10.501   6.428  0.6705 -0.0968 -1.0035
  197MOL0     C25927   3.524  10.636   6.385  0.2974 -0.6874 -0.5419
  197MOL0     C25928   3.578  10.735   6.472 -0.5425  0.0324 -0.9941
  197MOL0     C25929   3.655  10.708   6.596  0.6695  0.1909  1.0603
  197MOL0     O25930   3.702  10.804   6.683 -0.3386 -0.4229 -0.6308
  197MOL0     C25931   3.606  10.871   6.764 -0.1844  0.7031  0.1947
  197MOL0     C25932   3.676  11.008   6.796  0.5997  0.2776 -0.3805
  197MOL0     C25933   3.595  11.098   6.896 -0.1750 -0.5473  0.2237
  197MOL0     C25934   3.670  11.233   6.934  0.8487  0.2032  0.4410
  197MOL0     C25935   3.586  11.307   7.036  0.3313  1.1442 -0.3222
  197MOL0     C25936   3.530  11.378   7.111  0.2318 -0.5453  0.3017
  197MOL0     C25937   3.673  10.574   6.620  0.5650  0.2548 -0.4242
  197MOL0     C25938   3.613  10.475   6.542 -0.1128  0.8136 -0.7189
  197MOL0     H25939   3.546  10.180   6.152  0.6555  2.2114  1.2168
  197MOL0     H25940   3.420  10.015   6.004 -0.3123 -0.4225  0.6264
  197MOL0     H25941   3.069  10.167   5.751  0.5359 -0.9083 -0.8286
  197MOL0     H25942   3.010  10.052   5.875 -0.6639 -2.0531 -1.0814
  197MOL0     H25943   3.113   9.864   5.719 -3.8593 -1.5988 -1.6012
  197MOL0     H25944   3.145   9.994   5.614  2.1046 -2.9293  0.9554
  197MOL0     H25945   2.873   9.938   5.749 -0.1193  0.5720  0.1810
  197MOL0     H25946   2.929   9.852   5.604 -0.2788 -1.1890  0.3633
  197MOL0     H25947   2.856  10.157   5.654 -1.6701 -1.5179  2.0850
  197MOL0     H25948   2.926  10.092   5.495 -0.1602  0.1870  0.6506
  197MOL0     H25949   2.684  10.123   5.482 -1.0119  0.6407  2.0194
  197MOL0     H25950   2.661  10.020   5.623  0.9389  2.3709  1.4035
  197MOL0     H25951   2.706   9.822   5.505 -1.4400 -0.9297 -2.9913
  197MOL0     H25952   2.809   9.907   5.380  1.6789 -2.1164  0.2074
  197MOL0     H25953   2.520   9.995   5.395 -2.2439 -1.0834 -1.7668
  197MOL0     H25954   2.630   9.952   5.259 -0.5660  0.6752  0.2270
  197MOL0     H25955   2.457   9.768   5.447 -0.2436 -0.2588 -0.7941
  197MOL0     H25956   2.589   9.710   5.349  0.2444 -0.6638 -1.8620
  197MOL0     H25957   2.319   9.960   5.234 -0.1679 -1.0126  1.1793
  197MOL0     H25958   2.218   9.798   4.873  3.2565 -2.0199  0.2631
  197MOL0     H25959   2.295   9.956   4.894 -0.7614  1.1226  1.1410
  197MOL0     H25960   2.113   9.950   5.111  0.2234 -2.7886  1.7195
  197MOL0     H25961   2.043   9.831   5.014  2.5420 -0.8356  0.0339
  197MOL0     H25962   2.073  10.126   4.953  1.0490  0.5256 -3.1233
  197MOL0     H25963   2.059  10.005   4.815 -0.2513  0.9859 -0.1457
  197MOL0     H25964   1.847   9.924   4.934  0.1084 -0.3942  0.1076
  197MOL0     H25965   1.841  10.077   4.860 -3.3410 -2.2336 -0.0069
  197MOL0     H25966   1.635   9.974   4.891 -0.7520  2.1944 -0.6946
  197MOL0     H25967   1.416   9.943   4.963 -1.1697  0.0155  1.1352
  197MOL0     H25968   1.137  10.340   5.253  2.6827 -2.2355  0.2632
  197MOL0     H25969   0.874  10.368   5.284  0.9974 -0.0041 -0.1539
  197MOL0     H25970   0.754  10.335   5.530 -0.3068 -0.4237  0.2351
  197MOL0     H25971   0.759  10.170   5.598 -3.8175 -2.2301  2.0797
  197MOL0     H25972   0.551  10.289   5.660 -0.3488 -1.3523  0.4492
  197MOL0     H25973   0.508  10.155   5.541 -0.5051  0.4308  0.8248
  197MOL0     H25974   0.506  10.304   5.361 -1.0590  1.5833 -0.8955
  197MOL0     H25975   0.559  10.446   5.458 -0.5395  0.5255  1.3675
  197MOL0     H25976   0.301  10.297   5.512  4.7362 -3.0867  1.5435
  197MOL0     H25977   0.348  10.452   5.581 -0.1919  2.6134 -2.6752
  197MOL0     H25978   0.279  10.400   5.295 -0.8844  0.8077 -1.4082
  197MOL0     H25979   0.335  10.561   5.353  0.8709  1.5686  3.8199
  197MOL0     H25980   0.127  10.572   5.477 -1.1275  1.7225 -1.7721
  197MOL0     H25981   0.088  10.400   5.432  2.7361 -2.7478 -3.8219
  197MOL0     H25982   0.082  10.632   5.244  0.8320  0.0017  0.7368
  197MOL0     H25983   0.073  10.460   5.195 -1.5783 -2.1818  1.2448
  197MOL0     H25984  -0.136  10.597   5.372 -1.3056  1.0187 -0.7591
  197MOL0     H25985  -0.141  10.434   5.320  0.9528 -0.5786 -1.3388
  197MOL0     H25986   0.862   9.949   5.411  0.9882 -0.9137  1.9769
  197MOL0     H25987   1.112   9.945   5.384 -2.2651 -1.8907 -1.4101
  197MOL0     H25988   1.491  10.206   5.305  3.4792  1.4099  1.1061
  197MOL0     H25989   1.733  10.210   5.250 -1.1708  1.5107 -0.5397
  197MOL0     H25990   3.108  10.298   5.956 -1.6685  0.9294  2.1343
  197MOL0     H25991   3.199  10.429   6.131  0.2758 -0.0459  3.2737
  197MOL0     H25992   3.465  10.675   6.302  2.1907  2.7661 -0.4440
  197MOL0     H25993   3.567  10.835   6.431  3.5212  0.5045 -1.3923
  197MOL0     H25994   3.591  10.810   6.853 -0.3036 -0.1372 -0.3847
  197MOL0     H25995   3.514  10.888   6.707  1.0392 -1.1668 -2.5455
  197MOL0     H25996   3.774  10.986   6.840  1.5782  2.5959 -1.2405
  197MOL0     H25997   3.692  11.062   6.703 -3.3607  2.0216 -0.2473
  197MOL0     H25998   3.573  11.035   6.982  0.6930 -2.0068 -0.5880
  197MOL0     H25999   3.502  11.127   6.846  1.1527 -0.1474 -2.1878
  197MOL0     H26000   3.759  11.205   6.991  0.1936 -1.7991  0.5788
  197MOL0     H26001   3.689  11.301   6.851 -1.3258  1.9930  1.2869
  197MOL0     H26002   3.500  11.450   7.184  1.0383  1.1815 -1.0049
  197MOL0     H26003   3.738  10.553   6.704  0.9292  1.6207 -0.3370
  197MOL0     H26004   3.633  10.374   6.577 -1.2529  0.9138  0.2695
  198MOL0     O26005   1.732   5.324  10.685 -0.2997  0.1431  0.1400
  198MOL0     C26006   1.654   5.401  10.747 -0.5567 -0.1080 -0.0478
  198MOL0     O26007   1.533   5.442  10.713  0.4582 -0.2964 -0.1297
  198MOL0     C26008   1.480   5.402  10.590 -0.5728  0.8405  0.2089
  198MOL0     C26009   1.447   5.500  10.499  0.0412  0.5570 -1.3304
  198MOL0     C26010   1.366   5.486  10.389 -0.1289  0.1628 -0.1546
  198MOL0     C26011   1.309   5.358  10.363  0.5168 -0.3392 -0.0329
  198MOL0     O26012   1.219   5.325  10.260 -0.3475 -0.1145 -1.1244
  198MOL0     C26013   1.088   5.278  10.312 -0.6899 -0.1373 -0.8224
  198MOL0     C26014   0.977   5.319  10.223  0.1961 -0.4307  0.8849
  198MOL0     C26015   0.848   5.275  10.285 -0.5943  0.4356 -0.1445
  198MOL0     C26016   0.734   5.301  10.190  0.4344  0.0828 -0.0519
  198MOL0     C26017   0.597   5.272  10.248  0.0143 -0.8993  0.5245
  198MOL0     C26018   0.489   5.333  10.151 -0.6461  0.0959  0.2738
  198MOL0     C26019   0.352   5.298  10.205  0.0995  0.6243  0.7382
  198MOL0     C26020   0.245   5.370  10.129  0.2393 -0.1863  0.1191
  198MOL0     N26021   0.108   5.328  10.151 -0.1273  0.3272  0.0331
  198MOL0     C26022  -0.007   5.402  10.122 -1.3101 -0.2426  0.6398
  198MOL0     C26023  -0.104   5.315  10.109 -0.2906 -0.3358  0.0363
  198MOL0     C26024  -0.248   5.350  10.069 -0.2185  0.1648  0.0545
  198MOL0     C26025  -0.311   5.468  10.149  0.2043  0.2988 -0.9655
  198MOL0     C26026  -0.335   5.442  10.295  0.3047  0.2864 -0.2589
  198MOL0     C26027  -0.204   5.430  10.378  0.3908 -0.7046 -0.2608
  198MOL0     O26028  -0.120   5.547  10.349  0.5835  0.4210 -0.2195
  198MOL0     C26029   0.011   5.539  10.402  0.2886  0.3185 -0.3350
  198MOL0     C26030   0.060   5.453  10.500 -0.1386  0.3651 -0.8537
  198MOL0     C26031   0.193   5.453  10.545  0.8428 -1.4137 -0.0198
  198MOL0     C26032   0.280   5.557  10.498  0.4089 -0.9522 -0.5556
  198MOL0     C26033   0.410   5.580  10.552  0.1887  0.5560  0.5542
  198MOL0     O26034   0.503   5.637  10.468 -0.3354  0.1648  0.5223
  198MOL0     C26035   0.634   5.635  10.510 -0.6584 -0.0506 -0.0018
  198MOL0     C26036   0.698   5.760  10.505 -0.3475 -0.4106  0.3914
  198MOL0     C26037   0.832   5.766  10.545  0.4829 -0.1555 -0.2529
  198MOL0     C26038   0.902   5.654  10.599  0.9368 -0.3877 -0.3326
  198MOL0     O26039   1.021   5.658  10.668 -0.9490  0.0336 -0.9522
  198MOL0     C26040   1.111   5.758  10.619 -0.3675  0.0787  0.4359
  198MOL0     C26041   1.230   5.760  10.702  0.4061 -0.0038 -0.6750
  198MOL0     C26042   1.337   5.874  10.677 -0.1894 -0.2074  0.5683
  198MOL0     C26043   1.443   5.866  10.783 -0.6721 -0.1686 -0.3662
  198MOL0     C26044   1.575   5.921  10.745  0.4447 -0.1911  0.4632
  198MOL0     C26045   1.692   5.899  10.847 -0.1461  0.8284 -0.1081
  198MOL0     C26046   1.674   5.976  10.982  0.5882 -0.5753  0.1012
  198MOL0     C26047   1.795   5.954  11.073  0.2555  0.3548 -0.4670
  198MOL0    Cl26048   1.934   6.048  11.055 -0.6387  0.1461  0.2426
  198MOL0     C26049   0.829   5.534  10.611  0.1765 -0.1633 -0.5424
  198MOL0     C26050   0.700   5.524  10.559  0.3572 -0.0326  0.3903
  198MOL0     O26051   0.437   5.543  10.671 -0.7877 -0.0817  0.3939
  198MOL0     C26052   0.234   5.652  10.406 -0.4566  0.2695 -0.2236
  198MOL0     C26053   0.106   5.631  10.355 -0.3902  0.2271 -0.2305
  198MOL0     N26054  -0.053   5.185  10.141 -0.4509  0.0065 -0.4737
  198MOL0     N26055   0.074   5.198  10.159  0.0296 -0.2922 -0.0340
  198MOL0     C26056   1.340   5.251  10.453  0.2438 -0.4628  0.3271
  198MOL0     C26057   1.428   5.276  10.564  0.7716 -0.9300 -0.6377
  198MOL0     C26058   1.703   5.447  10.886  0.5543  0.6655 -0.5789
  198MOL0     C26059   1.624   5.523  10.974 -0.7776  0.1766 -0.2964
  198MOL0     C26060   1.669   5.565  11.097  0.7999  0.2539  0.4192
  198MOL0     C26061   1.799   5.541  11.142  0.1379  0.7986 -0.0970
  198MOL0     O26062   1.839   5.587  11.266 -0.1105 -0.1025  1.0744
  198MOL0     C26063   1.971   5.623  11.278 -0.4456  0.3976  0.5844
  198MOL0     C26064   1.979   5.733  11.381  0.9155 -0.0037  0.4229
  198MOL0     C26065   1.893   5.683  11.511 -0.1311 -0.4291 -0.1093
  198MOL0     C26066   1.920   5.775  11.631  0.2196 -0.0674 -1.1778
  198MOL0     C26067   1.862   5.905  11.638 -0.5230  0.0294  0.6634
  198MOL0     C26068   1.811   6.017  11.636 -0.5783 -0.3416 -0.4973
  198MOL0     C26069   1.873   5.458  11.061 -0.9300 -0.5607 -0.3731
  198MOL0     C26070   1.830   5.409  10.938  0.3894  0.1927 -0.0200
  198MOL0     H26071   1.487   5.599  10.519 -1.4814  0.8671  0.4285
  198MOL0     H26072   1.327   5.571  10.334 -0.4146 -0.2679 -0.6340
  198MOL0     H26073   1.069   5.317  10.412 -0.5428 -0.5633 -0.6235
  198MOL0     H26074   1.092   5.169  10.324  1.4023 -0.1834 -1.4120
  198MOL0     H26075   0.993   5.269  10.127 -0.0752  0.9846  0.0838
  198MOL0     H26076   0.968   5.425  10.201 -0.4525 -0.8110 -0.8046
  198MOL0     H26077   0.828   5.332  10.376 -2.2481  1.5743 -1.1652
  198MOL0     H26078   0.862   5.169  10.309  1.0222  0.5970 -0.2232
  198MOL0     H26079   0.720   5.408  10.175 -0.1986 -0.0896 -0.7551
  198MOL0     H26080   0.746   5.242  10.098 -1.6374 -0.7415  0.1546
  198MOL0     H26081   0.590   5.310  10.351 -0.9556 -1.5788  0.7257
  198MOL0     H26082   0.580   5.164  10.251  2.2492 -1.3090  0.4805
  198MOL0     H26083   0.506   5.297  10.049 -0.1820  0.3266  0.2686
  198MOL0     H26084   0.493   5.442  10.152 -1.6662  0.1470  0.0858
  198MOL0     H26085   0.348   5.190  10.187 -3.3709  0.9212 -1.3747
  198MOL0     H26086   0.344   5.321  10.311  1.4005 -1.6261  1.3686
  198MOL0     H26087   0.274   5.358  10.024  1.6675 -2.8624  0.7443
  198MOL0     H26088   0.251   5.474  10.160 -0.0740 -0.8077  2.4240
  198MOL0     H26089  -0.012   5.508  10.099  0.2818  0.5784  3.5703
  198MOL0     H26090  -0.309   5.260  10.053 -1.4383  0.9534  0.1142
  198MOL0     H26091  -0.240   5.392   9.968 -0.9703 -0.7134 -0.3995
  198MOL0     H26092  -0.404   5.510  10.111  0.5220  1.3854 -0.5693
  198MOL0     H26093  -0.243   5.553  10.143  2.7132 -1.1080  3.2620
  198MOL0     H26094  -0.388   5.532  10.328  0.9060  1.1662 -1.6234
  198MOL0     H26095  -0.402   5.357  10.313  1.2902 -0.3709  0.4179
  198MOL0     H26096  -0.155   5.334  10.361  1.2682  0.0381 -2.2051
  198MOL0     H26097  -0.232   5.421  10.483  0.1823 -2.5353 -0.4408
  198MOL0     H26098   0.004   5.378  10.554  0.8046 -1.0580 -1.7593
  198MOL0     H26099   0.220   5.373  10.613  0.7689 -1.2882  0.1572
  198MOL0     H26100   0.643   5.847  10.470 -0.8066 -0.5242  0.8248
  198MOL0     H26101   0.883   5.862  10.544  0.8373 -0.3063  0.9658
  198MOL0     H26102   1.066   5.858  10.631 -1.0289 -0.0034 -1.0685
  198MOL0     H26103   1.137   5.740  10.514 -4.9043 -2.8179 -0.4622
  198MOL0     H26104   1.281   5.663  10.701 -1.9993 -1.4929  2.4882
  198MOL0     H26105   1.194   5.777  10.804  3.5349 -1.1609  0.7845
  198MOL0     H26106   1.304   5.978  10.685 -0.1562 -0.1967  0.5660
  198MOL0     H26107   1.389   5.853  10.583  2.5993 -0.5732  2.0747
  198MOL0     H26108   1.400   5.932  10.858  0.7109  1.1680 -0.6885
  198MOL0     H26109   1.445   5.766  10.827  0.3766  1.1993  2.9726
  198MOL0     H26110   1.570   6.028  10.725 -1.6625 -0.8968 -3.7276
  198MOL0     H26111   1.611   5.863  10.660  0.4302 -2.4382  1.9089
  198MOL0     H26112   1.784   5.917  10.792 -0.1581 -1.4383 -0.9686
  198MOL0     H26113   1.691   5.794  10.877 -0.3445  1.3672  1.9593
  198MOL0     H26114   1.666   6.085  10.977 -2.9051 -0.7648 -1.5958
  198MOL0     H26115   1.581   5.936  11.023  0.9263 -1.1518  0.3126
  198MOL0     H26116   1.832   5.851  11.068 -1.3647 -0.3127  0.5511
  198MOL0     H26117   1.761   5.942  11.177  0.5125 -0.3718 -0.4570
  198MOL0     H26118   0.866   5.437  10.642 -1.9923 -0.7605  0.3883
  198MOL0     H26119   0.653   5.427  10.545 -2.3829  1.4215 -1.1492
  198MOL0     H26120   0.290   5.739  10.374  0.6704  0.4456  2.0348
  198MOL0     H26121   0.081   5.705  10.280 -0.3979  0.0861 -0.3662
  198MOL0     H26122   1.295   5.154  10.435  0.8923 -1.0815  1.9041
  198MOL0     H26123   1.445   5.198  10.638 -1.9472 -1.9546 -0.9615
  198MOL0     H26124   1.522   5.548  10.947 -0.1567  1.9590 -1.1387
  198MOL0     H26125   1.608   5.629  11.160  0.8894 -2.7751  3.8626
  198MOL0     H26126   2.015   5.654  11.183  1.1001  0.7813  1.3812
  198MOL0     H26127   2.029   5.537  11.314 -0.6007 -0.6907 -1.5952
  198MOL0     H26128   2.082   5.754  11.412  0.8618  0.8505  0.0506
  198MOL0     H26129   1.938   5.824  11.338 -0.0428 -0.7462 -0.2835
  198MOL0     H26130   1.931   5.584  11.537 -1.9593 -1.4072 -0.9522
  198MOL0     H26131   1.784   5.676  11.503 -0.6321  2.9008  2.0815
  198MOL0     H26132   1.874   5.722  11.715  0.3787  1.1266 -0.3085
  198MOL0     H26133   2.026   5.781  11.656 -0.4905  0.1691  2.1463
  198MOL0     H26134   1.777   6.115  11.612  1.7952  0.2631 -1.6926
  198MOL0     H26135   1.974   5.440  11.096 -0.5133  2.6768  0.4410
  198MOL0     H26136   1.895   5.337  10.888  0.3078  0.0025  0.1457
  199MOL0     O26137   9.621  10.938  10.823  0.1418  0.6652 -0.0113
  199MOL0     C26138   9.723  10.867  10.838 -0.3052 -0.0586  0.1154
  199MOL0     O26139   9.716  10.732  10.838 -0.6441 -0.2446 -0.7018
  199MOL0     C26140   9.600  10.675  10.792  0.3042  0.1537 -0.6596
  199MOL0     C26141   9.602  10.594  10.674 -0.2410  0.5108 -0.5504
  199MOL0     C26142   9.484  10.534  10.631 -0.7250  0.1170  0.1381
  199MOL0     C26143   9.368  10.536  10.703 -0.8792 -0.3671  0.4176
  199MOL0     O26144   9.259  10.463  10.662  0.4629 -0.3568  0.1108
  199MOL0     C26145   9.143  10.458  10.747 -0.1851 -0.1440 -0.3485
  199MOL0     C26146   9.053  10.359  10.669  0.1954 -0.0623  0.4763
  199MOL0     C26147   9.001  10.435  10.541 -0.4848  0.1909 -0.0675
  199MOL0     C26148   8.915  10.348  10.454 -0.8518 -0.1498  0.5866
  199MOL0     C26149   8.766  10.356  10.492  0.4011 -0.4035  1.2241
  199MOL0     C26150   8.693  10.260  10.399 -0.0477 -0.5116 -0.7515
  199MOL0     C26151   8.547  10.239  10.446  0.8208 -0.0123 -0.4566
  199MOL0     C26152   8.537  10.135  10.558 -0.1066 -0.4122 -0.6768
  199MOL0     N26153   8.395  10.112  10.605  0.3752  0.3590  0.4012
  199MOL0     C26154   8.372  10.047  10.722  0.2236  0.0671 -0.1190
  199MOL0     C26155   8.244  10.084  10.755  0.0997  0.7737  0.6792
  199MOL0     C26156   8.182  10.074  10.887 -0.1362 -0.0039  0.9749
  199MOL0     C26157   8.084   9.958  10.895 -0.0937 -1.1727 -0.2505
  199MOL0     C26158   7.948   9.999  10.836 -0.1452 -0.9745 -0.0144
  199MOL0     C26159   7.882  10.124  10.910  0.6949  0.3709 -0.2648
  199MOL0     O26160   7.750  10.128  10.854 -0.8438  0.8304 -0.5766
  199MOL0     C26161   7.647  10.054  10.899 -0.4708  0.5681  0.8249
  199MOL0     C26162   7.526  10.071  10.830  1.2726  0.0717 -0.4275
  199MOL0     C26163   7.411   9.997  10.869 -0.3376 -0.2519  0.7372
  199MOL0     C26164   7.413   9.906  10.975  0.2695 -1.1702 -0.2416
  199MOL0     C26165   7.296   9.826  11.018  0.5216 -0.0694  0.4272
  199MOL0     O26166   7.189   9.855  10.941  0.1165  0.4365 -0.5661
  199MOL0     C26167   7.068   9.802  10.966 -0.6403  0.5763 -0.1956
  199MOL0     C26168   7.022   9.696  11.048  0.6906 -0.1256 -0.5645
  199MOL0     C26169   6.888   9.669  11.072 -0.3295  0.2025 -0.1690
  199MOL0     C26170   6.790   9.742  11.000  0.7731  0.4261  0.7809
  199MOL0     O26171   6.651   9.726  11.005  0.1467 -0.3362  0.6854
  199MOL0     C26172   6.590   9.600  11.033  0.1433  0.8683  0.0478
  199MOL0     C26173   6.447   9.605  10.972 -0.1934  0.0061 -1.4544
  199MOL0     C26174   6.380   9.469  10.992  0.3225 -0.6751 -0.2030
  199MOL0     C26175   6.249   9.470  10.919  0.5220  0.6296  0.0185
  199MOL0     C26176   6.160   9.343  10.963 -0.2006 -0.4034 -0.2360
  199MOL0     C26177   6.025   9.352  10.886 -0.0884 -0.1624  0.4599
  199MOL0     C26178   5.933   9.224  10.893  0.6220  0.0633  0.3429
  199MOL0     C26179   5.792   9.245  10.832 -0.2048  0.1181  0.0082
  199MOL0    Cl26180   5.681   9.337  10.946 -0.2741 -0.1273 -0.0256
  199MOL0     C26181   6.837   9.833  10.915  0.2852 -0.8579 -0.4156
  199MOL0     C26182   6.973   9.865  10.890  1.0377 -0.0538  0.2260
  199MOL0     O26183   7.313   9.736  11.106 -0.3173 -0.0082 -0.2303
  199MOL0     C26184   7.533   9.893  11.048  0.4654 -0.1949  0.2015
  199MOL0     C26185   7.649   9.956  10.997 -0.5154  0.2317 -0.2254
  199MOL0     N26186   8.183  10.162  10.657 -0.0869  0.3261 -0.0285
  199MOL0     N26187   8.281  10.174  10.572 -0.2703  0.3458 -0.6259
  199MOL0     C26188   9.377  10.612  10.825  0.0621  0.4837  0.2798
  199MOL0     C26189   9.489  10.683  10.873  0.2176  0.7002  1.0887
  199MOL0     C26190   9.856  10.920  10.868  0.2031 -0.1457  0.8870
  199MOL0     C26191   9.973  10.877  10.796 -0.8274  0.0741 -0.0646
  199MOL0     C26192  10.097  10.937  10.824 -0.2508 -0.5844  0.5188
  199MOL0     C26193  10.104  11.031  10.932 -0.1494 -0.3337  0.8276
  199MOL0     O26194  10.227  11.075  10.970  0.2283 -0.1906 -0.5051
  199MOL0     C26195  10.266  11.197  10.909 -0.2711  1.0307 -0.5208
  199MOL0     C26196  10.405  11.242  10.957  0.3159  0.8519  0.2149
  199MOL0     C26197  10.399  11.343  11.072 -0.1344  0.2639  0.0292
  199MOL0     C26198  10.528  11.394  11.144  1.4027  0.7885 -0.0871
  199MOL0     C26199  10.633  11.459  11.056  0.7642 -0.3140  0.8581
  199MOL0     C26200  10.709  11.517  10.985 -0.0819  0.1962  0.3584
  199MOL0     C26201   9.988  11.069  10.998 -0.0441 -0.7547  0.3718
  199MOL0     C26202   9.862  11.020  10.967  0.2385  0.7227  0.8723
  199MOL0     H26203   9.678  10.601  10.597 -0.9057 -1.1794 -1.4034
  199MOL0     H26204   9.496  10.469  10.545  0.8346  1.7905 -1.0028
  199MOL0     H26205   9.089  10.553  10.751 -1.4197 -0.8386  0.1081
  199MOL0     H26206   9.150  10.419  10.849  0.7620 -1.5118 -0.9038
  199MOL0     H26207   8.970  10.328  10.733 -0.6394 -0.9565 -0.9601
  199MOL0     H26208   9.107  10.268  10.641  3.5430  1.8619  0.1412
  199MOL0     H26209   9.089  10.467  10.484 -1.3611 -0.4426 -1.8566
  199MOL0     H26210   8.944  10.518  10.582  0.1383  0.5024  0.1823
  199MOL0     H26211   8.922  10.393  10.355 -0.3502 -1.1090  0.1672
  199MOL0     H26212   8.956  10.247  10.440  0.8211  0.5751 -0.0081
  199MOL0     H26213   8.717  10.453  10.487  1.4799  0.1624  1.4978
  199MOL0     H26214   8.757  10.318  10.595  0.6210  0.4379  1.5602
  199MOL0     H26215   8.744  10.163  10.399  0.1293 -0.4200 -0.4617
  199MOL0     H26216   8.691  10.298  10.296 -1.4510 -0.1178 -0.6021
  199MOL0     H26217   8.515  10.337  10.481  0.6847 -0.8305  1.9284
  199MOL0     H26218   8.482  10.190  10.373 -3.3703 -1.9057  3.9920
  199MOL0     H26219   8.613  10.161  10.632 -0.3303  0.4739 -0.7412
  199MOL0     H26220   8.559  10.035  10.520 -0.4160 -0.3492 -1.0330
  199MOL0     H26221   8.447   9.996  10.782  0.3229  1.2755  0.8159
  199MOL0     H26222   8.139  10.171  10.915  0.0944  0.5180 -0.4039
  199MOL0     H26223   8.268  10.058  10.953  1.2306  3.3417  0.2203
  199MOL0     H26224   8.076   9.928  11.000 -1.7087 -0.4001 -0.1327
  199MOL0     H26225   8.123   9.873  10.838  0.0130 -0.1214 -1.8055
  199MOL0     H26226   7.960  10.036  10.734  2.0661 -1.3429  0.0601
  199MOL0     H26227   7.875   9.918  10.845 -0.4918 -0.5935  0.6649
  199MOL0     H26228   7.934  10.217  10.885 -1.3192  1.5753 -0.1536
  199MOL0     H26229   7.884  10.118  11.020 -1.8428 -1.0748 -0.2146
  199MOL0     H26230   7.519  10.141  10.747  0.0840  0.1942 -0.2432
  199MOL0     H26231   7.328  10.014  10.802  0.5502  1.0174 -0.0842
  199MOL0     H26232   7.090   9.637  11.109  1.3338  0.3813 -0.7741
  199MOL0     H26233   6.864   9.590  11.143  3.5468 -0.8692  0.1671
  199MOL0     H26234   6.588   9.572  11.139 -0.3844  2.5817  0.5247
  199MOL0     H26235   6.658   9.522  10.998 -0.7679  1.9142 -4.6617
  199MOL0     H26236   6.454   9.630  10.866 -2.9857 -0.8365 -1.9312
  199MOL0     H26237   6.386   9.681  11.024 -0.4519  0.3314 -2.2194
  199MOL0     H26238   6.375   9.463  11.102  0.0794  2.3243  0.0378
  199MOL0     H26239   6.442   9.385  10.961  1.6226 -0.4713  1.6565
  199MOL0     H26240   6.191   9.560  10.944  1.9013  0.9829  2.2169
  199MOL0     H26241   6.267   9.465  10.812  1.5512 -2.9759  0.2224
  199MOL0     H26242   6.144   9.342  11.071  2.8669 -0.2575  0.2959
  199MOL0     H26243   6.208   9.252  10.926  1.2439  0.7857 -1.4087
  199MOL0     H26244   6.047   9.367  10.779 -0.0199 -1.3796  0.2888
  199MOL0     H26245   5.967   9.434  10.930 -1.8308 -2.3172  2.3919
  199MOL0     H26246   5.980   9.136  10.849 -0.3110 -0.7219  0.8660
  199MOL0     H26247   5.921   9.208  11.001  0.7948 -0.0404  0.3467
  199MOL0     H26248   5.748   9.146  10.815 -1.0312  0.6601 -1.1803
  199MOL0     H26249   5.795   9.297  10.736 -0.8953  0.9796  0.4465
  199MOL0     H26250   6.762   9.895  10.869  2.0379 -0.4017 -2.8639
  199MOL0     H26251   6.994   9.945  10.820 -0.6690  0.7479  0.5830
  199MOL0     H26252   7.545   9.823  11.131 -0.0332 -0.4875  0.0323
  199MOL0     H26253   7.740   9.926  11.048 -2.0296  0.3018  2.7642
  199MOL0     H26254   9.285  10.620  10.883  0.2177  0.9637  0.4660
  199MOL0     H26255   9.474  10.724  10.972  1.6803 -0.0738  1.6485
  199MOL0     H26256   9.961  10.804  10.718 -2.7764  1.7592 -1.4477
  199MOL0     H26257  10.191  10.906  10.778 -1.0542 -2.3015 -0.0728
  199MOL0     H26258  10.188  11.270  10.935 -0.7527 -0.0962  1.4205
  199MOL0     H26259  10.265  11.195  10.800  3.1539 -0.0690 -0.6315
  199MOL0     H26260  10.469  11.160  10.993 -1.0961 -0.8979 -1.0837
  199MOL0     H26261  10.466  11.289  10.879 -1.8735 -0.0618 -2.1783
  199MOL0     H26262  10.329  11.304  11.147  0.4614  1.6135  1.3545
  199MOL0     H26263  10.346  11.425  11.022 -1.7304 -2.8982 -4.0286
  199MOL0     H26264  10.497  11.469  11.217  0.7334 -1.2884  1.8633
  199MOL0     H26265  10.557  11.302  11.196  1.1773  2.4911  3.3415
  199MOL0     H26266  10.775  11.569  10.919  0.5040 -0.2935  0.5578
  199MOL0     H26267  10.008  11.135  11.082  2.7821 -1.1487  0.0953
  199MOL0     H26268   9.775  11.059  11.018  1.4705  2.6806  1.5823
  200MOL0     O26269   5.424   6.804   4.503 -0.2238  0.2172 -0.7723
  200MOL0     C26270   5.503   6.715   4.482 -0.8168  0.5465  0.4500
  200MOL0     O26271   5.481   6.581   4.513 -0.4356 -0.6673 -0.8395
  200MOL0     C26272   5.355   6.532   4.541 -0.2392  0.2985 -0.9595
  200MOL0     C26273   5.296   6.467   4.436  0.2884 -1.1388 -0.0030
  200MOL0     C26274   5.166   6.422   4.453 -0.0968 -1.0221  0.7860
  200MOL0     C26275   5.095   6.458   4.571  0.1979 -1.0054 -0.5695
  200MOL0     O26276   4.971   6.415   4.583  0.7494  0.1113 -0.3728
  200MOL0     C26277   4.876   6.520   4.608 -0.7964  0.2137  0.1214
  200MOL0     C26278   4.747   6.445   4.606  0.2857 -0.0252 -0.5981
  200MOL0     C26279   4.635   6.550   4.618 -0.5121  0.3716 -0.1464
  200MOL0     C26280   4.490   6.508   4.589 -0.4967 -0.0801  0.0675
  200MOL0     C26281   4.393   6.626   4.582 -0.7117  0.2351  0.2814
  200MOL0     C26282   4.373   6.689   4.727  0.1173  0.0722 -0.4810
  200MOL0     C26283   4.272   6.801   4.721 -0.2794 -0.4546  0.4079
  200MOL0     C26284   4.137   6.786   4.651  0.3114 -0.2817  0.1110
  200MOL0     N26285   4.062   6.677   4.699  0.2915  0.3250 -0.1450
  200MOL0     C26286   3.981   6.676   4.807  0.2550  0.5345 -0.3252
  200MOL0     C26287   3.904   6.564   4.796 -0.1157  0.0571  0.3110
  200MOL0     C26288   3.808   6.516   4.898  0.7518  0.1933  0.3879
  200MOL0     C26289   3.675   6.591   4.883  0.6947 -0.5974 -0.1251
  200MOL0     C26290   3.612   6.590   4.748 -0.1669  0.3180 -0.6088
  200MOL0     C26291   3.460   6.632   4.733  0.1953 -0.1387 -0.3281
  200MOL0     O26292   3.360   6.569   4.815 -0.1531  0.2936  0.2307
  200MOL0     C26293   3.229   6.558   4.784 -0.1180 -0.0104 -0.1180
  200MOL0     C26294   3.170   6.622   4.679  0.1581 -0.3243 -0.0730
  200MOL0     C26295   3.029   6.603   4.652 -0.6145 -0.1340 -0.3990
  200MOL0     C26296   2.950   6.522   4.739  0.4241 -0.6613 -1.2045
  200MOL0     C26297   2.806   6.501   4.725 -0.2702 -0.1082 -0.5598
  200MOL0     O26298   2.745   6.584   4.642  0.6002 -0.7249 -0.0148
  200MOL0     C26299   2.630   6.540   4.582 -0.3922  0.8260 -0.2034
  200MOL0     C26300   2.506   6.595   4.615 -1.2336 -0.3142 -0.2901
  200MOL0     C26301   2.401   6.561   4.533  0.6039 -1.0130 -0.4366
  200MOL0     C26302   2.410   6.467   4.427 -0.3321 -0.0870  0.3482
  200MOL0     O26303   2.302   6.425   4.356 -0.0718 -0.1399  0.0735
  200MOL0     C26304   2.296   6.474   4.210  0.3284 -0.2172 -0.8203
  200MOL0     C26305   2.155   6.452   4.164 -0.3202 -0.4299 -1.0865
  200MOL0     C26306   2.094   6.317   4.195  0.4156  0.1474  0.6589
  200MOL0     C26307   1.939   6.322   4.154  0.2746 -0.1252 -0.1100
  200MOL0     C26308   1.859   6.191   4.173  0.2171 -0.8285  0.6851
  200MOL0     C26309   1.907   6.073   4.082  0.0654 -0.2466  0.0129
  200MOL0     C26310   1.814   5.952   4.106 -0.5422 -0.4014 -0.7790
  200MOL0     C26311   1.855   5.829   4.025  0.0859 -0.8336  0.9863
  200MOL0    Cl26312   2.024   5.787   4.051 -0.4247  0.0493 -0.1105
  200MOL0     C26313   2.526   6.401   4.421 -0.0467  0.0179  0.4054
  200MOL0     C26314   2.639   6.433   4.495 -0.1704 -0.1768 -0.0595
  200MOL0     O26315   2.756   6.403   4.783  0.5029 -0.6402 -0.7663
  200MOL0     C26316   3.014   6.457   4.850  0.0729 -0.3752 -1.0972
  200MOL0     C26317   3.149   6.484   4.872  0.2597  0.4691  0.5095
  200MOL0     N26318   3.952   6.492   4.686  0.4004 -0.3531 -0.7692
  200MOL0     N26319   4.049   6.562   4.628  0.7653 -0.5890 -0.9722
  200MOL0     C26320   5.161   6.517   4.673  0.4926 -0.1137  0.0467
  200MOL0     C26321   5.289   6.565   4.650  0.4254 -0.4110 -0.2322
  200MOL0     C26322   5.644   6.750   4.440 -0.1065  0.3554 -0.0239
  200MOL0     C26323   5.667   6.876   4.397  0.0727 -0.0824 -0.6177
  200MOL0     C26324   5.791   6.921   4.348  0.1929 -0.3261 -0.7876
  200MOL0     C26325   5.907   6.838   4.349 -1.0770 -0.0281 -0.0925
  200MOL0     O26326   6.024   6.878   4.300 -0.4121  0.4994  0.1959
  200MOL0     C26327   6.074   7.011   4.324 -0.1096  0.2053  0.1590
  200MOL0     C26328   6.227   7.020   4.295 -0.6466 -0.3332  0.5239
  200MOL0     C26329   6.271   7.168   4.258 -0.2117  0.8146  1.1153
  200MOL0     C26330   6.421   7.175   4.274  0.2013 -0.3606 -0.5065
  200MOL0     C26331   6.507   7.082   4.211  0.2076  0.4131  0.0632
  200MOL0     C26332   6.593   7.001   4.173  0.6120 -0.1598  0.1730
  200MOL0     C26333   5.888   6.707   4.404 -0.1561  0.0208  0.6511
  200MOL0     C26334   5.758   6.665   4.447  0.8748  0.1135  0.5224
  200MOL0     H26335   5.345   6.438   4.344  0.2325  0.6587 -0.6431
  200MOL0     H26336   5.122   6.352   4.383  0.9081 -1.4273  0.5438
  200MOL0     H26337   4.873   6.601   4.535 -2.8152 -0.0474 -0.1305
  200MOL0     H26338   4.891   6.561   4.708 -0.2820  0.4390 -0.0431
  200MOL0     H26339   4.741   6.379   4.692 -0.0394  3.7092  2.5234
  200MOL0     H26340   4.736   6.380   4.518 -1.0738  0.6532 -0.9708
  200MOL0     H26341   4.660   6.628   4.545 -2.2121  0.0582 -1.1284
  200MOL0     H26342   4.653   6.588   4.719 -0.9761  0.2904 -0.0302
  200MOL0     H26343   4.486   6.466   4.488 -1.8342 -0.5356  0.2948
  200MOL0     H26344   4.460   6.434   4.664 -1.7852  0.7474  0.4002
  200MOL0     H26345   4.301   6.582   4.542  0.0729 -1.1377 -0.0973
  200MOL0     H26346   4.447   6.705   4.529  2.7865  0.6183  3.8763
  200MOL0     H26347   4.468   6.728   4.764  1.5040 -2.4603 -1.1681
  200MOL0     H26348   4.336   6.609   4.792 -0.9079 -0.6070 -1.8367
  200MOL0     H26349   4.260   6.836   4.823  2.2309 -1.2763  1.0726
  200MOL0     H26350   4.330   6.877   4.667 -1.9621  0.9095  0.4573
  200MOL0     H26351   4.147   6.797   4.543  2.4997  0.1089  0.3160
  200MOL0     H26352   4.096   6.883   4.682  0.7105  0.1687 -0.7315
  200MOL0     H26353   3.971   6.747   4.889  1.1074 -1.3913  1.5418
  200MOL0     H26354   3.847   6.520   5.000 -2.2485  0.2269  1.6378
  200MOL0     H26355   3.797   6.408   4.883  0.9847  0.3939 -1.4779
  200MOL0     H26356   3.700   6.696   4.898  0.1806 -0.7472  2.1812
  200MOL0     H26357   3.612   6.563   4.968  0.6806 -1.7246 -0.4973
  200MOL0     H26358   3.674   6.657   4.687  0.3316 -0.8647 -1.4294
  200MOL0     H26359   3.636   6.493   4.703  1.1289  1.6263 -2.9463
  200MOL0     H26360   3.439   6.617   4.627  0.8198 -0.1660 -0.4531
  200MOL0     H26361   3.456   6.740   4.752 -1.6627  0.1547 -2.0505
  200MOL0     H26362   3.224   6.682   4.608 -1.7975 -0.4186 -1.7328
  200MOL0     H26363   2.994   6.651   4.562 -0.8116  2.6350  1.0452
  200MOL0     H26364   2.486   6.676   4.685 -1.5271  0.0804 -0.8237
  200MOL0     H26365   2.316   6.629   4.531  0.4751 -1.0826  1.1993
  200MOL0     H26366   2.368   6.418   4.150  1.5781  1.6964 -1.1856
  200MOL0     H26367   2.324   6.580   4.204  0.3049 -0.0349  1.4170
  200MOL0     H26368   2.152   6.476   4.057 -2.7480  1.0597 -0.7504
  200MOL0     H26369   2.092   6.533   4.202  1.2978  0.9329 -1.1363
  200MOL0     H26370   2.112   6.286   4.299  3.3046 -0.7565 -0.0191
  200MOL0     H26371   2.147   6.244   4.132  1.2529  0.0390  1.4620
  200MOL0     H26372   1.892   6.405   4.207  2.7514  1.3712 -0.0946
  200MOL0     H26373   1.936   6.342   4.047 -2.8469 -0.8041 -0.2487
  200MOL0     H26374   1.757   6.223   4.150  1.3872  2.8758  0.0236
  200MOL0     H26375   1.865   6.169   4.280 -0.4208 -0.8843  0.7174
  200MOL0     H26376   2.012   6.048   4.098  0.1125 -0.5939 -0.7849
  200MOL0     H26377   1.900   6.102   3.976  1.2703 -2.2676 -0.6821
  200MOL0     H26378   1.818   5.931   4.213 -0.7874 -1.4068 -0.9530
  200MOL0     H26379   1.708   5.970   4.083 -1.7656 -4.5151  0.6991
  200MOL0     H26380   1.844   5.843   3.917  2.5344 -0.8000  0.6828
  200MOL0     H26381   1.795   5.745   4.060  1.0558 -1.1107  2.0597
  200MOL0     H26382   2.539   6.317   4.354  0.1629  0.8627 -0.6300
  200MOL0     H26383   2.728   6.372   4.481  0.2590  0.6465 -1.0325
  200MOL0     H26384   2.959   6.397   4.921 -1.2848  0.7256 -1.1718
  200MOL0     H26385   3.185   6.440   4.965  0.1349 -1.6239 -0.3690
  200MOL0     H26386   5.108   6.520   4.768 -1.5326 -1.3759 -0.9743
  200MOL0     H26387   5.347   6.616   4.726  1.9565  1.1777 -2.3563
  200MOL0     H26388   5.579   6.932   4.368 -0.6131 -1.1218 -0.6026
  200MOL0     H26389   5.804   7.023   4.315 -0.8754  0.6149  1.4829
  200MOL0     H26390   6.048   7.040   4.426 -0.5785  0.1820  0.0449
  200MOL0     H26391   6.026   7.077   4.251 -1.6537 -1.6672 -0.6089
  200MOL0     H26392   6.283   6.982   4.381 -3.0211  0.0260  2.3504
  200MOL0     H26393   6.245   6.956   4.209  1.1969  1.2683 -0.3713
  200MOL0     H26394   6.219   7.246   4.315 -2.1639  2.1055 -2.1729
  200MOL0     H26395   6.247   7.186   4.153  3.3926  0.1595  0.0543
  200MOL0     H26396   6.454   7.272   4.235  1.9641 -0.1914  1.2420
  200MOL0     H26397   6.447   7.184   4.380 -2.7907  0.7794  0.2247
  200MOL0     H26398   6.659   6.920   4.150  0.1529 -0.3247 -0.6016
  200MOL0     H26399   5.976   6.645   4.416  1.4078  2.3404  1.9098
  200MOL0     H26400   5.750   6.560   4.475  1.9102  0.5085  2.4883
  201MOL0     O26401   9.047   8.694   4.508  0.4378 -0.0579 -0.0740
  201MOL0     C26402   9.168   8.709   4.520  0.1930 -0.0446 -0.9168
  201MOL0     O26403   9.229   8.769   4.623  0.0888 -0.4416 -0.5071
  201MOL0     C26404   9.146   8.821   4.723 -0.5747 -0.4888  0.2150
  201MOL0     C26405   9.113   8.747   4.832  0.2999 -0.7931  0.5363
  201MOL0     C26406   9.017   8.796   4.935 -0.1934 -0.0942  0.0297
  201MOL0     C26407   8.964   8.919   4.920  0.7989  0.0531  0.7969
  201MOL0     O26408   8.876   8.984   5.008 -0.1553 -0.5464 -0.0954
  201MOL0     C26409   8.803   8.900   5.097 -0.0472  0.8668  0.0542
  201MOL0     C26410   8.720   8.986   5.198 -0.1432  0.1375 -0.1527
  201MOL0     C26411   8.608   9.049   5.122  0.2965 -0.5560  0.9341
  201MOL0     C26412   8.516   9.119   5.227  0.0562  0.4598 -0.4182
  201MOL0     C26413   8.392   9.185   5.166  0.4884  0.1020  0.4093
  201MOL0     C26414   8.287   9.073   5.152 -0.1181 -0.6342 -0.7743
  201MOL0     C26415   8.154   9.137   5.120  0.2012  0.4116 -0.3228
  201MOL0     C26416   8.039   9.036   5.144 -0.2232 -0.7390 -0.0323
  201MOL0     N26417   7.906   9.089   5.126 -0.2884  0.5599  1.1206
  201MOL0     C26418   7.862   9.167   5.023 -0.1181  0.0315  0.1714
  201MOL0     C26419   7.754   9.240   5.061  0.3827  0.2447  0.9156
  201MOL0     C26420   7.675   9.341   4.987  0.5609  0.7653  0.1988
  201MOL0     C26421   7.625   9.287   4.851  0.1399 -0.4345 -0.7321
  201MOL0     C26422   7.533   9.393   4.784 -0.4816 -0.7790 -0.4943
  201MOL0     C26423   7.508   9.367   4.638  0.5672 -0.0695  0.1917
  201MOL0     O26424   7.421   9.460   4.575 -1.2241  0.1888  0.8351
  201MOL0     C26425   7.286   9.460   4.602  0.3787  0.1171  0.9464
  201MOL0     C26426   7.205   9.355   4.645  0.6215 -0.7145  0.0302
  201MOL0     C26427   7.065   9.376   4.671  0.0724 -0.0518  0.0403
  201MOL0     C26428   7.012   9.503   4.675  0.2705 -0.0671 -0.2398
  201MOL0     C26429   6.873   9.518   4.706  0.6200 -0.8846  0.1062
  201MOL0     O26430   6.815   9.423   4.772  0.2459  0.4864 -0.5829
  201MOL0     C26431   6.690   9.448   4.827  0.4927  0.0703  1.2480
  201MOL0     C26432   6.673   9.483   4.965 -0.3362  1.6850 -0.4473
  201MOL0     C26433   6.540   9.506   5.012 -0.6205  0.2975 -0.7451
  201MOL0     C26434   6.426   9.477   4.938 -0.1474  0.5218  0.3744
  201MOL0     O26435   6.305   9.512   4.998 -0.0618 -0.5806 -0.3474
  201MOL0     C26436   6.177   9.504   4.939 -0.0898 -0.3153 -0.2413
  201MOL0     C26437   6.073   9.537   5.040 -0.2520 -0.0013  1.0168
  201MOL0     C26438   5.947   9.465   5.013  0.3624 -0.2889  0.0260
  201MOL0     C26439   5.850   9.479   5.138  0.5000  0.7206  0.5724
  201MOL0     C26440   5.740   9.377   5.127 -0.1884 -0.3696 -0.1871
  201MOL0     C26441   5.680   9.358   4.982  0.0416 -0.3946 -0.5020
  201MOL0     C26442   5.584   9.236   4.977 -0.3525  0.6791 -0.1167
  201MOL0     C26443   5.456   9.241   5.060  0.6479  0.1364  0.3169
  201MOL0    Cl26444   5.376   9.078   5.052  0.2311  0.2157 -0.0058
  201MOL0     C26445   6.444   9.442   4.807 -0.7588  0.4596  1.0601
  201MOL0     C26446   6.574   9.436   4.739  0.3501  0.0344 -0.1300
  201MOL0     O26447   6.818   9.622   4.664 -0.2918  0.0677 -0.5992
  201MOL0     C26448   7.094   9.611   4.638 -0.7436 -0.1473  0.1256
  201MOL0     C26449   7.225   9.585   4.590 -0.3288  0.0203 -0.2688
  201MOL0     N26450   7.728   9.196   5.191  0.0211 -0.6300 -0.2182
  201MOL0     N26451   7.814   9.110   5.227  0.6540  0.8898 -0.4684
  201MOL0     C26452   9.004   8.996   4.803 -0.0400  0.6679  0.3232
  201MOL0     C26453   9.100   8.949   4.707 -0.4854  0.1926  0.2720
  201MOL0     C26454   9.251   8.658   4.409  1.0311  0.1493 -0.0885
  201MOL0     C26455   9.205   8.613   4.282  0.5148  0.2176 -0.1865
  201MOL0     C26456   9.284   8.570   4.183 -0.9642  0.0942 -0.1059
  201MOL0     C26457   9.423   8.581   4.197  0.1889  0.2570  0.1981
  201MOL0     O26458   9.502   8.543   4.091  0.2438  0.0376 -1.4333
  201MOL0     C26459   9.647   8.531   4.112 -0.1007 -0.3808  0.6555
  201MOL0     C26460   9.699   8.451   3.998  0.1725 -0.3763 -0.3330
  201MOL0     C26461   9.847   8.422   4.003 -0.6055  0.0823 -0.1279
  201MOL0     C26462   9.924   8.525   3.912  0.5740 -0.4529 -0.1306
  201MOL0     C26463  10.064   8.494   3.918  0.1168 -0.5831 -0.5118
  201MOL0     C26464  10.182   8.462   3.910  0.4281  0.3708 -0.3523
  201MOL0     C26465   9.476   8.633   4.313  0.7406 -0.4939 -0.1796
  201MOL0     C26466   9.387   8.679   4.419  0.7912 -0.0253  0.4398
  201MOL0     H26467   9.153   8.646   4.826  0.1909 -0.7831 -0.5081
  201MOL0     H26468   8.986   8.746   5.026 -1.7021  1.3297  0.3529
  201MOL0     H26469   8.872   8.839   5.156 -1.6668 -1.1576 -0.0371
  201MOL0     H26470   8.739   8.826   5.048 -2.0010  0.1501  3.3979
  201MOL0     H26471   8.791   9.063   5.230 -0.7028  1.4035 -1.8256
  201MOL0     H26472   8.681   8.920   5.276 -0.3741 -0.5760 -0.8636
  201MOL0     H26473   8.549   8.996   5.046  1.7744 -1.4223  0.3502
  201MOL0     H26474   8.655   9.128   5.062 -3.4075  2.2400  1.3613
  201MOL0     H26475   8.477   9.047   5.300 -2.1771  1.2080 -0.8096
  201MOL0     H26476   8.576   9.199   5.272 -0.4661  1.7767 -1.9660
  201MOL0     H26477   8.408   9.230   5.068  0.1037 -1.8978 -0.6314
  201MOL0     H26478   8.355   9.257   5.240 -0.2254 -0.3625  0.5154
  201MOL0     H26479   8.289   9.010   5.241 -0.1385  0.0486 -0.2776
  201MOL0     H26480   8.312   9.003   5.072  4.0760  2.9947 -3.1437
  201MOL0     H26481   8.132   9.228   5.176 -2.6565 -1.0916  1.2475
  201MOL0     H26482   8.154   9.161   5.013  1.7113 -0.8876 -0.6601
  201MOL0     H26483   8.059   8.988   5.240  0.3407 -1.1127 -0.3313
  201MOL0     H26484   8.046   8.952   5.074 -1.0024  0.2808 -1.3849
  201MOL0     H26485   7.909   9.162   4.926 -0.6946  4.3426 -0.5188
  201MOL0     H26486   7.735   9.429   4.963 -1.8430  2.1741 -1.1314
  201MOL0     H26487   7.595   9.373   5.055 -1.3014 -2.9378  0.0259
  201MOL0     H26488   7.573   9.193   4.868  0.9587 -0.8604 -0.5555
  201MOL0     H26489   7.712   9.262   4.789  1.2505 -0.4121  0.7545
  201MOL0     H26490   7.441   9.412   4.840  0.3413  1.6610  0.1638
  201MOL0     H26491   7.582   9.491   4.785 -5.2236  1.8922 -0.7804
  201MOL0     H26492   7.471   9.265   4.625  0.7340 -0.2524  1.1469
  201MOL0     H26493   7.606   9.371   4.590  0.8477  1.1833  0.8182
  201MOL0     H26494   7.231   9.252   4.665 -2.9111 -1.4961  1.2305
  201MOL0     H26495   7.011   9.285   4.693  1.8866 -0.8116  1.6677
  201MOL0     H26496   6.756   9.512   5.029 -0.8943  2.3724 -0.0202
  201MOL0     H26497   6.529   9.528   5.117  0.3740 -0.7874 -0.3996
  201MOL0     H26498   6.171   9.400   4.906  1.3425 -0.7427  0.7470
  201MOL0     H26499   6.165   9.569   4.852 -0.4169  2.8456  2.0025
  201MOL0     H26500   6.060   9.643   5.014 -0.4644 -0.5771 -1.4765
  201MOL0     H26501   6.119   9.512   5.136  0.9906 -3.3864 -0.3047
  201MOL0     H26502   5.970   9.361   4.990 -3.6046 -1.0520 -1.2834
  201MOL0     H26503   5.907   9.509   4.921  0.3053  0.2285  0.2885
  201MOL0     H26504   5.909   9.469   5.230  0.8930  1.6538  0.4334
  201MOL0     H26505   5.807   9.579   5.146  2.7468  1.7069  1.1348
  201MOL0     H26506   5.651   9.399   5.188 -0.9094 -2.2183 -0.5143
  201MOL0     H26507   5.788   9.284   5.158 -1.4226 -1.8757 -2.5525
  201MOL0     H26508   5.761   9.332   4.913  0.1694  1.7642 -1.2756
  201MOL0     H26509   5.627   9.444   4.938  1.0265  0.0242 -0.8958
  201MOL0     H26510   5.557   9.212   4.873 -0.3310 -1.3525  0.2943
  201MOL0     H26511   5.638   9.144   5.000 -2.5395 -0.4838  0.6372
  201MOL0     H26512   5.383   9.310   5.018  0.6378 -0.4263 -0.6210
  201MOL0     H26513   5.476   9.270   5.164  2.1770 -0.0029  0.0822
  201MOL0     H26514   6.356   9.446   4.744  0.5099 -1.2036 -0.9485
  201MOL0     H26515   6.592   9.427   4.632  2.4670  0.7679  0.1150
  201MOL0     H26516   7.053   9.712   4.644 -1.6328 -0.4524 -0.6756
  201MOL0     H26517   7.286   9.670   4.561  2.2364 -1.9333 -0.9885
  201MOL0     H26518   8.967   9.096   4.784  2.4911  1.6436  0.1506
  201MOL0     H26519   9.147   9.010   4.631  1.1972  2.3914  2.8887
  201MOL0     H26520   9.098   8.598   4.279 -0.0847  3.3688  1.7885
  201MOL0     H26521   9.248   8.514   4.097  0.5094  0.4467 -0.9924
  201MOL0     H26522   9.679   8.493   4.210  1.4363 -0.8078  0.0109
  201MOL0     H26523   9.696   8.628   4.107 -2.3833  0.7690 -1.5352
  201MOL0     H26524   9.644   8.357   3.997  0.7024 -0.7179  1.0567
  201MOL0     H26525   9.679   8.510   3.908  2.5046  0.6973 -0.2207
  201MOL0     H26526   9.876   8.324   3.963  2.3520  0.6679  0.2989
  201MOL0     H26527   9.886   8.424   4.105 -0.2157  0.8056 -0.2862
  201MOL0     H26528   9.882   8.520   3.811 -0.0016  1.2327  0.0018
  201MOL0     H26529   9.903   8.628   3.943 -3.3139 -1.0512 -0.2525
  201MOL0     H26530  10.285   8.433   3.912  0.2025 -0.5073 -1.0411
  201MOL0     H26531   9.581   8.650   4.335  0.3299  1.9023  0.1452
  201MOL0     H26532   9.436   8.722   4.506  3.9678  2.0819 -2.1376
  202MOL0     O26533   6.631  10.893   3.092  0.4509 -0.6808 -0.6510
  202MOL0     C26534   6.584  11.013   3.112 -0.8873 -0.1672  0.6320
  202MOL0     O26535   6.472  11.061   3.063 -0.4990  0.7782  0.7310
  202MOL0     C26536   6.430  11.012   2.940  0.0475  0.0465  0.3096
  202MOL0     C26537   6.292  11.046   2.914  1.1744  0.6326  0.5104
  202MOL0     C26538   6.231  10.982   2.809  0.5362 -0.4360 -0.4127
  202MOL0     C26539   6.294  10.901   2.719 -0.3095  0.6783  0.5218
  202MOL0     O26540   6.234  10.841   2.610 -0.5104  0.3900 -0.1701
  202MOL0     C26541   6.085  10.837   2.608  0.2148 -0.0037 -0.1729
  202MOL0     C26542   6.026  10.710   2.679 -0.3373 -0.4311  0.0484
  202MOL0     C26543   5.885  10.663   2.649  0.8584  0.6139  0.5045
  202MOL0     C26544   5.791  10.777   2.626  0.4878 -0.7158  0.0523
  202MOL0     C26545   5.644  10.736   2.635  0.2734  0.5113 -0.4243
  202MOL0     C26546   5.558  10.861   2.621 -0.0450  0.6680 -0.0113
  202MOL0     C26547   5.411  10.838   2.631  0.0361 -0.2569 -0.2152
  202MOL0     C26548   5.349  10.861   2.501  0.1063 -0.4340  0.0362
  202MOL0     N26549   5.203  10.828   2.515 -0.3308 -0.3595  0.1659
  202MOL0     C26550   5.108  10.906   2.570 -0.1417 -0.6264  0.7071
  202MOL0     C26551   4.995  10.835   2.572  0.1491  1.3449 -0.2864
  202MOL0     C26552   4.868  10.878   2.633  0.5835 -0.3617 -0.3621
  202MOL0     C26553   4.815  10.784   2.740 -0.2972 -0.9198 -0.2216
  202MOL0     C26554   4.682  10.844   2.786 -0.1129 -0.3241  0.3333
  202MOL0     C26555   4.608  10.762   2.884  0.3341 -0.3496 -0.0998
  202MOL0     O26556   4.502  10.839   2.943 -0.2901 -0.9115  0.2450
  202MOL0     C26557   4.409  10.783   3.029  0.5965  0.1372  0.1035
  202MOL0     C26558   4.410  10.652   3.066  1.1561  0.7830 -0.6353
  202MOL0     C26559   4.301  10.597   3.148 -0.0870 -0.6036  0.2976
  202MOL0     C26560   4.199  10.683   3.210 -0.2245 -0.4361  0.1750
  202MOL0     C26561   4.078  10.628   3.294 -0.0613  0.7324 -0.6136
  202MOL0     O26562   3.984  10.719   3.331  0.1914  0.4187 -0.3307
  202MOL0     C26563   3.880  10.676   3.417  0.7942 -0.0958 -0.0948
  202MOL0     C26564   3.787  10.582   3.374  0.1035  0.6416  0.6231
  202MOL0     C26565   3.685  10.533   3.457 -0.3263 -1.6661 -0.0303
  202MOL0     C26566   3.672  10.586   3.592 -0.2224  0.6846  1.3635
  202MOL0     O26567   3.566  10.573   3.676  0.2528 -0.7271  0.0992
  202MOL0     C26568   3.451  10.511   3.607 -0.1660 -0.1324  0.0911
  202MOL0     C26569   3.340  10.518   3.707  0.0199  0.4360 -0.7032
  202MOL0     C26570   3.362  10.449   3.843 -0.3369 -0.3774 -0.1812
  202MOL0     C26571   3.242  10.456   3.927  0.1737 -0.2036 -0.9155
  202MOL0     C26572   3.263  10.366   4.056 -0.3805 -0.2086 -0.5593
  202MOL0     C26573   3.145  10.367   4.153  0.2996  0.1443 -0.7416
  202MOL0     C26574   3.127  10.238   4.241  0.6127  0.5894 -0.8438
  202MOL0     C26575   2.976  10.213   4.264 -0.1795 -0.3570 -0.0666
  202MOL0    Cl26576   2.891  10.349   4.345  0.0580 -0.1045  0.2651
  202MOL0     C26577   3.769  10.677   3.638  0.5605 -0.5142  0.9695
  202MOL0     C26578   3.867  10.715   3.547 -0.1970  0.0054 -0.3785
  202MOL0     O26579   4.087  10.512   3.339  0.2099 -0.7639  0.2560
  202MOL0     C26580   4.206  10.819   3.156  0.5851 -0.2184 -0.4822
  202MOL0     C26581   4.313  10.868   3.080 -0.0868  0.1667  0.3017
  202MOL0     N26582   5.024  10.712   2.525  0.4754 -0.2337  0.1604
  202MOL0     N26583   5.144  10.710   2.484 -0.1802  0.3916 -0.3710
  202MOL0     C26584   6.426  10.873   2.733 -1.7091  0.4957 -0.0470
  202MOL0     C26585   6.498  10.927   2.843  0.5702  1.1260 -0.3366
  202MOL0     C26586   6.669  11.096   3.203 -0.4191  0.9846  0.3770
  202MOL0     C26587   6.805  11.058   3.241 -0.7590 -0.0402 -0.7638
  202MOL0     C26588   6.880  11.142   3.323  0.1631  0.4360 -0.2235
  202MOL0     C26589   6.825  11.266   3.370 -0.6846 -0.5224  0.3513
  202MOL0     O26590   6.897  11.354   3.456  0.7745  0.9957  0.1255
  202MOL0     C26591   7.024  11.301   3.503  0.7508 -0.2217  0.0905
  202MOL0     C26592   7.085  11.387   3.613 -0.0454  1.2327  0.3050
  202MOL0     C26593   7.012  11.384   3.743  0.5814 -0.2857 -1.3263
  202MOL0     C26594   7.082  11.486   3.828  0.5016 -0.0161  0.8610
  202MOL0     C26595   7.050  11.625   3.803  0.3895 -0.1880  0.7901
  202MOL0     C26596   7.023  11.742   3.802 -1.0510 -0.4697  0.3406
  202MOL0     C26597   6.703  11.308   3.315  0.3322 -0.3843 -0.1704
  202MOL0     C26598   6.619  11.224   3.237 -0.1168 -0.4870 -0.8311
  202MOL0     H26599   6.238  11.115   2.978 -1.9720 -1.0914 -0.0539
  202MOL0     H26600   6.124  11.001   2.801  0.6261  0.1487 -0.2489
  202MOL0     H26601   6.053  10.807   2.508  1.5212 -4.9112  0.6566
  202MOL0     H26602   6.037  10.933   2.628  1.9143  1.8286 -3.7797
  202MOL0     H26603   6.052  10.722   2.784  1.1089 -2.1484 -0.0557
  202MOL0     H26604   6.081  10.625   2.637  1.0825  1.1963 -1.5690
  202MOL0     H26605   5.859  10.604   2.736 -0.4613 -2.0516 -1.5620
  202MOL0     H26606   5.871  10.591   2.568 -0.3293 -1.8908  2.8001
  202MOL0     H26607   5.811  10.851   2.703 -1.8361  0.0070  0.0484
  202MOL0     H26608   5.810  10.810   2.523 -1.2382 -1.9052 -0.7077
  202MOL0     H26609   5.619  10.688   2.731 -0.0966  2.1083  0.3112
  202MOL0     H26610   5.622  10.667   2.553  0.6792 -3.4427  2.4792
  202MOL0     H26611   5.591  10.916   2.533  0.6412  0.6633  0.2402
  202MOL0     H26612   5.580  10.926   2.706  2.7531 -2.7992  2.1677
  202MOL0     H26613   5.398  10.733   2.659 -0.7327 -1.5253 -4.4861
  202MOL0     H26614   5.359  10.910   2.695 -2.1678  0.5179 -2.6974
  202MOL0     H26615   5.397  10.803   2.422 -0.1906  0.0855 -0.5311
  202MOL0     H26616   5.359  10.969   2.485 -1.5128  0.1809  2.6087
  202MOL0     H26617   5.113  11.007   2.611 -1.3150  0.0703 -0.7598
  202MOL0     H26618   4.795  10.890   2.553  1.2920  0.9089 -0.8472
  202MOL0     H26619   4.879  10.975   2.682 -1.4543 -0.5373  0.5263
  202MOL0     H26620   4.886  10.769   2.822 -0.8086 -2.2197  0.0106
  202MOL0     H26621   4.805  10.697   2.675  0.3373  0.4592 -2.2930
  202MOL0     H26622   4.701  10.933   2.846 -1.9154  0.2863  0.0723
  202MOL0     H26623   4.617  10.876   2.704  2.3859  3.7667 -0.2773
  202MOL0     H26624   4.682  10.718   2.951 -0.5509 -0.7973  0.6123
  202MOL0     H26625   4.557  10.680   2.832 -3.6181  2.1185 -0.5844
  202MOL0     H26626   4.484  10.577   3.043  0.5252 -0.6279  1.6097
  202MOL0     H26627   4.316  10.497   3.185  3.9644 -0.5046 -0.5978
  202MOL0     H26628   3.795  10.553   3.269  0.9588  0.2972  0.7691
  202MOL0     H26629   3.628  10.452   3.413 -0.3398 -0.9753 -1.3447
  202MOL0     H26630   3.459  10.404   3.586 -0.8576 -1.5664  5.5226
  202MOL0     H26631   3.436  10.569   3.516  2.2396 -0.8720 -0.8700
  202MOL0     H26632   3.256  10.464   3.663 -0.5584  1.0075 -0.3259
  202MOL0     H26633   3.309  10.623   3.713 -1.5473  0.0830 -2.0485
  202MOL0     H26634   3.450  10.497   3.887  1.4650 -2.0626 -1.7170
  202MOL0     H26635   3.387  10.345   3.821  2.0833 -0.5009  2.6547
  202MOL0     H26636   3.242  10.560   3.962  2.4499 -0.9802  1.7119
  202MOL0     H26637   3.150  10.431   3.872  0.6380 -1.1316 -1.2962
  202MOL0     H26638   3.355  10.403   4.102 -0.8980  3.9896 -2.3929
  202MOL0     H26639   3.291  10.268   4.017  1.3470  1.0384 -2.6638
  202MOL0     H26640   3.055  10.384   4.094  2.2796  1.5452 -3.5768
  202MOL0     H26641   3.165  10.455   4.216  1.1440 -1.1866  0.9276
  202MOL0     H26642   3.179  10.154   4.195 -0.2816 -0.5658  0.2038
  202MOL0     H26643   3.172  10.251   4.340 -0.4457 -0.6836 -0.1676
  202MOL0     H26644   2.972  10.121   4.323  1.0436 -0.0271  0.5610
  202MOL0     H26645   2.935  10.185   4.167  0.6460  2.3192 -1.2973
  202MOL0     H26646   3.768  10.733   3.731 -1.2039 -0.2647  0.8331
  202MOL0     H26647   3.945  10.777   3.590  0.5306 -1.9820  1.2970
  202MOL0     H26648   4.135  10.895   3.189  0.9674 -0.7677  1.7820
  202MOL0     H26649   4.311  10.969   3.041 -0.9875 -0.1247 -0.4465
  202MOL0     H26650   6.495  10.824   2.665  0.1022  2.8366 -0.0347
  202MOL0     H26651   6.605  10.913   2.850  0.4502 -0.0798 -0.6202
  202MOL0     H26652   6.841  10.959   3.214  0.5032 -0.4689  2.1545
  202MOL0     H26653   6.977  11.103   3.351  1.9031  3.4290 -1.5898
  202MOL0     H26654   7.097  11.299   3.422 -0.0702 -0.3275 -0.6728
  202MOL0     H26655   7.008  11.200   3.540  2.0373  0.2036  1.9087
  202MOL0     H26656   7.184  11.350   3.640 -0.4674 -0.9937 -0.9256
  202MOL0     H26657   7.096  11.489   3.575 -0.8639  1.1140 -0.2759
  202MOL0     H26658   7.035  11.287   3.787  0.8801  0.2640 -0.2245
  202MOL0     H26659   6.905  11.410   3.741  0.6094  0.0406  0.1960
  202MOL0     H26660   7.052  11.467   3.932 -0.5737  1.0502  0.7775
  202MOL0     H26661   7.191  11.483   3.822  0.5096  1.8181 -1.4977
  202MOL0     H26662   7.018  11.849   3.808  1.9028 -0.2336 -0.1522
  202MOL0     H26663   6.659  11.404   3.343 -0.8520 -0.5139 -1.4485
  202MOL0     H26664   6.518  11.253   3.210 -0.3032 -3.3699 -3.8041
  203MOL0     O26665  10.234   9.946   5.522 -0.4031 -0.0973  0.2822
  203MOL0     C26666  10.266  10.054   5.483 -0.2880 -0.7264 -0.5652
  203MOL0     O26667  10.174  10.158   5.446 -0.8733  0.0060  0.3639
  203MOL0     C26668  10.042  10.140   5.450  0.0316 -1.0166  0.3202
  203MOL0     C26669   9.967  10.225   5.357 -0.4510 -0.6854 -0.1335
  203MOL0     C26670   9.825  10.214   5.340  0.4676  0.0836 -0.5356
  203MOL0     C26671   9.758  10.116   5.417 -0.1183  0.6721  0.3574
  203MOL0     O26672   9.621  10.092   5.417  0.2073  1.2679  0.4470
  203MOL0     C26673   9.555  10.113   5.293 -0.2737  0.4143  0.1051
  203MOL0     C26674   9.434  10.019   5.286 -0.1775  0.1304 -0.1280
  203MOL0     C26675   9.336  10.063   5.177 -0.5130  0.0526  0.4909
  203MOL0     C26676   9.210   9.971   5.153 -0.0393 -0.9424 -0.3131
  203MOL0     C26677   9.130   9.984   5.020  0.5356 -0.7601  0.0047
  203MOL0     C26678   9.017   9.884   5.017  0.4467 -0.0093 -0.4252
  203MOL0     C26679   8.897   9.943   5.085  0.3877 -0.0600 -0.8418
  203MOL0     C26680   8.785   9.844   5.079  0.7208  0.2721  0.0864
  203MOL0     N26681   8.713   9.846   4.946  0.5295 -0.7206  0.0483
  203MOL0     C26682   8.617   9.936   4.909 -0.1621  0.3683  0.4218
  203MOL0     C26683   8.575   9.901   4.783  0.2894  0.0678 -0.1139
  203MOL0     C26684   8.466   9.952   4.696  0.4483 -0.6577 -0.9083
  203MOL0     C26685   8.332   9.957   4.769 -0.0161  0.4175  0.3308
  203MOL0     C26686   8.216   9.999   4.676  0.2000  0.2609  0.0002
  203MOL0     C26687   8.072   9.942   4.713 -0.6324  0.0083 -0.3300
  203MOL0     O26688   8.037   9.975   4.850 -0.4624  0.2211 -0.5356
  203MOL0     C26689   7.905   9.992   4.884  0.3601 -0.2829  0.1841
  203MOL0     C26690   7.853  10.116   4.932  0.4743  0.7096  0.4302
  203MOL0     C26691   7.716  10.127   4.949  0.2437 -0.1390 -0.2507
  203MOL0     C26692   7.632  10.018   4.931  0.4755  0.1088  0.4521
  203MOL0     C26693   7.485  10.024   4.953 -0.8320 -0.0057 -0.0659
  203MOL0     O26694   7.426   9.905   4.982 -0.2131  0.0610  0.5436
  203MOL0     C26695   7.288   9.911   4.974 -0.5937  0.7266 -0.9998
  203MOL0     C26696   7.221   9.986   5.084  0.0124  0.2684 -0.1245
  203MOL0     C26697   7.083   9.977   5.103  0.0586  0.2971  0.4174
  203MOL0     C26698   7.008   9.899   5.015 -0.7693  1.0361 -0.0021
  203MOL0     O26699   6.875   9.911   5.027  0.1606  0.2207 -0.3096
  203MOL0     C26700   6.790   9.879   4.918 -0.9219 -0.7241 -0.0163
  203MOL0     C26701   6.655   9.942   4.929 -0.1999  0.0825 -0.3172
  203MOL0     C26702   6.561   9.871   5.032  0.3388 -0.9869 -0.0906
  203MOL0     C26703   6.439   9.956   5.057 -0.4006  0.1314 -0.4082
  203MOL0     C26704   6.324   9.888   5.128  0.9550 -0.5065  0.4108
  203MOL0     C26705   6.219   9.986   5.178 -0.1446  1.2553 -0.3501
  203MOL0     C26706   6.096   9.903   5.223 -0.6389 -0.1099 -0.2314
  203MOL0     C26707   5.977   9.978   5.233  0.5449  0.5260  0.4167
  203MOL0    Cl26708   5.993  10.103   5.360  0.5331  0.2145 -0.1509
  203MOL0     C26709   7.064   9.828   4.909 -0.7575 -0.0896  0.1328
  203MOL0     C26710   7.210   9.833   4.889 -0.0635  0.7992 -0.2494
  203MOL0     O26711   7.432  10.136   4.956  1.2521  0.2480 -0.4120
  203MOL0     C26712   7.688   9.891   4.884 -0.7673 -0.6911  0.1161
  203MOL0     C26713   7.820   9.885   4.852 -0.5797 -1.1048  0.9458
  203MOL0     N26714   8.659   9.798   4.742 -0.0742  0.0225  0.0049
  203MOL0     N26715   8.745   9.768   4.836 -0.2898 -0.2105 -0.2911
  203MOL0     C26716   9.834  10.034   5.506 -0.1025 -0.0703  0.4834
  203MOL0     C26717   9.965  10.056   5.527 -0.5844 -0.6714 -0.8472
  203MOL0     C26718  10.412  10.090   5.480  0.4797 -0.3436 -0.8812
  203MOL0     C26719  10.464  10.217   5.429  0.0511  0.3339  0.0223
  203MOL0     C26720  10.596  10.237   5.430  0.1649 -0.2396 -0.1984
  203MOL0     C26721  10.695  10.149   5.489  0.1675  0.3603 -0.7106
  203MOL0     O26722  10.819  10.183   5.528  0.0819  0.4246  0.3654
  203MOL0     C26723  10.863  10.317   5.518  1.2622 -0.2037 -0.0531
  203MOL0     C26724  11.000  10.336   5.592  0.3205 -0.5276  0.7212
  203MOL0     C26725  10.977  10.292   5.742 -0.6998  0.2154  0.0212
  203MOL0     C26726  11.090  10.356   5.824 -0.5447 -0.4103  0.5904
  203MOL0     C26727  11.228  10.320   5.788 -0.1684  0.5777 -0.5160
  203MOL0     C26728  11.347  10.304   5.762  0.0956 -0.5775 -0.0258
  203MOL0     C26729  10.646  10.031   5.545 -0.2028  0.7069  0.7869
  203MOL0     C26730  10.504   9.997   5.529  0.4720  0.1814 -1.0263
  203MOL0     H26731  10.012  10.300   5.294  0.3048 -2.8662 -2.3585
  203MOL0     H26732   9.772  10.281   5.273  1.1185  1.2106  0.0481
  203MOL0     H26733   9.619  10.076   5.212  0.0432 -1.6928  1.2449
  203MOL0     H26734   9.534  10.220   5.284 -1.4601  0.2381  0.5855
  203MOL0     H26735   9.378  10.027   5.380 -1.4361  1.4840 -0.9609
  203MOL0     H26736   9.484   9.923   5.273  1.9300  1.2921 -1.1010
  203MOL0     H26737   9.394  10.082   5.086 -0.5820 -0.1331  0.4068
  203MOL0     H26738   9.297  10.161   5.203  0.2325  1.0957 -2.0012
  203MOL0     H26739   9.257   9.873   5.139  2.1991  0.2210 -1.3437
  203MOL0     H26740   9.145   9.975   5.241 -0.9304  0.5286 -0.9982
  203MOL0     H26741   9.202   9.968   4.939  2.5397 -0.1626  1.5664
  203MOL0     H26742   9.088  10.084   5.004  1.2585 -0.1282  1.7298
  203MOL0     H26743   9.045   9.793   5.070 -0.7281  0.2061  0.6116
  203MOL0     H26744   8.992   9.859   4.913 -1.5072 -1.0296  0.2454
  203MOL0     H26745   8.925   9.957   5.189 -1.2668  1.8857 -0.5945
  203MOL0     H26746   8.875  10.040   5.041  1.6157  0.5506 -0.1417
  203MOL0     H26747   8.705   9.866   5.150 -1.9015  1.5855 -3.0436
  203MOL0     H26748   8.830   9.745   5.098 -1.6914 -1.1222 -1.0553
  203MOL0     H26749   8.584  10.020   4.968 -0.5743  1.2331 -0.9958
  203MOL0     H26750   8.467   9.882   4.612  0.6181 -2.9622  0.9050
  203MOL0     H26751   8.487  10.055   4.666 -1.0106  0.9905  3.0378
  203MOL0     H26752   8.342  10.020   4.857  1.4082 -0.0039  0.4981
  203MOL0     H26753   8.316   9.858   4.814 -0.1212  1.4615  2.7263
  203MOL0     H26754   8.212  10.108   4.668  2.0386  0.3535  0.0425
  203MOL0     H26755   8.226   9.964   4.573  0.1529  1.3735 -0.4004
  203MOL0     H26756   8.078   9.833   4.705 -0.4355  0.0734 -1.1354
  203MOL0     H26757   8.002   9.980   4.638 -0.1705 -1.0808 -1.3452
  203MOL0     H26758   7.923  10.195   4.953  3.5482 -2.0114  1.2886
  203MOL0     H26759   7.677  10.220   4.991 -0.6011 -0.4501 -0.3133
  203MOL0     H26760   7.285  10.049   5.144  1.3977 -0.5489 -0.6893
  203MOL0     H26761   7.030  10.044   5.170 -2.6684 -0.9923 -0.3171
  203MOL0     H26762   6.768   9.772   4.912 -2.9175 -0.3429 -0.1086
  203MOL0     H26763   6.838   9.911   4.825 -0.3905 -0.5665  0.3037
  203MOL0     H26764   6.609   9.947   4.830  2.0381 -3.8550 -1.7815
  203MOL0     H26765   6.671  10.045   4.961  0.4068 -0.0692 -0.1139
  203MOL0     H26766   6.607   9.848   5.128 -1.3686  1.0644  1.2913
  203MOL0     H26767   6.524   9.776   4.991 -1.9707 -0.2323  0.1033
  203MOL0     H26768   6.465  10.044   5.116 -1.9246 -0.0441  0.5757
  203MOL0     H26769   6.413   9.999   4.960  1.2855  1.2949 -0.3993
  203MOL0     H26770   6.367   9.823   5.204  2.0925 -0.9935 -0.6050
  203MOL0     H26771   6.274   9.826   5.053  0.4878 -0.8545  0.9991
  203MOL0     H26772   6.202  10.061   5.100 -1.2560  1.0316 -0.3397
  203MOL0     H26773   6.257  10.051   5.258  1.2025  1.0193 -0.7729
  203MOL0     H26774   6.081   9.820   5.152 -1.5518 -0.2559  0.1200
  203MOL0     H26775   6.123   9.857   5.318  1.6554 -3.5193 -2.2660
  203MOL0     H26776   5.894   9.907   5.246  0.1816  1.2216  2.3100
  203MOL0     H26777   5.964  10.036   5.141 -1.1236 -1.2931 -0.5570
  203MOL0     H26778   7.009   9.772   4.834  0.2056 -1.1423  0.1926
  203MOL0     H26779   7.264   9.779   4.811  0.0741  2.2098 -1.1703
  203MOL0     H26780   7.632   9.799   4.869  0.0376 -0.7793 -3.1155
  203MOL0     H26781   7.861   9.803   4.795  0.8914  0.3098 -0.1385
  203MOL0     H26782   9.783   9.970   5.577  0.0871 -1.4036 -0.5447
  203MOL0     H26783  10.002   9.994   5.607 -2.7560  0.4201  1.1342
  203MOL0     H26784  10.384  10.287   5.402 -0.9295 -0.5871  0.4687
  203MOL0     H26785  10.636  10.327   5.384 -1.3052 -0.2871 -1.6693
  203MOL0     H26786  10.781  10.376   5.561  0.3567 -0.6928 -1.0661
  203MOL0     H26787  10.867  10.346   5.413 -2.5232 -0.0937 -0.3045
  203MOL0     H26788  11.069  10.268   5.541 -1.6156 -1.4183 -0.8408
  203MOL0     H26789  11.021  10.442   5.575 -3.0928 -0.1536 -2.3517
  203MOL0     H26790  10.994  10.184   5.734 -2.6099 -0.5736  4.0446
  203MOL0     H26791  10.879  10.313   5.784 -0.7198  1.9505 -0.8160
  203MOL0     H26792  11.078  10.465   5.829 -0.4305 -0.4359  1.7581
  203MOL0     H26793  11.072  10.319   5.926 -1.9931  0.3006  0.6197
  203MOL0     H26794  11.450  10.297   5.733 -0.0009 -0.8098 -0.3262
  203MOL0     H26795  10.708   9.958   5.597  1.6285  2.1444  0.7227
  203MOL0     H26796  10.457   9.908   5.570 -1.5999  0.7025 -2.1691
  204MOL0     O26797   2.424   2.214   4.927 -0.2276  0.0723  0.1034
  204MOL0     C26798   2.453   2.333   4.918  0.7054 -0.4559  0.1602
  204MOL0     O26799   2.361   2.432   4.917 -0.0203  0.5732  0.7505
  204MOL0     C26800   2.235   2.397   4.869 -0.6521  0.1380  0.6223
  204MOL0     C26801   2.125   2.401   4.957  0.2028 -1.5451  0.2064
  204MOL0     C26802   1.998   2.362   4.921 -0.4209 -0.4924  0.6139
  204MOL0     C26803   1.976   2.306   4.791 -0.0897  0.3864  0.6094
  204MOL0     O26804   1.852   2.262   4.757  0.0057  0.4333  0.2971
  204MOL0     C26805   1.792   2.351   4.673 -0.5418  0.2565  1.2209
  204MOL0     C26806   1.650   2.296   4.648  0.1493 -0.6448 -0.2696
  204MOL0     C26807   1.589   2.329   4.516  0.3798 -0.8121 -0.3973
  204MOL0     C26808   1.430   2.318   4.533  0.3021 -0.6645 -0.5065
  204MOL0     C26809   1.348   2.384   4.426 -1.0261 -0.1689 -0.7118
  204MOL0     C26810   1.202   2.381   4.448 -0.6180  0.1235 -0.1553
  204MOL0     C26811   1.128   2.462   4.340 -0.0188 -0.4096  0.4479
  204MOL0     C26812   0.972   2.462   4.364  0.2831  0.2541  0.7252
  204MOL0     N26813   0.919   2.581   4.436 -0.5433  0.1464 -0.0517
  204MOL0     C26814   0.896   2.699   4.374 -0.5205 -0.6609 -0.4723
  204MOL0     C26815   0.884   2.786   4.481  0.7737 -0.1627 -0.0803
  204MOL0     C26816   0.858   2.925   4.474 -0.2519 -0.5231  0.7953
  204MOL0     C26817   0.724   2.961   4.409  0.6107 -0.3557  0.2548
  204MOL0     C26818   0.705   3.110   4.375  0.9506  0.4174 -0.0496
  204MOL0     C26819   0.693   3.193   4.501 -0.8489 -0.8010  0.1872
  204MOL0     O26820   0.602   3.143   4.608  0.3320  0.7981  0.3571
  204MOL0     C26821   0.469   3.117   4.576 -0.1632 -0.3916  0.0323
  204MOL0     C26822   0.393   3.189   4.484 -0.7061 -0.4434  0.2857
  204MOL0     C26823   0.254   3.161   4.458 -0.4535 -0.0245  0.1741
  204MOL0     C26824   0.191   3.063   4.534 -0.1517  0.8506 -0.4451
  204MOL0     C26825   0.042   3.039   4.519 -1.0195  0.3330  0.1676
  204MOL0     O26826  -0.043   3.146   4.476  0.2541  0.6462  0.1240
  204MOL0     C26827  -0.178   3.113   4.480  1.0144  0.0009 -0.0394
  204MOL0     C26828  -0.240   3.054   4.587 -0.1511 -0.5344 -0.1617
  204MOL0     C26829  -0.377   3.017   4.591  0.9506 -0.2628  0.4085
  204MOL0     C26830  -0.460   3.038   4.481 -0.5180  0.6314  0.8046
  204MOL0     O26831  -0.596   3.020   4.482  0.1720 -0.5504 -0.5748
  204MOL0     C26832  -0.640   2.916   4.576  0.0758 -0.3309  0.5962
  204MOL0     C26833  -0.786   2.888   4.556  1.3820 -0.1785 -0.3964
  204MOL0     C26834  -0.830   2.766   4.631 -0.5133 -0.0393  0.1863
  204MOL0     C26835  -0.984   2.749   4.659 -0.6271  0.1288 -0.0317
  204MOL0     C26836  -1.064   2.730   4.533 -0.2158 -0.9120 -0.2724
  204MOL0     C26837  -1.211   2.731   4.564 -0.6739 -0.2836 -0.1942
  204MOL0     C26838  -1.278   2.699   4.428 -0.3508 -0.0560 -0.4316
  204MOL0     C26839  -1.424   2.750   4.438  0.7746 -0.1993  0.6990
  204MOL0    Cl26840  -1.431   2.926   4.427 -0.0572  0.1219  0.1449
  204MOL0     C26841  -0.406   3.108   4.376  0.4141  0.3200 -0.2126
  204MOL0     C26842  -0.264   3.145   4.367 -0.4860  0.1835 -0.1175
  204MOL0     O26843   0.010   2.934   4.568  0.5171  0.6409 -0.5805
  204MOL0     C26844   0.265   2.992   4.631 -0.1471 -0.7111 -0.0333
  204MOL0     C26845   0.403   3.013   4.639  0.1092 -0.1648  0.2506
  204MOL0     N26846   0.892   2.721   4.597  0.1098  0.2166  0.5559
  204MOL0     N26847   0.926   2.611   4.562  0.0285  1.2032 -0.1878
  204MOL0     C26848   2.082   2.308   4.701 -0.2855 -0.7783  0.3017
  204MOL0     C26849   2.215   2.356   4.735  0.4337  0.8171 -0.0395
  204MOL0     C26850   2.586   2.373   4.909  0.6385 -0.4084 -0.0611
  204MOL0     C26851   2.699   2.281   4.933  0.5399 -0.4060  0.6442
  204MOL0     C26852   2.828   2.333   4.938 -0.0733  0.6508  0.4586
  204MOL0     C26853   2.853   2.465   4.909 -1.5472 -0.9595 -0.0204
  204MOL0     O26854   2.982   2.514   4.893 -0.4344  0.5998 -0.3482
  204MOL0     C26855   3.062   2.433   4.803  0.2468  0.1852  0.0078
  204MOL0     C26856   3.196   2.497   4.778  0.0819 -0.9642  0.3936
  204MOL0     C26857   3.184   2.649   4.761 -0.1620 -0.3854  0.1957
  204MOL0     C26858   3.211   2.728   4.887  0.5019  0.3764  0.4144
  204MOL0     C26859   3.356   2.741   4.875  0.7333 -0.1810  0.5997
  204MOL0     C26860   3.471   2.771   4.868 -0.3157 -0.3073  0.0283
  204MOL0     C26861   2.754   2.551   4.877  0.1101 -0.3659  0.1156
  204MOL0     C26862   2.612   2.509   4.887 -0.4704  0.2192  0.5117
  204MOL0     H26863   2.147   2.420   5.062 -0.6074  1.1209 -0.0355
  204MOL0     H26864   1.919   2.363   4.995 -0.9723 -0.5053  0.0293
  204MOL0     H26865   1.840   2.363   4.575  0.6299  1.3306  1.8837
  204MOL0     H26866   1.801   2.446   4.727 -2.2142  0.9025  0.4183
  204MOL0     H26867   1.589   2.331   4.732 -1.0874  1.4948 -1.9529
  204MOL0     H26868   1.661   2.187   4.652 -0.0474 -0.9241 -3.6888
  204MOL0     H26869   1.619   2.259   4.438 -0.7755 -0.6340 -1.0360
  204MOL0     H26870   1.616   2.429   4.481  1.4265 -1.0674 -0.3365
  204MOL0     H26871   1.385   2.218   4.539 -0.0366 -0.4720  0.3226
  204MOL0     H26872   1.407   2.374   4.624 -0.5848 -0.9040 -0.5710
  204MOL0     H26873   1.355   2.330   4.330 -1.3879 -1.5720  0.0250
  204MOL0     H26874   1.376   2.489   4.417 -0.7361 -0.3137 -1.6907
  204MOL0     H26875   1.171   2.408   4.550 -2.5480 -0.5453 -0.5283
  204MOL0     H26876   1.168   2.278   4.438 -2.9925  1.0425 -2.9244
  204MOL0     H26877   1.147   2.570   4.347 -2.3575  0.1517 -0.8259
  204MOL0     H26878   1.157   2.435   4.239  2.8511  0.3808  0.9687
  204MOL0     H26879   0.946   2.372   4.421  2.8164  1.7948  4.7215
  204MOL0     H26880   0.917   2.452   4.269 -0.2357 -3.1449  1.2500
  204MOL0     H26881   0.888   2.733   4.272  1.1821  1.8886  0.1508
  204MOL0     H26882   0.929   2.982   4.413 -1.3598  0.9349  0.8181
  204MOL0     H26883   0.884   2.972   4.570 -0.4055  0.7197  0.2496
  204MOL0     H26884   0.643   2.923   4.472 -0.5883 -1.4084 -1.8105
  204MOL0     H26885   0.713   2.899   4.320 -2.2735 -2.1534  1.7086
  204MOL0     H26886   0.787   3.148   4.314  2.0119  0.1082  1.1606
  204MOL0     H26887   0.617   3.122   4.311  0.8572  0.8667  0.1584
  204MOL0     H26888   0.663   3.294   4.476  0.1200  0.0218  2.1437
  204MOL0     H26889   0.798   3.203   4.530 -0.7555  3.7564 -1.0800
  204MOL0     H26890   0.448   3.261   4.425  2.4183 -2.9671 -0.1661
  204MOL0     H26891   0.207   3.226   4.385  0.7701 -0.1360 -0.7525
  204MOL0     H26892  -0.183   3.034   4.677  0.0538  0.7360 -0.0023
  204MOL0     H26893  -0.419   2.968   4.679  0.1370 -0.1101  0.1171
  204MOL0     H26894  -0.632   2.964   4.673  1.2545  2.1899 -0.6606
  204MOL0     H26895  -0.574   2.830   4.557  3.2969  2.6002 -3.0879
  204MOL0     H26896  -0.804   2.881   4.448  0.4274 -2.5789 -0.1491
  204MOL0     H26897  -0.843   2.974   4.594  1.8840 -0.0132 -0.0122
  204MOL0     H26898  -0.793   2.761   4.734  2.1072  1.6643 -0.5791
  204MOL0     H26899  -0.787   2.674   4.590 -0.9105 -1.2571  2.3239
  204MOL0     H26900  -0.997   2.658   4.718 -1.0064  1.4603  2.0557
  204MOL0     H26901  -1.027   2.824   4.726 -2.2846 -2.4246  1.9501
  204MOL0     H26902  -1.020   2.639   4.492  0.5936 -1.4198  1.5886
  204MOL0     H26903  -1.039   2.813   4.467  0.5513 -0.9789 -0.0762
  204MOL0     H26904  -1.245   2.824   4.608  0.3430  0.5646 -1.1218
  204MOL0     H26905  -1.237   2.649   4.632  1.5265 -1.6741 -0.9076
  204MOL0     H26906  -1.222   2.744   4.346  1.4695 -1.2122  0.1120
  204MOL0     H26907  -1.267   2.591   4.410  0.5922  0.2724 -1.9689
  204MOL0     H26908  -1.469   2.719   4.533 -0.3528  1.5503  0.7819
  204MOL0     H26909  -1.484   2.709   4.357  2.9252 -3.0327  0.3847
  204MOL0     H26910  -0.478   3.127   4.297 -1.3355  0.6532  1.4004
  204MOL0     H26911  -0.219   3.200   4.285  0.2745 -1.7924 -1.0772
  204MOL0     H26912   0.221   2.910   4.688 -0.1203 -1.2396 -0.7502
  204MOL0     H26913   0.461   2.960   4.713  1.6716 -0.5437 -1.1909
  204MOL0     H26914   2.067   2.270   4.600 -3.4424 -0.8368  0.6771
  204MOL0     H26915   2.295   2.359   4.662 -0.4361 -0.6110 -1.1075
  204MOL0     H26916   2.693   2.175   4.953  2.0807 -0.3494  1.5609
  204MOL0     H26917   2.913   2.269   4.959  0.8947  1.7847  0.1522
  204MOL0     H26918   3.005   2.435   4.709  2.6371  3.8473 -1.5735
  204MOL0     H26919   3.081   2.339   4.855  0.2348 -1.5714 -2.9392
  204MOL0     H26920   3.261   2.465   4.860  0.0732 -3.8695 -0.5968
  204MOL0     H26921   3.220   2.466   4.676 -1.0721  1.2312 -0.6013
  204MOL0     H26922   3.083   2.671   4.725  0.3018  1.4052 -0.1109
  204MOL0     H26923   3.253   2.674   4.679  0.9394  0.0119  1.2134
  204MOL0     H26924   3.165   2.826   4.880 -1.8858 -0.7640 -1.3152
  204MOL0     H26925   3.177   2.671   4.975  1.3913 -1.6240 -0.4621
  204MOL0     H26926   3.573   2.799   4.879 -0.9015  1.2518  2.1167
  204MOL0     H26927   2.794   2.649   4.853 -2.0882  1.8773  4.4866
  204MOL0     H26928   2.544   2.585   4.848  3.5324  2.7421 -2.3692
  205MOL0     O26929   8.082   3.409   6.722  0.2428  0.1181  0.4545
  205MOL0     C26930   8.184   3.401   6.790 -0.4289 -0.1379  0.0135
  205MOL0     O26931   8.186   3.414   6.921 -0.0062  0.5436 -0.4559
  205MOL0     C26932   8.063   3.453   6.980 -0.4206  0.4080 -0.6329
  205MOL0     C26933   8.017   3.372   7.084  0.1053 -0.8030 -0.4072
  205MOL0     C26934   7.897   3.405   7.149 -1.3980 -0.1010  0.7112
  205MOL0     C26935   7.827   3.526   7.126  0.1925 -0.5157  0.2996
  205MOL0     O26936   7.718   3.558   7.193 -0.2030  0.6302  0.0674
  205MOL0     C26937   7.594   3.560   7.122  0.7706 -0.4214 -0.2931
  205MOL0     C26938   7.491   3.614   7.224 -0.9643  1.0357 -0.3686
  205MOL0     C26939   7.345   3.620   7.183 -0.0993  0.0587 -0.7364
  205MOL0     C26940   7.269   3.684   7.301 -0.5448  0.3089 -0.3899
  205MOL0     C26941   7.121   3.709   7.265 -0.4385 -0.0287  0.1399
  205MOL0     C26942   7.040   3.748   7.388 -0.2462 -0.1027  0.0650
  205MOL0     C26943   6.885   3.770   7.349 -0.1099 -0.5483 -0.4575
  205MOL0     C26944   6.820   3.832   7.470  0.1478  0.4093 -0.8190
  205MOL0     N26945   6.669   3.828   7.461 -0.1934  0.0840 -0.2447
  205MOL0     C26946   6.585   3.934   7.419 -1.1756  0.1978 -0.1399
  205MOL0     C26947   6.460   3.901   7.452 -0.5409 -0.3311 -0.6303
  205MOL0     C26948   6.338   3.974   7.406 -0.0379 -0.1226  0.2058
  205MOL0     C26949   6.216   3.908   7.474  0.2719  0.4879  1.3704
  205MOL0     C26950   6.090   3.962   7.405 -0.6664  0.3358 -1.4417
  205MOL0     C26951   5.958   3.902   7.455 -0.6170  0.7725 -0.1448
  205MOL0     O26952   5.857   3.962   7.372  0.0623 -0.1379 -0.4259
  205MOL0     C26953   5.734   3.921   7.399  1.7438 -0.4161 -0.3012
  205MOL0     C26954   5.628   4.002   7.354 -0.0144 -0.1748  0.0525
  205MOL0     C26955   5.491   3.978   7.389 -0.4835 -0.1804  0.4892
  205MOL0     C26956   5.462   3.865   7.466 -0.3295  0.3212  0.8767
  205MOL0     C26957   5.327   3.839   7.518  0.6620  0.3801 -0.3701
  205MOL0     O26958   5.232   3.929   7.477 -0.1607 -0.2611  0.7448
  205MOL0     C26959   5.097   3.917   7.516 -0.4205 -0.6887 -0.6233
  205MOL0     C26960   4.998   3.961   7.427  0.2133  0.4969  1.2303
  205MOL0     C26961   4.863   3.957   7.460  0.1058 -0.2359 -0.4488
  205MOL0     C26962   4.825   3.920   7.585 -0.0772  0.0238 -0.1756
  205MOL0     O26963   4.704   3.934   7.634  0.0085  0.3687 -0.6492
  205MOL0     C26964   4.588   3.909   7.559  0.1306 -0.8797 -0.1532
  205MOL0     C26965   4.464   3.894   7.637  0.5174  0.4450  0.5159
  205MOL0     C26966   4.361   3.981   7.580  1.2709 -0.8567  0.4133
  205MOL0     C26967   4.235   3.944   7.658  0.5726 -0.9351 -0.5937
  205MOL0     C26968   4.105   4.011   7.604  0.6886 -0.5012 -0.3235
  205MOL0     C26969   3.987   3.988   7.706 -0.4369  0.3935 -0.6263
  205MOL0     C26970   3.863   4.051   7.655 -0.2019  0.6621  0.4002
  205MOL0     C26971   3.737   4.010   7.742 -1.0019 -0.2318  1.1294
  205MOL0    Cl26972   3.703   3.839   7.701 -0.4831  0.5025 -0.0121
  205MOL0     C26973   4.923   3.877   7.678  0.5450 -0.1297  0.1230
  205MOL0     C26974   5.056   3.877   7.643  0.3886  0.2632 -0.1840
  205MOL0     O26975   5.301   3.737   7.584 -0.1615 -0.2117 -0.0644
  205MOL0     C26976   5.569   3.776   7.500  1.2273 -0.1817 -0.4012
  205MOL0     C26977   5.695   3.808   7.468 -0.4688  0.1599  0.4120
  205MOL0     N26978   6.471   3.788   7.530 -0.3169  0.8402  1.0047
  205MOL0     N26979   6.596   3.741   7.535 -0.2917 -0.4154  0.0600
  205MOL0     C26980   7.882   3.612   7.027  0.6847 -0.0034 -0.6161
  205MOL0     C26981   7.995   3.573   6.954 -0.1150 -0.2024  0.7179
  205MOL0     C26982   8.318   3.389   6.731 -0.8950  1.0806  0.0673
  205MOL0     C26983   8.328   3.312   6.610 -0.1962 -0.4247  0.3315
  205MOL0     C26984   8.450   3.282   6.554 -0.2854  0.5369 -0.8595
  205MOL0     C26985   8.566   3.326   6.618  0.3776 -0.0198 -0.6315
  205MOL0     O26986   8.680   3.275   6.560 -0.6846 -0.3561  0.7636
  205MOL0     C26987   8.810   3.315   6.595 -0.0600 -1.1649 -0.7688
  205MOL0     C26988   8.899   3.207   6.544  0.3928 -0.1497 -0.4442
  205MOL0     C26989   9.041   3.209   6.597 -1.4815  0.2741 -1.2445
  205MOL0     C26990   9.133   3.111   6.522  0.0051 -0.0035  0.0860
  205MOL0     C26991   9.129   3.141   6.380  0.4648  0.0242  0.2269
  205MOL0     C26992   9.120   3.163   6.263  0.4691  0.3458  1.0692
  205MOL0     C26993   8.555   3.400   6.733  0.4686 -0.1505  0.1103
  205MOL0     C26994   8.437   3.426   6.796 -0.0784 -0.0564 -0.2597
  205MOL0     H26995   8.074   3.282   7.104  2.1481  0.6395  0.6745
  205MOL0     H26996   7.856   3.339   7.224  0.3026 -3.1017 -0.7732
  205MOL0     H26997   7.575   3.458   7.086  0.2739 -0.1141 -0.9269
  205MOL0     H26998   7.591   3.624   7.033 -1.6847 -0.6867 -0.4581
  205MOL0     H26999   7.519   3.712   7.265  0.7239  1.9958 -3.4649
  205MOL0     H27000   7.501   3.543   7.306  0.1508 -1.2257 -2.3527
  205MOL0     H27001   7.307   3.521   7.158 -0.5520  0.0568 -0.0672
  205MOL0     H27002   7.353   3.678   7.090  0.1195  0.0467 -0.7260
  205MOL0     H27003   7.276   3.621   7.390 -0.1190  0.1435 -0.5339
  205MOL0     H27004   7.302   3.786   7.322 -1.2430  0.8166 -1.6587
  205MOL0     H27005   7.086   3.625   7.204 -0.8789  0.9941 -1.0589
  205MOL0     H27006   7.125   3.792   7.194  0.1189 -1.4715 -1.5906
  205MOL0     H27007   7.076   3.844   7.427  0.3618 -0.8984  1.5387
  205MOL0     H27008   7.043   3.676   7.471  0.3750  0.0544  0.1814
  205MOL0     H27009   6.882   3.850   7.274  3.0846 -1.1069 -1.3286
  205MOL0     H27010   6.833   3.681   7.312  0.6010 -0.8849 -0.6556
  205MOL0     H27011   6.845   3.938   7.485  2.5271 -0.2820  0.5610
  205MOL0     H27012   6.843   3.767   7.555 -3.5411 -0.0595 -0.0283
  205MOL0     H27013   6.605   4.011   7.346 -1.4283  0.1699 -0.2402
  205MOL0     H27014   6.329   3.968   7.297 -0.9855 -1.8178  0.3526
  205MOL0     H27015   6.339   4.080   7.431  0.1591 -0.0509 -0.0985
  205MOL0     H27016   6.214   3.919   7.582 -1.2632 -0.8966  1.5273
  205MOL0     H27017   6.208   3.802   7.446  0.8066  0.6470  0.5796
  205MOL0     H27018   6.075   4.070   7.408 -0.7325  0.2982  0.7665
  205MOL0     H27019   6.107   3.933   7.301  1.2514 -1.5036 -0.7017
  205MOL0     H27020   5.936   3.921   7.561  0.1985  2.1877 -0.2042
  205MOL0     H27021   5.955   3.794   7.439  0.1015  0.9826 -1.8237
  205MOL0     H27022   5.642   4.095   7.301 -0.8239  1.4157  2.4440
  205MOL0     H27023   5.418   4.055   7.364  1.8589  0.7929 -4.4763
  205MOL0     H27024   5.031   3.999   7.331 -0.3296  3.8800  2.2466
  205MOL0     H27025   4.790   3.996   7.389 -1.6447  0.0151  1.4051
  205MOL0     H27026   4.590   3.822   7.494 -2.4363 -0.4058 -0.9873
  205MOL0     H27027   4.587   3.996   7.492  1.0054 -0.9954 -0.3349
  205MOL0     H27028   4.493   3.926   7.737  2.8572  2.4817 -0.7012
  205MOL0     H27029   4.432   3.790   7.645  0.1607  0.6921  2.9199
  205MOL0     H27030   4.346   3.969   7.472  0.1393 -1.1755  0.5942
  205MOL0     H27031   4.387   4.086   7.600 -0.3521  0.1153 -2.1227
  205MOL0     H27032   4.221   3.836   7.668  1.1502 -0.9836 -0.2517
  205MOL0     H27033   4.247   3.977   7.761 -1.1459 -2.6237  0.2057
  205MOL0     H27034   4.094   3.976   7.501  0.1845 -1.5382  0.0699
  205MOL0     H27035   4.124   4.119   7.604 -0.5718 -0.2460  0.6499
  205MOL0     H27036   4.015   4.037   7.800  1.0075 -2.1574  0.3649
  205MOL0     H27037   3.985   3.881   7.729 -2.0749  0.8502  1.6793
  205MOL0     H27038   3.867   4.160   7.670 -0.1958  0.7061  0.0846
  205MOL0     H27039   3.854   4.012   7.553  1.0264  0.9904  0.1499
  205MOL0     H27040   3.655   4.072   7.705  0.6936  1.7453  0.4820
  205MOL0     H27041   3.752   4.025   7.849 -0.5243  1.3604  0.8674
  205MOL0     H27042   4.888   3.858   7.779  1.6545  0.4760  0.6455
  205MOL0     H27043   5.134   3.851   7.715  1.2818 -0.9750 -1.5363
  205MOL0     H27044   5.560   3.687   7.563 -0.2359  0.6466  0.6138
  205MOL0     H27045   5.763   3.738   7.515 -1.8010 -0.1566  1.9395
  205MOL0     H27046   7.820   3.701   7.032 -0.7462 -0.9883 -0.3505
  205MOL0     H27047   8.016   3.626   6.862  0.0211 -0.7635  0.4221
  205MOL0     H27048   8.236   3.275   6.566 -2.0382  1.0733  2.6587
  205MOL0     H27049   8.460   3.223   6.464 -2.3045  1.6201 -1.8663
  205MOL0     H27050   8.812   3.324   6.704  2.3654  1.4865 -0.9085
  205MOL0     H27051   8.852   3.410   6.561  0.7663 -1.1017  0.3611
  205MOL0     H27052   8.861   3.107   6.562  1.4409 -0.4095  0.4153
  205MOL0     H27053   8.893   3.218   6.435 -1.1597 -2.6790 -0.6770
  205MOL0     H27054   9.052   3.178   6.701  2.2633  1.7881 -1.0407
  205MOL0     H27055   9.075   3.313   6.597 -1.0740  0.1476 -0.3249
  205MOL0     H27056   9.228   3.133   6.570 -0.9432  0.3033  1.8891
  205MOL0     H27057   9.103   3.007   6.535 -3.1675  1.0974  2.9611
  205MOL0     H27058   9.124   3.179   6.158  0.8746  0.2943  1.0741
  205MOL0     H27059   8.640   3.436   6.790 -0.1007 -0.2661  1.0613
  205MOL0     H27060   8.436   3.484   6.888  2.2816 -0.7062  0.2439
  206MOL0     O27061   6.238   0.483   0.563  0.0146 -0.8529 -0.3602
  206MOL0     C27062   6.262   0.367   0.583 -0.5651  0.0964 -0.1957
  206MOL0     O27063   6.173   0.276   0.614  0.0555  0.9529 -0.3084
  206MOL0     C27064   6.033   0.301   0.625 -1.2453  0.4721 -0.0855
  206MOL0     C27065   5.971   0.196   0.690 -0.5522  0.8835 -0.8405
  206MOL0     C27066   5.831   0.184   0.697 -0.5012  0.0900 -0.3349
  206MOL0     C27067   5.758   0.298   0.661 -0.2181 -1.3446  0.2120
  206MOL0     O27068   5.624   0.313   0.672 -0.8594  0.5900 -0.1681
  206MOL0     C27069   5.556   0.267   0.787 -0.1056 -0.5434 -0.1741
  206MOL0     C27070   5.421   0.225   0.734  0.1712 -0.3494  0.1913
  206MOL0     C27071   5.356   0.349   0.673  0.9930 -0.3647  0.4958
  206MOL0     C27072   5.215   0.313   0.635  0.0908 -0.5710  0.1873
  206MOL0     C27073   5.126   0.438   0.606  0.2989  0.2673  0.0118
  206MOL0     C27074   4.982   0.413   0.558  0.3417  0.6637 -0.0634
  206MOL0     C27075   4.880   0.518   0.601  0.4516  0.0338 -0.1317
  206MOL0     C27076   4.765   0.525   0.499  0.7256 -0.7476 -0.2865
  206MOL0     N27077   4.662   0.438   0.561 -0.3786 -0.4317 -0.7488
  206MOL0     C27078   4.575   0.474   0.659 -0.0692 -0.3661 -0.5774
  206MOL0     C27079   4.493   0.359   0.674 -0.2329  0.1707  0.2859
  206MOL0     C27080   4.375   0.331   0.765  0.1220  0.0316 -0.3745
  206MOL0     C27081   4.253   0.415   0.721  0.2706  0.0970  0.1021
  206MOL0     C27082   4.130   0.400   0.823  0.2106  0.1171 -0.2340
  206MOL0     C27083   4.003   0.466   0.763  0.1260  0.7960 -0.3330
  206MOL0     O27084   3.950   0.385   0.665  0.3097 -0.3551 -0.0521
  206MOL0     C27085   3.821   0.349   0.698 -0.2049  0.3273 -0.1862
  206MOL0     C27086   3.800   0.223   0.745 -0.5613 -0.3370  0.7041
  206MOL0     C27087   3.671   0.187   0.784  0.6476 -0.2224  0.6729
  206MOL0     C27088   3.563   0.279   0.795 -0.1015 -0.1595 -0.1181
  206MOL0     C27089   3.427   0.250   0.845 -0.4898 -0.0950 -0.3708
  206MOL0     O27090   3.348   0.355   0.881 -0.3214 -0.3210 -0.6458
  206MOL0     C27091   3.214   0.335   0.897  0.2686  0.1024  0.0730
  206MOL0     C27092   3.135   0.231   0.849  0.5844  0.3738  0.1229
  206MOL0     C27093   2.997   0.222   0.885  0.0446  0.9822  0.5016
  206MOL0     C27094   2.937   0.312   0.968  0.7797 -0.7930 -0.0943
  206MOL0     O27095   2.808   0.313   1.009 -0.3976 -0.1537 -0.0665
  206MOL0     C27096   2.719   0.206   0.991  0.7873 -0.7168  0.5184
  206MOL0     C27097   2.598   0.218   1.082 -0.0041 -0.4148  0.0206
  206MOL0     C27098   2.490   0.112   1.069 -1.0441 -0.3328  0.5105
  206MOL0     C27099   2.364   0.160   1.142  0.6971  0.2810 -0.6995
  206MOL0     C27100   2.266   0.047   1.155  0.1486 -0.2403 -0.7406
  206MOL0     C27101   2.167   0.072   1.272 -0.5083 -0.6446 -0.1194
  206MOL0     C27102   2.060  -0.044   1.265  0.3054 -0.1062 -0.7847
  206MOL0     C27103   1.948  -0.020   1.365 -0.5514 -0.2717 -0.4795
  206MOL0    Cl27104   1.843  -0.157   1.366  0.2856 -0.7190 -0.0201
  206MOL0     C27105   3.021   0.416   1.022 -0.7923 -0.5658 -1.1013
  206MOL0     C27106   3.155   0.429   0.981 -0.2359 -0.1976  0.2784
  206MOL0     O27107   3.410   0.132   0.869 -0.1463  0.3232  0.7383
  206MOL0     C27108   3.588   0.413   0.752 -0.6821 -0.3832 -0.1160
  206MOL0     C27109   3.722   0.447   0.711 -0.0566  0.0931  0.3564
  206MOL0     N27110   4.539   0.264   0.594  0.0940 -0.4744  0.4543
  206MOL0     N27111   4.642   0.311   0.518 -0.1101 -0.3191  0.3594
  206MOL0     C27112   5.816   0.412   0.603  0.4778  0.4127  0.1196
  206MOL0     C27113   5.960   0.410   0.588  0.2588  0.3851  0.1102
  206MOL0     C27114   6.407   0.326   0.588  0.7258 -1.0724  0.3522
  206MOL0     C27115   6.457   0.203   0.611  0.3171  0.0752 -0.7056
  206MOL0     C27116   6.593   0.179   0.630 -0.1254 -0.6672 -0.5643
  206MOL0     C27117   6.682   0.280   0.617 -0.4804 -0.1482  0.8664
  206MOL0     O27118   6.818   0.246   0.613  0.2681 -0.3368  0.4799
  206MOL0     C27119   6.903   0.349   0.562 -0.3714 -0.2689  0.7776
  206MOL0     C27120   7.035   0.272   0.528  0.4764  0.5661 -0.7050
  206MOL0     C27121   7.116   0.257   0.656 -0.9814 -0.5050 -0.0481
  206MOL0     C27122   7.257   0.209   0.621  0.5474 -0.1644 -0.1473
  206MOL0     C27123   7.257   0.091   0.541 -0.5947 -0.6158  0.2051
  206MOL0     C27124   7.271   0.004   0.453 -0.6156 -0.5507  0.2937
  206MOL0     C27125   6.636   0.410   0.601  0.2755 -0.1756  1.3970
  206MOL0     C27126   6.502   0.430   0.585  0.3322 -0.0779  0.2434
  206MOL0     H27127   6.030   0.108   0.715  0.8552  0.7178 -4.1078
  206MOL0     H27128   5.779   0.096   0.735  1.6922 -2.7363 -3.2989
  206MOL0     H27129   5.552   0.356   0.851  0.1098 -0.4380 -0.3051
  206MOL0     H27130   5.601   0.179   0.833  0.8009  0.7227  1.4871
  206MOL0     H27131   5.368   0.183   0.820 -2.7504 -0.0171 -1.3578
  206MOL0     H27132   5.425   0.149   0.655  1.3521  0.9446 -1.0468
  206MOL0     H27133   5.404   0.384   0.581 -0.9259  1.7043  0.2003
  206MOL0     H27134   5.365   0.431   0.745 -1.4349  0.1816  0.2603
  206MOL0     H27135   5.212   0.238   0.556  1.2988 -0.8332  0.3618
  206MOL0     H27136   5.160   0.271   0.720  0.8004 -0.5153  0.6834
  206MOL0     H27137   5.185   0.505   0.542  0.6082 -1.0144 -1.0834
  206MOL0     H27138   5.126   0.481   0.707  1.0329  0.1506  0.0672
  206MOL0     H27139   4.941   0.322   0.602  2.4334  0.7118  2.2152
  206MOL0     H27140   4.985   0.400   0.450  2.2936  2.6389 -0.3401
  206MOL0     H27141   4.850   0.488   0.702 -0.4266 -0.3215 -0.4801
  206MOL0     H27142   4.925   0.617   0.607  0.6870  0.0162 -1.3163
  206MOL0     H27143   4.782   0.499   0.394 -3.1989  0.2818 -1.3689
  206MOL0     H27144   4.719   0.624   0.506  0.9400 -0.7695  2.9466
  206MOL0     H27145   4.566   0.572   0.704  0.1464 -1.1132  1.2010
  206MOL0     H27146   4.407   0.363   0.864  1.1926  1.9345 -1.2631
  206MOL0     H27147   4.348   0.225   0.766 -1.2197  0.3422  1.8180
  206MOL0     H27148   4.225   0.380   0.621 -0.2669 -0.7658  0.5484
  206MOL0     H27149   4.276   0.521   0.706 -1.0887  0.3497 -0.3352
  206MOL0     H27150   4.106   0.294   0.836 -2.5891  0.9643  2.7276
  206MOL0     H27151   4.150   0.440   0.923 -3.7102 -0.9897  1.1819
  206MOL0     H27152   4.033   0.560   0.714 -1.2487  1.4606  0.0723
  206MOL0     H27153   3.943   0.490   0.851  1.0274  3.2093 -0.2776
  206MOL0     H27154   3.878   0.148   0.755 -0.6324 -0.0989  3.7467
  206MOL0     H27155   3.657   0.085   0.819  1.9799 -0.6628 -0.0191
  206MOL0     H27156   3.174   0.152   0.785 -3.4185 -0.9436 -1.0100
  206MOL0     H27157   2.945   0.146   0.826 -0.9227  2.0946 -0.1191
  206MOL0     H27158   2.774   0.115   1.016  1.5433 -1.1877 -2.4806
  206MOL0     H27159   2.679   0.202   0.889 -2.5177  1.1274  1.5855
  206MOL0     H27160   2.558   0.318   1.060 -1.1565 -0.7700  0.4169
  206MOL0     H27161   2.634   0.215   1.185  0.3739 -2.0142 -0.1311
  206MOL0     H27162   2.513   0.013   1.109 -3.5613 -1.5129 -0.7296
  206MOL0     H27163   2.460   0.096   0.965  0.9490 -0.9520 -0.0023
  206MOL0     H27164   2.390   0.198   1.241 -3.1165 -0.4007  0.7514
  206MOL0     H27165   2.318   0.242   1.086  1.6707  0.7318 -0.8511
  206MOL0     H27166   2.314  -0.051   1.164  1.7558  0.5223 -0.5944
  206MOL0     H27167   2.197   0.042   1.070 -0.5195 -2.0059 -0.1322
  206MOL0     H27168   2.114   0.167   1.261 -1.6032 -1.2759 -0.5638
  206MOL0     H27169   2.225   0.062   1.364  0.9423 -0.8506 -1.0312
  206MOL0     H27170   2.017  -0.063   1.165 -1.6122 -1.0896  0.1701
  206MOL0     H27171   2.109  -0.136   1.297 -0.6807 -0.3086  0.1914
  206MOL0     H27172   1.898   0.071   1.330 -0.6497 -0.5943 -1.1667
  206MOL0     H27173   1.975  -0.010   1.471 -1.2271  2.5692 -0.4860
  206MOL0     H27174   2.983   0.499   1.081  1.6621  0.5376 -0.9550
  206MOL0     H27175   3.216   0.497   1.039 -1.8905  0.6525  1.0610
  206MOL0     H27176   3.507   0.484   0.761 -0.8577 -0.2766 -2.1066
  206MOL0     H27177   3.753   0.548   0.686  4.0753 -0.4974  2.2844
  206MOL0     H27178   5.752   0.490   0.562  0.2882  1.0425  1.5169
  206MOL0     H27179   5.995   0.496   0.532 -0.8163 -0.4233 -1.9169
  206MOL0     H27180   6.392   0.117   0.620 -1.2823  1.3329  0.4372
  206MOL0     H27181   6.622   0.080   0.663 -0.4522  0.0887  2.2517
  206MOL0     H27182   6.926   0.439   0.618  0.4154 -0.3832  0.6515
  206MOL0     H27183   6.857   0.386   0.470 -0.8554  3.5192  2.3853
  206MOL0     H27184   7.014   0.176   0.481 -0.1016 -0.9209  2.3520
  206MOL0     H27185   7.082   0.334   0.451 -2.8412 -0.3410 -3.6828
  206MOL0     H27186   7.073   0.184   0.725  0.6605 -0.8478  0.6610
  206MOL0     H27187   7.123   0.359   0.696  1.7543 -0.0057 -1.5239
  206MOL0     H27188   7.308   0.294   0.576  1.0202  0.3522  1.3173
  206MOL0     H27189   7.305   0.175   0.713  0.7512 -0.8481 -0.5057
  206MOL0     H27190   7.280  -0.068   0.375  0.6226  1.3540 -1.4198
  206MOL0     H27191   6.706   0.492   0.591  2.1144 -1.5512  2.4114
  206MOL0     H27192   6.479   0.536   0.572 -0.3270 -0.1099  1.0732
  207MOL0     O27193  10.355   6.111   2.624  0.6007  0.0347 -0.2376
  207MOL0     C27194  10.366   6.007   2.694 -0.2198  0.5788  1.2991
  207MOL0     O27195  10.480   5.965   2.755  0.3360  0.1478 -0.4754
  207MOL0     C27196  10.603   6.029   2.743 -0.8931 -0.1724  0.5107
  207MOL0     C27197  10.660   6.071   2.623  0.7287 -0.6664 -0.1585
  207MOL0     C27198  10.788   6.125   2.608 -1.3845 -0.6915  0.0170
  207MOL0     C27199  10.867   6.147   2.720 -0.7946  0.8915 -0.0709
  207MOL0     O27200  10.970   6.242   2.721 -0.1627 -0.1154  0.3732
  207MOL0     C27201  11.090   6.216   2.799  0.0374 -0.3103  0.2799
  207MOL0     C27202  11.206   6.281   2.741 -0.1964 -0.2591  0.1517
  207MOL0     C27203  11.210   6.433   2.760  0.0297 -0.0860  0.8334
  207MOL0     C27204  11.342   6.504   2.752 -0.2073  0.5676 -0.8651
  207MOL0     C27205  11.326   6.650   2.778 -0.0323  0.2380 -0.5484
  207MOL0     C27206  11.449   6.735   2.744  0.4230 -0.7195  1.1285
  207MOL0     C27207  11.566   6.712   2.839 -0.3572  0.6423 -0.2645
  207MOL0     C27208  11.695   6.788   2.791 -0.1196  0.6187  0.5446
  207MOL0     N27209  11.703   6.914   2.861 -0.9767 -0.6690  0.3945
  207MOL0     C27210  11.651   7.030   2.817  0.8439 -1.0818  0.3096
  207MOL0     C27211  11.671   7.119   2.920  0.5051  0.2846  0.3369
  207MOL0     C27212  11.625   7.261   2.931  0.0875 -1.0714  0.5745
  207MOL0     C27213  11.675   7.338   2.809  0.0594 -0.8516  0.2267
  207MOL0     C27214  11.634   7.481   2.808  0.7745 -0.3745 -0.6593
  207MOL0     C27215  11.519   7.492   2.712  0.8173 -0.3938  0.0284
  207MOL0     O27216  11.404   7.429   2.777  0.2580 -0.0298  0.6979
  207MOL0     C27217  11.282   7.426   2.716 -0.2887  0.0325 -0.1423
  207MOL0     C27218  11.187   7.372   2.798  0.1542  0.3998  0.3456
  207MOL0     C27219  11.056   7.357   2.754  0.5562 -0.2607  0.0433
  207MOL0     C27220  11.010   7.421   2.634  0.5353  0.3617 -1.6337
  207MOL0     C27221  10.870   7.410   2.579 -0.8153 -0.1372  0.2242
  207MOL0     O27222  10.780   7.382   2.680  0.5579 -0.1702 -0.5029
  207MOL0     C27223  10.655   7.396   2.654 -0.0762 -0.2631  0.2361
  207MOL0     C27224  10.590   7.526   2.642 -0.1949  0.0177  0.4230
  207MOL0     C27225  10.448   7.533   2.633 -0.0049  0.4497  0.3113
  207MOL0     C27226  10.370   7.413   2.621  0.7207  0.8218  0.2365
  207MOL0     O27227  10.230   7.428   2.609 -0.5444 -0.1150 -0.7868
  207MOL0     C27228  10.145   7.313   2.600 -0.1897 -0.8441 -0.0288
  207MOL0     C27229  10.012   7.368   2.557 -0.6031 -0.8045  0.2566
  207MOL0     C27230   9.893   7.280   2.584 -1.0663  0.6642  0.0514
  207MOL0     C27231   9.776   7.349   2.529 -1.0252  0.1128 -0.0828
  207MOL0     C27232   9.652   7.293   2.589  0.4482  0.5649 -0.7127
  207MOL0     C27233   9.524   7.344   2.516 -0.4804 -0.5036  0.1557
  207MOL0     C27234   9.509   7.494   2.531 -0.2227  0.2420 -1.1039
  207MOL0     C27235   9.418   7.555   2.429  0.1508 -0.0633 -0.2245
  207MOL0    Cl27236   9.367   7.718   2.502  0.1945 -0.1175  0.0826
  207MOL0     C27237  10.434   7.291   2.663  0.0266  0.1405 -0.4779
  207MOL0     C27238  10.575   7.286   2.671  0.1401  0.0687  0.4369
  207MOL0     O27239  10.848   7.431   2.464  0.8975 -0.1676  1.3602
  207MOL0     C27240  11.109   7.470   2.556 -0.0423 -0.5492  1.0779
  207MOL0     C27241  11.237   7.482   2.586  0.0172  0.2031  0.7262
  207MOL0     N27242  11.739   7.056   3.027  0.3678 -0.2225  0.5258
  207MOL0     N27243  11.755   6.935   2.985 -0.0913 -0.1852  0.1745
  207MOL0     C27244  10.808   6.110   2.842  0.1849 -0.0545  0.1409
  207MOL0     C27245  10.683   6.048   2.856 -0.6111 -0.0278  0.1417
  207MOL0     C27246  10.241   5.925   2.700  0.0768  0.4188 -0.5518
  207MOL0     C27247  10.140   5.951   2.610  0.9233  0.2595 -0.4898
  207MOL0     C27248  10.017   5.894   2.635  0.7671 -1.2873 -0.0394
  207MOL0     C27249  10.000   5.791   2.721 -0.3185 -0.2350 -0.3902
  207MOL0     O27250   9.878   5.735   2.721 -1.1628 -0.1215 -0.6106
  207MOL0     C27251   9.857   5.597   2.759 -0.2775  0.0531  0.3176
  207MOL0     C27252   9.713   5.565   2.813 -0.5055 -0.6675 -0.3975
  207MOL0     C27253   9.596   5.618   2.728 -1.0930  0.2979  0.2524
  207MOL0     C27254   9.459   5.587   2.783 -0.2928  0.0272 -0.0564
  207MOL0     C27255   9.360   5.587   2.675 -0.3183 -0.6032 -0.1058
  207MOL0     C27256   9.281   5.584   2.583 -0.2288  0.6935 -0.5792
  207MOL0     C27257  10.112   5.744   2.794 -0.2871  0.3438 -0.3366
  207MOL0     C27258  10.229   5.817   2.787 -0.4851 -0.8554  0.3029
  207MOL0     H27259  10.602   6.065   2.531 -0.5349  0.3996  0.5404
  207MOL0     H27260  10.827   6.150   2.510 -2.5109 -2.0195 -0.8127
  207MOL0     H27261  11.096   6.106   2.795 -1.8127 -0.6205  2.8238
  207MOL0     H27262  11.071   6.240   2.904 -2.6001 -1.3609  0.1237
  207MOL0     H27263  11.201   6.264   2.633  2.4805 -0.7926  0.0435
  207MOL0     H27264  11.294   6.240   2.792 -0.9444 -1.5064  0.4917
  207MOL0     H27265  11.167   6.457   2.857  2.6709  1.1279  1.7890
  207MOL0     H27266  11.143   6.475   2.685  2.6584  1.3810 -0.8761
  207MOL0     H27267  11.414   6.461   2.822 -1.9234  0.4506  0.9054
  207MOL0     H27268  11.381   6.482   2.652  0.5146 -0.7951 -0.3124
  207MOL0     H27269  11.299   6.657   2.884  3.4269 -0.0264  0.4548
  207MOL0     H27270  11.246   6.685   2.711  2.1116  0.2708 -3.2709
  207MOL0     H27271  11.428   6.842   2.744 -0.2961 -0.8582  1.1719
  207MOL0     H27272  11.487   6.701   2.648 -0.5991 -1.8857  1.1060
  207MOL0     H27273  11.527   6.745   2.936  1.6462 -0.5982  1.0190
  207MOL0     H27274  11.586   6.605   2.842  0.1146  0.5435 -3.3304
  207MOL0     H27275  11.689   6.820   2.687  0.1436  1.7441  0.8577
  207MOL0     H27276  11.786   6.732   2.815  0.2614  1.1651  0.3963
  207MOL0     H27277  11.599   7.061   2.726  1.6642 -0.6743 -0.0341
  207MOL0     H27278  11.670   7.312   3.016 -0.7931  1.8989 -0.6131
  207MOL0     H27279  11.516   7.267   2.935  0.0986  4.0022 -0.0877
  207MOL0     H27280  11.641   7.287   2.719  1.9964 -0.9695 -0.4844
  207MOL0     H27281  11.783   7.327   2.824 -0.4047 -5.0142  1.7869
  207MOL0     H27282  11.598   7.531   2.898  4.2178  0.4625  0.4365
  207MOL0     H27283  11.715   7.547   2.774 -0.0880  0.6653 -0.7548
  207MOL0     H27284  11.534   7.451   2.612 -1.5845  1.3829 -1.1716
  207MOL0     H27285  11.492   7.598   2.708 -0.2547 -0.3714  3.6655
  207MOL0     H27286  11.216   7.328   2.892 -0.8435  1.7725  1.3405
  207MOL0     H27287  10.986   7.292   2.806 -0.5860  0.4040 -0.6148
  207MOL0     H27288  10.658   7.611   2.644 -1.7101  1.2783  0.3688
  207MOL0     H27289  10.401   7.629   2.613 -1.4196 -0.4568 -0.9896
  207MOL0     H27290  10.149   7.266   2.699  2.0783  1.1095  0.9036
  207MOL0     H27291  10.170   7.241   2.521  1.1006 -1.1670  0.6334
  207MOL0     H27292  10.013   7.404   2.453  1.3551 -1.8773 -0.1539
  207MOL0     H27293   9.997   7.455   2.621  0.6693 -0.4882  0.1523
  207MOL0     H27294   9.892   7.253   2.689 -0.5769  0.1065 -0.0827
  207MOL0     H27295   9.896   7.183   2.533 -3.8012  0.7238 -0.3597
  207MOL0     H27296   9.774   7.456   2.553 -1.4760  0.2139 -0.5431
  207MOL0     H27297   9.772   7.358   2.420  2.1099 -0.5136 -0.3333
  207MOL0     H27298   9.642   7.314   2.696  0.2103  0.3449 -0.6910
  207MOL0     H27299   9.659   7.185   2.576 -0.8372  0.5816 -1.7488
  207MOL0     H27300   9.435   7.294   2.554 -0.3808 -0.4152  0.5077
  207MOL0     H27301   9.529   7.314   2.411  2.1744 -1.7162  0.5345
  207MOL0     H27302   9.467   7.511   2.631  4.9372 -0.3069  1.5131
  207MOL0     H27303   9.605   7.546   2.534 -0.6125  0.9955 -1.3716
  207MOL0     H27304   9.335   7.484   2.429  1.5113 -1.8417  2.8527
  207MOL0     H27305   9.458   7.567   2.327  0.7474 -0.9008 -0.0953
  207MOL0     H27306  10.375   7.202   2.682  2.5555 -0.9326  3.5371
  207MOL0     H27307  10.621   7.193   2.706  1.8550 -0.2038 -2.2775
  207MOL0     H27308  11.076   7.522   2.467 -1.0443 -0.1050  1.6865
  207MOL0     H27309  11.312   7.523   2.519  0.1676  0.3152  0.9580
  207MOL0     H27310  10.859   6.138   2.934  0.9205 -0.6761 -0.0738
  207MOL0     H27311  10.647   6.016   2.954 -1.6602  1.1776  0.1695
  207MOL0     H27312  10.151   6.017   2.525 -0.1145  0.9944 -0.0645
  207MOL0     H27313   9.931   5.917   2.573  1.3822  1.2241 -0.0892
  207MOL0     H27314   9.926   5.558   2.834  2.0012 -1.2780 -2.2985
  207MOL0     H27315   9.858   5.541   2.665 -0.7491  0.3947  0.1072
  207MOL0     H27316   9.695   5.459   2.834  3.6553 -1.7134 -1.3341
  207MOL0     H27317   9.702   5.608   2.914  0.8013 -3.2174  0.9320
  207MOL0     H27318   9.615   5.594   2.623  0.6375  2.9629 -0.1549
  207MOL0     H27319   9.604   5.726   2.716  0.0486  0.2325  0.2603
  207MOL0     H27320   9.456   5.487   2.829 -5.2117  0.7571  1.8747
  207MOL0     H27321   9.427   5.661   2.857 -0.3385 -0.8809  0.8547
  207MOL0     H27322   9.202   5.601   2.513 -0.6222  2.1661  0.2080
  207MOL0     H27323  10.104   5.661   2.864  1.3339  0.0814 -0.4072
  207MOL0     H27324  10.310   5.779   2.847  0.5005 -1.1034 -1.1288
  208MOL0     O27325   2.274   7.784   1.227  0.7946  0.4801  0.2903
  208MOL0     C27326   2.378   7.726   1.201 -0.4408  0.5820 -0.0293
  208MOL0     O27327   2.392   7.629   1.114  0.1184  0.4829 -0.0268
  208MOL0     C27328   2.285   7.578   1.044  0.1651 -0.6341  0.0174
  208MOL0     C27329   2.300   7.527   0.920  0.1003  1.3663  1.0807
  208MOL0     C27330   2.197   7.460   0.847  0.8530 -0.7438 -0.0364
  208MOL0     C27331   2.068   7.459   0.902  0.9037  0.5297 -0.3913
  208MOL0     O27332   1.960   7.403   0.845  0.0801 -0.0700 -0.5904
  208MOL0     C27333   1.955   7.380   0.705  0.4842 -0.9399 -0.2223
  208MOL0     C27334   1.818   7.317   0.661  0.4552  0.4957  0.2950
  208MOL0     C27335   1.781   7.202   0.747 -0.5424 -0.2178 -0.2907
  208MOL0     C27336   1.641   7.152   0.702 -0.3784  0.1626 -0.0804
  208MOL0     C27337   1.558   7.064   0.790  0.7168  0.1202 -0.1289
  208MOL0     C27338   1.544   7.116   0.938 -0.8760  0.5585 -0.4275
  208MOL0     C27339   1.471   7.245   0.965  0.2224 -0.5854 -0.3691
  208MOL0     C27340   1.505   7.320   1.094  0.5334  0.5379  0.4558
  208MOL0     N27341   1.481   7.245   1.215  0.3591 -0.9439  0.9308
  208MOL0     C27342   1.356   7.203   1.242 -0.4686 -1.3434  0.1183
  208MOL0     C27343   1.374   7.121   1.354 -0.2186 -0.7981  0.0831
  208MOL0     C27344   1.263   7.041   1.423 -0.5329  0.2517  0.3585
  208MOL0     C27345   1.189   7.118   1.536 -0.4163 -0.4985  0.4298
  208MOL0     C27346   1.297   7.145   1.645  0.2702  1.1302  0.2043
  208MOL0     C27347   1.325   7.024   1.730 -0.0920 -0.1754 -0.4739
  208MOL0     O27348   1.211   6.991   1.811  0.3209  0.2294  0.2553
  208MOL0     C27349   1.200   6.858   1.847 -0.3091  0.2726  0.0495
  208MOL0     C27350   1.297   6.794   1.925  1.2489  0.0373 -0.1090
  208MOL0     C27351   1.281   6.651   1.943  1.0070  0.2844  0.0133
  208MOL0     C27352   1.176   6.582   1.897  1.0904  0.0607  0.2089
  208MOL0     C27353   1.148   6.438   1.943 -0.2189  0.2283  0.0434
  208MOL0     O27354   1.034   6.391   1.879 -0.3657  0.0071 -0.0519
  208MOL0     C27355   0.996   6.260   1.882 -0.2969  0.0142 -0.0848
  208MOL0     C27356   0.854   6.253   1.873 -0.1563 -0.1347  0.0211
  208MOL0     C27357   0.791   6.130   1.886 -0.3296  0.2192  0.5379
  208MOL0     C27358   0.871   6.012   1.914  0.7086  0.3906 -0.3983
  208MOL0     O27359   0.817   5.883   1.911 -1.0365 -0.3265 -0.4547
  208MOL0     C27360   0.704   5.858   1.823 -0.1413 -0.4969  0.2623
  208MOL0     C27361   0.669   5.721   1.811 -0.2404  0.3020  0.7075
  208MOL0     C27362   0.539   5.706   1.722  1.1944 -0.3422  0.2556
  208MOL0     C27363   0.410   5.749   1.786  0.4463 -0.4225  0.3846
  208MOL0     C27364   0.288   5.710   1.700  0.2034 -0.1707  0.1245
  208MOL0     C27365   0.155   5.785   1.750 -0.1293  1.2292 -0.4130
  208MOL0     C27366   0.025   5.760   1.669  0.4908 -0.4197 -0.9369
  208MOL0     C27367  -0.089   5.836   1.734  0.1640 -0.2255 -0.2667
  208MOL0    Cl27368  -0.250   5.785   1.677  0.0273 -0.0846 -0.1277
  208MOL0     C27369   1.012   6.024   1.929  0.6026 -0.2089  0.1611
  208MOL0     C27370   1.073   6.147   1.907 -1.1877 -0.2010 -0.9133
  208MOL0     O27371   1.226   6.378   2.017  0.3533  0.8697  0.0267
  208MOL0     C27372   1.075   6.651   1.812 -0.6290  0.8208 -0.7304
  208MOL0     C27373   1.096   6.785   1.784 -0.1084 -0.5623  1.7385
  208MOL0     N27374   1.515   7.123   1.382  0.0352  0.5452  0.2769
  208MOL0     N27375   1.574   7.202   1.301 -0.0470  0.7301 -0.6504
  208MOL0     C27376   2.057   7.505   1.029  0.2964 -0.1445 -0.6968
  208MOL0     C27377   2.159   7.574   1.093  0.5900  0.3827 -0.2722
  208MOL0     C27378   2.511   7.764   1.251 -0.4381 -0.4649 -0.3125
  208MOL0     C27379   2.535   7.886   1.314  0.7322  0.1937 -0.5588
  208MOL0     C27380   2.663   7.929   1.343  0.4948 -0.2913  0.1429
  208MOL0     C27381   2.776   7.855   1.329 -0.3408  0.7518  0.0791
  208MOL0     O27382   2.896   7.916   1.365 -0.0004  0.0682  0.0468
  208MOL0     C27383   3.008   7.853   1.300  0.0290 -0.3189  1.3397
  208MOL0     C27384   3.138   7.929   1.323 -0.2626 -0.7414  0.4337
  208MOL0     C27385   3.183   7.917   1.467 -0.1384  0.3205  0.2415
  208MOL0     C27386   3.321   7.982   1.476  0.2967 -0.8103 -0.2936
  208MOL0     C27387   3.336   7.993   1.628 -0.2457  0.9870  0.5819
  208MOL0     C27388   3.349   8.017   1.751  0.2243  0.4289 -0.0143
  208MOL0     C27389   2.756   7.728   1.272  0.0720  0.8383  0.1141
  208MOL0     C27390   2.629   7.689   1.223  0.3757 -0.0859  0.1131
  208MOL0     H27391   2.401   7.531   0.880  0.0233  1.3883  0.8861
  208MOL0     H27392   2.210   7.414   0.749 -1.3927 -1.4219 -0.0760
  208MOL0     H27393   2.030   7.306   0.675  0.3080 -0.9625 -0.6086
  208MOL0     H27394   1.962   7.476   0.653  2.5516 -1.0728 -0.2742
  208MOL0     H27395   1.810   7.292   0.555 -2.8495 -2.3044  1.0118
  208MOL0     H27396   1.745   7.398   0.672 -1.2416 -1.0942  1.2167
  208MOL0     H27397   1.776   7.233   0.852 -3.0565 -1.0266 -0.0974
  208MOL0     H27398   1.859   7.126   0.734 -1.1428 -0.3263 -4.9396
  208MOL0     H27399   1.582   7.238   0.668 -0.9050 -1.0687 -2.4953
  208MOL0     H27400   1.656   7.094   0.610  1.5854  0.0549  0.2761
  208MOL0     H27401   1.607   6.966   0.793 -2.7642 -1.9665 -3.0247
  208MOL0     H27402   1.459   7.054   0.746  0.3909  1.1376  0.3508
  208MOL0     H27403   1.646   7.129   0.975 -0.6095  0.5538 -1.1411
  208MOL0     H27404   1.490   7.039   0.994  1.5319 -1.3150 -0.5232
  208MOL0     H27405   1.496   7.306   0.878  0.5137 -1.4979 -0.9356
  208MOL0     H27406   1.365   7.225   0.948  0.2965  1.1137 -3.4834
  208MOL0     H27407   1.449   7.414   1.099 -0.3573  0.1686 -1.6443
  208MOL0     H27408   1.609   7.354   1.086  0.2860  0.8620 -3.2815
  208MOL0     H27409   1.262   7.228   1.194 -0.3278 -0.3014  0.3660
  208MOL0     H27410   1.312   6.957   1.473  1.0923  0.6085 -0.5642
  208MOL0     H27411   1.199   7.000   1.344  3.8316 -1.1544 -2.7966
  208MOL0     H27412   1.107   7.054   1.570 -2.1926  0.3759 -1.9489
  208MOL0     H27413   1.142   7.212   1.505 -0.4337 -0.6910 -0.1274
  208MOL0     H27414   1.388   7.182   1.598  0.7944 -0.3349  0.0307
  208MOL0     H27415   1.261   7.227   1.709 -0.9644  1.0117 -0.3103
  208MOL0     H27416   1.410   7.068   1.783  1.6665 -0.6664 -2.7358
  208MOL0     H27417   1.371   6.942   1.673  1.4433 -0.7071  1.3967
  208MOL0     H27418   1.375   6.857   1.967  0.7232  0.8710 -0.3590
  208MOL0     H27419   1.356   6.602   2.004 -1.4489 -2.2570  1.2660
  208MOL0     H27420   0.798   6.343   1.850 -0.9590 -1.2625 -2.8542
  208MOL0     H27421   0.684   6.125   1.869 -0.2606 -0.8348  0.3240
  208MOL0     H27422   0.710   5.898   1.721 -1.3526 -4.6344 -1.6981
  208MOL0     H27423   0.616   5.916   1.854  1.4052  1.5976  0.9185
  208MOL0     H27424   0.649   5.674   1.908 -0.2886 -0.3303  0.4016
  208MOL0     H27425   0.763   5.677   1.775 -0.6238  0.2058 -0.1985
  208MOL0     H27426   0.514   5.600   1.707 -0.7254  0.0781  0.2844
  208MOL0     H27427   0.545   5.749   1.621  0.8469 -2.7361 -0.8583
  208MOL0     H27428   0.407   5.701   1.884 -2.4187 -0.8417  0.1787
  208MOL0     H27429   0.408   5.858   1.797 -1.6591 -0.1176 -2.1915
  208MOL0     H27430   0.276   5.601   1.700  1.6275 -0.3569  0.8452
  208MOL0     H27431   0.321   5.752   1.605  0.2235 -2.7350 -1.0878
  208MOL0     H27432   0.169   5.893   1.756  0.7322  1.0677  3.2885
  208MOL0     H27433   0.148   5.744   1.851 -0.4220  0.0589 -0.8931
  208MOL0     H27434   0.043   5.813   1.575 -0.5000  1.5798 -0.0645
  208MOL0     H27435   0.013   5.652   1.657 -0.9149 -0.4408  0.3572
  208MOL0     H27436  -0.065   5.942   1.723  1.9319 -0.3584  1.6501
  208MOL0     H27437  -0.088   5.832   1.843 -2.4133  0.6073 -0.1635
  208MOL0     H27438   1.074   5.935   1.936 -1.3336 -1.9464 -2.6077
  208MOL0     H27439   1.180   6.165   1.903 -1.4428  1.3173 -1.9840
  208MOL0     H27440   0.990   6.598   1.772 -0.3978  1.3567 -2.0061
  208MOL0     H27441   1.034   6.828   1.706  2.0485 -1.2632 -0.5231
  208MOL0     H27442   1.963   7.516   1.082  0.2176  0.5084 -0.9605
  208MOL0     H27443   2.133   7.609   1.193 -1.6209 -1.8612  0.0618
  208MOL0     H27444   2.453   7.956   1.328  0.6912  0.3831 -1.6887
  208MOL0     H27445   2.671   8.024   1.394  0.8973 -2.0707  3.7113
  208MOL0     H27446   2.983   7.838   1.195  0.6045  1.2865  0.9485
  208MOL0     H27447   3.016   7.753   1.344 -1.6754 -1.6085 -1.1170
  208MOL0     H27448   3.216   7.891   1.256  0.8540 -0.5609  1.5988
  208MOL0     H27449   3.111   8.030   1.290 -3.5411 -1.3777  0.8008
  208MOL0     H27450   3.182   7.811   1.496  2.6015  0.0133 -0.5461
  208MOL0     H27451   3.103   7.978   1.510  0.3011  1.4640 -0.5339
  208MOL0     H27452   3.396   7.917   1.430  1.3711  0.3538 -0.2539
  208MOL0     H27453   3.334   8.083   1.433 -4.5053  1.6661  3.1060
  208MOL0     H27454   3.336   8.046   1.853 -1.3742  2.7431 -0.7824
  208MOL0     H27455   2.828   7.648   1.258  2.2443  2.6222  0.4880
  208MOL0     H27456   2.625   7.590   1.177 -3.1389 -1.7283  3.4328
  209MOL0     O27457   8.304   4.121   4.477 -0.6640  0.3489 -0.0204
  209MOL0     C27458   8.307   4.102   4.602  0.4960  0.3395 -0.0704
  209MOL0     O27459   8.206   4.061   4.688  0.3205  0.8178 -0.1323
  209MOL0     C27460   8.070   4.083   4.674  0.5655  0.9226  0.1848
  209MOL0     C27461   7.990   4.005   4.757  0.3302 -0.4788  0.1111
  209MOL0     C27462   7.852   4.019   4.751  0.6481  0.5649 -0.3830
  209MOL0     C27463   7.787   4.118   4.664 -0.4913 -0.6133  0.1124
  209MOL0     O27464   7.653   4.146   4.657  0.9989  0.8465 -0.3537
  209MOL0     C27465   7.564   4.066   4.732 -0.3649  0.2563 -0.4008
  209MOL0     C27466   7.419   4.130   4.721  0.3731  0.7260 -0.1531
  209MOL0     C27467   7.322   4.049   4.636  0.5078  0.3253  0.8401
  209MOL0     C27468   7.183   4.114   4.643 -0.3303  0.0933  0.8256
  209MOL0     C27469   7.066   4.041   4.580 -0.0010  0.7029  0.0003
  209MOL0     C27470   6.937   4.116   4.612 -0.7555  0.1628  0.0766
  209MOL0     C27471   6.812   4.045   4.569 -0.4139  0.7085  0.2456
  209MOL0     C27472   6.686   4.077   4.661  0.2501  0.1061 -0.7941
  209MOL0     N27473   6.555   4.022   4.607 -0.8534 -0.8512  0.1848
  209MOL0     C27474   6.496   4.070   4.490 -0.4117 -0.3737 -0.2699
  209MOL0     C27475   6.399   3.979   4.470  0.2223  0.3074 -0.2818
  209MOL0     C27476   6.296   3.989   4.361  0.2977 -0.3603 -0.3308
  209MOL0     C27477   6.158   4.029   4.424 -0.6792  1.1354  0.4263
  209MOL0     C27478   6.150   4.183   4.452  0.4460 -0.4344  0.4746
  209MOL0     C27479   6.005   4.228   4.477 -0.2001  0.6264  1.0115
  209MOL0     O27480   5.949   4.243   4.345  0.6980  0.1457  0.1813
  209MOL0     C27481   5.818   4.213   4.328  0.3303 -0.5063  0.3488
  209MOL0     C27482   5.780   4.211   4.187  0.2277 -0.1809 -1.2461
  209MOL0     C27483   5.641   4.189   4.153 -0.6427  0.2240  0.1620
  209MOL0     C27484   5.547   4.173   4.249  0.7886 -0.8091 -0.3727
  209MOL0     C27485   5.397   4.158   4.208 -0.4763 -0.7589 -0.2382
  209MOL0     O27486   5.311   4.190   4.307 -0.4438 -0.3614 -0.1440
  209MOL0     C27487   5.176   4.218   4.282  0.6857  1.1000  0.3108
  209MOL0     C27488   5.096   4.205   4.396 -0.4140  0.5685  0.3679
  209MOL0     C27489   4.955   4.229   4.382 -0.4700 -0.3544 -0.4799
  209MOL0     C27490   4.894   4.255   4.266 -0.0197 -0.3983 -0.2809
  209MOL0     O27491   4.760   4.287   4.255  0.1770 -0.1057  0.6374
  209MOL0     C27492   4.702   4.212   4.150 -0.3613  0.1298 -0.0583
  209MOL0     C27493   4.550   4.225   4.149 -0.0788  0.6915 -0.1611
  209MOL0     C27494   4.471   4.161   4.033 -0.0923 -0.0676 -0.0962
  209MOL0     C27495   4.318   4.149   4.052  0.2057 -0.0315  0.0862
  209MOL0     C27496   4.239   4.278   4.064 -0.1607 -1.0516 -0.2876
  209MOL0     C27497   4.098   4.281   4.000 -0.8891  0.4122  0.8713
  209MOL0     C27498   4.010   4.151   4.013 -0.0622  0.4265  0.4167
  209MOL0     C27499   3.904   4.128   3.910 -0.6362 -0.2938 -0.1601
  209MOL0    Cl27500   3.757   4.232   3.917  0.1060 -0.0717  0.1361
  209MOL0     C27501   4.979   4.259   4.152  0.8095 -0.3750 -0.8376
  209MOL0     C27502   5.119   4.244   4.159  0.0434 -0.6344 -0.1778
  209MOL0     O27503   5.368   4.128   4.091  0.2413 -0.2218  0.1369
  209MOL0     C27504   5.587   4.167   4.384 -0.2588  0.2353 -0.0646
  209MOL0     C27505   5.718   4.193   4.428  0.4068  0.2485  0.7516
  209MOL0     N27506   6.384   3.900   4.586  0.0040 -0.7711  0.5388
  209MOL0     N27507   6.481   3.922   4.664  0.0727  0.0639 -0.0250
  209MOL0     C27508   7.871   4.185   4.574  0.6436 -0.1372 -0.1394
  209MOL0     C27509   8.010   4.172   4.583 -0.2051  0.0360 -0.2432
  209MOL0     C27510   8.436   4.138   4.664  0.3547 -0.0532  0.6187
  209MOL0     C27511   8.464   4.104   4.794  0.1523 -0.3896 -0.1311
  209MOL0     C27512   8.593   4.133   4.851  0.2393  0.1602  0.4913
  209MOL0     C27513   8.689   4.197   4.785 -1.0732 -0.3681  0.1502
  209MOL0     O27514   8.790   4.251   4.874  0.4389  0.7001 -0.0826
  209MOL0     C27515   8.885   4.342   4.809 -0.2668  0.8028 -0.1634
  209MOL0     C27516   9.011   4.376   4.893  0.1156 -0.2390  0.0610
  209MOL0     C27517   9.115   4.260   4.887 -0.3321  0.0668  0.0014
  209MOL0     C27518   9.264   4.303   4.921  0.0979 -0.5482 -0.8760
  209MOL0     C27519   9.275   4.343   5.068  0.0174  0.8037  1.0298
  209MOL0     C27520   9.285   4.392   5.179  0.1904  0.7352 -0.2075
  209MOL0     C27521   8.664   4.218   4.649 -0.1335 -0.5577 -0.7281
  209MOL0     C27522   8.538   4.189   4.591 -0.3646 -0.4419 -0.6287
  209MOL0     H27523   8.038   3.934   4.824 -1.1177  1.1233  3.0321
  209MOL0     H27524   7.793   3.955   4.815  1.8236 -1.8823 -1.6231
  209MOL0     H27525   7.606   4.067   4.833  0.3815  1.2749 -0.7034
  209MOL0     H27526   7.568   3.960   4.705 -1.5869 -0.1125  0.8021
  209MOL0     H27527   7.423   4.230   4.675 -0.1998  1.6169  1.6516
  209MOL0     H27528   7.376   4.146   4.820  0.8644  1.5175 -0.0550
  209MOL0     H27529   7.317   3.947   4.676  0.0486  0.0450  0.0901
  209MOL0     H27530   7.346   4.059   4.530 -1.7546 -0.0314  0.2397
  209MOL0     H27531   7.154   4.132   4.747 -5.9341  1.5596 -0.5951
  209MOL0     H27532   7.193   4.211   4.594 -0.8070 -0.1843  0.1518
  209MOL0     H27533   7.051   3.940   4.621 -1.0277  0.5679 -0.6604
  209MOL0     H27534   7.095   4.032   4.475  0.7503 -2.2475  0.3571
  209MOL0     H27535   6.941   4.211   4.557  1.6422 -0.1403 -0.3664
  209MOL0     H27536   6.944   4.124   4.721 -1.5174  0.3253  0.1209
  209MOL0     H27537   6.792   4.055   4.462  2.6034  0.8206 -0.3858
  209MOL0     H27538   6.825   3.938   4.587 -0.4781  0.6698  0.0596
  209MOL0     H27539   6.685   4.185   4.679 -1.3729 -0.0653  0.3562
  209MOL0     H27540   6.699   4.035   4.761 -2.6003 -0.7918 -0.7224
  209MOL0     H27541   6.514   4.157   4.427 -1.4696 -0.3396 -0.5301
  209MOL0     H27542   6.281   3.899   4.301 -0.4207  0.0987 -0.8513
  209MOL0     H27543   6.333   4.067   4.294 -0.8970  0.7659  0.2619
  209MOL0     H27544   6.153   3.976   4.520  2.4003 -1.6455 -0.7611
  209MOL0     H27545   6.079   3.998   4.355  0.9923 -2.5139 -0.0718
  209MOL0     H27546   6.229   4.212   4.522  1.2062  0.4121 -0.7033
  209MOL0     H27547   6.173   4.235   4.358 -0.3420 -0.1423  0.4346
  209MOL0     H27548   5.984   4.322   4.528 -6.7905  0.3528 -0.2282
  209MOL0     H27549   5.948   4.155   4.536 -1.9641  0.8640 -0.3052
  209MOL0     H27550   5.869   4.243   4.133  1.2491  0.7912  0.8964
  209MOL0     H27551   5.618   4.202   4.048  4.7740  4.1880 -0.9805
  209MOL0     H27552   5.141   4.186   4.493  1.5392  1.6407 -0.2585
  209MOL0     H27553   4.900   4.235   4.476  2.1293 -2.6763  1.3444
  209MOL0     H27554   4.737   4.109   4.155 -1.3093 -0.2183 -0.3676
  209MOL0     H27555   4.728   4.252   4.051 -1.4830  2.3951  0.5023
  209MOL0     H27556   4.530   4.332   4.160 -1.7641  0.1915  2.1861
  209MOL0     H27557   4.520   4.173   4.240  3.2417 -0.4119  0.4722
  209MOL0     H27558   4.500   4.056   4.023 -2.1579 -0.7707  0.8351
  209MOL0     H27559   4.493   4.221   3.944 -1.8230 -1.4120 -1.5023
  209MOL0     H27560   4.273   4.107   3.961 -1.5667 -0.6253  1.1884
  209MOL0     H27561   4.293   4.083   4.136  0.9730  0.1688  0.4818
  209MOL0     H27562   4.302   4.362   4.033  1.8800 -2.3183  0.2109
  209MOL0     H27563   4.219   4.296   4.170 -1.6045 -2.4980 -0.2725
  209MOL0     H27564   4.113   4.294   3.893 -1.0338  1.4785  0.9762
  209MOL0     H27565   4.043   4.368   4.034  0.6943  0.4929  3.5690
  209MOL0     H27566   4.072   4.062   4.022 -0.2269  0.4313  1.9227
  209MOL0     H27567   3.971   4.159   4.115 -0.5635  2.4724  0.1078
  209MOL0     H27568   3.880   4.022   3.923 -0.8927 -0.5927 -2.5751
  209MOL0     H27569   3.946   4.138   3.809  1.6774 -1.8167  0.5737
  209MOL0     H27570   4.926   4.281   4.060 -0.9041  1.4695  0.4862
  209MOL0     H27571   5.178   4.258   4.069 -1.6493  1.5547 -1.0333
  209MOL0     H27572   5.520   4.165   4.470 -0.5513 -1.9525 -0.2782
  209MOL0     H27573   5.733   4.201   4.536  1.0947  0.2567  0.6621
  209MOL0     H27574   7.818   4.260   4.516 -1.7534  0.3440  2.4424
  209MOL0     H27575   8.073   4.236   4.522 -1.4324  3.6867  2.0096
  209MOL0     H27576   8.383   4.065   4.854 -0.7667 -0.2973 -1.2856
  209MOL0     H27577   8.616   4.108   4.955  1.3736  0.1132  0.2454
  209MOL0     H27578   8.829   4.434   4.789 -1.2607  0.8906  2.5755
  209MOL0     H27579   8.909   4.294   4.714 -2.7351 -1.4584  0.2416
  209MOL0     H27580   9.042   4.470   4.847  0.3522  0.1412  0.9685
  209MOL0     H27581   8.978   4.399   4.995 -1.8368  2.0394 -0.9909
  209MOL0     H27582   9.117   4.218   4.786 -3.4259 -0.5455  0.0895
  209MOL0     H27583   9.091   4.178   4.956  1.5664 -0.6296 -0.1330
  209MOL0     H27584   9.330   4.218   4.901  2.2208  0.7265  0.2867
  209MOL0     H27585   9.286   4.394   4.864 -0.3283  1.0542  1.3780
  209MOL0     H27586   9.306   4.420   5.280 -1.1145  1.7989 -0.2077
  209MOL0     H27587   8.734   4.260   4.577 -0.0147 -1.8537 -1.3876
  209MOL0     H27588   8.528   4.222   4.488 -0.1960  4.1330  0.6008
  210MOL0     O27589   8.961   9.622   3.500 -0.2850 -0.2448 -0.9936
  210MOL0     C27590   9.026   9.728   3.507  0.1441  0.5313  0.6409
  210MOL0     O27591   8.969   9.855   3.501  0.0124 -0.3656  0.3288
  210MOL0     C27592   8.842   9.871   3.455 -1.2533  0.5223  0.1090
  210MOL0     C27593   8.815   9.956   3.357 -0.5486 -0.3882 -0.1970
  210MOL0     C27594   8.687   9.975   3.320  0.2674 -0.2527  0.5710
  210MOL0     C27595   8.582   9.901   3.383 -0.7184 -0.1160 -0.3647
  210MOL0     O27596   8.447   9.923   3.355 -0.1023  0.1344  0.9345
  210MOL0     C27597   8.401  10.064   3.331 -0.2594  1.4844  1.0362
  210MOL0     C27598   8.371  10.076   3.174  0.6405  0.6747  0.0344
  210MOL0     C27599   8.268   9.978   3.113 -0.5303  0.0367 -0.0040
  210MOL0     C27600   8.296   9.950   2.962  0.0372  0.4988  0.1610
  210MOL0     C27601   8.228  10.043   2.874 -1.0486  0.5342 -0.8432
  210MOL0     C27602   8.271  10.000   2.743 -0.0160 -0.2756 -0.3698
  210MOL0     C27603   8.213  10.098   2.637  0.5440 -0.6695 -0.1949
  210MOL0     C27604   8.274  10.074   2.504  0.3990 -0.2701 -0.5196
  210MOL0     N27605   8.218  10.165   2.400  0.4823 -0.2270 -0.1495
  210MOL0     C27606   8.106  10.235   2.403  0.0313  0.0380  0.1278
  210MOL0     C27607   8.119  10.332   2.306  0.4535  0.9435 -0.4443
  210MOL0     C27608   8.010  10.437   2.286  0.2979 -0.4797  0.3896
  210MOL0     C27609   7.906  10.380   2.193 -0.1413 -0.2465 -0.4633
  210MOL0     C27610   7.815  10.282   2.264 -0.6472  0.4673  0.2871
  210MOL0     C27611   7.691  10.261   2.170  0.2205 -0.2301  1.0278
  210MOL0     O27612   7.599  10.175   2.239  0.3423 -0.4306  0.2273
  210MOL0     C27613   7.478  10.159   2.184  0.2481  0.3490 -0.5527
  210MOL0     C27614   7.440  10.206   2.056 -0.1649 -0.0036 -0.1739
  210MOL0     C27615   7.313  10.189   2.009  1.2175 -0.1375 -0.2257
  210MOL0     C27616   7.209  10.121   2.082 -1.1262  0.4101  0.1877
  210MOL0     C27617   7.083  10.094   2.010 -0.1594  0.6938 -0.2246
  210MOL0     O27618   7.068  10.107   1.873 -0.3551 -0.2086 -0.3148
  210MOL0     C27619   6.949  10.105   1.796 -0.5775  0.9524  0.2289
  210MOL0     C27620   6.971  10.120   1.656 -0.3573  0.0906 -0.0471
  210MOL0     C27621   6.856  10.125   1.565 -0.1708  0.3952  0.1210
  210MOL0     C27622   6.729  10.106   1.610  0.1840 -0.3147 -0.2481
  210MOL0     O27623   6.627  10.098   1.520  0.4114 -0.3632 -0.2092
  210MOL0     C27624   6.501  10.150   1.573 -0.2509  0.3273  0.1168
  210MOL0     C27625   6.402  10.167   1.464 -0.2942  0.6420 -0.1270
  210MOL0     C27626   6.264  10.208   1.517  0.3453  0.4344 -0.0640
  210MOL0     C27627   6.168  10.207   1.391 -1.1916 -0.1046  0.1961
  210MOL0     C27628   6.026  10.243   1.432  0.2001  0.2829 -0.0108
  210MOL0     C27629   5.928  10.204   1.323  0.3097  0.5943 -1.0014
  210MOL0     C27630   5.785  10.254   1.346 -0.5542 -0.3250 -0.0466
  210MOL0     C27631   5.683  10.189   1.259 -0.3861  0.7083  0.3010
  210MOL0    Cl27632   5.518  10.234   1.302  0.4806  0.2850  0.3724
  210MOL0     C27633   6.712  10.084   1.752 -0.9133  0.6155  0.4634
  210MOL0     C27634   6.818  10.082   1.838 -0.5583  0.2231 -0.1842
  210MOL0     O27635   6.996  10.049   2.082 -0.2325  0.0988 -0.2398
  210MOL0     C27636   7.246  10.088   2.219  0.6704  0.4976 -0.2260
  210MOL0     C27637   7.376  10.107   2.262  0.3656  0.4767 -1.5551
  210MOL0     N27638   8.248  10.324   2.248  0.5657  0.0699 -0.4795
  210MOL0     N27639   8.300  10.230   2.313 -0.8538  0.1629  0.8226
  210MOL0     C27640   8.610   9.815   3.490  0.0014 -0.0142 -0.4304
  210MOL0     C27641   8.741   9.796   3.520  0.3380 -0.7655  0.3483
  210MOL0     C27642   9.171   9.714   3.534  0.2751 -0.5378  0.5083
  210MOL0     C27643   9.247   9.822   3.584 -0.6198  0.0850  0.1501
  210MOL0     C27644   9.384   9.804   3.607 -0.1331  0.3404  0.3865
  210MOL0     C27645   9.447   9.682   3.580  0.9444 -0.4906 -0.0419
  210MOL0     O27646   9.578   9.670   3.609 -0.0697  0.1349 -1.1527
  210MOL0     C27647   9.597   9.585   3.722  0.5026  0.1676  0.1506
  210MOL0     C27648   9.740   9.578   3.769 -0.7814  0.4946  0.0465
  210MOL0     C27649   9.835   9.560   3.646  0.3348 -0.2640  0.1923
  210MOL0     C27650   9.821   9.421   3.568 -0.1567 -0.4257  0.0905
  210MOL0     C27651   9.834   9.309   3.663 -1.5822 -0.0589 -0.5209
  210MOL0     C27652   9.866   9.229   3.750 -0.8190 -0.7839 -0.1266
  210MOL0     C27653   9.372   9.572   3.537  0.0494  0.4538 -0.5910
  210MOL0     C27654   9.237   9.591   3.507  0.1855 -0.5882 -0.4669
  210MOL0     H27655   8.899   9.992   3.298 -1.0817 -2.0371 -2.0727
  210MOL0     H27656   8.652  10.042   3.242  1.1051 -1.5042 -0.9428
  210MOL0     H27657   8.476  10.136   3.367 -2.0840  3.2997  1.3951
  210MOL0     H27658   8.309  10.078   3.389 -0.5374 -0.4945  1.1155
  210MOL0     H27659   8.467  10.059   3.124  1.0710 -1.2775  1.3740
  210MOL0     H27660   8.352  10.183   3.166 -0.9116  0.7258  3.0693
  210MOL0     H27661   8.167  10.021   3.121  0.8876  3.4921  1.2612
  210MOL0     H27662   8.272   9.883   3.167 -0.7929  0.3003  0.4868
  210MOL0     H27663   8.402   9.950   2.933  0.0977  0.7328  0.3746
  210MOL0     H27664   8.260   9.848   2.945  0.5668 -0.7609  4.9352
  210MOL0     H27665   8.259  10.146   2.893 -1.2393  0.3606  0.4779
  210MOL0     H27666   8.118  10.045   2.877 -1.0337  2.1264 -0.6606
  210MOL0     H27667   8.232   9.901   2.715  0.7788 -0.3813 -1.1480
  210MOL0     H27668   8.379  10.014   2.729 -0.5190  3.9834 -1.2049
  210MOL0     H27669   8.104  10.104   2.642  0.6569  0.5324  3.7159
  210MOL0     H27670   8.244  10.199   2.665 -0.9033 -0.1582 -0.3405
  210MOL0     H27671   8.265   9.967   2.482 -0.2951 -0.0936 -1.1671
  210MOL0     H27672   8.382  10.081   2.513  0.2204  1.5016  0.7915
  210MOL0     H27673   8.012  10.204   2.448 -1.0094 -1.0101 -2.5729
  210MOL0     H27674   8.047  10.527   2.236  1.3021 -2.1940 -2.1816
  210MOL0     H27675   7.965  10.462   2.382 -2.4998 -4.1917  0.2910
  210MOL0     H27676   7.948  10.327   2.106 -0.6960 -1.5254  0.0272
  210MOL0     H27677   7.838  10.461   2.165 -0.5590 -0.2139  0.6302
  210MOL0     H27678   7.866  10.186   2.272  3.1221  2.4189  1.7639
  210MOL0     H27679   7.786  10.309   2.366  0.9084  1.0298  0.6012
  210MOL0     H27680   7.726  10.221   2.075  2.5306  4.2624 -0.2760
  210MOL0     H27681   7.647  10.356   2.138  1.3820  0.4250  1.3032
  210MOL0     H27682   7.520  10.255   2.002  1.8541  0.9921  3.4147
  210MOL0     H27683   7.304  10.229   1.909  2.0164  0.3850 -0.0997
  210MOL0     H27684   7.075  10.127   1.627 -0.1529 -1.7528  0.1405
  210MOL0     H27685   6.863  10.133   1.457 -2.0090  4.0477  0.1178
  210MOL0     H27686   6.533  10.242   1.623  2.7936 -1.2460  1.2723
  210MOL0     H27687   6.460  10.080   1.647 -1.9306 -0.8312 -1.7985
  210MOL0     H27688   6.390  10.067   1.423 -0.9104  0.0113  1.4960
  210MOL0     H27689   6.431  10.251   1.401 -2.0814  3.9053  2.9917
  210MOL0     H27690   6.270  10.304   1.568 -1.5311  0.1602  0.7634
  210MOL0     H27691   6.234  10.133   1.592  1.0238  0.4314  0.2086
  210MOL0     H27692   6.206  10.275   1.315  1.3247 -0.6954  0.8257
  210MOL0     H27693   6.175  10.108   1.346  1.9757  0.0837  0.0485
  210MOL0     H27694   6.014  10.351   1.447 -1.1321  0.2149 -0.4695
  210MOL0     H27695   5.998  10.192   1.525  2.5613 -0.0585  0.5970
  210MOL0     H27696   5.926  10.094   1.320 -0.2242  0.4157  2.0465
  210MOL0     H27697   5.974  10.233   1.229  3.3486 -0.9976 -0.1423
  210MOL0     H27698   5.741  10.238   1.445  0.7675  2.1253  1.0318
  210MOL0     H27699   5.790  10.362   1.326  1.3622 -0.8035 -2.6620
  210MOL0     H27700   5.692  10.080   1.263  2.4092  0.8300 -0.4960
  210MOL0     H27701   5.699  10.216   1.155 -1.3472 -1.7351 -0.5638
  210MOL0     H27702   6.612  10.064   1.789 -0.8069 -2.8299 -0.7036
  210MOL0     H27703   6.807  10.051   1.941  1.3753 -0.9478 -0.2687
  210MOL0     H27704   7.174  10.047   2.289  1.3982  1.7737  1.3367
  210MOL0     H27705   7.388  10.076   2.365 -1.8567  0.0601 -1.3763
  210MOL0     H27706   8.533   9.751   3.532  2.3677 -2.6458  0.2393
  210MOL0     H27707   8.758   9.729   3.603  1.6646  4.2301  4.6520
  210MOL0     H27708   9.191   9.915   3.589 -0.3347  0.3998 -1.8215
  210MOL0     H27709   9.444   9.885   3.648  1.2072 -0.7378  0.5974
  210MOL0     H27710   9.565   9.485   3.691  0.5989  0.5697 -1.3076
  210MOL0     H27711   9.535   9.628   3.802 -2.7280  0.7050 -2.4479
  210MOL0     H27712   9.761   9.676   3.812 -2.5099  0.3253  1.3586
  210MOL0     H27713   9.749   9.503   3.848 -3.1456  2.0389  1.9219
  210MOL0     H27714   9.938   9.580   3.679  0.7708 -2.7484  0.4848
  210MOL0     H27715   9.803   9.633   3.570 -3.4652 -0.5805  1.3107
  210MOL0     H27716   9.720   9.424   3.525 -0.1162  1.2311  0.0769
  210MOL0     H27717   9.896   9.410   3.489  1.2978  1.3765  1.1568
  210MOL0     H27718   9.895   9.151   3.818  1.5922  0.8540  0.8365
  210MOL0     H27719   9.423   9.476   3.534 -3.6819 -2.0009  2.9431
  210MOL0     H27720   9.187   9.515   3.448 -1.7926  0.6247 -0.4576
  211MOL0     O27721   0.737   0.197   6.656  0.0612  0.4240 -0.6121
  211MOL0     C27722   0.765   0.256   6.765  0.0840 -0.1662  0.7625
  211MOL0     O27723   0.672   0.315   6.856  0.2272  0.2785 -0.1566
  211MOL0     C27724   0.547   0.295   6.823  0.6396  0.0500 -0.3942
  211MOL0     C27725   0.492   0.393   6.743 -0.5215  0.1465  0.1578
  211MOL0     C27726   0.357   0.400   6.708 -0.5022 -0.2886 -0.1225
  211MOL0     C27727   0.270   0.311   6.776  0.8422  0.5457 -0.1650
  211MOL0     O27728   0.130   0.304   6.775  0.1176 -0.1924  0.1043
  211MOL0     C27729   0.056   0.424   6.758  0.1323 -1.3038  1.0914
  211MOL0     C27730   0.021   0.460   6.613  0.6419  0.2917 -0.2753
  211MOL0     C27731  -0.028   0.608   6.612  0.4034  0.4376 -0.2994
  211MOL0     C27732  -0.072   0.655   6.466  0.1489 -0.2189  0.0068
  211MOL0     C27733  -0.142   0.790   6.464 -0.8059 -0.1229  0.2910
  211MOL0     C27734  -0.179   0.847   6.329 -0.1356 -0.2625  0.3333
  211MOL0     C27735  -0.225   0.992   6.329 -0.1874  0.1019 -0.4484
  211MOL0     C27736  -0.355   1.029   6.397  0.5270  0.4182  0.3746
  211MOL0     N27737  -0.483   0.946   6.376 -0.4185  0.8323  0.2025
  211MOL0     C27738  -0.512   0.889   6.254 -0.2213 -0.3706 -0.1421
  211MOL0     C27739  -0.633   0.837   6.273  0.0599 -0.3121  0.3117
  211MOL0     C27740  -0.701   0.772   6.158  0.2021 -0.4163  0.4534
  211MOL0     C27741  -0.836   0.837   6.137 -0.7546 -0.3316  0.0979
  211MOL0     C27742  -0.919   0.751   6.030 -0.2443 -0.9512  0.0833
  211MOL0     C27743  -1.041   0.829   5.974  0.0699 -0.6835 -0.3036
  211MOL0     O27744  -1.106   0.754   5.879 -0.1566  0.3968  0.3603
  211MOL0     C27745  -1.236   0.787   5.843 -0.2266 -0.5933  0.4078
  211MOL0     C27746  -1.312   0.897   5.881 -0.1515 -0.2826 -0.5680
  211MOL0     C27747  -1.448   0.913   5.854 -0.4900 -0.2334 -0.4442
  211MOL0     C27748  -1.510   0.820   5.766 -0.2912 -1.0887  0.0035
  211MOL0     C27749  -1.639   0.844   5.714 -0.1528  0.3752  0.4879
  211MOL0     O27750  -1.705   0.728   5.651  0.0653 -0.2005  0.3110
  211MOL0     C27751  -1.809   0.764   5.577  0.8986 -0.0784  0.7333
  211MOL0     C27752  -1.936   0.740   5.629  0.1045  0.8238  0.2677
  211MOL0     C27753  -2.058   0.784   5.573 -0.4832  0.1489 -0.1409
  211MOL0     C27754  -2.044   0.842   5.438 -0.0365 -0.5267 -0.5932
  211MOL0     O27755  -2.141   0.879   5.347 -0.6691  0.2805 -0.4593
  211MOL0     C27756  -2.271   0.873   5.402  0.2996 -0.1440 -0.6751
  211MOL0     C27757  -2.362   0.940   5.307  0.2918 -0.3977 -0.2800
  211MOL0     C27758  -2.508   0.930   5.357 -0.4749 -0.2496  0.3037
  211MOL0     C27759  -2.594   1.033   5.289 -0.8490 -0.7219  0.2138
  211MOL0     C27760  -2.726   1.036   5.376  0.6684 -0.5727 -0.6528
  211MOL0     C27761  -2.816   1.148   5.336  0.4312 -0.1623 -0.0322
  211MOL0     C27762  -2.954   1.150   5.399  0.6657 -0.1326  0.4074
  211MOL0     C27763  -2.933   1.209   5.537  0.5438 -0.0322 -0.1586
  211MOL0    Cl27764  -3.093   1.225   5.626 -0.1553 -0.5587 -0.3205
  211MOL0     C27765  -1.918   0.859   5.384  0.1112  0.4253 -0.2631
  211MOL0     C27766  -1.807   0.816   5.447 -0.0600  0.3100  0.2348
  211MOL0     O27767  -1.685   0.960   5.722  0.5185  0.4748  0.2409
  211MOL0     C27768  -1.436   0.720   5.717 -0.1596 -0.0299 -0.0431
  211MOL0     C27769  -1.302   0.706   5.755 -1.1343  0.2693  0.5270
  211MOL0     N27770  -0.676   0.854   6.402  0.3494  0.0206 -0.0634
  211MOL0     N27771  -0.587   0.923   6.465 -0.5797 -0.0464 -0.4045
  211MOL0     C27772   0.330   0.217   6.858 -0.8478  0.1685 -0.3303
  211MOL0     C27773   0.464   0.198   6.878  0.3043  0.1048  0.5912
  211MOL0     C27774   0.903   0.273   6.799  0.1101  0.1223 -0.2515
  211MOL0     C27775   0.949   0.383   6.876 -0.1632  0.1501 -1.1893
  211MOL0     C27776   1.080   0.397   6.908  0.2276  0.2474 -0.0529
  211MOL0     C27777   1.177   0.311   6.860 -0.1747 -0.0934 -0.5034
  211MOL0     O27778   1.310   0.331   6.892 -0.7147 -0.5559 -0.0668
  211MOL0     C27779   1.404   0.219   6.890 -0.9329  0.0569 -0.1447
  211MOL0     C27780   1.516   0.240   6.989 -0.0820 -0.2306  0.2137
  211MOL0     C27781   1.593   0.109   7.017  0.0039  1.0495 -0.0726
  211MOL0     C27782   1.706   0.130   7.122  0.3119 -0.9501 -0.4990
  211MOL0     C27783   1.843   0.134   7.067 -0.2177 -0.1860 -0.1694
  211MOL0     C27784   1.954   0.117   7.011  0.2136 -0.1209 -0.0400
  211MOL0     C27785   1.136   0.203   6.771  0.1779 -0.1700 -0.0676
  211MOL0     C27786   1.000   0.187   6.742 -1.4047 -1.0713  0.7200
  211MOL0     H27787   0.562   0.463   6.697  0.0302  0.5763  1.5872
  211MOL0     H27788   0.317   0.471   6.636  1.3984 -0.6720 -1.6412
  211MOL0     H27789   0.102   0.506   6.813  2.4148 -2.9138  1.7599
  211MOL0     H27790  -0.045   0.406   6.796 -0.9847  1.3592 -0.3526
  211MOL0     H27791  -0.057   0.394   6.575 -2.2592  3.0977  0.4314
  211MOL0     H27792   0.107   0.445   6.546  0.2165 -4.1971 -0.1450
  211MOL0     H27793   0.039   0.679   6.661  0.4595 -0.3255  0.7726
  211MOL0     H27794  -0.118   0.598   6.673  0.8627 -3.3950 -0.0073
  211MOL0     H27795   0.019   0.650   6.405  1.0591  3.2144  0.8805
  211MOL0     H27796  -0.141   0.575   6.437  0.7106 -0.9534  0.6504
  211MOL0     H27797  -0.080   0.860   6.520 -0.6494  2.1836 -2.5430
  211MOL0     H27798  -0.241   0.778   6.509 -1.5998 -0.8488 -1.5642
  211MOL0     H27799  -0.260   0.792   6.280 -0.7976  1.1923 -0.2743
  211MOL0     H27800  -0.092   0.850   6.263 -0.1826  1.5097  0.2864
  211MOL0     H27801  -0.151   1.050   6.383 -1.2855  0.0134  1.2386
  211MOL0     H27802  -0.241   1.019   6.224  1.6829 -0.1640 -0.8256
  211MOL0     H27803  -0.379   1.133   6.370 -0.0784  1.6133  4.7157
  211MOL0     H27804  -0.329   1.046   6.502  1.7740  0.8602  0.0189
  211MOL0     H27805  -0.455   0.878   6.163  1.3295  0.2743  0.7137
  211MOL0     H27806  -0.713   0.665   6.177  2.2074 -0.5235  1.3879
  211MOL0     H27807  -0.646   0.791   6.065  1.4761  1.1155  1.4597
  211MOL0     H27808  -0.823   0.943   6.114  3.6050 -0.5675  0.5666
  211MOL0     H27809  -0.889   0.839   6.232 -1.6419  0.5794 -0.4006
  211MOL0     H27810  -0.851   0.732   5.946  0.2957 -3.2246  0.9477
  211MOL0     H27811  -0.947   0.654   6.074 -0.6148 -1.2232 -0.7414
  211MOL0     H27812  -0.997   0.916   5.924  0.8940 -0.5889  0.5597
  211MOL0     H27813  -1.100   0.864   6.059  1.6993 -0.3585  0.7444
  211MOL0     H27814  -1.265   0.967   5.950  0.5091 -0.6652 -0.6194
  211MOL0     H27815  -1.509   0.996   5.888 -0.5663  0.2433 -1.6688
  211MOL0     H27816  -1.943   0.689   5.725  0.1537 -1.0329 -0.6697
  211MOL0     H27817  -2.152   0.752   5.617 -1.1913 -1.4415 -2.5759
  211MOL0     H27818  -2.258   0.928   5.496  2.0408 -0.8822 -0.4401
  211MOL0     H27819  -2.305   0.771   5.418 -0.4556  0.1707 -0.2278
  211MOL0     H27820  -2.364   0.891   5.209 -2.4770  4.5408 -3.0198
  211MOL0     H27821  -2.331   1.043   5.291 -3.3822  0.7173 -1.1085
  211MOL0     H27822  -2.510   0.951   5.465 -1.1382  1.5225 -0.0177
  211MOL0     H27823  -2.549   0.832   5.333 -0.0623 -0.5460  0.7775
  211MOL0     H27824  -2.531   1.122   5.283 -1.5758 -0.2610 -0.6844
  211MOL0     H27825  -2.619   1.003   5.186  1.1113  0.1874 -0.5861
  211MOL0     H27826  -2.696   1.054   5.480  0.3347  3.0040 -1.0507
  211MOL0     H27827  -2.786   0.945   5.372 -1.6711  0.8919 -0.5611
  211MOL0     H27828  -2.816   1.141   5.227  0.5492  0.9871 -0.1179
  211MOL0     H27829  -2.770   1.239   5.375 -2.9490  1.6017  0.2345
  211MOL0     H27830  -3.032   1.201   5.341  0.4719 -3.2149 -2.2928
  211MOL0     H27831  -2.984   1.045   5.401  0.9472 -0.3255 -2.2559
  211MOL0     H27832  -2.889   1.308   5.520 -0.2471 -0.0615 -2.8422
  211MOL0     H27833  -2.859   1.149   5.590  0.8784  0.9979  0.5848
  211MOL0     H27834  -1.896   0.880   5.280  2.4787 -1.1673 -0.1610
  211MOL0     H27835  -1.714   0.829   5.394 -1.7698  4.0272 -2.3045
  211MOL0     H27836  -1.474   0.643   5.651  1.0885 -2.8861  2.2991
  211MOL0     H27837  -1.240   0.619   5.735 -2.2324  0.0600 -2.4630
  211MOL0     H27838   0.262   0.144   6.902  2.6120 -5.1562 -2.6979
  211MOL0     H27839   0.504   0.114   6.934 -0.7687  0.4033  1.8484
  211MOL0     H27840   0.878   0.456   6.912  3.4588  3.1099  0.5740
  211MOL0     H27841   1.099   0.478   6.978 -0.3687  2.0671 -1.9035
  211MOL0     H27842   1.447   0.203   6.790 -0.8168  0.3900 -0.1494
  211MOL0     H27843   1.339   0.136   6.919 -1.6462  0.4187 -0.6797
  211MOL0     H27844   1.577   0.328   6.963 -0.8553  0.8723  1.9586
  211MOL0     H27845   1.472   0.271   7.084 -1.4596  1.0681 -0.7971
  211MOL0     H27846   1.628   0.067   6.922  0.2464  0.9735  0.0491
  211MOL0     H27847   1.542   0.032   7.076  1.2920  0.5484  0.4240
  211MOL0     H27848   1.683   0.221   7.177  0.4416  0.2863 -2.3855
  211MOL0     H27849   1.716   0.053   7.199  1.6012 -1.0360 -0.7198
  211MOL0     H27850   2.035   0.109   6.941 -2.2227 -4.0084 -2.8896
  211MOL0     H27851   1.206   0.133   6.725  4.6510  3.4181  0.6122
  211MOL0     H27852   0.978   0.111   6.667 -0.5193  1.8382 -2.7932
  212MOL0     O27853   7.011   9.187   3.453 -0.6183  0.2964  0.7254
  212MOL0     C27854   7.025   9.098   3.371 -0.4278  0.4321  0.6936
  212MOL0     O27855   6.932   9.007   3.319 -0.0118  0.8168  0.3605
  212MOL0     C27856   6.804   9.010   3.357 -0.0571  0.1803  1.0054
  212MOL0     C27857   6.770   9.031   3.489 -0.8748 -0.6123  0.2573
  212MOL0     C27858   6.639   9.057   3.522  0.7364  0.0164 -0.4004
  212MOL0     C27859   6.537   9.049   3.430 -0.0824 -0.3421  0.2136
  212MOL0     O27860   6.421   9.086   3.479  0.6093 -0.0126 -0.6165
  212MOL0     C27861   6.311   9.106   3.394  0.3651  0.4336 -0.0345
  212MOL0     C27862   6.206   9.180   3.486 -0.0985 -0.2809 -0.0075
  212MOL0     C27863   6.162   9.093   3.606 -0.3549  0.0901  0.7523
  212MOL0     C27864   6.085   9.187   3.705  0.1305  0.0447  0.0678
  212MOL0     C27865   5.999   9.109   3.805 -0.1585  0.8083  0.8008
  212MOL0     C27866   6.064   8.986   3.870 -0.4079  0.3680  0.2652
  212MOL0     C27867   5.980   8.908   3.969  0.4299  0.8073 -0.0497
  212MOL0     C27868   5.942   8.980   4.092 -0.1585 -0.3777  0.6214
  212MOL0     N27869   5.844   8.905   4.172  0.9471 -0.0848 -0.0712
  212MOL0     C27870   5.718   8.940   4.196 -0.0704 -0.4840 -0.2645
  212MOL0     C27871   5.678   8.831   4.263  0.5009 -1.4794  0.6761
  212MOL0     C27872   5.543   8.800   4.315  0.3619  0.4758 -0.1061
  212MOL0     C27873   5.458   8.698   4.234 -0.1989 -0.0288 -0.4368
  212MOL0     C27874   5.320   8.679   4.311 -0.2453  0.4228 -0.2633
  212MOL0     C27875   5.229   8.569   4.255 -0.1853  0.1520  0.3196
  212MOL0     O27876   5.110   8.585   4.331 -0.4693  0.3964  0.3896
  212MOL0     C27877   5.000   8.515   4.290  1.2454 -0.0819  0.0319
  212MOL0     C27878   4.964   8.470   4.160 -0.0177 -0.5494  0.0472
  212MOL0     C27879   4.839   8.416   4.122 -0.3101 -0.1003  0.0880
  212MOL0     C27880   4.753   8.391   4.229 -0.0846  0.4425  0.2794
  212MOL0     C27881   4.623   8.330   4.195 -0.3746  0.3693  0.1000
  212MOL0     O27882   4.610   8.264   4.078  0.1699 -0.6052 -0.0675
  212MOL0     C27883   4.502   8.189   4.051 -0.0242 -0.5533  0.6444
  212MOL0     C27884   4.369   8.223   4.093  0.7979  0.1425  0.5111
  212MOL0     C27885   4.257   8.147   4.064 -0.0779  0.9007  0.3819
  212MOL0     C27886   4.269   8.028   3.993 -1.0649  0.1661 -1.1211
  212MOL0     O27887   4.160   7.958   3.966  0.9535  0.2532  0.2085
  212MOL0     C27888   4.165   7.830   3.902 -0.3028 -0.5253  0.1706
  212MOL0     C27889   4.019   7.793   3.867  0.2506  0.0333  0.3576
  212MOL0     C27890   4.011   7.655   3.812  0.6700  0.8646 -0.9685
  212MOL0     C27891   4.026   7.550   3.929  1.0537  0.4270 -0.3014
  212MOL0     C27892   4.011   7.400   3.878  0.1597 -0.0536  0.6057
  212MOL0     C27893   3.864   7.360   3.834  0.2612  0.0136  0.6061
  212MOL0     C27894   3.847   7.212   3.830  0.0342  0.6237  0.1496
  212MOL0     C27895   3.696   7.187   3.785 -0.0598  0.9125 -0.1184
  212MOL0    Cl27896   3.640   7.020   3.807  0.1990 -0.0156 -0.3494
  212MOL0     C27897   4.400   7.988   3.954  1.2224 -0.4329  0.0984
  212MOL0     C27898   4.513   8.070   3.982  0.2229  0.2228 -0.0961
  212MOL0     O27899   4.537   8.324   4.291  0.1238  0.0105  0.0476
  212MOL0     C27900   4.786   8.427   4.363  0.5875 -0.7038 -0.1258
  212MOL0     C27901   4.906   8.490   4.388  1.1022  0.2960  0.2819
  212MOL0     N27902   5.781   8.743   4.272 -0.5703 -0.2264  1.0709
  212MOL0     N27903   5.881   8.791   4.222 -0.6548 -0.9307  0.0690
  212MOL0     C27904   6.569   9.017   3.297 -0.2005  0.3505  0.2205
  212MOL0     C27905   6.705   8.993   3.260  1.1698 -0.7905 -0.2542
  212MOL0     C27906   7.166   9.095   3.324  0.5567 -0.1058  0.7085
  212MOL0     C27907   7.258   9.201   3.335 -0.2317 -0.0493  0.5446
  212MOL0     C27908   7.392   9.185   3.312 -0.2266  0.2665  0.8526
  212MOL0     C27909   7.435   9.074   3.244  0.3102 -0.0041 -0.6571
  212MOL0     O27910   7.572   9.066   3.238  0.2957  0.0728  0.3207
  212MOL0     C27911   7.627   8.938   3.268 -0.0228 -0.1688 -0.4345
  212MOL0     C27912   7.780   8.954   3.237  0.1783  0.0098  0.2651
  212MOL0     C27913   7.807   8.999   3.087 -0.5444 -0.3832  0.5409
  212MOL0     C27914   7.835   8.873   2.997  0.2667  0.2415  0.2089
  212MOL0     C27915   7.719   8.779   2.982  0.6270 -0.4590 -0.3849
  212MOL0     C27916   7.623   8.698   2.978  0.2931 -0.8982  0.4863
  212MOL0     C27917   7.347   8.972   3.203 -0.1124  0.0009 -0.3933
  212MOL0     C27918   7.214   8.977   3.251  0.2920 -0.0175  0.0111
  212MOL0     H27919   6.842   9.034   3.570 -0.6735  0.8121  0.0451
  212MOL0     H27920   6.604   9.081   3.622 -1.2646  1.5893 -1.3806
  212MOL0     H27921   6.275   9.009   3.360  1.4048  0.2523 -0.6593
  212MOL0     H27922   6.336   9.162   3.303 -0.1183 -0.9737 -1.0693
  212MOL0     H27923   6.116   9.201   3.427 -0.3167  0.3101  0.5271
  212MOL0     H27924   6.248   9.273   3.524  1.2177  0.6108 -3.3114
  212MOL0     H27925   6.248   9.039   3.648  1.5351  1.2520 -1.4223
  212MOL0     H27926   6.099   9.012   3.567  1.6985  0.2076 -3.4443
  212MOL0     H27927   6.156   9.250   3.759 -1.7529  0.9193  1.6103
  212MOL0     H27928   6.028   9.251   3.638  1.3166 -3.6653 -5.1671
  212MOL0     H27929   5.917   9.068   3.745  1.5035 -0.4425 -0.7154
  212MOL0     H27930   5.954   9.178   3.878 -0.3703  1.1645  0.3378
  212MOL0     H27931   6.149   9.028   3.925  0.6424  1.7098 -2.2141
  212MOL0     H27932   6.098   8.925   3.786 -1.4182  1.2640 -0.8281
  212MOL0     H27933   5.898   8.864   3.911  0.3775  0.6225  0.1636
  212MOL0     H27934   6.041   8.822   3.999 -0.1701  0.2529 -0.3882
  212MOL0     H27935   5.900   9.078   4.067  2.2076  0.4848 -0.2281
  212MOL0     H27936   6.033   9.009   4.145 -0.0348  2.8472 -1.1128
  212MOL0     H27937   5.654   9.023   4.167 -0.1527  0.4127  2.2401
  212MOL0     H27938   5.483   8.889   4.332  0.6647  1.4339 -3.2771
  212MOL0     H27939   5.568   8.757   4.412  0.9173  1.7796  0.3545
  212MOL0     H27940   5.521   8.609   4.220  2.1023  1.5993 -1.0532
  212MOL0     H27941   5.452   8.745   4.135  2.0996 -2.2717 -1.7897
  212MOL0     H27942   5.328   8.650   4.416 -2.6660 -0.7406 -0.3279
  212MOL0     H27943   5.271   8.775   4.326 -0.7164 -0.1642  2.5995
  212MOL0     H27944   5.276   8.470   4.261  2.2725  1.3230  1.3723
  212MOL0     H27945   5.219   8.587   4.147 -0.5316  1.0846  0.5033
  212MOL0     H27946   5.043   8.481   4.086 -0.8233 -1.4590 -0.9906
  212MOL0     H27947   4.816   8.386   4.020  0.7591 -2.0854  0.3867
  212MOL0     H27948   4.359   8.316   4.148  1.4718 -1.0464  2.7392
  212MOL0     H27949   4.157   8.176   4.096 -0.8380  1.0732 -1.9738
  212MOL0     H27950   4.216   7.758   3.966  1.5571  2.7877  2.7751
  212MOL0     H27951   4.221   7.822   3.808 -1.1007 -3.7882 -0.1424
  212MOL0     H27952   3.985   7.859   3.786  0.4845 -0.9710 -0.5896
  212MOL0     H27953   3.957   7.819   3.953  0.7496  0.6957  0.5230
  212MOL0     H27954   4.094   7.643   3.742  2.1246  0.4480  0.7802
  212MOL0     H27955   3.914   7.641   3.764 -0.8898 -0.9145  2.3986
  212MOL0     H27956   4.128   7.557   3.969  0.4764 -0.4312  1.4340
  212MOL0     H27957   3.956   7.566   4.012  1.9562  0.5604  0.4615
  212MOL0     H27958   4.032   7.332   3.961  2.0541 -1.0300 -0.5992
  212MOL0     H27959   4.086   7.375   3.802  0.9468 -2.3685  2.0305
  212MOL0     H27960   3.847   7.405   3.736  2.2331 -0.4165  0.0031
  212MOL0     H27961   3.793   7.397   3.908 -2.0373 -2.0802 -0.4265
  212MOL0     H27962   3.916   7.170   3.756 -1.3369 -0.2691 -0.6756
  212MOL0     H27963   3.867   7.162   3.925 -0.5593 -0.2375 -0.1628
  212MOL0     H27964   3.683   7.226   3.683 -0.2824 -0.1242 -0.5063
  212MOL0     H27965   3.633   7.248   3.850 -1.0002 -0.7880  0.6464
  212MOL0     H27966   4.415   7.910   3.880  2.3373  0.1983 -0.3729
  212MOL0     H27967   4.614   8.032   3.965 -0.8780 -2.3367 -1.4346
  212MOL0     H27968   4.724   8.406   4.449 -0.5844  0.7534 -0.5742
  212MOL0     H27969   4.933   8.523   4.487  0.8927  2.8995 -0.4479
  212MOL0     H27970   6.487   9.002   3.228  0.0736  2.1244 -0.5406
  212MOL0     H27971   6.729   8.984   3.154  2.0232 -0.8201 -0.0669
  212MOL0     H27972   7.232   9.299   3.374  1.6818  0.1434  1.4666
  212MOL0     H27973   7.468   9.259   3.336 -0.0659 -0.1578  1.7009
  212MOL0     H27974   7.586   8.855   3.209 -1.0131 -0.8187  1.0955
  212MOL0     H27975   7.608   8.924   3.375 -1.5263  0.0212 -0.6465
  212MOL0     H27976   7.818   9.035   3.300  3.9963 -1.7570  0.5040
  212MOL0     H27977   7.834   8.864   3.266 -0.4281  0.1491  1.8889
  212MOL0     H27978   7.901   9.054   3.085 -2.2398  2.9871 -4.2563
  212MOL0     H27979   7.729   9.064   3.045 -0.9294 -0.4678  1.1099
  212MOL0     H27980   7.856   8.915   2.898 -1.4347 -0.9500 -0.7130
  212MOL0     H27981   7.922   8.817   3.033  0.0916 -0.5441 -0.5522
  212MOL0     H27982   7.549   8.620   2.977 -0.2170 -0.4115 -0.9433
  212MOL0     H27983   7.384   8.884   3.151 -3.0029 -1.1911 -0.6484
  212MOL0     H27984   7.145   8.895   3.235 -1.1881  1.4424 -1.5801
  213MOL0     O27985   7.336   7.357   6.384 -0.2925  0.0571  0.0812
  213MOL0     C27986   7.330   7.251   6.449 -0.0770 -0.2872  0.9715
  213MOL0     O27987   7.434   7.185   6.509  0.0642  0.1469 -0.1010
  213MOL0     C27988   7.566   7.230   6.477  0.0913 -0.7974 -0.1774
  213MOL0     C27989   7.608   7.276   6.350 -0.4213 -0.1564  0.1778
  213MOL0     C27990   7.737   7.327   6.342 -0.3885 -0.1697  0.2176
  213MOL0     C27991   7.824   7.344   6.453  0.4171 -0.0531 -0.6493
  213MOL0     O27992   7.963   7.381   6.454  0.9410 -0.1380  0.9902
  213MOL0     C27993   8.015   7.429   6.325 -0.5915  0.1248  0.8167
  213MOL0     C27994   8.139   7.511   6.353  0.0535 -0.6812 -1.0820
  213MOL0     C27995   8.115   7.659   6.413 -0.4539  0.1882 -0.1549
  213MOL0     C27996   8.253   7.702   6.471 -0.4182  0.5876 -0.4031
  213MOL0     C27997   8.335   7.793   6.379 -0.6893  1.0723  0.5487
  213MOL0     C27998   8.448   7.856   6.447 -0.0425 -0.1237 -0.2235
  213MOL0     C27999   8.527   7.945   6.350  0.3434 -0.7859 -0.5168
  213MOL0     C28000   8.654   8.013   6.400 -0.2435  1.2944 -0.3683
  213MOL0     N28001   8.732   8.078   6.294 -0.2048  0.6053 -0.4156
  213MOL0     C28002   8.789   8.204   6.299  0.8922 -0.6196  0.4521
  213MOL0     C28003   8.849   8.215   6.181 -0.1658  0.2810 -0.0914
  213MOL0     C28004   8.938   8.328   6.135  0.4925 -0.3847  0.6678
  213MOL0     C28005   8.881   8.471   6.161 -0.3155  0.6599 -0.3646
  213MOL0     C28006   8.776   8.499   6.046  0.1389  0.9902  0.4824
  213MOL0     C28007   8.658   8.406   6.034  1.5856  0.1925 -0.4237
  213MOL0     O28008   8.568   8.419   6.151 -0.4591 -0.3273 -0.5193
  213MOL0     C28009   8.450   8.345   6.145 -0.6443 -0.5059  1.4357
  213MOL0     C28010   8.399   8.318   6.267 -0.3142 -0.1799  0.1669
  213MOL0     C28011   8.276   8.257   6.278  0.8895  0.0093  0.0616
  213MOL0     C28012   8.193   8.219   6.164 -0.3734 -0.2949 -0.0330
  213MOL0     C28013   8.060   8.151   6.185  0.4472 -1.0360 -0.9682
  213MOL0     O28014   8.019   8.110   6.304 -0.3255 -0.1738 -0.2260
  213MOL0     C28015   7.897   8.042   6.325  0.3473  0.6776 -0.3742
  213MOL0     C28016   7.778   8.036   6.245 -0.6440 -0.5906 -0.4552
  213MOL0     C28017   7.677   7.948   6.288  0.1545  0.3903 -0.7201
  213MOL0     C28018   7.681   7.864   6.397 -1.3937 -0.9748 -0.4034
  213MOL0     O28019   7.571   7.794   6.424 -0.3158  0.2577  0.7754
  213MOL0     C28020   7.570   7.726   6.552 -0.0551 -0.3391  0.9304
  213MOL0     C28021   7.428   7.685   6.592 -0.2314 -0.5133 -0.5264
  213MOL0     C28022   7.450   7.611   6.723  0.5149  0.0152  0.3132
  213MOL0     C28023   7.323   7.534   6.759  0.0816  0.8126 -1.0268
  213MOL0     C28024   7.215   7.622   6.824  0.8166 -0.4012  0.4043
  213MOL0     C28025   7.110   7.550   6.906  0.1943 -0.1171 -0.4868
  213MOL0     C28026   7.007   7.477   6.824 -0.1508  1.1153 -0.5199
  213MOL0     C28027   6.865   7.519   6.857 -0.9652 -0.2778  1.1452
  213MOL0    Cl28028   6.816   7.470   7.010  0.1366 -0.4442 -0.2355
  213MOL0     C28029   7.801   7.868   6.469 -0.7063 -0.0641 -0.5918
  213MOL0     C28030   7.905   7.958   6.437  0.4606  0.4180 -0.1307
  213MOL0     O28031   8.003   8.126   6.081  1.0145  0.7717  0.4337
  213MOL0     C28032   8.252   8.239   6.037 -0.4849  0.1611 -0.1941
  213MOL0     C28033   8.382   8.299   6.026  0.1297  0.6140  0.5655
  213MOL0     N28034   8.821   8.106   6.109  0.1760  0.4323 -0.5122
  213MOL0     N28035   8.746   8.025   6.171 -0.5260  0.0094 -0.3284
  213MOL0     C28036   7.770   7.298   6.578  0.2394 -0.0768  0.2900
  213MOL0     C28037   7.649   7.238   6.588 -0.9877  0.3847 -0.5323
  213MOL0     C28038   7.195   7.198   6.477 -0.4592  0.5116 -0.0012
  213MOL0     C28039   7.084   7.235   6.399  0.1199  0.4727 -0.6874
  213MOL0     C28040   6.956   7.200   6.439  0.2563 -0.0224  0.0909
  213MOL0     C28041   6.924   7.105   6.538  0.0772 -0.9392  0.3924
  213MOL0     O28042   6.798   7.055   6.547 -0.3627  0.1094 -0.3182
  213MOL0     C28043   6.766   6.978   6.667  0.3845 -0.0987  0.1778
  213MOL0     C28044   6.712   7.054   6.791  0.3123 -0.3734 -0.2804
  213MOL0     C28045   6.597   7.152   6.757  0.3225  0.3032 -0.1109
  213MOL0     C28046   6.520   7.216   6.876  0.1142  0.4862 -0.6736
  213MOL0     C28047   6.458   7.117   6.968  0.2696 -0.3513  0.3351
  213MOL0     C28048   6.416   7.038   7.049  1.7981  0.4082 -0.3799
  213MOL0     C28049   7.037   7.070   6.618 -0.6035 -0.6021 -0.1286
  213MOL0     C28050   7.173   7.113   6.585  0.2295  0.0803 -1.0126
  213MOL0     H28051   7.539   7.271   6.266 -1.4196  1.2953  0.8610
  213MOL0     H28052   7.763   7.368   6.245 -2.8360 -0.0866 -0.4722
  213MOL0     H28053   7.945   7.482   6.260  0.4690  0.9941  0.3569
  213MOL0     H28054   8.053   7.349   6.262 -2.2473  0.4956 -0.7386
  213MOL0     H28055   8.186   7.528   6.256 -1.5174  2.3539 -1.4303
  213MOL0     H28056   8.206   7.449   6.414 -0.3545 -0.2290 -0.1594
  213MOL0     H28057   8.055   7.657   6.504  0.7513  0.2681  0.6764
  213MOL0     H28058   8.066   7.714   6.333 -1.3589 -1.2247 -0.6092
  213MOL0     H28059   8.230   7.747   6.567  0.4595 -2.3057  1.3023
  213MOL0     H28060   8.303   7.609   6.503 -1.1136  0.1888 -0.4601
  213MOL0     H28061   8.273   7.866   6.327 -0.6157  2.5140  2.3705
  213MOL0     H28062   8.384   7.725   6.310 -1.8007  0.1847  0.6106
  213MOL0     H28063   8.517   7.786   6.494  0.1429  1.4580  2.0449
  213MOL0     H28064   8.395   7.919   6.518  1.3826  1.0474 -0.1339
  213MOL0     H28065   8.557   7.883   6.266 -1.3520 -1.0401 -0.9765
  213MOL0     H28066   8.465   8.028   6.314  1.5309  0.3823  0.0190
  213MOL0     H28067   8.715   7.933   6.443 -3.8784  0.2310  3.4947
  213MOL0     H28068   8.625   8.079   6.483  0.5098 -0.2998  1.2342
  213MOL0     H28069   8.769   8.284   6.370  0.2862  1.2749 -1.7266
  213MOL0     H28070   8.965   8.316   6.030  2.9360  2.4371  0.8680
  213MOL0     H28071   9.034   8.326   6.188  0.6181  2.3291  0.6713
  213MOL0     H28072   8.960   8.545   6.171  2.1995 -1.8519 -0.4764
  213MOL0     H28073   8.831   8.462   6.258 -0.7084  1.0547 -0.5245
  213MOL0     H28074   8.752   8.605   6.038 -2.6622  0.4117 -0.1265
  213MOL0     H28075   8.825   8.478   5.951  1.1632 -1.3232  1.4499
  213MOL0     H28076   8.693   8.305   6.013  3.1289  0.6205 -0.0439
  213MOL0     H28077   8.606   8.439   5.944  1.0710 -0.4873 -0.3797
  213MOL0     H28078   8.463   8.336   6.353  2.5291  1.5313 -2.1092
  213MOL0     H28079   8.224   8.237   6.371  0.4394 -0.8629 -0.3606
  213MOL0     H28080   7.770   8.080   6.146 -3.0718 -2.1203 -1.0189
  213MOL0     H28081   7.586   7.942   6.229 -1.2873 -0.4611  1.4687
  213MOL0     H28082   7.603   7.797   6.629 -1.7261 -0.1712  1.5335
  213MOL0     H28083   7.635   7.638   6.547  0.1898 -0.1571  0.8652
  213MOL0     H28084   7.381   7.616   6.522 -2.7221  1.8605 -1.3801
  213MOL0     H28085   7.362   7.772   6.602  0.0484 -0.3782  0.2048
  213MOL0     H28086   7.462   7.687   6.801 -1.4297  0.9066 -0.2017
  213MOL0     H28087   7.535   7.542   6.722  1.4537  1.1044  1.5917
  213MOL0     H28088   7.280   7.476   6.677 -2.2906  2.4594 -1.0614
  213MOL0     H28089   7.354   7.461   6.835 -2.6111  0.6253  0.0152
  213MOL0     H28090   7.162   7.686   6.753  2.3955 -0.6439 -1.0720
  213MOL0     H28091   7.273   7.686   6.891  2.0022  1.0239 -1.8757
  213MOL0     H28092   7.053   7.621   6.967  0.0254  0.8257 -1.7162
  213MOL0     H28093   7.170   7.486   6.972  0.3037 -3.2960 -3.4028
  213MOL0     H28094   7.031   7.503   6.721 -0.5546  0.1375 -0.8745
  213MOL0     H28095   7.015   7.368   6.827  1.3561  1.1574 -1.9886
  213MOL0     H28096   6.802   7.474   6.781  0.7725 -0.8510 -0.0237
  213MOL0     H28097   6.862   7.628   6.854  2.0851 -0.0851 -1.8568
  213MOL0     H28098   7.821   7.804   6.555  0.9375 -1.4921 -1.9732
  213MOL0     H28099   8.001   7.950   6.488  0.7909 -1.8085 -1.0006
  213MOL0     H28100   8.201   8.199   5.950  3.7955  1.7951 -3.7951
  213MOL0     H28101   8.438   8.311   5.933 -1.5271  1.8210 -0.3322
  213MOL0     H28102   7.833   7.300   6.667 -0.7684  2.8061  1.0613
  213MOL0     H28103   7.612   7.209   6.686  0.0778 -1.3200 -0.5857
  213MOL0     H28104   7.094   7.294   6.309  2.7852 -0.7845 -1.3103
  213MOL0     H28105   6.877   7.232   6.372 -0.5665 -0.7172  0.6991
  213MOL0     H28106   6.842   6.910   6.706  1.2354  2.6801  3.9321
  213MOL0     H28107   6.685   6.916   6.626  0.9709  0.6044 -2.2153
  213MOL0     H28108   6.682   6.981   6.867 -0.9430  0.8698  0.4485
  213MOL0     H28109   6.799   7.100   6.839 -0.7253 -1.6961  3.1286
  213MOL0     H28110   6.518   7.098   6.704 -3.3158  0.3480  4.5751
  213MOL0     H28111   6.628   7.236   6.693  0.2430  1.2415  1.0364
  213MOL0     H28112   6.597   7.279   6.922 -0.2801  1.4238 -1.2817
  213MOL0     H28113   6.438   7.285   6.856 -0.5892  1.4336  4.2220
  213MOL0     H28114   6.387   6.968   7.125  1.6878  0.0110 -0.7827
  213MOL0     H28115   7.020   6.994   6.694 -0.0506 -0.4896  0.1195
  213MOL0     H28116   7.258   7.074   6.640 -0.0254  0.9290  0.0210
  214MOL0     O28117   0.974   2.165   4.627  0.7121 -0.2072 -0.4859
  214MOL0     C28118   0.957   2.042   4.616  0.4512  0.6226 -0.1704
  214MOL0     O28119   0.836   1.977   4.591 -0.2506  0.5252  0.3547
  214MOL0     C28120   0.729   2.050   4.558 -0.3873 -0.7249 -0.5441
  214MOL0     C28121   0.622   2.054   4.653  0.5969  0.2644  0.1770
  214MOL0     C28122   0.502   2.124   4.624 -1.0394 -0.0639  0.1635
  214MOL0     C28123   0.489   2.176   4.493  0.9988 -0.3485  0.2955
  214MOL0     O28124   0.372   2.244   4.466  0.1171  0.7671 -0.2447
  214MOL0     C28125   0.258   2.156   4.439  0.4885 -0.4523 -1.6649
  214MOL0     C28126   0.152   2.259   4.396 -0.0237  0.1524  0.5940
  214MOL0     C28127   0.027   2.207   4.335 -0.7390 -0.3515 -0.4950
  214MOL0     C28128  -0.057   2.317   4.276 -0.3667 -0.4359 -0.8754
  214MOL0     C28129  -0.187   2.254   4.221  0.2989 -0.1367  0.2399
  214MOL0     C28130  -0.287   2.350   4.152  0.4720  0.9333 -0.0484
  214MOL0     C28131  -0.401   2.280   4.085 -0.1718 -0.7885 -0.3427
  214MOL0     C28132  -0.513   2.248   4.186  0.4123  0.3538 -0.2639
  214MOL0     N28133  -0.637   2.224   4.118  0.0281  0.0416  0.0707
  214MOL0     C28134  -0.712   2.325   4.052 -0.8292 -0.3757 -1.1630
  214MOL0     C28135  -0.828   2.263   4.032 -0.7813 -0.1727 -0.1628
  214MOL0     C28136  -0.946   2.315   3.958  0.4538  0.0736  0.7106
  214MOL0     C28137  -0.958   2.235   3.825  0.2448 -0.2289 -0.1089
  214MOL0     C28138  -1.043   2.310   3.719 -0.9403  0.4044  1.1242
  214MOL0     C28139  -0.966   2.422   3.660  0.6119 -0.6304 -0.7562
  214MOL0     O28140  -1.043   2.525   3.594  0.1381  0.0768  0.2943
  214MOL0     C28141  -1.088   2.493   3.466  0.8033  0.2629 -0.3675
  214MOL0     C28142  -1.053   2.381   3.385  0.0674 -0.2852  0.1863
  214MOL0     C28143  -1.100   2.365   3.252  0.2972  0.6770  0.3276
  214MOL0     C28144  -1.183   2.454   3.188 -0.0813  0.4649 -0.5435
  214MOL0     C28145  -1.246   2.431   3.058  0.5660 -0.4789  0.3725
  214MOL0     O28146  -1.230   2.306   2.996 -0.0031  0.0655  0.1028
  214MOL0     C28147  -1.299   2.275   2.884 -0.6800 -0.0631  0.2805
  214MOL0     C28148  -1.384   2.172   2.881 -0.1033 -0.1408  0.0148
  214MOL0     C28149  -1.457   2.137   2.764 -0.4805  0.1830 -0.5227
  214MOL0     C28150  -1.435   2.209   2.650 -0.1246 -1.1919  0.5013
  214MOL0     O28151  -1.489   2.158   2.534  0.5432 -1.5194  0.0458
  214MOL0     C28152  -1.543   2.254   2.435  0.5831  0.6426  1.2259
  214MOL0     C28153  -1.615   2.175   2.333  0.2913  1.0859 -0.5302
  214MOL0     C28154  -1.515   2.095   2.237 -0.6898  0.7157 -0.6449
  214MOL0     C28155  -1.585   2.011   2.132 -0.2226 -1.1397  0.2814
  214MOL0     C28156  -1.649   2.090   2.014  1.0952  0.1509 -0.1766
  214MOL0     C28157  -1.708   1.982   1.911  0.2169 -0.0450  0.6473
  214MOL0     C28158  -1.794   2.061   1.798  0.4723 -0.6006  0.7075
  214MOL0     C28159  -1.850   1.953   1.697  0.1704 -0.6332 -0.0513
  214MOL0    Cl28160  -1.954   2.039   1.580  0.1786 -0.1399  0.0868
  214MOL0     C28161  -1.358   2.325   2.649 -0.2300  0.4799  0.0929
  214MOL0     C28162  -1.286   2.358   2.767  0.5881 -0.8020 -0.6302
  214MOL0     O28163  -1.306   2.526   2.999  0.4436 -0.4213 -0.9888
  214MOL0     C28164  -1.232   2.556   3.277  0.3823 -0.1237  0.2030
  214MOL0     C28165  -1.180   2.572   3.408 -0.0549  0.0742  0.1182
  214MOL0     N28166  -0.829   2.133   4.094 -0.5762 -0.2024  0.4140
  214MOL0     N28167  -0.718   2.115   4.136  0.0744 -0.1763  0.4242
  214MOL0     C28168   0.594   2.166   4.400  0.1875 -0.1560 -0.0475
  214MOL0     C28169   0.716   2.112   4.433  0.8378 -0.0872  0.1324
  214MOL0     C28170   1.077   1.964   4.630  0.1015 -0.7527 -0.2651
  214MOL0     C28171   1.069   1.832   4.654 -0.8236  0.8091 -0.6804
  214MOL0     C28172   1.179   1.757   4.648  0.4888  0.3333 -0.2018
  214MOL0     C28173   1.308   1.816   4.641  1.1040  0.9201 -0.1168
  214MOL0     O28174   1.390   1.718   4.663 -0.7322  0.3642 -0.9089
  214MOL0     C28175   1.523   1.757   4.694  0.2384  0.6766 -0.2736
  214MOL0     C28176   1.604   1.637   4.747  0.0684  0.6994  0.9968
  214MOL0     C28177   1.750   1.669   4.782 -0.7818  0.3554  0.5798
  214MOL0     C28178   1.812   1.527   4.797  0.2156  0.3885 -0.3048
  214MOL0     C28179   1.958   1.539   4.796 -0.6862  0.0074  0.2196
  214MOL0     C28180   2.078   1.567   4.804 -0.1046 -0.8464 -0.4299
  214MOL0     C28181   1.322   1.956   4.629 -0.0525 -0.8885  0.5718
  214MOL0     C28182   1.201   2.030   4.613 -0.4621 -0.7419  0.6725
  214MOL0     H28183   0.641   2.004   4.748  1.5554  2.1489  1.0492
  214MOL0     H28184   0.421   2.122   4.697 -2.0746  2.0949 -0.8265
  214MOL0     H28185   0.232   2.097   4.528 -4.6141  1.0956 -1.8149
  214MOL0     H28186   0.276   2.085   4.358 -0.7729 -2.0647 -0.5912
  214MOL0     H28187   0.198   2.313   4.313  0.5677 -0.1434  0.7243
  214MOL0     H28188   0.129   2.333   4.473  1.0801  2.9068 -1.5687
  214MOL0     H28189  -0.025   2.139   4.403  3.5254 -2.2147  1.2440
  214MOL0     H28190   0.066   2.147   4.252  1.1463  0.9326 -0.6112
  214MOL0     H28191  -0.084   2.377   4.364 -1.4787 -2.7065  0.4229
  214MOL0     H28192  -0.012   2.383   4.202  0.2603  1.8376  1.3855
  214MOL0     H28193  -0.239   2.194   4.297 -1.8992 -1.6814 -2.3371
  214MOL0     H28194  -0.146   2.200   4.136  1.5775  1.2302 -0.0570
  214MOL0     H28195  -0.230   2.393   4.069  1.9582  0.3800  0.6491
  214MOL0     H28196  -0.324   2.427   4.221  1.1996  1.2281  0.0153
  214MOL0     H28197  -0.435   2.350   4.008  3.3899  0.6914 -0.7587
  214MOL0     H28198  -0.377   2.185   4.035  2.0181  0.7061 -2.3353
  214MOL0     H28199  -0.537   2.332   4.252 -0.5446 -1.1834  1.4298
  214MOL0     H28200  -0.482   2.167   4.251 -2.9146  1.4867  3.0973
  214MOL0     H28201  -0.675   2.420   4.017 -2.8593  0.2797 -1.6275
  214MOL0     H28202  -0.934   2.422   3.935  0.3285 -0.4943 -2.5221
  214MOL0     H28203  -1.039   2.302   4.014  0.1107 -0.8501 -0.0360
  214MOL0     H28204  -1.007   2.140   3.845  1.3371 -0.8883 -0.5102
  214MOL0     H28205  -0.858   2.207   3.793  1.6866  2.1658  1.8918
  214MOL0     H28206  -1.061   2.235   3.641 -0.8769 -0.4662  1.9273
  214MOL0     H28207  -1.142   2.344   3.751 -2.8651 -0.9879 -2.6949
  214MOL0     H28208  -0.886   2.377   3.601  0.6008 -0.0965 -1.1934
  214MOL0     H28209  -0.911   2.471   3.741  0.8062 -2.2718  0.1331
  214MOL0     H28210  -0.987   2.304   3.423  0.6840  1.4863  2.9501
  214MOL0     H28211  -1.078   2.273   3.199 -1.0408  1.3846 -1.5600
  214MOL0     H28212  -1.394   2.105   2.965  0.8497 -2.4351 -1.5961
  214MOL0     H28213  -1.517   2.047   2.765 -1.5211  0.8537  1.0064
  214MOL0     H28214  -1.456   2.291   2.380  0.9142 -2.0692 -0.2678
  214MOL0     H28215  -1.609   2.329   2.479 -0.6031  0.6552 -0.4465
  214MOL0     H28216  -1.679   2.238   2.270 -1.2092 -0.7357 -0.9251
  214MOL0     H28217  -1.685   2.107   2.382 -1.1326  1.8396 -1.4408
  214MOL0     H28218  -1.439   2.040   2.294 -0.0154  0.9739 -1.2741
  214MOL0     H28219  -1.464   2.176   2.184 -0.8836 -0.2297 -2.3420
  214MOL0     H28220  -1.513   1.932   2.109  1.8732  0.3719  1.3298
  214MOL0     H28221  -1.663   1.971   2.196 -1.4483  2.0647  1.0066
  214MOL0     H28222  -1.569   2.149   1.969  0.4609  0.8665 -0.3884
  214MOL0     H28223  -1.720   2.165   2.049 -0.6201 -0.9366 -1.1693
  214MOL0     H28224  -1.779   1.927   1.973  1.9144  0.9404  3.6970
  214MOL0     H28225  -1.640   1.916   1.857  1.0917  1.6182 -0.3667
  214MOL0     H28226  -1.874   2.121   1.844  1.3810  1.4592 -0.2533
  214MOL0     H28227  -1.730   2.139   1.755 -0.9358  0.0519 -0.2733
  214MOL0     H28228  -1.906   1.889   1.766  2.0025 -0.8324  1.3469
  214MOL0     H28229  -1.778   1.892   1.640  1.9474 -1.2494  2.6426
  214MOL0     H28230  -1.350   2.398   2.570  0.6690  1.9386  1.4554
  214MOL0     H28231  -1.220   2.444   2.772 -1.7239  1.0263  2.1603
  214MOL0     H28232  -1.305   2.625   3.235  0.3388 -0.1725  0.1985
  214MOL0     H28233  -1.215   2.650   3.475 -4.6533 -2.4510  1.0826
  214MOL0     H28234   0.575   2.204   4.300 -0.0741  0.1179  0.1044
  214MOL0     H28235   0.791   2.120   4.355 -0.8330  0.9513 -1.4460
  214MOL0     H28236   0.983   1.769   4.675 -1.9673  2.0239 -1.5938
  214MOL0     H28237   1.178   1.648   4.652 -1.2656  0.3317  0.2944
  214MOL0     H28238   1.518   1.841   4.764  0.5268  2.8582 -2.7137
  214MOL0     H28239   1.570   1.790   4.600  1.8555  0.3336  0.3840
  214MOL0     H28240   1.569   1.611   4.847  0.4129  0.9258  1.1777
  214MOL0     H28241   1.599   1.560   4.669  3.2271  1.8207 -0.5017
  214MOL0     H28242   1.755   1.723   4.877 -1.2564  3.7577 -1.1822
  214MOL0     H28243   1.791   1.727   4.698 -3.3947  1.3127 -0.1297
  214MOL0     H28244   1.775   1.483   4.890 -1.0348 -0.2677 -1.0831
  214MOL0     H28245   1.781   1.452   4.724  0.7043 -1.3272  1.1744
  214MOL0     H28246   2.177   1.595   4.832  0.4770 -0.6838 -2.4965
  214MOL0     H28247   1.421   2.000   4.621 -0.1304 -1.0751 -2.0009
  214MOL0     H28248   1.213   2.137   4.593 -1.1253 -0.6894  0.5442
  215MOL0     O28249   9.128   3.877   6.642  0.2017  0.9722 -0.0540
  215MOL0     C28250   9.150   3.795   6.550  0.4278  0.8593  0.4099
  215MOL0     O28251   9.057   3.757   6.458 -0.7385  0.4125  0.2345
  215MOL0     C28252   8.931   3.829   6.470  0.1824  0.6953 -0.5979
  215MOL0     C28253   8.902   3.925   6.366 -0.1358  0.1553  0.0022
  215MOL0     C28254   8.781   3.977   6.368  0.6688  0.6684  0.3207
  215MOL0     C28255   8.685   3.958   6.465  0.3260 -0.0784  0.0794
  215MOL0     O28256   8.578   4.032   6.456  0.4936 -0.3074 -0.5214
  215MOL0     C28257   8.454   3.964   6.476  0.1203  0.5063 -0.0247
  215MOL0     C28258   8.385   4.019   6.599  0.3681  1.0446  0.5013
  215MOL0     C28259   8.302   4.141   6.562  0.2475 -0.7460 -0.8219
  215MOL0     C28260   8.229   4.182   6.698  0.6348 -0.3477 -0.5520
  215MOL0     C28261   8.100   4.250   6.664 -1.3376  0.3076  0.6584
  215MOL0     C28262   8.022   4.283   6.794 -0.0927  0.1903 -0.3280
  215MOL0     C28263   7.883   4.357   6.770 -0.6759 -0.0362 -0.2169
  215MOL0     C28264   7.778   4.257   6.723  0.4473 -0.1297  0.1290
  215MOL0     N28265   7.774   4.142   6.816 -0.4161 -0.7495  0.6207
  215MOL0     C28266   7.723   4.143   6.945  0.6493  0.2683  0.2215
  215MOL0     C28267   7.703   4.018   6.969 -0.2021 -0.4252  0.0242
  215MOL0     C28268   7.649   3.962   7.100 -0.6303 -0.3132  0.3790
  215MOL0     C28269   7.493   3.955   7.096  0.3694 -0.7377  0.5433
  215MOL0     C28270   7.429   4.091   7.112 -0.7581  0.4189 -0.1648
  215MOL0     C28271   7.277   4.083   7.148  0.1686 -0.1428  0.2054
  215MOL0     O28272   7.191   4.038   7.038 -0.1616 -0.7627  0.2045
  215MOL0     C28273   7.053   4.063   7.039 -0.0722 -0.0309  0.1690
  215MOL0     C28274   7.000   4.097   6.917  0.0264 -0.7772  0.8536
  215MOL0     C28275   6.871   4.127   6.907  0.2970 -0.7054 -0.4029
  215MOL0     C28276   6.785   4.119   7.014  0.5766 -0.0349  0.5383
  215MOL0     C28277   6.633   4.147   6.999 -0.3177 -0.8520  0.2552
  215MOL0     O28278   6.565   4.185   7.107 -0.6678  0.2685 -0.3330
  215MOL0     C28279   6.428   4.183   7.113  0.3128 -0.4877  0.1296
  215MOL0     C28280   6.342   4.098   7.035 -0.5368  0.3206 -0.2442
  215MOL0     C28281   6.208   4.113   7.024 -0.5406 -0.3441 -0.7672
  215MOL0     C28282   6.151   4.215   7.097 -0.4351  0.1024  0.4689
  215MOL0     O28283   6.012   4.235   7.112 -0.0096 -0.5120  0.1288
  215MOL0     C28284   5.925   4.159   7.030  0.1552 -0.6332  0.6170
  215MOL0     C28285   5.781   4.215   7.037 -0.2699  0.7624  0.7012
  215MOL0     C28286   5.693   4.154   6.935  1.8636 -0.0325 -0.0682
  215MOL0     C28287   5.547   4.138   6.980 -0.1557  0.0277 -0.6984
  215MOL0     C28288   5.461   4.090   6.868 -0.2881 -1.0459 -0.3170
  215MOL0     C28289   5.317   4.094   6.928 -0.5762 -0.0792 -0.4639
  215MOL0     C28290   5.214   4.030   6.835 -0.3704 -0.8904  0.3336
  215MOL0     C28291   5.082   4.038   6.899 -0.0996 -1.1944 -1.1862
  215MOL0    Cl28292   5.077   3.995   7.072  0.0143  0.1183 -0.0289
  215MOL0     C28293   6.229   4.291   7.179 -0.1237 -0.5525 -0.2862
  215MOL0     C28294   6.361   4.279   7.182 -1.2085  0.1231 -0.1264
  215MOL0     O28295   6.595   4.152   6.881  0.4787  0.0103  0.0021
  215MOL0     C28296   6.842   4.096   7.140  0.3708  0.0558  0.4658
  215MOL0     C28297   6.977   4.070   7.156  0.2799  0.2020 -0.6728
  215MOL0     N28298   7.735   3.939   6.862  0.2937  0.4895 -0.0316
  215MOL0     N28299   7.786   4.019   6.772 -0.2088  0.2879  0.2808
  215MOL0     C28300   8.708   3.868   6.575  0.0352 -0.6169  0.4153
  215MOL0     C28301   8.830   3.800   6.572 -0.0384  0.0008  0.1196
  215MOL0     C28302   9.283   3.736   6.538 -0.7833  0.0806  0.2593
  215MOL0     C28303   9.303   3.631   6.442 -0.1397  0.1788  0.3982
  215MOL0     C28304   9.432   3.575   6.420  0.3374  0.0043 -0.0833
  215MOL0     C28305   9.537   3.633   6.500 -0.3698  0.1529 -0.4662
  215MOL0     O28306   9.669   3.583   6.499 -0.0180  0.4561 -0.0848
  215MOL0     C28307   9.697   3.451   6.451  0.1694  0.0588  0.7524
  215MOL0     C28308   9.845   3.423   6.486 -0.2850 -0.5886 -0.7264
  215MOL0     C28309   9.856   3.307   6.587 -0.1899  0.1818 -0.3612
  215MOL0     C28310   9.977   3.333   6.684 -0.3756 -1.2021 -0.6467
  215MOL0     C28311  10.002   3.222   6.775  0.7496  0.0874 -0.5437
  215MOL0     C28312  10.033   3.137   6.852 -0.0503  1.0711 -0.0545
  215MOL0     C28313   9.521   3.733   6.591 -0.2075 -0.1776  0.5781
  215MOL0     C28314   9.393   3.784   6.606  0.1611 -0.2780  0.3903
  215MOL0     H28315   8.970   3.958   6.289 -1.0194 -0.2320 -0.9589
  215MOL0     H28316   8.757   4.029   6.276  0.8913  0.7476  0.3049
  215MOL0     H28317   8.480   3.861   6.502  1.8206  1.0269  0.4396
  215MOL0     H28318   8.385   3.983   6.394 -2.4911 -2.8448  1.1613
  215MOL0     H28319   8.457   4.026   6.682  0.9172 -3.7436  0.7001
  215MOL0     H28320   8.315   3.946   6.638  2.1225 -1.3055 -0.5341
  215MOL0     H28321   8.226   4.113   6.488 -3.5639 -0.0873  2.5012
  215MOL0     H28322   8.356   4.228   6.524  1.1649 -0.0709  1.8091
  215MOL0     H28323   8.201   4.093   6.755 -2.0443  1.1065  0.6015
  215MOL0     H28324   8.288   4.237   6.771  0.6063 -0.2338 -0.6142
  215MOL0     H28325   8.034   4.194   6.597 -1.0628  0.4876  0.2267
  215MOL0     H28326   8.115   4.344   6.608 -0.8182 -0.8042 -1.1602
  215MOL0     H28327   8.083   4.356   6.848 -0.9353  1.8121 -1.4772
  215MOL0     H28328   8.010   4.191   6.852 -1.3710  2.3682  3.1518
  215MOL0     H28329   7.848   4.388   6.869 -2.7618 -0.9869 -0.6022
  215MOL0     H28330   7.890   4.447   6.708 -1.7976 -0.8999 -1.6601
  215MOL0     H28331   7.804   4.223   6.622 -1.7701  0.8904 -0.8457
  215MOL0     H28332   7.680   4.303   6.712  0.6191  0.0454 -0.7620
  215MOL0     H28333   7.704   4.229   7.009  2.5266  0.8128  0.0899
  215MOL0     H28334   7.668   4.020   7.190 -0.5083 -0.6278  0.5587
  215MOL0     H28335   7.694   3.864   7.119  3.0842  0.6142 -2.3660
  215MOL0     H28336   7.455   3.905   7.186 -1.9240  1.9029  1.1807
  215MOL0     H28337   7.461   3.897   7.010 -1.6490 -1.7919  1.9302
  215MOL0     H28338   7.478   4.130   7.202 -2.5513  0.1726  0.9774
  215MOL0     H28339   7.445   4.154   7.024  0.2420  1.8934  1.0226
  215MOL0     H28340   7.246   4.183   7.180 -1.3850 -0.0693 -1.3561
  215MOL0     H28341   7.264   4.024   7.239  3.8919  0.8401  1.5722
  215MOL0     H28342   7.064   4.097   6.829 -2.2675 -0.6669 -0.9060
  215MOL0     H28343   6.840   4.169   6.812 -3.9134  0.6338  1.3157
  215MOL0     H28344   6.390   4.033   6.962  0.3075  0.0629  0.5324
  215MOL0     H28345   6.148   4.041   6.968  0.1059 -2.8368  1.5408
  215MOL0     H28346   5.928   4.058   7.071  1.4986 -0.7948  0.1435
  215MOL0     H28347   5.960   4.157   6.926  2.0963 -0.5885  1.2340
  215MOL0     H28348   5.786   4.324   7.035 -0.7342  0.7779  0.2650
  215MOL0     H28349   5.732   4.183   7.130 -1.2709  1.8399  0.5574
  215MOL0     H28350   5.733   4.058   6.902  2.1476  0.7014 -1.9884
  215MOL0     H28351   5.678   4.217   6.847 -1.3965 -0.0812  0.3156
  215MOL0     H28352   5.537   4.066   7.062  3.3799 -0.8898 -0.9421
  215MOL0     H28353   5.511   4.233   7.022 -1.6900 -0.8135 -0.0246
  215MOL0     H28354   5.496   3.991   6.836  2.2126 -0.7020  1.1285
  215MOL0     H28355   5.457   4.159   6.782 -3.3209 -1.0190 -0.2872
  215MOL0     H28356   5.281   4.195   6.951 -0.5766  0.1307 -1.3639
  215MOL0     H28357   5.311   4.032   7.018 -1.2117  0.4084 -0.1600
  215MOL0     H28358   5.207   4.072   6.734 -0.2745  0.1244  0.7388
  215MOL0     H28359   5.233   3.923   6.828  0.5100 -0.6176 -3.0274
  215MOL0     H28360   5.014   3.976   6.840  0.1072 -3.5004  0.8660
  215MOL0     H28361   5.046   4.142   6.905 -1.8190 -1.8000 -0.5322
  215MOL0     H28362   6.176   4.364   7.239  2.6177  3.0578 -1.8512
  215MOL0     H28363   6.429   4.327   7.252  3.1294 -3.6671 -1.2310
  215MOL0     H28364   6.772   4.095   7.223  0.0158 -3.9690  0.3429
  215MOL0     H28365   7.016   4.057   7.256 -1.7597  1.3175  0.3342
  215MOL0     H28366   8.636   3.864   6.656 -0.8109  0.9292 -0.2150
  215MOL0     H28367   8.872   3.719   6.632 -0.8100 -2.3267 -2.3221
  215MOL0     H28368   9.225   3.604   6.370  1.6037 -0.8472 -1.1864
  215MOL0     H28369   9.445   3.507   6.336 -2.0891  3.0894 -3.3042
  215MOL0     H28370   9.692   3.440   6.342  0.2597 -0.1488  0.7691
  215MOL0     H28371   9.627   3.381   6.497 -1.9506  0.8674 -1.0165
  215MOL0     H28372   9.902   3.398   6.396 -0.5276  0.8110 -1.2949
  215MOL0     H28373   9.895   3.513   6.526  0.2105 -0.4341 -1.6666
  215MOL0     H28374   9.879   3.219   6.526  0.2390 -0.3535  0.5554
  215MOL0     H28375   9.758   3.294   6.634 -0.8869 -0.7062 -1.9708
  215MOL0     H28376  10.068   3.358   6.628 -0.0858  0.4817  0.5102
  215MOL0     H28377   9.929   3.414   6.739 -0.5949 -0.5030 -1.8337
  215MOL0     H28378  10.057   3.059   6.920  3.1280  0.1485 -2.0219
  215MOL0     H28379   9.607   3.766   6.649  0.9126 -2.7633  0.5408
  215MOL0     H28380   9.385   3.873   6.669 -0.2327  1.8278 -2.4573
  216MOL0     O28381  10.807   0.885   4.002  0.3946  0.0843  0.2621
  216MOL0     C28382  10.816   0.840   4.115 -0.2628  0.7215  0.6407
  216MOL0     O28383  10.713   0.782   4.187 -0.1128 -0.9362  0.3124
  216MOL0     C28384  10.592   0.782   4.125 -0.6862 -0.0626 -0.6692
  216MOL0     C28385  10.555   0.660   4.060 -0.2138  0.6734 -0.4758
  216MOL0     C28386  10.430   0.635   4.010 -0.2047  0.0734 -1.5891
  216MOL0     C28387  10.327   0.731   4.024  0.7367 -0.1836 -1.6404
  216MOL0     O28388  10.198   0.712   3.974 -0.2036  0.0701 -0.7392
  216MOL0     C28389  10.142   0.585   3.924 -1.1302 -0.2767  0.0322
  216MOL0     C28390   9.989   0.580   3.920  0.5294  0.3531  0.3490
  216MOL0     C28391   9.929   0.693   3.839 -0.0214  0.3083  0.1185
  216MOL0     C28392   9.780   0.672   3.842  0.4592 -1.2771  0.2851
  216MOL0     C28393   9.711   0.783   3.758  0.1882 -0.4447  0.0085
  216MOL0     C28394   9.558   0.811   3.771 -0.2209 -0.5388  0.0048
  216MOL0     C28395   9.471   0.685   3.749 -0.5201  0.1313 -0.5760
  216MOL0     C28396   9.523   0.614   3.626  0.5739  1.0327  0.9720
  216MOL0     N28397   9.424   0.509   3.613  0.3899  0.8727 -0.4849
  216MOL0     C28398   9.282   0.505   3.614  0.0181 -0.9792  0.3748
  216MOL0     C28399   9.239   0.379   3.588  0.1450  0.8675 -0.0605
  216MOL0     C28400   9.094   0.346   3.578  0.2355  0.8262 -0.1140
  216MOL0     C28401   9.074   0.205   3.646  0.9817 -0.0790 -0.7606
  216MOL0     C28402   9.078   0.207   3.801  0.1122  0.0920 -0.4710
  216MOL0     C28403   9.054   0.064   3.853 -0.2478  0.1739 -0.1890
  216MOL0     O28404   8.943   0.000   3.792  0.1029 -0.1489 -1.0051
  216MOL0     C28405   8.814   0.048   3.806  0.0301  0.5789 -0.3484
  216MOL0     C28406   8.736   0.011   3.704 -0.3445  0.6593 -0.2206
  216MOL0     C28407   8.603   0.062   3.690  0.2573  0.2193  0.0609
  216MOL0     C28408   8.547   0.146   3.784  0.0491  0.5861 -0.1593
  216MOL0     C28409   8.408   0.195   3.783  0.9128  0.2299  0.1642
  216MOL0     O28410   8.327   0.125   3.702 -0.4344  0.1061  0.5781
  216MOL0     C28411   8.195   0.155   3.679 -0.5642 -0.7047  0.0405
  216MOL0     C28412   8.111   0.225   3.769  0.2799 -0.7892 -1.1509
  216MOL0     C28413   7.977   0.237   3.742  0.4706  0.2522  1.0247
  216MOL0     C28414   7.920   0.186   3.625  0.0889  0.6977  0.0357
  216MOL0     O28415   7.783   0.198   3.620  0.4940 -0.0942 -0.0017
  216MOL0     C28416   7.723   0.169   3.491 -1.1654 -0.0740  0.0570
  216MOL0     C28417   7.571   0.181   3.490 -0.4174 -0.0410 -0.0738
  216MOL0     C28418   7.536   0.320   3.555  0.0540 -0.7417 -0.0527
  216MOL0     C28419   7.387   0.332   3.534  0.1756  0.5005 -0.0154
  216MOL0     C28420   7.320   0.444   3.610 -0.1215 -0.1063  0.0473
  216MOL0     C28421   7.370   0.583   3.571  0.5888 -0.4465  1.1615
  216MOL0     C28422   7.305   0.686   3.661  0.3198  0.0804 -0.0148
  216MOL0     C28423   7.278   0.830   3.613  0.3049  0.6995  0.0482
  216MOL0    Cl28424   7.424   0.894   3.545  0.2469  0.2556  0.0564
  216MOL0     C28425   8.002   0.103   3.550 -0.5859 -0.1832  0.4338
  216MOL0     C28426   8.138   0.090   3.578  1.6574 -0.2389 -0.0609
  216MOL0     O28427   8.373   0.302   3.840 -0.3378  0.0288  0.4519
  216MOL0     C28428   8.633   0.169   3.896  0.8027 -0.4976 -0.4832
  216MOL0     C28429   8.770   0.140   3.897  0.5012 -0.0241 -0.9582
  216MOL0     N28430   9.350   0.299   3.585  1.0097 -0.2092  0.2557
  216MOL0     N28431   9.458   0.377   3.596  0.4928  0.9044 -0.0653
  216MOL0     C28432  10.360   0.850   4.093  0.0126 -0.7756  0.0282
  216MOL0     C28433  10.488   0.875   4.147  0.2694  1.1006 -0.3464
  216MOL0     C28434  10.936   0.859   4.193  0.6646  0.1693  0.0912
  216MOL0     C28435  10.954   0.776   4.306 -0.6673  0.1927  0.0524
  216MOL0     C28436  11.076   0.781   4.384  0.0322  0.0900  0.4365
  216MOL0     C28437  11.173   0.862   4.339 -0.2242  0.1811  1.4765
  216MOL0     O28438  11.294   0.884   4.410 -1.0908  0.6045 -0.1158
  216MOL0     C28439  11.329   0.796   4.515 -0.2343  0.4407  0.1155
  216MOL0     C28440  11.453   0.842   4.581 -0.1195 -0.1385 -0.6382
  216MOL0     C28441  11.576   0.777   4.507  0.1530  0.6641 -0.0797
  216MOL0     C28442  11.704   0.846   4.544  0.5329 -0.0695 -0.0923
  216MOL0     C28443  11.749   0.803   4.678 -0.6662  0.1420  1.4047
  216MOL0     C28444  11.805   0.766   4.779 -0.0412  0.2847 -0.2701
  216MOL0     C28445  11.163   0.949   4.222 -0.6013  0.4297 -0.6333
  216MOL0     C28446  11.046   0.935   4.141  0.1807 -0.1606 -0.7442
  216MOL0     H28447  10.642   0.594   4.054  1.7259  2.8676  1.4365
  216MOL0     H28448  10.410   0.544   3.954 -2.3094 -0.9026  0.5681
  216MOL0     H28449  10.183   0.509   3.991 -0.0953  1.8769  1.9667
  216MOL0     H28450  10.175   0.574   3.820 -1.8362  0.6169 -0.2957
  216MOL0     H28451   9.939   0.585   4.017 -3.6420 -1.9203 -1.4237
  216MOL0     H28452   9.965   0.482   3.879 -2.3936  1.6821 -1.4197
  216MOL0     H28453   9.972   0.685   3.738 -0.0963  1.6227 -0.0408
  216MOL0     H28454   9.967   0.787   3.878 -1.6173  2.1623 -2.4362
  216MOL0     H28455   9.748   0.577   3.799 -2.3200  0.3579 -1.5226
  216MOL0     H28456   9.753   0.684   3.947  0.1488  1.5962 -0.0610
  216MOL0     H28457   9.730   0.775   3.651 -0.8838  2.8794 -0.5496
  216MOL0     H28458   9.773   0.870   3.782  0.2403 -0.0082 -1.5793
  216MOL0     H28459   9.535   0.895   3.704 -2.5064  1.0638  2.5706
  216MOL0     H28460   9.531   0.851   3.869 -2.7254 -3.3107  0.5797
  216MOL0     H28461   9.461   0.624   3.839 -2.7350 -0.3918 -1.1274
  216MOL0     H28462   9.367   0.714   3.732 -0.8513 -0.2824  0.6582
  216MOL0     H28463   9.616   0.563   3.650 -0.5560 -0.1412  3.1905
  216MOL0     H28464   9.534   0.679   3.539  0.8611  0.7518  0.7997
  216MOL0     H28465   9.214   0.588   3.628  0.0326 -0.7034 -1.0492
  216MOL0     H28466   9.056   0.347   3.476  1.8521 -1.4574 -0.8236
  216MOL0     H28467   9.027   0.408   3.638 -0.7710 -0.3142 -0.0177
  216MOL0     H28468   9.140   0.131   3.599  0.1410 -1.8283  0.6802
  216MOL0     H28469   8.969   0.179   3.630  0.7262  0.8440 -0.6269
  216MOL0     H28470   9.179   0.235   3.834  0.3793 -1.2319 -0.1226
  216MOL0     H28471   9.007   0.280   3.840  1.0007  0.1996  1.0277
  216MOL0     H28472   9.038   0.057   3.961 -0.2167 -3.6626 -0.2859
  216MOL0     H28473   9.140  -0.002   3.835  0.4830  0.5779  1.5282
  216MOL0     H28474   8.774  -0.060   3.631  2.1829  1.4378  0.2607
  216MOL0     H28475   8.547   0.033   3.601 -2.3528 -0.9272  1.9209
  216MOL0     H28476   8.143   0.258   3.867  0.8211  0.9206 -1.8660
  216MOL0     H28477   7.905   0.292   3.802 -1.5990  0.2399 -1.2992
  216MOL0     H28478   7.736   0.072   3.442 -2.3117 -0.3194  0.1939
  216MOL0     H28479   7.762   0.252   3.432 -0.7548  2.3723  3.4788
  216MOL0     H28480   7.515   0.102   3.541 -1.0918  1.4328  1.5657
  216MOL0     H28481   7.538   0.177   3.386  0.2466  0.7538 -0.3241
  216MOL0     H28482   7.593   0.400   3.506 -1.9526 -0.2946 -1.8227
  216MOL0     H28483   7.553   0.321   3.663 -0.4632 -2.1235  0.0625
  216MOL0     H28484   7.375   0.347   3.427  3.5559 -0.6332 -0.6765
  216MOL0     H28485   7.351   0.233   3.560  0.5332  0.1134 -0.9632
  216MOL0     H28486   7.331   0.429   3.718 -0.0480 -2.7894 -0.2551
  216MOL0     H28487   7.213   0.456   3.589 -0.6039 -1.4044  1.5144
  216MOL0     H28488   7.343   0.598   3.466  2.5665  0.8169  0.7674
  216MOL0     H28489   7.478   0.596   3.582  0.8240  0.8277 -1.7186
  216MOL0     H28490   7.201   0.658   3.681 -1.0328  3.6765 -1.2320
  216MOL0     H28491   7.348   0.677   3.761 -0.5302 -0.4632  0.3128
  216MOL0     H28492   7.250   0.906   3.687  0.6010  1.7301 -0.8748
  216MOL0     H28493   7.203   0.836   3.534  0.1101  0.8816  0.2447
  216MOL0     H28494   7.967   0.050   3.462 -2.4325  0.0376  0.9977
  216MOL0     H28495   8.171   0.009   3.515 -1.4276 -1.0981 -0.7616
  216MOL0     H28496   8.591   0.225   3.980  0.2062  3.0830 -2.9405
  216MOL0     H28497   8.829   0.179   3.979 -0.0308 -1.9457  0.3989
  216MOL0     H28498  10.290   0.929   4.114  0.2960 -0.4331 -0.3052
  216MOL0     H28499  10.512   0.965   4.201  0.7498  0.9043 -0.2302
  216MOL0     H28500  10.881   0.705   4.342  1.8782 -1.9331  1.3935
  216MOL0     H28501  11.089   0.702   4.458  3.4469  1.8548  1.9209
  216MOL0     H28502  11.346   0.693   4.480 -1.1991  0.0238  0.8331
  216MOL0     H28503  11.256   0.790   4.597  2.3988 -0.8444  2.5792
  216MOL0     H28504  11.461   0.951   4.581  0.0269 -0.1510 -0.4042
  216MOL0     H28505  11.471   0.806   4.682  0.7589  1.7183 -0.0932
  216MOL0     H28506  11.570   0.772   4.398  0.7372 -2.0303 -0.0502
  216MOL0     H28507  11.575   0.670   4.528  0.1870  1.0755  2.2790
  216MOL0     H28508  11.789   0.831   4.477 -0.8419  2.4839 -2.6326
  216MOL0     H28509  11.686   0.954   4.534 -1.6111 -0.3649  0.1036
  216MOL0     H28510  11.855   0.716   4.860  0.2550 -2.9885 -2.3026
  216MOL0     H28511  11.242   1.019   4.197 -0.3721  0.2596 -0.3871
  216MOL0     H28512  11.030   0.994   4.051 -1.0462  1.3201  0.3847
  217MOL0     O28513   0.544   4.659   3.481 -0.7061  0.4696  0.5407
  217MOL0     C28514   0.623   4.584   3.426 -0.0523 -0.5964  0.0116
  217MOL0     O28515   0.591   4.481   3.348  0.2600 -1.1965  0.4972
  217MOL0     C28516   0.458   4.458   3.333 -0.4700  0.1112 -0.4604
  217MOL0     C28517   0.430   4.332   3.366 -0.3858 -0.0590  0.2944
  217MOL0     C28518   0.300   4.288   3.353 -0.1880  0.7446  0.8661
  217MOL0     C28519   0.197   4.370   3.306  0.7288 -0.6435  0.0472
  217MOL0     O28520   0.067   4.321   3.272 -0.7067 -0.2646  0.0411
  217MOL0     C28521   0.017   4.197   3.329 -0.5035 -0.3011 -0.6543
  217MOL0     C28522  -0.129   4.184   3.288 -0.1447  0.7535 -0.2703
  217MOL0     C28523  -0.212   4.158   3.410 -0.4927 -0.0120 -0.1678
  217MOL0     C28524  -0.351   4.108   3.360  0.1460  0.6150 -0.1026
  217MOL0     C28525  -0.448   4.085   3.485 -0.2802 -0.4776 -0.2206
  217MOL0     C28526  -0.594   4.083   3.435 -0.2521 -0.3277  0.9793
  217MOL0     C28527  -0.697   4.076   3.548 -0.5349 -0.1246 -0.3813
  217MOL0     C28528  -0.682   3.967   3.646 -0.8084  0.1175  0.5873
  217MOL0     N28529  -0.791   3.999   3.743  0.2363  0.0164  0.2903
  217MOL0     C28530  -0.928   3.961   3.740  0.3583  0.3458 -0.3019
  217MOL0     C28531  -0.987   4.046   3.826  0.1765 -0.2847  0.1064
  217MOL0     C28532  -1.133   4.064   3.853 -0.0528 -0.3002 -0.5717
  217MOL0     C28533  -1.191   3.931   3.877 -0.2047  0.4786  1.2489
  217MOL0     C28534  -1.314   3.916   3.976  0.2078 -0.7190  0.0988
  217MOL0     C28535  -1.403   4.039   3.955 -0.0113 -0.1624 -0.8288
  217MOL0     O28536  -1.446   4.082   3.823 -0.3240  0.8862 -0.0379
  217MOL0     C28537  -1.515   3.991   3.746 -0.0869  0.2966 -0.7799
  217MOL0     C28538  -1.483   3.997   3.617 -0.6504  0.5336  0.6148
  217MOL0     C28539  -1.530   3.913   3.519 -0.6255  0.2746  0.5442
  217MOL0     C28540  -1.624   3.813   3.558 -0.0167  0.1107 -0.7729
  217MOL0     C28541  -1.685   3.726   3.461  0.2144  0.1948  0.2813
  217MOL0     O28542  -1.807   3.672   3.499 -0.3085  0.6867  0.6606
  217MOL0     C28543  -1.882   3.613   3.396  0.2906 -0.0657 -0.3806
  217MOL0     C28544  -1.839   3.509   3.307 -0.3961  0.6499 -0.2572
  217MOL0     C28545  -1.928   3.447   3.222  0.0679  0.2696 -0.1986
  217MOL0     C28546  -2.068   3.473   3.237  0.0895 -0.7879  0.1382
  217MOL0     O28547  -2.169   3.413   3.161 -0.9337  0.2107 -0.1794
  217MOL0     C28548  -2.134   3.311   3.068  0.3165 -0.1016 -0.1195
  217MOL0     C28549  -2.263   3.239   3.045  0.0416 -0.2250  0.5137
  217MOL0     C28550  -2.358   3.329   2.975  0.0210  0.3746 -0.0936
  217MOL0     C28551  -2.498   3.265   2.948 -1.0431 -0.4628  0.0517
  217MOL0     C28552  -2.588   3.367   2.875 -0.1475  0.0484 -0.7097
  217MOL0     C28553  -2.712   3.311   2.795  0.1615  0.0055 -0.4094
  217MOL0     C28554  -2.828   3.265   2.886  1.2071  0.1524 -0.2484
  217MOL0     C28555  -2.947   3.272   2.804 -0.2294  1.0365 -0.1168
  217MOL0    Cl28556  -3.086   3.206   2.901  0.2483  0.4637  0.1478
  217MOL0     C28557  -2.104   3.577   3.322 -0.2978 -0.2585 -0.1646
  217MOL0     C28558  -2.009   3.651   3.398  0.7311  0.3670 -0.3059
  217MOL0     O28559  -1.628   3.713   3.351  0.0572  0.4912  0.6942
  217MOL0     C28560  -1.661   3.801   3.696  1.1463 -0.4976 -0.5864
  217MOL0     C28561  -1.602   3.888   3.790  0.5875 -0.1524  0.4281
  217MOL0     N28562  -0.892   4.117   3.901 -1.1237  0.5075  0.5963
  217MOL0     N28563  -0.780   4.088   3.845  0.0463  0.6409 -0.4402
  217MOL0     C28564   0.229   4.504   3.284  0.2002  0.2886 -0.3181
  217MOL0     C28565   0.360   4.549   3.289  0.1683 -0.2369  0.2380
  217MOL0     C28566   0.764   4.628   3.437 -0.4915 -0.4032 -0.6750
  217MOL0     C28567   0.793   4.752   3.505 -0.0341  0.3253 -0.3994
  217MOL0     C28568   0.912   4.809   3.496  0.0572  0.9493  0.5131
  217MOL0     C28569   1.027   4.743   3.435  0.1403  1.3750  0.4044
  217MOL0     O28570   1.151   4.806   3.435  0.0227 -0.0511 -0.6340
  217MOL0     C28571   1.243   4.751   3.345 -0.1055 -0.0289 -0.7515
  217MOL0     C28572   1.364   4.847   3.352  0.3844 -0.1305  0.1754
  217MOL0     C28573   1.489   4.806   3.287 -0.3716  0.2752  0.8590
  217MOL0     C28574   1.579   4.925   3.279 -0.0762 -0.4468  0.2604
  217MOL0     C28575   1.696   4.876   3.205  0.4095  0.5684  0.5101
  217MOL0     C28576   1.792   4.824   3.141  0.4155  0.1986  0.1585
  217MOL0     C28577   0.998   4.608   3.378 -0.2336 -0.2443  0.3304
  217MOL0     C28578   0.865   4.556   3.372 -0.6564  1.0149 -0.2090
  217MOL0     H28579   0.513   4.273   3.404  0.6756  1.5367  0.5475
  217MOL0     H28580   0.280   4.184   3.376 -1.6509  0.1188 -2.6118
  217MOL0     H28581   0.029   4.185   3.437  5.5318 -2.2429 -1.1621
  217MOL0     H28582   0.071   4.111   3.288  1.2223  0.4259 -0.0056
  217MOL0     H28583  -0.138   4.098   3.221  0.3448  0.8125 -0.4154
  217MOL0     H28584  -0.153   4.278   3.237  1.1021  0.8003 -0.7986
  217MOL0     H28585  -0.212   4.245   3.476  0.4740 -0.4859  0.4707
  217MOL0     H28586  -0.167   4.080   3.472  3.0033  0.3559 -1.9367
  217MOL0     H28587  -0.399   4.188   3.302 -1.4817 -1.8984 -2.4308
  217MOL0     H28588  -0.345   4.018   3.298 -0.0347  1.3813 -1.2660
  217MOL0     H28589  -0.441   4.165   3.559 -1.7129 -1.4829  1.0567
  217MOL0     H28590  -0.421   3.993   3.537 -0.1878  0.2056  0.9691
  217MOL0     H28591  -0.607   3.988   3.382  2.3433 -0.7376  0.9458
  217MOL0     H28592  -0.625   4.169   3.375  0.0496 -0.9464 -0.0815
  217MOL0     H28593  -0.706   4.170   3.604 -2.2412 -2.4198  3.6771
  217MOL0     H28594  -0.791   4.051   3.497  0.9314 -2.0652 -2.3054
  217MOL0     H28595  -0.581   3.965   3.689 -0.2719  1.6124 -0.5047
  217MOL0     H28596  -0.702   3.874   3.592 -1.9651  0.5934  0.1775
  217MOL0     H28597  -0.986   3.898   3.674 -0.6468  0.9228  0.0046
  217MOL0     H28598  -1.178   4.113   3.765 -0.1785 -1.2047 -1.0223
  217MOL0     H28599  -1.150   4.112   3.950 -0.7203 -2.0641  0.2209
  217MOL0     H28600  -1.116   3.859   3.912 -2.8236 -1.7791  2.5324
  217MOL0     H28601  -1.226   3.901   3.778  1.8088 -2.3888  1.2882
  217MOL0     H28602  -1.365   3.820   3.961 -1.9798  0.5020 -0.7068
  217MOL0     H28603  -1.264   3.923   4.073  1.0186  0.9985 -0.3941
  217MOL0     H28604  -1.363   4.135   3.990  0.4222 -0.3204 -0.8949
  217MOL0     H28605  -1.490   4.029   4.021  0.1523  0.1002 -0.5699
  217MOL0     H28606  -1.418   4.078   3.584 -0.3337  1.3990  3.1049
  217MOL0     H28607  -1.497   3.924   3.416 -0.2558 -0.7343  0.5490
  217MOL0     H28608  -1.735   3.481   3.317  0.1910  2.5880 -0.4666
  217MOL0     H28609  -1.892   3.368   3.156  2.6357 -1.6236  3.1392
  217MOL0     H28610  -2.082   3.234   3.126 -0.7046 -0.9894 -0.3382
  217MOL0     H28611  -2.077   3.323   2.976  1.4182 -0.9782  0.4279
  217MOL0     H28612  -2.300   3.204   3.142  0.6065  0.4143  0.9735
  217MOL0     H28613  -2.237   3.153   2.983 -1.1636  1.8783 -3.1855
  217MOL0     H28614  -2.313   3.359   2.880  1.6756 -1.8505 -0.1071
  217MOL0     H28615  -2.389   3.415   3.035 -1.3122  1.2528 -1.9505
  217MOL0     H28616  -2.495   3.169   2.895 -2.4482 -2.0333  2.6116
  217MOL0     H28617  -2.533   3.238   3.048 -0.0304  0.8307  0.7832
  217MOL0     H28618  -2.525   3.432   2.813 -1.7802  3.7669  1.1945
  217MOL0     H28619  -2.616   3.444   2.947  1.1125  2.1822 -2.3972
  217MOL0     H28620  -2.679   3.231   2.728 -0.4811 -1.3197  0.7963
  217MOL0     H28621  -2.758   3.386   2.730  0.0529 -0.7091 -1.1871
  217MOL0     H28622  -2.821   3.165   2.931 -1.4268  1.2089  2.8928
  217MOL0     H28623  -2.827   3.327   2.976 -0.1166  0.5340 -0.4831
  217MOL0     H28624  -2.930   3.206   2.719  0.7861 -1.1742  1.7066
  217MOL0     H28625  -2.956   3.379   2.780 -0.0554  1.4024  1.3502
  217MOL0     H28626  -2.209   3.600   3.331 -0.1715 -0.1143  1.2692
  217MOL0     H28627  -2.047   3.716   3.476 -0.5050 -3.9176  3.1060
  217MOL0     H28628  -1.712   3.717   3.742  0.1312  0.1299 -0.5251
  217MOL0     H28629  -1.607   3.875   3.898 -1.1188  3.7913  0.9756
  217MOL0     H28630   0.142   4.560   3.253  1.1098  0.9165 -1.8365
  217MOL0     H28631   0.380   4.647   3.246 -1.4442 -0.3938 -0.9558
  217MOL0     H28632   0.714   4.796   3.565  1.8946  0.1137  2.5158
  217MOL0     H28633   0.933   4.911   3.529  0.9766  0.7951  0.4381
  217MOL0     H28634   1.202   4.727   3.246 -2.0124  1.1561 -0.2954
  217MOL0     H28635   1.289   4.660   3.383 -0.4710  0.0219 -0.1846
  217MOL0     H28636   1.319   4.940   3.315 -1.6291  0.4537  3.6193
  217MOL0     H28637   1.378   4.864   3.459  0.1923 -1.6157  0.4565
  217MOL0     H28638   1.467   4.772   3.185  1.0785  0.1047  0.5715
  217MOL0     H28639   1.547   4.725   3.333 -0.8672  0.5819  2.0389
  217MOL0     H28640   1.529   5.008   3.229  2.0136 -0.9894 -3.0195
  217MOL0     H28641   1.615   4.957   3.378  1.4131 -1.3869  0.0487
  217MOL0     H28642   1.866   4.768   3.088 -2.2493 -2.5279 -0.9626
  217MOL0     H28643   1.080   4.564   3.322 -0.4578 -0.4214  0.1420
  217MOL0     H28644   0.860   4.462   3.318 -0.4092 -0.7483  2.6774
  218MOL0     O28645  10.716   3.501   0.341  0.3200  0.4880 -0.1264
  218MOL0     C28646  10.749   3.601   0.283 -0.2569 -0.6246  0.0178
  218MOL0     O28647  10.670   3.688   0.212 -0.0994 -0.7970  0.4190
  218MOL0     C28648  10.542   3.675   0.180  0.0612 -0.3084 -0.1990
  218MOL0     C28649  10.444   3.636   0.276  0.5334 -0.6868 -0.5791
  218MOL0     C28650  10.307   3.640   0.242  0.6479  0.0334  0.4147
  218MOL0     C28651  10.269   3.683   0.116 -0.0519 -0.5879  0.6253
  218MOL0     O28652  10.138   3.680   0.097  0.1461  0.4073  0.8243
  218MOL0     C28653  10.087   3.667  -0.035  0.9880  0.0316 -0.0802
  218MOL0     C28654   9.974   3.575  -0.015  0.1552 -0.8245 -0.2719
  218MOL0     C28655   9.899   3.585  -0.150  0.0264 -0.1480  0.2339
  218MOL0     C28656   9.778   3.494  -0.147 -0.3893  0.8062 -0.2592
  218MOL0     C28657   9.805   3.357  -0.200 -0.3195  0.3933  0.8165
  218MOL0     C28658   9.675   3.272  -0.208  0.1732  0.2197  0.1186
  218MOL0     C28659   9.604   3.283  -0.342 -0.1418 -0.9119 -0.0338
  218MOL0     C28660   9.454   3.227  -0.343 -0.2515 -0.3203 -0.5686
  218MOL0     N28661   9.366   3.282  -0.241 -0.7627 -0.1117  0.0494
  218MOL0     C28662   9.358   3.246  -0.107  0.4014  0.2092  0.5166
  218MOL0     C28663   9.256   3.315  -0.052 -0.4450  0.0006 -0.7552
  218MOL0     C28664   9.219   3.317   0.095 -0.4913 -0.2584  0.1638
  218MOL0     C28665   9.193   3.174   0.154 -1.5022  0.5652  0.8328
  218MOL0     C28666   9.114   3.173   0.287  0.2818 -0.4525 -0.6336
  218MOL0     C28667   9.062   3.036   0.333  0.0880 -0.0949 -0.2635
  218MOL0     O28668   9.154   2.967   0.420  0.3091 -0.2981  0.2420
  218MOL0     C28669   9.274   2.933   0.363 -0.0498  0.3331 -0.0833
  218MOL0     C28670   9.389   2.946   0.429  0.1756  0.4138 -0.0577
  218MOL0     C28671   9.517   2.897   0.380  0.8114 -0.2203 -0.4506
  218MOL0     C28672   9.530   2.834   0.256  0.2231 -0.2303 -0.9422
  218MOL0     C28673   9.660   2.804   0.204  0.2685  0.4198 -0.3475
  218MOL0     O28674   9.653   2.722   0.092 -0.6603 -0.5528 -0.4671
  218MOL0     C28675   9.760   2.695   0.009  0.7193  0.3554  0.0222
  218MOL0     C28676   9.767   2.573  -0.052 -0.9551  0.6303 -0.2044
  218MOL0     C28677   9.863   2.538  -0.153  0.0457 -0.0045  0.2560
  218MOL0     C28678   9.942   2.640  -0.213  0.2625 -0.2251 -0.4783
  218MOL0     O28679  10.016   2.629  -0.322 -0.8162  0.5104 -0.1400
  218MOL0     C28680  10.009   2.500  -0.385 -0.4621 -0.7292 -0.1339
  218MOL0     C28681  10.087   2.492  -0.518  0.6596  0.8628 -0.3205
  218MOL0     C28682  10.237   2.542  -0.521  0.0627 -0.1580 -0.1176
  218MOL0     C28683  10.326   2.491  -0.413 -0.0030  0.7373  0.2154
  218MOL0     C28684  10.471   2.548  -0.420  0.3964  0.3744 -0.9243
  218MOL0     C28685  10.572   2.493  -0.526 -0.1454 -0.4913 -0.1855
  218MOL0     C28686  10.703   2.429  -0.480  0.1069  0.2893  0.6932
  218MOL0     C28687  10.692   2.296  -0.398  0.4371 -0.7399 -0.8156
  218MOL0    Cl28688  10.596   2.170  -0.493  0.3078  0.0953  0.1778
  218MOL0     C28689   9.934   2.760  -0.150 -0.3262  0.5417  0.6364
  218MOL0     C28690   9.846   2.788  -0.039 -0.0321 -0.3714 -0.0903
  218MOL0     O28691   9.765   2.842   0.257  0.0084 -0.4161 -0.1905
  218MOL0     C28692   9.412   2.820   0.185 -0.4123  0.7548 -0.0639
  218MOL0     C28693   9.286   2.861   0.246 -0.1420  0.2007  0.2449
  218MOL0     N28694   9.192   3.388  -0.155 -0.3249  0.5170  0.1139
  218MOL0     N28695   9.266   3.374  -0.262 -0.5551 -0.1486  0.1815
  218MOL0     C28696  10.364   3.722   0.020  0.3291 -0.1974 -0.2422
  218MOL0     C28697  10.500   3.715   0.053  0.3058  0.9452  0.3539
  218MOL0     C28698  10.887   3.644   0.294  0.0358  0.1699 -0.2038
  218MOL0     C28699  10.939   3.740   0.205  1.5791  1.1610  0.8608
  218MOL0     C28700  11.071   3.785   0.216  0.1948 -0.2621 -0.7473
  218MOL0     C28701  11.151   3.735   0.316  0.4325  0.2333 -0.0220
  218MOL0     O28702  11.276   3.786   0.321 -0.4766 -0.0532 -0.7169
  218MOL0     C28703  11.371   3.738   0.426 -0.2352 -0.4711 -0.5223
  218MOL0     C28704  11.499   3.825   0.407  0.0687 -0.0906  0.3735
  218MOL0     C28705  11.477   3.974   0.409  0.6601  0.6623 -0.1888
  218MOL0     C28706  11.600   4.057   0.417 -0.5333 -0.3919  0.2348
  218MOL0     C28707  11.662   4.060   0.287  0.1440 -0.2808  0.7701
  218MOL0     C28708  11.725   4.085   0.193 -1.4154 -0.1284 -0.0505
  218MOL0     C28709  11.098   3.629   0.388 -0.7036 -0.0896 -0.5553
  218MOL0     C28710  10.969   3.583   0.387 -0.7060  0.1848 -0.1788
  218MOL0     H28711  10.472   3.600   0.374  2.1803  0.1994 -0.6880
  218MOL0     H28712  10.230   3.625   0.317  0.6761 -0.3043  0.3809
  218MOL0     H28713  10.148   3.618  -0.112 -2.3636 -4.0811 -0.5014
  218MOL0     H28714  10.056   3.767  -0.068  1.9195  0.1436 -0.6594
  218MOL0     H28715   9.904   3.606   0.064  0.6592 -2.1930  0.7433
  218MOL0     H28716  10.014   3.474  -0.001  1.0042 -1.2712 -4.5078
  218MOL0     H28717   9.966   3.543  -0.226 -0.6459 -0.1893 -0.3465
  218MOL0     H28718   9.870   3.690  -0.164  2.4959  1.2982  4.1793
  218MOL0     H28719   9.744   3.490  -0.043  1.0395  2.1322  0.2987
  218MOL0     H28720   9.703   3.536  -0.215 -1.2323  0.2007  0.2821
  218MOL0     H28721   9.885   3.312  -0.142 -0.5699 -2.6715 -0.9680
  218MOL0     H28722   9.850   3.367  -0.300 -1.1764 -0.8258  0.2756
  218MOL0     H28723   9.602   3.303  -0.132 -2.0596  0.1579 -1.9013
  218MOL0     H28724   9.693   3.165  -0.197  4.2340  0.7223 -0.3469
  218MOL0     H28725   9.612   3.388  -0.372  1.0709 -0.4448  1.7049
  218MOL0     H28726   9.654   3.227  -0.421  2.0170  1.7876 -0.7234
  218MOL0     H28727   9.463   3.119  -0.333  0.9388 -0.6021 -3.5547
  218MOL0     H28728   9.414   3.242  -0.444  0.7154 -1.7066 -1.1913
  218MOL0     H28729   9.418   3.173  -0.054  0.0353  1.5096  2.8276
  218MOL0     H28730   9.123   3.369   0.095 -0.4743 -0.0380 -2.7342
  218MOL0     H28731   9.273   3.382   0.164 -2.0990 -1.0107  2.2282
  218MOL0     H28732   9.289   3.128   0.180 -1.6983  0.0350  0.6355
  218MOL0     H28733   9.152   3.110   0.076  0.7435  0.7004 -0.5562
  218MOL0     H28734   9.187   3.208   0.361  0.5223  0.2843 -1.1962
  218MOL0     H28735   9.032   3.246   0.286 -0.1378 -0.9241 -0.6422
  218MOL0     H28736   9.026   2.981   0.245 -1.0932  4.3737 -2.8991
  218MOL0     H28737   8.973   3.060   0.391 -0.0989  1.0547 -0.9983
  218MOL0     H28738   9.398   2.995   0.525  0.3264 -0.4954  0.4028
  218MOL0     H28739   9.611   2.911   0.432 -0.9339  2.8250  2.2349
  218MOL0     H28740   9.698   2.494  -0.025  1.7373 -2.6673 -2.1696
  218MOL0     H28741   9.846   2.439  -0.192  0.3172  0.3166 -0.7084
  218MOL0     H28742   9.907   2.466  -0.400 -0.2513 -1.7919  0.7255
  218MOL0     H28743  10.057   2.426  -0.321 -1.5778 -0.1431  1.4421
  218MOL0     H28744  10.018   2.533  -0.593  1.0003  2.3514  0.1540
  218MOL0     H28745  10.093   2.384  -0.536 -1.5658  0.4023  1.3419
  218MOL0     H28746  10.237   2.651  -0.515 -0.6056 -0.2431  3.1489
  218MOL0     H28747  10.283   2.510  -0.615  0.2636  0.6545 -0.3073
  218MOL0     H28748  10.293   2.520  -0.312  2.9353 -1.6897  2.0612
  218MOL0     H28749  10.324   2.382  -0.401 -2.3552  0.7526  0.5310
  218MOL0     H28750  10.515   2.532  -0.321 -1.6363 -0.8366 -0.1415
  218MOL0     H28751  10.462   2.656  -0.435  1.4509  0.7721  0.9890
  218MOL0     H28752  10.609   2.589  -0.564 -0.9124  0.6631  1.8310
  218MOL0     H28753  10.526   2.444  -0.612 -1.0128  0.5984 -0.3684
  218MOL0     H28754  10.768   2.411  -0.567 -0.8100 -0.3727  0.1249
  218MOL0     H28755  10.755   2.507  -0.423  0.1486  0.4920  0.3798
  218MOL0     H28756  10.634   2.327  -0.310 -2.1824 -1.2094 -2.2467
  218MOL0     H28757  10.792   2.279  -0.359  0.0841  3.1496  2.5315
  218MOL0     H28758   9.992   2.841  -0.193  3.2994 -2.3851 -0.4697
  218MOL0     H28759   9.838   2.888   0.001 -0.3382  0.2110 -1.5195
  218MOL0     H28760   9.424   2.777   0.086  0.9519  3.9634 -1.4529
  218MOL0     H28761   9.197   2.837   0.187  0.2563  0.7941 -0.6196
  218MOL0     H28762  10.325   3.750  -0.077 -2.9931 -1.2567  0.6357
  218MOL0     H28763  10.578   3.748  -0.015  0.4546  1.3822  0.7311
  218MOL0     H28764  10.877   3.769   0.120  0.2217 -0.6377  1.1720
  218MOL0     H28765  11.109   3.855   0.142  1.7712  0.1855  0.4440
  218MOL0     H28766  11.400   3.632   0.422 -0.4855 -0.6571  1.5425
  218MOL0     H28767  11.325   3.755   0.524  0.6913 -0.9089  0.0043
  218MOL0     H28768  11.565   3.795   0.489  1.1822  0.0893 -0.4440
  218MOL0     H28769  11.540   3.803   0.309 -2.1153  1.0269 -0.8606
  218MOL0     H28770  11.426   3.993   0.504 -0.8710  1.8800 -1.2019
  218MOL0     H28771  11.419   4.011   0.324  0.4350 -0.2086 -0.4187
  218MOL0     H28772  11.574   4.157   0.451  0.6936  0.6021 -1.5849
  218MOL0     H28773  11.673   4.014   0.487  0.8323  0.2429 -0.7501
  218MOL0     H28774  11.798   4.111   0.119 -1.0505  2.6679  1.1446
  218MOL0     H28775  11.161   3.580   0.461 -2.3022 -0.3683  0.6888
  218MOL0     H28776  10.930   3.513   0.460 -2.6224  1.3838  0.0270
  219MOL0     O28777   5.937   8.392   7.499 -0.0476  0.0175 -0.5765
  219MOL0     C28778   6.012   8.320   7.449 -0.9465  0.7268 -0.2200
  219MOL0     O28779   5.987   8.185   7.415 -0.1041  0.1196 -0.3290
  219MOL0     C28780   5.909   8.104   7.492 -0.0678 -0.3062  0.0087
  219MOL0     C28781   5.868   7.995   7.429  0.2526 -0.5604 -0.2690
  219MOL0     C28782   5.763   7.915   7.487  0.0477 -0.2799 -0.5671
  219MOL0     C28783   5.725   7.940   7.622 -0.3470 -0.3201  0.1247
  219MOL0     O28784   5.641   7.863   7.698 -0.1142 -0.5613 -0.2452
  219MOL0     C28785   5.546   7.786   7.638 -0.2024 -0.2000  0.5263
  219MOL0     C28786   5.433   7.865   7.563  0.3127 -0.1667 -1.3080
  219MOL0     C28787   5.317   7.780   7.502 -0.9161 -0.0755  0.4723
  219MOL0     C28788   5.173   7.814   7.541  0.9267 -0.0332 -0.7941
  219MOL0     C28789   5.076   7.707   7.483 -0.3325 -0.5837  0.1857
  219MOL0     C28790   4.930   7.742   7.504  0.2182  0.0201  0.0176
  219MOL0     C28791   4.825   7.652   7.434  1.7915 -0.8983  0.5286
  219MOL0     C28792   4.807   7.514   7.487  0.2932 -0.2793  0.7634
  219MOL0     N28793   4.762   7.516   7.622  0.2813  0.2295  0.1391
  219MOL0     C28794   4.654   7.587   7.665 -0.0872  1.1687  0.5721
  219MOL0     C28795   4.647   7.558   7.802  0.0890 -0.8560 -0.0138
  219MOL0     C28796   4.549   7.625   7.894 -0.0723 -0.7373  0.0257
  219MOL0     C28797   4.526   7.567   8.034  0.5946  0.4017  0.1433
  219MOL0     C28798   4.488   7.423   8.027  0.1654  0.0125  0.6531
  219MOL0     C28799   4.345   7.396   7.973  0.0384 -0.1128 -0.3448
  219MOL0     O28800   4.241   7.455   8.053  0.7464  0.1599 -0.5652
  219MOL0     C28801   4.114   7.419   8.037  0.7235 -0.3056 -0.5432
  219MOL0     C28802   4.018   7.479   8.128 -0.2677 -0.8530  1.2984
  219MOL0     C28803   3.881   7.467   8.104  0.2107 -0.2760  0.0412
  219MOL0     C28804   3.834   7.396   7.995 -0.2997 -0.0816 -0.7145
  219MOL0     C28805   3.686   7.380   7.974 -0.3181  0.0295 -0.1332
  219MOL0     O28806   3.607   7.488   8.008  0.1491 -0.1201 -0.1338
  219MOL0     C28807   3.474   7.459   8.013 -0.3155 -0.3442  0.4903
  219MOL0     C28808   3.389   7.542   7.940 -0.4580 -0.3020 -1.2820
  219MOL0     C28809   3.251   7.539   7.965 -0.0234 -0.1449  0.0768
  219MOL0     C28810   3.192   7.444   8.053 -0.4971 -0.5775  0.1103
  219MOL0     O28811   3.054   7.440   8.063 -0.6925 -0.1224  0.3856
  219MOL0     C28812   2.991   7.388   8.177  0.6458  0.4068 -0.2520
  219MOL0     C28813   2.846   7.437   8.171 -0.0347  0.1079  0.1514
  219MOL0     C28814   2.761   7.364   8.274 -0.3217 -0.5138 -0.6158
  219MOL0     C28815   2.625   7.437   8.272 -0.9834 -0.2228  0.0591
  219MOL0     C28816   2.543   7.413   8.395 -0.0734 -0.3043 -0.0250
  219MOL0     C28817   2.489   7.263   8.411 -0.2473  0.0829 -0.2558
  219MOL0     C28818   2.415   7.249   8.546  0.4569  0.4983  0.0348
  219MOL0     C28819   2.503   7.231   8.671  0.0385  0.7556  0.4930
  219MOL0    Cl28820   2.405   7.133   8.786 -0.1487  0.0859 -0.7318
  219MOL0     C28821   3.282   7.359   8.120  0.2489  0.3738 -0.3092
  219MOL0     C28822   3.424   7.363   8.103  0.4731  0.0160 -0.3122
  219MOL0     O28823   3.646   7.273   7.928 -0.2192  0.2705 -0.3634
  219MOL0     C28824   3.927   7.330   7.918  0.0446 -0.7001  0.1899
  219MOL0     C28825   4.066   7.358   7.920  0.5605 -0.7999 -0.1751
  219MOL0     N28826   4.761   7.484   7.835 -0.1566  0.0537  0.1198
  219MOL0     N28827   4.817   7.447   7.726 -0.8813  0.2061 -0.1351
  219MOL0     C28828   5.778   8.055   7.690  0.8962  0.7229 -0.0422
  219MOL0     C28829   5.855   8.141   7.613 -0.4248  0.9118 -0.2586
  219MOL0     C28830   6.134   8.370   7.386 -0.1661  0.8906  0.1254
  219MOL0     C28831   6.238   8.279   7.369  0.1805 -0.1015 -0.2150
  219MOL0     C28832   6.357   8.325   7.318  0.2633 -0.3496  0.5031
  219MOL0     C28833   6.373   8.463   7.291 -0.4264 -0.0515  0.0967
  219MOL0     O28834   6.496   8.512   7.250  0.1891  0.3757  0.6575
  219MOL0     C28835   6.602   8.423   7.214 -0.0915  0.0257  0.0601
  219MOL0     C28836   6.713   8.495   7.149 -0.1624  0.0583  0.2576
  219MOL0     C28837   6.807   8.584   7.231  0.2490 -0.5535 -0.5474
  219MOL0     C28838   6.889   8.539   7.350  0.7804  0.0459  0.0169
  219MOL0     C28839   7.009   8.467   7.297  0.6428  0.2513 -1.1495
  219MOL0     C28840   7.109   8.409   7.254  0.0680  0.1603  0.5277
  219MOL0     C28841   6.272   8.550   7.308  0.0672 -0.2243 -0.0080
  219MOL0     C28842   6.154   8.502   7.363  0.0258  0.0620  0.3366
  219MOL0     H28843   5.916   7.983   7.333 -0.9525  1.3023 -1.1602
  219MOL0     H28844   5.734   7.821   7.441 -0.6102 -0.9238  1.1175
  219MOL0     H28845   5.495   7.717   7.706 -3.4900 -0.9582 -2.3648
  219MOL0     H28846   5.595   7.718   7.568 -0.0532 -0.6502  1.0651
  219MOL0     H28847   5.474   7.926   7.482  1.6802  0.4211 -0.2281
  219MOL0     H28848   5.394   7.931   7.641 -2.0916  0.6678 -3.1040
  219MOL0     H28849   5.332   7.674   7.522 -0.7494 -0.6305 -2.2452
  219MOL0     H28850   5.327   7.785   7.393  0.5169 -2.4026  0.4253
  219MOL0     H28851   5.170   7.834   7.648  0.5246 -0.7202 -0.6719
  219MOL0     H28852   5.149   7.911   7.496  0.8669  0.6033  0.5681
  219MOL0     H28853   5.097   7.605   7.516 -1.2468 -2.0649 -3.3126
  219MOL0     H28854   5.088   7.703   7.374 -1.1015  0.6695  0.0373
  219MOL0     H28855   4.907   7.840   7.462 -3.2204 -0.0276  1.4759
  219MOL0     H28856   4.912   7.745   7.612  0.8486  2.6929  0.1126
  219MOL0     H28857   4.731   7.705   7.450  2.1992 -0.5409  1.8577
  219MOL0     H28858   4.852   7.656   7.328  0.0070  1.1459  0.0722
  219MOL0     H28859   4.899   7.455   7.496  1.1213  1.1492  2.4303
  219MOL0     H28860   4.734   7.458   7.430  1.9297  0.7464 -2.6139
  219MOL0     H28861   4.583   7.653   7.616 -2.7689 -0.2770  2.2752
  219MOL0     H28862   4.454   7.617   7.840  1.1500 -0.0726 -2.3605
  219MOL0     H28863   4.588   7.726   7.910 -1.8668  0.2192 -1.2326
  219MOL0     H28864   4.445   7.625   8.080 -0.7592 -0.6870 -0.7732
  219MOL0     H28865   4.618   7.583   8.090 -0.1170  3.2420  0.6448
  219MOL0     H28866   4.563   7.374   7.963  0.4091  1.6851 -0.4218
  219MOL0     H28867   4.481   7.394   8.132 -0.1057 -0.6335  0.4583
  219MOL0     H28868   4.332   7.287   7.968  0.1621 -0.1465  0.0981
  219MOL0     H28869   4.346   7.423   7.867  0.2881 -3.5800 -1.3566
  219MOL0     H28870   4.049   7.539   8.212  1.1823 -0.3841  0.4571
  219MOL0     H28871   3.799   7.515   8.158 -2.0252 -0.9855 -2.4735
  219MOL0     H28872   3.425   7.631   7.890 -1.5951  1.4898  0.9058
  219MOL0     H28873   3.197   7.616   7.910  2.0985  1.3858  0.0035
  219MOL0     H28874   3.044   7.424   8.266  1.2585 -2.3238  0.5957
  219MOL0     H28875   2.993   7.278   8.183  0.7734  0.3803 -0.7774
  219MOL0     H28876   2.795   7.408   8.079 -0.3685  3.4367 -0.8234
  219MOL0     H28877   2.856   7.543   8.196  0.2213  0.1970 -0.3290
  219MOL0     H28878   2.807   7.366   8.373  2.2004 -1.8337 -1.6547
  219MOL0     H28879   2.762   7.259   8.242  2.7539 -0.8501  0.2149
  219MOL0     H28880   2.635   7.545   8.259  2.8571 -0.1828  1.8784
  219MOL0     H28881   2.572   7.396   8.185 -0.0904  1.2654 -1.2313
  219MOL0     H28882   2.455   7.476   8.411 -2.9801 -3.4213 -2.3438
  219MOL0     H28883   2.602   7.440   8.483 -0.1448  0.4445 -0.1999
  219MOL0     H28884   2.581   7.203   8.414  0.7737  1.6279  1.1686
  219MOL0     H28885   2.424   7.233   8.328 -2.7994 -0.1000  1.7044
  219MOL0     H28886   2.355   7.340   8.554 -0.5737  0.3297 -3.7025
  219MOL0     H28887   2.353   7.159   8.538  1.7096 -0.6431  2.3193
  219MOL0     H28888   2.539   7.326   8.712  1.9439  0.3909 -0.2123
  219MOL0     H28889   2.598   7.177   8.660 -1.4050 -2.3033  1.7922
  219MOL0     H28890   3.239   7.289   8.191  3.8908 -2.0904 -0.2905
  219MOL0     H28891   3.491   7.294   8.152  1.9855  1.6032 -0.0465
  219MOL0     H28892   3.907   7.261   7.837  3.0539 -1.7358  0.2066
  219MOL0     H28893   4.125   7.310   7.843  2.1751  1.9259 -0.7884
  219MOL0     H28894   5.756   8.080   7.793 -1.7439 -0.5195 -0.2285
  219MOL0     H28895   5.871   8.242   7.649  1.5167  0.6021 -0.1578
  219MOL0     H28896   6.232   8.172   7.385 -0.8219  0.2701  2.4395
  219MOL0     H28897   6.429   8.247   7.296  0.9901  0.5836 -0.5169
  219MOL0     H28898   6.583   8.341   7.145  2.6171 -0.4632 -0.2068
  219MOL0     H28899   6.648   8.388   7.307  0.6560  1.6578  0.3300
  219MOL0     H28900   6.778   8.421   7.101 -0.9154 -1.0645  0.9391
  219MOL0     H28901   6.668   8.560   7.074 -0.8975 -0.1183  0.5384
  219MOL0     H28902   6.736   8.658   7.271  0.9734 -0.2636  0.2372
  219MOL0     H28903   6.870   8.651   7.172  1.5982 -0.3879  1.0167
  219MOL0     H28904   6.923   8.624   7.411 -0.0192 -0.9073  1.8604
  219MOL0     H28905   6.833   8.471   7.414  2.2783 -0.8673  0.3968
  219MOL0     H28906   7.186   8.372   7.190 -2.1517 -3.8187 -0.2011
  219MOL0     H28907   6.283   8.655   7.280 -2.3808 -0.0286 -0.4640
  219MOL0     H28908   6.066   8.564   7.381  0.6548  0.9857  0.2861
  220MOL0     O28909   9.294  10.150   2.453 -0.4551  0.7315  0.4633
  220MOL0     C28910   9.336  10.258   2.412  0.3570  0.2958 -0.1875
  220MOL0     O28911   9.269  10.335   2.315  0.0257 -0.0346  0.5688
  220MOL0     C28912   9.141  10.320   2.280  0.3561 -0.4665  0.0441
  220MOL0     C28913   9.098  10.426   2.193  0.3930 -0.4404 -1.2061
  220MOL0     C28914   8.963  10.432   2.153 -0.4216 -0.4380 -0.3915
  220MOL0     C28915   8.875  10.325   2.182  0.6525  0.0398  0.1206
  220MOL0     O28916   8.743  10.329   2.132 -0.5027  0.3637  0.3753
  220MOL0     C28917   8.665  10.448   2.157 -0.2013  0.7173  0.7036
  220MOL0     C28918   8.565  10.461   2.039  0.3630 -0.4667 -0.2440
  220MOL0     C28919   8.627  10.463   1.899  0.0160 -0.3460  0.6040
  220MOL0     C28920   8.516  10.509   1.808  0.6423  0.3765 -0.2821
  220MOL0     C28921   8.559  10.530   1.662  0.2803  0.1579 -0.0923
  220MOL0     C28922   8.433  10.564   1.578  0.5592 -0.1668  0.2618
  220MOL0     C28923   8.386  10.709   1.606 -0.1041 -0.2649 -0.1718
  220MOL0     C28924   8.258  10.727   1.525  0.2906 -0.6540 -0.1909
  220MOL0     N28925   8.145  10.650   1.588 -0.5530  0.1303  0.9892
  220MOL0     C28926   8.098  10.678   1.711  0.5208  0.5056  0.0521
  220MOL0     C28927   7.983  10.599   1.728  1.1866 -0.1095 -0.0239
  220MOL0     C28928   7.896  10.588   1.849  0.4336  0.7905 -0.4525
  220MOL0     C28929   7.749  10.575   1.817  0.4980  0.3019  0.6700
  220MOL0     C28930   7.651  10.601   1.927 -0.2456 -0.0586  0.3498
  220MOL0     C28931   7.513  10.547   1.883 -0.9544  0.4088 -0.8695
  220MOL0     O28932   7.427  10.562   1.994 -0.1679 -0.0350 -0.4067
  220MOL0     C28933   7.291  10.531   1.987 -0.3584  0.5656 -0.5550
  220MOL0     C28934   7.229  10.499   1.863 -0.6600  0.5917  0.4081
  220MOL0     C28935   7.097  10.470   1.850  0.3043 -0.4357 -1.5365
  220MOL0     C28936   7.019  10.500   1.969  0.2319 -0.1870 -0.6090
  220MOL0     C28937   6.872  10.482   1.968  0.4159 -0.1706 -0.5146
  220MOL0     O28938   6.826  10.442   1.845  0.1772  0.0689 -0.7030
  220MOL0     C28939   6.689  10.462   1.827  0.4348  0.1507 -0.4517
  220MOL0     C28940   6.661  10.573   1.748 -0.2258 -0.2091  0.8109
  220MOL0     C28941   6.530  10.599   1.725 -0.2972 -0.2145  0.3899
  220MOL0     C28942   6.428  10.525   1.765 -0.1566  0.0882  0.7970
  220MOL0     O28943   6.294  10.559   1.742  0.6288  0.3447  0.3940
  220MOL0     C28944   6.256  10.693   1.762  0.3284 -0.2883  0.4832
  220MOL0     C28945   6.107  10.690   1.728 -0.1743 -0.2267 -0.2773
  220MOL0     C28946   6.084  10.674   1.574 -0.8869  0.4974  0.0440
  220MOL0     C28947   5.935  10.678   1.546  0.3451 -0.4706 -0.2292
  220MOL0     C28948   5.911  10.684   1.396 -1.3533  0.1846  0.9109
  220MOL0     C28949   5.764  10.662   1.364  1.2526  0.2010  0.2304
  220MOL0     C28950   5.731  10.659   1.215  0.9313  0.0143  0.6557
  220MOL0     C28951   5.601  10.592   1.176 -0.3877 -0.5454  0.5862
  220MOL0    Cl28952   5.471  10.614   1.307 -0.0358  0.0424  0.0906
  220MOL0     C28953   6.456  10.419   1.843 -0.1310  1.1057  0.0934
  220MOL0     C28954   6.586  10.384   1.886 -1.2203 -0.7340 -0.2360
  220MOL0     O28955   6.805  10.496   2.070  0.0409  0.7913 -0.6267
  220MOL0     C28956   7.080  10.540   2.087  0.1134  0.1401  0.9839
  220MOL0     C28957   7.213  10.550   2.098  0.1173  0.2597  0.4209
  220MOL0     N28958   7.966  10.532   1.610 -0.3828  0.1537  0.4576
  220MOL0     N28959   8.057  10.556   1.526 -0.0696 -1.3079 -0.4155
  220MOL0     C28960   8.920  10.216   2.257  0.2180 -0.2278  0.3767
  220MOL0     C28961   9.047  10.219   2.315 -1.4529  0.1995 -0.1720
  220MOL0     C28962   9.476  10.301   2.451  0.5003 -0.2330 -1.0049
  220MOL0     C28963   9.545  10.235   2.557 -0.6493  0.2206  0.4932
  220MOL0     C28964   9.663  10.285   2.610 -0.4358  0.1910  0.5432
  220MOL0     C28965   9.729  10.394   2.556  0.5826 -0.5702 -0.6167
  220MOL0     O28966   9.848  10.441   2.607 -0.9721 -0.0098  0.2445
  220MOL0     C28967   9.911  10.373   2.712 -0.7818  0.2879 -0.5129
  220MOL0     C28968  10.039  10.442   2.729 -0.8025 -0.1277 -0.4343
  220MOL0     C28969  10.033  10.575   2.801 -0.1858  0.1011 -0.3917
  220MOL0     C28970  10.157  10.609   2.880 -0.5312  0.0010  0.1672
  220MOL0     C28971  10.210  10.504   2.970 -0.5070 -0.0859  0.0941
  220MOL0     C28972  10.250  10.432   3.058 -0.1810 -0.1655  0.5551
  220MOL0     C28973   9.668  10.446   2.437 -0.1052 -0.3831  0.3700
  220MOL0     C28974   9.544  10.411   2.392  0.5148  0.1710 -0.3085
  220MOL0     H28975   9.169  10.499   2.155 -0.9163  1.7187  0.3315
  220MOL0     H28976   8.920  10.511   2.094 -3.6924  0.0130  2.3191
  220MOL0     H28977   8.731  10.535   2.157 -0.6477  1.3055 -3.8068
  220MOL0     H28978   8.612  10.438   2.252 -1.8471  4.2377  0.3140
  220MOL0     H28979   8.522  10.560   2.058 -1.1523 -0.3882 -3.3297
  220MOL0     H28980   8.487  10.388   2.060 -1.4366  1.9072  2.0338
  220MOL0     H28981   8.664  10.366   1.864 -0.7721  0.1688 -1.8428
  220MOL0     H28982   8.698  10.546   1.893 -1.7271  1.0855 -1.7788
  220MOL0     H28983   8.431  10.440   1.811  0.6954  0.3378  0.7620
  220MOL0     H28984   8.473  10.603   1.843 -0.1760 -0.3446  0.7074
  220MOL0     H28985   8.601  10.436   1.624 -0.9432 -1.5246  2.4137
  220MOL0     H28986   8.624  10.617   1.653  0.1597  0.3569  0.8763
  220MOL0     H28987   8.353  10.494   1.605  0.5810  0.2212  1.4220
  220MOL0     H28988   8.454  10.558   1.471  0.4638  0.6433  0.1924
  220MOL0     H28989   8.364  10.726   1.711  1.3070  0.6466  0.0005
  220MOL0     H28990   8.462  10.779   1.570 -1.9242  1.0514 -1.6489
  220MOL0     H28991   8.269  10.689   1.424  1.8336  0.6642 -0.5603
  220MOL0     H28992   8.224  10.831   1.533 -0.1845 -0.8850  1.0837
  220MOL0     H28993   8.154  10.745   1.775  2.8508 -0.7399 -0.5812
  220MOL0     H28994   7.913  10.670   1.918  1.0695  0.2379  0.0531
  220MOL0     H28995   7.926  10.496   1.899 -2.0369  0.0527 -0.1890
  220MOL0     H28996   7.729  10.471   1.787  0.0191 -0.0723  2.1910
  220MOL0     H28997   7.725  10.629   1.725  1.9112 -0.2785 -0.0685
  220MOL0     H28998   7.690  10.548   2.014  1.3120 -1.1440 -0.9482
  220MOL0     H28999   7.639  10.704   1.961  1.3320  0.0035  0.7825
  220MOL0     H29000   7.521  10.443   1.853 -1.3435  0.2327 -0.3736
  220MOL0     H29001   7.474  10.603   1.797 -1.2339  0.5044 -0.6816
  220MOL0     H29002   7.303  10.466   1.791  1.7170  0.2545  2.8539
  220MOL0     H29003   7.063  10.416   1.762  1.2374 -2.3779 -0.7563
  220MOL0     H29004   6.733  10.643   1.708  0.1012 -0.5232  0.8446
  220MOL0     H29005   6.516  10.676   1.649  2.0934 -1.1568 -1.1329
  220MOL0     H29006   6.294  10.770   1.694  0.0352 -0.1396  0.4870
  220MOL0     H29007   6.278  10.723   1.865 -1.5861 -0.4896  0.9718
  220MOL0     H29008   6.063  10.782   1.766  2.7955  1.8066 -1.4350
  220MOL0     H29009   6.068  10.601   1.780 -0.0642 -0.7376 -1.0579
  220MOL0     H29010   6.126  10.580   1.538  0.8442  1.1303  0.3005
  220MOL0     H29011   6.147  10.749   1.526  0.4231 -0.5306  0.0883
  220MOL0     H29012   5.880  10.595   1.590  0.1460  0.3532  1.1520
  220MOL0     H29013   5.901  10.768   1.599 -0.7689 -1.4762  0.8045
  220MOL0     H29014   5.965  10.618   1.329 -3.6902 -1.1476  0.2326
  220MOL0     H29015   5.939  10.786   1.367 -0.3212 -0.7177 -1.5329
  220MOL0     H29016   5.704  10.731   1.423 -0.8893 -0.6982 -0.7910
  220MOL0     H29017   5.730  10.565   1.401  2.1905 -0.0236  0.5252
  220MOL0     H29018   5.721  10.761   1.176 -1.5866 -1.4098 -2.9571
  220MOL0     H29019   5.804  10.594   1.165  1.9012  0.6011  1.2810
  220MOL0     H29020   5.618  10.488   1.147 -1.3004 -0.7960  0.9121
  220MOL0     H29021   5.560  10.648   1.092 -0.9415  0.2967  1.4079
  220MOL0     H29022   6.369  10.367   1.882 -0.6593  2.2604  0.5017
  220MOL0     H29023   6.616  10.304   1.953 -1.3258 -0.2821  0.3587
  220MOL0     H29024   7.022  10.571   2.173  1.7992  0.3490  2.0947
  220MOL0     H29025   7.250  10.610   2.180 -0.4465 -1.3491  1.9232
  220MOL0     H29026   8.847  10.138   2.272  0.1569 -0.1288  0.5995
  220MOL0     H29027   9.075  10.138   2.381  0.9383  0.6204 -0.5573
  220MOL0     H29028   9.503  10.152   2.612 -1.1645  0.2954  0.2169
  220MOL0     H29029   9.696  10.242   2.704 -1.5397 -0.5192  0.6256
  220MOL0     H29030   9.931  10.267   2.694 -1.4267 -0.5471  2.8691
  220MOL0     H29031   9.854  10.373   2.805  0.1773 -3.0249  0.2078
  220MOL0     H29032  10.105  10.374   2.784 -3.3702 -1.4142  1.2249
  220MOL0     H29033  10.086  10.446   2.630  3.7655 -3.5112  1.2303
  220MOL0     H29034   9.950  10.583   2.871 -0.2398  2.6350 -0.6442
  220MOL0     H29035  10.017  10.651   2.724  2.9268  0.5899 -0.6941
  220MOL0     H29036  10.234  10.621   2.803  0.5198 -1.8582  0.8783
  220MOL0     H29037  10.137  10.702   2.933 -0.5334 -0.9786  1.9340
  220MOL0     H29038  10.289  10.377   3.142  0.0250 -1.9268 -0.6285
  220MOL0     H29039   9.712  10.525   2.376 -0.4114  1.4161  2.3601
  220MOL0     H29040   9.504  10.460   2.304  0.4549  0.9192  0.1246
  221MOL0     O29041   3.396   8.949   5.574  0.6032 -0.6237 -0.0409
  221MOL0     C29042   3.287   9.010   5.556 -0.3244 -0.5630 -1.3009
  221MOL0     O29043   3.166   8.958   5.576  0.2067  0.5138  0.2406
  221MOL0     C29044   3.158   8.826   5.543  0.2324 -0.3972 -0.4528
  221MOL0     C29045   3.127   8.738   5.648  0.5322  1.0318  0.2059
  221MOL0     C29046   3.102   8.598   5.619  0.0321 -0.2655 -0.9616
  221MOL0     C29047   3.095   8.551   5.487 -0.6113 -0.1406  0.0428
  221MOL0     O29048   3.059   8.419   5.480 -0.2469  0.9782  0.0265
  221MOL0     C29049   3.040   8.366   5.342  0.4550 -0.0615 -0.6975
  221MOL0     C29050   3.165   8.316   5.275 -0.3899 -0.3532  0.3126
  221MOL0     C29051   3.131   8.254   5.142  0.6006 -0.0595  0.3633
  221MOL0     C29052   3.077   8.360   5.043  0.0385  0.1461 -0.0041
  221MOL0     C29053   3.047   8.288   4.914 -0.3093 -0.7919 -0.8606
  221MOL0     C29054   2.965   8.377   4.823  0.5760  0.1707 -0.1609
  221MOL0     C29055   2.815   8.353   4.846  0.0517  0.3029  0.0850
  221MOL0     C29056   2.722   8.428   4.748 -0.2234 -0.3829 -0.0356
  221MOL0     N29057   2.578   8.396   4.762  0.6391 -0.5791 -0.2850
  221MOL0     C29058   2.512   8.300   4.682  0.1808  0.2591 -1.2409
  221MOL0     C29059   2.392   8.296   4.736  0.3854 -0.3345  0.8054
  221MOL0     C29060   2.275   8.229   4.670  0.7506  0.4076  0.4795
  221MOL0     C29061   2.157   8.326   4.673  0.0890  0.2775 -0.1222
  221MOL0     C29062   2.054   8.260   4.579  0.5019  0.8708  0.0332
  221MOL0     C29063   1.915   8.330   4.586 -0.8784 -0.3239 -0.2448
  221MOL0     O29064   1.838   8.264   4.487 -0.3704  0.2961 -0.9486
  221MOL0     C29065   1.704   8.296   4.482 -0.0128 -0.1115 -0.5461
  221MOL0     C29066   1.633   8.393   4.558 -0.5022 -0.4788 -0.0673
  221MOL0     C29067   1.496   8.414   4.538 -0.2628  0.7493  0.4335
  221MOL0     C29068   1.419   8.341   4.453 -0.3087 -0.5876 -0.0797
  221MOL0     C29069   1.272   8.357   4.466 -0.4033 -0.2249  0.5734
  221MOL0     O29070   1.222   8.491   4.484  0.0407  0.1352  0.4728
  221MOL0     C29071   1.097   8.521   4.438  0.4873 -0.1769  0.5674
  221MOL0     C29072   0.984   8.438   4.400  0.1092  0.1503  0.2147
  221MOL0     C29073   0.872   8.505   4.342  0.0710  0.0924 -0.1461
  221MOL0     C29074   0.860   8.644   4.329  0.5094  0.3559 -0.5204
  221MOL0     O29075   0.752   8.711   4.272  0.2892 -0.3296 -0.0290
  221MOL0     C29076   0.624   8.651   4.299 -0.2299 -0.6683  0.9069
  221MOL0     C29077   0.528   8.743   4.255  0.3387 -0.2640 -0.6705
  221MOL0     C29078   0.519   8.721   4.097  0.4907  0.2214  0.7414
  221MOL0     C29079   0.420   8.832   4.034  0.5174  0.4145  0.5645
  221MOL0     C29080   0.295   8.849   4.109  0.1052  1.1735  0.2241
  221MOL0     C29081   0.216   8.712   4.100 -0.2767  0.3655 -0.4800
  221MOL0     C29082   0.078   8.728   4.157 -0.5128 -0.5789  0.1025
  221MOL0     C29083  -0.010   8.615   4.115 -0.5274  0.5981 -0.4189
  221MOL0    Cl29084  -0.157   8.600   4.225 -0.3783 -0.2630 -0.1877
  221MOL0     C29085   0.972   8.717   4.373  0.1207 -0.4480  0.7435
  221MOL0     C29086   1.085   8.661   4.424  0.0885  0.0418  0.7110
  221MOL0     O29087   1.203   8.258   4.446 -0.5521  0.1076  1.0486
  221MOL0     C29088   1.490   8.251   4.364  0.3734 -0.4226  0.5352
  221MOL0     C29089   1.625   8.229   4.386 -0.1312 -0.0851  0.0057
  221MOL0     N29090   2.377   8.390   4.837  0.6410 -0.5287  1.0431
  221MOL0     N29091   2.491   8.456   4.855 -0.1300  0.2441 -0.5497
  221MOL0     C29092   3.125   8.640   5.385 -0.0072  0.1344 -0.5519
  221MOL0     C29093   3.153   8.771   5.415 -0.2969  0.0683 -0.3761
  221MOL0     C29094   3.292   9.153   5.510 -1.0049 -0.8508  0.1743
  221MOL0     C29095   3.406   9.210   5.466 -0.2546 -0.0699  0.9466
  221MOL0     C29096   3.406   9.350   5.442 -0.4717  0.2684  0.0128
  221MOL0     C29097   3.297   9.430   5.447 -0.9159  0.2567  0.7571
  221MOL0     O29098   3.314   9.565   5.426  0.9484 -0.4184 -0.3324
  221MOL0     C29099   3.379   9.599   5.301 -0.2262  0.5626 -0.4507
  221MOL0     C29100   3.512   9.667   5.334  1.0452 -0.0744  0.5402
  221MOL0     C29101   3.593   9.712   5.212  0.2681 -0.0112  0.3853
  221MOL0     C29102   3.514   9.794   5.109 -0.9432  0.7925  0.6434
  221MOL0     C29103   3.596   9.876   5.019  0.1548  0.1111 -0.3478
  221MOL0     C29104   3.644   9.941   4.936 -0.2076  0.2488  0.2141
  221MOL0     C29105   3.178   9.369   5.479  0.2595 -0.2116 -0.0009
  221MOL0     C29106   3.180   9.233   5.515  1.1875 -0.6859  0.1980
  221MOL0     H29107   3.120   8.770   5.752  0.5698 -0.9745  0.8616
  221MOL0     H29108   3.064   8.531   5.696 -1.5621  1.1757 -0.4199
  221MOL0     H29109   2.977   8.432   5.282 -0.5271  0.6881  1.0975
  221MOL0     H29110   2.989   8.270   5.356  1.2785 -0.3479  0.4678
  221MOL0     H29111   3.226   8.248   5.335 -0.1282  1.3551  2.0899
  221MOL0     H29112   3.225   8.403   5.246  0.3303 -1.4250 -1.5715
  221MOL0     H29113   3.059   8.175   5.163  0.3391 -0.1043 -0.6650
  221MOL0     H29114   3.217   8.203   5.097 -0.0096 -0.0814 -0.8275
  221MOL0     H29115   2.992   8.420   5.077  1.2638  1.5101  0.7642
  221MOL0     H29116   3.146   8.442   5.020  2.1030 -1.0420  1.5991
  221MOL0     H29117   2.996   8.193   4.927 -0.8546 -0.6322 -1.7769
  221MOL0     H29118   3.147   8.275   4.871 -0.4074  1.5318 -1.9896
  221MOL0     H29119   2.980   8.342   4.720 -1.2374 -1.3167  0.0059
  221MOL0     H29120   2.997   8.481   4.832  0.5340  0.2958 -1.2525
  221MOL0     H29121   2.782   8.249   4.852 -1.0256  0.5307 -1.4905
  221MOL0     H29122   2.798   8.390   4.948  0.4923 -0.0412  0.2844
  221MOL0     H29123   2.760   8.404   4.648  0.7560  2.2999 -0.3881
  221MOL0     H29124   2.736   8.534   4.771  1.5971 -0.2900 -1.2993
  221MOL0     H29125   2.552   8.238   4.603  0.6257  0.2256 -0.9879
  221MOL0     H29126   2.236   8.149   4.734  2.0270 -0.7396 -0.1151
  221MOL0     H29127   2.310   8.196   4.571 -0.1673 -0.2495  0.3595
  221MOL0     H29128   2.188   8.425   4.638 -0.4752  0.5938  0.2678
  221MOL0     H29129   2.108   8.342   4.770  2.0622  1.3788  0.7515
  221MOL0     H29130   2.093   8.265   4.476 -1.2870 -0.1554 -0.7356
  221MOL0     H29131   2.023   8.158   4.605 -2.7569  0.7789 -3.3747
  221MOL0     H29132   1.906   8.435   4.558 -1.0317 -1.1421 -3.6367
  221MOL0     H29133   1.869   8.318   4.685 -1.6570  2.0708 -0.2631
  221MOL0     H29134   1.673   8.460   4.634 -0.5971 -0.5102  0.0114
  221MOL0     H29135   1.447   8.491   4.598 -0.6158 -0.1585  1.3504
  221MOL0     H29136   0.985   8.330   4.406  0.7786  0.2237  1.9658
  221MOL0     H29137   0.793   8.437   4.309 -1.4697  1.5534  0.4228
  221MOL0     H29138   0.613   8.643   4.408  1.9415 -1.0923  1.1343
  221MOL0     H29139   0.615   8.550   4.259  0.1755  0.2741 -1.7242
  221MOL0     H29140   0.564   8.843   4.284  0.4613 -0.6934  0.7485
  221MOL0     H29141   0.437   8.722   4.312  1.3768 -0.3349  1.0275
  221MOL0     H29142   0.487   8.620   4.070  0.9782  0.4392 -0.7502
  221MOL0     H29143   0.614   8.733   4.044  1.7090 -1.8306  2.2889
  221MOL0     H29144   0.471   8.929   4.041  1.1814  0.2873 -1.7838
  221MOL0     H29145   0.397   8.802   3.931  0.7453 -2.8423  1.3636
  221MOL0     H29146   0.240   8.934   4.066  2.8827  1.7731 -2.5301
  221MOL0     H29147   0.332   8.879   4.207  4.7511 -1.9049 -0.2369
  221MOL0     H29148   0.272   8.626   4.137 -0.1912 -0.0594 -1.5427
  221MOL0     H29149   0.202   8.691   3.993 -0.6712 -3.7519  0.2351
  221MOL0     H29150   0.093   8.736   4.265  0.3435  2.7782 -0.1357
  221MOL0     H29151   0.044   8.822   4.113 -0.3535 -0.2884  0.5971
  221MOL0     H29152   0.045   8.522   4.127 -1.3634  0.0145 -0.9856
  221MOL0     H29153  -0.045   8.611   4.011 -0.6356  1.4907 -0.4310
  221MOL0     H29154   0.972   8.826   4.373  2.2138 -0.3032  3.8482
  221MOL0     H29155   1.165   8.727   4.455  2.0154 -2.5200  1.4494
  221MOL0     H29156   1.440   8.185   4.294  0.0209  0.5787 -0.1856
  221MOL0     H29157   1.677   8.160   4.321  0.8359  0.4626  0.1846
  221MOL0     H29158   3.148   8.609   5.284  0.6529  2.2796 -1.1076
  221MOL0     H29159   3.173   8.833   5.328 -1.6095  0.9878 -0.0643
  221MOL0     H29160   3.495   9.156   5.495  0.4161  1.5692  2.0913
  221MOL0     H29161   3.500   9.403   5.426 -2.5479  3.6526 -2.1174
  221MOL0     H29162   3.316   9.671   5.248  1.0143  0.9346 -1.4978
  221MOL0     H29163   3.380   9.517   5.228 -0.5153  2.0260 -2.1758
  221MOL0     H29164   3.495   9.752   5.401  1.4359 -0.2270  0.8357
  221MOL0     H29165   3.571   9.589   5.384  1.2208 -0.3819 -0.1357
  221MOL0     H29166   3.640   9.625   5.167 -1.3640 -0.5687 -0.3319
  221MOL0     H29167   3.671   9.782   5.245  2.6849 -1.9937 -0.8582
  221MOL0     H29168   3.470   9.715   5.048 -1.9817  2.5788 -1.0179
  221MOL0     H29169   3.429   9.841   5.160 -1.6988  0.0744  0.0726
  221MOL0     H29170   3.698   9.997   4.862  0.5090  0.2049  0.7009
  221MOL0     H29171   3.081   9.417   5.482 -1.1973 -2.9673  1.4124
  221MOL0     H29172   3.082   9.197   5.547  0.3938  0.9212 -0.3286
  222MOL0     O29173   7.306   3.957   3.340  0.0022  0.2396 -0.5735
  222MOL0     C29174   7.391   3.942   3.429  0.3329  0.0007  0.7614
  222MOL0     O29175   7.357   3.937   3.558 -0.0326 -0.2522 -0.2159
  222MOL0     C29176   7.224   3.976   3.590  0.2003 -0.2720 -0.0865
  222MOL0     C29177   7.165   3.891   3.681  1.2612  0.0205 -0.5899
  222MOL0     C29178   7.040   3.918   3.739  0.5211 -0.1892 -0.5409
  222MOL0     C29179   6.964   4.036   3.702 -0.1576  0.5062  0.1971
  222MOL0     O29180   6.830   4.056   3.735 -0.0097 -0.0428 -0.3313
  222MOL0     C29181   6.747   3.945   3.697  0.4628 -0.2674  1.0166
  222MOL0     C29182   6.603   3.972   3.728 -0.6667  1.3996 -0.6788
  222MOL0     C29183   6.581   4.014   3.880 -0.1197 -0.1466 -1.3583
  222MOL0     C29184   6.453   4.091   3.879 -0.5396  0.8512 -0.3926
  222MOL0     C29185   6.415   4.118   4.026  0.5677  0.0683 -0.0934
  222MOL0     C29186   6.320   4.234   4.045 -0.2950 -0.4969 -0.1276
  222MOL0     C29187   6.198   4.236   3.954  0.5616  0.4860  0.6364
  222MOL0     C29188   6.097   4.122   3.981  0.0517 -0.1285  0.2564
  222MOL0     N29189   5.975   4.130   3.903  0.2788  0.8553 -0.0440
  222MOL0     C29190   5.879   4.039   3.903  0.2175 -0.2109 -0.1181
  222MOL0     C29191   5.781   4.075   3.807 -0.2903 -0.0222 -0.6147
  222MOL0     C29192   5.668   3.992   3.758  0.1335 -0.9993  0.4544
  222MOL0     C29193   5.539   3.992   3.848  0.2832 -0.5299  0.2994
  222MOL0     C29194   5.415   3.932   3.759 -0.5115  0.5537 -0.6245
  222MOL0     C29195   5.285   3.923   3.841 -0.8238  0.0901 -0.1942
  222MOL0     O29196   5.189   3.857   3.757 -0.2218  0.2816 -0.0458
  222MOL0     C29197   5.066   3.834   3.808  0.2806 -0.0789 -0.5793
  222MOL0     C29198   5.022   3.882   3.933  0.1389  0.0959  0.1669
  222MOL0     C29199   4.892   3.876   3.979 -0.2305 -0.1716 -0.4736
  222MOL0     C29200   4.801   3.816   3.893  0.5661  0.6769 -0.7140
  222MOL0     C29201   4.655   3.803   3.928 -0.6296 -0.6670  0.6982
  222MOL0     O29202   4.558   3.793   3.830  0.7892  0.5972  0.0628
  222MOL0     C29203   4.424   3.784   3.864 -0.0814  0.3321  0.4961
  222MOL0     C29204   4.349   3.733   3.754 -0.4823  0.0482  0.2628
  222MOL0     C29205   4.209   3.720   3.772 -0.4878 -0.0350  0.1187
  222MOL0     C29206   4.143   3.758   3.891 -0.2553  0.0111 -0.5990
  222MOL0     O29207   4.006   3.752   3.909 -0.1776  0.4758  0.7680
  222MOL0     C29208   3.925   3.718   3.792  0.2860 -0.1878 -0.3078
  222MOL0     C29209   3.781   3.705   3.852  0.4555 -0.1372 -0.0521
  222MOL0     C29210   3.770   3.572   3.924 -0.1734  0.1165 -0.1852
  222MOL0     C29211   3.651   3.569   4.019 -0.3479 -0.0424  0.2373
  222MOL0     C29212   3.518   3.598   3.961 -0.5894 -0.3173  0.3027
  222MOL0     C29213   3.420   3.587   4.073  0.4622  0.1122 -1.3954
  222MOL0     C29214   3.396   3.434   4.112  1.0155 -0.1064 -0.4396
  222MOL0     C29215   3.294   3.419   4.221  0.1653 -0.0897 -0.0066
  222MOL0    Cl29216   3.132   3.443   4.167  0.2777  0.1022 -0.0780
  222MOL0     C29217   4.219   3.802   3.996  0.0118 -0.6961 -0.6723
  222MOL0     C29218   4.359   3.818   3.988  0.2417 -1.0268  0.5304
  222MOL0     O29219   4.639   3.806   4.050  0.1695 -0.1477  0.1840
  222MOL0     C29220   4.842   3.749   3.774 -0.2011 -0.5094 -0.2387
  222MOL0     C29221   4.970   3.764   3.732 -0.4759 -0.0505  0.1352
  222MOL0     N29222   5.830   4.194   3.754  0.7546  0.3633 -0.4862
  222MOL0     N29223   5.937   4.231   3.824  0.0244 -0.1213  0.6400
  222MOL0     C29224   7.023   4.117   3.609  0.0917  0.1719 -0.3273
  222MOL0     C29225   7.154   4.095   3.558  0.3298 -0.1023 -0.3086
  222MOL0     C29226   7.531   3.919   3.382  0.0738  0.2940 -0.5770
  222MOL0     C29227   7.567   3.883   3.247 -0.2492  0.5287 -0.5356
  222MOL0     C29228   7.701   3.875   3.212  0.2849  0.4925  0.4843
  222MOL0     C29229   7.799   3.898   3.311  0.6064  0.5868 -0.2982
  222MOL0     O29230   7.923   3.893   3.271 -0.1039 -0.0070 -0.6337
  222MOL0     C29231   8.000   3.778   3.310 -0.5148  0.8762 -0.2795
  222MOL0     C29232   8.138   3.811   3.365  0.0105 -0.3292 -0.3691
  222MOL0     C29233   8.120   3.914   3.486  0.5577 -0.2403  0.7332
  222MOL0     C29234   8.261   3.944   3.541 -0.2521 -0.2105 -0.1367
  222MOL0     C29235   8.322   3.832   3.612 -0.4902 -0.4170  0.0757
  222MOL0     C29236   8.363   3.724   3.646 -1.2601 -0.0526  0.4979
  222MOL0     C29237   7.762   3.922   3.438  0.5138 -0.5914 -0.8340
  222MOL0     C29238   7.630   3.936   3.479 -1.5163  0.0423  0.4176
  222MOL0     H29239   7.216   3.806   3.724 -0.3313 -0.1925  0.9654
  222MOL0     H29240   7.008   3.847   3.815 -2.0368  3.8396  2.5733
  222MOL0     H29241   6.776   3.847   3.736  0.5615 -1.4144 -1.7606
  222MOL0     H29242   6.744   3.949   3.588  3.3940  2.3025  0.8792
  222MOL0     H29243   6.549   3.878   3.710  0.0957  1.0687 -1.3089
  222MOL0     H29244   6.574   4.059   3.668 -1.6618  1.3467 -0.2910
  222MOL0     H29245   6.659   4.081   3.918 -0.8034 -1.0595  1.9760
  222MOL0     H29246   6.586   3.920   3.936  0.2705  0.2329 -0.7379
  222MOL0     H29247   6.471   4.178   3.816  0.6093  0.8281 -0.1213
  222MOL0     H29248   6.368   4.030   3.848  0.6088 -1.7570  1.2090
  222MOL0     H29249   6.499   4.148   4.088 -0.8375 -1.4652  2.7256
  222MOL0     H29250   6.383   4.026   4.075  3.2180  1.2269  4.4091
  222MOL0     H29251   6.383   4.322   4.028  0.5513 -1.2802 -1.2102
  222MOL0     H29252   6.287   4.231   4.150 -1.3707 -2.9925 -0.4522
  222MOL0     H29253   6.140   4.328   3.966  0.2711  0.5243 -0.8729
  222MOL0     H29254   6.226   4.230   3.848 -1.7819 -1.2615  0.0183
  222MOL0     H29255   6.059   4.134   4.083  0.5879  2.4441  0.2259
  222MOL0     H29256   6.143   4.025   3.961 -1.8973 -1.0268 -0.1723
  222MOL0     H29257   5.869   3.944   3.955 -3.5917  0.6607  1.0781
  222MOL0     H29258   5.702   3.889   3.769  0.4860 -0.6569  3.1437
  222MOL0     H29259   5.639   4.016   3.655 -1.2150 -0.8562  0.8468
  222MOL0     H29260   5.517   4.099   3.862  1.1006 -0.2613 -0.3754
  222MOL0     H29261   5.546   3.929   3.937 -0.4312 -1.7568 -0.4951
  222MOL0     H29262   5.399   3.997   3.673 -0.9161 -1.0657 -1.8140
  222MOL0     H29263   5.452   3.841   3.711 -0.7843 -0.0101  0.2075
  222MOL0     H29264   5.260   4.024   3.874  2.3003  1.0526 -0.4521
  222MOL0     H29265   5.297   3.859   3.929 -0.1847 -3.3283 -2.5730
  222MOL0     H29266   5.092   3.936   3.997 -0.1868 -1.5586  2.0192
  222MOL0     H29267   4.870   3.918   4.077  2.5205  1.9226 -0.6292
  222MOL0     H29268   4.388   3.712   3.655  0.0268  0.9666  0.2543
  222MOL0     H29269   4.157   3.681   3.685 -0.3685 -1.4805  0.6738
  222MOL0     H29270   3.941   3.624   3.738  2.6317  0.6575 -1.2195
  222MOL0     H29271   3.918   3.803   3.723  0.0684  0.9551  1.0788
  222MOL0     H29272   3.704   3.715   3.775 -0.0550  1.3480  0.6214
  222MOL0     H29273   3.770   3.787   3.923  2.4819  0.3773 -0.2659
  222MOL0     H29274   3.860   3.550   3.982 -1.1165 -2.4830  0.4125
  222MOL0     H29275   3.765   3.488   3.854 -3.3356 -0.9360  1.1038
  222MOL0     H29276   3.652   3.475   4.075  0.0814  0.4424  1.0621
  222MOL0     H29277   3.687   3.647   4.087  0.6080 -0.3013  0.0479
  222MOL0     H29278   3.487   3.528   3.884 -2.4723  1.2213 -0.4341
  222MOL0     H29279   3.501   3.693   3.909  0.3127 -0.7047 -0.7309
  222MOL0     H29280   3.322   3.631   4.054 -0.8691 -2.1164 -0.1028
  222MOL0     H29281   3.464   3.633   4.162 -1.7555  0.7934 -0.5889
  222MOL0     H29282   3.379   3.382   4.017  0.2863  1.5488 -1.2459
  222MOL0     H29283   3.485   3.383   4.151 -1.1641 -0.8459  4.2098
  222MOL0     H29284   3.314   3.490   4.302  1.7447 -1.9226  1.2964
  222MOL0     H29285   3.291   3.315   4.255  0.0877 -0.1185 -0.1022
  222MOL0     H29286   4.177   3.836   4.090 -0.4931  1.4639 -1.6110
  222MOL0     H29287   4.403   3.860   4.078  1.7204  0.8971 -0.9941
  222MOL0     H29288   4.775   3.710   3.698  0.1321  3.2388 -2.6835
  222MOL0     H29289   4.996   3.722   3.635 -0.7737  2.0383 -0.8948
  222MOL0     H29290   6.965   4.206   3.588 -0.3319  0.1504  0.7102
  222MOL0     H29291   7.200   4.164   3.488 -1.0704  0.7311 -0.4553
  222MOL0     H29292   7.493   3.875   3.167 -1.2569  3.1845  0.0414
  222MOL0     H29293   7.733   3.846   3.113  0.0173 -1.4010  0.9149
  222MOL0     H29294   8.018   3.719   3.220 -0.2992 -3.7409  2.5133
  222MOL0     H29295   7.946   3.715   3.381 -0.6043 -1.4620 -2.2844
  222MOL0     H29296   8.194   3.721   3.393  0.8789  0.0186 -0.9329
  222MOL0     H29297   8.189   3.862   3.283 -0.9438  2.6111  0.7332
  222MOL0     H29298   8.059   3.874   3.567  2.1307 -5.1558 -0.1896
  222MOL0     H29299   8.088   4.009   3.441 -0.9924 -0.8614  0.4467
  222MOL0     H29300   8.325   3.974   3.458  0.1015 -2.3299 -0.6814
  222MOL0     H29301   8.259   4.033   3.605  1.0914 -1.7834  2.2386
  222MOL0     H29302   8.401   3.627   3.669  1.0440  0.3030 -1.4159
  222MOL0     H29303   7.836   3.925   3.519 -0.7415 -0.6642  0.3537
  222MOL0     H29304   7.600   3.954   3.582  0.3542  0.3467  0.9477
  223MOL0     O29305   6.475   7.529   8.463 -0.6195 -0.2410 -0.2314
  223MOL0     C29306   6.531   7.577   8.370  0.1227 -0.3046 -0.4194
  223MOL0     O29307   6.483   7.566   8.243 -0.1728  0.1627  0.7455
  223MOL0     C29308   6.353   7.542   8.229  0.5495 -0.8171  0.3523
  223MOL0     C29309   6.262   7.651   8.252 -0.6025 -0.0232  0.4500
  223MOL0     C29310   6.121   7.628   8.236  0.4200 -0.1925  0.2875
  223MOL0     C29311   6.061   7.502   8.221  0.4710  0.3307  1.1691
  223MOL0     O29312   5.924   7.476   8.212  0.5857  0.1674 -0.3200
  223MOL0     C29313   5.883   7.403   8.327 -0.3061 -0.5427 -0.1373
  223MOL0     C29314   5.759   7.320   8.319  0.0769  0.4324 -0.8197
  223MOL0     C29315   5.649   7.406   8.264  0.2109  0.4125  0.4016
  223MOL0     C29316   5.521   7.316   8.252 -0.6133 -0.2441 -0.3315
  223MOL0     C29317   5.423   7.355   8.359 -0.7266 -0.3858  0.6557
  223MOL0     C29318   5.308   7.258   8.351  0.3463 -0.2398 -0.8297
  223MOL0     C29319   5.185   7.296   8.434  0.0528  0.3390  0.4276
  223MOL0     C29320   5.115   7.425   8.382 -0.4878 -0.4404 -0.8527
  223MOL0     N29321   4.989   7.444   8.460 -0.1716 -0.1745 -0.0182
  223MOL0     C29322   4.878   7.363   8.465 -0.1474  0.8010  0.0749
  223MOL0     C29323   4.794   7.410   8.563 -0.8069 -0.1032  0.0710
  223MOL0     C29324   4.650   7.378   8.599 -0.1835  0.1720 -0.5801
  223MOL0     C29325   4.633   7.230   8.629  0.2594  1.1195 -0.6045
  223MOL0     C29326   4.486   7.192   8.685 -0.7592 -0.2220 -0.3916
  223MOL0     C29327   4.361   7.235   8.618 -0.1374 -0.0775  0.1351
  223MOL0     O29328   4.354   7.160   8.490 -0.1318  0.3411 -0.6061
  223MOL0     C29329   4.222   7.152   8.451 -0.0392  0.4039 -0.2858
  223MOL0     C29330   4.153   7.031   8.475 -0.4199  0.3074  0.7646
  223MOL0     C29331   4.018   7.026   8.440  0.8848 -0.8692  0.4179
  223MOL0     C29332   3.948   7.134   8.383 -0.0700 -0.4002  0.0171
  223MOL0     C29333   3.804   7.126   8.355 -0.3661  0.3563 -0.4210
  223MOL0     O29334   3.742   6.996   8.355  0.2122 -0.8175  0.0932
  223MOL0     C29335   3.610   6.980   8.310 -0.6505 -0.5618 -0.1169
  223MOL0     C29336   3.570   7.043   8.192  0.6530 -0.1668  0.3042
  223MOL0     C29337   3.433   7.029   8.161  0.5139 -0.9955 -0.0150
  223MOL0     C29338   3.339   6.957   8.233 -0.0996 -0.4348 -0.2224
  223MOL0     O29339   3.208   6.969   8.192  0.2165 -0.5684  0.1711
  223MOL0     C29340   3.097   6.948   8.278  0.3607  0.3027 -0.1857
  223MOL0     C29341   2.959   6.964   8.211 -0.0476  0.1675  0.3625
  223MOL0     C29342   2.847   6.924   8.307 -0.0031 -0.3243 -0.5556
  223MOL0     C29343   2.714   6.906   8.246  0.7942  0.6704 -0.3947
  223MOL0     C29344   2.616   6.855   8.349  0.5348 -0.2050 -0.8090
  223MOL0     C29345   2.473   6.856   8.295  0.6902  0.0122  1.0370
  223MOL0     C29346   2.363   6.808   8.389 -0.7527 -0.2532  0.0124
  223MOL0     C29347   2.226   6.817   8.331  0.8087 -0.6092  0.1976
  223MOL0    Cl29348   2.209   6.710   8.179  0.1160 -0.2427  0.4101
  223MOL0     C29349   3.385   6.896   8.347 -0.2222  0.2864 -0.4010
  223MOL0     C29350   3.517   6.906   8.386 -0.7914 -0.4293 -0.5190
  223MOL0     O29351   3.749   7.226   8.321 -0.0801  0.0800  0.4102
  223MOL0     C29352   4.015   7.245   8.358 -0.0891  0.3635  0.5000
  223MOL0     C29353   4.151   7.259   8.401 -0.3470 -0.4146  0.2683
  223MOL0     N29354   4.863   7.527   8.612  0.0672  0.2050  0.1438
  223MOL0     N29355   4.977   7.543   8.554  0.0084  0.5848 -0.8362
  223MOL0     C29356   6.152   7.395   8.192  0.3332  0.4665 -0.6601
  223MOL0     C29357   6.297   7.423   8.190 -0.2593 -0.4809  0.2865
  223MOL0     C29358   6.660   7.646   8.395  0.3595 -0.3208  0.5710
  223MOL0     C29359   6.726   7.646   8.515  0.5628  0.0820  0.2113
  223MOL0     C29360   6.851   7.695   8.524 -0.3428  0.6531  0.1078
  223MOL0     C29361   6.909   7.773   8.426  0.7986 -0.1482  0.4435
  223MOL0     O29362   7.031   7.843   8.436  0.2518 -0.0214 -0.1338
  223MOL0     C29363   7.133   7.755   8.465  0.0076  0.2592 -0.5364
  223MOL0     C29364   7.266   7.810   8.398 -0.0343  0.2431  0.3682
  223MOL0     C29365   7.386   7.725   8.432 -0.5281  0.4885  0.4623
  223MOL0     C29366   7.384   7.576   8.412  0.0713  0.3759 -0.4347
  223MOL0     C29367   7.385   7.545   8.264 -0.8321  0.3378  0.1979
  223MOL0     C29368   7.369   7.514   8.151 -0.3811 -0.8946 -0.0563
  223MOL0     C29369   6.837   7.783   8.308  0.2836 -0.2915  0.1124
  223MOL0     C29370   6.712   7.729   8.287  0.0702  0.2204  0.5883
  223MOL0     H29371   6.299   7.751   8.272 -3.9928  1.8553 -1.5735
  223MOL0     H29372   6.065   7.721   8.245  0.9047  0.1851 -0.5090
  223MOL0     H29373   5.881   7.473   8.411 -1.8654 -0.6640 -0.0468
  223MOL0     H29374   5.958   7.326   8.349  1.0725  0.4834 -1.0941
  223MOL0     H29375   5.730   7.277   8.415 -3.0741 -1.3213 -2.4031
  223MOL0     H29376   5.774   7.239   8.247 -1.8924  1.4169 -2.4516
  223MOL0     H29377   5.683   7.439   8.165 -0.7693 -0.2865 -0.1766
  223MOL0     H29378   5.637   7.494   8.328 -0.1010  0.5339  0.1776
  223MOL0     H29379   5.462   7.334   8.162  0.1656 -0.4491 -0.8862
  223MOL0     H29380   5.549   7.211   8.247  0.8856  0.1795 -1.8008
  223MOL0     H29381   5.405   7.462   8.344  1.1088 -0.4497 -3.5653
  223MOL0     H29382   5.464   7.345   8.460  1.5673 -2.1875 -0.3489
  223MOL0     H29383   5.336   7.161   8.393  0.9958 -0.0361 -0.7786
  223MOL0     H29384   5.267   7.238   8.252 -4.4035  0.2062  0.7834
  223MOL0     H29385   5.108   7.219   8.421 -0.0022  0.3536  0.6734
  223MOL0     H29386   5.218   7.311   8.537 -1.7051 -0.1436  1.0962
  223MOL0     H29387   5.105   7.408   8.274  0.3874 -0.2087 -0.9822
  223MOL0     H29388   5.171   7.519   8.383 -0.9480 -0.0369 -3.6964
  223MOL0     H29389   4.851   7.284   8.395 -0.5090  0.8236  0.1843
  223MOL0     H29390   4.591   7.417   8.516 -0.6821 -0.8096 -0.6995
  223MOL0     H29391   4.625   7.424   8.695 -1.7716  0.6099 -1.1755
  223MOL0     H29392   4.711   7.194   8.697 -0.1754 -1.5672 -1.4210
  223MOL0     H29393   4.654   7.171   8.540 -0.2449 -0.6921  0.4267
  223MOL0     H29394   4.478   7.083   8.695  0.4481 -0.2533  0.4721
  223MOL0     H29395   4.478   7.233   8.786  2.6535  0.0658 -0.1101
  223MOL0     H29396   4.352   7.342   8.597 -2.2214 -0.6327 -2.4618
  223MOL0     H29397   4.277   7.215   8.684  1.3331 -2.2634  1.4820
  223MOL0     H29398   4.203   6.952   8.529  0.8110 -0.0693 -0.8245
  223MOL0     H29399   3.972   6.932   8.469  1.3236 -0.8858  1.0836
  223MOL0     H29400   3.642   7.100   8.134 -0.2565  3.5638  2.4579
  223MOL0     H29401   3.403   7.068   8.064 -2.1315 -1.0285  0.6994
  223MOL0     H29402   3.096   7.025   8.355 -0.2209  2.1175 -1.9390
  223MOL0     H29403   3.097   6.848   8.323 -3.5200  0.2824  0.1137
  223MOL0     H29404   2.956   6.889   8.132 -0.0417  1.3348 -0.7775
  223MOL0     H29405   2.946   7.065   8.173 -2.2823 -0.0688  0.3992
  223MOL0     H29406   2.834   7.012   8.371 -0.8911 -0.5359 -0.4385
  223MOL0     H29407   2.880   6.834   8.360  0.3877 -0.3151 -0.7797
  223MOL0     H29408   2.679   7.004   8.210 -1.6054  1.1007  2.7087
  223MOL0     H29409   2.719   6.840   8.159 -1.2586  1.2798 -1.0370
  223MOL0     H29410   2.620   6.925   8.433  0.3778 -0.6591 -0.4176
  223MOL0     H29411   2.648   6.761   8.393 -1.0421 -0.1380  0.5716
  223MOL0     H29412   2.468   6.781   8.216  0.1165 -1.0482  2.0578
  223MOL0     H29413   2.441   6.954   8.256 -0.4493 -0.5734  0.4241
  223MOL0     H29414   2.397   6.705   8.405  2.4185  0.9245  1.5509
  223MOL0     H29415   2.374   6.868   8.480  2.0418  1.1003 -1.1149
  223MOL0     H29416   2.219   6.923   8.303 -1.2794 -0.8489 -0.2826
  223MOL0     H29417   2.149   6.788   8.402 -0.0429  1.0891  0.0255
  223MOL0     H29418   3.325   6.835   8.415  1.3530  0.0442  0.8210
  223MOL0     H29419   3.546   6.855   8.478 -0.6998 -1.4828 -1.1186
  223MOL0     H29420   3.960   7.325   8.309  1.8595  0.4520 -1.6883
  223MOL0     H29421   4.203   7.354   8.390  2.0395 -0.5560  6.5258
  223MOL0     H29422   6.100   7.301   8.179 -0.2346  0.7581 -0.5140
  223MOL0     H29423   6.359   7.335   8.172  4.8224  2.4223  1.6281
  223MOL0     H29424   6.690   7.590   8.602  2.6418 -1.1184  0.3678
  223MOL0     H29425   6.911   7.677   8.613  0.3154 -0.8124 -0.6115
  223MOL0     H29426   7.113   7.659   8.416  3.5390 -0.4413 -0.8208
  223MOL0     H29427   7.148   7.737   8.572  1.7595  1.5428 -0.5381
  223MOL0     H29428   7.263   7.811   8.289  2.7811 -2.5407  0.1104
  223MOL0     H29429   7.276   7.916   8.423  0.2612  0.2123  0.3838
  223MOL0     H29430   7.410   7.740   8.537  2.9344 -1.9081  0.1516
  223MOL0     H29431   7.475   7.771   8.388  0.1624  0.7705  2.1069
  223MOL0     H29432   7.464   7.523   8.464  1.6354  2.1243 -0.9782
  223MOL0     H29433   7.299   7.523   8.457  0.4358  1.2115  1.3269
  223MOL0     H29434   7.359   7.482   8.049 -3.4180  2.5859 -1.0678
  223MOL0     H29435   6.887   7.839   8.230 -1.7930  2.4687  0.6165
  223MOL0     H29436   6.658   7.734   8.193  1.4195 -0.5073 -0.2733
  224MOL0     O29437   5.011   6.108   1.516  0.6971  0.4224  0.2856
  224MOL0     C29438   5.095   6.158   1.442 -0.5219 -0.3830 -0.4897
  224MOL0     O29439   5.095   6.154   1.304 -1.0242 -0.0522 -0.1330
  224MOL0     C29440   4.983   6.093   1.259 -0.2691 -0.2195 -0.3651
  224MOL0     C29441   4.986   5.956   1.229 -0.5301  0.4321 -0.4642
  224MOL0     C29442   4.881   5.905   1.145 -1.3856 -0.5762 -1.0882
  224MOL0     C29443   4.768   5.984   1.101  0.2523  0.0694  0.5520
  224MOL0     O29444   4.664   5.937   1.024  0.7486 -0.1461 -0.1946
  224MOL0     C29445   4.701   5.918   0.890 -0.8062  0.2651  0.1982
  224MOL0     C29446   4.579   5.896   0.791 -0.5232 -0.6008  0.0220
  224MOL0     C29447   4.503   5.772   0.824  0.4171  0.1314  0.1074
  224MOL0     C29448   4.455   5.705   0.688  0.0015 -0.5114 -0.2389
  224MOL0     C29449   4.328   5.635   0.698  0.4661  0.4738  0.3391
  224MOL0     C29450   4.339   5.509   0.794  0.7826  0.1682 -0.6217
  224MOL0     C29451   4.244   5.398   0.762 -0.0155  0.7070  0.1603
  224MOL0     C29452   4.106   5.442   0.713  0.9734  0.6299  0.0589
  224MOL0     N29453   4.026   5.348   0.637 -0.8897  0.1883 -1.0321
  224MOL0     C29454   4.083   5.266   0.548  0.0444 -0.2290 -0.3086
  224MOL0     C29455   3.981   5.181   0.518  0.7418  0.0421  0.1742
  224MOL0     C29456   3.993   5.077   0.405 -1.2517 -1.4122  0.0455
  224MOL0     C29457   3.915   4.948   0.433  0.0675  0.2308 -1.0360
  224MOL0     C29458   3.985   4.840   0.365 -1.2050  0.1055  0.2526
  224MOL0     C29459   3.914   4.706   0.366  0.2855 -0.1742 -0.2736
  224MOL0     O29460   3.798   4.699   0.278 -0.3886 -0.4989  0.2782
  224MOL0     C29461   3.700   4.604   0.286 -0.6324 -0.0090 -0.2477
  224MOL0     C29462   3.581   4.634   0.225  0.0375  0.4816  0.2755
  224MOL0     C29463   3.475   4.544   0.206 -1.0308  1.4012 -0.5903
  224MOL0     C29464   3.494   4.412   0.259 -0.8662  0.1088  0.4860
  224MOL0     C29465   3.398   4.299   0.226  0.0559  0.2556  0.1144
  224MOL0     O29466   3.271   4.332   0.192 -0.2826 -0.1502  0.6179
  224MOL0     C29467   3.179   4.234   0.167  0.1360 -0.0703  0.0939
  224MOL0     C29468   3.086   4.259   0.066 -0.7680  0.6651 -0.0900
  224MOL0     C29469   2.987   4.166   0.047 -0.5922  0.3037 -0.2945
  224MOL0     C29470   2.988   4.041   0.108 -0.2505 -0.2550  0.6428
  224MOL0     O29471   2.880   3.957   0.076  0.8026  0.8834 -0.2734
  224MOL0     C29472   2.841   3.863   0.174  0.1416 -0.1255 -0.2847
  224MOL0     C29473   2.744   3.767   0.098  0.2224  0.2668  0.3061
  224MOL0     C29474   2.680   3.681   0.202  0.4980  0.5578 -0.0427
  224MOL0     C29475   2.553   3.739   0.250 -0.4237  0.1687 -0.2399
  224MOL0     C29476   2.469   3.641   0.326 -0.7243  0.1713 -0.5955
  224MOL0     C29477   2.362   3.719   0.398  1.0792  0.0951  0.1751
  224MOL0     C29478   2.282   3.618   0.476  0.0351 -0.4371  0.7578
  224MOL0     C29479   2.159   3.676   0.557 -0.3077 -0.3202 -0.8519
  224MOL0    Cl29480   2.217   3.783   0.688 -0.0337 -0.2165 -0.4890
  224MOL0     C29481   3.099   4.011   0.188  0.1279 -0.1033 -1.0876
  224MOL0     C29482   3.176   4.114   0.233 -0.2973  0.1017  0.2302
  224MOL0     O29483   3.448   4.189   0.225 -0.5733 -0.7156 -0.2743
  224MOL0     C29484   3.613   4.389   0.338  0.2864 -0.2319 -0.1882
  224MOL0     C29485   3.712   4.479   0.345 -0.4935 -0.1174 -0.3668
  224MOL0     N29486   3.864   5.219   0.574 -0.0500 -0.2451 -0.4746
  224MOL0     N29487   3.893   5.318   0.660 -0.2059  0.2792  0.6015
  224MOL0     C29488   4.765   6.113   1.148  0.3387 -0.1306  0.0414
  224MOL0     C29489   4.871   6.170   1.220  0.8049 -0.3207  0.1338
  224MOL0     C29490   5.213   6.219   1.509 -0.3351 -1.0484 -0.0302
  224MOL0     C29491   5.233   6.207   1.646  0.1996  0.1120 -1.8156
  224MOL0     C29492   5.335   6.273   1.712 -1.0045  0.1609 -0.6013
  224MOL0     C29493   5.437   6.339   1.642  0.8325  0.2996  0.1078
  224MOL0     O29494   5.543   6.405   1.687 -0.1114  0.0689  0.4250
  224MOL0     C29495   5.578   6.373   1.824 -0.1555 -0.2800 -0.1605
  224MOL0     C29496   5.707   6.442   1.867 -0.1729  0.3229 -0.2424
  224MOL0     C29497   5.825   6.410   1.779 -0.1472  0.0107 -0.3129
  224MOL0     C29498   5.832   6.466   1.630  0.2236  0.0377 -0.9888
  224MOL0     C29499   5.970   6.468   1.581  0.2743 -1.2825  0.6460
  224MOL0     C29500   6.083   6.467   1.540 -0.6726 -0.0160  0.0738
  224MOL0     C29501   5.413   6.364   1.507 -0.7827  0.4739 -0.6552
  224MOL0     C29502   5.302   6.301   1.439 -0.8945 -0.9230  0.1590
  224MOL0     H29503   5.063   5.885   1.257 -1.3923 -1.0369 -1.6079
  224MOL0     H29504   4.881   5.801   1.113  1.3927 -0.4644 -1.6525
  224MOL0     H29505   4.769   5.832   0.888  0.0546  0.9483 -1.3959
  224MOL0     H29506   4.752   6.005   0.846  1.0627 -0.6788  0.4075
  224MOL0     H29507   4.624   5.880   0.693 -1.3441 -0.2772 -0.4102
  224MOL0     H29508   4.530   5.994   0.789  0.8155  0.2915  3.3454
  224MOL0     H29509   4.419   5.798   0.889  2.1101  1.6630  1.7989
  224MOL0     H29510   4.568   5.704   0.879 -0.4471 -2.8261 -2.2338
  224MOL0     H29511   4.433   5.786   0.618  0.2378  0.4818  0.7937
  224MOL0     H29512   4.527   5.640   0.638 -2.7102 -1.5764 -3.0767
  224MOL0     H29513   4.297   5.611   0.596  0.8751 -1.5025  0.6247
  224MOL0     H29514   4.246   5.701   0.727 -2.2058 -1.9797 -1.0153
  224MOL0     H29515   4.309   5.540   0.895  1.6926 -0.1136 -0.2611
  224MOL0     H29516   4.441   5.473   0.807  0.6363 -0.0346 -0.0063
  224MOL0     H29517   4.288   5.329   0.689 -0.9324  0.4940 -0.2037
  224MOL0     H29518   4.222   5.331   0.846 -0.2437 -2.2900 -2.1296
  224MOL0     H29519   4.114   5.526   0.643  2.0608  0.5492  0.0799
  224MOL0     H29520   4.049   5.476   0.801 -3.2276 -0.7154 -1.8643
  224MOL0     H29521   4.186   5.260   0.515 -0.2166 -1.8071 -0.9395
  224MOL0     H29522   4.099   5.051   0.399 -0.6021  0.7098  1.0942
  224MOL0     H29523   3.961   5.113   0.307  0.1004 -3.6211 -1.2725
  224MOL0     H29524   3.816   4.973   0.393 -0.0299 -0.4396 -1.2135
  224MOL0     H29525   3.904   4.938   0.541 -0.6638  1.2538 -1.0049
  224MOL0     H29526   4.004   4.861   0.260 -2.9935  1.4571  0.1461
  224MOL0     H29527   4.081   4.820   0.412  0.4734  1.1347 -2.5168
  224MOL0     H29528   3.885   4.692   0.470  4.3670 -2.5658  0.7758
  224MOL0     H29529   3.990   4.632   0.338  1.5560 -0.1801  2.8706
  224MOL0     H29530   3.563   4.733   0.183  1.2843 -0.0474 -1.6088
  224MOL0     H29531   3.385   4.561   0.148 -1.7188  0.9822  0.3116
  224MOL0     H29532   3.098   4.347   0.003  2.9129 -1.3039 -2.4591
  224MOL0     H29533   2.901   4.185  -0.018 -0.1737 -2.0570 -1.6506
  224MOL0     H29534   2.806   3.913   0.264  1.1467  2.1314 -1.0710
  224MOL0     H29535   2.926   3.804   0.210  2.7014  2.5567 -1.5037
  224MOL0     H29536   2.809   3.716   0.026 -0.0463 -0.8974  0.8602
  224MOL0     H29537   2.674   3.833   0.047 -0.5960  1.3574  2.7085
  224MOL0     H29538   2.736   3.660   0.293  3.6931  2.0102 -1.5221
  224MOL0     H29539   2.658   3.588   0.149 -1.6647  1.8381 -1.5515
  224MOL0     H29540   2.570   3.833   0.304 -2.2639  1.5280 -1.9136
  224MOL0     H29541   2.492   3.775   0.167 -0.8679  1.0502  0.4598
  224MOL0     H29542   2.525   3.576   0.393  0.1716 -1.1751 -2.5633
  224MOL0     H29543   2.420   3.574   0.255  2.2318 -2.2771 -0.5184
  224MOL0     H29544   2.307   3.765   0.315 -0.6974 -0.6821  0.8872
  224MOL0     H29545   2.411   3.790   0.465 -0.4222  0.0689  1.3236
  224MOL0     H29546   2.245   3.545   0.403 -0.8402  1.2155 -0.5570
  224MOL0     H29547   2.356   3.566   0.536  2.6816 -0.8674 -2.5933
  224MOL0     H29548   2.111   3.593   0.609 -0.9321  0.3683 -0.2958
  224MOL0     H29549   2.087   3.729   0.494 -2.5780  0.9204  2.4866
  224MOL0     H29550   3.118   3.911   0.225 -2.9073  0.3285  2.2055
  224MOL0     H29551   3.251   4.091   0.308 -0.2628 -1.0144 -0.1283
  224MOL0     H29552   3.634   4.292   0.382 -2.0647 -0.4946  0.5285
  224MOL0     H29553   3.803   4.458   0.401 -0.8449  0.8307  0.5832
  224MOL0     H29554   4.668   6.154   1.122 -0.8615 -1.7107  1.7576
  224MOL0     H29555   4.859   6.270   1.260 -0.5098  1.1329 -3.4416
  224MOL0     H29556   5.169   6.137   1.699  1.5606 -0.6333 -1.1039
  224MOL0     H29557   5.343   6.263   1.820 -0.1743 -0.7171 -0.7299
  224MOL0     H29558   5.593   6.265   1.834 -1.4780 -0.4385  0.3446
  224MOL0     H29559   5.493   6.401   1.886  1.3094 -0.8293  2.2164
  224MOL0     H29560   5.683   6.549   1.870 -2.4582 -0.1687  0.3973
  224MOL0     H29561   5.729   6.423   1.972 -2.8860 -1.1809  0.1205
  224MOL0     H29562   5.838   6.302   1.791 -1.9788 -0.2078  0.0205
  224MOL0     H29563   5.912   6.455   1.827 -0.3039  0.2092 -0.2104
  224MOL0     H29564   5.764   6.419   1.559 -0.9382  2.0738 -1.2931
  224MOL0     H29565   5.797   6.569   1.645 -0.6454  0.0088 -2.6932
  224MOL0     H29566   6.181   6.456   1.497 -0.6857  2.8384 -0.9502
  224MOL0     H29567   5.479   6.424   1.444 -0.3746  1.6447  0.8149
  224MOL0     H29568   5.304   6.300   1.331  2.5169  0.0647  0.1191
  225MOL0     O29569   9.682   5.605   1.790  0.4124 -0.4172  0.3256
  225MOL0     C29570   9.638   5.717   1.793  0.1562 -0.2081  0.9470
  225MOL0     O29571   9.715   5.829   1.799  0.3405  0.2696 -0.2137
  225MOL0     C29572   9.847   5.825   1.760  0.0805  0.4298  0.2369
  225MOL0     C29573   9.913   5.727   1.673  0.2365  0.0440  0.8134
  225MOL0     C29574  10.058   5.730   1.671 -0.2869  0.2700 -0.6517
  225MOL0     C29575  10.132   5.831   1.723  0.2696  0.3780  0.3518
  225MOL0     O29576  10.270   5.836   1.716 -0.5715  1.2221  0.2379
  225MOL0     C29577  10.347   5.756   1.624 -0.0056 -0.6625  0.3742
  225MOL0     C29578  10.491   5.777   1.626 -0.2995 -0.0124 -0.3126
  225MOL0     C29579  10.535   5.928   1.643 -0.3632  0.1869 -0.7611
  225MOL0     C29580  10.687   5.963   1.615  0.6231 -0.5478  0.0323
  225MOL0     C29581  10.694   6.069   1.509 -0.0275  0.4115 -0.4036
  225MOL0     C29582  10.842   6.107   1.484 -0.3348  0.1839 -0.4664
  225MOL0     C29583  10.856   6.231   1.392  0.1055  0.1945 -0.0355
  225MOL0     C29584  11.000   6.279   1.379 -0.5743  0.6146  0.1339
  225MOL0     N29585  11.047   6.355   1.497  0.5438 -0.2226 -0.4518
  225MOL0     C29586  10.977   6.462   1.557  0.6962  0.0211  0.9080
  225MOL0     C29587  11.064   6.523   1.638  0.6083 -0.6212  0.3349
  225MOL0     C29588  11.061   6.654   1.715  0.1199  0.0169 -0.2618
  225MOL0     C29589  10.914   6.692   1.722 -0.4154  0.5783  0.0990
  225MOL0     C29590  10.829   6.590   1.788 -0.4840 -0.3917  0.0997
  225MOL0     C29591  10.695   6.657   1.831 -0.2472 -0.1117 -0.3451
  225MOL0     O29592  10.616   6.548   1.888 -0.2237 -0.1196  0.2191
  225MOL0     C29593  10.488   6.569   1.917  0.2958  0.0152 -0.5224
  225MOL0     C29594  10.414   6.687   1.894  0.1266  0.4210 -0.4757
  225MOL0     C29595  10.281   6.698   1.929  0.5855  0.0876 -0.1763
  225MOL0     C29596  10.215   6.581   1.971 -0.5365 -0.1545 -0.2747
  225MOL0     C29597  10.075   6.579   2.014  0.4029  0.2796 -0.4938
  225MOL0     O29598  10.044   6.516   2.125 -0.9546 -0.4223  0.8735
  225MOL0     C29599   9.913   6.520   2.168 -0.6268 -0.7953 -0.4614
  225MOL0     C29600   9.826   6.416   2.139 -0.7876  0.4518  0.2777
  225MOL0     C29601   9.692   6.424   2.177 -0.2704  0.2887  1.0970
  225MOL0     C29602   9.654   6.536   2.251 -0.0873 -0.0090 -0.7811
  225MOL0     O29603   9.525   6.551   2.286  0.6217  0.5004  0.3963
  225MOL0     C29604   9.493   6.481   2.405 -0.3932  0.4937 -0.3564
  225MOL0     C29605   9.343   6.510   2.431 -0.1719  0.0260 -0.1112
  225MOL0     C29606   9.263   6.392   2.495  0.4023  0.8681 -0.2526
  225MOL0     C29607   9.122   6.447   2.550 -0.0695  0.1841 -0.4317
  225MOL0     C29608   9.062   6.341   2.645 -0.7848  0.6929 -0.9904
  225MOL0     C29609   8.910   6.362   2.667 -0.7722  0.8050  0.0027
  225MOL0     C29610   8.846   6.265   2.758  0.8546  0.3600  0.3112
  225MOL0     C29611   8.697   6.283   2.782  0.5257  0.1887 -0.4718
  225MOL0    Cl29612   8.606   6.278   2.633 -0.4475  0.2814  0.6760
  225MOL0     C29613   9.746   6.635   2.291  0.1785  0.3269  0.2093
  225MOL0     C29614   9.876   6.628   2.244 -0.0178  1.2726 -0.6101
  225MOL0     O29615   9.997   6.653   1.950  0.0264 -0.5106  0.0449
  225MOL0     C29616  10.282   6.462   1.990  0.2937  0.4157 -0.0621
  225MOL0     C29617  10.425   6.457   1.975 -0.1218  0.1145 -0.5175
  225MOL0     N29618  11.181   6.452   1.632  0.2611  0.6432  0.4204
  225MOL0     N29619  11.168   6.353   1.558 -0.1312 -0.8572  0.3408
  225MOL0     C29620  10.071   5.935   1.791  0.1777  0.4902  0.1206
  225MOL0     C29621   9.932   5.933   1.811  0.3182 -0.0002  0.3601
  225MOL0     C29622   9.498   5.745   1.787  0.7585 -0.3987 -0.2407
  225MOL0     C29623   9.438   5.876   1.814 -0.3063  0.0854 -0.1992
  225MOL0     C29624   9.307   5.901   1.796  0.1142 -0.4078  0.3270
  225MOL0     C29625   9.217   5.804   1.743  0.3071  0.2043 -0.4037
  225MOL0     O29626   9.086   5.836   1.715 -0.0340  0.3652  0.9552
  225MOL0     C29627   8.976   5.740   1.699  0.7699 -0.0979  0.5197
  225MOL0     C29628   8.960   5.712   1.547 -0.1507 -0.1295  0.0536
  225MOL0     C29629   8.858   5.592   1.523  0.3755 -0.0352 -0.1947
  225MOL0     C29630   8.717   5.646   1.524  0.8810 -0.1322 -0.1150
  225MOL0     C29631   8.690   5.748   1.418  0.5317  0.7927 -0.5233
  225MOL0     C29632   8.668   5.849   1.358  0.1481  0.0733  0.0641
  225MOL0     C29633   9.267   5.671   1.717 -0.4089 -0.7645  0.4592
  225MOL0     C29634   9.406   5.646   1.740  0.0668 -0.6735 -0.0778
  225MOL0     H29635   9.862   5.657   1.608  2.7136 -0.6948 -0.4314
  225MOL0     H29636  10.097   5.653   1.605 -3.0068 -1.4819 -0.4237
  225MOL0     H29637  10.311   5.804   1.532 -0.7170 -0.5286  0.7096
  225MOL0     H29638  10.325   5.649   1.634 -1.3829 -0.4662 -0.2343
  225MOL0     H29639  10.535   5.728   1.539  1.4361 -1.0823  1.0877
  225MOL0     H29640  10.532   5.725   1.713 -1.1819 -0.2678 -0.0364
  225MOL0     H29641  10.518   5.949   1.749 -0.6118  0.0027 -0.7621
  225MOL0     H29642  10.466   5.985   1.580  2.4560  1.9096 -2.4723
  225MOL0     H29643  10.740   5.998   1.704  0.1050 -3.2255  1.4812
  225MOL0     H29644  10.739   5.872   1.583  1.8108  1.0645 -3.0217
  225MOL0     H29645  10.638   6.157   1.541 -2.1421 -1.4564  1.3574
  225MOL0     H29646  10.638   6.039   1.420 -0.1800  0.5930 -0.3710
  225MOL0     H29647  10.895   6.025   1.434  0.9636  1.6074 -1.5222
  225MOL0     H29648  10.883   6.135   1.581  1.4733 -0.0671 -1.1153
  225MOL0     H29649  10.808   6.216   1.295  0.2066 -0.2355 -0.0230
  225MOL0     H29650  10.790   6.308   1.433 -0.4150 -0.6039  0.6637
  225MOL0     H29651  11.006   6.351   1.296  4.2398 -0.1778 -0.4863
  225MOL0     H29652  11.070   6.198   1.359 -0.3808 -0.0425  3.0416
  225MOL0     H29653  10.882   6.504   1.525  0.8185 -1.2317 -1.3707
  225MOL0     H29654  11.111   6.732   1.657 -1.2609  1.9824  1.0990
  225MOL0     H29655  11.109   6.649   1.813  2.5791  0.4176 -1.3742
  225MOL0     H29656  10.876   6.714   1.622  1.7223  3.3870 -0.2253
  225MOL0     H29657  10.897   6.790   1.768 -1.9618  0.4963 -0.2410
  225MOL0     H29658  10.801   6.511   1.717  1.1504 -1.3236  0.4288
  225MOL0     H29659  10.875   6.535   1.871 -1.5413  0.5129  1.3254
  225MOL0     H29660  10.645   6.702   1.745 -1.6893 -2.9749 -1.1292
  225MOL0     H29661  10.707   6.730   1.912 -0.6338 -0.3856 -0.0344
  225MOL0     H29662  10.463   6.773   1.850  0.2274  0.2782 -0.6444
  225MOL0     H29663  10.214   6.783   1.922 -2.8176 -2.3347  0.1609
  225MOL0     H29664   9.864   6.335   2.077  0.6703 -0.2998  2.0429
  225MOL0     H29665   9.619   6.355   2.134 -0.1290  1.8556 -1.8938
  225MOL0     H29666   9.553   6.511   2.492 -0.6791  1.4046 -0.4593
  225MOL0     H29667   9.496   6.374   2.383 -5.3700  0.7382 -3.6948
  225MOL0     H29668   9.293   6.544   2.339  0.5623  1.8573  0.1260
  225MOL0     H29669   9.339   6.598   2.495  2.7623  2.2111 -2.6072
  225MOL0     H29670   9.320   6.342   2.573  1.9751 -0.5304 -2.1867
  225MOL0     H29671   9.246   6.317   2.417 -0.8299 -0.9075  1.6361
  225MOL0     H29672   9.143   6.537   2.608 -0.4543  1.2033 -1.8142
  225MOL0     H29673   9.048   6.468   2.472  0.5076 -2.1048 -1.6674
  225MOL0     H29674   9.114   6.345   2.741 -2.3583 -0.4866 -0.0303
  225MOL0     H29675   9.081   6.247   2.591 -0.2212 -0.6812  1.4724
  225MOL0     H29676   8.864   6.341   2.570  2.0649 -1.0911 -1.0625
  225MOL0     H29677   8.897   6.465   2.702  0.3295  0.1295  2.6146
  225MOL0     H29678   8.865   6.169   2.709 -0.4931  0.7871 -1.1780
  225MOL0     H29679   8.897   6.273   2.854 -0.1806  4.6802  0.7263
  225MOL0     H29680   8.664   6.375   2.831 -0.8611  0.2108 -1.3773
  225MOL0     H29681   8.663   6.189   2.826  0.7587 -0.7802 -2.2848
  225MOL0     H29682   9.720   6.712   2.364 -0.3645  1.0545 -0.7315
  225MOL0     H29683   9.948   6.706   2.266  1.0798  0.9234 -2.6773
  225MOL0     H29684  10.232   6.375   2.031 -1.5010  0.3877 -2.1259
  225MOL0     H29685  10.492   6.372   1.971  2.6118  2.0969  0.0519
  225MOL0     H29686  10.130   6.012   1.841  1.5486 -1.1218  1.1237
  225MOL0     H29687   9.876   6.003   1.872 -1.6455 -1.6381  0.5487
  225MOL0     H29688   9.494   5.960   1.855  0.6932 -1.0768  0.8786
  225MOL0     H29689   9.258   5.994   1.824 -3.5138 -1.6049 -1.3671
  225MOL0     H29690   8.885   5.775   1.750  2.1152 -0.0553  3.0294
  225MOL0     H29691   9.000   5.650   1.756  0.6802  0.7216  1.8938
  225MOL0     H29692   8.924   5.793   1.482 -0.5540 -2.1343 -2.4166
  225MOL0     H29693   9.055   5.693   1.496 -0.1999 -0.8602  0.2300
  225MOL0     H29694   8.859   5.515   1.600  2.2539  0.5059  0.3779
  225MOL0     H29695   8.875   5.544   1.426 -2.7458 -1.9395  0.0595
  225MOL0     H29696   8.644   5.566   1.505  0.0492  0.8265 -1.1293
  225MOL0     H29697   8.690   5.691   1.619 -1.6230 -0.8078 -0.4269
  225MOL0     H29698   8.650   5.936   1.298  0.0428 -0.5848 -0.8716
  225MOL0     H29699   9.208   5.587   1.681  0.6797 -1.5600  0.4814
  225MOL0     H29700   9.447   5.546   1.730  2.5443  0.3389 -0.9294
  226MOL0     O29701   1.011   0.993   5.929 -0.1244  0.2707 -0.2149
  226MOL0     C29702   1.058   0.892   5.972  0.3550  0.4839  0.1633
  226MOL0     O29703   0.994   0.769   5.975 -0.2023  1.2074  0.2092
  226MOL0     C29704   0.874   0.753   5.912 -0.0952 -0.1729  0.4932
  226MOL0     C29705   0.753   0.741   5.980  0.0041 -0.7119 -0.5804
  226MOL0     C29706   0.632   0.728   5.902  0.2743 -0.4904  0.8238
  226MOL0     C29707   0.639   0.714   5.766  0.0193  0.6219  0.4022
  226MOL0     O29708   0.537   0.690   5.678 -0.1881 -0.1528  0.5231
  226MOL0     C29709   0.405   0.694   5.716 -0.0150 -0.4981 -0.0180
  226MOL0     C29710   0.310   0.668   5.599 -0.1618  0.2524 -0.0433
  226MOL0     C29711   0.333   0.542   5.513 -0.0866 -0.1408  0.3264
  226MOL0     C29712   0.331   0.405   5.591 -0.5706  0.3890  0.0557
  226MOL0     C29713   0.351   0.289   5.498 -0.5004 -0.4629  0.5925
  226MOL0     C29714   0.236   0.261   5.401 -0.0428  0.1970  0.0621
  226MOL0     C29715   0.249   0.116   5.345  0.3398  0.0285  0.4972
  226MOL0     C29716   0.148   0.082   5.240 -0.1736 -0.8865  0.2971
  226MOL0     N29717   0.006   0.094   5.281  0.3859  0.3809  0.0079
  226MOL0     C29718  -0.076  -0.022   5.295 -0.1736 -0.8776  0.0812
  226MOL0     C29719  -0.198   0.027   5.274  0.5377 -0.2133  0.0651
  226MOL0     C29720  -0.331  -0.044   5.285  0.3710 -0.0047  0.5550
  226MOL0     C29721  -0.452   0.060   5.294 -0.3187  0.1106 -0.4774
  226MOL0     C29722  -0.580  -0.020   5.306  0.1031  0.0542 -0.1113
  226MOL0     C29723  -0.704   0.069   5.324 -0.7880  0.4216 -0.4275
  226MOL0     O29724  -0.747   0.132   5.199  0.1131 -0.0772 -0.1489
  226MOL0     C29725  -0.865   0.187   5.187  0.1940  0.6653  1.1179
  226MOL0     C29726  -0.902   0.228   5.054  0.6411 -0.7385  0.8919
  226MOL0     C29727  -1.034   0.264   5.026 -0.4124  0.2040  0.1394
  226MOL0     C29728  -1.133   0.271   5.131  0.0800  0.7402  0.0651
  226MOL0     C29729  -1.275   0.308   5.108 -0.0146 -0.0061 -0.1691
  226MOL0     O29730  -1.360   0.317   5.206 -0.2996  0.1090 -0.3619
  226MOL0     C29731  -1.488   0.318   5.172  0.1869  0.3350  0.5673
  226MOL0     C29732  -1.551   0.193   5.170  0.1478 -0.5403  0.8170
  226MOL0     C29733  -1.689   0.187   5.143 -0.0829  0.0733 -0.4170
  226MOL0     C29734  -1.765   0.303   5.119 -0.2599  0.9316  0.6324
  226MOL0     O29735  -1.896   0.270   5.080 -0.4391  0.5263  0.0965
  226MOL0     C29736  -1.969   0.380   5.029  0.0648  0.4906 -0.4719
  226MOL0     C29737  -2.106   0.349   4.962  0.0052 -0.3155 -1.0269
  226MOL0     C29738  -2.092   0.317   4.814  0.1992  0.8685 -0.0384
  226MOL0     C29739  -2.228   0.306   4.739  0.3992  0.1291 -0.2213
  226MOL0     C29740  -2.298   0.176   4.782 -0.2933  0.6146  0.6428
  226MOL0     C29741  -2.445   0.175   4.749 -1.0051 -0.3007 -0.2075
  226MOL0     C29742  -2.515   0.042   4.793 -0.1321  0.3785  0.8883
  226MOL0     C29743  -2.671   0.061   4.767  0.1872 -0.4119 -0.2977
  226MOL0    Cl29744  -2.750   0.179   4.877  0.2302  0.4498  0.1120
  226MOL0     C29745  -1.700   0.427   5.124  0.0626  0.3436 -0.6257
  226MOL0     C29746  -1.567   0.431   5.151 -0.1342  0.3064 -0.0439
  226MOL0     O29747  -1.302   0.339   4.994  0.8208 -0.5931 -0.2466
  226MOL0     C29748  -1.093   0.223   5.259 -0.3187  0.4467  0.4157
  226MOL0     C29749  -0.962   0.184   5.287  0.1864  0.0481  0.6757
  226MOL0     N29750  -0.186   0.161   5.240  0.8849  0.4570 -0.2441
  226MOL0     N29751  -0.069   0.203   5.257 -0.3094  0.4527 -0.3747
  226MOL0     C29752   0.761   0.734   5.698  0.7222  0.8005  0.4872
  226MOL0     C29753   0.884   0.747   5.769  0.8632 -0.2515 -0.3675
  226MOL0     C29754   1.201   0.885   6.005  0.5633 -0.3691  0.3664
  226MOL0     C29755   1.269   1.004   6.027 -0.5385  0.4155 -1.0378
  226MOL0     C29756   1.404   1.006   6.053 -0.4634  0.3818 -0.1383
  226MOL0     C29757   1.475   0.885   6.065 -0.8415  0.1000  0.3181
  226MOL0     O29758   1.597   0.886   6.119  0.3150  0.1851 -0.8283
  226MOL0     C29759   1.702   0.821   6.044 -0.1305 -0.8563  0.1200
  226MOL0     C29760   1.806   0.751   6.139  0.3612  0.0059 -0.3449
  226MOL0     C29761   1.723   0.673   6.240 -0.9565  0.3098 -0.0256
  226MOL0     C29762   1.799   0.594   6.343  0.3165 -0.8191 -0.8536
  226MOL0     C29763   1.887   0.693   6.412  0.4521  0.3148  0.6108
  226MOL0     C29764   1.975   0.762   6.446 -0.3458 -0.1136  0.7601
  226MOL0     C29765   1.413   0.765   6.052  0.1358 -0.5432 -0.4064
  226MOL0     C29766   1.271   0.770   6.022 -0.5390 -0.1064  0.5654
  226MOL0     H29767   0.745   0.747   6.088 -1.9133 -0.0593 -0.7189
  226MOL0     H29768   0.532   0.714   5.943 -0.0893 -0.3736 -0.0080
  226MOL0     H29769   0.368   0.786   5.762 -0.0125  0.5659 -2.0330
  226MOL0     H29770   0.397   0.609   5.785  0.0359  0.6301  1.4220
  226MOL0     H29771   0.319   0.758   5.536  2.0121 -0.8160 -1.3800
  226MOL0     H29772   0.208   0.659   5.636  0.2789 -0.6349  0.9901
  226MOL0     H29773   0.428   0.549   5.458 -0.8768  0.4122 -1.0135
  226MOL0     H29774   0.253   0.535   5.438  1.0632 -1.0481 -0.8732
  226MOL0     H29775   0.421   0.406   5.653  1.3870 -1.5470 -2.5312
  226MOL0     H29776   0.240   0.387   5.648 -1.3666 -2.3439 -1.8880
  226MOL0     H29777   0.371   0.197   5.554 -1.4973 -0.9579  0.1782
  226MOL0     H29778   0.441   0.310   5.440  0.0961  0.8885  1.9338
  226MOL0     H29779   0.242   0.334   5.320  2.3820  2.4844  2.1448
  226MOL0     H29780   0.138   0.274   5.449 -0.3835 -2.2759  0.1785
  226MOL0     H29781   0.351   0.098   5.311 -0.1709 -0.7631 -0.7038
  226MOL0     H29782   0.238   0.046   5.429 -1.0960 -1.2966 -0.7215
  226MOL0     H29783   0.176  -0.020   5.213  1.8313 -0.5392  0.9150
  226MOL0     H29784   0.155   0.146   5.152 -1.2344  1.5070  1.8208
  226MOL0     H29785  -0.040  -0.120   5.323  1.7554 -0.2064  0.1092
  226MOL0     H29786  -0.331  -0.115   5.368 -1.7865  0.4221  0.9916
  226MOL0     H29787  -0.350  -0.108   5.198  0.6925 -0.3545  0.7401
  226MOL0     H29788  -0.456   0.106   5.195  1.2971  0.8776 -0.2124
  226MOL0     H29789  -0.438   0.143   5.363  0.8286 -0.4631  0.0062
  226MOL0     H29790  -0.602  -0.082   5.218 -2.8496 -1.1596  1.3624
  226MOL0     H29791  -0.569  -0.079   5.397 -2.4322  2.9556  2.3055
  226MOL0     H29792  -0.685   0.148   5.397  2.7991 -1.4691  0.9470
  226MOL0     H29793  -0.779  -0.006   5.350 -0.7551 -0.5097 -2.8127
  226MOL0     H29794  -0.826   0.220   4.977  0.1840  1.5502  0.1347
  226MOL0     H29795  -1.055   0.296   4.925  1.1055 -1.8994 -0.9143
  226MOL0     H29796  -1.496   0.103   5.198 -0.1928 -0.1438  2.8565
  226MOL0     H29797  -1.740   0.091   5.147 -0.8749  0.5300  2.6326
  226MOL0     H29798  -1.905   0.427   4.954  0.6356  1.7865  0.7747
  226MOL0     H29799  -1.983   0.449   5.113  0.0135  1.2051 -1.0569
  226MOL0     H29800  -2.173   0.434   4.972 -0.4822 -0.8246  0.2708
  226MOL0     H29801  -2.159   0.265   5.008  0.7576 -1.7811 -2.6919
  226MOL0     H29802  -2.042   0.220   4.810 -0.9935  0.2368 -0.1382
  226MOL0     H29803  -2.031   0.396   4.770 -1.5264  2.0096 -0.4902
  226MOL0     H29804  -2.277   0.399   4.769 -0.8381 -0.3730 -0.6105
  226MOL0     H29805  -2.215   0.295   4.630 -2.3470 -0.5156 -0.5609
  226MOL0     H29806  -2.310   0.174   4.891 -3.2212 -0.3006  0.3993
  226MOL0     H29807  -2.251   0.088   4.737 -1.6543  0.4070 -0.4770
  226MOL0     H29808  -2.471   0.194   4.645  1.5478  0.5629 -0.7567
  226MOL0     H29809  -2.490   0.254   4.809 -0.4491  0.0399 -0.2290
  226MOL0     H29810  -2.491  -0.049   4.738 -1.6508 -1.4343  3.0430
  226MOL0     H29811  -2.482   0.008   4.892  3.4067 -1.7649 -0.8360
  226MOL0     H29812  -2.734  -0.026   4.787 -0.7705  0.4281  0.4441
  226MOL0     H29813  -2.685   0.080   4.661 -2.0712 -1.0716 -0.1519
  226MOL0     H29814  -1.756   0.518   5.106  0.4103  0.3589 -1.7062
  226MOL0     H29815  -1.513   0.526   5.144 -0.6879  0.7580  1.4476
  226MOL0     H29816  -1.155   0.199   5.345  1.8133  2.1621  2.5472
  226MOL0     H29817  -0.939   0.148   5.387  0.1903 -0.1393  0.6083
  226MOL0     H29818   0.751   0.740   5.590  2.1849 -2.8533  0.0134
  226MOL0     H29819   0.984   0.764   5.732  1.2096 -0.5552  0.4204
  226MOL0     H29820   1.216   1.099   6.031  2.8091  2.4425 -0.2501
  226MOL0     H29821   1.459   1.095   6.081  2.0913 -1.1889  0.1348
  226MOL0     H29822   1.745   0.897   5.977 -1.2606 -0.3569 -0.0516
  226MOL0     H29823   1.661   0.735   5.991  1.0136 -1.7880  0.6751
  226MOL0     H29824   1.878   0.697   6.077  1.8413  2.8580 -1.2906
  226MOL0     H29825   1.864   0.823   6.197 -0.6772  2.3363 -2.0574
  226MOL0     H29826   1.661   0.597   6.193 -0.5979 -2.0420  3.0346
  226MOL0     H29827   1.666   0.736   6.309 -0.0726  1.0099  0.0893
  226MOL0     H29828   1.734   0.544   6.416  2.3491  0.4018  1.9804
  226MOL0     H29829   1.858   0.510   6.305 -1.7979 -1.5527 -2.7236
  226MOL0     H29830   2.055   0.830   6.467  0.4028 -0.5882 -0.4837
  226MOL0     H29831   1.450   0.666   6.077 -0.6562 -1.0577 -1.1749
  226MOL0     H29832   1.215   0.678   6.011  0.9594 -0.8749 -1.0623
  227MOL0     O29833   6.877   0.846   4.538 -0.1518  0.5709  0.4583
  227MOL0     C29834   6.946   0.877   4.639  0.7959  0.4117 -0.1255
  227MOL0     O29835   6.918   0.994   4.713 -0.5163 -0.1935 -1.0325
  227MOL0     C29836   6.808   1.074   4.682  0.4882  0.1815  0.4305
  227MOL0     C29837   6.815   1.215   4.678 -0.6307  0.7533  0.1388
  227MOL0     C29838   6.712   1.301   4.645  0.0478  0.1000  0.4344
  227MOL0     C29839   6.584   1.245   4.617 -0.4151  0.4312  0.4595
  227MOL0     O29840   6.472   1.325   4.597 -0.6048 -0.1531  0.0786
  227MOL0     C29841   6.339   1.269   4.582  0.4958 -0.2073 -0.7860
  227MOL0     C29842   6.251   1.388   4.533  0.5956 -0.3599 -0.3187
  227MOL0     C29843   6.105   1.341   4.508  0.1806 -0.0918  0.1498
  227MOL0     C29844   6.011   1.451   4.462  0.2298  0.0327 -0.2267
  227MOL0     C29845   5.877   1.390   4.423 -0.5522  0.4652  0.0529
  227MOL0     C29846   5.794   1.483   4.329 -0.4615  0.3329  0.6890
  227MOL0     C29847   5.743   1.617   4.393  0.4404 -0.9686  0.9034
  227MOL0     C29848   5.654   1.695   4.304  0.0978  0.1964 -0.5544
  227MOL0     N29849   5.589   1.804   4.376 -0.0147 -0.1978 -0.4697
  227MOL0     C29850   5.634   1.933   4.378  0.5310 -0.2208 -0.2746
  227MOL0     C29851   5.550   2.002   4.454  0.5279 -0.1252 -0.3563
  227MOL0     C29852   5.557   2.150   4.494 -0.5020 -0.3676  0.3148
  227MOL0     C29853   5.458   2.233   4.406  0.4440  1.0110  0.6653
  227MOL0     C29854   5.315   2.195   4.450  0.1589 -0.4943 -0.1180
  227MOL0     C29855   5.217   2.292   4.374 -0.3380  0.4327 -0.5589
  227MOL0     O29856   5.128   2.347   4.476 -0.3905  0.3330 -0.2401
  227MOL0     C29857   5.031   2.438   4.434 -0.5545 -0.0093  0.2971
  227MOL0     C29858   4.989   2.466   4.305 -0.9611  0.9033 -0.2512
  227MOL0     C29859   4.874   2.539   4.294  0.5039 -0.2721  0.3294
  227MOL0     C29860   4.795   2.578   4.401  0.7988 -0.9880  0.4193
  227MOL0     C29861   4.662   2.635   4.388  0.2455  0.1139  0.4562
  227MOL0     O29862   4.596   2.695   4.493  0.8036  0.7640 -0.2507
  227MOL0     C29863   4.517   2.802   4.452  0.3890  0.2474  0.2854
  227MOL0     C29864   4.577   2.927   4.436  0.0295  0.1027  0.7354
  227MOL0     C29865   4.493   3.036   4.411 -0.1540  0.9211 -1.0913
  227MOL0     C29866   4.356   3.016   4.398  0.1874 -0.3890 -0.1957
  227MOL0     O29867   4.271   3.125   4.379 -0.3506  0.0971 -0.3100
  227MOL0     C29868   4.131   3.127   4.397  0.1456  0.3848 -0.1398
  227MOL0     C29869   4.088   3.121   4.548 -0.1621  0.1174  0.6013
  227MOL0     C29870   3.935   3.125   4.565  0.5132  0.4865 -0.3630
  227MOL0     C29871   3.879   3.123   4.712 -0.6668  0.5125  0.5707
  227MOL0     C29872   3.734   3.107   4.719  0.0105 -0.5536  1.1032
  227MOL0     C29873   3.679   3.080   4.866 -0.0443 -0.1780  0.3212
  227MOL0     C29874   3.678   3.206   4.960 -0.2527  0.0791 -0.2785
  227MOL0     C29875   3.592   3.313   4.903  0.3059 -0.1268 -0.1919
  227MOL0    Cl29876   3.420   3.264   4.880  0.3354 -0.1248 -0.4166
  227MOL0     C29877   4.305   2.891   4.408  0.7702  0.6690 -0.7309
  227MOL0     C29878   4.381   2.781   4.443  0.3983  0.3673 -0.4379
  227MOL0     O29879   4.627   2.644   4.271 -0.1226  0.3191 -0.2700
  227MOL0     C29880   4.842   2.559   4.524 -0.3598 -0.2098  0.0817
  227MOL0     C29881   4.960   2.481   4.539 -0.4274  0.3433 -0.6149
  227MOL0     N29882   5.447   1.910   4.493  0.0082  0.3433  0.1526
  227MOL0     N29883   5.473   1.796   4.448 -0.6771 -0.2886  0.0525
  227MOL0     C29884   6.570   1.108   4.628 -0.2253 -0.7346  0.0927
  227MOL0     C29885   6.675   1.027   4.668 -0.5279 -0.4976 -0.2593
  227MOL0     C29886   7.077   0.814   4.654  0.2594  0.3071 -0.1955
  227MOL0     C29887   7.171   0.871   4.743 -0.1793  1.4388  0.2837
  227MOL0     C29888   7.294   0.803   4.749 -0.5619 -0.1096  0.5017
  227MOL0     C29889   7.330   0.688   4.679  0.1926  0.3974 -0.0580
  227MOL0     O29890   7.455   0.642   4.719  0.1302  0.1479  0.6172
  227MOL0     C29891   7.504   0.527   4.645  0.0801  0.3488  0.5733
  227MOL0     C29892   7.618   0.453   4.710 -1.1589  0.5927  0.4287
  227MOL0     C29893   7.641   0.313   4.653 -0.4908  0.1993 -0.4019
  227MOL0     C29894   7.741   0.307   4.532  0.0560  0.3914 -0.1729
  227MOL0     C29895   7.744   0.178   4.467 -0.6978 -0.7533 -0.2775
  227MOL0     C29896   7.758   0.076   4.407  0.2059 -0.3177 -0.8470
  227MOL0     C29897   7.233   0.634   4.587  0.8378 -0.7870 -0.8730
  227MOL0     C29898   7.111   0.699   4.573 -0.0218 -0.2597 -0.7316
  227MOL0     H29899   6.915   1.257   4.675  0.2769 -1.3421 -0.4897
  227MOL0     H29900   6.733   1.406   4.633 -0.1516 -0.0516 -1.7387
  227MOL0     H29901   6.293   1.229   4.673  0.3765 -0.6065 -1.0226
  227MOL0     H29902   6.342   1.196   4.501 -0.9174 -1.1269 -0.0571
  227MOL0     H29903   6.299   1.424   4.442 -2.7101 -0.2021 -2.1614
  227MOL0     H29904   6.251   1.465   4.611 -4.1463 -2.1213  1.8266
  227MOL0     H29905   6.072   1.312   4.608  1.2793 -0.1993  0.4898
  227MOL0     H29906   6.108   1.255   4.441  0.2561  1.3938 -1.8627
  227MOL0     H29907   6.001   1.530   4.537  2.7301  1.4801 -1.2983
  227MOL0     H29908   6.049   1.501   4.373 -2.9576 -1.5484 -2.7184
  227MOL0     H29909   5.808   1.377   4.507  2.0302  0.8517  2.3948
  227MOL0     H29910   5.882   1.296   4.367 -0.5134  1.0163 -0.8855
  227MOL0     H29911   5.716   1.409   4.310 -0.6967  0.7840 -0.1637
  227MOL0     H29912   5.854   1.493   4.238  0.8178 -0.6692  1.3942
  227MOL0     H29913   5.701   1.599   4.493 -3.0140  2.2780  0.2814
  227MOL0     H29914   5.830   1.677   4.422  0.3752 -0.4905  0.1431
  227MOL0     H29915   5.582   1.633   4.250 -0.3098  1.1078 -1.0846
  227MOL0     H29916   5.720   1.740   4.229  1.5538  0.5975  0.8979
  227MOL0     H29917   5.719   1.981   4.332 -0.0506 -0.2487 -1.4077
  227MOL0     H29918   5.660   2.186   4.493 -0.9209  0.9886 -1.9270
  227MOL0     H29919   5.512   2.154   4.594 -1.8645 -0.7483 -0.2539
  227MOL0     H29920   5.479   2.203   4.303  0.8465 -1.3244  1.3682
  227MOL0     H29921   5.483   2.339   4.410  1.8764  0.7153  0.2495
  227MOL0     H29922   5.294   2.091   4.424  2.1624 -0.9646 -0.0569
  227MOL0     H29923   5.314   2.230   4.554 -0.3310 -2.2523  0.4961
  227MOL0     H29924   5.159   2.234   4.302 -0.9968  1.8312 -1.1947
  227MOL0     H29925   5.273   2.373   4.324  0.3757  0.1626 -0.2081
  227MOL0     H29926   5.035   2.423   4.216 -1.0021  0.1331  0.0876
  227MOL0     H29927   4.840   2.570   4.195  2.2444 -2.5437 -1.0833
  227MOL0     H29928   4.685   2.930   4.451  0.1248  5.1709  0.4744
  227MOL0     H29929   4.534   3.137   4.409  3.3834 -0.3398  0.6046
  227MOL0     H29930   4.100   3.039   4.340  3.0472 -0.6695 -0.2518
  227MOL0     H29931   4.080   3.213   4.353 -4.0150 -0.1766  2.9767
  227MOL0     H29932   4.133   3.205   4.602  1.6218 -0.9981  0.9273
  227MOL0     H29933   4.137   3.032   4.588 -1.3396 -0.1406  1.5087
  227MOL0     H29934   3.899   3.037   4.512 -1.5720  1.3001 -0.3909
  227MOL0     H29935   3.897   3.207   4.503  3.1308 -1.1679 -4.6336
  227MOL0     H29936   3.931   3.053   4.778  1.1611  2.3133  1.1493
  227MOL0     H29937   3.901   3.220   4.759  0.9917  0.5153 -0.1387
  227MOL0     H29938   3.698   3.026   4.656  1.4820 -2.3881  2.5026
  227MOL0     H29939   3.683   3.193   4.673  0.3962 -0.6984  0.3881
  227MOL0     H29940   3.735   2.994   4.905 -2.0466 -2.1059 -0.7855
  227MOL0     H29941   3.581   3.033   4.857 -0.1112  0.1043 -0.5137
  227MOL0     H29942   3.662   3.191   5.067  1.5751  1.8030  0.3132
  227MOL0     H29943   3.780   3.247   4.965 -0.6546  1.3373 -1.7751
  227MOL0     H29944   3.635   3.350   4.809 -0.2480 -1.7205 -1.1267
  227MOL0     H29945   3.600   3.394   4.976 -0.1557  0.3716 -0.6802
  227MOL0     H29946   4.198   2.875   4.398  1.0471 -0.6309 -1.7545
  227MOL0     H29947   4.344   2.681   4.462  2.1501 -0.1725  0.3971
  227MOL0     H29948   4.803   2.600   4.617  1.2211  0.7639  0.3556
  227MOL0     H29949   5.004   2.477   4.638 -1.4730  0.6572 -0.1171
  227MOL0     H29950   6.472   1.065   4.611 -0.7413  0.4771 -0.0793
  227MOL0     H29951   6.655   0.923   4.693 -2.6576 -0.0140  0.2373
  227MOL0     H29952   7.143   0.963   4.794  0.6831  0.9059  1.7698
  227MOL0     H29953   7.370   0.834   4.820  1.4840 -4.2756  0.4461
  227MOL0     H29954   7.529   0.552   4.542  2.3548  1.4602  1.3371
  227MOL0     H29955   7.423   0.454   4.629  1.5255 -1.7427  2.2429
  227MOL0     H29956   7.709   0.513   4.699 -2.2530  2.5372  1.5579
  227MOL0     H29957   7.585   0.433   4.812 -0.4024 -2.9259  0.1143
  227MOL0     H29958   7.546   0.267   4.626 -0.4700 -0.5194  0.6556
  227MOL0     H29959   7.674   0.250   4.737 -0.1278  0.3998 -0.3949
  227MOL0     H29960   7.715   0.377   4.452  1.3499 -0.7905 -1.6899
  227MOL0     H29961   7.843   0.326   4.569  1.3013  0.8420 -3.4912
  227MOL0     H29962   7.753  -0.007   4.339  0.2817 -1.0982  0.0764
  227MOL0     H29963   7.251   0.544   4.529 -0.4389 -0.2919 -2.1015
  227MOL0     H29964   7.038   0.662   4.501 -0.7083 -3.9787  1.5643
  228MOL0     O29965   0.648   9.599   5.382  0.5373 -0.2334  0.1635
  228MOL0     C29966   0.718   9.651   5.295 -0.1104  0.4876  1.1029
  228MOL0     O29967   0.676   9.747   5.207 -0.0100  0.1284 -0.4933
  228MOL0     C29968   0.552   9.801   5.202  0.1894 -0.0066  0.6207
  228MOL0     C29969   0.434   9.739   5.166 -0.5192 -0.2297  1.1437
  228MOL0     C29970   0.311   9.799   5.144  1.1002 -0.4540 -0.3873
  228MOL0     C29971   0.304   9.936   5.167  0.7151  1.1684  0.7063
  228MOL0     O29972   0.179   9.995   5.145 -1.2749  0.5339  0.7790
  228MOL0     C29973   0.150  10.094   5.250  0.0670  0.5949 -0.5233
  228MOL0     C29974   0.014  10.156   5.225 -0.9691  0.8714  0.5500
  228MOL0     C29975  -0.101  10.053   5.186 -0.2630  0.5485 -0.1692
  228MOL0     C29976  -0.136   9.942   5.300  0.4421  0.2374 -0.2986
  228MOL0     C29977  -0.263   9.856   5.267  0.0427 -0.7823  0.4499
  228MOL0     C29978  -0.274   9.730   5.353 -0.1769 -0.8064 -0.7742
  228MOL0     C29979  -0.425   9.688   5.372 -0.4749 -0.2555 -0.6447
  228MOL0     C29980  -0.427   9.587   5.479  0.7917  0.1411  0.0447
  228MOL0     N29981  -0.437   9.647   5.611  0.3223 -0.4558 -0.4441
  228MOL0     C29982  -0.329   9.643   5.696  0.1115  0.4770  0.1317
  228MOL0     C29983  -0.380   9.680   5.816 -0.0274 -0.1853 -0.4122
  228MOL0     C29984  -0.297   9.713   5.942  0.9415 -0.0028 -0.1877
  228MOL0     C29985  -0.145   9.698   5.928  0.5104 -0.0010 -0.0387
  228MOL0     C29986  -0.088   9.692   6.071  0.1295 -0.3200 -0.8728
  228MOL0     C29987   0.056   9.659   6.087 -0.5562  1.1633  0.9098
  228MOL0     O29988   0.101   9.643   6.227  0.6443  0.7082 -0.0174
  228MOL0     C29989   0.231   9.668   6.248 -0.4876  0.0987  0.4525
  228MOL0     C29990   0.337   9.656   6.154  0.3386 -0.3873  0.2422
  228MOL0     C29991   0.467   9.677   6.179  0.0602 -0.4141 -0.8210
  228MOL0     C29992   0.505   9.690   6.315  0.3367  0.0103 -0.5794
  228MOL0     C29993   0.648   9.712   6.357  0.0298 -0.0867  0.9727
  228MOL0     O29994   0.740   9.753   6.258  0.2595 -0.0868 -0.2412
  228MOL0     C29995   0.877   9.743   6.264  1.0364  0.2010 -0.3130
  228MOL0     C29996   0.947   9.659   6.358 -0.7424 -0.3503  0.9341
  228MOL0     C29997   1.084   9.662   6.347  1.4714 -0.3845 -0.3835
  228MOL0     C29998   1.146   9.748   6.260  0.2165 -0.7716  0.2067
  228MOL0     O29999   1.273   9.722   6.251  0.7311  0.1227 -0.1882
  228MOL0     C30000   1.354   9.822   6.180  0.1804  0.3532  0.3358
  228MOL0     C30001   1.496   9.796   6.223  0.3455 -0.0981  0.6321
  228MOL0     C30002   1.597   9.896   6.167 -0.6650 -0.0804  1.1526
  228MOL0     C30003   1.618   9.861   6.020  0.2156  0.8031  0.1557
  228MOL0     C30004   1.719   9.952   5.947 -0.5804  0.7390 -0.2821
  228MOL0     C30005   1.731   9.934   5.793 -0.5471  0.2217  0.2153
  228MOL0     C30006   1.795  10.053   5.720 -0.3364  0.2724 -0.5391
  228MOL0     C30007   1.818  10.030   5.573 -0.5071  0.3204  0.1608
  228MOL0    Cl30008   1.657  10.019   5.499 -0.0325  0.0384 -0.1283
  228MOL0     C30009   1.076   9.830   6.170 -0.5399 -0.3711 -0.0187
  228MOL0     C30010   0.941   9.812   6.164 -0.5040 -0.3400  0.1034
  228MOL0     O30011   0.672   9.699   6.472 -0.6041  0.3660  0.2109
  228MOL0     C30012   0.410   9.685   6.415  0.6382 -0.4408 -0.8672
  228MOL0     C30013   0.273   9.674   6.381  0.1990  0.1421  0.0057
  228MOL0     N30014  -0.519   9.686   5.796 -0.2944  0.2391 -0.0921
  228MOL0     N30015  -0.546   9.680   5.675  0.1902 -0.4554 -0.2098
  228MOL0     C30016   0.413   9.992   5.228  0.1894  0.6807 -0.3155
  228MOL0     C30017   0.532   9.930   5.252  0.3821  0.0925  0.2189
  228MOL0     C30018   0.874   9.636   5.301 -0.3185  0.2732 -0.4088
  228MOL0     C30019   0.960   9.712   5.222  0.0361  0.5738  0.2074
  228MOL0     C30020   1.094   9.677   5.211 -0.5402  0.0493  0.3916
  228MOL0     C30021   1.142   9.562   5.284  0.2949 -0.1407  0.0105
  228MOL0     O30022   1.273   9.534   5.276  0.1146  0.0964  0.1907
  228MOL0     C30023   1.350   9.546   5.397 -0.5786  0.1509 -0.3507
  228MOL0     C30024   1.426   9.675   5.378  0.6672 -0.3082 -0.4927
  228MOL0     C30025   1.540   9.647   5.272 -0.3344 -0.7816  0.4559
  228MOL0     C30026   1.665   9.627   5.354 -1.0227  0.1366 -0.0983
  228MOL0     C30027   1.772   9.565   5.265 -0.8466 -0.1554 -0.5034
  228MOL0     C30028   1.858   9.511   5.199 -0.3368 -0.6318 -0.0775
  228MOL0     C30029   1.056   9.496   5.371  0.3130  0.2881  0.6856
  228MOL0     C30030   0.923   9.524   5.379 -0.5529 -0.8262 -0.1026
  228MOL0     H30031   0.447   9.636   5.134 -2.5993 -0.9499  2.3616
  228MOL0     H30032   0.224   9.743   5.112 -0.6352  1.1206  1.3073
  228MOL0     H30033   0.220  10.176   5.234 -0.3051  0.6495 -2.0504
  228MOL0     H30034   0.158  10.053   5.351  0.7982  0.0498 -0.7912
  228MOL0     H30035   0.021  10.228   5.143 -2.4480 -2.0825 -2.4415
  228MOL0     H30036  -0.011  10.216   5.313  1.4744 -0.3941  2.2450
  228MOL0     H30037  -0.077  10.001   5.092  2.6464 -0.5131  1.0586
  228MOL0     H30038  -0.191  10.114   5.173 -0.9989 -0.8621 -2.4036
  228MOL0     H30039  -0.058   9.867   5.313 -0.5704 -0.6496  0.7606
  228MOL0     H30040  -0.152   9.987   5.398 -0.2454 -2.5236  0.9371
  228MOL0     H30041  -0.260   9.831   5.160 -0.1723 -1.5694  0.6218
  228MOL0     H30042  -0.351   9.920   5.281  0.4561  0.1634 -1.0266
  228MOL0     H30043  -0.229   9.754   5.450 -0.1502 -2.9244 -0.2092
  228MOL0     H30044  -0.215   9.646   5.315 -0.4164 -1.2400 -0.2082
  228MOL0     H30045  -0.482   9.776   5.402  1.9372  1.2072 -0.0013
  228MOL0     H30046  -0.463   9.639   5.282 -2.1333 -1.7536  0.7934
  228MOL0     H30047  -0.342   9.518   5.472 -0.1019 -0.9542 -0.2602
  228MOL0     H30048  -0.518   9.526   5.473 -0.7676  2.4819 -1.9663
  228MOL0     H30049  -0.228   9.615   5.666  0.4626  0.6929  1.0588
  228MOL0     H30050  -0.338   9.648   6.019  2.0356 -0.9555 -0.3782
  228MOL0     H30051  -0.318   9.817   5.969 -0.4808 -0.3368  0.0567
  228MOL0     H30052  -0.110   9.788   5.877 -4.7351  2.5188  0.1372
  228MOL0     H30053  -0.115   9.600   5.891  2.9024  0.3041  0.8749
  228MOL0     H30054  -0.115   9.791   6.108 -1.1064  0.4043 -3.5234
  228MOL0     H30055  -0.139   9.616   6.133  0.8324 -1.4172 -1.6061
  228MOL0     H30056   0.113   9.735   6.034  0.0987  0.7808  1.0390
  228MOL0     H30057   0.076   9.567   6.031  0.3542 -2.2281  6.0297
  228MOL0     H30058   0.319   9.662   6.048 -0.3730 -1.6939  0.2790
  228MOL0     H30059   0.541   9.675   6.100 -0.5917 -0.6544 -1.4288
  228MOL0     H30060   0.900   9.585   6.422 -0.2827 -0.8432  0.7074
  228MOL0     H30061   1.133   9.603   6.424 -3.2373 -1.6278  2.0456
  228MOL0     H30062   1.312   9.921   6.203 -1.0181 -0.1707  0.5029
  228MOL0     H30063   1.348   9.807   6.072  0.8768 -0.1485  0.3605
  228MOL0     H30064   1.529   9.700   6.182  2.7136  0.5659  0.7847
  228MOL0     H30065   1.509   9.780   6.330 -1.8509 -2.4819  0.6290
  228MOL0     H30066   1.693   9.885   6.218 -0.2317 -1.5516  0.0768
  228MOL0     H30067   1.555   9.997   6.174  0.9151  0.8867 -1.6521
  228MOL0     H30068   1.660   9.760   6.019  2.5971  1.7104 -0.6349
  228MOL0     H30069   1.527   9.872   5.959 -0.1022  1.8482  0.7855
  228MOL0     H30070   1.818   9.931   5.989 -0.9400 -1.9411 -0.5800
  228MOL0     H30071   1.704  10.058   5.972  0.9953  0.3179  2.9656
  228MOL0     H30072   1.629   9.929   5.753 -1.3822 -2.4694  2.3293
  228MOL0     H30073   1.783   9.839   5.775  0.4447  0.8947 -0.5310
  228MOL0     H30074   1.734  10.143   5.735 -0.1806  0.6609 -2.0941
  228MOL0     H30075   1.889  10.077   5.770 -0.1436  0.2533 -0.8901
  228MOL0     H30076   1.865   9.932   5.555 -0.2078  0.4215  0.3945
  228MOL0     H30077   1.883  10.098   5.517 -1.5073  3.0148  2.1142
  228MOL0     H30078   1.116   9.888   6.087  0.2201 -3.1982 -1.8058
  228MOL0     H30079   0.876   9.862   6.094  0.8324  3.6229  1.3773
  228MOL0     H30080   0.435   9.679   6.520  3.0331 -0.7496 -1.4075
  228MOL0     H30081   0.203   9.669   6.464 -0.7537 -3.0205 -0.8217
  228MOL0     H30082   0.426  10.098   5.247  0.8126  1.0460 -2.5527
  228MOL0     H30083   0.616   9.989   5.287  0.6828  0.5130 -1.1371
  228MOL0     H30084   0.922   9.803   5.176  2.9878  1.6894 -0.2259
  228MOL0     H30085   1.165   9.724   5.144 -1.1557  0.2161 -0.1520
  228MOL0     H30086   1.418   9.463   5.419  2.4689  1.5301 -3.5934
  228MOL0     H30087   1.290   9.544   5.488 -0.4062 -0.6141 -0.2494
  228MOL0     H30088   1.358   9.746   5.331  0.6049  1.9446  2.6732
  228MOL0     H30089   1.455   9.710   5.477  2.2610 -0.9252 -0.7081
  228MOL0     H30090   1.550   9.735   5.209 -2.4081 -1.6784 -1.2181
  228MOL0     H30091   1.532   9.558   5.209  1.7189 -0.8053  0.1539
  228MOL0     H30092   1.693   9.719   5.406 -0.8312 -1.3157  2.5393
  228MOL0     H30093   1.648   9.552   5.431 -1.0248 -1.0263 -1.1973
  228MOL0     H30094   1.927   9.457   5.137  0.0833  2.6892 -2.8078
  228MOL0     H30095   1.093   9.415   5.434 -0.7869 -2.5162 -2.0065
  228MOL0     H30096   0.860   9.465   5.445  0.3990 -0.2235  1.3794
  229MOL0     O30097   4.435   6.585   0.512 -0.5271 -0.0457 -0.2924
  229MOL0     C30098   4.391   6.653   0.419  0.1389 -1.0111  0.1415
  229MOL0     O30099   4.256   6.671   0.381  0.5830 -0.1901  0.1660
  229MOL0     C30100   4.158   6.604   0.457 -0.2176 -0.7828  0.3410
  229MOL0     C30101   4.052   6.551   0.379  1.5036  0.5178 -0.9830
  229MOL0     C30102   3.944   6.483   0.439  1.2657 -0.6399 -0.1095
  229MOL0     C30103   3.937   6.472   0.576  0.4824 -0.0828  0.0304
  229MOL0     O30104   3.838   6.416   0.643  0.6023 -0.3516  0.3631
  229MOL0     C30105   3.715   6.490   0.639  0.1525 -0.2973 -0.2629
  229MOL0     C30106   3.638   6.464   0.769  0.3061  0.6945 -0.4726
  229MOL0     C30107   3.502   6.539   0.769 -1.2038  0.4947  0.3035
  229MOL0     C30108   3.449   6.548   0.912 -0.0027 -0.7571 -0.5917
  229MOL0     C30109   3.304   6.610   0.903 -0.8522 -0.6372  0.0858
  229MOL0     C30110   3.217   6.563   1.024 -0.5783 -0.4708  0.2823
  229MOL0     C30111   3.272   6.620   1.160 -0.4154 -0.5069  0.1108
  229MOL0     C30112   3.272   6.776   1.165 -0.0651 -1.0455  0.5725
  229MOL0     N30113   3.145   6.841   1.135 -0.1543  0.1228 -0.0467
  229MOL0     C30114   3.046   6.859   1.226 -0.7945 -0.0008 -0.1595
  229MOL0     C30115   2.958   6.942   1.160 -0.3805  0.2271 -0.5583
  229MOL0     C30116   2.840   6.993   1.234  0.6894 -0.0084 -0.2555
  229MOL0     C30117   2.704   6.945   1.188  0.6516 -0.5023 -0.3268
  229MOL0     C30118   2.600   6.929   1.312  0.0774  0.6979  0.3161
  229MOL0     C30119   2.477   6.856   1.254  0.4448 -0.1111 -0.2610
  229MOL0     O30120   2.414   6.793   1.373  0.0599  0.3001 -0.1262
  229MOL0     C30121   2.298   6.723   1.349  0.6385  0.2103 -0.3113
  229MOL0     C30122   2.236   6.700   1.229 -0.2251 -0.2271  0.6528
  229MOL0     C30123   2.117   6.637   1.219  0.9427  0.8138 -0.6645
  229MOL0     C30124   2.054   6.576   1.338  0.4976  0.1136  0.3875
  229MOL0     C30125   1.926   6.501   1.325 -0.2373  0.0454 -0.0267
  229MOL0     O30126   1.916   6.419   1.217  0.7127  0.1085 -0.1004
  229MOL0     C30127   1.786   6.394   1.185 -0.4875 -0.1785  0.1621
  229MOL0     C30128   1.724   6.289   1.252 -0.1889  0.3254  0.5307
  229MOL0     C30129   1.599   6.243   1.204 -0.1630 -0.6351  0.0039
  229MOL0     C30130   1.536   6.297   1.093  0.0072  0.2219 -0.4950
  229MOL0     O30131   1.416   6.253   1.043 -0.8414 -0.0011  0.0613
  229MOL0     C30132   1.374   6.118   1.077 -0.0656  0.1595 -0.7805
  229MOL0     C30133   1.266   6.092   0.981  0.1357  0.1952 -0.3376
  229MOL0     C30134   1.187   5.956   1.013  0.2716 -0.0163 -0.6030
  229MOL0     C30135   1.088   5.929   0.901 -0.6198  0.0173 -0.4772
  229MOL0     C30136   0.998   5.809   0.928  0.0147  0.5379 -0.6834
  229MOL0     C30137   0.879   5.807   0.831 -0.3636 -0.0356  0.7659
  229MOL0     C30138   0.778   5.696   0.871  0.1549 -0.1947  0.4800
  229MOL0     C30139   0.812   5.557   0.820  0.1511  0.2053  0.1496
  229MOL0    Cl30140   0.777   5.546   0.645 -0.2027  0.0237  0.2072
  229MOL0     C30141   1.598   6.406   1.030 -0.9247  0.1786  0.6663
  229MOL0     C30142   1.724   6.455   1.073 -0.1776 -0.4877 -0.1292
  229MOL0     O30143   1.847   6.511   1.418  0.0501 -0.0749  0.4790
  229MOL0     C30144   2.112   6.598   1.464  0.1748  0.2417  0.7487
  229MOL0     C30145   2.232   6.677   1.469 -0.0253  0.4102 -0.0916
  229MOL0     N30146   3.015   6.987   1.045 -0.3901  0.9554  0.3585
  229MOL0     N30147   3.123   6.923   1.024 -0.6913  0.3757  0.0050
  229MOL0     C30148   4.041   6.522   0.649 -0.8147 -0.2933 -0.5821
  229MOL0     C30149   4.160   6.578   0.594 -0.1117  0.0707 -0.2896
  229MOL0     C30150   4.491   6.728   0.339 -0.2621  0.0878  0.9231
  229MOL0     C30151   4.625   6.684   0.321 -0.4707 -0.3793 -0.5247
  229MOL0     C30152   4.722   6.748   0.243  0.3964  0.2353  0.8891
  229MOL0     C30153   4.690   6.868   0.171 -0.5348 -0.4748  0.0743
  229MOL0     O30154   4.773   6.934   0.085 -0.8030 -0.4515 -0.0041
  229MOL0     C30155   4.893   6.869   0.042 -0.2238  0.5308  0.1048
  229MOL0     C30156   4.868   6.778  -0.071 -0.7053  0.2427  0.1498
  229MOL0     C30157   4.996   6.719  -0.138  0.1538  0.2284  0.0183
  229MOL0     C30158   4.968   6.630  -0.262 -0.1930  0.3053  0.0404
  229MOL0     C30159   5.090   6.567  -0.296 -0.2809  1.4614  0.2128
  229MOL0     C30160   5.206   6.538  -0.325 -0.3767 -0.2426 -0.1824
  229MOL0     C30161   4.556   6.915   0.197  1.0661  0.0638  0.3550
  229MOL0     C30162   4.458   6.843   0.266 -0.0726 -0.5626  0.2797
  229MOL0     H30163   4.045   6.565   0.272 -0.5077  1.3708 -0.8009
  229MOL0     H30164   3.859   6.442   0.384  1.2738 -1.2316  0.3100
  229MOL0     H30165   3.663   6.456   0.548  1.6639 -0.3814 -1.1214
  229MOL0     H30166   3.732   6.598   0.627 -1.0202 -0.1870 -1.1992
  229MOL0     H30167   3.693   6.500   0.857  4.0756  2.8588 -3.3354
  229MOL0     H30168   3.632   6.355   0.778 -0.6701  0.4038 -3.3510
  229MOL0     H30169   3.421   6.492   0.713 -1.1889  0.6662  0.1361
  229MOL0     H30170   3.535   6.637   0.733  3.6804 -0.4486  1.3765
  229MOL0     H30171   3.448   6.451   0.963  1.8268 -1.3996 -1.6840
  229MOL0     H30172   3.513   6.612   0.974 -2.9302  0.5909  1.2719
  229MOL0     H30173   3.255   6.570   0.814 -2.4378  0.5198  0.4127
  229MOL0     H30174   3.313   6.718   0.887 -3.4960 -0.4814 -0.8336
  229MOL0     H30175   3.203   6.456   1.040 -1.5593 -0.2895  0.7232
  229MOL0     H30176   3.120   6.606   0.997 -0.8716 -0.4081  1.3774
  229MOL0     H30177   3.205   6.585   1.239  0.0718 -1.3930  0.1429
  229MOL0     H30178   3.369   6.582   1.194 -1.3116 -2.6347  0.4906
  229MOL0     H30179   3.342   6.807   1.087  0.2841 -0.8612  0.9562
  229MOL0     H30180   3.297   6.818   1.263 -1.4298  1.2057  0.0217
  229MOL0     H30181   3.043   6.814   1.325 -1.1751 -0.8149 -0.5294
  229MOL0     H30182   2.843   7.102   1.230  1.7255  0.0117  0.6564
  229MOL0     H30183   2.852   6.955   1.336  0.1579  0.3060 -0.0733
  229MOL0     H30184   2.717   6.850   1.135  1.2209 -1.1785  0.9968
  229MOL0     H30185   2.653   7.009   1.115 -0.5667 -3.4905 -2.3127
  229MOL0     H30186   2.650   6.865   1.385  0.8412  0.4140 -0.4318
  229MOL0     H30187   2.567   7.022   1.359  1.6859  0.3755  2.1836
  229MOL0     H30188   2.506   6.794   1.169 -1.3060 -0.3904 -0.6854
  229MOL0     H30189   2.417   6.937   1.213  1.8692  1.3457  0.4038
  229MOL0     H30190   2.266   6.750   1.137 -3.0474  1.4411  0.5091
  229MOL0     H30191   2.076   6.625   1.119  0.7418 -1.3440 -0.3809
  229MOL0     H30192   1.774   6.265   1.345 -3.0125 -0.0191  2.0797
  229MOL0     H30193   1.546   6.173   1.268  0.8912 -2.0448 -0.6051
  229MOL0     H30194   1.346   6.117   1.183  1.2637 -0.8094 -0.4035
  229MOL0     H30195   1.467   6.061   1.073  0.8374  1.5876 -1.1912
  229MOL0     H30196   1.300   6.092   0.877 -3.5257  4.6389 -1.8271
  229MOL0     H30197   1.196   6.175   0.989 -0.3800 -0.3347  0.9369
  229MOL0     H30198   1.143   5.969   1.112 -0.5310  2.5251 -1.2353
  229MOL0     H30199   1.261   5.875   1.014  1.4783  0.9772  2.3048
  229MOL0     H30200   1.016   6.011   0.909 -0.8873 -0.3816  2.6701
  229MOL0     H30201   1.129   5.927   0.800 -0.1531 -2.3585 -0.3095
  229MOL0     H30202   0.948   5.832   1.023  1.7856  0.0160  0.4314
  229MOL0     H30203   1.052   5.714   0.921 -0.5821  0.2705 -1.8500
  229MOL0     H30204   0.917   5.782   0.732 -0.1673  4.4863 -0.5373
  229MOL0     H30205   0.837   5.908   0.840 -0.3443 -0.0976  1.5996
  229MOL0     H30206   0.767   5.690   0.979 -2.0203 -0.4442  0.2961
  229MOL0     H30207   0.682   5.740   0.843  1.3384  2.3372  0.1493
  229MOL0     H30208   0.747   5.489   0.876  0.1255 -1.1255 -1.3975
  229MOL0     H30209   0.916   5.538   0.848 -0.1805 -0.2034  1.1793
  229MOL0     H30210   1.538   6.445   0.949 -0.3690 -3.3917 -1.6949
  229MOL0     H30211   1.780   6.534   1.024 -1.9977  0.5650 -0.5993
  229MOL0     H30212   2.076   6.535   1.545  0.7456 -1.7116 -0.4579
  229MOL0     H30213   2.300   6.692   1.551 -0.4947 -1.3979  0.6748
  229MOL0     H30214   4.021   6.519   0.756  0.9957 -0.1592 -0.2058
  229MOL0     H30215   4.241   6.601   0.662 -1.6311 -1.4402  2.1649
  229MOL0     H30216   4.671   6.601   0.374  2.0519  1.3713  0.2003
  229MOL0     H30217   4.818   6.699   0.234  0.0693 -0.1669 -0.7731
  229MOL0     H30218   4.932   6.804   0.121 -0.8057 -1.6255 -1.2973
  229MOL0     H30219   4.978   6.932   0.014  1.0407 -1.3283 -0.4765
  229MOL0     H30220   4.796   6.699  -0.047 -0.5196 -0.3214 -1.0605
  229MOL0     H30221   4.818   6.836  -0.150  0.3253 -1.8388 -2.2002
  229MOL0     H30222   5.041   6.648  -0.069 -0.7425 -2.1316 -1.6971
  229MOL0     H30223   5.050   6.805  -0.179 -3.5680  1.5790 -2.6752
  229MOL0     H30224   4.893   6.554  -0.237 -1.0330  1.3177  0.7202
  229MOL0     H30225   4.930   6.691  -0.344 -0.7589 -1.2177 -0.8817
  229MOL0     H30226   5.312   6.526  -0.337 -0.5520 -2.9638  0.4210
  229MOL0     H30227   4.542   7.009   0.143 -0.8111 -0.5273 -0.2526
  229MOL0     H30228   4.356   6.880   0.266  0.8409  2.2221 -0.7099
  230MOL0     O30229   2.003   5.395   7.008 -0.2454  0.0749 -0.0887
  230MOL0     C30230   2.047   5.300   6.944  0.4390 -0.0155 -0.5076
  230MOL0     O30231   1.984   5.240   6.848 -0.0681 -0.0507 -0.0343
  230MOL0     C30232   1.855   5.285   6.815 -0.5619 -0.2162 -0.5169
  230MOL0     C30233   1.749   5.232   6.895  1.0422  0.7689 -0.4092
  230MOL0     C30234   1.620   5.273   6.870  0.0081  0.0506 -0.1402
  230MOL0     C30235   1.599   5.349   6.761  0.2634 -0.5351 -0.2998
  230MOL0     O30236   1.478   5.398   6.711 -0.0462  0.6023 -0.2322
  230MOL0     C30237   1.361   5.371   6.788  0.3639 -0.3181  0.1980
  230MOL0     C30238   1.229   5.403   6.710 -0.3871  0.7866 -0.7311
  230MOL0     C30239   1.108   5.369   6.797 -0.0318 -0.1597 -0.1580
  230MOL0     C30240   0.995   5.446   6.736 -0.6042 -0.4927 -0.2027
  230MOL0     C30241   0.860   5.402   6.797  0.3615 -0.0349  0.4100
  230MOL0     C30242   0.842   5.426   6.943 -0.2218  0.4560 -0.6327
  230MOL0     C30243   0.711   5.371   6.986 -0.1657 -0.8656 -0.3246
  230MOL0     C30244   0.675   5.417   7.119 -0.6607 -1.1841  0.5862
  230MOL0     N30245   0.548   5.359   7.160  0.5029  0.2845  0.1430
  230MOL0     C30246   0.426   5.397   7.112  0.4064  0.0117  1.0364
  230MOL0     C30247   0.336   5.312   7.154 -0.3174 -0.0332  0.0875
  230MOL0     C30248   0.195   5.316   7.124 -0.7303  0.1500  0.5631
  230MOL0     C30249   0.159   5.207   7.030 -0.2287 -0.4246 -0.1776
  230MOL0     C30250   0.015   5.210   6.967  0.0971 -0.4502  0.1806
  230MOL0     C30251  -0.012   5.343   6.891 -0.0337 -0.0113 -0.4413
  230MOL0     O30252  -0.140   5.319   6.824  0.2317  0.1867  0.2195
  230MOL0     C30253  -0.127   5.254   6.701 -0.8271 -0.1410  0.2562
  230MOL0     C30254  -0.180   5.127   6.686  0.1571 -0.8839  0.6907
  230MOL0     C30255  -0.183   5.055   6.568 -0.2915  0.0607  0.6360
  230MOL0     C30256  -0.138   5.127   6.451  0.2093  0.1532  0.0726
  230MOL0     C30257  -0.149   5.057   6.321 -0.0107  0.0187 -1.1299
  230MOL0     O30258  -0.168   4.926   6.317  0.4828  0.1658  0.2497
  230MOL0     C30259  -0.209   4.875   6.200  0.6250  0.3344  0.7602
  230MOL0     C30260  -0.346   4.879   6.165 -0.6832  1.0103 -0.7024
  230MOL0     C30261  -0.390   4.807   6.052  0.6519 -0.1026 -0.0002
  230MOL0     C30262  -0.309   4.715   5.994 -0.4436 -0.0721 -0.1959
  230MOL0     O30263  -0.359   4.624   5.903 -0.2802  0.4080 -0.0215
  230MOL0     C30264  -0.330   4.655   5.772 -0.3288 -0.0265  0.4932
  230MOL0     C30265  -0.415   4.586   5.671  0.2599  0.3328 -0.1233
  230MOL0     C30266  -0.564   4.621   5.683  0.4030  0.2992  0.2658
  230MOL0     C30267  -0.645   4.520   5.610 -0.6225  0.6246 -0.0412
  230MOL0     C30268  -0.796   4.541   5.612 -0.1533  0.3239 -0.7241
  230MOL0     C30269  -0.870   4.430   5.534  0.3787  0.0758  0.3353
  230MOL0     C30270  -1.011   4.470   5.499 -0.4705 -0.3134 -0.6854
  230MOL0     C30271  -1.061   4.360   5.404 -0.5579 -0.1221 -0.9260
  230MOL0    Cl30272  -1.249   4.375   5.376 -0.0858 -0.1947  0.4869
  230MOL0     C30273  -0.172   4.706   6.026 -0.7577 -0.1202 -0.0614
  230MOL0     C30274  -0.124   4.790   6.130 -0.2061 -0.9937 -0.2473
  230MOL0     O30275  -0.142   5.133   6.220  0.0861  0.4999 -0.5281
  230MOL0     C30276  -0.084   5.264   6.468  1.3061  0.7685 -0.4399
  230MOL0     C30277  -0.069   5.326   6.591  0.2414  0.5309 -0.0312
  230MOL0     N30278   0.401   5.223   7.235 -0.7734  0.3897 -0.7888
  230MOL0     N30279   0.526   5.255   7.242  0.2164 -0.9360 -0.1028
  230MOL0     C30280   1.708   5.398   6.687 -0.2153  0.2600  0.3433
  230MOL0     C30281   1.841   5.370   6.720  0.5933  0.0267 -0.5049
  230MOL0     C30282   2.185   5.270   6.963  0.4033  0.6304  0.3165
  230MOL0     C30283   2.253   5.299   7.083  0.9141  0.2336 -0.3373
  230MOL0     C30284   2.387   5.264   7.099  0.4821  0.4031  0.1388
  230MOL0     C30285   2.465   5.227   6.991  1.3518  0.9435  0.4947
  230MOL0     O30286   2.603   5.194   6.994 -0.2270  0.3677  0.2864
  230MOL0     C30287   2.678   5.217   7.116  0.8716  0.6795 -0.2364
  230MOL0     C30288   2.825   5.206   7.103  0.1556  0.5906  0.5060
  230MOL0     C30289   2.882   5.318   7.024  1.1137  0.2129  1.0722
  230MOL0     C30290   3.015   5.278   6.971  0.4182  0.2522  0.2311
  230MOL0     C30291   3.079   5.393   6.902 -0.0096  0.4842 -0.1983
  230MOL0     C30292   3.134   5.489   6.850  0.0395  0.5818  0.2769
  230MOL0     C30293   2.400   5.222   6.867  0.0111  0.4900  0.5024
  230MOL0     C30294   2.264   5.243   6.853 -0.4068  0.0780 -0.0975
  230MOL0     H30295   1.776   5.163   6.974  0.3047  1.5928  0.5937
  230MOL0     H30296   1.543   5.231   6.934  0.0067  0.7601  0.3382
  230MOL0     H30297   1.359   5.421   6.886 -3.2128  0.0687  0.0910
  230MOL0     H30298   1.371   5.264   6.804  3.4225 -0.1967 -0.4261
  230MOL0     H30299   1.220   5.359   6.610 -1.0088 -0.1320 -0.2885
  230MOL0     H30300   1.235   5.511   6.691 -1.1669  0.6215 -2.0536
  230MOL0     H30301   1.131   5.400   6.899  2.4852 -1.6004 -0.2268
  230MOL0     H30302   1.091   5.262   6.785  2.2497 -0.5705 -0.0323
  230MOL0     H30303   1.009   5.552   6.758 -0.6215 -0.4703 -0.2987
  230MOL0     H30304   0.991   5.446   6.627 -0.0770  1.7494 -0.2856
  230MOL0     H30305   0.856   5.294   6.782  2.0859 -0.2754  1.4741
  230MOL0     H30306   0.787   5.461   6.741  0.7086  1.2158  1.2212
  230MOL0     H30307   0.847   5.533   6.962 -0.2884  0.3847 -0.2142
  230MOL0     H30308   0.920   5.381   7.004  1.9658 -0.5493 -3.8903
  230MOL0     H30309   0.637   5.419   6.921 -0.5384 -0.6945  0.2231
  230MOL0     H30310   0.700   5.263   6.980  0.3106 -1.0391  1.4113
  230MOL0     H30311   0.684   5.525   7.130 -1.0735 -1.1203  0.3178
  230MOL0     H30312   0.752   5.381   7.187  1.8758  0.5708 -1.1653
  230MOL0     H30313   0.401   5.474   7.040  1.3767  0.4628  1.1621
  230MOL0     H30314   0.177   5.413   7.076 -0.8995 -0.3274 -0.3691
  230MOL0     H30315   0.129   5.306   7.211 -2.0059 -0.1103 -0.4078
  230MOL0     H30316   0.168   5.116   7.090  1.7975 -1.0624 -1.3697
  230MOL0     H30317   0.240   5.200   6.957  1.5150 -0.5245  1.6877
  230MOL0     H30318   0.011   5.126   6.898  2.5115  1.4249 -2.5045
  230MOL0     H30319  -0.054   5.203   7.051  0.8863  3.4878  1.4027
  230MOL0     H30320   0.067   5.367   6.820  0.8012 -0.4421  0.3174
  230MOL0     H30321  -0.026   5.425   6.962 -2.1154 -1.3536  0.8013
  230MOL0     H30322  -0.226   5.074   6.769 -1.3108 -2.5756 -1.0969
  230MOL0     H30323  -0.220   4.953   6.570  1.9661 -0.8106  1.1862
  230MOL0     H30324  -0.401   4.944   6.232 -3.6550 -0.6565 -1.3887
  230MOL0     H30325  -0.492   4.804   6.016  0.6560 -1.4166  0.0689
  230MOL0     H30326  -0.230   4.620   5.744 -0.7285 -1.4201  0.7264
  230MOL0     H30327  -0.346   4.762   5.763 -1.6916  0.1142  3.3669
  230MOL0     H30328  -0.399   4.479   5.684  1.0718  0.5246  0.5649
  230MOL0     H30329  -0.373   4.610   5.573 -1.7540  1.1525 -0.8288
  230MOL0     H30330  -0.589   4.725   5.658  1.8760  1.0853  1.8291
  230MOL0     H30331  -0.584   4.612   5.790 -2.4336 -1.8190 -0.3242
  230MOL0     H30332  -0.616   4.502   5.506 -0.8078 -0.2244  0.0509
  230MOL0     H30333  -0.628   4.425   5.663  1.1426  1.8174  1.6761
  230MOL0     H30334  -0.823   4.646   5.592  2.5620  0.9638 -1.4704
  230MOL0     H30335  -0.822   4.513   5.715  0.0758 -0.6079 -0.9200
  230MOL0     H30336  -0.868   4.330   5.579 -1.1560 -0.2514 -0.2698
  230MOL0     H30337  -0.814   4.403   5.443  3.0468 -1.3837  2.2511
  230MOL0     H30338  -1.077   4.470   5.586  0.5633  0.3633  0.1285
  230MOL0     H30339  -1.008   4.574   5.465 -0.6595  0.0140  0.2688
  230MOL0     H30340  -1.037   4.263   5.448  0.4996  1.4322  2.3150
  230MOL0     H30341  -1.004   4.376   5.312  1.2750  1.7266  0.4072
  230MOL0     H30342  -0.105   4.631   5.985 -1.4546 -0.4148 -0.6697
  230MOL0     H30343  -0.023   4.777   6.168 -0.4939  0.2829  1.0236
  230MOL0     H30344  -0.079   5.325   6.379  0.5936  0.5567 -0.6374
  230MOL0     H30345  -0.043   5.429   6.611 -0.6590  0.4394  1.8459
  230MOL0     H30346   1.688   5.467   6.606  1.1666 -0.8508 -0.9990
  230MOL0     H30347   1.930   5.407   6.671  1.3108  1.8599  1.9617
  230MOL0     H30348   2.192   5.329   7.167  0.8200 -0.8621  0.0108
  230MOL0     H30349   2.438   5.282   7.194  0.0471 -0.0009  0.4541
  230MOL0     H30350   2.651   5.132   7.179  0.8208  0.0533 -1.0833
  230MOL0     H30351   2.648   5.308   7.170 -2.3626  0.2218 -1.0270
  230MOL0     H30352   2.870   5.196   7.202  2.2382 -2.7683 -0.6020
  230MOL0     H30353   2.850   5.113   7.051  3.0410  1.5318  0.0610
  230MOL0     H30354   2.888   5.413   7.078  1.5061  1.1394 -0.5264
  230MOL0     H30355   2.813   5.340   6.943 -1.0442  0.6243  2.9238
  230MOL0     H30356   3.082   5.253   7.053  2.5921  1.8157 -0.9567
  230MOL0     H30357   3.015   5.189   6.907 -0.7220  1.6489 -1.8225
  230MOL0     H30358   3.177   5.574   6.801  0.0745  0.7451  0.5906
  230MOL0     H30359   2.464   5.196   6.783  0.1322  0.1465  0.6975
  230MOL0     H30360   2.223   5.233   6.753  1.6490 -0.3479 -0.9297
  231MOL0     O30361   3.639   3.884   3.106 -0.5775 -0.5157  0.5156
  231MOL0     C30362   3.610   3.996   3.134 -0.0781 -0.4391  0.0909
  231MOL0     O30363   3.486   4.038   3.167  1.0615  0.1294  0.9612
  231MOL0     C30364   3.377   3.956   3.192 -0.0330 -0.1181 -0.1917
  231MOL0     C30365   3.303   3.991   3.302 -0.6812 -0.5796  0.0387
  231MOL0     C30366   3.191   3.922   3.343  0.1174  0.5881  0.0223
  231MOL0     C30367   3.142   3.814   3.265 -0.4795  0.6151  0.4967
  231MOL0     O30368   3.025   3.749   3.298 -0.4609  0.0001 -0.1797
  231MOL0     C30369   2.996   3.724   3.438 -0.3991  0.3606 -0.1791
  231MOL0     C30370   2.889   3.621   3.443 -0.9358  0.1454 -0.6935
  231MOL0     C30371   2.757   3.663   3.383  0.3044 -0.4748  0.4970
  231MOL0     C30372   2.686   3.749   3.488 -0.1080  0.9311  0.2601
  231MOL0     C30373   2.544   3.775   3.450 -0.6756 -1.1966  0.3872
  231MOL0     C30374   2.459   3.655   3.484  0.4099  0.6066 -0.0802
  231MOL0     C30375   2.317   3.681   3.426  0.4719  0.9180 -0.2510
  231MOL0     C30376   2.279   3.624   3.290 -1.2292 -0.4078  0.0502
  231MOL0     N30377   2.170   3.700   3.231 -0.0887  0.1093 -0.5977
  231MOL0     C30378   2.177   3.826   3.177 -0.7631  0.1292  1.2875
  231MOL0     C30379   2.053   3.865   3.160  0.1515 -0.1596  0.4324
  231MOL0     C30380   1.980   3.986   3.096  0.7671 -0.4887 -0.0888
  231MOL0     C30381   2.032   4.030   2.959 -0.1437 -1.0495 -1.0179
  231MOL0     C30382   2.139   4.136   2.983 -0.5024 -0.7464  0.3520
  231MOL0     C30383   2.209   4.153   2.846 -0.1835 -0.0456  0.1042
  231MOL0     O30384   2.248   4.287   2.815  0.5506  0.2946  1.1422
  231MOL0     C30385   2.334   4.327   2.715  0.0845  0.5965 -0.0930
  231MOL0     C30386   2.398   4.236   2.627  0.3999  0.2305  0.3482
  231MOL0     C30387   2.492   4.282   2.534  0.1744  0.5521  0.0090
  231MOL0     C30388   2.525   4.421   2.527 -0.0188  0.2337 -0.2951
  231MOL0     C30389   2.609   4.459   2.423  0.4168  0.0055  0.4387
  231MOL0     O30390   2.607   4.590   2.394 -0.2142  0.3980 -0.7738
  231MOL0     C30391   2.695   4.642   2.300 -0.4599  0.6371 -0.4732
  231MOL0     C30392   2.691   4.589   2.171  0.2742  0.6848 -0.2092
  231MOL0     C30393   2.781   4.636   2.071 -0.1937  0.3769 -1.3706
  231MOL0     C30394   2.880   4.733   2.107  0.3232  0.2157 -0.1782
  231MOL0     O30395   2.973   4.781   2.022  0.3278 -0.2488  0.5616
  231MOL0     C30396   2.933   4.835   1.894 -0.3777 -0.4011  0.5034
  231MOL0     C30397   3.044   4.844   1.787  0.0416  0.1703 -0.7484
  231MOL0     C30398   3.171   4.930   1.835  0.0880  0.3399  0.3780
  231MOL0     C30399   3.251   4.994   1.714 -0.1126 -0.4903 -0.0983
  231MOL0     C30400   3.373   5.075   1.776  0.6565 -0.4169  0.4616
  231MOL0     C30401   3.438   5.186   1.690 -0.0739 -0.2099  0.3076
  231MOL0     C30402   3.584   5.222   1.721 -1.4720  0.4601  0.0418
  231MOL0     C30403   3.680   5.114   1.661  0.6639  0.0968 -0.1372
  231MOL0    Cl30404   3.667   5.110   1.485 -0.0336 -0.3745  0.2822
  231MOL0     C30405   2.867   4.783   2.232  0.0305 -0.5777 -0.9670
  231MOL0     C30406   2.781   4.743   2.331 -0.1237  0.2327  0.4767
  231MOL0     O30407   2.682   4.375   2.369 -0.1691 -0.4628 -0.4614
  231MOL0     C30408   2.459   4.512   2.618 -1.3467  0.3079 -0.5422
  231MOL0     C30409   2.367   4.463   2.706 -0.4412  0.6964 -0.1309
  231MOL0     N30410   1.972   3.771   3.222 -0.5109 -1.1874  0.1598
  231MOL0     N30411   2.043   3.671   3.261  0.1683  0.0470  0.4481
  231MOL0     C30412   3.209   3.785   3.148 -0.4739 -0.2519 -0.6762
  231MOL0     C30413   3.325   3.851   3.111 -0.3951  0.1353 -0.5181
  231MOL0     C30414   3.733   4.089   3.134  0.5494  0.4537  0.1938
  231MOL0     C30415   3.720   4.220   3.182  0.5891 -0.3917  0.4564
  231MOL0     C30416   3.831   4.304   3.176 -0.7096  0.1522  0.5502
  231MOL0     C30417   3.961   4.255   3.146  0.3816 -1.0780  0.1472
  231MOL0     O30418   4.060   4.342   3.160  0.1999  0.4477  0.1888
  231MOL0     C30419   4.158   4.366   3.055 -1.0083  0.5216 -1.1420
  231MOL0     C30420   4.295   4.425   3.101 -0.4896  0.7326 -1.0350
  231MOL0     C30421   4.367   4.461   2.964 -0.9483 -0.9733 -0.9544
  231MOL0     C30422   4.510   4.509   2.989 -0.5382  0.2783 -0.2323
  231MOL0     C30423   4.522   4.655   3.024 -0.7556  0.2043  0.4785
  231MOL0     C30424   4.544   4.767   3.068  0.2125 -0.1410  0.2630
  231MOL0     C30425   3.969   4.123   3.091 -0.2717  0.1567 -0.1427
  231MOL0     C30426   3.857   4.042   3.087  0.8665  0.1988 -0.8383
  231MOL0     H30427   3.342   4.072   3.363 -1.6134  0.0564 -0.1887
  231MOL0     H30428   3.150   3.941   3.442  0.0455  1.5352 -0.1881
  231MOL0     H30429   2.951   3.812   3.485  0.1378  1.8757 -2.3756
  231MOL0     H30430   3.091   3.705   3.490 -0.2705 -0.9241 -0.8386
  231MOL0     H30431   2.878   3.598   3.549  1.5974  1.3052 -0.0980
  231MOL0     H30432   2.929   3.528   3.400 -1.0493  0.3188 -1.1884
  231MOL0     H30433   2.708   3.567   3.372  3.2751 -2.3375  2.0487
  231MOL0     H30434   2.762   3.711   3.285  4.9845  1.4339  1.3759
  231MOL0     H30435   2.691   3.702   3.587 -3.0868 -2.2190 -0.9087
  231MOL0     H30436   2.731   3.849   3.495 -0.4398  0.9686  4.0658
  231MOL0     H30437   2.524   3.808   3.348 -2.6463 -0.1832  1.0545
  231MOL0     H30438   2.505   3.855   3.514  0.2508 -0.0034 -0.5045
  231MOL0     H30439   2.471   3.648   3.593  3.9271  1.5246 -0.3007
  231MOL0     H30440   2.504   3.563   3.447 -1.5001 -0.8076  0.9100
  231MOL0     H30441   2.250   3.625   3.492  3.2038 -0.6599  1.3961
  231MOL0     H30442   2.300   3.788   3.419  1.0055  1.2125  2.0714
  231MOL0     H30443   2.266   3.516   3.302  2.0583 -0.9900 -0.7054
  231MOL0     H30444   2.361   3.634   3.219  1.2917 -1.3901  2.6428
  231MOL0     H30445   2.263   3.889   3.158 -1.7200  1.1476  0.1916
  231MOL0     H30446   1.975   4.065   3.171  1.1231 -0.9137  0.3896
  231MOL0     H30447   1.878   3.948   3.080  0.7032 -1.2066  1.8055
  231MOL0     H30448   1.944   4.067   2.906  0.2731 -0.7838 -1.5246
  231MOL0     H30449   2.074   3.940   2.913 -1.7332 -2.0966 -0.5244
  231MOL0     H30450   2.093   4.226   3.026 -0.5419  0.0860 -1.3557
  231MOL0     H30451   2.209   4.105   3.061 -0.5786 -0.0492  0.7118
  231MOL0     H30452   2.141   4.118   2.768 -1.4230  2.9328 -0.2712
  231MOL0     H30453   2.300   4.093   2.831 -0.6025 -0.3598 -1.3546
  231MOL0     H30454   2.384   4.129   2.627 -2.3504  0.5216  0.6633
  231MOL0     H30455   2.544   4.212   2.469 -0.6565  0.3041 -0.4135
  231MOL0     H30456   2.615   4.521   2.135 -1.0287  2.0672 -0.2004
  231MOL0     H30457   2.783   4.608   1.966  2.1543 -2.0728 -0.7921
  231MOL0     H30458   2.895   4.934   1.920 -2.1661 -1.6025  2.9463
  231MOL0     H30459   2.848   4.784   1.847 -1.1598 -0.1628  1.6001
  231MOL0     H30460   3.005   4.891   1.696 -0.3110  2.4442  0.5209
  231MOL0     H30461   3.083   4.746   1.758  3.6814  1.6012 -1.1738
  231MOL0     H30462   3.234   4.862   1.893  0.1649 -1.4505 -1.7079
  231MOL0     H30463   3.150   5.023   1.890 -1.0869 -0.8297  2.0236
  231MOL0     H30464   3.293   4.921   1.644  0.2970 -0.1562 -0.2029
  231MOL0     H30465   3.190   5.059   1.650  0.0590 -1.3353 -1.1470
  231MOL0     H30466   3.440   4.991   1.796 -1.7277 -3.2192 -2.2762
  231MOL0     H30467   3.345   5.109   1.876 -0.0468 -0.5990  0.3366
  231MOL0     H30468   3.380   5.273   1.720  1.3475 -0.3320  3.9684
  231MOL0     H30469   3.430   5.158   1.585  0.4347 -1.2725  0.5352
  231MOL0     H30470   3.607   5.311   1.661 -1.3819 -0.1121 -0.7954
  231MOL0     H30471   3.599   5.222   1.829 -4.7573  1.5150  0.6202
  231MOL0     H30472   3.657   5.017   1.706 -1.2873  0.2547 -0.7200
  231MOL0     H30473   3.782   5.134   1.694  0.1886 -0.8268  2.0675
  231MOL0     H30474   2.943   4.860   2.245 -0.1162 -0.0259 -2.9933
  231MOL0     H30475   2.778   4.789   2.429 -1.9777 -0.6976  0.8971
  231MOL0     H30476   2.477   4.619   2.625  1.5986 -0.1860  3.8712
  231MOL0     H30477   2.323   4.535   2.774  0.7582  2.3724 -1.0738
  231MOL0     H30478   3.165   3.714   3.079 -2.0003 -0.9035  0.8836
  231MOL0     H30479   3.379   3.841   3.017 -0.8338  0.2093 -0.7850
  231MOL0     H30480   3.622   4.255   3.212  0.3094 -0.0105 -0.8313
  231MOL0     H30481   3.817   4.406   3.210  0.7013  0.4605  0.2631
  231MOL0     H30482   4.110   4.435   2.986  1.6640  1.2962 -2.3587
  231MOL0     H30483   4.170   4.271   3.002 -2.7236 -0.6783  0.4817
  231MOL0     H30484   4.272   4.519   3.150 -2.9578 -1.2173  1.8422
  231MOL0     H30485   4.361   4.357   3.156 -0.0763  0.9342 -1.2755
  231MOL0     H30486   4.312   4.541   2.914  0.9246  2.1645  1.5221
  231MOL0     H30487   4.377   4.366   2.913  0.8971 -1.5621  0.3840
  231MOL0     H30488   4.561   4.457   3.070  0.4887  1.0617 -0.3477
  231MOL0     H30489   4.569   4.488   2.899 -1.5579  1.4861 -1.2129
  231MOL0     H30490   4.571   4.866   3.097  0.3446 -0.3613  0.9000
  231MOL0     H30491   4.065   4.091   3.052 -0.9856 -1.5554 -0.5770
  231MOL0     H30492   3.862   3.935   3.067 -0.6629 -0.1705  0.5645
  232MOL0     O30493   7.017   3.072   9.290  0.2361  0.0975 -0.1641
  232MOL0     C30494   7.076   2.959   9.297 -0.1751  0.5199 -0.0470
  232MOL0     O30495   7.018   2.844   9.267 -0.6024  0.2997  0.0331
  232MOL0     C30496   6.886   2.844   9.241 -0.6809  0.4973  0.7158
  232MOL0     C30497   6.796   2.811   9.342 -0.9371  0.4215 -0.4958
  232MOL0     C30498   6.659   2.802   9.314  0.5922 -0.4181  0.1017
  232MOL0     C30499   6.615   2.835   9.186  0.5879 -0.8268  0.4999
  232MOL0     O30500   6.486   2.838   9.145 -0.1862  1.0743  0.0310
  232MOL0     C30501   6.380   2.809   9.238  0.4054 -0.0537  0.7520
  232MOL0     C30502   6.243   2.826   9.174  0.2309  0.8716  0.4101
  232MOL0     C30503   6.221   2.754   9.044 -0.2266  0.1394  0.4444
  232MOL0     C30504   6.081   2.778   8.998 -0.1066 -0.6764 -0.1184
  232MOL0     C30505   6.054   2.739   8.848  0.3673  0.0221 -0.2416
  232MOL0     C30506   5.921   2.803   8.804  0.9967 -0.4980  0.5786
  232MOL0     C30507   5.785   2.756   8.869 -0.5140 -1.5884  0.0805
  232MOL0     C30508   5.679   2.852   8.821  0.2020 -0.5675  0.1907
  232MOL0     N30509   5.620   2.815   8.697 -0.1066  0.0286 -0.4065
  232MOL0     C30510   5.556   2.692   8.676  0.4768 -0.8419  0.5039
  232MOL0     C30511   5.523   2.689   8.549  0.2143 -0.2765  0.4742
  232MOL0     C30512   5.440   2.569   8.482  0.7349 -0.4782 -0.3908
  232MOL0     C30513   5.311   2.537   8.552  0.3579 -0.4250  0.1277
  232MOL0     C30514   5.205   2.469   8.459  0.0839 -0.0026  0.7979
  232MOL0     C30515   5.095   2.419   8.540  0.0932 -0.1747  0.3449
  232MOL0     O30516   4.987   2.368   8.465 -0.4750 -0.2988 -0.4439
  232MOL0     C30517   4.859   2.346   8.524  0.1253 -0.3349  0.4304
  232MOL0     C30518   4.841   2.347   8.666  0.4226 -0.2593  1.5235
  232MOL0     C30519   4.710   2.312   8.707 -0.4843  0.4975 -0.4275
  232MOL0     C30520   4.604   2.291   8.625 -0.9466  0.1543  0.4727
  232MOL0     C30521   4.470   2.266   8.666  0.5407  0.6027 -0.3636
  232MOL0     O30522   4.375   2.230   8.569 -0.3328  0.3880  1.0066
  232MOL0     C30523   4.244   2.230   8.607  0.2394 -0.1960  0.3231
  232MOL0     C30524   4.192   2.196   8.734  0.4953 -0.2311  0.3037
  232MOL0     C30525   4.050   2.178   8.750 -0.2530 -0.7513 -1.0612
  232MOL0     C30526   3.958   2.204   8.648  0.1518 -0.7138  0.9070
  232MOL0     O30527   3.825   2.198   8.686  0.0084  0.4902  0.9823
  232MOL0     C30528   3.738   2.167   8.580 -0.0866  0.0811 -0.0424
  232MOL0     C30529   3.591   2.147   8.632 -0.0517 -0.2802  0.3716
  232MOL0     C30530   3.555   2.005   8.689 -0.0938 -0.1007  0.5795
  232MOL0     C30531   3.408   1.997   8.738 -0.0340  0.7594  0.6483
  232MOL0     C30532   3.361   1.861   8.784  0.2715 -0.3039  0.1111
  232MOL0     C30533   3.211   1.847   8.763  0.5298  0.0025 -0.1091
  232MOL0     C30534   3.129   1.944   8.856  0.1652  0.9172 -0.3539
  232MOL0     C30535   3.167   1.947   9.008  0.1518 -0.6825  0.2185
  232MOL0    Cl30536   3.158   1.773   9.059 -0.0708  0.1629  0.2747
  232MOL0     C30537   4.010   2.244   8.527 -0.5364 -0.7397  0.0977
  232MOL0     C30538   4.147   2.256   8.509 -0.5632 -0.4247  0.3690
  232MOL0     O30539   4.449   2.282   8.783  0.3518  0.5862 -1.0695
  232MOL0     C30540   4.630   2.290   8.490 -0.0989  0.4467  0.5456
  232MOL0     C30541   4.756   2.327   8.434 -0.3853 -0.1806  0.7395
  232MOL0     N30542   5.570   2.810   8.494 -0.7489 -0.2183  0.1118
  232MOL0     N30543   5.634   2.883   8.589 -0.0905  0.1015 -0.7965
  232MOL0     C30544   6.703   2.883   9.090 -0.1698  0.0653  0.4480
  232MOL0     C30545   6.843   2.883   9.112 -0.3138  0.0584 -0.8894
  232MOL0     C30546   7.220   2.959   9.338 -0.0571 -0.5245 -0.6397
  232MOL0     C30547   7.294   3.079   9.352 -0.2973  0.1428  0.5501
  232MOL0     C30548   7.432   3.084   9.401  0.7185 -0.4670  0.9820
  232MOL0     C30549   7.493   2.967   9.432  1.1024  0.4417 -0.0778
  232MOL0     O30550   7.620   2.952   9.477 -0.0111  0.3891 -0.3458
  232MOL0     C30551   7.693   3.071   9.509 -0.2446  1.0253 -0.9164
  232MOL0     C30552   7.830   3.035   9.569  0.5230 -1.0827  0.7209
  232MOL0     C30553   7.911   3.170   9.563 -0.4368  0.1742 -0.2846
  232MOL0     C30554   8.037   3.148   9.657 -0.2206 -0.5386 -0.7651
  232MOL0     C30555   8.098   3.276   9.672  0.0576 -0.0103  0.4343
  232MOL0     C30556   8.172   3.370   9.669  0.9705 -0.2204  0.4934
  232MOL0     C30557   7.426   2.842   9.413  0.3122 -0.0748  0.0579
  232MOL0     C30558   7.288   2.841   9.368 -0.4433  0.7075 -1.5015
  232MOL0     H30559   6.831   2.794   9.443 -2.6385  1.1573  0.2552
  232MOL0     H30560   6.584   2.773   9.387  1.8618 -2.7891  0.5774
  232MOL0     H30561   6.387   2.859   9.335 -2.3657  0.2511  0.8837
  232MOL0     H30562   6.388   2.701   9.255  0.9368 -0.2094 -0.3497
  232MOL0     H30563   6.233   2.932   9.146 -0.3506  0.7773  0.2487
  232MOL0     H30564   6.163   2.805   9.245 -2.2270 -0.8202 -2.6171
  232MOL0     H30565   6.246   2.648   9.055  2.5990  0.7069  0.2421
  232MOL0     H30566   6.286   2.795   8.967  1.1614 -2.7331 -0.0647
  232MOL0     H30567   6.005   2.730   9.059  1.4236  0.3330  2.7937
  232MOL0     H30568   6.062   2.886   9.005  3.1698 -0.1022  2.0083
  232MOL0     H30569   6.058   2.630   8.841  0.6426  0.0758 -1.0880
  232MOL0     H30570   6.136   2.774   8.785  0.9409  1.2993  1.1405
  232MOL0     H30571   5.902   2.792   8.697  0.7307 -0.6270  0.6382
  232MOL0     H30572   5.942   2.909   8.819 -0.1618 -0.3815  1.4829
  232MOL0     H30573   5.748   2.655   8.854 -3.0878 -0.7606  0.3103
  232MOL0     H30574   5.792   2.792   8.972  0.7163  2.1052 -1.1187
  232MOL0     H30575   5.736   2.944   8.807  1.1467 -0.8631  1.8298
  232MOL0     H30576   5.603   2.867   8.898  0.1585  1.2856 -0.1639
  232MOL0     H30577   5.550   2.603   8.739 -0.1849 -1.7165 -0.7530
  232MOL0     H30578   5.505   2.481   8.471 -0.2442 -1.3865  0.8404
  232MOL0     H30579   5.419   2.607   8.382  2.3219  1.2051 -0.1640
  232MOL0     H30580   5.270   2.629   8.594  2.0935  1.1504 -1.4617
  232MOL0     H30581   5.328   2.475   8.640  0.8329  0.0174  0.3498
  232MOL0     H30582   5.169   2.545   8.390 -3.1768 -0.9105  1.3248
  232MOL0     H30583   5.249   2.387   8.402  0.2723  0.1974  0.6598
  232MOL0     H30584   5.049   2.501   8.596  0.2425  0.6888 -0.7767
  232MOL0     H30585   5.121   2.332   8.601  0.2361 -0.0239  0.4965
  232MOL0     H30586   4.921   2.351   8.739 -0.2579 -0.8107  2.3201
  232MOL0     H30587   4.685   2.309   8.812 -1.2294  1.1238 -0.5845
  232MOL0     H30588   4.249   2.168   8.821  1.4904  1.7062  0.3470
  232MOL0     H30589   4.020   2.152   8.851  3.7906  2.0680  1.1446
  232MOL0     H30590   3.775   2.076   8.531  0.4642 -0.9128  2.0903
  232MOL0     H30591   3.737   2.251   8.510 -0.7400 -1.3307 -1.7985
  232MOL0     H30592   3.527   2.160   8.544 -0.5823 -0.9936  0.6428
  232MOL0     H30593   3.574   2.230   8.702  0.3275  0.1803 -0.0665
  232MOL0     H30594   3.618   1.988   8.777 -0.6614  0.9965  1.2162
  232MOL0     H30595   3.574   1.935   8.607 -1.8375 -1.4878  1.2921
  232MOL0     H30596   3.387   2.078   8.809 -0.1417  3.8128 -2.5737
  232MOL0     H30597   3.360   2.042   8.650  1.1731  3.4995  1.2666
  232MOL0     H30598   3.392   1.843   8.887  2.3612  1.3520 -0.1606
  232MOL0     H30599   3.419   1.801   8.713 -0.4551  0.8510 -1.5356
  232MOL0     H30600   3.190   1.740   8.778  0.6459 -0.0281 -0.1594
  232MOL0     H30601   3.174   1.879   8.665  1.1980  1.1469  0.0009
  232MOL0     H30602   3.129   2.044   8.811  0.0786  0.4449 -1.4365
  232MOL0     H30603   3.026   1.911   8.838  0.8833 -2.7655  1.3996
  232MOL0     H30604   3.096   2.014   9.057 -1.8788 -1.9397 -0.8472
  232MOL0     H30605   3.264   1.997   9.011 -1.4814  3.1204 -2.0981
  232MOL0     H30606   3.943   2.276   8.448 -0.9071  1.5502  1.2766
  232MOL0     H30607   4.199   2.285   8.418  2.7104  0.2490  2.3026
  232MOL0     H30608   4.543   2.283   8.426  1.1040  0.8530 -1.1963
  232MOL0     H30609   4.780   2.348   8.330  4.7092 -0.0528  1.6930
  232MOL0     H30610   6.649   2.927   9.007  1.3330 -0.6833 -0.9785
  232MOL0     H30611   6.909   2.922   9.035 -0.6193 -1.6065 -2.0545
  232MOL0     H30612   7.237   3.167   9.323  2.0892  2.0475  1.2896
  232MOL0     H30613   7.480   3.177   9.431 -0.2436  0.8617 -1.3100
  232MOL0     H30614   7.635   3.134   9.577  1.0470  0.6972  0.5418
  232MOL0     H30615   7.708   3.138   9.423 -0.7662  0.0886 -1.7623
  232MOL0     H30616   7.823   2.993   9.669 -0.1728 -2.0066  0.2986
  232MOL0     H30617   7.883   2.963   9.506  1.1481  0.7928 -1.0073
  232MOL0     H30618   7.855   3.256   9.600  2.1577  1.1811  1.6509
  232MOL0     H30619   7.943   3.192   9.461 -1.1437  1.3983 -0.2542
  232MOL0     H30620   8.006   3.127   9.760 -2.5219 -1.4395 -1.5734
  232MOL0     H30621   8.105   3.071   9.622 -0.6353 -1.1191 -0.3146
  232MOL0     H30622   8.240   3.452   9.656  0.4325  0.4348  1.5917
  232MOL0     H30623   7.480   2.750   9.435  0.8264  0.4609  1.1018
  232MOL0     H30624   7.238   2.747   9.347 -4.9152  2.3710  0.4321
  233MOL0     O30625  10.778  10.824   2.912  0.1635  0.1172 -0.6240
  233MOL0     C30626  10.731  10.878   2.814  0.3660 -0.2097  0.2845
  233MOL0     O30627  10.621  10.967   2.808 -0.5442  0.6756 -0.6584
  233MOL0     C30628  10.538  11.002   2.913  0.3111  1.5928  0.0880
  233MOL0     C30629  10.521  10.922   3.031 -0.7501 -0.8439  1.0386
  233MOL0     C30630  10.418  10.958   3.122  0.2301 -0.8592  0.0882
  233MOL0     C30631  10.336  11.073   3.104 -0.0371 -0.1152  0.8893
  233MOL0     O30632  10.241  11.105   3.194  0.2234  0.0366 -0.1496
  233MOL0     C30633  10.292  11.129   3.320 -0.3202  0.1054  0.4361
  233MOL0     C30634  10.194  11.182   3.432  1.0576  0.1342  0.3799
  233MOL0     C30635  10.079  11.082   3.452  0.1907 -0.0497  0.1687
  233MOL0     C30636   9.974  11.129   3.560  0.0099 -0.2880  0.8685
  233MOL0     C30637   9.889  11.252   3.503  0.4775  0.0389  0.6121
  233MOL0     C30638   9.801  11.306   3.615 -0.5245  0.4508  0.3147
  233MOL0     C30639   9.677  11.395   3.568 -0.3082  0.5668  0.5200
  233MOL0     C30640   9.573  11.315   3.480 -0.5645 -0.0476 -0.5086
  233MOL0     N30641   9.519  11.198   3.540  0.1114  1.0955  0.1062
  233MOL0     C30642   9.406  11.190   3.627  1.3295  0.3308  0.3338
  233MOL0     C30643   9.377  11.057   3.643  0.6680 -0.2551  0.2502
  233MOL0     C30644   9.267  11.002   3.729 -0.3805 -0.0272  0.0108
  233MOL0     C30645   9.130  11.020   3.678 -0.2429  0.0734 -0.2046
  233MOL0     C30646   9.098  10.932   3.559  0.1848  0.1471  0.2173
  233MOL0     C30647   8.964  10.973   3.495 -0.9435 -0.6534  0.3776
  233MOL0     O30648   8.857  10.914   3.576  0.3740 -0.3222  0.2996
  233MOL0     C30649   8.728  10.918   3.532  0.2806  0.0624  0.3125
  233MOL0     C30650   8.633  10.869   3.624  0.3502  0.3315  0.4090
  233MOL0     C30651   8.499  10.865   3.601  0.3927 -0.6541 -1.3234
  233MOL0     C30652   8.450  10.895   3.476 -1.2211 -0.0558  0.1088
  233MOL0     C30653   8.313  10.890   3.441 -0.5325  0.4037 -0.0743
  233MOL0     O30654   8.218  10.820   3.513  0.1355  0.3726 -0.6287
  233MOL0     C30655   8.090  10.843   3.475  0.5725  0.5999  0.1004
  233MOL0     C30656   8.028  10.750   3.392  0.0341  0.0261 -0.1045
  233MOL0     C30657   7.886  10.761   3.369 -0.7491 -0.2816 -0.2602
  233MOL0     C30658   7.807  10.854   3.428  0.6385  0.3015 -0.7034
  233MOL0     O30659   7.673  10.845   3.407  0.5269  0.0674  0.3372
  233MOL0     C30660   7.593  10.954   3.459 -0.3679 -0.3046  0.5916
  233MOL0     C30661   7.446  10.955   3.416 -0.6547 -0.4125  0.1623
  233MOL0     C30662   7.368  10.835   3.468  0.2088 -0.1943  0.0191
  233MOL0     C30663   7.234  10.818   3.401  0.1379 -0.1761 -0.2441
  233MOL0     C30664   7.139  10.719   3.468 -0.3897 -0.3944  0.3297
  233MOL0     C30665   7.082  10.754   3.597 -0.2111  0.1008 -0.3732
  233MOL0     C30666   7.001  10.881   3.603 -0.0362 -0.3967  0.0133
  233MOL0     C30667   6.885  10.887   3.699 -0.4722 -0.3186 -0.0671
  233MOL0    Cl30668   6.813  11.048   3.700 -0.0685 -0.0287  0.2457
  233MOL0     C30669   7.877  10.944   3.515 -0.5547  0.2040 -0.1614
  233MOL0     C30670   8.014  10.948   3.537 -0.6094  0.7419 -0.2083
  233MOL0     O30671   8.284  10.947   3.336 -1.2000 -0.3886 -0.1248
  233MOL0     C30672   8.542  10.925   3.379 -0.4745  0.4518  0.0711
  233MOL0     C30673   8.678  10.942   3.401  0.0609 -0.3920 -1.4580
  233MOL0     N30674   9.467  10.991   3.563  0.3493  0.6088 -0.8757
  233MOL0     N30675   9.553  11.071   3.505 -0.5303  0.1620  0.0573
  233MOL0     C30676  10.348  11.146   2.985  0.3661 -0.0837 -0.1659
  233MOL0     C30677  10.446  11.106   2.888  1.3682 -0.1563 -0.6000
  233MOL0     C30678  10.789  10.838   2.687 -0.5581 -0.6966  0.0676
  233MOL0     C30679  10.751  10.914   2.570 -0.3603  0.4517 -0.0295
  233MOL0     C30680  10.801  10.866   2.447  0.7747 -0.9027 -0.8744
  233MOL0     C30681  10.882  10.755   2.433  0.3167  0.1753 -0.4171
  233MOL0     O30682  10.938  10.727   2.311  0.8207 -0.0866  0.2721
  233MOL0     C30683  10.896  10.785   2.186  0.1484  0.3571  0.7214
  233MOL0     C30684  10.772  10.719   2.131 -0.2840 -0.2438 -1.0780
  233MOL0     C30685  10.760  10.571   2.154  0.3212  0.4161 -0.3769
  233MOL0     C30686  10.644  10.512   2.073  0.1230  0.7825  0.1503
  233MOL0     C30687  10.620  10.366   2.087  0.9645 -1.0531  0.7560
  233MOL0     C30688  10.593  10.246   2.103  0.6790  0.6691  0.5340
  233MOL0     C30689  10.912  10.678   2.548  1.0742 -0.0628 -0.9069
  233MOL0     C30690  10.869  10.711   2.674  1.0396 -0.3539 -0.4089
  233MOL0     H30691  10.597  10.848   3.054 -0.1119 -0.4089  0.3886
  233MOL0     H30692  10.399  10.880   3.195 -2.9251  1.1408  1.5925
  233MOL0     H30693  10.369  11.206   3.312 -1.1084  0.7708 -1.1113
  233MOL0     H30694  10.331  11.033   3.357 -1.2024 -0.3876  0.1240
  233MOL0     H30695  10.154  11.274   3.389  0.5456 -0.9864 -1.7131
  233MOL0     H30696  10.237  11.195   3.531 -0.6210 -1.1187  1.3233
  233MOL0     H30697  10.120  10.989   3.491 -0.4683  0.1289  1.3463
  233MOL0     H30698  10.030  11.062   3.355 -0.9396 -3.6309  1.3078
  233MOL0     H30699   9.896  11.057   3.586 -2.5637  2.2904  0.7845
  233MOL0     H30700  10.021  11.163   3.653 -1.3123 -1.1960  1.9195
  233MOL0     H30701   9.830  11.227   3.415 -0.3795  1.1912  0.8365
  233MOL0     H30702   9.965  11.329   3.488 -0.2884  0.8074  0.6234
  233MOL0     H30703   9.860  11.365   3.685 -2.7404  1.6376  1.3010
  233MOL0     H30704   9.766  11.228   3.684 -1.5735  0.9430  0.3597
  233MOL0     H30705   9.632  11.429   3.662  0.2322  0.9853  0.6333
  233MOL0     H30706   9.699  11.493   3.524  0.4736  0.2194  0.1165
  233MOL0     H30707   9.612  11.303   3.378  0.5313 -0.2887 -0.0792
  233MOL0     H30708   9.493  11.388   3.463 -1.0086 -0.5537 -0.6381
  233MOL0     H30709   9.359  11.277   3.672 -1.5773 -1.0477  0.1327
  233MOL0     H30710   9.283  11.049   3.826  1.4464 -0.2242 -0.1569
  233MOL0     H30711   9.288  10.896   3.747 -0.1532 -0.5912 -3.0053
  233MOL0     H30712   9.095  11.122   3.664 -0.6326 -0.0115  0.1448
  233MOL0     H30713   9.060  11.003   3.761 -0.1300 -0.6840 -0.2536
  233MOL0     H30714   9.177  10.938   3.484  1.4180  2.7360  1.6014
  233MOL0     H30715   9.093  10.824   3.579 -1.9443 -0.9136 -4.5037
  233MOL0     H30716   8.962  10.923   3.398 -1.6852 -1.7878  0.9588
  233MOL0     H30717   8.961  11.082   3.483 -1.2063 -0.7707 -0.7350
  233MOL0     H30718   8.663  10.847   3.725  0.5101 -0.9267  0.0993
  233MOL0     H30719   8.429  10.844   3.681 -0.1802 -0.6880 -1.8265
  233MOL0     H30720   8.085  10.674   3.340  0.9966  1.3756 -1.1013
  233MOL0     H30721   7.825  10.690   3.314  0.5041  0.9306 -3.4543
  233MOL0     H30722   7.640  11.044   3.417 -1.4171 -0.0578 -0.0941
  233MOL0     H30723   7.605  10.948   3.567 -1.5232 -0.0405  0.7473
  233MOL0     H30724   7.446  10.959   3.307 -0.8656 -0.5334  0.1559
  233MOL0     H30725   7.403  11.049   3.450  1.3525  0.8369 -0.6350
  233MOL0     H30726   7.349  10.841   3.575 -1.2515  2.9060 -0.2918
  233MOL0     H30727   7.422  10.742   3.449  0.1850 -0.4229  1.0091
  233MOL0     H30728   7.176  10.911   3.399  0.6359  0.1369 -0.5556
  233MOL0     H30729   7.237  10.790   3.295 -0.9026 -1.2144 -0.0100
  233MOL0     H30730   7.187  10.621   3.480 -1.6764 -1.2261 -0.9752
  233MOL0     H30731   7.054  10.704   3.400 -0.4225  1.9730 -0.2150
  233MOL0     H30732   7.165  10.752   3.668  1.4104 -0.9237 -2.2059
  233MOL0     H30733   7.028  10.663   3.627  0.2584  0.7697  2.8527
  233MOL0     H30734   7.067  10.967   3.618 -0.7255  0.2402 -0.5163
  233MOL0     H30735   6.955  10.893   3.504  1.2885 -3.8142 -1.1562
  233MOL0     H30736   6.906  10.875   3.805 -0.8332 -2.9749 -0.2387
  233MOL0     H30737   6.809  10.816   3.665  0.0533 -1.7182  1.5929
  233MOL0     H30738   7.825  11.027   3.562  2.5973  1.7807  0.8377
  233MOL0     H30739   8.056  11.026   3.600  0.0114 -0.8249  1.3731
  233MOL0     H30740   8.503  10.953   3.281 -4.4494 -2.6853  0.4724
  233MOL0     H30741   8.731  10.964   3.309 -4.2752  0.0999 -4.1231
  233MOL0     H30742  10.304  11.242   2.963  1.3765  0.6513  0.8978
  233MOL0     H30743  10.457  11.165   2.798  0.0604 -1.0526 -1.3953
  233MOL0     H30744  10.694  11.007   2.575  0.5079  0.9924 -0.0268
  233MOL0     H30745  10.785  10.929   2.360  2.1687  0.6763 -0.0551
  233MOL0     H30746  10.978  10.774   2.114  0.3926  1.6109  0.7912
  233MOL0     H30747  10.893  10.894   2.198 -0.4861  0.6084 -1.3114
  233MOL0     H30748  10.687  10.773   2.174 -2.0147 -2.6151 -1.3224
  233MOL0     H30749  10.785  10.744   2.026 -0.7130 -1.3141 -1.3993
  233MOL0     H30750  10.756  10.541   2.259  1.3691  1.0174 -0.1553
  233MOL0     H30751  10.849  10.522   2.114 -0.1616 -0.4593 -0.4139
  233MOL0     H30752  10.552  10.567   2.094  0.9632  1.9556  0.8926
  233MOL0     H30753  10.662  10.537   1.968  0.3605  2.6558  0.5979
  233MOL0     H30754  10.567  10.143   2.115 -0.4330  1.0219  1.3479
  233MOL0     H30755  10.957  10.585   2.515 -0.6186 -1.1723 -0.2285
  233MOL0     H30756  10.891  10.648   2.760  1.4948  2.5415  1.7587
  234MOL0     O30757   6.457   9.254   0.593  0.5315 -0.2333 -0.0714
  234MOL0     C30758   6.479   9.322   0.489 -0.4397 -0.1469 -0.1101
  234MOL0     O30759   6.398   9.334   0.380  0.4388 -0.1255  0.0295
  234MOL0     C30760   6.277   9.276   0.390  0.0116  0.4764 -0.6963
  234MOL0     C30761   6.160   9.349   0.402  0.8503 -0.8624 -0.1385
  234MOL0     C30762   6.031   9.285   0.399  0.0217 -0.4500 -0.3225
  234MOL0     C30763   6.026   9.143   0.389  0.8355  0.5295  0.1039
  234MOL0     O30764   5.902   9.074   0.391 -0.1756  0.1460 -0.9906
  234MOL0     C30765   5.779   9.145   0.382  0.0363 -0.4506 -0.0215
  234MOL0     C30766   5.669   9.036   0.374 -0.6066 -0.8742  0.3333
  234MOL0     C30767   5.528   9.098   0.381  0.2798 -0.0530 -0.5687
  234MOL0     C30768   5.431   8.978   0.382 -0.2496 -0.8986 -0.1921
  234MOL0     C30769   5.288   9.008   0.436 -0.3733 -0.4519  0.1426
  234MOL0     C30770   5.286   9.068   0.586  0.3506 -0.6134  0.3107
  234MOL0     C30771   5.145   9.060   0.643  0.4424 -0.2380 -0.9681
  234MOL0     C30772   5.042   9.150   0.572  0.1323  0.1481 -0.7575
  234MOL0     N30773   4.908   9.139   0.629 -0.1562  0.0177 -0.1262
  234MOL0     C30774   4.875   9.154   0.763  1.3061 -0.0523  0.1024
  234MOL0     C30775   4.746   9.154   0.766  0.3678 -0.8952  0.5515
  234MOL0     C30776   4.658   9.169   0.885  0.7567 -0.4697 -0.8273
  234MOL0     C30777   4.509   9.169   0.854 -0.3065  0.5688 -0.1214
  234MOL0     C30778   4.451   9.031   0.823 -0.7529  0.0244  0.4067
  234MOL0     C30779   4.307   9.044   0.764  0.6895  0.0514 -0.2308
  234MOL0     O30780   4.221   9.103   0.859  0.1142  0.1557  0.4430
  234MOL0     C30781   4.085   9.075   0.852  1.6927  0.7225  0.6229
  234MOL0     C30782   4.014   9.002   0.750 -0.0189  0.6680  0.8216
  234MOL0     C30783   3.877   8.987   0.764  0.6966 -0.5004 -0.4353
  234MOL0     C30784   3.796   9.038   0.875 -0.3272 -1.2233  1.6180
  234MOL0     C30785   3.650   9.023   0.872  0.2915  0.2062 -0.2428
  234MOL0     O30786   3.576   9.056   0.985  0.0815 -0.8883 -0.4795
  234MOL0     C30787   3.439   9.061   0.984 -0.7029  0.2434  0.2479
  234MOL0     C30788   3.381   9.106   1.099  0.8106  0.6745 -0.3467
  234MOL0     C30789   3.251   9.086   1.133  1.0490 -0.6673 -0.2077
  234MOL0     C30790   3.162   9.037   1.041  0.0602  0.8258 -0.3981
  234MOL0     O30791   3.036   9.012   1.083 -0.1172  0.7575  0.5221
  234MOL0     C30792   2.945   9.117   1.086 -1.5751  0.8655  0.2122
  234MOL0     C30793   2.838   9.090   0.991  0.9344 -1.0919  0.2256
  234MOL0     C30794   2.748   8.964   1.017  1.0430 -0.2147 -0.0848
  234MOL0     C30795   2.622   8.960   0.935  0.1933  0.7223  0.6563
  234MOL0     C30796   2.540   8.832   0.970  0.7297  0.1021  0.8327
  234MOL0     C30797   2.445   8.872   1.082 -1.1812 -0.5079  0.0138
  234MOL0     C30798   2.347   8.763   1.113  0.2559 -1.2119 -0.1575
  234MOL0     C30799   2.249   8.739   0.992 -0.1291  0.2372  0.8120
  234MOL0    Cl30800   2.105   8.653   1.045 -0.0576  0.1428 -0.2138
  234MOL0     C30801   3.207   8.996   0.914 -0.5710 -0.6181  0.5959
  234MOL0     C30802   3.350   9.008   0.888  0.5508  0.1804 -0.2963
  234MOL0     O30803   3.599   8.985   0.768 -0.1808  0.3540 -0.1998
  234MOL0     C30804   3.871   9.100   0.977 -0.1216  0.7087  0.6356
  234MOL0     C30805   4.011   9.124   0.959 -0.2621 -1.0370 -0.2074
  234MOL0     N30806   4.694   9.145   0.635  0.0038  0.5726 -0.3176
  234MOL0     N30807   4.795   9.134   0.555 -0.6333  0.1378  0.0924
  234MOL0     C30808   6.148   9.076   0.383  0.6295 -0.1193  0.3734
  234MOL0     C30809   6.265   9.141   0.377  0.1421  0.4853 -0.0290
  234MOL0     C30810   6.608   9.393   0.482 -0.2463  0.5830 -0.0201
  234MOL0     C30811   6.707   9.350   0.575  0.3847  0.8076 -0.7425
  234MOL0     C30812   6.836   9.410   0.575  0.0393 -0.9970  0.2322
  234MOL0     C30813   6.857   9.516   0.486  0.1069  0.2374  0.2867
  234MOL0     O30814   6.973   9.589   0.478  0.2518 -0.3395  0.6851
  234MOL0     C30815   7.101   9.531   0.517 -0.4315  0.1309  0.1032
  234MOL0     C30816   7.151   9.637   0.610 -0.5703  0.3846  0.0118
  234MOL0     C30817   7.184   9.761   0.534  1.4466 -0.3677  0.0030
  234MOL0     C30818   7.230   9.882   0.615  0.1595  0.2410 -0.3649
  234MOL0     C30819   7.357   9.867   0.678  0.1206  0.5828 -0.5270
  234MOL0     C30820   7.470   9.851   0.726  0.2313 -0.2737 -0.0187
  234MOL0     C30821   6.766   9.543   0.394  0.5814 -0.4286  1.1599
  234MOL0     C30822   6.641   9.479   0.383  0.0145  0.5938 -0.3578
  234MOL0     H30823   6.157   9.457   0.399  3.5630 -0.7513 -1.0369
  234MOL0     H30824   5.945   9.351   0.400  0.5626  0.2679  0.2351
  234MOL0     H30825   5.780   9.219   0.301  0.3617 -1.0974 -0.6205
  234MOL0     H30826   5.761   9.196   0.477  2.2900  1.8057 -0.6835
  234MOL0     H30827   5.688   8.963   0.454 -2.3825 -2.8726 -0.9647
  234MOL0     H30828   5.687   8.987   0.278  2.6545 -0.6247  0.7143
  234MOL0     H30829   5.509   9.175   0.306 -0.7348  0.8708  0.5980
  234MOL0     H30830   5.506   9.161   0.467 -2.1620  0.5128 -1.5329
  234MOL0     H30831   5.421   8.938   0.281  0.2318 -3.5431  0.7364
  234MOL0     H30832   5.468   8.902   0.452  0.9421 -1.9170 -1.8719
  234MOL0     H30833   5.220   8.922   0.430 -0.7357 -0.1644  0.1104
  234MOL0     H30834   5.228   9.074   0.373 -0.2083 -0.2286  0.2153
  234MOL0     H30835   5.320   9.171   0.578  1.2476 -0.8824  0.4508
  234MOL0     H30836   5.349   8.999   0.644 -0.7223  0.3626  2.7607
  234MOL0     H30837   5.102   8.959   0.641  0.8958 -0.4462 -0.3972
  234MOL0     H30838   5.156   9.073   0.751 -2.4520  1.3004 -0.7575
  234MOL0     H30839   5.038   9.116   0.468  0.4171 -0.9578 -0.4196
  234MOL0     H30840   5.081   9.252   0.577  2.9579 -0.8573 -0.4437
  234MOL0     H30841   4.946   9.159   0.845 -1.2946  2.0826  2.4173
  234MOL0     H30842   4.691   9.246   0.954  1.5325 -3.2469  2.1735
  234MOL0     H30843   4.679   9.079   0.944  2.7211  0.1288 -0.5345
  234MOL0     H30844   4.486   9.222   0.761  0.8927 -0.9166 -1.3183
  234MOL0     H30845   4.461   9.209   0.944 -1.0761  0.3033 -0.4013
  234MOL0     H30846   4.515   8.989   0.745 -1.8985 -4.4375  1.6012
  234MOL0     H30847   4.457   8.972   0.915 -1.3221  0.8968  1.0230
  234MOL0     H30848   4.275   8.946   0.728  1.4102  0.1070 -1.0773
  234MOL0     H30849   4.316   9.103   0.672  0.4573 -2.6427 -2.1014
  234MOL0     H30850   4.060   8.970   0.657 -2.6844  1.4223 -0.8860
  234MOL0     H30851   3.822   8.937   0.685 -1.1813  0.9233 -0.0920
  234MOL0     H30852   3.451   9.136   1.176 -1.5864 -1.5760  2.9806
  234MOL0     H30853   3.219   9.099   1.236  0.1066 -0.9409 -0.4559
  234MOL0     H30854   2.994   9.214   1.076 -0.0568  0.3102  1.6978
  234MOL0     H30855   2.897   9.120   1.184  0.6462 -0.2275  1.4398
  234MOL0     H30856   2.889   9.077   0.896 -2.8194  0.8990 -2.3300
  234MOL0     H30857   2.776   9.181   0.985 -0.0653 -1.6501  1.5485
  234MOL0     H30858   2.725   8.977   1.123  0.2845  3.3116 -0.5536
  234MOL0     H30859   2.816   8.881   0.998 -0.7878 -1.7630 -0.1267
  234MOL0     H30860   2.570   9.056   0.947  1.4001  1.5428 -0.5027
  234MOL0     H30861   2.650   8.949   0.830  2.3730 -0.2500  1.2846
  234MOL0     H30862   2.606   8.750   0.999  0.0761 -1.7699 -2.4865
  234MOL0     H30863   2.480   8.805   0.883  0.6186  2.4215  0.1183
  234MOL0     H30864   2.388   8.961   1.054 -1.2519 -0.5075  0.1564
  234MOL0     H30865   2.506   8.896   1.170 -0.0684  1.1572 -1.1607
  234MOL0     H30866   2.389   8.669   1.149 -1.0493 -1.1631  1.6374
  234MOL0     H30867   2.293   8.793   1.203  0.2186 -1.7148 -0.0084
  234MOL0     H30868   2.285   8.684   0.905 -3.2720 -1.0972  0.2368
  234MOL0     H30869   2.209   8.831   0.949  0.0142 -1.4858 -3.5199
  234MOL0     H30870   3.141   8.949   0.842 -0.7167 -0.4036  0.5873
  234MOL0     H30871   3.366   8.966   0.789 -4.3085 -0.6365 -0.9822
  234MOL0     H30872   3.821   9.149   1.060  0.5439  3.1979 -0.3162
  234MOL0     H30873   4.074   9.175   1.031 -2.0193  2.3698 -0.8863
  234MOL0     H30874   6.155   8.968   0.376  1.2991 -0.1076  0.7626
  234MOL0     H30875   6.348   9.072   0.366 -1.4696 -1.3635 -1.3611
  234MOL0     H30876   6.700   9.271   0.650 -0.4017  3.0596  1.7386
  234MOL0     H30877   6.904   9.369   0.650 -0.1806 -0.2488  0.8468
  234MOL0     H30878   7.172   9.516   0.435  0.2548 -0.8796  0.8609
  234MOL0     H30879   7.103   9.440   0.576  1.9704 -1.5279 -2.2643
  234MOL0     H30880   7.083   9.653   0.694 -0.3612 -0.9188  0.4571
  234MOL0     H30881   7.246   9.598   0.649 -0.2129  1.2915  0.0816
  234MOL0     H30882   7.092   9.791   0.483  2.6608 -1.9775 -3.5090
  234MOL0     H30883   7.265   9.749   0.461  0.3798  1.6933 -1.6080
  234MOL0     H30884   7.238   9.969   0.549  2.6764  1.6072  1.5739
  234MOL0     H30885   7.158   9.920   0.688 -1.0362 -0.6088 -1.0627
  234MOL0     H30886   7.570   9.856   0.764  0.0766  0.3131  0.3288
  234MOL0     H30887   6.782   9.624   0.324 -0.4864 -0.7257  0.5517
  234MOL0     H30888   6.563   9.502   0.311 -0.1253  0.8558 -0.1255
  235MOL0     O30889   8.514   5.644   9.001  0.7231 -0.4991  0.0234
  235MOL0     C30890   8.485   5.543   8.959 -0.2977  0.5975 -0.6124
  235MOL0     O30891   8.359   5.491   8.946 -0.5313 -0.6617  0.0041
  235MOL0     C30892   8.241   5.558   8.981  0.1934 -0.6065 -0.0537
  235MOL0     C30893   8.232   5.694   9.012 -0.5701  0.2095 -0.3093
  235MOL0     C30894   8.109   5.752   9.050  0.0577 -0.6023  0.3173
  235MOL0     C30895   7.988   5.677   9.054  0.6424 -0.6537  0.3362
  235MOL0     O30896   7.865   5.721   9.100 -0.3344  0.7458 -0.0025
  235MOL0     C30897   7.823   5.845   9.051  0.9226 -0.5767 -0.1164
  235MOL0     C30898   7.694   5.832   8.966  0.1365 -0.1068  0.4300
  235MOL0     C30899   7.577   5.753   9.029 -0.1002 -0.1963  0.3319
  235MOL0     C30900   7.469   5.733   8.914 -0.2298  0.2354 -0.9906
  235MOL0     C30901   7.350   5.648   8.956  0.8049  0.3127 -0.2747
  235MOL0     C30902   7.382   5.501   8.961  0.0565  0.9389 -0.0361
  235MOL0     C30903   7.272   5.410   9.033 -0.2242 -0.0775 -0.0082
  235MOL0     C30904   7.130   5.435   8.975  0.1968  0.7479  0.2837
  235MOL0     N30905   7.040   5.322   8.997 -0.2571 -0.6079 -0.7889
  235MOL0     C30906   6.981   5.296   9.119  0.3662  0.5271 -0.0736
  235MOL0     C30907   6.898   5.198   9.093  0.3457  0.5324  0.5140
  235MOL0     C30908   6.807   5.141   9.206 -0.1156 -0.3746 -0.1663
  235MOL0     C30909   6.805   4.988   9.206  0.1964  0.4814 -0.5852
  235MOL0     C30910   6.749   4.919   9.338 -0.0345  0.0866 -0.5056
  235MOL0     C30911   6.599   4.962   9.360 -0.2088  0.4974 -0.2455
  235MOL0     O30912   6.523   4.909   9.477 -0.0716  0.3619 -0.5080
  235MOL0     C30913   6.384   4.917   9.461 -0.5818  1.0680 -0.2747
  235MOL0     C30914   6.314   5.008   9.377 -0.4809 -0.4981  0.3886
  235MOL0     C30915   6.171   5.017   9.381 -0.0540  0.7879 -0.3071
  235MOL0     C30916   6.098   4.940   9.467 -0.7628 -0.4818 -0.1716
  235MOL0     C30917   5.944   4.948   9.470 -0.0991 -0.4538 -0.5179
  235MOL0     O30918   5.880   4.838   9.525 -0.7443  0.0289  0.2598
  235MOL0     C30919   5.750   4.823   9.511 -0.1567  0.1281 -0.4308
  235MOL0     C30920   5.657   4.923   9.523 -0.0403  0.8710  0.3486
  235MOL0     C30921   5.517   4.900   9.506  0.0515 -0.7116 -0.1073
  235MOL0     C30922   5.469   4.773   9.486 -0.5818 -0.5893  0.4035
  235MOL0     O30923   5.329   4.755   9.490  0.3788 -0.3812  0.5179
  235MOL0     C30924   5.272   4.626   9.438  0.0297  0.0278  0.1217
  235MOL0     C30925   5.119   4.610   9.468  0.2647 -0.1985 -0.1210
  235MOL0     C30926   5.064   4.471   9.441 -0.2608  0.1655  0.4197
  235MOL0     C30927   4.942   4.433   9.534 -0.9401  0.2541 -0.6490
  235MOL0     C30928   4.898   4.292   9.506 -0.0240  0.4994  0.1869
  235MOL0     C30929   4.758   4.289   9.566  0.4463 -0.4262 -0.0771
  235MOL0     C30930   4.701   4.143   9.537  0.6575 -0.2589 -0.8652
  235MOL0     C30931   4.642   4.079   9.658 -0.5382  0.1705 -0.3151
  235MOL0    Cl30932   4.472   4.123   9.657 -0.0263 -0.3707  0.0741
  235MOL0     C30933   5.564   4.672   9.459 -0.1090 -0.2572 -0.5598
  235MOL0     C30934   5.702   4.696   9.481  1.0184  0.5079 -0.3116
  235MOL0     O30935   5.893   5.047   9.421  0.2933 -0.1440 -0.3590
  235MOL0     C30936   6.176   4.846   9.540  0.7285  0.9059  0.2883
  235MOL0     C30937   6.311   4.833   9.545 -0.2923 -0.6543  0.4621
  235MOL0     N30938   6.910   5.157   8.958  0.4038  0.0509 -0.2700
  235MOL0     N30939   7.000   5.228   8.908 -0.6127 -0.3349 -0.3061
  235MOL0     C30940   7.995   5.544   9.031 -0.2587 -0.2682  0.2833
  235MOL0     C30941   8.120   5.487   8.991 -1.0439  0.1581  0.2078
  235MOL0     C30942   8.599   5.447   8.931 -0.0204 -0.0941 -0.3203
  235MOL0     C30943   8.576   5.317   8.887  0.0957 -1.4327 -0.3884
  235MOL0     C30944   8.681   5.237   8.839 -0.8040 -0.4489 -0.4645
  235MOL0     C30945   8.816   5.274   8.851 -1.2642  0.0693 -0.2371
  235MOL0     O30946   8.908   5.174   8.821  0.5005 -0.1320 -1.3354
  235MOL0     C30947   9.040   5.197   8.765 -0.3365 -0.4179  0.1211
  235MOL0     C30948   9.017   5.207   8.607  0.2487 -0.1287  0.5837
  235MOL0     C30949   9.150   5.195   8.533 -0.3779 -0.8560  0.8421
  235MOL0     C30950   9.148   5.220   8.379  0.2136 -0.3469 -0.2786
  235MOL0     C30951   9.020   5.178   8.313 -0.7535  0.6048  0.1276
  235MOL0     C30952   8.921   5.147   8.255  0.1454 -0.5083  0.8235
  235MOL0     C30953   8.844   5.408   8.889 -0.7177 -0.1326  0.5070
  235MOL0     C30954   8.734   5.495   8.935 -0.4087 -0.1422  0.3271
  235MOL0     H30955   8.323   5.753   9.012 -0.2731  0.0280 -4.1933
  235MOL0     H30956   8.095   5.856   9.078  0.1717 -0.9265  1.6281
  235MOL0     H30957   7.902   5.896   8.994  2.5268  1.9121  3.9003
  235MOL0     H30958   7.809   5.911   9.138  1.0761 -0.6185 -0.0603
  235MOL0     H30959   7.726   5.779   8.876  1.8401  1.4124  0.0845
  235MOL0     H30960   7.661   5.933   8.937 -0.0704 -0.6635 -1.3751
  235MOL0     H30961   7.537   5.809   9.114  0.4586 -0.7098  0.9524
  235MOL0     H30962   7.612   5.653   9.057 -0.5354  0.0741  1.9962
  235MOL0     H30963   7.439   5.834   8.886 -0.1563  0.6158  0.2561
  235MOL0     H30964   7.526   5.684   8.834 -1.1290 -4.9120  1.1167
  235MOL0     H30965   7.276   5.666   8.878 -0.2162  5.1612  1.4579
  235MOL0     H30966   7.301   5.677   9.050  0.8558 -1.4908  0.3594
  235MOL0     H30967   7.476   5.494   9.016  0.9136  2.8441 -1.1375
  235MOL0     H30968   7.398   5.450   8.866 -2.4879 -2.6322  1.2403
  235MOL0     H30969   7.292   5.307   9.002 -0.7569  0.0115 -0.6661
  235MOL0     H30970   7.269   5.414   9.142 -0.9117  2.8089 -0.0453
  235MOL0     H30971   7.139   5.451   8.867  0.8731 -2.2200 -0.1834
  235MOL0     H30972   7.093   5.527   9.020 -0.6938  0.5422 -0.0127
  235MOL0     H30973   7.004   5.327   9.220  1.6770  0.2659 -0.2656
  235MOL0     H30974   6.710   5.189   9.189  2.2083  4.0864 -2.7648
  235MOL0     H30975   6.835   5.169   9.307  0.5398 -1.7832  0.0619
  235MOL0     H30976   6.910   4.959   9.202 -0.2776 -1.8582  1.2220
  235MOL0     H30977   6.754   4.943   9.121 -0.8244  2.0488 -0.8626
  235MOL0     H30978   6.748   4.810   9.337 -1.0058 -0.0980  3.4894
  235MOL0     H30979   6.810   4.950   9.424 -0.8334  0.4172 -0.0421
  235MOL0     H30980   6.545   4.945   9.266 -1.3105  3.1253 -0.1812
  235MOL0     H30981   6.603   5.071   9.371 -0.2006  0.3506  1.3894
  235MOL0     H30982   6.371   5.068   9.307 -0.1608 -0.7528  0.4289
  235MOL0     H30983   6.119   5.080   9.310 -4.5677  0.9124  2.7351
  235MOL0     H30984   5.703   5.020   9.539  1.3675  0.2916 -0.0429
  235MOL0     H30985   5.445   4.978   9.529 -0.0918 -1.0232  0.5237
  235MOL0     H30986   5.308   4.539   9.493 -0.0664  0.1900  0.4402
  235MOL0     H30987   5.284   4.613   9.330  2.3021 -2.0574  0.5458
  235MOL0     H30988   5.079   4.680   9.394  0.2008 -0.4666 -0.3419
  235MOL0     H30989   5.107   4.643   9.572  0.8615  1.2495 -0.4887
  235MOL0     H30990   5.141   4.395   9.454 -1.7751 -1.2613  1.6912
  235MOL0     H30991   5.021   4.456   9.342  1.0991  0.5830 -0.2442
  235MOL0     H30992   4.976   4.438   9.638  0.5804  1.8529 -1.1812
  235MOL0     H30993   4.864   4.510   9.531  0.5104  1.7797 -0.3700
  235MOL0     H30994   4.958   4.222   9.563 -1.1809 -1.2243 -0.6064
  235MOL0     H30995   4.899   4.264   9.400 -3.8315 -1.3608  0.4691
  235MOL0     H30996   4.701   4.371   9.520  1.4271 -0.1384 -0.8201
  235MOL0     H30997   4.767   4.296   9.675 -1.8536 -1.7997  0.2602
  235MOL0     H30998   4.631   4.148   9.453  0.4788  1.2819 -0.6533
  235MOL0     H30999   4.788   4.086   9.505  2.6889  1.9109  0.4087
  235MOL0     H31000   4.700   4.106   9.747  1.7573  3.6936 -2.6044
  235MOL0     H31001   4.643   3.970   9.649 -0.3060  0.2655 -1.5341
  235MOL0     H31002   5.529   4.573   9.433  0.7317 -0.4965 -0.8250
  235MOL0     H31003   5.767   4.610   9.494  0.0984  0.1738  2.8581
  235MOL0     H31004   6.112   4.786   9.604 -0.7791  1.6376 -0.4868
  235MOL0     H31005   6.365   4.771   9.616  4.3634 -0.4523 -2.4920
  235MOL0     H31006   7.906   5.481   9.027 -2.6379  2.6602  2.7574
  235MOL0     H31007   8.123   5.384   8.957 -0.9269  0.1119  0.3617
  235MOL0     H31008   8.472   5.289   8.870 -0.2657  0.0353 -0.7074
  235MOL0     H31009   8.658   5.146   8.783  0.1567 -0.5092 -0.7735
  235MOL0     H31010   9.113   5.118   8.784 -0.1278 -0.6348 -1.4317
  235MOL0     H31011   9.083   5.290   8.803 -0.0845 -0.7597  0.6836
  235MOL0     H31012   8.944   5.134   8.569  0.9582 -1.3280  1.4255
  235MOL0     H31013   8.991   5.311   8.587  1.9996  0.2948  0.3459
  235MOL0     H31014   9.200   5.100   8.549  4.0918  1.4044  1.8747
  235MOL0     H31015   9.220   5.267   8.578  0.6057 -1.7208  0.7212
  235MOL0     H31016   9.176   5.320   8.342  1.2348 -0.9010 -1.0394
  235MOL0     H31017   9.219   5.145   8.344 -0.9169 -1.4527 -0.2723
  235MOL0     H31018   8.839   5.126   8.189  1.3282  2.3176 -1.8095
  235MOL0     H31019   8.947   5.440   8.892 -0.5787 -0.4338 -0.6927
  235MOL0     H31020   8.756   5.595   8.970 -1.2904  0.1000  0.2033
  236MOL0     O31021   0.374   7.286   1.985 -0.6238 -0.1115  0.0995
  236MOL0     C31022   0.445   7.207   1.913  1.0673  1.1999 -0.4571
  236MOL0     O31023   0.422   7.178   1.790  0.3221 -0.0807  0.9495
  236MOL0     C31024   0.301   7.220   1.734 -0.1820 -0.0936  1.2993
  236MOL0     C31025   0.278   7.357   1.709 -0.5751  0.3044 -0.1715
  236MOL0     C31026   0.149   7.396   1.661  0.4820 -0.9060  0.5205
  236MOL0     C31027   0.051   7.303   1.625  0.1978 -0.0239 -1.3237
  236MOL0     O31028  -0.078   7.323   1.586  0.3594 -0.2776 -0.2332
  236MOL0     C31029  -0.138   7.447   1.615  1.2779 -0.7038  0.4503
  236MOL0     C31030  -0.294   7.449   1.606  1.1395  0.3911 -0.3775
  236MOL0     C31031  -0.338   7.417   1.462  0.2796 -0.5324 -0.6226
  236MOL0     C31032  -0.487   7.377   1.453 -0.0671  0.1981  0.3871
  236MOL0     C31033  -0.522   7.248   1.542  0.1516  0.2226 -0.2957
  236MOL0     C31034  -0.411   7.141   1.533 -0.2379 -0.2374 -0.1468
  236MOL0     C31035  -0.472   7.000   1.560 -0.5126 -0.3659  0.2672
  236MOL0     C31036  -0.517   6.930   1.435  0.2615  0.6718  0.2584
  236MOL0     N31037  -0.565   6.789   1.453  0.0146 -0.8027 -0.0231
  236MOL0     C31038  -0.684   6.743   1.507  0.1538  0.4570  0.5685
  236MOL0     C31039  -0.677   6.610   1.493 -0.0506 -0.1780  0.5711
  236MOL0     C31040  -0.762   6.506   1.563 -0.3895  1.0177  0.0829
  236MOL0     C31041  -0.912   6.516   1.539  0.8341  0.1640  0.5260
  236MOL0     C31042  -0.991   6.392   1.587 -0.9496  0.2165 -0.1732
  236MOL0     C31043  -1.129   6.441   1.642 -0.6889 -0.1369  0.9868
  236MOL0     O31044  -1.215   6.321   1.635  0.8124  0.1094 -0.2083
  236MOL0     C31045  -1.339   6.333   1.691  0.9173 -0.1325  0.5281
  236MOL0     C31046  -1.417   6.218   1.683  1.1243  0.8566  0.4893
  236MOL0     C31047  -1.539   6.209   1.757  0.1763 -0.3000 -0.9608
  236MOL0     C31048  -1.593   6.325   1.824  0.3058  0.3012  0.1233
  236MOL0     C31049  -1.722   6.309   1.886  0.0504 -0.4127  0.3907
  236MOL0     O31050  -1.781   6.427   1.909  0.2293 -0.7456 -0.2285
  236MOL0     C31051  -1.906   6.435   1.969  0.5592 -0.0200 -0.5711
  236MOL0     C31052  -1.936   6.551   2.042 -0.3442 -0.2436 -0.0960
  236MOL0     C31053  -2.072   6.568   2.081 -0.0890  0.5396  0.5107
  236MOL0     C31054  -2.173   6.478   2.043  0.0372 -0.9452  0.5719
  236MOL0     O31055  -2.301   6.516   2.081 -0.4455 -0.4977 -0.5175
  236MOL0     C31056  -2.394   6.409   2.091  0.0170 -0.0371 -0.3128
  236MOL0     C31057  -2.520   6.463   2.158  0.0705  0.5657  0.7091
  236MOL0     C31058  -2.494   6.524   2.295 -0.0881 -0.7006 -0.1833
  236MOL0     C31059  -2.619   6.575   2.367 -0.4206 -0.1337 -0.2194
  236MOL0     C31060  -2.588   6.626   2.506  0.8113 -0.1267 -0.5201
  236MOL0     C31061  -2.721   6.640   2.584 -0.0522  0.0243 -0.6284
  236MOL0     C31062  -2.798   6.766   2.548  0.4158 -0.1655  0.0365
  236MOL0     C31063  -2.915   6.804   2.640  0.1408 -0.6832 -0.0157
  236MOL0    Cl31064  -3.003   6.954   2.590  0.4926 -0.2460 -0.3906
  236MOL0     C31065  -2.139   6.358   1.982  0.0518  0.2115 -0.1870
  236MOL0     C31066  -2.005   6.341   1.942 -0.2810 -0.2283  0.7114
  236MOL0     O31067  -1.756   6.196   1.920 -0.2273  0.1348  0.3985
  236MOL0     C31068  -1.522   6.444   1.810  0.9549  0.0369  0.0078
  236MOL0     C31069  -1.393   6.451   1.749 -0.3268 -0.4946 -0.3489
  236MOL0     N31070  -0.569   6.573   1.423  0.8342 -0.2757  0.6499
  236MOL0     N31071  -0.500   6.682   1.407 -0.5773  0.3093 -0.2378
  236MOL0     C31072   0.087   7.170   1.654 -0.3363  0.6517  0.3330
  236MOL0     C31073   0.206   7.127   1.706  0.1289 -1.2979 -0.6826
  236MOL0     C31074   0.560   7.147   1.974  0.2353 -0.6449  0.8736
  236MOL0     C31075   0.562   7.144   2.122 -0.0122  0.1110 -0.1301
  236MOL0     C31076   0.675   7.091   2.183 -0.6891  0.3170 -0.5589
  236MOL0     C31077   0.782   7.039   2.109 -0.4225  0.7528 -0.0172
  236MOL0     O31078   0.888   6.997   2.175  0.4562  0.0055  0.0161
  236MOL0     C31079   1.017   6.989   2.123  0.4845  0.2682 -0.7044
  236MOL0     C31080   1.117   6.927   2.231  1.0152  0.0568  0.2288
  236MOL0     C31081   1.079   6.782   2.272 -0.3280 -0.5716 -0.2867
  236MOL0     C31082   1.178   6.697   2.357 -0.1112  0.7856  0.6116
  236MOL0     C31083   1.133   6.556   2.360  0.3374  0.0002 -0.2383
  236MOL0     C31084   1.084   6.448   2.377  0.4748  0.9677  0.3921
  236MOL0     C31085   0.765   7.029   1.971  0.7845 -0.3898 -0.3896
  236MOL0     C31086   0.658   7.089   1.900 -0.0352  0.3490 -0.3268
  236MOL0     H31087   0.356   7.425   1.743 -1.0604  0.7189  0.1360
  236MOL0     H31088   0.124   7.501   1.647  0.3801 -0.6805  2.1140
  236MOL0     H31089  -0.086   7.528   1.562 -0.8874 -0.0769 -0.8276
  236MOL0     H31090  -0.107   7.476   1.716  2.6950 -0.5221  0.0007
  236MOL0     H31091  -0.328   7.550   1.627 -1.6615 -0.8182  1.3757
  236MOL0     H31092  -0.345   7.377   1.670 -2.1469  2.5622 -0.3374
  236MOL0     H31093  -0.271   7.346   1.413  1.7258  0.2652  0.1508
  236MOL0     H31094  -0.330   7.511   1.408 -3.7657  1.0497  1.1454
  236MOL0     H31095  -0.556   7.459   1.475 -1.0706 -0.4161 -0.3812
  236MOL0     H31096  -0.508   7.360   1.347 -0.1590  0.1947  0.4063
  236MOL0     H31097  -0.616   7.206   1.505 -0.6224  2.5950 -1.1837
  236MOL0     H31098  -0.531   7.272   1.648  6.2742 -4.2578  1.8557
  236MOL0     H31099  -0.326   7.155   1.600 -0.3353  1.6424 -0.3550
  236MOL0     H31100  -0.379   7.147   1.428 -1.3400 -0.5580 -0.5205
  236MOL0     H31101  -0.394   6.943   1.611 -0.3179 -0.2629  0.0889
  236MOL0     H31102  -0.546   7.008   1.640 -0.1318 -1.8590  0.7888
  236MOL0     H31103  -0.431   6.928   1.368  0.9477 -2.1372  1.0686
  236MOL0     H31104  -0.597   6.982   1.382  1.7184  0.6005 -2.1343
  236MOL0     H31105  -0.761   6.800   1.558  0.0677  1.0911 -0.2497
  236MOL0     H31106  -0.748   6.509   1.671 -0.7816  3.0557  0.1285
  236MOL0     H31107  -0.726   6.412   1.522 -1.7633  0.7156 -0.4869
  236MOL0     H31108  -0.921   6.523   1.430  2.6599 -1.0133  0.2535
  236MOL0     H31109  -0.936   6.613   1.585 -1.6428  0.4884 -1.2498
  236MOL0     H31110  -1.014   6.315   1.512 -0.0968  0.9443 -1.2081
  236MOL0     H31111  -0.943   6.347   1.674 -1.7321  1.1785  0.7731
  236MOL0     H31112  -1.172   6.509   1.567 -0.5747 -3.4768 -2.4282
  236MOL0     H31113  -1.106   6.486   1.739  0.0333  0.0250  0.7486
  236MOL0     H31114  -1.389   6.127   1.631 -1.5442  1.0264 -1.4636
  236MOL0     H31115  -1.586   6.111   1.749  2.5947 -1.6525  0.3623
  236MOL0     H31116  -1.855   6.620   2.062  0.6228 -1.4742  0.3885
  236MOL0     H31117  -2.112   6.663   2.116  0.2462  1.8818 -2.4841
  236MOL0     H31118  -2.349   6.330   2.151  2.3020  1.3197 -0.1021
  236MOL0     H31119  -2.429   6.376   1.992 -3.4232 -2.5587  1.5538
  236MOL0     H31120  -2.591   6.380   2.165  1.5102 -0.8537 -0.5944
  236MOL0     H31121  -2.561   6.544   2.097  4.5420  1.3196 -1.7770
  236MOL0     H31122  -2.433   6.614   2.286 -2.2069  1.3548  3.4465
  236MOL0     H31123  -2.442   6.455   2.362 -1.9885 -0.9533  1.1225
  236MOL0     H31124  -2.676   6.648   2.309 -0.3386  0.3455  0.2969
  236MOL0     H31125  -2.679   6.483   2.372  0.7491 -0.9311 -0.4545
  236MOL0     H31126  -2.530   6.719   2.498  0.7117 -0.1294 -1.3453
  236MOL0     H31127  -2.535   6.549   2.564 -0.2190 -0.9736 -0.6811
  236MOL0     H31128  -2.696   6.651   2.690 -2.4056  0.8757 -0.1141
  236MOL0     H31129  -2.770   6.542   2.576  0.8484 -0.5154  0.2832
  236MOL0     H31130  -2.732   6.852   2.557 -1.4862  1.1024  4.2636
  236MOL0     H31131  -2.826   6.758   2.442 -1.1789  2.8898  0.1284
  236MOL0     H31132  -2.875   6.829   2.739 -2.1257  0.7327  0.6370
  236MOL0     H31133  -2.985   6.720   2.641 -2.4004  1.2172 -1.9978
  236MOL0     H31134  -2.217   6.285   1.962 -0.2523 -0.1616  2.0623
  236MOL0     H31135  -1.995   6.260   1.870 -2.3087 -0.1742  0.3031
  236MOL0     H31136  -1.576   6.534   1.836  1.3293  0.1372  0.4402
  236MOL0     H31137  -1.345   6.548   1.751  1.3499 -1.3022  0.4296
  236MOL0     H31138   0.012   7.095   1.631  0.9278 -1.3990  2.4044
  236MOL0     H31139   0.227   7.028   1.744  0.7487 -1.5060 -1.5081
  236MOL0     H31140   0.491   7.190   2.191  1.7359  1.8531  0.5939
  236MOL0     H31141   0.693   7.094   2.290 -1.7087 -0.9280 -0.3245
  236MOL0     H31142   1.062   7.087   2.103  1.0431  0.0190 -0.6765
  236MOL0     H31143   1.038   6.926   2.036  1.3966 -1.3940  0.6629
  236MOL0     H31144   1.221   6.943   2.200  0.7267  4.7259  0.8438
  236MOL0     H31145   1.106   6.987   2.323 -1.9778 -2.6793  1.8480
  236MOL0     H31146   1.054   6.731   2.179  1.1389  0.4415 -1.2846
  236MOL0     H31147   0.986   6.790   2.330 -1.9776  1.7532 -2.9543
  236MOL0     H31148   1.275   6.695   2.307 -0.9867 -2.8914 -1.3383
  236MOL0     H31149   1.185   6.730   2.460 -1.1490 -0.7845  1.2295
  236MOL0     H31150   1.045   6.350   2.394  2.1162  0.2847  0.3893
  236MOL0     H31151   0.829   6.969   1.907  0.0596 -3.4646  1.5525
  236MOL0     H31152   0.664   7.085   1.792 -0.7097  0.0299 -0.3544
  237MOL0     O31153   9.675   6.340   2.863 -0.4689  0.1225  0.7398
  237MOL0     C31154   9.720   6.281   2.759  0.6521  0.3806  0.6371
  237MOL0     O31155   9.659   6.179   2.694 -0.4919  0.6714 -0.6243
  237MOL0     C31156   9.550   6.121   2.753  0.6816  0.3264  0.3802
  237MOL0     C31157   9.451   6.088   2.657  0.3744 -0.0082 -0.0626
  237MOL0     C31158   9.340   6.022   2.696  0.1857  0.4011 -0.0731
  237MOL0     C31159   9.327   5.968   2.822  1.1723  0.1416 -0.2177
  237MOL0     O31160   9.220   5.890   2.861 -0.2977 -1.2651  0.0407
  237MOL0     C31161   9.161   5.921   2.992 -0.5547 -0.0910  1.0993
  237MOL0     C31162   9.041   5.840   3.025  1.1172  0.6560 -0.1090
  237MOL0     C31163   8.921   5.914   2.970  0.6251 -0.2873 -0.3575
  237MOL0     C31164   8.795   5.834   2.984  0.1966  0.3028 -0.3250
  237MOL0     C31165   8.679   5.908   2.911 -0.2010 -0.7497  0.0819
  237MOL0     C31166   8.554   5.811   2.894 -1.2653 -0.1313 -0.5780
  237MOL0     C31167   8.449   5.876   2.808 -0.1428  0.5380  0.2048
  237MOL0     C31168   8.391   6.013   2.868 -0.1543 -0.1684 -0.2745
  237MOL0     N31169   8.253   6.038   2.823 -0.0329  0.3008 -0.2078
  237MOL0     C31170   8.179   6.109   2.911 -0.8999  0.5772 -0.0579
  237MOL0     C31171   8.061   6.120   2.832 -1.5268  0.9181  0.3017
  237MOL0     C31172   7.930   6.179   2.871  0.0220  0.2194  0.7122
  237MOL0     C31173   7.854   6.141   3.000 -0.5656 -0.3560  0.5701
  237MOL0     C31174   7.716   6.211   3.009 -0.1294 -0.4625 -0.6354
  237MOL0     C31175   7.616   6.128   2.937  0.6075  0.2160  0.6808
  237MOL0     O31176   7.489   6.150   2.999  0.4264  0.4143 -0.3174
  237MOL0     C31177   7.368   6.124   2.936  0.0132 -0.2249  0.1468
  237MOL0     C31178   7.358   6.070   2.801 -0.6126  0.3946 -0.3000
  237MOL0     C31179   7.234   6.041   2.745 -0.2413  0.2973 -0.1350
  237MOL0     C31180   7.112   6.063   2.821 -0.8572  0.4476 -0.2259
  237MOL0     C31181   6.982   6.043   2.758 -0.3399  0.3124  0.3819
  237MOL0     O31182   6.875   6.083   2.826 -0.5398  0.2566  0.3609
  237MOL0     C31183   6.750   6.090   2.757  0.0907 -0.0373  0.1194
  237MOL0     C31184   6.706   6.220   2.736 -0.7177 -0.8871  0.6139
  237MOL0     C31185   6.580   6.241   2.669 -0.1002  0.1917  0.6060
  237MOL0     C31186   6.503   6.127   2.643  0.6301  0.4897  0.2310
  237MOL0     O31187   6.388   6.132   2.572 -0.4290 -0.6540  0.5802
  237MOL0     C31188   6.289   6.219   2.635  0.6815  0.2370 -0.4605
  237MOL0     C31189   6.147   6.160   2.609 -0.1608  0.0986  0.0816
  237MOL0     C31190   6.052   6.231   2.695 -0.1019 -0.5533  0.1623
  237MOL0     C31191   5.903   6.185   2.671  0.9840  0.7888  0.3003
  237MOL0     C31192   5.805   6.230   2.778 -0.1515 -0.1265  0.2474
  237MOL0     C31193   5.690   6.142   2.820  0.3004  0.0093 -0.0995
  237MOL0     C31194   5.748   6.009   2.877 -0.1355 -0.2981  0.4123
  237MOL0     C31195   5.646   5.960   2.977  0.5006  0.2365  0.1081
  237MOL0    Cl31196   5.497   5.899   2.918  0.1932  0.1879 -0.1415
  237MOL0     C31197   6.546   5.998   2.664  0.8972  0.6354 -0.1490
  237MOL0     C31198   6.674   5.981   2.719 -0.1690  0.2017 -0.2442
  237MOL0     O31199   6.972   5.998   2.648 -0.4997 -0.3967 -0.5742
  237MOL0     C31200   7.125   6.111   2.946  0.2539  0.0947 -0.0463
  237MOL0     C31201   7.250   6.146   3.003  0.1215  0.5284  0.1425
  237MOL0     N31202   8.073   6.052   2.712 -0.1522 -0.0003 -0.3966
  237MOL0     N31203   8.184   5.996   2.712 -0.0513  0.6863  0.1293
  237MOL0     C31204   9.421   6.002   2.924 -0.7891 -0.2911  0.7838
  237MOL0     C31205   9.536   6.076   2.887 -0.0291  1.3575 -1.0607
  237MOL0     C31206   9.844   6.340   2.702 -0.8774  0.7855 -0.0507
  237MOL0     C31207   9.917   6.261   2.619  0.0167 -0.1685 -0.2235
  237MOL0     C31208  10.037   6.306   2.575  0.1409 -0.0691  0.4402
  237MOL0     C31209  10.093   6.432   2.603  0.1323 -0.5152  0.5155
  237MOL0     O31210  10.203   6.494   2.548 -0.7245  0.4786 -0.4855
  237MOL0     C31211  10.292   6.426   2.469 -0.2213  0.3259  0.6795
  237MOL0     C31212  10.414   6.508   2.421 -0.5144  0.6852 -0.0151
  237MOL0     C31213  10.517   6.424   2.344 -0.0950 -0.5264 -0.0547
  237MOL0     C31214  10.646   6.507   2.304 -0.1329 -0.2703  0.1282
  237MOL0     C31215  10.753   6.503   2.404  0.0704  0.2691 -0.0968
  237MOL0     C31216  10.825   6.502   2.502  0.6612  0.4167 -0.1701
  237MOL0     C31217  10.018   6.509   2.688 -0.6340  0.9895  0.3773
  237MOL0     C31218   9.894   6.470   2.731  0.0126 -0.2188  0.6157
  237MOL0     H31219   9.474   6.124   2.557  2.7016  3.6086  1.5217
  237MOL0     H31220   9.270   5.980   2.625 -0.6649  0.2368  0.8385
  237MOL0     H31221   9.140   6.028   3.001 -0.9605 -0.2951  2.9770
  237MOL0     H31222   9.233   5.899   3.072 -0.7798  0.9007  1.5823
  237MOL0     H31223   9.014   5.828   3.130 -0.1818 -1.7022 -0.6311
  237MOL0     H31224   9.054   5.740   2.983  4.7624  1.5702 -1.5434
  237MOL0     H31225   8.941   5.923   2.863  1.3927 -1.2501 -0.3118
  237MOL0     H31226   8.921   6.009   3.024  2.2348  0.2023 -1.1677
  237MOL0     H31227   8.811   5.734   2.942 -1.8136 -0.5071  0.6979
  237MOL0     H31228   8.764   5.830   3.089 -1.0223  1.7598 -0.5919
  237MOL0     H31229   8.708   5.943   2.812  0.3988 -0.5485  0.3234
  237MOL0     H31230   8.647   5.995   2.968 -1.3115 -3.2611  3.7120
  237MOL0     H31231   8.511   5.795   2.994 -1.8439 -1.0530 -0.9634
  237MOL0     H31232   8.584   5.713   2.856  4.1304  1.2484 -0.7723
  237MOL0     H31233   8.484   5.895   2.706 -0.7449 -0.0687 -0.1165
  237MOL0     H31234   8.378   5.795   2.793 -0.7209  1.2658 -1.1825
  237MOL0     H31235   8.458   6.094   2.837  0.2495 -0.1131  0.7173
  237MOL0     H31236   8.384   5.995   2.975 -0.5870  0.0194 -0.2691
  237MOL0     H31237   8.192   6.146   3.012 -1.6607  0.3988  0.1072
  237MOL0     H31238   7.873   6.150   2.782 -0.0313 -0.8535  1.0714
  237MOL0     H31239   7.937   6.288   2.865  1.2835  0.0629 -1.3185
  237MOL0     H31240   7.911   6.180   3.085 -3.6613  1.6667  1.9101
  237MOL0     H31241   7.846   6.034   3.018 -0.6860 -0.2287  1.3137
  237MOL0     H31242   7.696   6.223   3.116  1.6417  0.2623 -0.3477
  237MOL0     H31243   7.717   6.307   2.957  0.3474 -0.3910 -0.4991
  237MOL0     H31244   7.626   6.019   2.950 -3.1825 -0.6241 -1.8440
  237MOL0     H31245   7.620   6.146   2.829 -1.3304  2.1973  0.8872
  237MOL0     H31246   7.445   6.042   2.744  0.9574 -1.9427  2.9072
  237MOL0     H31247   7.229   5.983   2.653  0.3918 -0.9567  0.5951
  237MOL0     H31248   6.767   6.304   2.769 -2.9334  2.0293 -2.0736
  237MOL0     H31249   6.556   6.343   2.641  2.2895  1.4979  2.9217
  237MOL0     H31250   6.287   6.320   2.592  0.7614 -0.2766 -1.7307
  237MOL0     H31251   6.297   6.235   2.742 -1.0694  1.4304 -0.4552
  237MOL0     H31252   6.154   6.055   2.640  2.8670  0.4402  0.9225
  237MOL0     H31253   6.131   6.161   2.501  2.0934  1.8184 -0.3079
  237MOL0     H31254   6.063   6.340   2.695  2.4785 -0.6682 -2.9040
  237MOL0     H31255   6.081   6.216   2.799  1.0353  0.8206  0.0690
  237MOL0     H31256   5.853   6.216   2.579 -0.7622  3.2821  1.9566
  237MOL0     H31257   5.898   6.076   2.664  1.2424  0.8328 -0.8181
  237MOL0     H31258   5.771   6.331   2.752 -1.2049  0.1544  2.4897
  237MOL0     H31259   5.865   6.247   2.867  3.0702  1.2911 -2.0209
  237MOL0     H31260   5.620   6.120   2.739  0.2263 -0.3054  0.0477
  237MOL0     H31261   5.636   6.193   2.900  0.2587  2.0674 -1.3682
  237MOL0     H31262   5.755   5.935   2.797 -0.8029  0.8123 -0.6983
  237MOL0     H31263   5.848   6.021   2.922  0.2295 -3.6727  0.8045
  237MOL0     H31264   5.624   6.043   3.045  2.3776  0.7620  0.1302
  237MOL0     H31265   5.703   5.883   3.030 -1.3959 -0.6298  0.9670
  237MOL0     H31266   6.486   5.914   2.631 -1.4015  2.6429 -1.3814
  237MOL0     H31267   6.710   5.879   2.732  0.5315  0.6756  2.1437
  237MOL0     H31268   7.038   6.111   3.012 -0.6847 -0.9925 -1.2261
  237MOL0     H31269   7.253   6.182   3.106 -0.6173  0.7886  0.0737
  237MOL0     H31270   9.409   5.980   3.029 -2.0699 -0.6062  0.5933
  237MOL0     H31271   9.612   6.105   2.959  0.4232 -2.7012  0.3857
  237MOL0     H31272   9.890   6.158   2.597  2.0448 -0.7766 -0.1028
  237MOL0     H31273  10.097   6.241   2.511  1.6780  0.3659  1.3978
  237MOL0     H31274  10.237   6.390   2.382  1.6548 -0.6813 -0.1594
  237MOL0     H31275  10.329   6.341   2.529  3.7141  0.8466 -0.7008
  237MOL0     H31276  10.387   6.603   2.374 -1.0850  0.5072 -0.0609
  237MOL0     H31277  10.445   6.543   2.520  2.3642  0.2212 -0.6707
  237MOL0     H31278  10.480   6.388   2.248  1.1022  2.1446 -1.6170
  237MOL0     H31279  10.538   6.329   2.393 -1.8679 -0.9970 -0.1493
  237MOL0     H31280  10.693   6.457   2.219  1.4864  0.4105  0.5961
  237MOL0     H31281  10.626   6.614   2.289  2.9187  0.6724  1.9758
  237MOL0     H31282  10.875   6.502   2.597  2.0886  0.4108 -0.9028
  237MOL0     H31283  10.061   6.607   2.706  1.5376  0.4103 -1.1782
  237MOL0     H31284   9.833   6.530   2.798  1.9689  1.9321  0.6033
  238MOL0     O31285  10.785   2.993   1.874 -0.0777  0.6022 -1.0146
  238MOL0     C31286  10.845   2.898   1.821 -0.5249 -0.2623  0.4392
  238MOL0     O31287  10.789   2.804   1.739 -0.4793 -0.0703  0.1865
  238MOL0     C31288  10.664   2.836   1.699 -0.1663 -0.6617  0.0035
  238MOL0     C31289  10.561   2.753   1.722 -0.7040  1.1810 -0.1814
  238MOL0     C31290  10.430   2.776   1.675  0.2963  0.2360  0.4513
  238MOL0     C31291  10.395   2.880   1.596 -0.4168  0.9661  0.1431
  238MOL0     O31292  10.264   2.890   1.566  0.0562  0.8062 -1.0170
  238MOL0     C31293  10.217   2.981   1.472  0.6625 -1.7636 -0.1095
  238MOL0     C31294  10.156   2.903   1.360  0.4170 -0.6678 -0.6548
  238MOL0     C31295  10.094   2.992   1.258 -0.6771 -0.0490  0.5421
  238MOL0     C31296  10.018   2.908   1.156  0.2691 -0.7272  0.4189
  238MOL0     C31297   9.988   2.973   1.022  0.1962  0.2663  0.0787
  238MOL0     C31298   9.933   3.116   1.038 -0.4306  0.2542  0.1551
  238MOL0     C31299   9.875   3.160   0.897 -0.2980 -0.3802 -0.8482
  238MOL0     C31300   9.722   3.140   0.890  0.6387  0.6607 -0.1744
  238MOL0     N31301   9.671   3.203   0.772  0.1094 -1.0908 -0.0844
  238MOL0     C31302   9.668   3.337   0.734 -0.0728  0.1177 -0.2946
  238MOL0     C31303   9.608   3.341   0.610  0.2971  0.0103  0.5938
  238MOL0     C31304   9.547   3.459   0.537  0.5594  0.6381 -0.6742
  238MOL0     C31305   9.520   3.435   0.383 -0.3977  0.0014 -0.3615
  238MOL0     C31306   9.649   3.461   0.305 -0.0615  0.8284 -0.1214
  238MOL0     C31307   9.739   3.339   0.301 -0.5615 -0.5298 -0.5504
  238MOL0     O31308   9.854   3.363   0.223 -0.0445  0.1588  0.0728
  238MOL0     C31309   9.954   3.275   0.242  0.5317 -0.7119 -0.2326
  238MOL0     C31310  10.086   3.326   0.240 -0.4194  0.1180 -0.0109
  238MOL0     C31311  10.198   3.242   0.268 -0.0772  0.1537 -0.1589
  238MOL0     C31312  10.181   3.103   0.271 -0.2416 -0.1699 -0.0015
  238MOL0     C31313  10.291   3.009   0.282 -0.8995 -0.0544  0.0658
  238MOL0     O31314  10.413   3.063   0.272  0.1046 -0.0905  0.4215
  238MOL0     C31315  10.533   2.994   0.264  0.0212 -0.0823 -0.4949
  238MOL0     C31316  10.562   2.865   0.328  0.0377  0.3472  0.3237
  238MOL0     C31317  10.695   2.825   0.337  0.7775  0.1076 -0.5995
  238MOL0     C31318  10.799   2.887   0.277 -0.2050  0.4225 -0.0052
  238MOL0     O31319  10.927   2.832   0.294 -0.3148  0.1322  0.4433
  238MOL0     C31320  11.035   2.920   0.297  0.0914 -0.6699 -0.5857
  238MOL0     C31321  11.147   2.842   0.357  0.7685  0.1276 -0.0653
  238MOL0     C31322  11.288   2.920   0.355  0.1677  0.0967 -0.2804
  238MOL0     C31323  11.335   2.975   0.223  0.6549  0.3368  0.0960
  238MOL0     C31324  11.479   3.001   0.229  0.1539 -0.2709 -0.2238
  238MOL0     C31325  11.541   3.022   0.087 -0.1716 -0.0229 -0.2546
  238MOL0     C31326  11.647   2.921   0.051  1.0389 -0.7283  0.8597
  238MOL0     C31327  11.789   2.983   0.032 -0.4681  0.6599 -0.1768
  238MOL0    Cl31328  11.783   3.117  -0.102  0.4820 -0.0722 -0.0817
  238MOL0     C31329  10.776   3.003   0.211  0.2622 -0.3192  0.0869
  238MOL0     C31330  10.647   3.060   0.218  0.2718 -0.9156  0.0675
  238MOL0     O31331  10.272   2.888   0.291 -0.0047  0.4733 -0.3899
  238MOL0     C31332  10.046   3.053   0.274 -0.5330 -0.1587 -0.7244
  238MOL0     C31333   9.939   3.137   0.255  0.7860 -0.6568 -0.4187
  238MOL0     N31334   9.577   3.210   0.573 -0.5842 -0.3813  0.3579
  238MOL0     N31335   9.623   3.134   0.671  0.7012  0.1671 -0.0765
  238MOL0     C31336  10.507   2.966   1.572  0.5737  0.3909 -0.0839
  238MOL0     C31337  10.637   2.946   1.621  1.1607 -0.1864  0.7975
  238MOL0     C31338  10.981   2.887   1.873  0.1608 -0.4271 -0.1237
  238MOL0     C31339  11.064   2.787   1.821  0.0715  0.2112 -0.3514
  238MOL0     C31340  11.191   2.769   1.867 -0.6495  0.1852  0.6657
  238MOL0     C31341  11.247   2.838   1.975 -0.4034 -0.8764  0.4371
  238MOL0     O31342  11.370   2.829   2.039  0.2700  0.3455 -0.2024
  238MOL0     C31343  11.476   2.796   1.950 -0.6230 -0.3920  0.0282
  238MOL0     C31344  11.615   2.818   2.006 -0.4157  0.7319 -0.0165
  238MOL0     C31345  11.627   2.963   2.066 -0.0947  0.5183 -0.5819
  238MOL0     C31346  11.773   3.014   2.062 -0.8965 -0.5671  0.6832
  238MOL0     C31347  11.774   3.155   2.017 -0.0486 -1.0767 -0.0656
  238MOL0     C31348  11.776   3.274   1.990  0.3293  1.2647 -0.2786
  238MOL0     C31349  11.163   2.943   2.034  0.7090  0.2609  0.9461
  238MOL0     C31350  11.036   2.964   1.982 -1.1515 -0.0424 -0.0333
  238MOL0     H31351  10.582   2.662   1.776 -0.0331  1.1418 -0.4976
  238MOL0     H31352  10.358   2.696   1.692  1.8149 -2.2430 -3.2996
  238MOL0     H31353  10.288   3.052   1.428 -0.4076  0.0057  0.8975
  238MOL0     H31354  10.146   3.047   1.523  1.5831 -0.9315  0.1463
  238MOL0     H31355  10.074   2.840   1.395  0.6357 -1.7346 -1.9900
  238MOL0     H31356  10.236   2.842   1.316  1.3054 -1.1524  1.4866
  238MOL0     H31357  10.165   3.049   1.198 -0.2604  0.2282  1.2937
  238MOL0     H31358  10.025   3.066   1.300  1.0167  2.1395 -0.3277
  238MOL0     H31359  10.082   2.824   1.130  1.1548  0.2591 -0.7127
  238MOL0     H31360   9.923   2.876   1.201 -1.0961  0.0756 -1.6938
  238MOL0     H31361   9.908   2.918   0.972 -0.5072  2.4404 -1.3439
  238MOL0     H31362  10.075   2.967   0.956  0.2752 -0.8274  0.2589
  238MOL0     H31363  10.018   3.178   1.067 -1.3196  1.0906  1.0800
  238MOL0     H31364   9.859   3.131   1.118  0.7635 -2.1047  1.8511
  238MOL0     H31365   9.887   3.269   0.889 -2.1982 -0.2054 -2.2077
  238MOL0     H31366   9.935   3.120   0.815  0.4627  0.2573 -0.6117
  238MOL0     H31367   9.680   3.187   0.980  0.3980 -1.7084  1.0477
  238MOL0     H31368   9.684   3.038   0.885 -4.8297  2.4232 -1.7062
  238MOL0     H31369   9.693   3.418   0.803  2.1966  0.2379 -1.1707
  238MOL0     H31370   9.603   3.551   0.556  0.8499  0.3797 -0.2454
  238MOL0     H31371   9.454   3.473   0.594  0.7742  1.4125 -0.5007
  238MOL0     H31372   9.446   3.510   0.352 -0.2573  0.7542  1.0517
  238MOL0     H31373   9.474   3.339   0.359 -3.0067  0.9430  0.5519
  238MOL0     H31374   9.618   3.472   0.201 -1.5282  0.3830  0.2474
  238MOL0     H31375   9.693   3.554   0.343  0.0994  0.6136  0.2251
  238MOL0     H31376   9.673   3.258   0.268 -0.7230 -0.0410 -1.4620
  238MOL0     H31377   9.758   3.315   0.406 -1.5168 -0.8581 -0.4412
  238MOL0     H31378  10.106   3.431   0.221  0.8558  0.1974  1.5750
  238MOL0     H31379  10.297   3.282   0.285 -0.2020  1.0555 -1.4142
  238MOL0     H31380  10.480   2.804   0.365 -0.5361  1.9648  1.8734
  238MOL0     H31381  10.714   2.739   0.400  1.0217  1.4314  1.2217
  238MOL0     H31382  11.013   2.997   0.372  1.1889 -0.8346 -0.0855
  238MOL0     H31383  11.073   2.956   0.201 -3.1698  0.9641 -1.4321
  238MOL0     H31384  11.166   2.751   0.300  0.1683  1.4490 -2.4775
  238MOL0     H31385  11.124   2.824   0.463 -2.4146 -0.0669 -0.7078
  238MOL0     H31386  11.356   2.846   0.398  1.5160  0.4512 -1.7414
  238MOL0     H31387  11.277   3.001   0.428 -2.9922  0.1005 -0.6031
  238MOL0     H31388  11.319   2.898   0.147  1.6952 -0.2464  0.4528
  238MOL0     H31389  11.288   3.071   0.200 -0.6313 -0.5412 -1.1398
  238MOL0     H31390  11.521   2.921   0.291 -0.8325  1.0327  2.2788
  238MOL0     H31391  11.493   3.096   0.281  0.5067  0.5547 -1.7496
  238MOL0     H31392  11.576   3.124   0.070  1.8153 -0.6620 -0.2661
  238MOL0     H31393  11.455   3.024   0.020 -2.7761  2.3181  2.8415
  238MOL0     H31394  11.658   2.847   0.130 -0.6230 -0.0552  1.7673
  238MOL0     H31395  11.618   2.886  -0.048 -1.3824 -0.3097  1.3677
  238MOL0     H31396  11.857   2.901   0.008 -1.2367  0.2994 -1.1707
  238MOL0     H31397  11.807   3.031   0.129 -0.2972  0.0858  0.0810
  238MOL0     H31398  10.848   3.059   0.152 -1.2303  1.0109 -0.5571
  238MOL0     H31399  10.632   3.162   0.183 -1.9796 -1.0100  0.6156
  238MOL0     H31400  10.024   2.948   0.290  1.7315 -0.3428  1.8422
  238MOL0     H31401   9.839   3.098   0.271  0.5928  0.8371  2.4601
  238MOL0     H31402  10.479   3.061   1.528  1.2939  1.9418  2.5845
  238MOL0     H31403  10.718   3.002   1.574  0.7552 -0.4163 -0.1962
  238MOL0     H31404  11.026   2.726   1.739 -0.3195  0.3119 -0.2481
  238MOL0     H31405  11.241   2.678   1.837  0.0846  0.2654  1.6023
  238MOL0     H31406  11.478   2.857   1.859  3.3270  0.6388  0.6075
  238MOL0     H31407  11.467   2.692   1.917 -3.8666 -0.4693  0.8137
  238MOL0     H31408  11.645   2.747   2.083 -4.0777 -0.2713  0.6369
  238MOL0     H31409  11.692   2.801   1.929 -1.2366 -0.9810 -0.5027
  238MOL0     H31410  11.584   2.966   2.167 -1.5138  2.4708 -1.1717
  238MOL0     H31411  11.566   3.032   2.007  0.0711  1.0045 -0.1930
  238MOL0     H31412  11.817   2.997   2.161  0.1789 -0.6577  0.1934
  238MOL0     H31413  11.824   2.953   1.987 -0.1652  1.8564 -0.8678
  238MOL0     H31414  11.770   3.376   1.959 -0.4265  0.8164 -1.7466
  238MOL0     H31415  11.201   3.014   2.107 -0.0975  2.3064 -0.5223
  238MOL0     H31416  10.979   3.048   2.021  0.5188  0.2159  2.0256
  239MOL0     O31417   7.068   5.529   4.102  0.3132  0.7873  0.0766
  239MOL0     C31418   7.078   5.645   4.068  0.3480 -0.6527  0.5431
  239MOL0     O31419   6.972   5.724   4.020  0.2275 -0.7001 -0.6149
  239MOL0     C31420   6.843   5.697   4.028  0.1113  0.5083 -0.6530
  239MOL0     C31421   6.766   5.760   3.934  0.8797  0.6123 -0.1297
  239MOL0     C31422   6.623   5.745   3.941 -0.2768  0.0021  0.5613
  239MOL0     C31423   6.560   5.661   4.033 -0.3255 -0.1796  0.8119
  239MOL0     O31424   6.425   5.652   4.025  0.3545 -0.0267 -0.1298
  239MOL0     C31425   6.356   5.534   4.069 -0.3541  0.2415  0.2209
  239MOL0     C31426   6.206   5.557   4.047 -0.5411  0.1436 -0.2893
  239MOL0     C31427   6.134   5.452   4.133 -0.7517 -0.3111  0.9523
  239MOL0     C31428   6.000   5.509   4.169 -0.6007 -0.3147  0.0755
  239MOL0     C31429   5.905   5.402   4.229 -0.3833 -0.3046 -0.4994
  239MOL0     C31430   5.764   5.469   4.255  0.1252 -0.1608  0.0782
  239MOL0     C31431   5.670   5.386   4.328 -0.1226  0.2076  0.2349
  239MOL0     C31432   5.544   5.460   4.375  1.0232  0.3763  0.0407
  239MOL0     N31433   5.455   5.356   4.422 -0.5364  0.3733 -0.1197
  239MOL0     C31434   5.335   5.322   4.367  0.0101 -0.5758 -0.1382
  239MOL0     C31435   5.300   5.215   4.450 -0.6664 -1.0051  0.3280
  239MOL0     C31436   5.186   5.122   4.431  0.3097  0.2884 -0.9353
  239MOL0     C31437   5.203   4.972   4.489 -0.3923  0.0452 -0.4996
  239MOL0     C31438   5.076   4.889   4.452 -0.2107 -0.0030  0.3214
  239MOL0     C31439   5.084   4.753   4.517 -0.9870 -0.2545  0.1828
  239MOL0     O31440   5.003   4.656   4.455  0.2310 -0.8241  0.8250
  239MOL0     C31441   4.868   4.658   4.466  0.4610  0.3771  0.4597
  239MOL0     C31442   4.791   4.708   4.569  1.2351  0.1557 -0.0163
  239MOL0     C31443   4.650   4.701   4.568  0.7063 -0.2131  0.4775
  239MOL0     C31444   4.578   4.632   4.469 -0.1092  0.3086 -0.8297
  239MOL0     C31445   4.437   4.612   4.484 -0.3529  0.0591 -0.8941
  239MOL0     O31446   4.361   4.598   4.371 -0.0898  0.5408 -0.6240
  239MOL0     C31447   4.224   4.578   4.376  0.6949 -0.8366 -0.0468
  239MOL0     C31448   4.149   4.585   4.256 -0.6902 -0.5159 -0.3088
  239MOL0     C31449   4.007   4.571   4.252  0.5209 -0.4365  0.5013
  239MOL0     C31450   3.937   4.544   4.367  0.9525 -0.6599  0.7372
  239MOL0     O31451   3.802   4.523   4.346 -0.0578 -0.0021 -0.3002
  239MOL0     C31452   3.729   4.469   4.454  0.4854 -0.0280 -0.6916
  239MOL0     C31453   3.591   4.427   4.401  0.1724 -0.3004  0.4408
  239MOL0     C31454   3.482   4.368   4.496 -0.0467 -0.2313 -0.2770
  239MOL0     C31455   3.352   4.346   4.425  0.3327 -0.4570 -0.4050
  239MOL0     C31456   3.254   4.268   4.518  0.3428  0.0105  0.4516
  239MOL0     C31457   3.110   4.258   4.451  0.3179 -0.2083  0.5059
  239MOL0     C31458   3.113   4.186   4.319 -0.0061  0.2795 -0.5048
  239MOL0     C31459   2.976   4.160   4.264  0.0704  0.0385 -0.2216
  239MOL0    Cl31460   2.990   4.042   4.129  0.6801  0.3452  0.0272
  239MOL0     C31461   4.007   4.542   4.486 -0.1268  0.0684 -0.3079
  239MOL0     C31462   4.149   4.560   4.494 -0.2484  0.3994 -0.2977
  239MOL0     O31463   4.401   4.619   4.603  0.4490 -0.2779  0.5923
  239MOL0     C31464   4.656   4.581   4.358  0.2688  0.1801 -0.1331
  239MOL0     C31465   4.801   4.597   4.362 -0.2069  0.2651 -0.0631
  239MOL0     N31466   5.401   5.193   4.549 -0.1174  0.4697  0.6760
  239MOL0     N31467   5.484   5.289   4.535  0.0294 -0.0414 -0.5428
  239MOL0     C31468   6.644   5.591   4.129  0.3823  0.5944  0.8788
  239MOL0     C31469   6.784   5.606   4.121 -0.2296  0.5091 -0.4533
  239MOL0     C31470   7.216   5.687   4.044 -0.0675  0.9161  0.7960
  239MOL0     C31471   7.321   5.618   4.105  0.8101  0.2242  0.4784
  239MOL0     C31472   7.445   5.637   4.072 -0.8432 -0.6888 -0.1733
  239MOL0     C31473   7.485   5.733   3.979 -0.7028 -0.3460  0.9834
  239MOL0     O31474   7.615   5.763   3.929 -0.2818 -0.4613 -0.1511
  239MOL0     C31475   7.711   5.764   4.036 -0.1242  0.1294  0.1388
  239MOL0     C31476   7.794   5.639   4.029 -0.9578 -0.2606 -0.2106
  239MOL0     C31477   7.925   5.653   3.948 -0.2392  0.7640 -0.3021
  239MOL0     C31478   7.991   5.517   3.912  0.2296  0.6537 -1.1191
  239MOL0     C31479   8.065   5.457   4.031 -0.2749  1.3745 -0.1610
  239MOL0     C31480   8.113   5.380   4.108 -0.7250  0.5752 -0.6397
  239MOL0     C31481   7.381   5.807   3.918  0.8353 -0.1246 -0.4324
  239MOL0     C31482   7.244   5.787   3.942  0.2756  0.7983  0.2472
  239MOL0     H31483   6.812   5.826   3.861 -3.5413  1.4287 -2.6023
  239MOL0     H31484   6.567   5.805   3.871  0.7951  0.6966  0.2721
  239MOL0     H31485   6.375   5.504   4.172 -0.9107 -1.2212 -0.0805
  239MOL0     H31486   6.394   5.451   4.010 -1.1662 -1.0453  1.4424
  239MOL0     H31487   6.179   5.560   3.942  0.8050 -1.5251 -0.7353
  239MOL0     H31488   6.180   5.658   4.078  3.5917  1.4754 -0.4644
  239MOL0     H31489   6.186   5.437   4.228  0.6987  2.6968  0.7339
  239MOL0     H31490   6.132   5.357   4.077 -0.9245  0.5393 -0.5402
  239MOL0     H31491   5.995   5.595   4.237 -0.2651 -1.9327  2.2823
  239MOL0     H31492   5.962   5.553   4.077  3.4093 -1.7436 -2.5318
  239MOL0     H31493   5.944   5.371   4.326  0.7305  3.0192  0.2278
  239MOL0     H31494   5.894   5.320   4.157 -1.7202 -1.8902  1.3924
  239MOL0     H31495   5.719   5.493   4.158  2.4340  3.9159 -0.2202
  239MOL0     H31496   5.771   5.565   4.307  0.7901 -0.0431 -0.2173
  239MOL0     H31497   5.639   5.302   4.264  0.8293  0.9862 -1.3195
  239MOL0     H31498   5.724   5.344   4.414 -1.8656 -1.4032  0.6056
  239MOL0     H31499   5.500   5.506   4.286  0.9442  3.2812  1.4679
  239MOL0     H31500   5.566   5.538   4.448  2.6866  2.1852 -2.2239
  239MOL0     H31501   5.296   5.362   4.273  3.4796  0.4648 -1.2911
  239MOL0     H31502   5.148   5.104   4.330 -0.9263 -2.6169 -0.0740
  239MOL0     H31503   5.103   5.164   4.489 -0.0785 -0.1289 -1.1772
  239MOL0     H31504   5.218   4.977   4.597  0.9371  4.8865 -0.6976
  239MOL0     H31505   5.299   4.941   4.447  0.1174  0.4668  0.3223
  239MOL0     H31506   4.981   4.939   4.470 -0.5036  0.0102 -1.1310
  239MOL0     H31507   5.073   4.887   4.342 -0.8605  0.6658  0.3266
  239MOL0     H31508   5.061   4.760   4.624  3.6251  0.4350  1.3357
  239MOL0     H31509   5.188   4.718   4.515 -0.5088  1.1061  0.6836
  239MOL0     H31510   4.846   4.754   4.651 -0.6791 -1.9762  2.6310
  239MOL0     H31511   4.610   4.749   4.657  1.0462 -2.2254  1.8007
  239MOL0     H31512   4.197   4.597   4.159 -1.2480  0.6640 -0.4569
  239MOL0     H31513   3.963   4.573   4.153  0.0488  3.8854  0.6093
  239MOL0     H31514   3.719   4.541   4.536 -0.4247 -0.6899 -0.2063
  239MOL0     H31515   3.777   4.379   4.495 -2.8768 -1.9183 -0.5022
  239MOL0     H31516   3.603   4.351   4.323  2.4449 -0.3721  0.7919
  239MOL0     H31517   3.557   4.521   4.355  0.6650  1.0446  2.6750
  239MOL0     H31518   3.476   4.441   4.577  2.8981  0.1826 -0.3332
  239MOL0     H31519   3.512   4.273   4.542  1.6844 -0.5027 -1.8709
  239MOL0     H31520   3.307   4.444   4.406  1.1765  0.6138  2.5155
  239MOL0     H31521   3.373   4.297   4.330  2.3551  1.2851 -0.9226
  239MOL0     H31522   3.248   4.297   4.623  0.8939 -1.1291  0.8112
  239MOL0     H31523   3.291   4.165   4.506  1.7697  0.4325  1.0065
  239MOL0     H31524   3.062   4.356   4.445 -1.5178 -1.1630 -2.0039
  239MOL0     H31525   3.044   4.191   4.507  0.0050 -2.6386 -2.5007
  239MOL0     H31526   3.162   4.241   4.238 -1.1565 -0.3628 -1.6678
  239MOL0     H31527   3.158   4.087   4.324 -0.3179  0.1855  0.8272
  239MOL0     H31528   2.941   4.257   4.226 -1.2295  0.0009  0.8151
  239MOL0     H31529   2.896   4.129   4.331 -2.1072 -0.7148 -2.9826
  239MOL0     H31530   3.959   4.541   4.583 -0.8195 -1.3619 -0.6539
  239MOL0     H31531   4.189   4.567   4.594  1.4375  2.9098 -1.0449
  239MOL0     H31532   4.621   4.528   4.270 -2.1748  0.8166  0.3843
  239MOL0     H31533   4.860   4.553   4.283 -0.0145 -1.1735  0.8502
  239MOL0     H31534   6.594   5.539   4.209 -0.4294  2.3944  1.6035
  239MOL0     H31535   6.844   5.563   4.200 -2.4130 -0.0831  0.9882
  239MOL0     H31536   7.297   5.537   4.173  0.3170  0.1946  0.2750
  239MOL0     H31537   7.527   5.580   4.114  3.1576  4.7116  0.3918
  239MOL0     H31538   7.657   5.775   4.130  0.9494 -1.0990  0.9122
  239MOL0     H31539   7.773   5.854   4.032  0.7205 -0.4673 -2.5106
  239MOL0     H31540   7.815   5.591   4.126 -2.0106 -1.1312 -0.3974
  239MOL0     H31541   7.730   5.562   3.985 -0.6987 -0.2016 -0.6966
  239MOL0     H31542   7.996   5.708   4.011 -1.9277  1.3649  1.1792
  239MOL0     H31543   7.907   5.708   3.855  0.0198  2.1024  0.4111
  239MOL0     H31544   7.923   5.439   3.877 -1.6323  0.8113  1.7505
  239MOL0     H31545   8.074   5.538   3.845  1.9040  0.3711  0.7579
  239MOL0     H31546   8.164   5.311   4.172  0.8387 -1.5093 -3.8684
  239MOL0     H31547   7.410   5.873   3.837  0.9945 -1.0371 -1.1455
  239MOL0     H31548   7.166   5.853   3.906 -0.0226  1.1013  1.4022
  240MOL0     O31549   4.466   5.530   4.898 -0.7892 -0.3612 -0.0082
  240MOL0     C31550   4.438   5.641   4.846 -0.5746  0.2953  0.5977
  240MOL0     O31551   4.319   5.686   4.815  0.8163  0.3577 -0.2348
  240MOL0     C31552   4.203   5.618   4.807  0.0798  0.6518 -0.5936
  240MOL0     C31553   4.109   5.646   4.714  0.6729  0.0431  0.1221
  240MOL0     C31554   3.973   5.590   4.727 -0.9632 -0.0209  0.7519
  240MOL0     C31555   3.929   5.494   4.823 -1.1305  0.0717  0.0339
  240MOL0     O31556   3.807   5.431   4.815  1.2100 -1.0152 -0.2740
  240MOL0     C31557   3.733   5.458   4.934  0.0470 -0.2444  0.0916
  240MOL0     C31558   3.594   5.404   4.917  0.2688  0.0958  0.4520
  240MOL0     C31559   3.507   5.468   5.022 -0.3069  0.6782 -0.1673
  240MOL0     C31560   3.359   5.408   5.026 -0.1415 -0.6782 -0.3974
  240MOL0     C31561   3.300   5.437   5.170  0.4240  0.1913 -0.4182
  240MOL0     C31562   3.205   5.315   5.199  0.6650 -1.0041  0.0372
  240MOL0     C31563   3.145   5.319   5.343 -0.8183 -0.7692 -0.5376
  240MOL0     C31564   3.250   5.289   5.454  0.5624 -0.2046  0.2901
  240MOL0     N31565   3.184   5.298   5.586 -0.3142 -0.2147  0.2361
  240MOL0     C31566   3.057   5.253   5.610  0.7887 -0.5537  0.1645
  240MOL0     C31567   3.034   5.286   5.736  0.3077  0.3126  1.1052
  240MOL0     C31568   2.915   5.253   5.816  0.4894 -0.2650  0.1404
  240MOL0     C31569   2.875   5.371   5.898  0.3126  0.1429 -0.4396
  240MOL0     C31570   2.731   5.356   5.960  0.6508  0.2370 -0.1396
  240MOL0     C31571   2.693   5.481   6.027  0.4856  0.1490  0.2089
  240MOL0     O31572   2.558   5.467   6.086 -0.4512  0.2005 -0.3209
  240MOL0     C31573   2.453   5.478   6.005  0.6065 -0.5569 -0.5471
  240MOL0     C31574   2.382   5.367   5.947 -0.1058  0.5215 -1.1617
  240MOL0     C31575   2.269   5.378   5.872 -0.7368  0.0260 -0.0157
  240MOL0     C31576   2.217   5.502   5.840 -0.6631  0.6360  0.5975
  240MOL0     C31577   2.084   5.497   5.777 -0.3747 -0.4242  0.9215
  240MOL0     O31578   2.000   5.388   5.790  0.5909  0.1604  0.4866
  240MOL0     C31579   1.870   5.381   5.738 -0.4573 -0.8634 -0.2344
  240MOL0     C31580   1.777   5.477   5.776 -0.5024 -0.7929  0.6389
  240MOL0     C31581   1.646   5.449   5.772  0.7307 -0.4061 -0.4112
  240MOL0     C31582   1.594   5.327   5.729  0.4615 -0.3762 -0.2938
  240MOL0     O31583   1.458   5.306   5.716 -0.4591 -0.3378  0.2770
  240MOL0     C31584   1.409   5.193   5.636 -0.2417  0.3488 -0.2351
  240MOL0     C31585   1.268   5.217   5.586 -0.1104  1.0075 -0.0402
  240MOL0     C31586   1.154   5.214   5.690 -0.2702  0.4463  0.2314
  240MOL0     C31587   1.024   5.287   5.661 -0.3362  0.0198 -0.0904
  240MOL0     C31588   0.916   5.262   5.767 -0.0444  0.2224 -0.1919
  240MOL0     C31589   0.859   5.125   5.747  0.3401  0.0560  0.8166
  240MOL0     C31590   0.713   5.129   5.769  0.7038 -0.0102 -0.8081
  240MOL0     C31591   0.676   4.974   5.773  0.8744  0.4186 -0.0989
  240MOL0    Cl31592   0.500   4.933   5.793  0.0129 -0.1232 -0.3299
  240MOL0     C31593   1.687   5.224   5.692 -1.6436 -0.4310 -0.2765
  240MOL0     C31594   1.826   5.249   5.692  0.1073 -1.2650  1.0696
  240MOL0     O31595   2.052   5.599   5.710  0.4324  0.3689  0.2159
  240MOL0     C31596   2.284   5.615   5.883 -0.2206  0.4117 -0.4530
  240MOL0     C31597   2.407   5.603   5.965  0.5593  0.4211  0.9691
  240MOL0     N31598   3.138   5.342   5.780  0.1297 -0.5805 -0.0039
  240MOL0     N31599   3.231   5.356   5.702  0.2622  0.1520 -0.2175
  240MOL0     C31600   4.035   5.456   4.907 -0.2540  0.0988 -0.3456
  240MOL0     C31601   4.168   5.517   4.904  0.0914 -0.1418  0.1820
  240MOL0     C31602   4.550   5.741   4.824 -0.3974  0.2744  0.7148
  240MOL0     C31603   4.526   5.873   4.773  0.9391  1.1698 -0.1656
  240MOL0     C31604   4.627   5.958   4.766 -0.3459  0.0123 -0.0505
  240MOL0     C31605   4.759   5.921   4.806 -0.4415 -0.6601  0.7234
  240MOL0     O31606   4.856   6.021   4.791  0.1258  0.1157  0.5819
  240MOL0     C31607   4.858   6.126   4.888  0.3814  0.4645 -0.6338
  240MOL0     C31608   5.000   6.166   4.923 -0.5490  0.4845  0.1021
  240MOL0     C31609   5.099   6.056   4.946  1.1134 -0.0919 -0.0687
  240MOL0     C31610   5.072   5.987   5.080 -0.5284 -0.6932 -0.1563
  240MOL0     C31611   5.063   6.074   5.200 -0.0290 -0.1404  0.5579
  240MOL0     C31612   5.042   6.154   5.292 -0.2743  0.1247  0.5636
  240MOL0     C31613   4.782   5.798   4.864  0.5287  0.7176  1.2121
  240MOL0     C31614   4.682   5.706   4.853 -0.1607 -0.3365  0.1399
  240MOL0     H31615   4.131   5.722   4.639 -4.3175  0.4190 -1.2962
  240MOL0     H31616   3.897   5.623   4.656 -1.9159 -3.4808  0.0020
  240MOL0     H31617   3.722   5.565   4.953 -1.1724  0.0711 -2.0826
  240MOL0     H31618   3.776   5.412   5.024 -0.1677  0.0037  0.3207
  240MOL0     H31619   3.606   5.295   4.923  2.4481  0.1977 -1.0327
  240MOL0     H31620   3.548   5.413   4.819  2.0637 -0.6828 -0.5107
  240MOL0     H31621   3.507   5.576   5.000  3.6126  0.4117 -2.5592
  240MOL0     H31622   3.559   5.459   5.117  0.7596 -1.2286 -0.8747
  240MOL0     H31623   3.301   5.453   4.945  0.2233  2.6424  1.0314
  240MOL0     H31624   3.363   5.299   5.015 -2.7908 -1.2287  2.5537
  240MOL0     H31625   3.244   5.531   5.163  1.8878  1.1227  0.0404
  240MOL0     H31626   3.376   5.437   5.248  0.3222  0.1353 -0.3192
  240MOL0     H31627   3.263   5.222   5.200 -1.1744 -2.2297  2.2725
  240MOL0     H31628   3.129   5.297   5.122 -1.1691 -0.3363  1.6056
  240MOL0     H31629   3.086   5.411   5.354 -0.4364 -0.3269 -1.9377
  240MOL0     H31630   3.072   5.237   5.350 -0.5489 -0.8476  3.7934
  240MOL0     H31631   3.337   5.356   5.446  0.5239 -0.2959 -1.0152
  240MOL0     H31632   3.291   5.188   5.448  2.9499  0.4175  3.2020
  240MOL0     H31633   3.001   5.191   5.541  1.9799 -0.7716 -0.6427
  240MOL0     H31634   2.920   5.160   5.873 -1.1009 -1.5440 -1.6850
  240MOL0     H31635   2.840   5.221   5.743 -0.4899  2.7516 -0.3255
  240MOL0     H31636   2.874   5.460   5.835  0.7727 -0.4518 -1.3044
  240MOL0     H31637   2.940   5.388   5.984 -4.8774 -0.9555  4.2880
  240MOL0     H31638   2.660   5.325   5.883  0.7430  1.0897 -0.5725
  240MOL0     H31639   2.731   5.282   6.041  0.8455  1.9339  1.4640
  240MOL0     H31640   2.693   5.570   5.964  0.2124  0.7134  0.9823
  240MOL0     H31641   2.770   5.507   6.100 -0.3130  1.6535  0.5621
  240MOL0     H31642   2.426   5.274   5.982 -0.7672  1.7838  3.7799
  240MOL0     H31643   2.219   5.291   5.832 -1.2376  0.8549 -1.2365
  240MOL0     H31644   1.797   5.575   5.818  0.3392 -2.4790  4.5652
  240MOL0     H31645   1.579   5.533   5.785  2.5506  0.8381  1.6697
  240MOL0     H31646   1.417   5.093   5.680 -0.0511 -0.5731 -2.2918
  240MOL0     H31647   1.473   5.182   5.549 -0.7155 -0.9657 -0.4392
  240MOL0     H31648   1.246   5.136   5.516  0.2213  2.2878 -1.6903
  240MOL0     H31649   1.255   5.303   5.519 -0.8820  0.7415 -0.2439
  240MOL0     H31650   1.194   5.259   5.781 -0.9628 -2.9566  2.4011
  240MOL0     H31651   1.133   5.108   5.702 -0.8916  0.4034 -1.0117
  240MOL0     H31652   1.053   5.392   5.651  0.6133 -0.2211  0.0268
  240MOL0     H31653   0.990   5.247   5.565  3.9279 -1.9879 -1.0283
  240MOL0     H31654   0.834   5.333   5.752  0.5039  1.4538  2.1847
  240MOL0     H31655   0.955   5.271   5.868 -3.3285  1.0277  1.1070
  240MOL0     H31656   0.911   5.055   5.813 -1.5555 -0.5936  1.6905
  240MOL0     H31657   0.879   5.087   5.646 -0.0052  2.6450 -0.3099
  240MOL0     H31658   0.685   5.180   5.862  1.0786 -2.5802  0.8576
  240MOL0     H31659   0.659   5.176   5.687 -0.3339 -2.0453 -1.3609
  240MOL0     H31660   0.716   4.932   5.866 -1.8242  2.9741  2.4794
  240MOL0     H31661   0.719   4.916   5.692  1.7003 -0.1259  0.7078
  240MOL0     H31662   1.649   5.135   5.643 -2.3758 -0.0839 -0.3520
  240MOL0     H31663   1.878   5.164   5.650  3.7586  1.4857 -0.5111
  240MOL0     H31664   2.235   5.711   5.870  1.9834  1.4702 -1.6176
  240MOL0     H31665   2.442   5.695   6.011 -1.0672  1.5287  0.1087
  240MOL0     H31666   4.029   5.378   4.983  0.3891  1.7585  1.4745
  240MOL0     H31667   4.247   5.485   4.972  1.5958 -2.1605 -2.3115
  240MOL0     H31668   4.427   5.906   4.743  1.0102 -0.3142 -2.2973
  240MOL0     H31669   4.612   6.056   4.722  0.7719  0.3094  0.2000
  240MOL0     H31670   4.801   6.092   4.975  1.9756 -1.2210 -0.1691
  240MOL0     H31671   4.798   6.207   4.847 -0.7841 -0.9342 -1.8113
  240MOL0     H31672   5.036   6.229   4.842 -1.4036 -0.1442 -0.7899
  240MOL0     H31673   4.996   6.228   5.013 -0.7793 -0.4670  0.7633
  240MOL0     H31674   5.197   6.104   4.941  1.1835 -0.3551 -2.0135
  240MOL0     H31675   5.089   5.983   4.865 -0.8339 -1.0889  1.0066
  240MOL0     H31676   4.984   5.923   5.079 -1.8885  0.9998 -3.5356
  240MOL0     H31677   5.154   5.919   5.106  0.9178  0.7533 -0.7273
  240MOL0     H31678   5.038   6.240   5.355  2.2153  1.8268 -1.3722
  240MOL0     H31679   4.885   5.779   4.896  1.1759  0.8537 -0.6733
  240MOL0     H31680   4.706   5.613   4.904  1.2207 -0.3662 -0.5180
  241MOL0     O31681   3.202   9.058   3.715  0.0358 -0.6876 -0.5810
  241MOL0     C31682   3.249   8.957   3.666 -0.5234  0.0865  0.2577
  241MOL0     O31683   3.173   8.860   3.610  0.6166 -0.0975 -0.2373
  241MOL0     C31684   3.041   8.870   3.590  0.0928  0.3290 -0.7018
  241MOL0     C31685   2.980   8.975   3.515  0.0207 -0.6843 -0.4466
  241MOL0     C31686   2.837   8.974   3.510 -0.2363  0.2210 -0.0994
  241MOL0     C31687   2.759   8.871   3.567  0.0539 -0.0977  0.4852
  241MOL0     O31688   2.623   8.874   3.555  0.0368 -0.3250  0.1627
  241MOL0     C31689   2.561   8.926   3.674  0.9106 -0.1191 -0.0102
  241MOL0     C31690   2.415   8.955   3.644 -0.3373 -0.8222  0.0304
  241MOL0     C31691   2.390   9.039   3.511  0.6680  0.1017 -0.2384
  241MOL0     C31692   2.236   9.065   3.506 -0.7873 -0.4117  0.0654
  241MOL0     C31693   2.206   9.127   3.364 -0.0990 -0.4313  0.7361
  241MOL0     C31694   2.065   9.178   3.362 -0.2167  0.1336  0.0498
  241MOL0     C31695   2.031   9.233   3.227  0.2253 -0.2087  0.9911
  241MOL0     C31696   1.890   9.289   3.214 -0.3412 -0.7868  0.6593
  241MOL0     N31697   1.848   9.317   3.075 -0.1897 -0.5193  0.0175
  241MOL0     C31698   1.834   9.441   3.023  0.1691 -0.4469  1.0055
  241MOL0     C31699   1.782   9.438   2.895 -0.0115  0.3649 -0.5417
  241MOL0     C31700   1.781   9.547   2.796  0.1076  0.3940  0.2168
  241MOL0     C31701   1.636   9.588   2.763 -0.2787 -0.7748  0.5404
  241MOL0     C31702   1.650   9.660   2.632 -0.1286 -1.0904  0.6122
  241MOL0     C31703   1.522   9.724   2.588 -0.1996 -0.0089  0.6269
  241MOL0     O31704   1.458   9.627   2.513  0.0364  0.0001 -0.0880
  241MOL0     C31705   1.331   9.663   2.466  0.3252  0.0020  0.0353
  241MOL0     C31706   1.296   9.676   2.333 -0.6218 -0.0059  0.0641
  241MOL0     C31707   1.174   9.723   2.299 -0.2508  0.5140  0.3472
  241MOL0     C31708   1.073   9.744   2.396 -0.5720  0.3234  0.7574
  241MOL0     C31709   0.935   9.779   2.354  0.0855 -0.2069 -0.2710
  241MOL0     O31710   0.850   9.801   2.458 -0.4954  0.8230 -0.5710
  241MOL0     C31711   0.721   9.817   2.429 -0.4486 -0.4332 -0.0347
  241MOL0     C31712   0.674   9.931   2.360  1.5863 -0.3598 -0.3690
  241MOL0     C31713   0.542   9.954   2.330  0.0638 -0.5429 -0.6114
  241MOL0     C31714   0.443   9.865   2.367 -0.3093  0.0033 -0.3145
  241MOL0     O31715   0.305   9.871   2.343 -0.0638  0.1320  0.5264
  241MOL0     C31716   0.255  10.001   2.315  0.6359  0.3641  0.3715
  241MOL0     C31717   0.105  10.011   2.288 -0.0320  0.6803  0.2421
  241MOL0     C31718   0.057  10.154   2.284 -0.1734  0.2236  0.4362
  241MOL0     C31719  -0.095  10.163   2.254  0.4741 -0.2164 -0.5113
  241MOL0     C31720  -0.174  10.081   2.345  0.2477 -0.1853  0.0100
  241MOL0     C31721  -0.325  10.092   2.310  0.7601  0.0961 -0.2325
  241MOL0     C31722  -0.405   9.994   2.398 -0.1461  0.3414 -0.2595
  241MOL0     C31723  -0.555   9.976   2.346 -0.6369  0.7676  0.2726
  241MOL0    Cl31724  -0.577   9.855   2.231  0.1599 -0.1316 -0.0558
  241MOL0     C31725   0.480   9.749   2.431 -0.9292  0.2358  0.0382
  241MOL0     C31726   0.618   9.729   2.465  0.4987  0.3889 -0.0565
  241MOL0     O31727   0.906   9.789   2.233  0.4661  0.3697 -0.4635
  241MOL0     C31728   1.104   9.712   2.525 -0.0878 -0.5374  1.2258
  241MOL0     C31729   1.232   9.676   2.564 -0.0898  1.2063 -0.1710
  241MOL0     N31730   1.763   9.299   2.877  0.1079  0.0533  0.2228
  241MOL0     N31731   1.804   9.229   2.977  0.1477 -0.0277 -0.6937
  241MOL0     C31732   2.821   8.779   3.650 -0.6347  0.4477 -0.0058
  241MOL0     C31733   2.963   8.781   3.657  0.3387 -0.0704  0.4247
  241MOL0     C31734   3.396   8.947   3.657  0.6577  0.0776 -0.5882
  241MOL0     C31735   3.452   8.826   3.601  0.4339 -0.0802  0.1495
  241MOL0     C31736   3.588   8.814   3.604 -0.1809  0.4928  0.9750
  241MOL0     C31737   3.679   8.910   3.649 -0.4046 -0.3971 -0.5550
  241MOL0     O31738   3.819   8.881   3.642  0.7237  0.2593 -0.0159
  241MOL0     C31739   3.921   8.987   3.625  0.2825 -0.0497 -0.3722
  241MOL0     C31740   4.050   8.921   3.574 -0.7082  0.1350 -0.4243
  241MOL0     C31741   4.168   9.025   3.568  0.5123 -0.4414  0.1805
  241MOL0     C31742   4.294   8.951   3.545  0.2237  0.7453 -0.9718
  241MOL0     C31743   4.400   9.053   3.540  0.0160  0.7782 -0.7779
  241MOL0     C31744   4.487   9.132   3.555  0.3795  0.1491 -0.4223
  241MOL0     C31745   3.636   9.024   3.708  0.9411  0.1590  0.1419
  241MOL0     C31746   3.491   9.045   3.705 -0.5474  0.4367  0.6525
  241MOL0     H31747   3.038   9.058   3.476  0.8364 -1.2170 -0.4054
  241MOL0     H31748   2.791   9.058   3.459 -0.0187  1.1136  1.1346
  241MOL0     H31749   2.608   9.020   3.704 -0.2872 -0.0402  1.7702
  241MOL0     H31750   2.573   8.850   3.752  0.3040  1.2500  1.4518
  241MOL0     H31751   2.379   9.013   3.730 -0.0002 -3.8058  2.3525
  241MOL0     H31752   2.356   8.863   3.640 -0.9603 -0.8788  4.7235
  241MOL0     H31753   2.420   8.986   3.420 -2.1820  2.6983 -2.9503
  241MOL0     H31754   2.459   9.123   3.514  1.1999 -0.2305 -2.0953
  241MOL0     H31755   2.176   8.976   3.524  1.0627 -1.6934  0.2021
  241MOL0     H31756   2.210   9.132   3.588  3.0158 -1.9547  2.8237
  241MOL0     H31757   2.211   9.044   3.292 -1.1728 -2.4030  2.8157
  241MOL0     H31758   2.279   9.204   3.335 -0.2916 -0.3599  0.4371
  241MOL0     H31759   2.048   9.255   3.439  0.9562 -0.2488  0.7334
  241MOL0     H31760   1.998   9.095   3.384 -0.4314  0.1482 -0.5352
  241MOL0     H31761   2.100   9.304   3.181 -0.2631 -0.6117 -0.4208
  241MOL0     H31762   2.018   9.144   3.165  0.5135 -0.6272  1.5206
  241MOL0     H31763   1.893   9.382   3.271  1.5927  0.9453 -2.0779
  241MOL0     H31764   1.819   9.219   3.260 -1.2906 -1.7359 -2.0273
  241MOL0     H31765   1.850   9.528   3.085  0.5796  0.8611 -0.8410
  241MOL0     H31766   1.830   9.516   2.704  1.0204  0.6612  0.5987
  241MOL0     H31767   1.834   9.634   2.835  1.7053  0.6195 -2.2469
  241MOL0     H31768   1.606   9.662   2.838 -0.6877 -1.6283  1.2335
  241MOL0     H31769   1.570   9.502   2.760  0.0211 -0.9792 -0.4366
  241MOL0     H31770   1.730   9.733   2.641 -1.0187 -0.0605  0.3466
  241MOL0     H31771   1.687   9.587   2.560  1.4476 -0.7490  1.0312
  241MOL0     H31772   1.547   9.798   2.512 -2.8456 -0.4427 -0.8063
  241MOL0     H31773   1.462   9.774   2.664  0.6626  3.6072 -0.8925
  241MOL0     H31774   1.371   9.665   2.255 -0.4189  0.8294  0.1402
  241MOL0     H31775   1.158   9.727   2.192 -1.1029 -1.5967  0.3409
  241MOL0     H31776   0.748  10.007   2.338  1.0354  0.7892  1.5029
  241MOL0     H31777   0.523  10.038   2.265  1.4823  1.7966  1.8092
  241MOL0     H31778   0.306  10.052   2.233 -0.4843  0.3285 -0.3609
  241MOL0     H31779   0.282  10.058   2.404 -1.0074  0.1523  1.0435
  241MOL0     H31780   0.061   9.972   2.381 -1.5350  0.0116 -0.7155
  241MOL0     H31781   0.087   9.950   2.199  1.6853 -1.7765  1.4589
  241MOL0     H31782   0.102  10.204   2.198  0.6558 -1.1349  0.0497
  241MOL0     H31783   0.092  10.209   2.371 -0.5640  1.6633 -0.2821
  241MOL0     H31784  -0.121  10.267   2.277 -1.5577 -1.3658  3.2746
  241MOL0     H31785  -0.123  10.147   2.150 -2.7361  0.5396  0.1397
  241MOL0     H31786  -0.160  10.111   2.449 -1.0985  0.7017 -0.0446
  241MOL0     H31787  -0.158   9.974   2.327  0.3336 -0.5125  1.8834
  241MOL0     H31788  -0.346  10.072   2.205 -2.4715 -1.0031  0.5104
  241MOL0     H31789  -0.356  10.194   2.331  0.3845  0.1051 -0.8152
  241MOL0     H31790  -0.357   9.896   2.404 -2.0762 -0.6041  0.2923
  241MOL0     H31791  -0.418  10.035   2.498  0.0863  1.5035 -0.6856
  241MOL0     H31792  -0.610  10.067   2.317 -2.1446 -0.6080 -1.3944
  241MOL0     H31793  -0.595   9.939   2.441  0.0381  2.3835  1.2252
  241MOL0     H31794   0.411   9.676   2.472  0.4636  0.0318  2.2255
  241MOL0     H31795   0.648   9.646   2.529 -1.5272  0.8621  1.6373
  241MOL0     H31796   1.031   9.716   2.605 -0.0562 -0.6576  1.2615
  241MOL0     H31797   1.255   9.658   2.669 -2.3981 -2.6709 -0.1407
  241MOL0     H31798   2.770   8.703   3.708  1.3487 -2.3782 -1.7393
  241MOL0     H31799   3.007   8.712   3.728 -1.9086 -2.0329  0.0329
  241MOL0     H31800   3.386   8.752   3.558  0.4504 -0.8838  1.4511
  241MOL0     H31801   3.623   8.722   3.556  1.4269  3.2103 -3.7001
  241MOL0     H31802   3.918   9.036   3.722 -1.9517  1.4718 -1.1390
  241MOL0     H31803   3.894   9.069   3.558  1.7402  0.8692  0.1175
  241MOL0     H31804   4.075   8.839   3.642 -0.7681 -0.5268 -1.1784
  241MOL0     H31805   4.028   8.881   3.475  0.7396 -1.5145 -0.1377
  241MOL0     H31806   4.172   9.063   3.671 -1.0244  0.0303  0.0836
  241MOL0     H31807   4.136   9.103   3.498  0.0190 -2.2769 -1.7174
  241MOL0     H31808   4.323   8.892   3.632  2.8424  4.2209  0.7544
  241MOL0     H31809   4.290   8.890   3.454  1.9271  1.1435 -1.3527
  241MOL0     H31810   4.567   9.201   3.576 -1.4959  3.2653 -2.6086
  241MOL0     H31811   3.689   9.105   3.758 -1.4424  2.4099 -0.7247
  241MOL0     H31812   3.465   9.143   3.745 -1.2296 -0.5333  2.7003
  242MOL0     O31813   9.454   3.007   8.220 -0.7104 -0.8777 -0.8419
  242MOL0     C31814   9.535   2.916   8.220  0.1627 -1.0175  0.9511
  242MOL0     O31815   9.520   2.797   8.160  0.4790  0.0363 -0.3411
  242MOL0     C31816   9.401   2.743   8.121  0.5844 -0.3528  0.6596
  242MOL0     C31817   9.411   2.639   8.032  1.2383 -0.9180  0.7346
  242MOL0     C31818   9.302   2.563   7.986 -0.1485  0.0256  0.1858
  242MOL0     C31819   9.168   2.605   8.019 -0.1615  0.6935 -0.2496
  242MOL0     O31820   9.064   2.546   7.960 -0.1466  0.5317  0.1601
  242MOL0     C31821   8.933   2.597   7.989 -0.4579  0.4153 -0.5280
  242MOL0     C31822   8.833   2.503   7.921  0.6809 -0.5389 -0.2247
  242MOL0     C31823   8.688   2.548   7.950 -0.5811  0.8707 -0.4746
  242MOL0     C31824   8.582   2.514   7.845 -0.8793  0.3429 -0.3706
  242MOL0     C31825   8.444   2.550   7.906 -1.0086  0.3644 -0.1377
  242MOL0     C31826   8.337   2.529   7.801 -0.3108 -0.5833  0.3251
  242MOL0     C31827   8.206   2.527   7.868  0.6919  0.2659 -0.7044
  242MOL0     C31828   8.087   2.509   7.771  0.1417 -0.5797 -0.1991
  242MOL0     N31829   7.948   2.526   7.821  0.1359 -0.6844  0.1658
  242MOL0     C31830   7.904   2.618   7.913  0.0509 -0.1766 -0.6035
  242MOL0     C31831   7.769   2.607   7.914 -0.1636  0.1720  0.2206
  242MOL0     C31832   7.656   2.668   8.006 -0.4628 -0.0086  0.2718
  242MOL0     C31833   7.700   2.803   8.052  0.4784 -0.3415  0.5312
  242MOL0     C31834   7.606   2.858   8.166 -0.0633  0.2544 -0.3703
  242MOL0     C31835   7.614   3.014   8.163 -0.3833 -0.2843  0.0358
  242MOL0     O31836   7.565   3.068   8.044 -0.3016  0.0300  0.5842
  242MOL0     C31837   7.428   3.063   8.015 -0.5057  0.7110 -0.0512
  242MOL0     C31838   7.385   3.055   7.880  0.2983 -0.1923  0.2087
  242MOL0     C31839   7.253   3.063   7.836  0.1459 -0.0514  0.3720
  242MOL0     C31840   7.151   3.073   7.929 -0.3939 -1.1920 -0.6300
  242MOL0     C31841   7.002   3.068   7.897  0.9492  0.5059 -0.1259
  242MOL0     O31842   6.917   3.078   8.004  0.1461 -0.0136  0.4540
  242MOL0     C31843   6.785   3.078   7.979 -0.1339  0.5540  0.7922
  242MOL0     C31844   6.718   2.969   7.912 -0.7024 -0.1293 -0.2303
  242MOL0     C31845   6.579   2.987   7.903 -0.0697  0.3034  0.7414
  242MOL0     C31846   6.514   3.084   7.971  1.1776  0.3891 -0.1373
  242MOL0     O31847   6.375   3.087   7.991 -0.7919 -0.4017  0.4677
  242MOL0     C31848   6.291   2.998   7.910 -0.3415 -0.3703  0.1267
  242MOL0     C31849   6.151   3.031   7.975  0.0349  0.1675  0.0548
  242MOL0     C31850   6.043   2.955   7.904  0.4897 -0.1767 -0.5297
  242MOL0     C31851   5.913   2.960   7.983  0.2646 -0.3065  0.0434
  242MOL0     C31852   5.792   2.939   7.886  0.5639 -0.0282  0.6147
  242MOL0     C31853   5.779   2.801   7.812 -0.9323  0.1521  0.2600
  242MOL0     C31854   5.644   2.802   7.738 -0.0777 -0.5617  0.7889
  242MOL0     C31855   5.616   2.664   7.672 -0.0861 -0.6446  0.4202
  242MOL0    Cl31856   5.761   2.631   7.566  0.2197  0.2433  0.1000
  242MOL0     C31857   6.576   3.185   8.035 -0.2575  0.2276  0.5226
  242MOL0     C31858   6.718   3.180   8.040  0.2883 -1.2074 -0.5451
  242MOL0     O31859   6.965   3.047   7.782 -0.6455  0.4919 -0.0919
  242MOL0     C31860   7.189   3.080   8.071  0.3876  0.2861 -0.2554
  242MOL0     C31861   7.325   3.086   8.109 -0.6955  0.0912 -0.5431
  242MOL0     N31862   7.731   2.511   7.824  0.5239 -0.4303 -0.0226
  242MOL0     N31863   7.839   2.468   7.758  0.3554 -0.3295 -0.3292
  242MOL0     C31864   9.159   2.710   8.110  0.3577 -0.2487 -0.1360
  242MOL0     C31865   9.268   2.772   8.164  0.3243  0.1119 -0.9589
  242MOL0     C31866   9.673   2.939   8.278 -0.9900  0.1422  0.2362
  242MOL0     C31867   9.764   2.837   8.273 -0.3918  1.2014 -0.9082
  242MOL0     C31868   9.887   2.848   8.327  0.3186 -0.0970 -0.1393
  242MOL0     C31869   9.932   2.962   8.391  0.8064  0.2749 -0.6107
  242MOL0     O31870  10.064   2.976   8.437  0.2066  0.2009  0.0197
  242MOL0     C31871  10.162   2.876   8.421 -0.1571  0.3767 -0.6082
  242MOL0     C31872  10.295   2.925   8.469  0.4763 -0.0234  1.0088
  242MOL0     C31873  10.419   2.833   8.480 -0.2514  0.1338 -0.8992
  242MOL0     C31874  10.540   2.914   8.438 -1.1647  0.3979  0.0222
  242MOL0     C31875  10.662   2.839   8.473 -0.7386  0.4184  0.1873
  242MOL0     C31876  10.768   2.787   8.507 -0.1755 -0.7521  0.4392
  242MOL0     C31877   9.840   3.076   8.385  0.1560 -0.0948  0.3280
  242MOL0     C31878   9.708   3.059   8.331 -0.3892 -0.0774 -0.0513
  242MOL0     H31879   9.513   2.630   7.997  0.9493  2.2388 -1.4042
  242MOL0     H31880   9.319   2.482   7.917 -0.9358  0.8095 -0.9662
  242MOL0     H31881   8.923   2.700   7.955 -0.5424  1.6588  2.9330
  242MOL0     H31882   8.908   2.587   8.095 -0.9907 -2.8100 -0.8372
  242MOL0     H31883   8.839   2.396   7.943 -1.1662 -0.6778 -0.2508
  242MOL0     H31884   8.848   2.521   7.814  0.7539  2.2558  0.2033
  242MOL0     H31885   8.687   2.656   7.964 -0.0898  0.6183  1.9206
  242MOL0     H31886   8.668   2.513   8.052  1.0909  1.0143 -0.0640
  242MOL0     H31887   8.599   2.567   7.752  0.9581 -0.2748 -0.4154
  242MOL0     H31888   8.586   2.406   7.831  0.9529  0.1842  0.9559
  242MOL0     H31889   8.452   2.657   7.929  0.0210  0.2090  0.2967
  242MOL0     H31890   8.423   2.492   7.996 -1.4148 -1.3353 -1.2765
  242MOL0     H31891   8.353   2.429   7.761  1.4221  0.0200 -0.5958
  242MOL0     H31892   8.342   2.606   7.723 -1.8376  0.2583  1.0131
  242MOL0     H31893   8.206   2.447   7.942 -0.3107  0.0663 -0.8975
  242MOL0     H31894   8.189   2.622   7.919  0.9359  0.3575 -0.7950
  242MOL0     H31895   8.093   2.411   7.723 -1.1535 -0.2009 -1.1799
  242MOL0     H31896   8.097   2.587   7.696  2.1047  0.5205  1.1259
  242MOL0     H31897   7.970   2.678   7.974  1.3395 -3.1981  1.2340
  242MOL0     H31898   7.641   2.609   8.097  2.0287 -2.5994 -0.8281
  242MOL0     H31899   7.564   2.677   7.948 -0.1223 -1.3894 -0.5399
  242MOL0     H31900   7.691   2.866   7.963  2.1097 -1.9574 -0.8637
  242MOL0     H31901   7.800   2.817   8.095 -0.0592  1.0333  1.4023
  242MOL0     H31902   7.500   2.830   8.166  0.1944 -0.8681  1.1706
  242MOL0     H31903   7.648   2.823   8.261  0.4297  0.3432 -0.5575
  242MOL0     H31904   7.718   3.044   8.177 -0.9387  1.4706  0.6969
  242MOL0     H31905   7.565   3.060   8.250  1.7458  2.8756 -0.2799
  242MOL0     H31906   7.456   3.053   7.798 -0.5827 -2.0926 -0.5711
  242MOL0     H31907   7.228   3.062   7.731 -0.3889 -1.1972  0.5022
  242MOL0     H31908   6.773   2.886   7.868 -0.7823 -0.4159  0.2061
  242MOL0     H31909   6.525   2.919   7.838  2.0373  0.4401 -1.2575
  242MOL0     H31910   6.308   2.890   7.917 -5.1865 -1.3753 -0.0032
  242MOL0     H31911   6.282   3.018   7.803  1.9504 -0.9669 -0.2267
  242MOL0     H31912   6.134   3.139   7.973  4.0204  0.9661 -0.0435
  242MOL0     H31913   6.141   2.993   8.077 -2.5376 -1.9985 -0.9030
  242MOL0     H31914   6.072   2.850   7.897 -0.5914 -0.5567  0.3295
  242MOL0     H31915   6.038   2.995   7.802  0.0668 -1.7336 -1.1498
  242MOL0     H31916   5.905   2.891   8.068 -0.8424 -0.3028 -0.0458
  242MOL0     H31917   5.888   3.055   8.030  0.4118  0.2089 -0.8941
  242MOL0     H31918   5.796   3.018   7.811  0.5630 -2.0745 -1.6582
  242MOL0     H31919   5.701   2.955   7.944  1.4619  1.4903  1.6751
  242MOL0     H31920   5.772   2.723   7.888 -1.3986 -0.2172 -0.1579
  242MOL0     H31921   5.865   2.786   7.746 -0.1605 -0.3787  1.3566
  242MOL0     H31922   5.563   2.830   7.806  0.8262  3.6831  0.4063
  242MOL0     H31923   5.648   2.878   7.659 -0.9341  0.6728  1.8864
  242MOL0     H31924   5.524   2.670   7.614 -1.5863  0.7309  2.8013
  242MOL0     H31925   5.593   2.588   7.747 -2.8753  0.1675  0.4853
  242MOL0     H31926   6.518   3.267   8.077  0.4779  1.0262  0.0275
  242MOL0     H31927   6.775   3.250   8.100  1.0276 -1.5194 -0.8743
  242MOL0     H31928   7.117   3.090   8.151 -0.6578  2.4272 -1.3904
  242MOL0     H31929   7.355   3.083   8.214  0.4359 -1.4542 -0.8637
  242MOL0     H31930   9.063   2.743   8.149  0.5281 -1.5770  1.5642
  242MOL0     H31931   9.253   2.858   8.228 -0.7806  1.0251 -2.3609
  242MOL0     H31932   9.734   2.739   8.238 -2.0444  0.2020  2.8413
  242MOL0     H31933   9.944   2.756   8.329  0.5593  0.0456 -0.3274
  242MOL0     H31934  10.174   2.847   8.316 -0.7644  1.0681 -0.8796
  242MOL0     H31935  10.127   2.785   8.471  0.6404 -0.6796 -1.8840
  242MOL0     H31936  10.322   3.010   8.407  0.1436 -0.3405  0.4217
  242MOL0     H31937  10.272   2.967   8.568 -1.4536 -4.1005  2.5689
  242MOL0     H31938  10.400   2.754   8.407  0.5201 -1.3164  0.4181
  242MOL0     H31939  10.418   2.805   8.585  0.5518  1.3722 -0.5322
  242MOL0     H31940  10.540   2.929   8.330 -0.0747 -2.0361 -0.3920
  242MOL0     H31941  10.542   3.011   8.488 -1.2325  0.5845 -0.3399
  242MOL0     H31942  10.865   2.783   8.551  0.1115  3.8925  0.6736
  242MOL0     H31943   9.867   3.177   8.412  2.4750 -0.7927  0.8151
  242MOL0     H31944   9.635   3.139   8.331 -0.4173 -0.0653  1.5641
  243MOL0     O31945   4.668   3.022   1.554  0.1564  0.2672  0.5458
  243MOL0     C31946   4.751   3.061   1.635 -0.3012  0.2655  0.3588
  243MOL0     O31947   4.749   3.042   1.772  0.0366  0.2353 -0.6265
  243MOL0     C31948   4.641   2.978   1.831 -0.0138  0.6415  0.2494
  243MOL0     C31949   4.526   3.060   1.862 -0.2404  0.1613 -0.1332
  243MOL0     C31950   4.409   2.987   1.888  0.7691 -0.4533  0.3301
  243MOL0     C31951   4.397   2.843   1.873 -0.0888 -0.6683  0.8638
  243MOL0     O31952   4.281   2.775   1.878  0.1372  0.8950 -0.2461
  243MOL0     C31953   4.158   2.843   1.933 -0.3572  0.5315  0.0574
  243MOL0     C31954   4.053   2.734   1.953 -0.0922  0.8018 -0.4761
  243MOL0     C31955   4.087   2.651   2.081 -0.4302  1.1803  0.2870
  243MOL0     C31956   4.023   2.516   2.089  0.2379  0.9567  0.8287
  243MOL0     C31957   4.056   2.442   2.220  0.5362 -0.3203 -0.5380
  243MOL0     C31958   3.972   2.319   2.232  0.2592  0.2989 -0.1702
  243MOL0     C31959   4.020   2.246   2.361  0.6901  0.5003  0.2851
  243MOL0     C31960   3.947   2.116   2.375  0.0321  0.4857  0.1960
  243MOL0     N31961   3.803   2.145   2.414 -0.3875 -0.2072  0.4330
  243MOL0     C31962   3.745   2.209   2.524 -0.0180  0.2175  0.6418
  243MOL0     C31963   3.620   2.229   2.487 -0.0192  0.7063 -0.1273
  243MOL0     C31964   3.508   2.297   2.572 -0.7675  0.9588  0.0830
  243MOL0     C31965   3.437   2.205   2.667  0.6057 -0.1286  0.2302
  243MOL0     C31966   3.347   2.283   2.761  1.0099 -0.0219 -0.0500
  243MOL0     C31967   3.263   2.180   2.849 -0.5174  0.4396  0.4249
  243MOL0     O31968   3.172   2.241   2.940  0.4933 -0.4844 -0.5684
  243MOL0     C31969   3.077   2.160   3.004 -0.8688  0.0376  0.1704
  243MOL0     C31970   2.996   2.213   3.097 -0.6289  0.2266  0.8988
  243MOL0     C31971   2.906   2.129   3.169  0.1804 -0.4780 -0.1461
  243MOL0     C31972   2.893   1.992   3.144  0.4724 -1.2518 -0.3073
  243MOL0     C31973   2.801   1.898   3.219 -0.0880  0.5017  0.5583
  243MOL0     O31974   2.843   1.766   3.220 -0.0983  0.5730  0.2711
  243MOL0     C31975   2.805   1.679   3.319  0.7863  0.5096  0.0597
  243MOL0     C31976   2.895   1.620   3.404 -0.3612 -0.2493  0.6443
  243MOL0     C31977   2.858   1.516   3.493 -0.3794  0.2806  0.6671
  243MOL0     C31978   2.718   1.472   3.501 -0.0494  1.0788  0.4323
  243MOL0     O31979   2.661   1.376   3.580 -0.2250  0.0693 -0.8812
  243MOL0     C31980   2.751   1.322   3.682 -0.3664 -0.0873 -0.6384
  243MOL0     C31981   2.668   1.227   3.771  0.1778  0.3003  0.5043
  243MOL0     C31982   2.639   1.089   3.700 -0.3722 -0.7708  0.4451
  243MOL0     C31983   2.619   0.972   3.800  0.1660 -0.0660  0.6630
  243MOL0     C31984   2.510   0.867   3.754 -0.0303 -0.4481  0.5597
  243MOL0     C31985   2.368   0.921   3.781 -0.2100  0.0165  0.0013
  243MOL0     C31986   2.275   0.802   3.783  0.3886  1.2341 -0.3038
  243MOL0     C31987   2.149   0.860   3.851 -0.3062 -0.2275  0.3686
  243MOL0    Cl31988   2.000   0.752   3.813 -0.3547  0.1228 -0.0970
  243MOL0     C31989   2.623   1.542   3.419 -0.0511 -0.2168  0.0040
  243MOL0     C31990   2.670   1.647   3.335  0.2093  0.0287  1.0844
  243MOL0     O31991   2.707   1.943   3.283 -0.4692  0.1859 -0.2886
  243MOL0     C31992   2.977   1.943   3.051 -0.9856 -0.1278 -0.1843
  243MOL0     C31993   3.067   2.018   2.981 -0.1252  0.2517  0.2996
  243MOL0     N31994   3.602   2.171   2.365  0.0366 -0.5939 -0.0934
  243MOL0     N31995   3.705   2.123   2.323  0.2892 -0.4546 -1.3446
  243MOL0     C31996   4.516   2.769   1.849  0.4365 -0.2589 -0.0325
  243MOL0     C31997   4.635   2.838   1.824 -0.0038 -0.4245  0.8338
  243MOL0     C31998   4.869   3.125   1.586  0.5265  0.6392 -0.0391
  243MOL0     C31999   4.863   3.179   1.453 -0.3848  0.9216 -0.0984
  243MOL0     C32000   4.975   3.234   1.394 -0.3544  0.1472  0.4588
  243MOL0     C32001   5.098   3.229   1.469 -0.6017 -0.3033  0.8813
  243MOL0     O32002   5.216   3.273   1.418  0.0582  0.9504  0.8658
  243MOL0     C32003   5.204   3.297   1.269  0.3716 -0.3696  0.3488
  243MOL0     C32004   5.343   3.356   1.234 -0.7026 -1.0393 -0.0344
  243MOL0     C32005   5.358   3.379   1.086  0.1206 -0.1514 -0.6118
  243MOL0     C32006   5.503   3.417   1.047  0.6565  1.5076  0.1160
  243MOL0     C32007   5.516   3.441   0.906 -0.2182 -0.0576  0.4526
  243MOL0     C32008   5.538   3.447   0.784  0.8806 -0.2698 -0.1843
  243MOL0     C32009   5.099   3.168   1.592 -0.2563 -0.2426  0.0132
  243MOL0     C32010   4.987   3.123   1.661  0.4639  0.2157  0.2433
  243MOL0     H32011   4.533   3.168   1.856  2.4303  0.0526 -0.1928
  243MOL0     H32012   4.320   3.042   1.916  0.0848 -0.5971 -1.4533
  243MOL0     H32013   4.120   2.920   1.866  0.8682  0.0499 -1.2482
  243MOL0     H32014   4.172   2.896   2.028 -2.5241  1.2965  0.0095
  243MOL0     H32015   4.043   2.676   1.861 -1.3567  1.4903 -0.7926
  243MOL0     H32016   3.950   2.770   1.965 -0.4424 -0.3763  0.2389
  243MOL0     H32017   4.048   2.722   2.155  0.0927  0.5182  1.2032
  243MOL0     H32018   4.196   2.650   2.079 -0.3911  2.2560 -2.1462
  243MOL0     H32019   3.916   2.531   2.075  0.4331  0.7531 -1.3225
  243MOL0     H32020   4.061   2.451   2.009 -1.2442  0.7497  0.2586
  243MOL0     H32021   4.045   2.508   2.307 -1.2096  0.4899 -1.3363
  243MOL0     H32022   4.164   2.425   2.220  0.7397  0.6058 -2.7226
  243MOL0     H32023   3.998   2.253   2.149  0.5795  0.0635  0.1148
  243MOL0     H32024   3.866   2.346   2.236  0.0400 -0.4900 -0.4817
  243MOL0     H32025   4.125   2.226   2.340  0.4883  0.1942 -0.4561
  243MOL0     H32026   3.997   2.310   2.446 -1.3483  2.1686 -1.4058
  243MOL0     H32027   3.989   2.058   2.457 -2.3922 -1.8844 -0.0753
  243MOL0     H32028   3.955   2.056   2.283 -1.4082  0.7596 -0.1367
  243MOL0     H32029   3.787   2.228   2.623 -3.0995  0.7816  1.9468
  243MOL0     H32030   3.429   2.330   2.504 -0.0762 -1.1949 -1.8989
  243MOL0     H32031   3.547   2.385   2.623  0.6673  1.1641 -1.2808
  243MOL0     H32032   3.513   2.148   2.723  1.2854  1.2783  0.7922
  243MOL0     H32033   3.375   2.128   2.621  2.0583 -1.7270  0.8216
  243MOL0     H32034   3.389   2.356   2.830  1.4633  1.0453 -1.4017
  243MOL0     H32035   3.272   2.347   2.713  0.4743 -0.4466  0.2161
  243MOL0     H32036   3.333   2.124   2.912 -1.8736 -2.3470 -0.3536
  243MOL0     H32037   3.208   2.111   2.785 -0.0108 -1.1182  1.6068
  243MOL0     H32038   2.994   2.318   3.122 -1.5662  0.1370  1.2429
  243MOL0     H32039   2.847   2.186   3.240  2.4783 -1.2803  2.5684
  243MOL0     H32040   2.997   1.651   3.391  0.1186 -1.5775  1.0387
  243MOL0     H32041   2.939   1.476   3.553 -0.1576 -1.8556 -0.9280
  243MOL0     H32042   2.778   1.405   3.747 -0.4555 -0.8410  0.3777
  243MOL0     H32043   2.845   1.274   3.651 -0.6865 -0.5343 -0.9307
  243MOL0     H32044   2.581   1.275   3.816 -0.1822  3.0219 -2.6797
  243MOL0     H32045   2.733   1.205   3.856 -2.5109  1.1035  2.9273
  243MOL0     H32046   2.729   1.059   3.646 -1.1681 -2.6748  0.1057
  243MOL0     H32047   2.555   1.100   3.632  0.4244 -2.8517 -0.9836
  243MOL0     H32048   2.718   0.932   3.826 -0.5587 -0.5218  2.9596
  243MOL0     H32049   2.575   1.011   3.891 -2.1834 -1.3732  0.1677
  243MOL0     H32050   2.522   0.774   3.810 -1.4400 -0.2666  1.1834
  243MOL0     H32051   2.518   0.846   3.646  1.6086 -0.3145  0.6274
  243MOL0     H32052   2.341   0.996   3.706  1.2124  0.4226 -0.1503
  243MOL0     H32053   2.362   0.965   3.882  0.2677 -4.6103  2.3044
  243MOL0     H32054   2.262   0.776   3.677  1.7208 -2.0340  0.2240
  243MOL0     H32055   2.308   0.717   3.843 -1.5859  0.5819 -0.0683
  243MOL0     H32056   2.131   0.957   3.805 -0.5012 -1.2258 -1.7810
  243MOL0     H32057   2.161   0.867   3.959 -0.7377 -0.9651  0.4706
  243MOL0     H32058   2.523   1.503   3.428  0.0800 -0.9130 -1.2886
  243MOL0     H32059   2.606   1.693   3.260 -1.5372 -0.7836  1.9992
  243MOL0     H32060   2.971   1.838   3.024 -4.3692 -0.4484  1.2880
  243MOL0     H32061   3.126   1.965   2.907 -1.6425  0.0689 -0.8325
  243MOL0     H32062   4.512   2.661   1.851  2.1954 -0.3552  0.3751
  243MOL0     H32063   4.720   2.783   1.786 -0.5256  1.6598 -4.0841
  243MOL0     H32064   4.770   3.176   1.398 -0.8049  4.1710  0.2066
  243MOL0     H32065   4.953   3.277   1.297  0.7620  2.4656  1.1600
  243MOL0     H32066   5.131   3.375   1.245  0.2808 -0.4749  0.2835
  243MOL0     H32067   5.193   3.207   1.208  1.4435 -0.3317  0.0829
  243MOL0     H32068   5.366   3.445   1.293 -2.4320 -1.6805  1.7459
  243MOL0     H32069   5.421   3.288   1.270  0.0677  0.7863  2.0270
  243MOL0     H32070   5.296   3.460   1.046 -1.2214 -0.2817  1.0631
  243MOL0     H32071   5.337   3.288   1.030  0.8845 -0.2549 -0.7338
  243MOL0     H32072   5.532   3.509   1.099  1.0433  0.9656  0.8775
  243MOL0     H32073   5.574   3.338   1.073  0.2873  1.4457  0.9797
  243MOL0     H32074   5.547   3.449   0.677  0.4491 -0.7579 -0.2327
  243MOL0     H32075   5.194   3.151   1.641 -1.5963 -4.2453  1.6825
  243MOL0     H32076   5.000   3.075   1.758  0.4010 -2.9744 -1.1784
  244MOL0     O32077   7.879  10.795   2.181 -0.4576 -0.3430 -0.5309
  244MOL0     C32078   7.863  10.906   2.130 -0.1085 -1.3008 -0.3796
  244MOL0     O32079   7.965  10.995   2.087  0.3166  0.0661 -0.1216
  244MOL0     C32080   8.095  10.949   2.102  0.5490 -0.3483 -0.5194
  244MOL0     C32081   8.182  11.043   2.150  0.3853 -0.3857  0.4113
  244MOL0     C32082   8.324  11.014   2.163  0.4672  0.1015  0.6858
  244MOL0     C32083   8.370  10.892   2.141 -0.5704  0.0006 -0.2566
  244MOL0     O32084   8.498  10.852   2.170  0.4184 -1.0817  0.4629
  244MOL0     C32085   8.609  10.946   2.156 -0.7056  0.4498 -0.7529
  244MOL0     C32086   8.733  10.863   2.113  0.2809  0.4733  0.0091
  244MOL0     C32087   8.862  10.907   2.191 -0.0489  1.2245 -0.2914
  244MOL0     C32088   8.913  11.039   2.147  0.5472  0.8277 -0.3014
  244MOL0     C32089   8.984  11.115   2.257  0.2013  0.0456 -0.5690
  244MOL0     C32090   9.122  11.053   2.303 -0.3697 -0.0213  0.1332
  244MOL0     C32091   9.216  11.001   2.195 -0.0614  0.3493 -0.2101
  244MOL0     C32092   9.361  10.986   2.250 -0.0324 -0.5339  0.0403
  244MOL0     N32093   9.453  10.921   2.157  0.1722 -0.0640 -0.6334
  244MOL0     C32094   9.584  10.888   2.169  0.4920  0.2287 -0.0381
  244MOL0     C32095   9.624  10.801   2.068  0.4668 -0.0144 -0.4719
  244MOL0     C32096   9.756  10.721   2.054  0.2269  0.7134 -0.8187
  244MOL0     C32097   9.868  10.786   1.967  0.0581 -0.0385  0.3515
  244MOL0     C32098   9.817  10.823   1.829  0.8177  0.2340  0.1078
  244MOL0     C32099   9.886  10.940   1.768 -0.2954  0.0052  0.3669
  244MOL0     O32100   9.861  11.069   1.838 -0.1545  0.1055  0.4019
  244MOL0     C32101   9.741  11.117   1.812  0.0828 -0.1280 -0.0284
  244MOL0     C32102   9.697  11.165   1.690  1.2925 -0.2486 -0.3882
  244MOL0     C32103   9.565  11.209   1.666 -0.8464 -0.1524 -0.2398
  244MOL0     C32104   9.475  11.217   1.778 -1.5669  0.2112 -0.8933
  244MOL0     C32105   9.346  11.276   1.759  0.4184 -0.0137 -0.3383
  244MOL0     O32106   9.270  11.280   1.868 -0.5500 -0.1606 -0.0695
  244MOL0     C32107   9.142  11.336   1.856 -1.5796  0.0323 -0.5248
  244MOL0     C32108   9.124  11.474   1.835 -0.5250  0.2229  0.1961
  244MOL0     C32109   8.993  11.522   1.819  0.5280  0.2275  0.2544
  244MOL0     C32110   8.884  11.434   1.847 -0.8803 -1.5551  0.4996
  244MOL0     O32111   8.760  11.483   1.854 -0.4502  0.0222 -0.5033
  244MOL0     C32112   8.744  11.627   1.874 -0.4538  0.4460 -0.4182
  244MOL0     C32113   8.597  11.660   1.919 -0.2970 -0.0355 -0.4229
  244MOL0     C32114   8.545  11.806   1.896 -0.1142  0.9058  0.5491
  244MOL0     C32115   8.397  11.818   1.867  0.1758 -0.0261  0.6128
  244MOL0     C32116   8.359  11.964   1.837  0.9181 -0.7385 -0.2060
  244MOL0     C32117   8.214  11.976   1.793  0.1073  0.3863 -0.0668
  244MOL0     C32118   8.164  12.121   1.787 -0.5760 -0.2753 -0.7518
  244MOL0     C32119   8.010  12.120   1.750 -0.1397  0.4271 -0.5436
  244MOL0    Cl32120   7.912  12.037   1.867  0.0450  0.1364 -0.1023
  244MOL0     C32121   8.906  11.306   1.877  0.0025 -0.1750 -0.3978
  244MOL0     C32122   9.033  11.248   1.880  0.0011 -0.0399  0.5120
  244MOL0     O32123   9.316  11.325   1.651  0.0155  0.0614 -0.3220
  244MOL0     C32124   9.526  11.173   1.901 -0.5108  0.2403 -0.3026
  244MOL0     C32125   9.659  11.129   1.922  0.8483  0.1775 -0.2895
  244MOL0     N32126   9.511  10.784   1.996  0.1233  0.9675  0.1141
  244MOL0     N32127   9.409  10.854   2.041  0.3541 -0.2937 -0.4359
  244MOL0     C32128   8.281  10.798   2.106 -0.4145 -0.2963  0.1202
  244MOL0     C32129   8.147  10.817   2.083  0.7331 -0.3971 -0.5484
  244MOL0     C32130   7.719  10.942   2.112  0.2806  0.5182 -0.2184
  244MOL0     C32131   7.614  10.887   2.182  0.3458 -0.4206  0.1929
  244MOL0     C32132   7.477  10.914   2.162  0.3383 -0.1444  0.2514
  244MOL0     C32133   7.439  11.002   2.057 -0.2376 -0.9988 -0.6313
  244MOL0     O32134   7.315  11.025   2.002  0.2871 -0.4900  0.5942
  244MOL0     C32135   7.199  10.965   2.058  0.6068  0.8408  0.4188
  244MOL0     C32136   7.084  10.993   1.962 -0.5852  0.4406 -0.2936
  244MOL0     C32137   6.980  10.881   1.952  0.5596  0.1905  0.7183
  244MOL0     C32138   6.854  10.923   1.865 -1.2059 -0.3831 -0.3019
  244MOL0     C32139   6.874  10.904   1.725  0.0848  0.2443 -0.3962
  244MOL0     C32140   6.878  10.910   1.605 -0.0572  0.3580  1.0022
  244MOL0     C32141   7.543  11.063   1.988  0.2229  0.5853 -0.3102
  244MOL0     C32142   7.676  11.030   2.017 -0.3776 -0.1750  0.4108
  244MOL0     H32143   8.140  11.139   2.177 -0.5406 -0.9178  0.8966
  244MOL0     H32144   8.378  11.101   2.199  0.0666  0.3095  0.7914
  244MOL0     H32145   8.628  10.991   2.254  0.4043  0.3201 -0.8854
  244MOL0     H32146   8.605  11.025   2.081 -0.2879  2.2922  1.0751
  244MOL0     H32147   8.751  10.869   2.006  2.2724 -3.3162 -0.0245
  244MOL0     H32148   8.712  10.759   2.139  1.0977  0.6625  1.5298
  244MOL0     H32149   8.939  10.833   2.166 -1.3732  0.3705 -2.0663
  244MOL0     H32150   8.842  10.914   2.298 -1.3486 -0.1332 -0.4187
  244MOL0     H32151   8.982  11.033   2.063  4.5432  3.5586  2.4493
  244MOL0     H32152   8.829  11.100   2.114  1.4112  1.2038 -1.8652
  244MOL0     H32153   8.923  11.132   2.346  0.5762  1.8382 -0.6323
  244MOL0     H32154   8.989  11.212   2.207 -2.3188  1.1223  1.0685
  244MOL0     H32155   9.110  10.975   2.379  1.2282 -0.5170 -0.0884
  244MOL0     H32156   9.176  11.136   2.350  1.3530 -0.3598 -1.1463
  244MOL0     H32157   9.173  10.904   2.169 -2.8579  0.7051  2.4191
  244MOL0     H32158   9.228  11.072   2.112 -0.9340  0.6516 -0.0985
  244MOL0     H32159   9.348  10.931   2.344 -4.4382  0.1946  0.0707
  244MOL0     H32160   9.396  11.085   2.282  1.7935 -1.4373  1.0114
  244MOL0     H32161   9.639  10.902   2.262 -0.1792 -1.2893  0.6197
  244MOL0     H32162   9.738  10.620   2.016 -1.3303 -0.1929  2.0245
  244MOL0     H32163   9.789  10.708   2.157 -1.8434  0.8527 -0.0782
  244MOL0     H32164   9.950  10.716   1.948 -1.2718 -0.9606 -2.6484
  244MOL0     H32165   9.897  10.874   2.025  0.6350 -0.3779  0.5785
  244MOL0     H32166   9.835  10.738   1.763  1.0707  2.1793 -2.4851
  244MOL0     H32167   9.710  10.845   1.830  0.9937  1.1590  1.1119
  244MOL0     H32168   9.879  10.948   1.659  0.1677 -0.1951  0.3167
  244MOL0     H32169   9.993  10.916   1.779 -0.4751 -0.4756  1.1512
  244MOL0     H32170   9.752  11.158   1.596  3.5596  1.6889  0.7058
  244MOL0     H32171   9.528  11.238   1.568 -0.2572 -0.2695 -0.4985
  244MOL0     H32172   9.210  11.534   1.809 -0.6395  0.5934  0.6721
  244MOL0     H32173   8.982  11.624   1.784  4.1977  0.7172  0.1154
  244MOL0     H32174   8.761  11.677   1.779  0.4300  1.1344  0.0862
  244MOL0     H32175   8.808  11.672   1.950  0.3187 -0.8722 -0.2513
  244MOL0     H32176   8.591  11.641   2.026 -0.3434  0.1642 -0.3891
  244MOL0     H32177   8.540  11.588   1.859 -1.2272  0.5328 -0.2522
  244MOL0     H32178   8.599  11.846   1.810 -0.5839 -0.6016 -0.4929
  244MOL0     H32179   8.569  11.860   1.988  0.6466 -0.8837  1.4364
  244MOL0     H32180   8.374  11.751   1.783 -0.9622  1.5577 -0.3970
  244MOL0     H32181   8.347  11.792   1.960  1.2535 -0.5821  1.0617
  244MOL0     H32182   8.430  12.002   1.762 -0.4759  1.0423 -0.7054
  244MOL0     H32183   8.378  12.023   1.927  3.9466 -0.3770 -0.9667
  244MOL0     H32184   8.154  11.929   1.872 -0.9975  3.2382  0.9187
  244MOL0     H32185   8.195  11.930   1.695 -0.3964 -3.0829  1.4962
  244MOL0     H32186   8.176  12.165   1.886 -2.0544 -1.9179  0.2018
  244MOL0     H32187   8.213  12.174   1.704 -1.4186  1.4858 -0.1775
  244MOL0     H32188   7.998  12.069   1.654 -1.2858  0.8242 -0.6270
  244MOL0     H32189   7.981  12.225   1.739  0.9938  0.9210  0.8200
  244MOL0     H32190   8.828  11.234   1.899 -0.6291  0.3804 -0.7721
  244MOL0     H32191   9.036  11.142   1.904 -0.2507 -0.2717 -0.4247
  244MOL0     H32192   9.463  11.194   1.987  1.2928  1.0152  0.8950
  244MOL0     H32193   9.690  11.110   2.024  0.2174  2.4189  0.3833
  244MOL0     H32194   8.333  10.703   2.096 -0.9546 -0.8122  1.7923
  244MOL0     H32195   8.093  10.734   2.040  2.6430 -1.5083 -0.9346
  244MOL0     H32196   7.634  10.813   2.259 -0.0507 -3.0571 -2.0734
  244MOL0     H32197   7.405  10.850   2.211  0.4338 -0.7272 -0.3595
  244MOL0     H32198   7.172  10.997   2.159 -0.4625  1.3930 -0.0230
  244MOL0     H32199   7.225  10.859   2.066 -0.2485  0.6248  0.4123
  244MOL0     H32200   7.029  11.081   1.999  1.3993  1.7814 -0.4015
  244MOL0     H32201   7.118  11.017   1.861 -0.1107 -1.8140 -0.7189
  244MOL0     H32202   6.952  10.850   2.053 -0.6196  0.2229  0.4173
  244MOL0     H32203   7.021  10.794   1.899 -0.5544  0.1394 -0.1048
  244MOL0     H32204   6.763  10.872   1.898 -0.4494  0.2328  3.1061
  244MOL0     H32205   6.827  11.023   1.899  2.5221 -0.2974  3.1927
  244MOL0     H32206   6.879  10.912   1.498  0.4831 -0.2342  0.9879
  244MOL0     H32207   7.517  11.127   1.904  2.2969 -0.3926 -1.7975
  244MOL0     H32208   7.756  11.071   1.957 -2.0804  3.1612  0.2141
  245MOL0     O32209   7.220   0.294   4.560 -0.2505 -0.3322  0.7761
  245MOL0     C32210   7.195   0.192   4.491  0.5409 -0.0194  0.2035
  245MOL0     O32211   7.096   0.181   4.393 -0.6293 -0.1808 -0.5142
  245MOL0     C32212   7.010   0.276   4.350  0.1360 -0.7033  0.4667
  245MOL0     C32213   6.969   0.267   4.218  0.3051  1.5575 -0.6454
  245MOL0     C32214   6.885   0.361   4.159  1.0217 -0.4032  0.2978
  245MOL0     C32215   6.834   0.471   4.231 -0.3249 -0.1511  0.0143
  245MOL0     O32216   6.767   0.568   4.160  0.2078  0.4033 -0.3399
  245MOL0     C32217   6.723   0.693   4.223 -0.3870  0.2882  0.1203
  245MOL0     C32218   6.613   0.760   4.142  0.1173 -0.2685  0.4369
  245MOL0     C32219   6.479   0.681   4.139  0.3497 -0.0477 -0.6943
  245MOL0     C32220   6.393   0.734   4.014 -0.1223  0.5346 -0.2552
  245MOL0     C32221   6.238   0.682   4.028  0.3559  0.1960  0.0623
  245MOL0     C32222   6.144   0.754   3.927  0.0936  0.0755 -0.0380
  245MOL0     C32223   5.995   0.726   3.957 -0.2814  0.5422  0.9674
  245MOL0     C32224   5.950   0.583   3.921  0.5469 -0.3525 -0.3025
  245MOL0     N32225   5.799   0.558   3.941 -0.4158  0.4225  0.0269
  245MOL0     C32226   5.745   0.436   3.917  0.5104 -0.2199 -0.8516
  245MOL0     C32227   5.611   0.460   3.915  0.1126  0.5781  0.0925
  245MOL0     C32228   5.502   0.358   3.902 -0.4934  0.4417  0.7361
  245MOL0     C32229   5.422   0.349   4.032  0.4556  0.6273  0.0923
  245MOL0     C32230   5.505   0.298   4.144  0.1247  0.2234 -0.0747
  245MOL0     C32231   5.412   0.265   4.260 -0.3496 -0.4745  0.4531
  245MOL0     O32232   5.339   0.382   4.307 -0.9029  0.5503  0.2342
  245MOL0     C32233   5.212   0.375   4.356 -0.0098  0.2303 -0.1138
  245MOL0     C32234   5.180   0.425   4.478 -0.3730 -0.5314 -0.8281
  245MOL0     C32235   5.052   0.417   4.530  0.1997  0.5857  0.2081
  245MOL0     C32236   4.952   0.358   4.450  0.8491 -0.1374  0.3422
  245MOL0     C32237   4.814   0.358   4.498  0.3521 -0.1064  0.9800
  245MOL0     O32238   4.790   0.410   4.624 -0.1749 -0.4928  0.2069
  245MOL0     C32239   4.663   0.446   4.653 -0.1059  0.0602  0.0899
  245MOL0     C32240   4.574   0.359   4.718  0.0950 -0.8113  0.6053
  245MOL0     C32241   4.440   0.398   4.737 -0.2635  0.5642  0.3683
  245MOL0     C32242   4.393   0.527   4.697 -0.0107  0.3029  0.6541
  245MOL0     O32243   4.267   0.574   4.718 -0.0052 -0.3336  0.6796
  245MOL0     C32244   4.156   0.486   4.717 -0.6865  0.0799  0.2460
  245MOL0     C32245   4.166   0.391   4.606 -0.5272  0.0144  1.2275
  245MOL0     C32246   4.023   0.360   4.571 -0.4582 -0.2894  0.2094
  245MOL0     C32247   4.002   0.226   4.494 -0.9512  0.0356  0.2489
  245MOL0     C32248   3.854   0.226   4.441 -1.2469 -0.3805 -0.5642
  245MOL0     C32249   3.822   0.093   4.372 -0.7032  0.9619 -0.3590
  245MOL0     C32250   3.689   0.083   4.300  0.6375 -0.3833 -0.9392
  245MOL0     C32251   3.664   0.180   4.181 -0.5459  0.1052  0.0511
  245MOL0    Cl32252   3.756   0.108   4.045 -0.4689  0.0488  0.2155
  245MOL0     C32253   4.483   0.608   4.626  0.3558 -0.0367 -0.2960
  245MOL0     C32254   4.617   0.565   4.612 -0.6080 -0.0358 -0.4462
  245MOL0     O32255   4.724   0.327   4.417  0.1504 -0.7877  0.0701
  245MOL0     C32256   4.984   0.310   4.320  0.2640 -0.1050  0.9923
  245MOL0     C32257   5.112   0.319   4.273  0.2055 -0.5810  0.3755
  245MOL0     N32258   5.589   0.595   3.927  1.3446 -0.3357 -0.6403
  245MOL0     N32259   5.699   0.649   3.947 -0.3848 -0.1835 -0.4613
  245MOL0     C32260   6.860   0.472   4.371  0.7810  0.6646 -0.0850
  245MOL0     C32261   6.954   0.385   4.429  0.1181  0.1784  0.0685
  245MOL0     C32262   7.290   0.085   4.483  0.8352  0.2959 -0.0587
  245MOL0     C32263   7.369   0.048   4.594  0.3742 -0.8563 -0.1389
  245MOL0     C32264   7.460  -0.052   4.572 -0.7468  0.5149 -0.2904
  245MOL0     C32265   7.463  -0.140   4.465  0.3956 -0.0596  0.7706
  245MOL0     O32266   7.557  -0.234   4.469  0.1675 -0.2634 -0.4447
  245MOL0     C32267   7.535  -0.345   4.393 -0.2721  0.5664 -0.0048
  245MOL0     C32268   7.654  -0.427   4.445 -0.0056 -0.3048 -0.2808
  245MOL0     C32269   7.791  -0.365   4.406 -0.2383 -0.3689 -0.2036
  245MOL0     C32270   7.897  -0.472   4.450  0.1410 -0.0645  0.5655
  245MOL0     C32271   8.029  -0.414   4.424  0.6450  0.2457  0.1566
  245MOL0     C32272   8.133  -0.359   4.406  0.4869 -0.8850 -0.5702
  245MOL0     C32273   7.383  -0.111   4.358 -0.0048 -0.9270  0.3380
  245MOL0     C32274   7.304   0.011   4.360  0.4397  0.4780 -0.1579
  245MOL0     H32275   7.011   0.182   4.167 -1.5745  0.3113 -0.2164
  245MOL0     H32276   6.856   0.347   4.055 -0.7939  2.9947  0.1980
  245MOL0     H32277   6.813   0.756   4.227 -0.8859  1.0083  0.3387
  245MOL0     H32278   6.683   0.673   4.323  0.0609 -2.1831 -0.1367
  245MOL0     H32279   6.653   0.781   4.043 -1.0704 -0.0719 -0.0182
  245MOL0     H32280   6.586   0.858   4.181  2.0523 -0.1706  1.6600
  245MOL0     H32281   6.417   0.702   4.227 -1.2310  2.3922 -2.2637
  245MOL0     H32282   6.492   0.573   4.139 -0.0096 -0.1150  0.5567
  245MOL0     H32283   6.390   0.843   4.020 -3.4086  0.4825  1.6191
  245MOL0     H32284   6.436   0.699   3.920 -4.0171 -0.7030 -1.7926
  245MOL0     H32285   6.210   0.686   4.133 -0.6754  0.6321 -0.2177
  245MOL0     H32286   6.235   0.574   4.007  0.7137 -0.1713  1.7476
  245MOL0     H32287   6.175   0.721   3.828  0.3864  1.8973 -0.5780
  245MOL0     H32288   6.166   0.861   3.920 -2.3393  0.5441 -1.5275
  245MOL0     H32289   5.974   0.734   4.064 -1.6733 -0.4269  0.7920
  245MOL0     H32290   5.940   0.798   3.895 -1.2227 -0.9904 -0.0328
  245MOL0     H32291   6.000   0.513   3.989  2.4342 -0.5306 -1.7621
  245MOL0     H32292   5.983   0.565   3.818  1.4099  2.4216 -0.5950
  245MOL0     H32293   5.802   0.344   3.915  2.4165  0.7167  2.4618
  245MOL0     H32294   5.549   0.265   3.870 -1.4926 -0.1420  0.9255
  245MOL0     H32295   5.447   0.391   3.814  2.1958  2.2175 -0.4094
  245MOL0     H32296   5.332   0.291   4.009 -1.5548  3.0360  1.3889
  245MOL0     H32297   5.379   0.446   4.060 -1.3875 -0.0568 -0.1972
  245MOL0     H32298   5.565   0.213   4.110  1.1839  1.6396 -1.8759
  245MOL0     H32299   5.571   0.377   4.182 -0.2869 -0.0533  1.2945
  245MOL0     H32300   5.475   0.221   4.338  0.6740  2.4756  1.4047
  245MOL0     H32301   5.346   0.183   4.230 -0.6091 -0.6264  1.3828
  245MOL0     H32302   5.258   0.484   4.525 -1.3511  0.1787 -0.0447
  245MOL0     H32303   5.032   0.464   4.625  1.8400  0.2537  0.7394
  245MOL0     H32304   4.618   0.264   4.749  0.4849 -0.6809  0.4569
  245MOL0     H32305   4.366   0.330   4.779 -1.2098  1.1483 -0.3018
  245MOL0     H32306   4.062   0.541   4.706 -1.3930 -0.8791  1.2665
  245MOL0     H32307   4.155   0.432   4.812  2.5865  0.8395  0.8644
  245MOL0     H32308   4.231   0.305   4.627  2.8517  1.9667 -0.2492
  245MOL0     H32309   4.214   0.433   4.516 -2.5092 -0.7891 -0.2800
  245MOL0     H32310   3.979   0.451   4.530  0.0118  0.6462  1.6965
  245MOL0     H32311   3.959   0.357   4.660 -0.2381  4.4845  0.8003
  245MOL0     H32312   4.070   0.232   4.409  0.2708 -1.4026  1.0606
  245MOL0     H32313   4.025   0.135   4.551 -2.7218  2.2820  5.0684
  245MOL0     H32314   3.834   0.309   4.373 -2.9549  1.8424  2.3660
  245MOL0     H32315   3.790   0.241   4.529  0.7691  0.3207  0.8576
  245MOL0     H32316   3.820   0.016   4.450  0.5188  3.2063  2.0800
  245MOL0     H32317   3.896   0.059   4.300  1.5500  0.4426  2.0310
  245MOL0     H32318   3.665  -0.020   4.274  1.7983 -1.3855  1.6024
  245MOL0     H32319   3.610   0.102   4.372  1.9120  0.5365  0.2883
  245MOL0     H32320   3.697   0.283   4.197 -0.3704  0.9201 -4.2563
  245MOL0     H32321   3.557   0.182   4.154 -0.8451  1.2454  1.2337
  245MOL0     H32322   4.437   0.697   4.586 -1.9240 -0.0003  2.1260
  245MOL0     H32323   4.685   0.622   4.550  0.8134 -1.8979 -0.6841
  245MOL0     H32324   4.902   0.271   4.260 -0.3639  1.2045  0.9598
  245MOL0     H32325   5.132   0.286   4.171  1.0119 -1.1292  0.7039
  245MOL0     H32326   6.827   0.556   4.433 -2.3243 -0.2976 -0.2889
  245MOL0     H32327   6.987   0.403   4.530  0.6436  1.1979 -0.2707
  245MOL0     H32328   7.375   0.114   4.681 -1.8117 -0.0179 -0.5776
  245MOL0     H32329   7.532  -0.056   4.653 -0.9590  1.7175 -0.0174
  245MOL0     H32330   7.548  -0.337   4.285  2.7220 -0.0817  0.2199
  245MOL0     H32331   7.448  -0.407   4.419 -1.1929  2.1334  0.7710
  245MOL0     H32332   7.652  -0.452   4.552  2.3160  1.3704  0.2450
  245MOL0     H32333   7.646  -0.523   4.393 -1.0733 -0.5154  0.2313
  245MOL0     H32334   7.815  -0.272   4.457  3.1437 -0.9610 -0.4881
  245MOL0     H32335   7.799  -0.343   4.299  0.7360 -1.6390 -0.4160
  245MOL0     H32336   7.883  -0.500   4.555 -2.2769 -0.5838  0.1841
  245MOL0     H32337   7.872  -0.558   4.386 -1.8230  1.4651 -0.8692
  245MOL0     H32338   8.219  -0.300   4.384  0.4101  0.2531  1.8819
  245MOL0     H32339   7.386  -0.157   4.260  0.1561  0.5039 -0.3558
  245MOL0     H32340   7.247   0.056   4.280 -2.2792  0.8244  1.8189
  246MOL0     O32341   3.313   7.988   0.931  0.4363 -1.0855 -0.0237
  246MOL0     C32342   3.315   8.101   0.976 -1.0278 -0.7492 -0.4184
  246MOL0     O32343   3.219   8.196   0.968  0.1774  0.6614 -0.1838
  246MOL0     C32344   3.108   8.177   0.887  0.1608  0.2403  0.8800
  246MOL0     C32345   3.121   8.126   0.758  0.0401  0.5613 -0.3449
  246MOL0     C32346   3.019   8.135   0.667 -0.0739 -0.7473  0.2920
  246MOL0     C32347   2.890   8.167   0.711 -0.0445  0.0255 -0.2387
  246MOL0     O32348   2.794   8.149   0.625  0.6439 -0.4237  0.2443
  246MOL0     C32349   2.665   8.229   0.637 -0.0864 -0.1895 -0.3565
  246MOL0     C32350   2.567   8.189   0.526 -0.1061  0.5237  0.1318
  246MOL0     C32351   2.616   8.210   0.382  1.0827 -0.0090 -0.4798
  246MOL0     C32352   2.536   8.118   0.287 -0.2742 -0.3069  0.0016
  246MOL0     C32353   2.553   8.160   0.146  0.9032  0.5606  0.0088
  246MOL0     C32354   2.535   8.032   0.052 -0.3026 -0.5549 -0.4130
  246MOL0     C32355   2.464   8.073  -0.075  0.7645  0.1022 -0.2268
  246MOL0     C32356   2.447   7.946  -0.164  0.7417 -0.9661  0.2171
  246MOL0     N32357   2.369   7.983  -0.282  0.0115  0.0438 -0.6979
  246MOL0     C32358   2.403   8.060  -0.389 -0.0191 -0.5077 -0.3340
  246MOL0     C32359   2.285   8.086  -0.455  0.1259  0.4265  0.1354
  246MOL0     C32360   2.271   8.168  -0.580 -0.0107  0.5326  0.1290
  246MOL0     C32361   2.151   8.265  -0.573 -0.1588 -0.4723 -0.0636
  246MOL0     C32362   2.146   8.359  -0.695 -0.1731  0.0190 -0.1931
  246MOL0     C32363   2.089   8.280  -0.817  0.2994 -0.3497  0.0037
  246MOL0     O32364   1.948   8.323  -0.838 -0.0027 -0.3910 -0.1151
  246MOL0     C32365   1.869   8.246  -0.919  0.1627 -0.1309  0.1958
  246MOL0     C32366   1.900   8.130  -0.977 -0.0133 -0.8865  0.9543
  246MOL0     C32367   1.811   8.056  -1.063 -0.5906  0.4193 -0.8894
  246MOL0     C32368   1.679   8.105  -1.075 -0.2488 -0.0132 -0.2536
  246MOL0     C32369   1.572   8.029  -1.149 -0.6374  0.3459 -0.7863
  246MOL0     O32370   1.449   8.091  -1.173 -0.2553 -0.6338 -0.1176
  246MOL0     C32371   1.348   8.022  -1.237  0.8098 -0.3960  0.2014
  246MOL0     C32372   1.224   8.013  -1.171 -0.7402 -0.3291  0.6914
  246MOL0     C32373   1.122   7.955  -1.237 -0.9256  0.3565  0.0751
  246MOL0     C32374   1.132   7.895  -1.360 -0.6001  0.2977  0.6068
  246MOL0     O32375   1.034   7.816  -1.406  0.1721 -0.2548  0.1615
  246MOL0     C32376   0.948   7.871  -1.509  0.2180  0.1939  0.4227
  246MOL0     C32377   0.809   7.812  -1.474  0.8131  1.0003 -0.5763
  246MOL0     C32378   0.695   7.840  -1.574  0.7407 -0.6623 -0.0573
  246MOL0     C32379   0.587   7.753  -1.518  0.5455  0.6197 -0.1006
  246MOL0     C32380   0.466   7.764  -1.606 -0.4122 -0.8135  0.4309
  246MOL0     C32381   0.461   7.658  -1.716 -0.0388  0.1921 -0.0684
  246MOL0     C32382   0.359   7.705  -1.824 -0.2965  0.2673  0.0209
  246MOL0     C32383   0.357   7.583  -1.923 -0.2591  0.0302 -0.0175
  246MOL0    Cl32384   0.249   7.613  -2.066  0.1529 -0.3619  0.0995
  246MOL0     C32385   1.259   7.901  -1.428 -0.7910  0.3020  0.5764
  246MOL0     C32386   1.364   7.962  -1.364  0.3915 -0.0314  0.1248
  246MOL0     O32387   1.611   7.918  -1.200  0.5091  0.5387 -1.3942
  246MOL0     C32388   1.652   8.229  -1.020 -0.4762 -0.1552 -0.0530
  246MOL0     C32389   1.742   8.304  -0.953 -0.2915  0.6924 -0.1217
  246MOL0     N32390   2.185   8.011  -0.393 -0.0957  0.1474 -0.8348
  246MOL0     N32391   2.236   7.951  -0.295 -0.8398 -0.3325  0.1177
  246MOL0     C32392   2.877   8.200   0.844  0.0801 -0.4157  1.6031
  246MOL0     C32393   2.983   8.196   0.930  0.0202 -0.3987 -0.3269
  246MOL0     C32394   3.421   8.132   1.088 -0.4666 -0.5274 -0.4572
  246MOL0     C32395   3.443   8.254   1.141  0.0209 -0.8152  0.1656
  246MOL0     C32396   3.533   8.279   1.243  0.0061 -0.2507 -0.2565
  246MOL0     C32397   3.608   8.178   1.297 -1.1060 -0.3263  0.6516
  246MOL0     O32398   3.680   8.211   1.411 -0.0508 -0.7594 -0.2041
  246MOL0     C32399   3.770   8.118   1.473 -0.5808  0.0554 -0.4404
  246MOL0     C32400   3.914   8.179   1.468  0.1145 -0.3052  0.5551
  246MOL0     C32401   3.956   8.215   1.320 -0.0811 -0.3510  0.6396
  246MOL0     C32402   3.951   8.091   1.240 -0.9228 -0.7921  0.7572
  246MOL0     C32403   4.040   8.103   1.125 -0.2636  0.5516  0.5098
  246MOL0     C32404   4.132   8.083   1.047 -0.9856  0.1657 -0.3678
  246MOL0     C32405   3.590   8.047   1.245  0.2027 -0.0513  0.2119
  246MOL0     C32406   3.487   8.028   1.144 -0.4281  0.0804  0.3006
  246MOL0     H32407   3.213   8.093   0.710  0.1133  0.1534  0.0635
  246MOL0     H32408   3.050   8.116   0.565  3.5145  2.3750  0.5874
  246MOL0     H32409   2.672   8.338   0.642 -0.8574 -0.1700  0.7758
  246MOL0     H32410   2.625   8.195   0.733 -0.7782 -0.2230 -0.6527
  246MOL0     H32411   2.462   8.216   0.543  0.1440 -0.5543  4.8863
  246MOL0     H32412   2.563   8.079   0.530  2.6339  0.3747  0.8548
  246MOL0     H32413   2.724   8.198   0.381  1.2427  1.1567  0.2280
  246MOL0     H32414   2.594   8.314   0.356 -0.0941  0.4267  1.9442
  246MOL0     H32415   2.556   8.013   0.310  2.4698  0.6486  2.6704
  246MOL0     H32416   2.431   8.129   0.317  0.0154  0.9633  0.6458
  246MOL0     H32417   2.649   8.209   0.126  1.4506  0.4105  2.0563
  246MOL0     H32418   2.486   8.242   0.121 -1.4944 -1.3819 -0.2659
  246MOL0     H32419   2.472   7.958   0.101 -2.2694  1.7871  0.8648
  246MOL0     H32420   2.634   7.996   0.023  0.1250 -0.1784  0.5107
  246MOL0     H32421   2.367   8.123  -0.059  0.6512  0.5497 -2.1039
  246MOL0     H32422   2.517   8.154  -0.127 -0.9101  0.8814 -0.8049
  246MOL0     H32423   2.398   7.860  -0.118 -1.5052  0.7498  1.2118
  246MOL0     H32424   2.544   7.912  -0.200  1.8195  0.7020  1.3896
  246MOL0     H32425   2.501   8.101  -0.406  0.2064  0.3350  2.5030
  246MOL0     H32426   2.253   8.096  -0.661 -1.6053  2.3669 -1.2285
  246MOL0     H32427   2.368   8.214  -0.605  0.1015 -0.0666 -0.5834
  246MOL0     H32428   2.171   8.331  -0.488  4.3760  1.4152 -2.2350
  246MOL0     H32429   2.057   8.210  -0.571 -0.1668 -0.8655 -3.7749
  246MOL0     H32430   2.103   8.456  -0.670  2.0241  0.5231  2.0286
  246MOL0     H32431   2.251   8.387  -0.709 -0.3479  1.0451  0.4369
  246MOL0     H32432   2.109   8.174  -0.807  0.2875 -0.1963  2.0695
  246MOL0     H32433   2.152   8.318  -0.898  2.4119 -0.2044  1.6377
  246MOL0     H32434   1.987   8.071  -0.950  1.2999  0.3686 -0.3678
  246MOL0     H32435   1.855   7.964  -1.099  0.0265  0.2741  0.1843
  246MOL0     H32436   1.216   8.061  -1.074  0.4862  1.7617 -0.1625
  246MOL0     H32437   1.030   7.942  -1.182 -1.1827  0.1465 -0.3970
  246MOL0     H32438   0.984   7.826  -1.601 -1.1532 -2.2064  0.9758
  246MOL0     H32439   0.942   7.980  -1.512  2.7961  0.5029  2.3664
  246MOL0     H32440   0.770   7.848  -1.379  1.0964 -0.8241  0.2720
  246MOL0     H32441   0.824   7.704  -1.475 -2.0076  0.5241  1.0544
  246MOL0     H32442   0.713   7.822  -1.680  0.4192 -1.0757 -0.0459
  246MOL0     H32443   0.661   7.944  -1.571 -1.9105 -1.4197 -1.0232
  246MOL0     H32444   0.608   7.646  -1.510 -2.4522  0.0568  2.0289
  246MOL0     H32445   0.572   7.787  -1.415  2.7800  1.5988 -0.0429
  246MOL0     H32446   0.443   7.864  -1.643  0.3553 -1.0996 -0.8788
  246MOL0     H32447   0.377   7.740  -1.547  1.5837 -3.6854  2.5598
  246MOL0     H32448   0.450   7.554  -1.686  1.9749 -0.3078 -0.8897
  246MOL0     H32449   0.559   7.650  -1.764 -0.3404  1.4027 -0.9536
  246MOL0     H32450   0.258   7.732  -1.790 -0.6422  0.4631 -1.1226
  246MOL0     H32451   0.399   7.790  -1.880  2.3526 -0.0074  1.3429
  246MOL0     H32452   0.313   7.500  -1.866  0.6119 -0.3702  0.0817
  246MOL0     H32453   0.457   7.548  -1.949 -0.3724 -0.1536 -0.2124
  246MOL0     H32454   1.282   7.855  -1.524 -1.9333  4.1192 -1.7469
  246MOL0     H32455   1.461   7.965  -1.413 -1.2906 -1.4681 -3.7277
  246MOL0     H32456   1.557   8.278  -1.042 -0.0128 -0.8130 -4.6017
  246MOL0     H32457   1.709   8.398  -0.909 -1.4105 -0.8623  2.6733
  246MOL0     H32458   2.781   8.215   0.892 -1.9013 -0.9274 -1.8696
  246MOL0     H32459   2.960   8.225   1.032  1.0201 -0.2836 -0.1272
  246MOL0     H32460   3.391   8.336   1.093 -0.6909 -0.9645  0.6693
  246MOL0     H32461   3.540   8.383   1.275 -0.4956  0.0966 -1.2088
  246MOL0     H32462   3.770   8.018   1.428  0.3896  0.5389 -1.5678
  246MOL0     H32463   3.745   8.109   1.579 -0.5123  2.7742 -0.1186
  246MOL0     H32464   3.932   8.267   1.530  1.7490  0.4348 -0.9128
  246MOL0     H32465   3.979   8.097   1.499 -0.6895 -1.5995 -1.0130
  246MOL0     H32466   4.051   8.269   1.317  0.6895 -1.5692  1.9593
  246MOL0     H32467   3.881   8.288   1.288  0.1469  0.2056  1.3286
  246MOL0     H32468   3.984   7.998   1.288 -0.6287 -1.3477 -0.4840
  246MOL0     H32469   3.854   8.074   1.192 -0.1994  0.3468 -1.2302
  246MOL0     H32470   4.207   8.055   0.976 -1.8370 -0.9717 -0.8532
  246MOL0     H32471   3.649   7.969   1.292  1.4402  1.9011  2.1580
  246MOL0     H32472   3.472   7.924   1.117  2.0482  0.0396 -1.2444
  247MOL0     O32473   5.656   2.795   4.666 -0.1370  0.0600  0.0217
  247MOL0     C32474   5.640   2.679   4.615  1.2261 -1.4527 -0.2502
  247MOL0     O32475   5.519   2.614   4.595  0.1706  0.3259 -0.6693
  247MOL0     C32476   5.399   2.683   4.621 -0.3753  0.7002 -0.2702
  247MOL0     C32477   5.292   2.622   4.699 -1.0278 -0.6364 -0.4265
  247MOL0     C32478   5.172   2.680   4.724  0.2999 -0.2889  0.0276
  247MOL0     C32479   5.154   2.810   4.692  0.1129 -0.0560 -0.6131
  247MOL0     O32480   5.044   2.874   4.728  0.2873  0.4517 -0.1338
  247MOL0     C32481   5.004   2.982   4.633 -0.2334 -0.0125  0.1032
  247MOL0     C32482   4.891   3.047   4.709 -0.0468  0.2381  0.6512
  247MOL0     C32483   4.784   2.939   4.755 -0.2992 -0.3130  0.3990
  247MOL0     C32484   4.665   3.012   4.813  0.2080 -0.2445  0.2667
  247MOL0     C32485   4.562   2.910   4.847  1.0571 -1.8133  0.0722
  247MOL0     C32486   4.420   2.969   4.876 -0.1191 -0.2890  0.0593
  247MOL0     C32487   4.334   2.844   4.931 -0.1783  0.1260 -0.5330
  247MOL0     C32488   4.188   2.891   4.941 -0.1657  0.0324  0.5128
  247MOL0     N32489   4.103   2.787   4.997 -0.3338  0.5701 -0.8225
  247MOL0     C32490   4.027   2.809   5.110 -0.1923 -0.5777  0.2821
  247MOL0     C32491   3.908   2.759   5.105  0.1946  0.8961 -0.5128
  247MOL0     C32492   3.796   2.774   5.204 -0.8297 -0.1165  0.0043
  247MOL0     C32493   3.723   2.912   5.209 -0.5526 -0.8314  0.1356
  247MOL0     C32494   3.640   2.920   5.333  0.0040 -1.5294 -0.3637
  247MOL0     C32495   3.571   3.057   5.344 -0.6102  0.1426 -1.2681
  247MOL0     O32496   3.474   3.063   5.243 -0.0662 -0.1647 -0.0133
  247MOL0     C32497   3.359   2.995   5.255  0.1510 -0.1313  0.6327
  247MOL0     C32498   3.319   2.917   5.362  0.1300 -0.1274  0.3935
  247MOL0     C32499   3.193   2.863   5.349  0.8619  0.4463 -1.3016
  247MOL0     C32500   3.100   2.881   5.244  0.6481  0.0471  0.4562
  247MOL0     C32501   2.957   2.840   5.241 -0.5010  0.2731 -0.4539
  247MOL0     O32502   2.876   2.878   5.136  0.2570  0.3949  0.5730
  247MOL0     C32503   2.740   2.861   5.162 -0.9336  0.3875  0.0376
  247MOL0     C32504   2.658   2.974   5.166 -0.3515  0.5887  0.4623
  247MOL0     C32505   2.527   2.962   5.195  0.7377  0.3257  1.1155
  247MOL0     C32506   2.462   2.837   5.211 -0.7009 -0.6270  0.2939
  247MOL0     O32507   2.323   2.836   5.226 -0.9664 -0.7289  0.2010
  247MOL0     C32508   2.254   2.745   5.134 -0.3149 -0.5679 -0.3681
  247MOL0     C32509   2.114   2.809   5.109  0.4552  0.4295 -0.3918
  247MOL0     C32510   2.000   2.704   5.086 -0.6652  0.5825 -0.1756
  247MOL0     C32511   1.860   2.768   5.077 -0.0551  0.1067  0.4175
  247MOL0     C32512   1.736   2.668   5.080 -0.6836 -0.4302  0.6579
  247MOL0     C32513   1.614   2.729   5.125  0.3603  0.2156  0.3270
  247MOL0     C32514   1.476   2.663   5.111  1.1361  0.4395  0.3330
  247MOL0     C32515   1.375   2.777   5.121  0.5443  0.6608  0.1588
  247MOL0    Cl32516   1.208   2.713   5.129 -0.2151  0.2250 -0.0676
  247MOL0     C32517   2.534   2.717   5.179  0.5790 -0.7754  0.1908
  247MOL0     C32518   2.674   2.734   5.163 -0.3327 -0.8999  0.9534
  247MOL0     O32519   2.923   2.790   5.347  0.5222  0.5377  0.4403
  247MOL0     C32520   3.154   2.956   5.135  0.5838 -0.2060 -0.1731
  247MOL0     C32521   3.280   3.013   5.144  0.3042  0.2404  0.5146
  247MOL0     N32522   3.903   2.704   4.979  0.3483  0.6789  1.0625
  247MOL0     N32523   4.009   2.727   4.913  0.0442 -0.2656 -1.0561
  247MOL0     C32524   5.266   2.887   4.634 -0.2333 -0.1558  0.4531
  247MOL0     C32525   5.385   2.821   4.587  0.2088  0.1754  0.1822
  247MOL0     C32526   5.758   2.606   4.597  0.3509  0.1132 -0.2345
  247MOL0     C32527   5.884   2.641   4.645 -0.4198 -0.4591 -0.1744
  247MOL0     C32528   5.996   2.572   4.619 -0.4309  0.2831 -0.0616
  247MOL0     C32529   5.996   2.447   4.551 -0.4714  0.0099 -0.4176
  247MOL0     O32530   6.107   2.367   4.522 -0.0370 -0.3771 -0.1560
  247MOL0     C32531   6.235   2.418   4.574 -0.4905 -1.1192 -0.2983
  247MOL0     C32532   6.257   2.378   4.720 -0.5684  0.7435  0.8099
  247MOL0     C32533   6.340   2.484   4.801  0.5945 -0.1309  0.9083
  247MOL0     C32534   6.362   2.450   4.944  0.2675  0.3145  0.1326
  247MOL0     C32535   6.238   2.462   5.019  0.0180 -0.7203 -0.0388
  247MOL0     C32536   6.125   2.461   5.069 -0.2104 -0.3426 -0.4786
  247MOL0     C32537   5.866   2.399   4.507 -0.8168 -0.1721 -0.2594
  247MOL0     C32538   5.753   2.475   4.534 -0.6921 -0.5002  0.1365
  247MOL0     H32539   5.301   2.517   4.726 -0.3661  0.1134  2.6220
  247MOL0     H32540   5.093   2.633   4.781 -1.1659  3.3051  1.2667
  247MOL0     H32541   4.988   2.933   4.537 -1.4276 -0.8286  0.6892
  247MOL0     H32542   5.081   3.060   4.632  1.4908 -1.5451  2.0912
  247MOL0     H32543   4.840   3.113   4.637  2.4470  0.1930 -1.3021
  247MOL0     H32544   4.932   3.099   4.796 -0.0534 -0.7021  1.2191
  247MOL0     H32545   4.823   2.875   4.834 -1.8926 -2.0388 -0.1626
  247MOL0     H32546   4.759   2.880   4.666  1.3158  0.9142 -0.9343
  247MOL0     H32547   4.681   3.067   4.906  0.0030  0.1983  0.0382
  247MOL0     H32548   4.627   3.069   4.728  3.4689 -0.8229 -1.7439
  247MOL0     H32549   4.590   2.856   4.937 -1.6507 -1.1129  1.4278
  247MOL0     H32550   4.556   2.843   4.761  1.9490  0.8831 -2.2635
  247MOL0     H32551   4.365   3.017   4.795 -0.5018 -1.3505 -0.3350
  247MOL0     H32552   4.436   3.042   4.956  1.5062 -0.3182 -0.2038
  247MOL0     H32553   4.335   2.760   4.860 -0.6005 -1.3167  1.1173
  247MOL0     H32554   4.369   2.818   5.031  0.5852 -3.3246 -1.5614
  247MOL0     H32555   4.151   2.919   4.842  0.1801 -1.3057 -0.0187
  247MOL0     H32556   4.180   2.980   5.004  0.8131  0.6834 -0.2355
  247MOL0     H32557   4.064   2.870   5.193 -3.3625  1.5668  0.3118
  247MOL0     H32558   3.832   2.751   5.304 -2.8713  4.1864  2.0043
  247MOL0     H32559   3.715   2.703   5.186 -0.8901 -0.2009  0.5967
  247MOL0     H32560   3.649   2.933   5.131 -1.7152 -0.2077  1.3727
  247MOL0     H32561   3.796   2.992   5.222  1.2765 -2.1432 -1.4230
  247MOL0     H32562   3.570   2.836   5.331 -2.0576  0.1083 -1.5616
  247MOL0     H32563   3.697   2.904   5.425 -0.0965 -1.0095 -0.2089
  247MOL0     H32564   3.650   3.132   5.333 -1.8222  1.5194 -0.9102
  247MOL0     H32565   3.525   3.066   5.442  1.1091  1.3160 -0.5323
  247MOL0     H32566   3.382   2.899   5.449 -1.7958 -0.1402  1.8723
  247MOL0     H32567   3.156   2.808   5.435  2.7107  1.6877  0.3516
  247MOL0     H32568   2.699   3.068   5.132 -0.8916  0.1971 -1.4035
  247MOL0     H32569   2.468   3.053   5.185  1.5803  0.7310 -0.4421
  247MOL0     H32570   2.233   2.656   5.192 -1.9583  2.3185  3.9577
  247MOL0     H32571   2.307   2.739   5.038  1.3039 -0.1845  0.4606
  247MOL0     H32572   2.127   2.876   5.024  2.2816 -0.9269 -1.2521
  247MOL0     H32573   2.087   2.874   5.193  1.6125 -0.1760  0.4843
  247MOL0     H32574   1.997   2.650   5.181  3.1495 -1.1811 -0.8745
  247MOL0     H32575   2.016   2.634   5.004  1.8322 -1.8025  2.1455
  247MOL0     H32576   1.852   2.834   5.164  0.4581  1.2594 -0.3851
  247MOL0     H32577   1.858   2.830   4.987  2.9075  1.5475  1.1919
  247MOL0     H32578   1.761   2.591   5.154 -2.2322  0.5426  2.2627
  247MOL0     H32579   1.731   2.629   4.978  1.8301  0.4482  0.1210
  247MOL0     H32580   1.603   2.819   5.064  0.0047 -0.3741 -0.4885
  247MOL0     H32581   1.619   2.773   5.225 -1.8507  0.6427  0.2965
  247MOL0     H32582   1.467   2.607   5.017 -0.0010 -0.2715  0.8503
  247MOL0     H32583   1.448   2.593   5.190 -1.6163 -1.1886 -1.8724
  247MOL0     H32584   1.387   2.851   5.041 -1.6390  0.6861 -0.2049
  247MOL0     H32585   1.399   2.818   5.219  2.4748  1.8409 -0.7535
  247MOL0     H32586   2.485   2.621   5.184  0.2123 -0.5442  1.2485
  247MOL0     H32587   2.734   2.644   5.151  0.5923 -0.1384 -0.4434
  247MOL0     H32588   3.093   2.969   5.046  0.5487  2.5952  0.1705
  247MOL0     H32589   3.320   3.081   5.070 -0.2673  0.8576  0.7672
  247MOL0     H32590   5.277   2.995   4.624 -0.0737 -0.1254  0.9535
  247MOL0     H32591   5.451   2.879   4.524 -1.7908  0.7767 -1.4660
  247MOL0     H32592   5.892   2.731   4.706  2.4820 -1.9698  1.9542
  247MOL0     H32593   6.092   2.613   4.649  0.7902 -2.2017 -0.3015
  247MOL0     H32594   6.253   2.524   4.557 -0.8384 -1.2793 -1.7445
  247MOL0     H32595   6.314   2.381   4.508  1.0250  0.8596  0.3022
  247MOL0     H32596   6.163   2.374   4.777  0.0142  0.6715  1.7952
  247MOL0     H32597   6.313   2.285   4.729  3.2741  2.8686  1.2615
  247MOL0     H32598   6.296   2.584   4.791 -0.7462 -0.7552  0.1834
  247MOL0     H32599   6.441   2.479   4.759  0.6354  0.5552  0.9140
  247MOL0     H32600   6.402   2.350   4.964 -0.7968  0.1752  1.8526
  247MOL0     H32601   6.432   2.526   4.981  0.8465  0.4686 -1.2434
  247MOL0     H32602   6.025   2.456   5.105  0.3119 -1.2330  0.9067
  247MOL0     H32603   5.856   2.296   4.472  0.6106 -0.7802  1.0090
  247MOL0     H32604   5.656   2.434   4.505 -0.8179 -1.7430  2.1407
  248MOL0     O32605  10.907   6.595   3.671  0.7446  0.2366 -0.3778
  248MOL0     C32606  10.956   6.693   3.628 -0.4044  0.1162  0.4166
  248MOL0     O32607  10.897   6.784   3.540  0.5119 -0.8499 -0.7980
  248MOL0     C32608  10.762   6.771   3.501 -0.5278 -0.6221 -0.6949
  248MOL0     C32609  10.696   6.653   3.474 -0.1518  0.1405 -0.6377
  248MOL0     C32610  10.566   6.657   3.429  0.1188  0.1587  1.3638
  248MOL0     C32611  10.513   6.778   3.382  0.6863  0.7954  1.0460
  248MOL0     O32612  10.398   6.782   3.308  0.2392 -0.5088 -0.0760
  248MOL0     C32613  10.302   6.682   3.323  0.0887  0.6542  0.2778
  248MOL0     C32614  10.173   6.704   3.241 -0.1329 -0.1243  0.1697
  248MOL0     C32615  10.061   6.600   3.265 -0.4801  0.6357 -0.3302
  248MOL0     C32616   9.953   6.604   3.160  0.6546  0.7395 -0.6567
  248MOL0     C32617   9.826   6.679   3.207  0.4363  0.1137  0.6125
  248MOL0     C32618   9.703   6.620   3.128 -0.3805  0.2525 -0.0153
  248MOL0     C32619   9.578   6.681   3.164 -0.2163 -0.1341 -0.2272
  248MOL0     C32620   9.570   6.835   3.145 -0.0084  0.6318 -0.2520
  248MOL0     N32621   9.441   6.894   3.182  0.1350 -0.4589  0.5900
  248MOL0     C32622   9.316   6.868   3.123 -0.2719  0.3218  0.0044
  248MOL0     C32623   9.228   6.902   3.224 -0.1095  0.7404 -0.1841
  248MOL0     C32624   9.072   6.877   3.224 -0.0798 -0.6689 -1.2767
  248MOL0     C32625   9.027   6.787   3.117 -0.7459 -0.2874  0.3107
  248MOL0     C32626   8.984   6.855   2.979 -0.9727 -0.7596 -0.8234
  248MOL0     C32627   8.971   6.752   2.867 -0.3831 -0.0568 -0.9285
  248MOL0     O32628   9.093   6.672   2.855  0.1760  0.0657  0.0104
  248MOL0     C32629   9.208   6.720   2.797 -0.6405 -0.8896  0.2699
  248MOL0     C32630   9.321   6.641   2.807  0.0639  0.7778 -0.0645
  248MOL0     C32631   9.443   6.683   2.757  0.0143  0.2209 -0.6737
  248MOL0     C32632   9.465   6.805   2.704  0.6935  0.2387  0.3962
  248MOL0     C32633   9.593   6.858   2.654  0.2517 -0.0077  0.5474
  248MOL0     O32634   9.707   6.813   2.728 -0.1040  0.6356  0.0324
  248MOL0     C32635   9.835   6.850   2.721 -0.2054 -0.1157  1.1687
  248MOL0     C32636   9.915   6.817   2.831  0.1512  1.1649 -0.6248
  248MOL0     C32637  10.050   6.853   2.836  0.7941  0.2914 -0.6102
  248MOL0     C32638  10.109   6.914   2.725 -0.2949 -0.0089 -0.1141
  248MOL0     O32639  10.246   6.947   2.731 -0.2009  0.0994  0.1441
  248MOL0     C32640  10.338   6.838   2.717 -0.2977 -0.4169  0.0958
  248MOL0     C32641  10.469   6.906   2.678 -0.2280 -0.2203 -0.5880
  248MOL0     C32642  10.578   6.802   2.676  0.5098 -0.2241 -0.4834
  248MOL0     C32643  10.710   6.856   2.629 -0.6105  0.2930  0.1302
  248MOL0     C32644  10.814   6.854   2.742  0.9040 -0.6742 -0.0667
  248MOL0     C32645  10.940   6.905   2.685  0.1229  0.2213  0.3265
  248MOL0     C32646  11.031   6.947   2.801  0.0745 -0.1129 -0.8406
  248MOL0     C32647  11.158   7.006   2.762  0.0681  0.4860 -0.0043
  248MOL0    Cl32648  11.246   7.046   2.908  0.2372 -0.1194  0.2040
  248MOL0     C32649  10.035   6.954   2.614 -0.6777  0.4235 -0.1302
  248MOL0     C32650   9.901   6.920   2.616 -0.7544 -0.1341  0.5987
  248MOL0     O32651   9.594   6.947   2.565 -0.2624 -0.0193  0.4387
  248MOL0     C32652   9.351   6.899   2.704 -0.2124  0.3586  0.7550
  248MOL0     C32653   9.222   6.856   2.755 -0.6915  0.4502 -0.5787
  248MOL0     N32654   9.292   6.948   3.333  0.2824 -0.4894 -0.8162
  248MOL0     N32655   9.417   6.937   3.308 -0.3464  0.1854  0.0173
  248MOL0     C32656  10.577   6.899   3.408 -0.0298 -0.0784  0.2926
  248MOL0     C32657  10.702   6.899   3.468  0.2155  0.3886 -0.1204
  248MOL0     C32658  11.096   6.715   3.659 -0.3195  1.1183 -0.5408
  248MOL0     C32659  11.186   6.787   3.583  0.2504  0.1502  0.0798
  248MOL0     C32660  11.317   6.813   3.632 -0.6543 -0.5476 -0.0635
  248MOL0     C32661  11.365   6.757   3.745 -0.4462  0.4922  0.1571
  248MOL0     O32662  11.498   6.789   3.782  0.1837 -0.2747  0.0769
  248MOL0     C32663  11.585   6.693   3.854  0.2075  0.5146  0.2425
  248MOL0     C32664  11.627   6.724   3.994  0.3617 -0.1823 -0.4235
  248MOL0     C32665  11.757   6.799   4.020  0.2872  0.4340 -0.1793
  248MOL0     C32666  11.808   6.780   4.163 -0.5778 -0.3270  0.1566
  248MOL0     C32667  11.755   6.883   4.247 -0.1540 -0.2866  0.1999
  248MOL0     C32668  11.743   6.962   4.338  0.9792 -0.0895  0.0658
  248MOL0     C32669  11.281   6.672   3.824 -0.3140 -0.2660  1.1177
  248MOL0     C32670  11.148   6.659   3.787  0.3830 -0.1036 -0.2294
  248MOL0     H32671  10.745   6.557   3.483  0.5461  0.6463  1.7658
  248MOL0     H32672  10.513   6.564   3.412 -0.0707  0.3979  0.6014
  248MOL0     H32673  10.267   6.679   3.427  0.1693  0.8159  0.3101
  248MOL0     H32674  10.333   6.582   3.290  1.3153  1.6513 -1.7567
  248MOL0     H32675  10.201   6.703   3.135  3.3644  0.9477  0.9404
  248MOL0     H32676  10.143   6.805   3.269  3.5380  0.7429  1.5262
  248MOL0     H32677  10.018   6.614   3.364  0.3233 -1.6528  0.3920
  248MOL0     H32678  10.105   6.500   3.266  0.6779  1.1094  1.5704
  248MOL0     H32679   9.985   6.652   3.067  0.0605  1.5094 -0.4747
  248MOL0     H32680   9.923   6.500   3.143  1.5851  0.1314  1.1300
  248MOL0     H32681   9.849   6.784   3.185  0.0013  0.0478 -0.1958
  248MOL0     H32682   9.806   6.668   3.314 -0.2382  1.7946  0.6907
  248MOL0     H32683   9.694   6.514   3.153 -1.1752  0.4728  0.6801
  248MOL0     H32684   9.706   6.624   3.018  0.2658  1.9855  0.0356
  248MOL0     H32685   9.505   6.628   3.102  1.0006 -2.0802 -0.0859
  248MOL0     H32686   9.559   6.662   3.270 -0.5326 -0.5673 -0.3590
  248MOL0     H32687   9.601   6.855   3.042  1.3114 -2.7840 -0.6599
  248MOL0     H32688   9.644   6.877   3.214 -0.8807  0.2296  0.9583
  248MOL0     H32689   9.284   6.830   3.027 -4.5528  2.3813  0.3529
  248MOL0     H32690   9.042   6.982   3.227 -1.5935 -1.0739  1.4548
  248MOL0     H32691   9.045   6.832   3.320  0.9971 -0.4479 -0.8478
  248MOL0     H32692   8.933   6.740   3.146 -1.0371 -0.7146 -1.2322
  248MOL0     H32693   9.098   6.708   3.092 -2.7761 -1.8091 -1.0286
  248MOL0     H32694   8.890   6.901   3.008 -0.7429 -1.6401  1.5420
  248MOL0     H32695   9.050   6.939   2.956 -1.9180  0.8713  1.8847
  248MOL0     H32696   8.952   6.810   2.777 -0.3255 -0.3830 -1.1523
  248MOL0     H32697   8.889   6.686   2.898  0.2075  0.7232  2.8108
  248MOL0     H32698   9.327   6.538   2.840  0.9183  0.4084 -1.3238
  248MOL0     H32699   9.523   6.610   2.746  0.4148  0.8216 -1.9545
  248MOL0     H32700   9.870   6.764   2.914  1.2334 -1.4955 -1.6182
  248MOL0     H32701  10.115   6.825   2.918  1.6849 -0.4230 -1.5330
  248MOL0     H32702  10.313   6.765   2.639  1.1878  0.8508 -1.6566
  248MOL0     H32703  10.352   6.783   2.810  0.8744  0.9356  0.7584
  248MOL0     H32704  10.494   6.979   2.755  0.8643  1.6065 -2.5533
  248MOL0     H32705  10.459   6.962   2.584 -2.3392  1.5870  0.6022
  248MOL0     H32706  10.547   6.719   2.612 -0.9774 -0.7865  0.8923
  248MOL0     H32707  10.587   6.771   2.781 -0.1110 -0.2608 -0.4356
  248MOL0     H32708  10.748   6.798   2.545  0.4687  0.6231  0.3648
  248MOL0     H32709  10.698   6.961   2.600 -1.5284  0.3400  0.6400
  248MOL0     H32710  10.831   6.754   2.783  0.1664 -0.5416  0.5643
  248MOL0     H32711  10.781   6.926   2.817  1.3766  2.0036 -2.2401
  248MOL0     H32712  10.933   6.977   2.604  0.3090 -0.6053 -0.4396
  248MOL0     H32713  10.997   6.823   2.641  0.9145 -0.8932  3.1499
  248MOL0     H32714  10.980   7.027   2.855  1.9554  0.1858  0.5914
  248MOL0     H32715  11.052   6.859   2.863 -0.7152  1.6081  2.0308
  248MOL0     H32716  11.150   7.096   2.700 -1.0761 -0.3026 -1.0570
  248MOL0     H32717  11.205   6.928   2.702  1.9337  0.9270  0.7924
  248MOL0     H32718  10.080   7.008   2.532 -3.1679 -0.1389 -2.0025
  248MOL0     H32719   9.843   6.945   2.528 -1.3982 -1.3815  0.6511
  248MOL0     H32720   9.368   7.004   2.684  1.2105  0.2992  1.5399
  248MOL0     H32721   9.135   6.922   2.761 -0.3376  0.9540 -0.8667
  248MOL0     H32722  10.543   6.997   3.374 -2.7808 -1.4242 -1.1545
  248MOL0     H32723  10.749   6.993   3.494 -0.6885  0.1669  2.5998
  248MOL0     H32724  11.145   6.832   3.492 -1.8314  3.7814  2.5624
  248MOL0     H32725  11.384   6.869   3.567  0.7745 -2.0256  0.0653
  248MOL0     H32726  11.676   6.704   3.794  1.1694 -0.5029  1.4724
  248MOL0     H32727  11.552   6.589   3.854 -1.4627  1.0010  1.3381
  248MOL0     H32728  11.539   6.764   4.046  2.0059  0.3360  2.1397
  248MOL0     H32729  11.642   6.630   4.048  1.7274  0.5985  0.6389
  248MOL0     H32730  11.744   6.901   3.982  0.7284 -0.6069 -3.4600
  248MOL0     H32731  11.837   6.756   3.959 -1.2247  0.1651 -2.0612
  248MOL0     H32732  11.773   6.687   4.208  0.1653  0.1453  1.7647
  248MOL0     H32733  11.917   6.773   4.162 -0.6256 -1.9080 -2.0718
  248MOL0     H32734  11.738   7.030   4.421 -0.1226  0.8085 -0.7207
  248MOL0     H32735  11.326   6.629   3.913  1.7276  0.8473  0.6811
  248MOL0     H32736  11.088   6.591   3.848  0.1508 -0.6178 -1.0124
  249MOL0     O32737   1.736   9.825   7.248 -0.2112 -0.4994 -0.2732
  249MOL0     C32738   1.857   9.824   7.270  0.1475  0.5478  1.1316
  249MOL0     O32739   1.930   9.933   7.293  0.3696  0.0746 -0.1724
  249MOL0     C32740   1.861  10.033   7.352 -0.3946 -0.5154 -0.6187
  249MOL0     C32741   1.823  10.035   7.487  0.5364 -0.6880 -0.2186
  249MOL0     C32742   1.766  10.147   7.543  0.4091 -0.3362 -0.5854
  249MOL0     C32743   1.748  10.262   7.466 -0.4903 -0.4531  0.4715
  249MOL0     O32744   1.687  10.377   7.525  0.6903  0.1116 -0.2146
  249MOL0     C32745   1.572  10.435   7.460 -0.4033  0.1237 -0.2687
  249MOL0     C32746   1.522  10.532   7.565 -0.4138 -0.0979  1.2913
  249MOL0     C32747   1.393  10.594   7.515  0.4244 -0.1717  0.2753
  249MOL0     C32748   1.328  10.697   7.617 -0.4636 -0.3747 -0.5263
  249MOL0     C32749   1.173  10.706   7.599  0.5985  0.4872 -0.5394
  249MOL0     C32750   1.127  10.746   7.453  0.6294 -0.0303 -0.2698
  249MOL0     C32751   0.971  10.761   7.434  0.4813  0.7397  0.0345
  249MOL0     C32752   0.940  10.849   7.316  0.1334 -0.0648  0.0020
  249MOL0     N32753   0.795  10.842   7.289 -0.1187 -0.1120  0.1097
  249MOL0     C32754   0.722  10.756   7.203  0.2393  0.0003 -0.5796
  249MOL0     C32755   0.592  10.762   7.238 -0.7677 -0.9428 -0.1293
  249MOL0     C32756   0.491  10.676   7.184  0.8794  0.0238 -0.0599
  249MOL0     C32757   0.486  10.551   7.280  0.4145 -0.6469  0.3393
  249MOL0     C32758   0.447  10.565   7.428 -0.4845 -0.3116  0.5468
  249MOL0     C32759   0.309  10.621   7.446  0.4085  0.3881 -0.3022
  249MOL0     O32760   0.212  10.531   7.395  0.1898  0.2543  0.4796
  249MOL0     C32761   0.074  10.565   7.406 -0.4997  0.2530 -0.0166
  249MOL0     C32762  -0.023  10.502   7.324  1.2101 -0.8411 -0.4289
  249MOL0     C32763  -0.156  10.540   7.336  0.9305 -0.1648 -0.7026
  249MOL0     C32764  -0.193  10.629   7.446 -0.0513  0.1128  0.0313
  249MOL0     C32765  -0.334  10.639   7.483 -0.3639  0.9858  0.7850
  249MOL0     O32766  -0.430  10.552   7.431 -1.0060  0.7120 -0.1561
  249MOL0     C32767  -0.554  10.597   7.463 -0.3650  1.0404  0.4267
  249MOL0     C32768  -0.612  10.701   7.386  0.4773 -0.2725  0.0216
  249MOL0     C32769  -0.744  10.738   7.400  0.5083  0.2272  0.1690
  249MOL0     C32770  -0.816  10.681   7.509 -0.4912  0.0780  0.4125
  249MOL0     O32771  -0.942  10.730   7.525 -0.0862 -0.3619 -0.2376
  249MOL0     C32772  -1.041  10.640   7.470 -0.3728  0.7648 -0.2734
  249MOL0     C32773  -1.177  10.715   7.452  0.6691  0.5916  0.9155
  249MOL0     C32774  -1.165  10.843   7.355  0.5046  0.2835  0.0961
  249MOL0     C32775  -1.285  10.934   7.374  0.1788  0.4252  0.0203
  249MOL0     C32776  -1.419  10.891   7.293 -0.0885  0.8152  0.4341
  249MOL0     C32777  -1.542  10.976   7.317  0.9935 -0.1333 -0.2419
  249MOL0     C32778  -1.655  10.943   7.223  0.2939  0.5529  0.8086
  249MOL0     C32779  -1.787  11.020   7.254  0.3103 -0.0789  0.4254
  249MOL0    Cl32780  -1.912  10.958   7.142  0.2899 -0.0258  0.0946
  249MOL0     C32781  -0.763  10.575   7.581 -0.3326  0.4648  0.0586
  249MOL0     C32782  -0.631  10.539   7.559 -0.6261 -0.2404 -0.1839
  249MOL0     O32783  -0.352  10.725   7.567  0.4521  0.5025  0.0630
  249MOL0     C32784  -0.093  10.696   7.525  0.7237  0.9584 -0.5700
  249MOL0     C32785   0.038  10.669   7.489 -0.5943 -0.2044 -1.4619
  249MOL0     N32786   0.586  10.854   7.344  0.1948  0.6661 -0.7254
  249MOL0     N32787   0.704  10.893   7.370  0.2309  0.1554  0.2000
  249MOL0     C32788   1.788  10.267   7.329 -0.2782 -0.3088 -0.5335
  249MOL0     C32789   1.849  10.152   7.276  0.8482  0.6577  0.3999
  249MOL0     C32790   1.931   9.690   7.264 -0.2039 -0.8657 -0.1956
  249MOL0     C32791   1.866   9.564   7.259 -0.2516  0.0657  0.4300
  249MOL0     C32792   1.933   9.440   7.246 -0.0915  1.0923 -0.2822
  249MOL0     C32793   2.072   9.440   7.231 -0.0976 -0.0964  0.5695
  249MOL0     O32794   2.132   9.312   7.231 -0.0310 -0.4910  0.0310
  249MOL0     C32795   2.263   9.305   7.279 -0.3291 -0.5300 -0.0443
  249MOL0     C32796   2.317   9.167   7.264 -0.3266  0.6182  0.1527
  249MOL0     C32797   2.322   9.116   7.116  0.7303  0.0901 -0.2880
  249MOL0     C32798   2.384   8.973   7.090 -0.1009 -0.7131  0.7480
  249MOL0     C32799   2.521   8.968   7.145  1.2462  0.0516 -0.4247
  249MOL0     C32800   2.631   8.943   7.199  1.0009  0.3177 -0.9938
  249MOL0     C32801   2.141   9.562   7.232  0.8902 -0.3707 -0.4835
  249MOL0     C32802   2.073   9.688   7.252 -0.1285 -0.0018  0.0454
  249MOL0     H32803   1.847   9.955   7.556  0.1419 -1.2429 -0.7114
  249MOL0     H32804   1.746  10.165   7.648 -1.9820  2.2557 -1.3493
  249MOL0     H32805   1.503  10.355   7.429 -0.5859 -0.3304  1.2576
  249MOL0     H32806   1.591  10.488   7.366  2.1523  0.7536  0.5253
  249MOL0     H32807   1.586  10.621   7.577 -3.4106  2.7659 -1.7296
  249MOL0     H32808   1.507  10.478   7.659 -0.9776 -0.0961  1.2062
  249MOL0     H32809   1.318  10.520   7.487 -0.6272  1.0101 -0.1532
  249MOL0     H32810   1.413  10.654   7.426 -4.0498  2.6239  0.8239
  249MOL0     H32811   1.364  10.674   7.718  3.9006  1.4852 -1.4164
  249MOL0     H32812   1.383  10.789   7.596  1.2454 -0.9958  1.0257
  249MOL0     H32813   1.125  10.770   7.674 -0.3704 -0.5047 -0.2900
  249MOL0     H32814   1.138  10.607   7.631  0.4904 -0.0818 -2.3276
  249MOL0     H32815   1.162  10.671   7.381 -0.3317 -1.2140  0.4531
  249MOL0     H32816   1.188  10.833   7.429  0.8683  1.0334  3.5237
  249MOL0     H32817   0.924  10.663   7.424 -3.6494  2.2982  2.0256
  249MOL0     H32818   0.929  10.798   7.528 -2.2612  2.1502 -1.5969
  249MOL0     H32819   0.988  10.823   7.222 -0.4807  1.2787 -0.7192
  249MOL0     H32820   0.972  10.952   7.337 -0.6943 -0.2724  2.7155
  249MOL0     H32821   0.770  10.689   7.132  2.1860 -0.9002  1.4941
  249MOL0     H32822   0.510  10.644   7.081 -1.5764 -3.0987  0.3454
  249MOL0     H32823   0.389  10.714   7.189 -0.0050 -2.2761  0.3713
  249MOL0     H32824   0.579  10.495   7.269 -0.2537 -1.5516 -1.0237
  249MOL0     H32825   0.418  10.479   7.234 -1.4169  1.3600 -0.2525
  249MOL0     H32826   0.439  10.463   7.467  3.5038 -0.3979  1.5393
  249MOL0     H32827   0.516  10.627   7.485 -0.9076  0.2307  0.4816
  249MOL0     H32828   0.315  10.717   7.394 -0.0800  1.2088  1.0744
  249MOL0     H32829   0.307  10.628   7.556  2.7775  1.4659 -0.2613
  249MOL0     H32830  -0.002  10.427   7.248  1.9605  0.3729 -1.4657
  249MOL0     H32831  -0.236  10.480   7.294  1.2784 -0.8618 -0.3951
  249MOL0     H32832  -0.553  10.734   7.301 -0.4674  0.2998 -0.4225
  249MOL0     H32833  -0.799  10.803   7.333 -2.7477 -1.1465  1.3265
  249MOL0     H32834  -1.049  10.557   7.540  2.8952  1.0361  0.5916
  249MOL0     H32835  -1.007  10.594   7.377  0.2982 -1.2742  0.9258
  249MOL0     H32836  -1.219  10.750   7.547 -2.4020  3.5101 -1.2741
  249MOL0     H32837  -1.247  10.645   7.407 -1.0376  1.5591  1.9628
  249MOL0     H32838  -1.146  10.809   7.252  1.6667 -2.3737  1.0941
  249MOL0     H32839  -1.079  10.902   7.389  1.2349 -0.0765 -1.0613
  249MOL0     H32840  -1.316  10.935   7.479  3.7834 -0.5486  1.2485
  249MOL0     H32841  -1.262  11.036   7.341  0.1157  0.4344  0.0048
  249MOL0     H32842  -1.446  10.787   7.316 -0.7500  1.2320  1.6550
  249MOL0     H32843  -1.401  10.897   7.185 -1.4781 -0.1123  0.1242
  249MOL0     H32844  -1.526  11.079   7.284 -1.3782  1.5016  3.1429
  249MOL0     H32845  -1.588  10.968   7.415 -0.2490  1.5313 -0.6345
  249MOL0     H32846  -1.625  10.973   7.123  0.4409 -2.4607 -0.1500
  249MOL0     H32847  -1.666  10.834   7.229 -1.3777  0.6460 -0.1231
  249MOL0     H32848  -1.770  11.127   7.242 -0.1013 -0.1526 -1.0342
  249MOL0     H32849  -1.828  11.009   7.354 -1.5011 -1.2363 -0.3914
  249MOL0     H32850  -0.827  10.520   7.649 -2.8667  1.9814 -0.9398
  249MOL0     H32851  -0.596  10.447   7.606  0.2548 -0.3960 -1.0940
  249MOL0     H32852  -0.119  10.762   7.607 -1.3804 -2.0926  1.4331
  249MOL0     H32853   0.112  10.729   7.542  1.1865 -2.4031 -1.3318
  249MOL0     H32854   1.773  10.348   7.259 -3.0731 -0.8003 -0.6277
  249MOL0     H32855   1.874  10.166   7.171 -0.4451  1.8014  0.2255
  249MOL0     H32856   1.759   9.554   7.272 -0.3808  1.9183  1.2309
  249MOL0     H32857   1.877   9.347   7.240  0.6548  0.3580  2.8079
  249MOL0     H32858   2.260   9.316   7.388 -0.0699 -3.3254  0.3087
  249MOL0     H32859   2.328   9.373   7.222  0.4653 -3.0033 -2.2570
  249MOL0     H32860   2.420   9.183   7.298 -0.6596  2.8592  0.2624
  249MOL0     H32861   2.263   9.097   7.329 -3.1854  0.7779 -1.8513
  249MOL0     H32862   2.378   9.186   7.054  1.5558  1.1373  1.5593
  249MOL0     H32863   2.218   9.114   7.082  0.8952  1.7829 -0.9601
  249MOL0     H32864   2.318   8.904   7.143  1.1709 -0.6790  2.4714
  249MOL0     H32865   2.405   8.958   6.984 -2.0545 -0.9469  0.3646
  249MOL0     H32866   2.727   8.940   7.247  1.9979  2.4723 -2.6730
  249MOL0     H32867   2.248   9.578   7.222  0.8725 -0.4556 -0.8106
  249MOL0     H32868   2.105   9.788   7.279 -0.5915  0.2374 -0.2802
  250MOL0     O32869   0.931  10.479   0.910  0.1887 -0.3604  0.5505
  250MOL0     C32870   0.931  10.552   1.011 -0.0251 -0.0358 -0.1755
  250MOL0     O32871   0.830  10.624   1.053 -0.7216  0.0117 -0.4816
  250MOL0     C32872   0.710  10.602   0.990  0.1160 -0.1077 -0.8815
  250MOL0     C32873   0.658  10.700   0.915 -0.6173  0.1150 -0.0642
  250MOL0     C32874   0.527  10.692   0.864 -0.5885  0.3639  1.0291
  250MOL0     C32875   0.441  10.593   0.903 -0.6055 -0.0458  0.3391
  250MOL0     O32876   0.321  10.593   0.840  0.3788 -0.7037  0.3820
  250MOL0     C32877   0.258  10.466   0.809 -0.0280 -0.2457  0.4059
  250MOL0     C32878   0.121  10.506   0.753  0.6332  0.5590  0.1687
  250MOL0     C32879   0.033  10.392   0.698 -0.0769 -0.1781  0.1879
  250MOL0     C32880  -0.104  10.450   0.672  0.8642  0.0688  0.4271
  250MOL0     C32881  -0.221  10.344   0.692 -0.5888 -0.6662 -0.4709
  250MOL0     C32882  -0.346  10.433   0.735  0.3793  0.0684  0.4321
  250MOL0     C32883  -0.477  10.345   0.730 -0.0208 -0.5687  0.3885
  250MOL0     C32884  -0.612  10.418   0.774 -0.5831  0.2496  0.8860
  250MOL0     N32885  -0.731  10.337   0.755  0.1951 -0.5906  0.2467
  250MOL0     C32886  -0.753  10.207   0.792 -0.2783 -0.5258 -0.1611
  250MOL0     C32887  -0.859  10.158   0.716  0.3754  0.3794 -0.8515
  250MOL0     C32888  -0.911  10.016   0.729 -0.8148 -0.3923 -0.0277
  250MOL0     C32889  -1.013   9.982   0.619 -0.1694 -0.5653  0.9151
  250MOL0     C32890  -1.108   9.865   0.649  0.0462  0.4932 -0.6705
  250MOL0     C32891  -1.185   9.817   0.525  0.9971  0.2705 -0.4034
  250MOL0     O32892  -1.236   9.686   0.569 -0.1183  0.7641 -0.7267
  250MOL0     C32893  -1.372   9.657   0.541  0.6353 -0.5577 -0.4417
  250MOL0     C32894  -1.464   9.730   0.459  0.1164 -0.0320  0.4638
  250MOL0     C32895  -1.602   9.707   0.465 -0.6044  0.3816 -0.3074
  250MOL0     C32896  -1.650   9.595   0.535  0.2304 -0.3569 -0.3156
  250MOL0     C32897  -1.794   9.576   0.544 -0.2966  0.1169 -0.7056
  250MOL0     O32898  -1.879   9.663   0.491 -0.0116  0.0865  0.6717
  250MOL0     C32899  -2.011   9.645   0.515 -0.2599  0.5195  0.1480
  250MOL0     C32900  -2.075   9.706   0.626 -0.0654  0.6314  0.8591
  250MOL0     C32901  -2.205   9.683   0.653  1.0032  0.0945 -0.3300
  250MOL0     C32902  -2.284   9.602   0.574  0.7004 -1.0164 -0.0627
  250MOL0     O32903  -2.417   9.576   0.596  0.2577  0.1948  0.1509
  250MOL0     C32904  -2.505   9.686   0.589 -0.8578 -0.4370  0.6723
  250MOL0     C32905  -2.645   9.647   0.592 -0.1657 -0.0852  0.0332
  250MOL0     C32906  -2.727   9.771   0.633  1.0584  0.0553 -0.0722
  250MOL0     C32907  -2.881   9.733   0.640  0.2067 -0.1851  0.5575
  250MOL0     C32908  -2.966   9.842   0.703  0.2680  0.1423  0.4571
  250MOL0     C32909  -3.115   9.819   0.686  0.4599 -0.0137  0.0708
  250MOL0     C32910  -3.177   9.863   0.554  0.3671 -0.0102  0.1469
  250MOL0     C32911  -3.312   9.800   0.548 -0.7588  0.6480 -0.9270
  250MOL0    Cl32912  -3.432   9.894   0.654  0.0797  0.2093  0.0851
  250MOL0     C32913  -2.227   9.525   0.477  0.2617  0.3522 -0.2502
  250MOL0     C32914  -2.089   9.545   0.456  0.9886  0.0434 -0.2063
  250MOL0     O32915  -1.835   9.473   0.598  0.5361 -0.4129 -0.1609
  250MOL0     C32916  -1.558   9.515   0.605  0.2370 -0.1003  0.4283
  250MOL0     C32917  -1.425   9.552   0.606  0.2212  0.2264  0.1404
  250MOL0     N32918  -0.905  10.263   0.635 -1.0322 -0.8374 -0.1958
  250MOL0     N32919  -0.828  10.366   0.669  0.0948 -0.6885  0.5607
  250MOL0     C32920   0.489  10.490   0.976  0.2063  0.0593 -0.3832
  250MOL0     C32921   0.625  10.490   1.022 -0.3758 -0.7160 -0.5099
  250MOL0     C32922   1.055  10.547   1.095  0.3280 -0.7277 -0.0003
  250MOL0     C32923   1.151  10.443   1.082 -1.0145 -0.3837 -0.2266
  250MOL0     C32924   1.269  10.448   1.153  0.8187  0.2364  0.4982
  250MOL0     C32925   1.285  10.549   1.260  0.5988 -0.1169  1.1985
  250MOL0     O32926   1.390  10.553   1.346  0.3993  0.3933 -0.3612
  250MOL0     C32927   1.503  10.468   1.317  0.6179 -0.5713 -0.1845
  250MOL0     C32928   1.612  10.481   1.429 -0.3618  0.2633  0.5839
  250MOL0     C32929   1.747  10.421   1.365  0.3731  0.3142 -0.6166
  250MOL0     C32930   1.875  10.453   1.451 -0.3646  1.1607 -0.3836
  250MOL0     C32931   2.004  10.420   1.389 -0.0125  0.1937 -0.7659
  250MOL0     C32932   2.105  10.375   1.336 -0.1758  0.8056  0.5094
  250MOL0     C32933   1.186  10.649   1.275 -0.4736  1.0367 -0.0203
  250MOL0     C32934   1.077  10.650   1.185  0.2026  0.0772 -0.6296
  250MOL0     H32935   0.716  10.785   0.881  1.0060 -1.4804 -1.4431
  250MOL0     H32936   0.480  10.766   0.799 -0.8632 -0.8268 -0.1712
  250MOL0     H32937   0.236  10.413   0.902  3.3067 -0.8802  0.9755
  250MOL0     H32938   0.311  10.400   0.739 -1.0928  1.6570 -2.3550
  250MOL0     H32939   0.120  10.582   0.674 -2.0777  1.4707  0.9605
  250MOL0     H32940   0.061  10.547   0.834 -0.2864 -0.7606  0.1921
  250MOL0     H32941   0.019  10.317   0.777 -1.2470 -0.1915 -0.0049
  250MOL0     H32942   0.075  10.348   0.608  1.8496  1.2151  0.3416
  250MOL0     H32943  -0.122  10.530   0.745  1.1478 -0.7904  1.4573
  250MOL0     H32944  -0.106  10.506   0.578 -2.4310  0.3419  0.5717
  250MOL0     H32945  -0.204  10.268   0.769 -0.0813  1.6076  1.7836
  250MOL0     H32946  -0.252  10.298   0.598  0.4628 -2.8964  0.1940
  250MOL0     H32947  -0.357  10.517   0.667  0.1873  0.8947  1.4629
  250MOL0     H32948  -0.331  10.465   0.838 -1.4116  0.1296  0.7024
  250MOL0     H32949  -0.490  10.300   0.631 -0.0721  1.5632 -0.6192
  250MOL0     H32950  -0.461  10.257   0.793  3.4544 -1.0407 -0.9408
  250MOL0     H32951  -0.627  10.514   0.723 -0.0098 -0.6315 -1.0250
  250MOL0     H32952  -0.605  10.436   0.882 -1.9178  0.5434  0.9436
  250MOL0     H32953  -0.701  10.162   0.876  1.3402  3.8227  1.4538
  250MOL0     H32954  -0.966  10.012   0.823 -1.4933  4.0210 -0.0180
  250MOL0     H32955  -0.831   9.942   0.730 -0.1641  0.2430 -1.6641
  250MOL0     H32956  -0.960   9.955   0.527 -2.6450 -0.2689 -0.7013
  250MOL0     H32957  -1.068  10.072   0.588 -1.2185 -1.8142 -1.1313
  250MOL0     H32958  -1.053   9.778   0.686  0.4183  0.2268 -1.8226
  250MOL0     H32959  -1.173   9.902   0.729  0.0177 -0.3764 -0.2905
  250MOL0     H32960  -1.118   9.800   0.441 -2.2089  0.7300 -3.2636
  250MOL0     H32961  -1.259   9.892   0.496  0.8109 -0.8294 -3.0628
  250MOL0     H32962  -1.437   9.816   0.398 -1.3750 -0.8158 -1.4123
  250MOL0     H32963  -1.671   9.779   0.422 -1.5354  0.6752  1.5803
  250MOL0     H32964  -2.009   9.767   0.687  0.6469 -1.3018  2.0991
  250MOL0     H32965  -2.255   9.721   0.742  0.6483 -2.6684  0.7507
  250MOL0     H32966  -2.485   9.749   0.502 -1.4708 -1.5850 -0.3378
  250MOL0     H32967  -2.481   9.741   0.680  1.2669 -0.5467  0.2473
  250MOL0     H32968  -2.664   9.564   0.661 -0.0378  1.6318  2.2390
  250MOL0     H32969  -2.659   9.619   0.488  1.6034  0.4392 -0.3761
  250MOL0     H32970  -2.723   9.856   0.563  2.9446  1.1440  1.2572
  250MOL0     H32971  -2.695   9.824   0.724 -1.7636  2.1030 -0.1221
  250MOL0     H32972  -2.914   9.714   0.537 -0.0756  0.0116  0.6113
  250MOL0     H32973  -2.887   9.650   0.712  2.0692  1.6159  2.9718
  250MOL0     H32974  -2.938   9.941   0.668  2.8365 -1.0426 -1.1531
  250MOL0     H32975  -2.947   9.831   0.811 -2.1796 -3.7786  0.6963
  250MOL0     H32976  -3.166   9.878   0.763  1.1076 -0.3845  0.8024
  250MOL0     H32977  -3.133   9.711   0.698 -1.9592  0.2439 -0.7756
  250MOL0     H32978  -3.184   9.971   0.543 -1.4267  0.0567  1.3880
  250MOL0     H32979  -3.117   9.813   0.478 -2.9174 -4.5767  0.1013
  250MOL0     H32980  -3.316   9.696   0.582  0.5280  0.3552 -1.6180
  250MOL0     H32981  -3.342   9.806   0.443  2.3575  1.7604 -1.8624
  250MOL0     H32982  -2.280   9.443   0.431  0.5937 -0.3193  0.5369
  250MOL0     H32983  -2.041   9.485   0.379 -0.7085 -0.8087 -0.6388
  250MOL0     H32984  -1.595   9.424   0.652 -1.2090  0.2957  0.1114
  250MOL0     H32985  -1.364   9.483   0.663  2.3753 -0.9688 -3.2799
  250MOL0     H32986   0.430  10.406   1.012  1.0908 -1.5949 -2.6006
  250MOL0     H32987   0.668  10.417   1.090 -0.7617  0.8815  1.5441
  250MOL0     H32988   1.136  10.370   1.003  0.6238  0.0890 -1.0259
  250MOL0     H32989   1.337  10.365   1.141 -1.0240 -0.9264 -3.3586
  250MOL0     H32990   1.549  10.502   1.223  1.6084  2.3284  1.2139
  250MOL0     H32991   1.485  10.361   1.310 -2.7250 -0.2463  1.5458
  250MOL0     H32992   1.633  10.586   1.456 -1.5632 -0.0460  2.9955
  250MOL0     H32993   1.582  10.427   1.519 -1.4198  0.3124  0.2695
  250MOL0     H32994   1.780  10.455   1.266  0.5002 -3.0801 -1.9011
  250MOL0     H32995   1.737  10.312   1.354  1.0460  0.2455 -0.5401
  250MOL0     H32996   1.879  10.560   1.475  1.0995  1.4166 -1.5826
  250MOL0     H32997   1.858  10.395   1.541 -0.1890  1.0881 -0.3959
  250MOL0     H32998   2.198  10.348   1.289 -0.8892 -1.0196  0.0736
  250MOL0     H32999   1.203  10.715   1.360  2.1154 -3.7485  3.7400
  250MOL0     H33000   0.999  10.726   1.180 -1.2217 -1.0536  2.4277
  251MOL0     O33001   7.183   4.076   8.221 -0.9134  0.1287  0.7139
  251MOL0     C33002   7.190   4.020   8.115 -0.4380  0.2338 -0.0924
  251MOL0     O33003   7.084   3.988   8.038 -0.2960 -0.4198 -0.1534
  251MOL0     C33004   6.960   4.012   8.088  0.7631  0.3422 -0.0541
  251MOL0     C33005   6.864   3.911   8.085 -0.1648  0.2545  0.3445
  251MOL0     C33006   6.734   3.925   8.136 -0.1105  0.2004  0.3078
  251MOL0     C33007   6.685   4.051   8.169 -0.3784 -0.1393  0.0202
  251MOL0     O33008   6.556   4.064   8.210 -0.1970  0.3013  0.3663
  251MOL0     C33009   6.515   4.171   8.294  0.9231 -0.1044 -0.5531
  251MOL0     C33010   6.380   4.135   8.360 -0.3939 -0.0940  0.6814
  251MOL0     C33011   6.277   4.255   8.378 -0.4369  0.1539  0.5821
  251MOL0     C33012   6.133   4.231   8.432 -0.3052  1.4885  1.3380
  251MOL0     C33013   6.025   4.252   8.338  0.0065  0.2773  0.5545
  251MOL0     C33014   6.021   4.148   8.229  0.4808 -0.2512  1.3332
  251MOL0     C33015   5.885   4.166   8.154  0.3673 -0.0640 -0.1090
  251MOL0     C33016   5.850   4.038   8.089  0.0824 -0.3113 -0.1194
  251MOL0     N33017   5.944   3.969   8.001 -0.4952 -0.3022  0.0284
  251MOL0     C33018   6.062   3.901   8.037  0.5513 -0.3830 -0.5401
  251MOL0     C33019   6.118   3.870   7.918  0.0216 -0.4839  0.0883
  251MOL0     C33020   6.258   3.814   7.898 -0.2508  0.5096 -0.0417
  251MOL0     C33021   6.271   3.661   7.933 -0.8811 -0.0712 -0.4609
  251MOL0     C33022   6.374   3.586   7.847 -0.4074 -0.3891  0.0461
  251MOL0     C33023   6.525   3.602   7.882 -0.1996  0.6790 -0.4001
  251MOL0     O33024   6.614   3.518   7.805 -0.5722  0.5236  0.2186
  251MOL0     C33025   6.749   3.548   7.804 -0.1153 -0.2411 -0.2669
  251MOL0     C33026   6.808   3.670   7.809  0.3712 -0.5407  0.0497
  251MOL0     C33027   6.948   3.687   7.798 -0.2400 -0.4920  0.0037
  251MOL0     C33028   7.028   3.577   7.769  0.1129  0.0918 -0.4964
  251MOL0     C33029   7.175   3.579   7.756  0.1646 -0.0103  0.2442
  251MOL0     O33030   7.251   3.468   7.758 -0.3357 -0.2381 -0.1033
  251MOL0     C33031   7.386   3.459   7.737  0.3105 -0.0619  0.4229
  251MOL0     C33032   7.449   3.536   7.635 -0.4625 -0.9212 -0.2838
  251MOL0     C33033   7.591   3.524   7.627 -0.6040 -0.3900 -0.4194
  251MOL0     C33034   7.660   3.440   7.706 -0.6239 -0.0914 -0.1636
  251MOL0     O33035   7.796   3.440   7.709 -0.2401  0.2661  0.9110
  251MOL0     C33036   7.864   3.431   7.581 -1.2979  0.9730  0.2040
  251MOL0     C33037   8.000   3.371   7.607 -0.1309 -0.6949 -0.4220
  251MOL0     C33038   8.084   3.477   7.691 -0.2215 -0.5936 -0.1869
  251MOL0     C33039   8.216   3.415   7.723 -0.3749  0.2951 -0.4021
  251MOL0     C33040   8.294   3.499   7.821  0.4562  0.8899 -0.6442
  251MOL0     C33041   8.428   3.446   7.877 -1.1455  0.2099 -0.6253
  251MOL0     C33042   8.520   3.417   7.753 -0.1374 -0.4867 -0.2655
  251MOL0     C33043   8.677   3.430   7.781 -0.6854 -0.2422 -0.4137
  251MOL0    Cl33044   8.732   3.599   7.752 -0.0469 -0.1038  0.7053
  251MOL0     C33045   7.596   3.373   7.809 -0.7579 -0.4921 -0.4195
  251MOL0     C33046   7.460   3.388   7.830 -0.1007  0.3587 -0.5147
  251MOL0     O33047   7.215   3.689   7.733 -0.3869  0.0192  0.4662
  251MOL0     C33048   6.970   3.449   7.779  0.4115  0.0165 -0.2094
  251MOL0     C33049   6.833   3.443   7.791 -0.0502 -0.2008 -0.3296
  251MOL0     N33050   6.032   3.907   7.817  0.1861  0.4556 -0.0258
  251MOL0     N33051   5.939   3.978   7.866  0.0483 -0.2268  0.4271
  251MOL0     C33052   6.784   4.156   8.174 -0.5009 -0.6421  0.4700
  251MOL0     C33053   6.920   4.137   8.132  0.5160 -0.1628  0.0779
  251MOL0     C33054   7.322   3.975   8.070 -0.4765 -0.4399  0.9479
  251MOL0     C33055   7.336   3.887   7.955  0.2236 -0.1403 -0.9372
  251MOL0     C33056   7.465   3.844   7.930 -0.0998  0.2984 -0.3877
  251MOL0     C33057   7.577   3.872   8.014 -0.2761  0.6939 -0.7242
  251MOL0     O33058   7.706   3.841   7.991  0.7033 -0.0238  0.3996
  251MOL0     C33059   7.732   3.775   7.872  0.1358  0.7266  0.0076
  251MOL0     C33060   7.881   3.746   7.875  1.0106 -0.0858 -0.8591
  251MOL0     C33061   7.949   3.868   7.809 -0.4969 -0.5698  0.0316
  251MOL0     C33062   8.097   3.844   7.785 -1.3671  0.3192  0.2178
  251MOL0     C33063   8.178   3.796   7.908 -0.9564 -0.2303 -0.1402
  251MOL0     C33064   8.244   3.762   8.006  0.2121  0.1315 -0.6955
  251MOL0     C33065   7.552   3.943   8.133 -0.7993  0.2330 -0.3712
  251MOL0     C33066   7.425   3.994   8.160  0.4431 -0.0082 -0.0953
  251MOL0     H33067   6.893   3.814   8.044 -3.4723 -0.6870 -0.0495
  251MOL0     H33068   6.660   3.846   8.129 -1.8355  1.8712 -2.5279
  251MOL0     H33069   6.508   4.263   8.236 -2.2358  0.3292  0.3451
  251MOL0     H33070   6.582   4.186   8.380 -1.6904 -1.2236  1.8508
  251MOL0     H33071   6.403   4.084   8.454 -0.1452 -1.0692  0.0988
  251MOL0     H33072   6.330   4.060   8.298  1.1298 -1.6883  1.2877
  251MOL0     H33073   6.273   4.301   8.278 -0.0530 -0.9058  0.0678
  251MOL0     H33074   6.317   4.334   8.442  0.5724 -0.2437  0.4635
  251MOL0     H33075   6.120   4.136   8.484 -0.7531  0.9503  0.2617
  251MOL0     H33076   6.111   4.309   8.506  2.1294  2.7423  0.8662
  251MOL0     H33077   6.031   4.349   8.287  1.0045 -0.4011 -0.6684
  251MOL0     H33078   5.937   4.244   8.403  0.0443 -1.2289  0.4445
  251MOL0     H33079   6.028   4.049   8.276  1.0386 -0.2132  1.3443
  251MOL0     H33080   6.106   4.164   8.161 -0.9534 -0.3510 -0.5572
  251MOL0     H33081   5.814   4.192   8.233  1.8923 -2.7371  2.3273
  251MOL0     H33082   5.887   4.250   8.083  0.4287  0.3801  0.4155
  251MOL0     H33083   5.758   4.057   8.032  2.3095  4.5792 -2.6157
  251MOL0     H33084   5.825   3.964   8.166 -1.4912 -0.8148 -1.0631
  251MOL0     H33085   6.105   3.892   8.136 -1.0489 -1.3684  0.0922
  251MOL0     H33086   6.335   3.871   7.949 -0.2574  0.6463 -0.1848
  251MOL0     H33087   6.280   3.830   7.792  1.7889  0.4191  0.3360
  251MOL0     H33088   6.184   3.608   7.895  0.4657 -0.4867 -3.2721
  251MOL0     H33089   6.289   3.638   8.038 -1.4491 -1.0504 -0.5687
  251MOL0     H33090   6.352   3.480   7.864 -1.0637  0.1067  2.8251
  251MOL0     H33091   6.362   3.604   7.740  0.1564 -0.2915 -0.0034
  251MOL0     H33092   6.537   3.585   7.989 -0.9892 -0.6951 -0.5061
  251MOL0     H33093   6.550   3.706   7.856  2.3929  0.1307 -0.3408
  251MOL0     H33094   6.749   3.759   7.825  1.0678 -0.4667  2.6703
  251MOL0     H33095   6.989   3.784   7.825  0.9623 -1.0028  0.0753
  251MOL0     H33096   7.399   3.611   7.574  2.4390 -0.2384 -2.0155
  251MOL0     H33097   7.648   3.592   7.563 -1.2623  2.2386  1.5997
  251MOL0     H33098   7.870   3.523   7.522 -0.5268  1.9004  1.6605
  251MOL0     H33099   7.799   3.367   7.522 -0.6574  1.1155 -0.6698
  251MOL0     H33100   8.043   3.347   7.510  0.4317  0.4029 -0.4595
  251MOL0     H33101   7.999   3.277   7.662 -2.0519  0.5714  1.8873
  251MOL0     H33102   8.046   3.506   7.789  0.1237  1.0603 -0.5092
  251MOL0     H33103   8.102   3.569   7.635  1.2399 -0.4002  0.5468
  251MOL0     H33104   8.198   3.316   7.766 -2.9555  0.0093 -1.9152
  251MOL0     H33105   8.271   3.395   7.630  1.2570  1.8155  0.1673
  251MOL0     H33106   8.223   3.512   7.903 -0.1838 -4.0995 -0.1007
  251MOL0     H33107   8.313   3.598   7.779  1.6003  1.3545  0.8737
  251MOL0     H33108   8.413   3.355   7.936 -1.5069  0.0404 -0.9747
  251MOL0     H33109   8.465   3.529   7.939 -1.8177  0.1849 -0.1756
  251MOL0     H33110   8.512   3.309   7.734 -4.0482 -0.5034  0.7356
  251MOL0     H33111   8.492   3.475   7.665 -2.1051  1.7389  1.6785
  251MOL0     H33112   8.732   3.361   7.716 -1.6934 -1.0027 -0.4862
  251MOL0     H33113   8.697   3.415   7.887 -1.7608  2.1874  0.2170
  251MOL0     H33114   7.667   3.331   7.880  1.3253 -2.7430 -3.5028
  251MOL0     H33115   7.417   3.344   7.919  0.7846 -0.7226 -0.6092
  251MOL0     H33116   7.031   3.359   7.773 -0.1047 -0.4182  0.9194
  251MOL0     H33117   6.795   3.342   7.807  1.3976 -0.4384  2.2600
  251MOL0     H33118   6.752   4.254   8.209  1.2617 -0.6527  2.2787
  251MOL0     H33119   6.996   4.212   8.153 -0.3661  1.1332 -1.2692
  251MOL0     H33120   7.250   3.862   7.894  0.8326 -0.5001 -1.6639
  251MOL0     H33121   7.474   3.788   7.838 -1.3492  1.7396 -1.4329
  251MOL0     H33122   7.705   3.829   7.781  1.1662 -0.5314 -1.0727
  251MOL0     H33123   7.671   3.685   7.887  1.0513 -0.0615 -0.9244
  251MOL0     H33124   7.926   3.737   7.974  0.0532  1.2897 -0.2769
  251MOL0     H33125   7.894   3.651   7.823 -1.2372 -0.7128 -0.3751
  251MOL0     H33126   7.926   3.958   7.866 -2.4346  1.5478 -3.7159
  251MOL0     H33127   7.915   3.892   7.708  1.0099  1.4093 -0.0723
  251MOL0     H33128   8.109   3.777   7.699 -0.2811 -1.5958  1.7851
  251MOL0     H33129   8.138   3.942   7.758 -2.9623  0.4405 -2.0824
  251MOL0     H33130   8.290   3.734   8.098 -1.1423 -0.0814 -0.0546
  251MOL0     H33131   7.632   3.974   8.198 -1.1586 -1.1708  0.8075
  251MOL0     H33132   7.409   4.034   8.260 -0.0381 -1.3630  0.3857
  252MOL0     O33133   1.796   5.905   8.853  0.2356 -0.0030  0.7632
  252MOL0     C33134   1.854   5.832   8.929 -0.1061 -0.1163  0.3887
  252MOL0     O33135   1.815   5.716   8.966 -0.3039  0.1937  0.8026
  252MOL0     C33136   1.682   5.679   8.943 -0.8887 -0.2671 -0.6702
  252MOL0     C33137   1.579   5.769   8.981  0.3128 -0.9998  0.4416
  252MOL0     C33138   1.446   5.723   8.981 -0.4933 -0.2278 -0.5463
  252MOL0     C33139   1.409   5.593   8.935  0.5156  0.2744  0.0513
  252MOL0     O33140   1.286   5.532   8.953 -0.4987  0.0830  0.4377
  252MOL0     C33141   1.161   5.609   8.970 -0.0438 -0.0557 -0.6075
  252MOL0     C33142   1.041   5.509   8.947 -0.0858 -0.1919 -0.6797
  252MOL0     C33143   0.918   5.586   8.905  0.1667 -0.2037  0.4396
  252MOL0     C33144   0.783   5.512   8.934 -0.2635  0.1775  0.0446
  252MOL0     C33145   0.661   5.609   8.934 -0.1400 -0.0543  0.3396
  252MOL0     C33146   0.533   5.522   8.965  0.3890 -0.0583 -0.1336
  252MOL0     C33147   0.405   5.596   8.995  0.4561  0.1255  0.5806
  252MOL0     C33148   0.388   5.729   8.938  0.3153 -0.0194  0.3519
  252MOL0     N33149   0.245   5.763   8.926 -0.2620 -0.5746  0.2415
  252MOL0     C33150   0.192   5.862   9.006 -0.5751 -0.6414 -0.1318
  252MOL0     C33151   0.060   5.868   8.966  0.3118 -0.2089  0.1018
  252MOL0     C33152  -0.046   5.971   9.006 -0.3045 -0.3528 -0.2807
  252MOL0     C33153  -0.052   6.092   8.905  0.6090  0.5720 -0.1306
  252MOL0     C33154   0.081   6.174   8.905 -0.6199  0.3547 -0.1898
  252MOL0     C33155   0.071   6.306   8.844  1.1210 -0.3781 -0.1084
  252MOL0     O33156   0.190   6.366   8.821 -0.5394  0.3307 -0.5224
  252MOL0     C33157   0.277   6.372   8.926 -0.0548 -1.5839 -0.1429
  252MOL0     C33158   0.400   6.298   8.935 -0.4253  0.0606 -0.2307
  252MOL0     C33159   0.480   6.306   9.046 -0.7528 -0.4202 -0.3555
  252MOL0     C33160   0.457   6.405   9.147  0.0569 -0.1781  0.3573
  252MOL0     C33161   0.551   6.416   9.268 -0.8433 -0.3790 -0.1164
  252MOL0     O33162   0.668   6.344   9.262  0.5331 -0.0931  0.3872
  252MOL0     C33163   0.775   6.368   9.350  0.1919  0.3118  0.0166
  252MOL0     C33164   0.764   6.338   9.484 -0.8970  0.6390 -1.1736
  252MOL0     C33165   0.874   6.359   9.567 -0.6497 -0.2306  0.4622
  252MOL0     C33166   1.002   6.394   9.513  0.7538  0.6026 -0.7835
  252MOL0     O33167   1.109   6.391   9.595  0.2976  0.1391 -0.4490
  252MOL0     C33168   1.238   6.442   9.562  0.2874  0.4505  0.1914
  252MOL0     C33169   1.338   6.404   9.677  0.4759  0.1504  0.2099
  252MOL0     C33170   1.472   6.456   9.643 -0.7684  0.8096 -0.5576
  252MOL0     C33171   1.573   6.424   9.760  0.5782  0.9583  0.8181
  252MOL0     C33172   1.712   6.474   9.719 -0.1023  0.0500 -0.0746
  252MOL0     C33173   1.805   6.439   9.837 -0.4992 -0.7323  0.3415
  252MOL0     C33174   1.953   6.497   9.827  0.0253 -0.1019  0.0419
  252MOL0     C33175   2.006   6.475   9.684  0.1050  0.1717  0.3032
  252MOL0    Cl33176   2.193   6.495   9.688  0.6111  0.4081 -0.0955
  252MOL0     C33177   1.020   6.407   9.374 -0.6882  0.3918 -0.0236
  252MOL0     C33178   0.900   6.399   9.296 -0.0626  0.2801  0.4982
  252MOL0     O33179   0.524   6.504   9.347 -0.0747 -0.5139 -0.0391
  252MOL0     C33180   0.343   6.481   9.133 -0.7343  1.2913  0.0113
  252MOL0     C33181   0.258   6.466   9.020 -0.7793 -0.1740  0.5356
  252MOL0     N33182   0.037   5.756   8.883  0.1274 -0.3834  0.7601
  252MOL0     N33183   0.147   5.697   8.867  0.3038  0.6322  0.3424
  252MOL0     C33184   1.513   5.508   8.901  0.6214  0.0620  0.4150
  252MOL0     C33185   1.648   5.550   8.897  0.2531  0.7200  0.5814
  252MOL0     C33186   1.989   5.882   8.978  0.0458  0.8223 -0.1375
  252MOL0     C33187   2.031   6.019   8.964 -0.4236  0.3853 -0.0248
  252MOL0     C33188   2.144   6.061   9.036  0.6865 -0.3947 -0.1495
  252MOL0     C33189   2.224   5.972   9.109 -0.1490 -0.7107 -0.6136
  252MOL0     O33190   2.341   6.008   9.164  0.0037 -0.2015 -0.0738
  252MOL0     C33191   2.421   6.079   9.077  0.3907 -0.0184  0.3808
  252MOL0     C33192   2.502   5.989   8.972 -0.0867 -0.7352  0.5684
  252MOL0     C33193   2.614   6.055   8.885 -0.3010  0.1551  0.2880
  252MOL0     C33194   2.711   6.169   8.954  0.6921  0.1545 -0.0550
  252MOL0     C33195   2.637   6.293   8.957 -0.2754 -0.8512 -0.4445
  252MOL0     C33196   2.566   6.393   8.946 -0.4680 -0.1229  0.0136
  252MOL0     C33197   2.177   5.841   9.130  0.4383  0.2017  0.3560
  252MOL0     C33198   2.062   5.796   9.064  0.3922 -0.3198 -0.2612
  252MOL0     H33199   1.603   5.867   9.021  2.0104 -1.4213  0.5755
  252MOL0     H33200   1.363   5.786   9.011 -0.1540  0.3022 -0.7061
  252MOL0     H33201   1.165   5.685   8.891  1.7851  1.4082  0.7865
  252MOL0     H33202   1.149   5.665   9.063  0.4822  0.6175 -0.9374
  252MOL0     H33203   1.020   5.454   9.039  0.8882  0.4088 -0.0940
  252MOL0     H33204   1.060   5.424   8.880 -2.3159 -2.2770  1.1220
  252MOL0     H33205   0.935   5.612   8.800  0.6857  2.0688  1.0390
  252MOL0     H33206   0.929   5.677   8.965  0.8970 -0.3396  0.5161
  252MOL0     H33207   0.777   5.423   8.869  2.6259 -1.6567  2.0221
  252MOL0     H33208   0.780   5.468   9.034  0.4806 -0.1487 -0.0695
  252MOL0     H33209   0.658   5.655   8.835 -0.2117 -0.6851  0.0379
  252MOL0     H33210   0.673   5.680   9.016 -2.0437 -1.0310  1.5449
  252MOL0     H33211   0.549   5.454   9.050 -1.5423  0.5501  0.7849
  252MOL0     H33212   0.518   5.462   8.875 -0.1271 -0.4409  0.1996
  252MOL0     H33213   0.312   5.540   8.984  0.4967 -0.4340  2.6701
  252MOL0     H33214   0.408   5.624   9.101 -2.3458  0.4452  0.6324
  252MOL0     H33215   0.431   5.737   8.838  2.3012  2.2434  1.2842
  252MOL0     H33216   0.439   5.803   9.000  2.9890 -2.5908  1.4204
  252MOL0     H33217   0.233   5.933   9.077 -0.7398  2.2306 -2.6989
  252MOL0     H33218  -0.026   6.013   9.105 -0.9775 -0.5625 -0.0444
  252MOL0     H33219  -0.145   5.924   9.010 -0.3674 -0.1861  2.8424
  252MOL0     H33220  -0.127   6.170   8.923  1.6665  1.6472 -0.2807
  252MOL0     H33221  -0.070   6.060   8.802  0.0979  1.3158 -0.2772
  252MOL0     H33222   0.117   6.204   9.003  2.9168  0.3089 -1.3496
  252MOL0     H33223   0.160   6.110   8.866  0.1184  1.0154  0.1892
  252MOL0     H33224   0.002   6.368   8.902  1.3775  0.7381 -0.9657
  252MOL0     H33225   0.020   6.294   8.748 -0.0104 -3.2860  0.7442
  252MOL0     H33226   0.439   6.229   8.861  1.3444 -0.5951  1.2544
  252MOL0     H33227   0.563   6.238   9.058 -0.0748 -0.9081 -5.5013
  252MOL0     H33228   0.665   6.316   9.524  0.4412 -0.5581  1.7763
  252MOL0     H33229   0.864   6.339   9.673 -0.1515  2.1048  1.0051
  252MOL0     H33230   1.237   6.551   9.559 -3.7020  0.6465  2.1843
  252MOL0     H33231   1.276   6.424   9.461 -1.3253  0.9019 -0.5273
  252MOL0     H33232   1.342   6.295   9.681  1.3770  0.0785 -1.6773
  252MOL0     H33233   1.300   6.440   9.773 -1.0569 -0.2544 -0.2230
  252MOL0     H33234   1.468   6.565   9.635  2.3799  1.2873  2.1582
  252MOL0     H33235   1.499   6.407   9.549 -0.1354 -1.1484  0.5837
  252MOL0     H33236   1.536   6.478   9.848  4.1951  1.4601  2.2008
  252MOL0     H33237   1.579   6.316   9.778  0.8668  0.2765 -2.6660
  252MOL0     H33238   1.713   6.582   9.706 -0.4245 -0.2805 -3.9754
  252MOL0     H33239   1.736   6.438   9.619 -0.9502  1.3048 -0.7509
  252MOL0     H33240   1.819   6.331   9.833 -0.5590 -0.7346  0.1758
  252MOL0     H33241   1.756   6.474   9.929  1.1801 -0.2218  1.0715
  252MOL0     H33242   1.964   6.600   9.861 -1.2797  0.6662 -1.7004
  252MOL0     H33243   2.003   6.430   9.897  0.6420  0.4084  0.0947
  252MOL0     H33244   1.959   6.545   9.615 -0.6019  1.6022  2.1391
  252MOL0     H33245   1.978   6.376   9.647 -0.2101 -0.0867  1.1992
  252MOL0     H33246   1.115   6.427   9.325  0.8897  2.1790  3.4459
  252MOL0     H33247   0.914   6.395   9.188 -2.6640 -0.8184  0.1120
  252MOL0     H33248   0.322   6.566   9.199 -0.0523  1.5543 -0.1060
  252MOL0     H33249   0.171   6.527   8.995 -1.8339 -2.2665 -1.2508
  252MOL0     H33250   1.484   5.407   8.874 -2.3435  0.1274  2.8644
  252MOL0     H33251   1.720   5.470   8.883 -2.1096 -1.6284  1.2106
  252MOL0     H33252   1.977   6.086   8.898  0.9396  0.1587 -1.4101
  252MOL0     H33253   2.162   6.168   9.026  2.1692 -0.6739 -0.6616
  252MOL0     H33254   2.493   6.137   9.136  1.3588  2.8127 -3.1749
  252MOL0     H33255   2.367   6.159   9.025  1.9947 -0.2181 -1.7304
  252MOL0     H33256   2.547   5.912   9.035  2.3506  1.5518  1.8151
  252MOL0     H33257   2.429   5.944   8.904 -1.2607  0.0637  1.2515
  252MOL0     H33258   2.557   6.098   8.802 -0.6660 -0.3258  0.2895
  252MOL0     H33259   2.676   5.974   8.846 -0.8995 -0.4426  0.5663
  252MOL0     H33260   2.735   6.143   9.057  0.2557  2.0530  0.5619
  252MOL0     H33261   2.797   6.196   8.892 -1.0609  2.9566 -1.4638
  252MOL0     H33262   2.513   6.486   8.939  2.0113  1.4659  0.7396
  252MOL0     H33263   2.223   5.776   9.203  0.6047  1.1481  1.1139
  252MOL0     H33264   2.028   5.693   9.078 -3.2085  0.6306 -0.9216
  253MOL0     O33265   0.721   7.766   7.500 -0.0703  0.0163 -0.0424
  253MOL0     C33266   0.813   7.840   7.543 -0.2058  0.1044  0.3081
  253MOL0     O33267   0.819   7.975   7.535  0.3269 -0.0181 -0.0313
  253MOL0     C33268   0.707   8.045   7.489 -0.5168  0.0982 -0.3312
  253MOL0     C33269   0.584   8.042   7.560  0.4249 -0.3051 -0.4919
  253MOL0     C33270   0.472   8.099   7.507 -0.4329 -0.0838 -0.2006
  253MOL0     C33271   0.478   8.179   7.390  0.4181  0.0871  0.1667
  253MOL0     O33272   0.377   8.261   7.351 -0.5657  0.3914  0.1502
  253MOL0     C33273   0.340   8.257   7.213  0.2721  0.2520  0.3694
  253MOL0     C33274   0.206   8.178   7.200 -0.0111 -0.5821  0.2685
  253MOL0     C33275   0.129   8.200   7.063 -0.1232 -0.1429 -0.3576
  253MOL0     C33276   0.090   8.344   7.041  0.2421 -0.1265 -0.1398
  253MOL0     C33277  -0.033   8.340   6.938 -0.2071 -0.3225 -0.4056
  253MOL0     C33278  -0.082   8.480   6.907  0.8689  0.3935 -0.4269
  253MOL0     C33279  -0.167   8.546   7.016  0.7114 -0.3804  0.6081
  253MOL0     C33280  -0.209   8.686   6.973 -1.1831  0.1827  0.6103
  253MOL0     N33281  -0.309   8.742   7.055  0.0394 -0.4535 -0.1632
  253MOL0     C33282  -0.300   8.735   7.192 -0.2378 -0.1354  0.0565
  253MOL0     C33283  -0.400   8.816   7.229  0.1431 -0.1555 -0.3367
  253MOL0     C33284  -0.441   8.859   7.365  0.3848  0.8338  0.0986
  253MOL0     C33285  -0.337   8.834   7.480 -0.3190 -0.0157  0.4249
  253MOL0     C33286  -0.348   8.691   7.533 -0.7469  1.0281 -0.7124
  253MOL0     C33287  -0.237   8.666   7.638  0.2096 -0.0061  0.9238
  253MOL0     O33288  -0.245   8.763   7.740  0.0407 -0.2005  0.6885
  253MOL0     C33289  -0.358   8.785   7.808 -0.3679  0.3983 -0.0268
  253MOL0     C33290  -0.408   8.909   7.814  0.9362  0.0093  0.7209
  253MOL0     C33291  -0.528   8.938   7.879 -0.7872  0.2568 -0.5793
  253MOL0     C33292  -0.604   8.838   7.948 -0.4029  0.1796  1.2746
  253MOL0     C33293  -0.735   8.870   8.026 -0.5383 -0.1722  0.6063
  253MOL0     O33294  -0.800   8.770   8.086 -0.5764 -0.1573  0.3700
  253MOL0     C33295  -0.920   8.790   8.139  0.2521  0.2643 -0.4418
  253MOL0     C33296  -1.031   8.810   8.055  0.0035 -0.8943 -1.1372
  253MOL0     C33297  -1.153   8.829   8.111 -0.5334 -0.3025 -0.3179
  253MOL0     C33298  -1.178   8.818   8.251  0.0038 -1.1832  0.1034
  253MOL0     O33299  -1.299   8.841   8.311  0.5465  0.0096 -0.4859
  253MOL0     C33300  -1.423   8.819   8.236 -0.5405  0.2544 -0.2635
  253MOL0     C33301  -1.538   8.822   8.342  0.0938  0.0355  0.1359
  253MOL0     C33302  -1.683   8.844   8.286 -1.2060 -0.2032 -0.0219
  253MOL0     C33303  -1.794   8.821   8.388  0.8944 -0.6731  0.0766
  253MOL0     C33304  -1.927   8.899   8.359  0.5174 -0.4762  0.1767
  253MOL0     C33305  -2.002   8.863   8.224 -0.0382  0.2207 -0.2124
  253MOL0     C33306  -2.143   8.925   8.209  0.9658  0.2041 -0.2796
  253MOL0     C33307  -2.183   8.917   8.062 -0.1077  0.4389 -0.3196
  253MOL0    Cl33308  -2.176   8.756   7.978 -0.0371 -0.2863  0.1313
  253MOL0     C33309  -1.069   8.803   8.333  0.4957 -0.4501 -0.6314
  253MOL0     C33310  -0.935   8.788   8.280 -0.0353 -0.6015  0.1711
  253MOL0     O33311  -0.767   8.990   8.025  0.3544  0.0123  0.0716
  253MOL0     C33312  -0.555   8.712   7.932  0.0511  0.2488 -0.0331
  253MOL0     C33313  -0.436   8.687   7.860  0.7665  0.1331 -0.4904
  253MOL0     N33314  -0.473   8.862   7.118 -0.0755 -0.4859 -0.7593
  253MOL0     N33315  -0.416   8.808   7.014 -0.4502 -0.0430 -0.6810
  253MOL0     C33316   0.598   8.200   7.325 -0.4102  0.5082  0.7416
  253MOL0     C33317   0.712   8.130   7.380 -0.8785  0.6850  0.3323
  253MOL0     C33318   0.938   7.775   7.599 -0.4222 -0.7874  0.5047
  253MOL0     C33319   1.045   7.856   7.649  0.1626  0.6136 -0.3596
  253MOL0     C33320   1.152   7.798   7.719 -0.0870 -0.8464 -0.9219
  253MOL0     C33321   1.162   7.662   7.732  0.0610  0.3566 -1.2228
  253MOL0     O33322   1.277   7.612   7.789 -0.2660 -0.2344  0.4986
  253MOL0     C33323   1.308   7.476   7.754  0.0545  0.4601 -0.2241
  253MOL0     C33324   1.447   7.450   7.807 -0.8102  0.1984  0.1132
  253MOL0     C33325   1.456   7.413   7.955 -0.2652 -0.1865  0.6235
  253MOL0     C33326   1.591   7.447   8.010 -0.3395 -0.9475  0.2966
  253MOL0     C33327   1.612   7.414   8.158  0.5562 -0.6860 -0.1306
  253MOL0     C33328   1.623   7.394   8.278 -0.4012  0.0328 -0.5930
  253MOL0     C33329   1.055   7.579   7.684 -0.2056  0.7072  0.9147
  253MOL0     C33330   0.947   7.635   7.616  0.1567 -0.5687  0.4115
  253MOL0     H33331   0.580   7.991   7.655 -1.3065 -0.9458 -0.8777
  253MOL0     H33332   0.388   8.079   7.573  1.0571 -0.6819  1.5956
  253MOL0     H33333   0.417   8.216   7.147 -1.8118  0.0813 -2.1060
  253MOL0     H33334   0.322   8.356   7.170  0.6482 -0.7488 -2.2893
  253MOL0     H33335   0.150   8.204   7.290  0.3875  0.5108  0.2163
  253MOL0     H33336   0.228   8.073   7.219  0.8805  0.1024  3.6942
  253MOL0     H33337   0.036   8.142   7.063 -0.0376 -0.3967 -3.0063
  253MOL0     H33338   0.199   8.160   6.990  0.4446  0.9835 -0.4528
  253MOL0     H33339   0.046   8.387   7.132 -3.1461 -1.7042 -0.8644
  253MOL0     H33340   0.171   8.409   7.008  1.6588 -2.8992 -2.5366
  253MOL0     H33341  -0.116   8.282   6.979  1.8097 -1.6011  2.1797
  253MOL0     H33342  -0.008   8.296   6.840  1.0756 -0.5908  0.0125
  253MOL0     H33343  -0.135   8.482   6.811 -0.0282 -1.8505 -0.0412
  253MOL0     H33344   0.012   8.537   6.905  1.3073 -0.2678 -3.3477
  253MOL0     H33345  -0.259   8.490   7.039 -1.1425  2.6501  1.0789
  253MOL0     H33346  -0.107   8.543   7.108 -3.1636  2.5067  3.6102
  253MOL0     H33347  -0.251   8.671   6.874 -0.6293  4.0976 -0.3823
  253MOL0     H33348  -0.119   8.748   6.965 -0.0133 -1.6446 -1.3789
  253MOL0     H33349  -0.216   8.680   7.233  1.0409 -1.2382 -3.6290
  253MOL0     H33350  -0.533   8.802   7.385 -0.5521  2.5876  1.0212
  253MOL0     H33351  -0.475   8.963   7.366 -2.2983  0.0577  2.0932
  253MOL0     H33352  -0.368   8.911   7.550  0.7442  2.9580 -2.1421
  253MOL0     H33353  -0.235   8.857   7.449  0.2426 -0.8257  1.6010
  253MOL0     H33354  -0.443   8.679   7.585  1.2908  0.4927  3.3795
  253MOL0     H33355  -0.334   8.613   7.458 -0.5798  3.1562 -2.9948
  253MOL0     H33356  -0.138   8.660   7.593  0.6814  2.0033  1.6200
  253MOL0     H33357  -0.267   8.571   7.684  2.0923 -2.3800 -2.3439
  253MOL0     H33358  -0.351   8.993   7.775  0.1930  0.5606  0.7871
  253MOL0     H33359  -0.545   9.044   7.898  0.7914  0.1526  1.8975
  253MOL0     H33360  -1.029   8.818   7.946  1.5203 -2.1292 -1.2338
  253MOL0     H33361  -1.235   8.850   8.043 -0.2929  1.2074 -0.1836
  253MOL0     H33362  -1.436   8.722   8.187  0.6805 -2.4286  4.1573
  253MOL0     H33363  -1.430   8.899   8.162  0.9477  1.7079  1.1063
  253MOL0     H33364  -1.514   8.902   8.413 -0.0762  2.6474 -2.5889
  253MOL0     H33365  -1.535   8.727   8.397  0.2271 -1.2239 -1.9381
  253MOL0     H33366  -1.692   8.772   8.203 -0.9988 -0.5845  0.2861
  253MOL0     H33367  -1.691   8.946   8.247 -1.7965 -0.4265 -0.5144
  253MOL0     H33368  -1.820   8.715   8.378 -0.7719 -0.2938  0.1339
  253MOL0     H33369  -1.768   8.850   8.490 -0.3909  3.0574 -0.4909
  253MOL0     H33370  -1.912   9.007   8.358 -0.6419 -0.3081  0.3614
  253MOL0     H33371  -1.990   8.881   8.446  1.2875  0.3794  0.9356
  253MOL0     H33372  -2.016   8.755   8.217 -0.1248  0.2605 -0.6769
  253MOL0     H33373  -1.948   8.909   8.141 -1.9510  2.4355 -0.3299
  253MOL0     H33374  -2.204   8.862   8.275  2.2135  0.0325  0.7545
  253MOL0     H33375  -2.150   9.029   8.242 -1.5439 -0.7168  2.5431
  253MOL0     H33376  -2.116   8.984   8.008  0.6803  2.0317  2.4052
  253MOL0     H33377  -2.288   8.947   8.053 -0.9041 -1.2174  2.2034
  253MOL0     H33378  -1.066   8.788   8.440 -0.6055  1.3318 -0.3135
  253MOL0     H33379  -0.853   8.766   8.348 -0.7358  1.2868  1.7204
  253MOL0     H33380  -0.604   8.625   7.974  1.5413 -0.8244 -0.4376
  253MOL0     H33381  -0.401   8.585   7.862  0.8904  0.0841 -2.4680
  253MOL0     H33382   0.614   8.273   7.246  0.3590  0.6532  1.0275
  253MOL0     H33383   0.805   8.136   7.325 -1.4463  0.1741 -0.7053
  253MOL0     H33384   1.040   7.963   7.633  0.9224  0.3168 -3.0940
  253MOL0     H33385   1.238   7.849   7.763 -0.3349  0.3155 -1.7317
  253MOL0     H33386   1.289   7.443   7.651 -2.2126  0.2942  0.1993
  253MOL0     H33387   1.251   7.407   7.817  2.7234 -1.0689  0.6949
  253MOL0     H33388   1.484   7.359   7.759 -1.4193 -0.4551  0.8527
  253MOL0     H33389   1.510   7.535   7.781  0.9651 -1.5331 -1.6479
  253MOL0     H33390   1.440   7.306   7.968  1.4090 -1.1029 -3.4018
  253MOL0     H33391   1.382   7.476   8.006  1.0605  2.6758 -0.7239
  253MOL0     H33392   1.661   7.385   7.953  0.9477  1.0369 -0.3904
  253MOL0     H33393   1.612   7.551   7.985 -0.3098 -1.2545 -1.0770
  253MOL0     H33394   1.644   7.386   8.382  0.0775  1.0132 -0.6035
  253MOL0     H33395   1.039   7.472   7.684 -1.6031  0.8392 -1.3200
  253MOL0     H33396   0.865   7.572   7.585 -1.2671  1.3676  0.0781
  254MOL0     O33397   2.895   3.171   2.982  0.6099  0.0883  0.2562
  254MOL0     C33398   2.929   3.254   3.066  0.0492 -0.0469 -0.2075
  254MOL0     O33399   2.848   3.320   3.149  0.1128 -0.5216  0.7037
  254MOL0     C33400   2.713   3.309   3.138  0.1742  0.1702 -0.1165
  254MOL0     C33401   2.644   3.399   3.062 -0.5250  0.2059  0.1699
  254MOL0     C33402   2.506   3.385   3.058 -0.2054 -0.1113  0.4606
  254MOL0     C33403   2.436   3.291   3.131 -0.1690 -0.8549  0.1890
  254MOL0     O33404   2.296   3.284   3.113 -0.4031  0.1528 -0.4777
  254MOL0     C33405   2.223   3.175   3.180 -0.6672 -0.3392  0.1222
  254MOL0     C33406   2.076   3.186   3.137  0.5910  0.5519 -0.4665
  254MOL0     C33407   2.014   3.302   3.198  0.3589 -0.6407 -0.2324
  254MOL0     C33408   1.864   3.303   3.164  0.0331 -0.3661 -0.7776
  254MOL0     C33409   1.792   3.440   3.200  0.1813  0.1441  0.2083
  254MOL0     C33410   1.642   3.421   3.171 -0.0457 -0.2693  0.1546
  254MOL0     C33411   1.546   3.524   3.225  0.8437 -1.0847  0.0661
  254MOL0     C33412   1.613   3.667   3.240 -0.3569 -0.2826  0.6154
  254MOL0     N33413   1.540   3.764   3.324  0.1247  0.0905 -0.0370
  254MOL0     C33414   1.403   3.772   3.342 -1.2475  0.5554 -0.0306
  254MOL0     C33415   1.387   3.863   3.442 -0.3437 -0.3348  0.3891
  254MOL0     C33416   1.258   3.904   3.517 -0.1174  0.5272 -0.1283
  254MOL0     C33417   1.136   3.938   3.419 -0.0406  0.5745 -0.7079
  254MOL0     C33418   1.163   4.056   3.321 -0.1043 -0.0017  0.3872
  254MOL0     C33419   1.050   4.079   3.218  0.0601  0.6945 -0.5552
  254MOL0     O33420   1.001   3.950   3.168 -0.6983 -0.4008  0.5173
  254MOL0     C33421   0.862   3.926   3.158  0.3365  0.3391 -0.1443
  254MOL0     C33422   0.761   4.023   3.164 -0.1179 -0.7018 -0.5825
  254MOL0     C33423   0.621   3.989   3.157 -0.1809  0.1834 -0.6850
  254MOL0     C33424   0.580   3.854   3.139 -0.5908  0.1774 -0.0519
  254MOL0     C33425   0.444   3.799   3.159  1.1123 -0.2494  0.9836
  254MOL0     O33426   0.339   3.894   3.139  0.1910  0.1097  0.8589
  254MOL0     C33427   0.214   3.846   3.145 -0.0993 -0.2941 -0.0134
  254MOL0     C33428   0.160   3.799   3.267  0.2456 -0.1748  0.1905
  254MOL0     C33429   0.028   3.758   3.280  0.9942 -0.6694  0.5019
  254MOL0     C33430  -0.053   3.770   3.164 -0.4280  0.9696 -1.1366
  254MOL0     O33431  -0.183   3.741   3.152 -0.4112 -0.4985 -0.1165
  254MOL0     C33432  -0.246   3.686   3.271  0.6832 -0.1767  1.0849
  254MOL0     C33433  -0.396   3.669   3.243  0.3266  0.2243  0.1168
  254MOL0     C33434  -0.447   3.565   3.333 -0.1346  0.2711 -0.2753
  254MOL0     C33435  -0.595   3.536   3.302  0.1214 -0.2073 -0.5525
  254MOL0     C33436  -0.694   3.630   3.375  0.7981 -0.4022 -0.3168
  254MOL0     C33437  -0.836   3.578   3.378  0.5416 -0.5049 -0.4304
  254MOL0     C33438  -0.927   3.691   3.448 -0.9841  0.5533  0.0263
  254MOL0     C33439  -1.067   3.628   3.455  0.1504 -0.7455  0.2384
  254MOL0    Cl33440  -1.192   3.754   3.503  0.1507  0.3456 -0.7969
  254MOL0     C33441   0.002   3.802   3.044  0.2990  0.2817 -0.4214
  254MOL0     C33442   0.135   3.852   3.029  1.3939  0.5943 -0.8890
  254MOL0     O33443   0.420   3.679   3.205 -0.5812  0.0864  1.0490
  254MOL0     C33444   0.684   3.771   3.119  0.1116 -0.5162 -0.1446
  254MOL0     C33445   0.819   3.803   3.116 -0.2725 -0.4130  0.1924
  254MOL0     N33446   1.520   3.912   3.470  0.2009 -0.1772  0.1561
  254MOL0     N33447   1.601   3.864   3.385  0.1527 -0.2545 -0.7394
  254MOL0     C33448   2.509   3.204   3.207 -0.0792  0.0605 -0.9026
  254MOL0     C33449   2.648   3.201   3.204 -0.4840  0.7826  0.0380
  254MOL0     C33450   3.074   3.289   3.077 -0.4832 -0.5761 -0.6959
  254MOL0     C33451   3.163   3.202   3.009  0.5020 -0.3358 -0.8254
  254MOL0     C33452   3.303   3.217   3.023  0.7241  0.6123  0.3511
  254MOL0     C33453   3.360   3.321   3.095  0.8393 -0.1835  0.5013
  254MOL0     O33454   3.490   3.348   3.118 -0.1157 -0.6125  0.2889
  254MOL0     C33455   3.580   3.284   3.031 -0.1176  0.5465  0.5647
  254MOL0     C33456   3.729   3.324   3.088 -0.5350 -0.0287  0.9758
  254MOL0     C33457   3.839   3.226   3.039  0.5856  0.0261 -0.0606
  254MOL0     C33458   3.981   3.262   3.083  1.0806  0.3228 -0.3201
  254MOL0     C33459   4.010   3.400   3.045 -0.3993 -0.1073  0.8617
  254MOL0     C33460   4.050   3.507   3.005 -0.0998 -0.0999 -0.3534
  254MOL0     C33461   3.277   3.398   3.171 -0.2518  0.7061  1.0453
  254MOL0     C33462   3.138   3.390   3.158  0.4219 -0.4649 -0.2059
  254MOL0     H33463   2.691   3.489   3.024 -1.7186  0.6761 -0.2309
  254MOL0     H33464   2.462   3.463   2.996 -0.3186 -0.5926 -0.0740
  254MOL0     H33465   2.230   3.192   3.288 -3.8589 -1.5359  0.6136
  254MOL0     H33466   2.278   3.081   3.167 -0.0475 -0.4036  2.5968
  254MOL0     H33467   2.034   3.095   3.179  1.3273  0.7700  0.7840
  254MOL0     H33468   2.066   3.173   3.029  0.8375 -1.6980 -0.2630
  254MOL0     H33469   2.063   3.388   3.151  2.2579 -0.6697  1.5344
  254MOL0     H33470   2.028   3.300   3.307 -0.7232 -0.9924 -0.0810
  254MOL0     H33471   1.858   3.281   3.057  1.1164  1.9647 -1.3804
  254MOL0     H33472   1.809   3.229   3.222 -2.2095  0.0158 -2.2951
  254MOL0     H33473   1.834   3.527   3.149  2.2521 -0.0622  1.4529
  254MOL0     H33474   1.803   3.457   3.308 -0.6135 -0.3561  0.3773
  254MOL0     H33475   1.614   3.321   3.207  1.6596 -1.2044 -0.9520
  254MOL0     H33476   1.626   3.403   3.064  1.0885 -0.6766  0.0392
  254MOL0     H33477   1.451   3.530   3.170  0.8055  3.0269  0.2879
  254MOL0     H33478   1.527   3.482   3.324 -1.6843 -1.3425 -0.4602
  254MOL0     H33479   1.624   3.718   3.144 -2.6102  0.4008  0.6615
  254MOL0     H33480   1.708   3.648   3.290 -0.7333 -1.3525  0.9593
  254MOL0     H33481   1.329   3.717   3.284 -0.3468  2.0565 -2.8081
  254MOL0     H33482   1.282   3.996   3.571  2.9463  1.2716 -2.4876
  254MOL0     H33483   1.221   3.832   3.590 -0.0720  1.5722  0.9480
  254MOL0     H33484   1.045   3.954   3.477  0.8087 -1.3149  1.2479
  254MOL0     H33485   1.107   3.848   3.364  1.3918 -2.0034  2.4609
  254MOL0     H33486   1.180   4.145   3.383 -2.8299  0.3525  0.7185
  254MOL0     H33487   1.250   4.027   3.261 -0.1012 -1.7676  1.1991
  254MOL0     H33488   1.087   4.139   3.134  1.5529 -0.0888 -0.4872
  254MOL0     H33489   0.966   4.135   3.261  0.3859 -0.3919  1.6254
  254MOL0     H33490   0.785   4.127   3.185  0.8182 -1.2042  1.0087
  254MOL0     H33491   0.541   4.060   3.175 -0.5266 -0.4855  0.4942
  254MOL0     H33492   0.227   3.795   3.352  0.2839 -0.5480  0.1437
  254MOL0     H33493  -0.020   3.729   3.374  0.2038 -1.9464 -0.2594
  254MOL0     H33494  -0.218   3.750   3.355  1.0232  0.4197  0.5277
  254MOL0     H33495  -0.208   3.586   3.294 -0.3936 -0.6966  0.6626
  254MOL0     H33496  -0.428   3.645   3.142 -1.4597  1.0483  0.4438
  254MOL0     H33497  -0.434   3.770   3.262 -0.4045 -0.5353  3.3149
  254MOL0     H33498  -0.426   3.584   3.439 -1.6174  1.3577 -0.1419
  254MOL0     H33499  -0.406   3.470   3.298 -1.2817 -1.4092  2.5587
  254MOL0     H33500  -0.610   3.533   3.194 -0.1859 -1.3666 -0.4987
  254MOL0     H33501  -0.607   3.437   3.348  2.5084 -0.0500  0.5616
  254MOL0     H33502  -0.687   3.729   3.330  1.6799  0.2409  1.1653
  254MOL0     H33503  -0.674   3.637   3.482 -3.2666 -1.0495  0.6601
  254MOL0     H33504  -0.830   3.477   3.419  1.1443 -1.1808 -2.0805
  254MOL0     H33505  -0.873   3.565   3.275  1.8480 -0.3948 -0.9287
  254MOL0     H33506  -0.890   3.722   3.546 -2.2643  1.5495  0.2290
  254MOL0     H33507  -0.927   3.779   3.383  0.7474 -0.3053 -1.2238
  254MOL0     H33508  -1.060   3.544   3.524  0.4660 -2.6751 -2.0348
  254MOL0     H33509  -1.085   3.589   3.355  0.7027  2.5561 -1.3002
  254MOL0     H33510  -0.063   3.795   2.957 -0.5403  0.7968  0.1471
  254MOL0     H33511   0.159   3.890   2.930 -0.8646 -1.8103 -2.4780
  254MOL0     H33512   0.657   3.667   3.101 -1.1488 -0.2759  0.2158
  254MOL0     H33513   0.900   3.731   3.106  0.7192  0.5565  0.9377
  254MOL0     H33514   2.474   3.124   3.272 -0.6802  1.7279  0.9189
  254MOL0     H33515   2.705   3.131   3.264 -0.2793  2.3576  1.7767
  254MOL0     H33516   3.115   3.134   2.939 -1.2738 -2.3462  2.1340
  254MOL0     H33517   3.359   3.145   2.963  0.6258 -0.5546  1.6144
  254MOL0     H33518   3.572   3.322   2.929  2.9058  1.4652  0.5870
  254MOL0     H33519   3.562   3.176   3.027 -3.7457  0.7588  4.1278
  254MOL0     H33520   3.749   3.431   3.072 -3.2391  0.5127  0.7939
  254MOL0     H33521   3.729   3.328   3.197  3.2660  3.7946  1.1089
  254MOL0     H33522   3.838   3.214   2.931  1.2051  3.2307 -0.5237
  254MOL0     H33523   3.816   3.123   3.068 -0.6436 -0.1060 -1.4217
  254MOL0     H33524   3.993   3.250   3.191 -1.9635  1.3862  0.2531
  254MOL0     H33525   4.050   3.201   3.024  1.0106  1.9256 -2.1428
  254MOL0     H33526   4.085   3.608   2.995 -0.5851  0.2963  1.5608
  254MOL0     H33527   3.326   3.481   3.221  3.4645 -0.8011  0.2662
  254MOL0     H33528   3.085   3.466   3.216 -1.2247 -1.2797 -0.5710
  255MOL0     O33529   6.418   1.320   9.342  0.0086 -0.3313  0.5346
  255MOL0     C33530   6.430   1.395   9.245  0.7125 -0.3338 -0.2398
  255MOL0     O33531   6.336   1.418   9.153  0.1677  0.2124 -0.7987
  255MOL0     C33532   6.200   1.385   9.170  0.6289 -0.4586  0.4649
  255MOL0     C33533   6.141   1.427   9.287  0.4652  0.2525 -0.9527
  255MOL0     C33534   6.005   1.409   9.306 -0.7464 -0.6019  0.5119
  255MOL0     C33535   5.930   1.343   9.209 -0.2927 -0.3843  0.1225
  255MOL0     O33536   5.792   1.338   9.224  0.3609 -0.5136  0.1074
  255MOL0     C33537   5.724   1.377   9.346 -0.8387  1.0672  0.2292
  255MOL0     C33538   5.578   1.345   9.339 -0.1342  0.0434 -0.6600
  255MOL0     C33539   5.498   1.434   9.237 -0.5479  0.4593 -0.0976
  255MOL0     C33540   5.360   1.382   9.187 -0.4962  0.2346  0.5901
  255MOL0     C33541   5.302   1.492   9.101 -0.0087  0.0489  0.5047
  255MOL0     C33542   5.170   1.459   9.024  0.7780 -0.0481  0.5669
  255MOL0     C33543   5.125   1.574   8.933  0.4328  0.2472 -0.0581
  255MOL0     C33544   5.097   1.703   9.012 -0.3175  0.7797 -0.0024
  255MOL0     N33545   5.012   1.683   9.131  0.0971  0.0891 -0.0556
  255MOL0     C33546   4.903   1.590   9.153  0.0159  0.2941  1.0698
  255MOL0     C33547   4.858   1.619   9.278 -0.0151 -0.3517 -0.0872
  255MOL0     C33548   4.740   1.554   9.346  0.4910  0.0176  0.3751
  255MOL0     C33549   4.611   1.624   9.311  0.1286  0.6413 -0.1339
  255MOL0     C33550   4.584   1.755   9.388 -0.7267  0.3945  0.2886
  255MOL0     C33551   4.437   1.791   9.368  0.3704 -0.1934  0.2430
  255MOL0     O33552   4.353   1.691   9.409  0.0637 -0.0459 -0.2604
  255MOL0     C33553   4.218   1.713   9.432  0.4100  0.2122 -0.3972
  255MOL0     C33554   4.149   1.836   9.405 -0.3686 -0.9712 -0.1989
  255MOL0     C33555   4.013   1.858   9.432 -0.1532 -0.1876  0.5822
  255MOL0     C33556   3.939   1.750   9.485  0.6764 -0.4038  0.9641
  255MOL0     C33557   3.791   1.767   9.499  0.0754  0.7659 -1.0278
  255MOL0     O33558   3.730   1.653   9.535  0.2730 -0.3784  0.0237
  255MOL0     C33559   3.589   1.632   9.538 -1.6429  0.4081  0.6571
  255MOL0     C33560   3.493   1.732   9.538 -0.9997 -0.0185 -0.4040
  255MOL0     C33561   3.357   1.704   9.509 -0.2067 -0.0628  0.4947
  255MOL0     C33562   3.314   1.572   9.502  0.1833 -0.2750 -0.3906
  255MOL0     O33563   3.180   1.553   9.484  0.5499  0.0773  0.2873
  255MOL0     C33564   3.137   1.421   9.438 -0.0528  0.0001 -0.3246
  255MOL0     C33565   2.993   1.442   9.390  0.1732 -0.2542 -0.5085
  255MOL0     C33566   2.994   1.509   9.249 -0.3289 -0.5673  0.1564
  255MOL0     C33567   2.850   1.562   9.219 -0.5644  0.1296  0.2423
  255MOL0     C33568   2.796   1.570   9.083 -0.2594  0.2060 -0.3418
  255MOL0     C33569   2.863   1.674   8.995 -0.4441 -0.0927 -0.0745
  255MOL0     C33570   2.778   1.709   8.880  0.1235  0.1026 -0.2066
  255MOL0     C33571   2.729   1.596   8.792 -0.2042 -0.5548 -0.2279
  255MOL0    Cl33572   2.644   1.646   8.654 -0.0482 -0.6663  0.5481
  255MOL0     C33573   3.403   1.468   9.532 -0.5884  0.1334 -0.2282
  255MOL0     C33574   3.543   1.501   9.545 -0.2586 -0.5325 -0.7093
  255MOL0     O33575   3.740   1.876   9.497 -0.5063  0.1135 -0.3841
  255MOL0     C33576   4.000   1.627   9.506 -0.2394  0.1458  0.2796
  255MOL0     C33577   4.138   1.607   9.485 -0.3549 -1.1712 -0.1631
  255MOL0     N33578   4.935   1.724   9.329 -0.2116  0.7567 -0.2200
  255MOL0     N33579   5.040   1.743   9.248  0.5457 -0.4783  0.8329
  255MOL0     C33580   5.992   1.286   9.098  0.6582  0.0576  0.5198
  255MOL0     C33581   6.127   1.313   9.071 -0.4334 -0.0333 -0.7710
  255MOL0     C33582   6.563   1.443   9.225  0.8255  0.8394 -0.0569
  255MOL0     C33583   6.595   1.494   9.093  0.3417 -0.5613 -0.1086
  255MOL0     C33584   6.725   1.541   9.073  0.1952 -0.4445 -0.6682
  255MOL0     C33585   6.829   1.526   9.166  0.0485 -0.0819 -0.3202
  255MOL0     O33586   6.954   1.571   9.131 -0.5212 -0.5142  0.7520
  255MOL0     C33587   7.078   1.542   9.210 -0.0686  0.3156 -0.4928
  255MOL0     C33588   7.198   1.593   9.138  0.3336 -0.3978 -0.0776
  255MOL0     C33589   7.231   1.520   9.014  0.3271 -0.5229  0.0532
  255MOL0     C33590   7.366   1.573   8.954 -0.2747  0.6721 -0.2186
  255MOL0     C33591   7.364   1.587   8.813  0.7089 -0.7777  0.6174
  255MOL0     C33592   7.358   1.601   8.693  0.3475  0.0179  0.6616
  255MOL0     C33593   6.801   1.462   9.293 -0.2153  0.3943  1.2194
  255MOL0     C33594   6.670   1.428   9.317  1.1085  0.3598  0.3000
  255MOL0     H33595   6.194   1.487   9.360  0.2942  0.0249 -0.6400
  255MOL0     H33596   5.967   1.452   9.398 -1.7570  0.3531 -0.3293
  255MOL0     H33597   5.730   1.486   9.359  0.7246  1.1947 -1.1347
  255MOL0     H33598   5.762   1.325   9.434  0.2429 -0.0656 -0.8593
  255MOL0     H33599   5.538   1.359   9.440  0.0787 -0.0944 -0.5551
  255MOL0     H33600   5.569   1.238   9.319 -0.2976 -0.0268 -0.2231
  255MOL0     H33601   5.565   1.454   9.152  0.6155 -2.9723 -0.1481
  255MOL0     H33602   5.475   1.520   9.300 -2.6694 -2.9174  4.2679
  255MOL0     H33603   5.372   1.294   9.123 -0.4314  0.9062 -0.3254
  255MOL0     H33604   5.304   1.347   9.275 -0.5616 -0.3655  0.3182
  255MOL0     H33605   5.366   1.528   9.020 -1.1749  0.9982 -0.0293
  255MOL0     H33606   5.283   1.576   9.168  2.2973  2.2674 -1.4003
  255MOL0     H33607   5.086   1.432   9.089 -0.0169  0.2866 -0.3019
  255MOL0     H33608   5.199   1.377   8.959  0.7494 -0.3310  0.9098
  255MOL0     H33609   5.204   1.579   8.858  0.4668 -0.0810 -0.0462
  255MOL0     H33610   5.037   1.543   8.876  0.5623  0.2293 -0.2473
  255MOL0     H33611   5.039   1.777   8.957 -0.5994  0.8458  0.3877
  255MOL0     H33612   5.191   1.749   9.045  0.1211  0.1307 -0.2988
  255MOL0     H33613   4.859   1.520   9.083  0.1609 -0.0369  1.3090
  255MOL0     H33614   4.748   1.562   9.455  0.8081  1.3608  0.2822
  255MOL0     H33615   4.718   1.449   9.328 -0.9706  0.3694 -0.0300
  255MOL0     H33616   4.526   1.556   9.317  0.2302  0.3456 -1.6729
  255MOL0     H33617   4.616   1.654   9.206  0.5395  0.6005 -0.1288
  255MOL0     H33618   4.612   1.751   9.493  2.4999  1.0108 -0.4419
  255MOL0     H33619   4.640   1.840   9.350 -2.8594  1.4635 -0.6226
  255MOL0     H33620   4.420   1.798   9.260 -0.1823 -0.5945  0.3016
  255MOL0     H33621   4.403   1.886   9.410 -1.6554  0.0222 -1.6481
  255MOL0     H33622   4.201   1.918   9.356 -2.5174  0.0863 -0.8270
  255MOL0     H33623   3.974   1.956   9.409 -1.4380 -0.7356  0.3339
  255MOL0     H33624   3.513   1.837   9.556 -1.2936 -0.0706  0.2594
  255MOL0     H33625   3.293   1.788   9.488 -1.0121 -0.9657 -0.8102
  255MOL0     H33626   3.118   1.347   9.517 -0.2333  0.9582  0.5445
  255MOL0     H33627   3.196   1.372   9.359  0.8618  1.2415 -0.4397
  255MOL0     H33628   2.949   1.510   9.465 -2.9961 -3.1893  0.5346
  255MOL0     H33629   2.933   1.351   9.394 -0.8374  0.3829  2.8956
  255MOL0     H33630   3.027   1.435   9.176  0.9978  0.6461 -0.5215
  255MOL0     H33631   3.052   1.602   9.241 -1.2895 -0.0930 -2.1148
  255MOL0     H33632   2.782   1.497   9.275 -0.1066 -0.1684  0.4507
  255MOL0     H33633   2.859   1.664   9.257 -1.0531  1.4890 -2.9469
  255MOL0     H33634   2.690   1.595   9.091 -0.4980 -1.0619  0.7107
  255MOL0     H33635   2.800   1.472   9.034 -1.6448  0.9815 -2.1025
  255MOL0     H33636   2.962   1.638   8.967 -0.8743 -0.5397 -1.0583
  255MOL0     H33637   2.871   1.761   9.061 -2.2665 -1.5413  2.2639
  255MOL0     H33638   2.693   1.756   8.930  2.0496  1.5887  1.8679
  255MOL0     H33639   2.831   1.778   8.814  1.4765 -1.8436 -1.2672
  255MOL0     H33640   2.677   1.521   8.852  0.0859 -0.5660  0.0092
  255MOL0     H33641   2.814   1.533   8.763 -0.2877 -1.5411  1.5298
  255MOL0     H33642   3.383   1.362   9.543 -0.0549 -0.1580 -1.9018
  255MOL0     H33643   3.618   1.423   9.553 -1.3577 -2.0811 -3.9010
  255MOL0     H33644   3.944   1.549   9.558 -1.6345  0.5819 -0.5216
  255MOL0     H33645   4.182   1.508   9.498  3.6170  0.4924  0.7087
  255MOL0     H33646   5.924   1.230   9.034  0.2593  1.9570 -0.8346
  255MOL0     H33647   6.174   1.270   8.983 -0.8580 -1.3665 -0.3593
  255MOL0     H33648   6.513   1.488   9.022 -0.2996 -0.9976  0.6467
  255MOL0     H33649   6.758   1.588   8.981 -0.0311  0.1241 -0.4665
  255MOL0     H33650   7.081   1.438   9.242  0.4674 -0.6806 -3.4565
  255MOL0     H33651   7.078   1.604   9.300 -1.9500 -2.6077  1.7153
  255MOL0     H33652   7.181   1.696   9.105  1.8324 -0.4532 -1.1130
  255MOL0     H33653   7.283   1.588   9.207 -1.0391 -3.1529  1.5940
  255MOL0     H33654   7.152   1.555   8.948 -0.9827 -1.5050  1.0577
  255MOL0     H33655   7.213   1.415   9.037 -1.4539  0.2942  2.8995
  255MOL0     H33656   7.398   1.669   8.995  1.4674  0.0226  0.0640
  255MOL0     H33657   7.444   1.508   8.997 -1.8054  0.1579  1.9617
  255MOL0     H33658   7.367   1.609   8.587 -0.7460  1.3693  0.6404
  255MOL0     H33659   6.882   1.437   9.361  0.6846 -1.0670 -0.3116
  255MOL0     H33660   6.639   1.405   9.419 -4.2561  3.8780 -0.1490
  256MOL0     O33661   1.214   4.503   3.089  0.0134  0.4125 -0.6578
  256MOL0     C33662   1.231   4.442   2.989  0.0811 -0.3274 -0.0606
  256MOL0     O33663   1.132   4.382   2.912  1.0776 -0.3800  0.7128
  256MOL0     C33664   1.001   4.377   2.937  0.6600 -0.2618 -0.5435
  256MOL0     C33665   0.929   4.263   2.894  0.5484  0.7957  0.1012
  256MOL0     C33666   0.789   4.250   2.913  0.1819  0.5051 -0.2307
  256MOL0     C33667   0.718   4.361   2.961 -0.4884  0.0272 -0.1199
  256MOL0     O33668   0.583   4.374   2.980  0.5682  1.1655  0.0141
  256MOL0     C33669   0.495   4.311   2.882  0.4748  0.0675 -0.1701
  256MOL0     C33670   0.346   4.344   2.928 -0.9575  0.1867  1.1082
  256MOL0     C33671   0.245   4.244   2.880 -0.1126 -0.1985 -0.1984
  256MOL0     C33672   0.127   4.262   2.970 -0.2914 -0.4128 -0.0314
  256MOL0     C33673  -0.018   4.242   2.910  0.5043  0.0250  0.0651
  256MOL0     C33674  -0.036   4.125   2.819  0.3305 -0.1747 -0.3479
  256MOL0     C33675  -0.166   4.046   2.854  0.1606  0.1782 -0.7732
  256MOL0     C33676  -0.284   4.126   2.804  0.5540 -0.0938 -0.2104
  256MOL0     N33677  -0.392   4.048   2.748  0.1052  0.0498 -0.6201
  256MOL0     C33678  -0.505   4.007   2.817 -0.0273 -0.3886 -0.0406
  256MOL0     C33679  -0.556   3.915   2.731  1.0658  0.6990  0.0207
  256MOL0     C33680  -0.688   3.840   2.759 -0.0987 -0.7210  0.0046
  256MOL0     C33681  -0.655   3.762   2.880 -0.4109 -0.3668 -0.1217
  256MOL0     C33682  -0.772   3.658   2.910 -0.2557  0.8332 -0.5868
  256MOL0     C33683  -0.886   3.742   2.966  0.3276  0.9050 -1.2478
  256MOL0     O33684  -1.015   3.667   2.976 -0.2222  0.1105 -0.2787
  256MOL0     C33685  -1.097   3.657   2.869 -0.3138  0.2563 -0.0478
  256MOL0     C33686  -1.213   3.589   2.895  0.4866 -0.0542 -0.3690
  256MOL0     C33687  -1.300   3.543   2.793 -0.2205 -0.0685  0.7800
  256MOL0     C33688  -1.275   3.570   2.653  1.3174 -0.4352  0.4099
  256MOL0     C33689  -1.378   3.541   2.545 -0.3245  0.1422 -0.1215
  256MOL0     O33690  -1.474   3.455   2.572 -0.1661 -1.0082  0.4360
  256MOL0     C33691  -1.554   3.429   2.461 -0.3672 -0.3210  0.1103
  256MOL0     C33692  -1.521   3.341   2.360  0.0518 -0.6787 -0.5138
  256MOL0     C33693  -1.618   3.311   2.262  0.3288  0.6114  0.5035
  256MOL0     C33694  -1.752   3.362   2.271  0.6002  0.2479 -1.1694
  256MOL0     O33695  -1.841   3.314   2.177 -1.0209  0.4193  0.5962
  256MOL0     C33696  -1.973   3.363   2.165 -0.6150 -0.3764  0.9684
  256MOL0     C33697  -2.027   3.295   2.037  0.5535 -0.5051 -0.2455
  256MOL0     C33698  -2.179   3.324   2.018  0.9751 -0.6408  0.3481
  256MOL0     C33699  -2.213   3.269   1.883 -0.7012  0.3542 -0.8258
  256MOL0     C33700  -2.369   3.260   1.872 -0.3706 -0.3732  0.4516
  256MOL0     C33701  -2.440   3.142   1.934 -0.0517  0.5361  0.9463
  256MOL0     C33702  -2.587   3.120   1.897 -0.6924 -0.7213  0.0061
  256MOL0     C33703  -2.680   3.208   1.976 -0.4849  0.4784 -0.2040
  256MOL0    Cl33704  -2.852   3.203   1.924 -0.0259  0.0101  0.3907
  256MOL0     C33705  -1.779   3.449   2.377 -0.5141 -0.2473  1.2935
  256MOL0     C33706  -1.676   3.489   2.466 -0.1437  0.4741 -0.2932
  256MOL0     O33707  -1.363   3.603   2.438  0.5305 -0.9762  0.2664
  256MOL0     C33708  -1.161   3.650   2.634  0.2542 -0.0078  0.4259
  256MOL0     C33709  -1.075   3.694   2.736  0.2284  0.1130 -0.2316
  256MOL0     N33710  -0.480   3.899   2.617 -0.0819 -0.4189  0.0648
  256MOL0     N33711  -0.382   3.992   2.623  0.1263 -0.1152 -0.6345
  256MOL0     C33712   0.785   4.473   3.000  0.6784  0.2364  0.6512
  256MOL0     C33713   0.925   4.484   2.995 -0.2658 -0.9128  0.1462
  256MOL0     C33714   1.381   4.416   2.957 -0.8807 -0.3028 -0.9353
  256MOL0     C33715   1.493   4.500   3.009 -0.1171  0.3441  0.4237
  256MOL0     C33716   1.616   4.480   2.971 -0.8511  0.0926  0.5565
  256MOL0     C33717   1.652   4.365   2.892  0.1633 -0.5752  0.1379
  256MOL0     O33718   1.784   4.341   2.859 -0.2314 -0.0536 -0.2127
  256MOL0     C33719   1.875   4.453   2.833 -0.0769 -0.5637 -0.0828
  256MOL0     C33720   1.835   4.548   2.717  0.0754 -1.0197  0.0770
  256MOL0     C33721   1.940   4.659   2.679  0.2042  0.1049 -0.2963
  256MOL0     C33722   2.055   4.612   2.592 -0.0141  0.2080 -0.6438
  256MOL0     C33723   2.147   4.727   2.572  0.3641 -0.4133  0.1207
  256MOL0     C33724   2.243   4.808   2.573  0.1626 -0.1266  0.2577
  256MOL0     C33725   1.551   4.273   2.853 -0.6047  0.6605 -0.5711
  256MOL0     C33726   1.416   4.308   2.878  0.1116  0.2520 -0.1538
  256MOL0     H33727   0.988   4.175   2.868 -0.2204 -0.1375  1.3873
  256MOL0     H33728   0.738   4.157   2.889 -1.0920  1.5666 -1.8631
  256MOL0     H33729   0.503   4.202   2.883 -1.1428 -0.0646 -0.3952
  256MOL0     H33730   0.510   4.344   2.779 -0.9175  0.2726 -0.3235
  256MOL0     H33731   0.314   4.445   2.900 -3.1905 -0.3785  1.4472
  256MOL0     H33732   0.341   4.346   3.038 -0.5304 -2.6939  1.2606
  256MOL0     H33733   0.275   4.139   2.886 -4.7006 -1.6820  1.1245
  256MOL0     H33734   0.220   4.254   2.774 -1.6214 -1.0927  0.0330
  256MOL0     H33735   0.141   4.189   3.051 -0.4276 -1.4079 -0.8795
  256MOL0     H33736   0.119   4.360   3.017  0.4709 -0.0181 -0.7127
  256MOL0     H33737  -0.043   4.333   2.855 -0.3873 -0.6030 -0.6048
  256MOL0     H33738  -0.084   4.230   2.996  1.3048 -2.0135  0.4614
  256MOL0     H33739   0.049   4.058   2.833  0.9749  0.4230 -1.2969
  256MOL0     H33740  -0.032   4.147   2.712  0.5472  0.7610 -0.1606
  256MOL0     H33741  -0.161   3.948   2.805  2.3761 -2.2287  3.5781
  256MOL0     H33742  -0.164   4.022   2.961  1.1372 -0.0931 -0.8392
  256MOL0     H33743  -0.245   4.204   2.737 -1.0886  3.0520  2.2449
  256MOL0     H33744  -0.327   4.188   2.883  0.5051  0.6952 -0.8432
  256MOL0     H33745  -0.561   4.055   2.897 -3.5133  1.1802 -3.1421
  256MOL0     H33746  -0.721   3.781   2.673 -1.0983  1.0372 -0.8693
  256MOL0     H33747  -0.769   3.913   2.770  0.1499 -0.5291  0.6094
  256MOL0     H33748  -0.628   3.823   2.966  4.1137  1.8572 -2.7703
  256MOL0     H33749  -0.569   3.699   2.857  1.1534  1.3866  0.6481
  256MOL0     H33750  -0.799   3.594   2.826  1.0530 -2.4546  1.3082
  256MOL0     H33751  -0.737   3.584   2.982 -1.9901 -0.5071 -1.0523
  256MOL0     H33752  -0.895   3.834   2.909  1.5723 -0.1875 -3.3154
  256MOL0     H33753  -0.859   3.759   3.071 -1.4867 -3.0579  0.0922
  256MOL0     H33754  -1.249   3.575   2.996 -2.5956  0.5221 -1.2917
  256MOL0     H33755  -1.384   3.484   2.830  0.3463 -1.7773 -0.5320
  256MOL0     H33756  -1.426   3.288   2.360  2.4784  3.2437 -1.5792
  256MOL0     H33757  -1.581   3.243   2.186  0.6545 -0.6127  1.7044
  256MOL0     H33758  -1.986   3.472   2.155  0.7345 -0.3310 -0.7196
  256MOL0     H33759  -2.024   3.339   2.259  1.1046 -1.2523  1.7055
  256MOL0     H33760  -2.025   3.186   2.045 -2.8899 -0.5191  3.3757
  256MOL0     H33761  -1.981   3.348   1.953 -0.0721 -0.2269 -0.4160
  256MOL0     H33762  -2.206   3.429   2.031 -2.6455 -1.2200 -1.3638
  256MOL0     H33763  -2.223   3.276   2.106 -0.7301  1.8779  0.9803
  256MOL0     H33764  -2.164   3.333   1.810 -0.7071 -0.4492 -1.5585
  256MOL0     H33765  -2.169   3.169   1.873  1.7555  1.5088 -2.6169
  256MOL0     H33766  -2.383   3.260   1.763  2.0384  1.0843  0.0747
  256MOL0     H33767  -2.419   3.347   1.916 -1.5033 -2.0336  2.5971
  256MOL0     H33768  -2.430   3.153   2.043  1.5487 -0.8998  0.9769
  256MOL0     H33769  -2.388   3.050   1.907 -0.1593  0.6996  0.1612
  256MOL0     H33770  -2.607   3.137   1.791 -0.9507  1.4505  0.3476
  256MOL0     H33771  -2.627   3.019   1.911 -3.7329 -0.3838 -4.1303
  256MOL0     H33772  -2.643   3.311   1.967  0.5631  0.3869  2.2198
  256MOL0     H33773  -2.691   3.180   2.081 -2.5447  3.0383  0.3700
  256MOL0     H33774  -1.878   3.496   2.378  0.0976  1.3900 -1.7988
  256MOL0     H33775  -1.698   3.546   2.556  0.4561  0.3402 -0.0512
  256MOL0     H33776  -1.134   3.671   2.531  0.9171 -0.3765  0.5160
  256MOL0     H33777  -0.990   3.758   2.715  0.4164  0.3634  1.1998
  256MOL0     H33778   0.727   4.560   3.029 -1.2083  0.3485 -2.8947
  256MOL0     H33779   0.961   4.583   3.020  1.1714 -1.0765 -1.1604
  256MOL0     H33780   1.480   4.584   3.077  0.9685  0.0102  1.0600
  256MOL0     H33781   1.701   4.538   3.007  1.6638 -2.5005 -0.8400
  256MOL0     H33782   1.971   4.407   2.808 -0.1858 -2.1282  2.0539
  256MOL0     H33783   1.880   4.516   2.922  0.0377 -1.9243  0.9117
  256MOL0     H33784   1.808   4.487   2.631  3.1578 -4.0744  1.0591
  256MOL0     H33785   1.746   4.598   2.758 -0.5093 -1.3267 -0.8086
  256MOL0     H33786   1.985   4.697   2.771 -1.2832  0.2990  0.3718
  256MOL0     H33787   1.891   4.736   2.618  3.4753  1.7966 -1.0513
  256MOL0     H33788   2.111   4.540   2.651  0.5915  0.0846 -1.3612
  256MOL0     H33789   2.017   4.560   2.504 -1.0380 -0.8388  0.3817
  256MOL0     H33790   2.307   4.894   2.581 -0.8453  0.6002  0.7506
  256MOL0     H33791   1.570   4.185   2.792 -2.7643 -0.9843  0.9692
  256MOL0     H33792   1.339   4.248   2.830 -0.0454  1.9106 -2.1414
  257MOL0     O33793   4.422   3.746   7.321  0.0253  0.3241  0.2802
  257MOL0     C33794   4.412   3.650   7.247  0.0365 -0.9067 -0.2105
  257MOL0     O33795   4.305   3.565   7.250 -0.5866  0.1672 -0.3324
  257MOL0     C33796   4.205   3.565   7.344 -1.0959 -0.3626  0.8427
  257MOL0     C33797   4.155   3.441   7.389  0.7089  0.5952 -0.3701
  257MOL0     C33798   4.056   3.429   7.476  0.6761  0.3105  0.5830
  257MOL0     C33799   3.993   3.548   7.530  0.3128  0.0399 -0.3375
  257MOL0     O33800   3.877   3.552   7.596 -0.4354  0.0059 -0.3207
  257MOL0     C33801   3.807   3.432   7.596 -0.2882  1.1332  0.2653
  257MOL0     C33802   3.694   3.441   7.692  0.4004 -0.9026 -0.2747
  257MOL0     C33803   3.609   3.309   7.665 -0.0575  1.1091 -0.3445
  257MOL0     C33804   3.470   3.323   7.733  0.3713  0.3578 -0.2611
  257MOL0     C33805   3.375   3.221   7.668  0.7363 -0.1462  0.1911
  257MOL0     C33806   3.240   3.224   7.740  0.1102 -0.2706  1.2684
  257MOL0     C33807   3.185   3.085   7.742 -0.5499 -0.2314 -0.4878
  257MOL0     C33808   3.046   3.080   7.802  0.2289 -0.3524 -0.0926
  257MOL0     N33809   2.988   2.950   7.830  0.5310 -0.2307 -0.0302
  257MOL0     C33810   3.050   2.838   7.883 -0.1107 -0.6581  0.4751
  257MOL0     C33811   2.956   2.739   7.882 -1.2651 -0.2803 -0.0602
  257MOL0     C33812   2.977   2.596   7.939  0.4582 -0.7692 -0.8149
  257MOL0     C33813   2.932   2.597   8.085  0.6372 -0.0742 -0.0414
  257MOL0     C33814   2.928   2.455   8.145  0.5217  0.3123 -0.4651
  257MOL0     C33815   2.862   2.454   8.278 -1.0625 -0.4776  0.0414
  257MOL0     O33816   2.741   2.531   8.292  0.4597  0.3582  0.7266
  257MOL0     C33817   2.623   2.486   8.243 -0.6539  0.1423 -0.0350
  257MOL0     C33818   2.553   2.564   8.156 -0.9107 -0.9710 -0.3260
  257MOL0     C33819   2.431   2.532   8.109  0.5272  0.3188 -0.3718
  257MOL0     C33820   2.365   2.416   8.166 -0.3607  1.3230  0.4224
  257MOL0     C33821   2.229   2.381   8.118 -0.0537  0.0699  0.1131
  257MOL0     O33822   2.156   2.286   8.184  0.2036  0.3956 -0.3065
  257MOL0     C33823   2.030   2.248   8.125 -0.1511 -0.2238 -0.2453
  257MOL0     C33824   1.906   2.296   8.182  0.0120  0.2477 -0.9821
  257MOL0     C33825   1.787   2.263   8.118  0.5259  0.1705 -0.0615
  257MOL0     C33826   1.781   2.181   8.004 -0.3129 -0.2118 -0.5959
  257MOL0     O33827   1.668   2.159   7.935 -0.6497 -0.4830 -0.4009
  257MOL0     C33828   1.546   2.171   7.992  0.4775  0.1210  0.3156
  257MOL0     C33829   1.448   2.091   7.913 -0.2538  0.9448 -0.1599
  257MOL0     C33830   1.328   2.038   7.980  0.5986  0.2623 -0.5668
  257MOL0     C33831   1.231   2.157   7.994 -1.0622 -0.0752 -0.1558
  257MOL0     C33832   1.082   2.115   8.021 -0.3487 -0.9097 -0.3348
  257MOL0     C33833   0.985   2.230   8.039 -1.2262 -0.4435 -1.1068
  257MOL0     C33834   0.847   2.192   8.043  0.2585  0.6084 -0.4320
  257MOL0     C33835   0.758   2.312   8.095 -1.3109 -0.2869 -0.1904
  257MOL0    Cl33836   0.582   2.300   8.066  0.3503 -0.1033  0.1639
  257MOL0     C33837   1.906   2.136   7.950  0.0320  0.0908  0.2331
  257MOL0     C33838   2.030   2.152   8.015  0.2174 -0.7639 -0.0690
  257MOL0     O33839   2.196   2.434   8.007  0.8515  0.3447  0.6227
  257MOL0     C33840   2.439   2.326   8.248  0.2798  0.7672 -0.2783
  257MOL0     C33841   2.568   2.363   8.282  0.3519  0.0523 -0.6186
  257MOL0     N33842   2.840   2.802   7.834 -0.2750  0.7648 -0.8725
  257MOL0     N33843   2.859   2.923   7.799 -1.0486  0.0835 -0.6349
  257MOL0     C33844   4.040   3.672   7.490  0.0760 -0.4586 -0.6222
  257MOL0     C33845   4.149   3.679   7.405 -0.8439  1.0165  0.0220
  257MOL0     C33846   4.528   3.629   7.147  1.0165 -0.6181  0.2970
  257MOL0     C33847   4.648   3.697   7.164  0.8447  0.2628  0.1038
  257MOL0     C33848   4.752   3.670   7.074  0.1144 -0.5041  0.5771
  257MOL0     C33849   4.734   3.590   6.956  0.1421 -0.1870  0.4519
  257MOL0     O33850   4.839   3.556   6.875  0.0807  0.0836 -0.4200
  257MOL0     C33851   4.965   3.622   6.897  0.2853 -0.5471 -0.2618
  257MOL0     C33852   5.073   3.547   6.817  1.2864 -0.1368 -0.8192
  257MOL0     C33853   5.085   3.568   6.663  0.3101  0.1963  0.1008
  257MOL0     C33854   5.217   3.506   6.628 -0.5876 -0.2024  0.2003
  257MOL0     C33855   5.324   3.597   6.653  0.3699 -0.0375  0.9261
  257MOL0     C33856   5.405   3.689   6.659  0.4899  0.0352 -0.6692
  257MOL0     C33857   4.609   3.533   6.939 -0.6345 -0.3798  0.2581
  257MOL0     C33858   4.508   3.546   7.032 -0.5448  0.0211 -0.8786
  257MOL0     H33859   4.192   3.350   7.343  0.6725 -0.8331  2.2793
  257MOL0     H33860   4.030   3.326   7.497  1.3378 -0.3032 -1.4474
  257MOL0     H33861   3.867   3.349   7.636 -1.4168  0.2794  0.2588
  257MOL0     H33862   3.766   3.410   7.497  1.4792  0.7548 -0.4128
  257MOL0     H33863   3.642   3.535   7.672  3.0510  0.9998  1.1626
  257MOL0     H33864   3.720   3.443   7.799 -1.5225 -2.8212  0.3145
  257MOL0     H33865   3.658   3.226   7.717  0.6794  0.8863 -1.3739
  257MOL0     H33866   3.602   3.285   7.558  1.2917  1.0813 -0.4374
  257MOL0     H33867   3.488   3.298   7.838 -0.6165 -0.3394 -0.2398
  257MOL0     H33868   3.434   3.426   7.729 -0.9751 -0.1341 -2.0212
  257MOL0     H33869   3.427   3.125   7.674 -0.1248 -0.7253 -1.1694
  257MOL0     H33870   3.357   3.228   7.560  1.7309  2.6543  0.1299
  257MOL0     H33871   3.169   3.291   7.692  0.1998  0.3806  2.0277
  257MOL0     H33872   3.249   3.270   7.839 -1.8795  1.3478  0.7665
  257MOL0     H33873   3.194   3.034   7.645 -0.5995 -1.5493  0.1757
  257MOL0     H33874   3.257   3.028   7.802  1.5276  1.6424 -1.0790
  257MOL0     H33875   2.978   3.130   7.732 -0.1142 -1.0050 -0.2296
  257MOL0     H33876   3.041   3.142   7.892 -1.4333  1.9725 -1.6692
  257MOL0     H33877   3.153   2.818   7.909  1.1738  1.2155 -2.6799
  257MOL0     H33878   3.076   2.550   7.932 -0.0315 -1.5570 -3.3821
  257MOL0     H33879   2.912   2.534   7.877 -1.1406 -2.4726  2.3312
  257MOL0     H33880   2.833   2.641   8.099 -1.4444 -4.0529 -0.7208
  257MOL0     H33881   3.009   2.648   8.143  1.7682 -0.1221 -1.4617
  257MOL0     H33882   2.865   2.391   8.082 -1.7426  2.0534 -0.0863
  257MOL0     H33883   3.028   2.411   8.150  0.2520 -0.2367  0.7566
  257MOL0     H33884   2.931   2.502   8.348 -1.3434  0.0695 -0.0584
  257MOL0     H33885   2.848   2.348   8.303 -0.8509 -0.4905  0.1074
  257MOL0     H33886   2.584   2.659   8.114  3.0276 -0.8148  2.3643
  257MOL0     H33887   2.378   2.607   8.051 -0.5981 -2.1928 -2.8463
  257MOL0     H33888   1.907   2.347   8.277 -1.4676 -4.1526  1.7072
  257MOL0     H33889   1.691   2.290   8.161  0.4096 -0.7135  0.2460
  257MOL0     H33890   1.512   2.274   8.003  0.1395 -0.0897  1.5091
  257MOL0     H33891   1.547   2.131   8.095  0.4456  0.0234  0.2786
  257MOL0     H33892   1.503   2.003   7.879 -0.5338  0.8158 -0.2826
  257MOL0     H33893   1.429   2.153   7.825  0.8147 -2.4978 -3.0460
  257MOL0     H33894   1.355   1.986   8.072 -0.9645  1.2028  0.4563
  257MOL0     H33895   1.299   1.955   7.915  3.9153 -0.8853 -0.7856
  257MOL0     H33896   1.264   2.227   8.071 -3.3589  2.6881 -1.5323
  257MOL0     H33897   1.225   2.207   7.897 -1.6337  2.3580  1.0744
  257MOL0     H33898   1.081   2.048   8.107  2.6909 -1.6703 -0.7706
  257MOL0     H33899   1.059   2.051   7.935 -0.3579 -2.0402  0.4901
  257MOL0     H33900   0.994   2.304   7.959  0.8837  0.8138  0.1849
  257MOL0     H33901   1.016   2.290   8.125 -2.2622 -0.9367 -0.3652
  257MOL0     H33902   0.810   2.178   7.941 -0.3696  3.1185 -0.6234
  257MOL0     H33903   0.835   2.109   8.113  2.5559  0.8531  0.3459
  257MOL0     H33904   0.783   2.407   8.047 -4.0833  1.0315  0.7510
  257MOL0     H33905   0.769   2.327   8.203 -0.8243 -2.3519  0.0856
  257MOL0     H33906   1.907   2.082   7.856  0.4068  0.0262  0.2739
  257MOL0     H33907   2.118   2.109   7.969 -0.1056 -2.6890  0.9829
  257MOL0     H33908   2.387   2.240   8.288  0.5750  0.9171  0.4447
  257MOL0     H33909   2.618   2.309   8.362 -1.4507 -0.2557  0.3805
  257MOL0     H33910   3.992   3.763   7.525 -0.8123 -1.6928  1.6299
  257MOL0     H33911   4.190   3.776   7.380 -0.5103  0.2372 -2.7572
  257MOL0     H33912   4.653   3.757   7.254 -1.7711  4.6595 -2.3066
  257MOL0     H33913   4.845   3.720   7.099  0.1026 -0.0886 -0.1855
  257MOL0     H33914   4.984   3.622   7.005 -1.9787 -1.1298  0.1880
  257MOL0     H33915   4.953   3.727   6.867 -1.9291  0.1691  2.6437
  257MOL0     H33916   5.168   3.574   6.863  1.0851  0.4615 -0.7459
  257MOL0     H33917   5.050   3.442   6.837 -1.5152  0.5549  0.1167
  257MOL0     H33918   5.088   3.675   6.641  2.1981  0.1218 -0.2260
  257MOL0     H33919   5.004   3.512   6.614 -0.6111 -0.4274  2.2183
  257MOL0     H33920   5.236   3.416   6.687  2.6782  0.3372  0.1629
  257MOL0     H33921   5.218   3.482   6.521 -1.0965  1.5388 -0.2404
  257MOL0     H33922   5.458   3.780   6.678 -0.4434 -0.0600  3.0709
  257MOL0     H33923   4.593   3.470   6.852 -0.9690 -1.5203  1.1365
  257MOL0     H33924   4.416   3.489   7.024  0.2575 -1.7737  1.4730
  258MOL0     O33925   0.156   1.335  10.279  0.2740 -0.4602  0.3003
  258MOL0     C33926   0.176   1.347  10.402  0.4686 -0.3164 -0.2014
  258MOL0     O33927   0.078   1.349  10.496 -0.7199 -0.7648  0.7586
  258MOL0     C33928  -0.059   1.339  10.467 -1.3306  0.2094  0.2156
  258MOL0     C33929  -0.138   1.293  10.567 -0.0360 -0.3285  0.5099
  258MOL0     C33930  -0.278   1.301  10.572  0.4393 -0.1859 -0.4550
  258MOL0     C33931  -0.338   1.355  10.455 -1.3238  0.6839 -0.5110
  258MOL0     O33932  -0.469   1.380  10.454  0.4420  0.6407 -0.0576
  258MOL0     C33933  -0.500   1.477  10.560  0.6977 -0.4164  0.2893
  258MOL0     C33934  -0.640   1.524  10.522  0.5945  0.1887 -0.1426
  258MOL0     C33935  -0.691   1.641  10.609 -0.5439  0.4309 -0.6189
  258MOL0     C33936  -0.804   1.716  10.550 -1.2303  1.0549  0.3239
  258MOL0     C33937  -0.834   1.832  10.637 -0.9104 -0.7653  0.0622
  258MOL0     C33938  -0.946   1.919  10.580  0.2858 -0.1450  0.3816
  258MOL0     C33939  -0.985   2.037  10.672  0.6393 -0.7967 -0.1762
  258MOL0     C33940  -0.951   2.178  10.604 -0.4899  0.5185 -0.4194
  258MOL0     N33941  -1.040   2.215  10.497  0.0553 -0.5150  0.3938
  258MOL0     C33942  -0.994   2.209  10.362 -0.7069  0.1691 -0.5681
  258MOL0     C33943  -1.112   2.213  10.299  0.4111 -0.1562 -0.0153
  258MOL0     C33944  -1.120   2.183  10.149  0.3159 -0.2166  0.5202
  258MOL0     C33945  -1.270   2.157  10.122  0.5042  0.7062 -0.4287
  258MOL0     C33946  -1.299   2.106   9.979  0.2724 -0.2845 -0.6881
  258MOL0     C33947  -1.444   2.095   9.942  0.2370  0.1953 -0.2481
  258MOL0     O33948  -1.462   2.058   9.802  0.1333 -0.5561 -0.4223
  258MOL0     C33949  -1.587   2.034   9.753  0.3881 -0.9419  0.0005
  258MOL0     C33950  -1.596   2.046   9.614  0.2562  0.7176 -0.0729
  258MOL0     C33951  -1.719   2.011   9.547  0.3551  0.0442  0.5425
  258MOL0     C33952  -1.832   1.958   9.624 -0.5743 -0.5938 -0.4610
  258MOL0     C33953  -1.959   1.920   9.564 -0.3290  0.7355  0.2542
  258MOL0     O33954  -2.057   1.883   9.647  0.0284 -0.2283  0.1475
  258MOL0     C33955  -2.184   1.884   9.598  0.4030  1.0088  1.0071
  258MOL0     C33956  -2.248   1.765   9.584  0.6227  0.5485  0.4376
  258MOL0     C33957  -2.383   1.750   9.531 -0.2776  0.1568 -0.0518
  258MOL0     C33958  -2.455   1.860   9.492  0.7799  0.3048 -0.5888
  258MOL0     O33959  -2.582   1.834   9.455  0.5759 -0.8025 -0.7593
  258MOL0     C33960  -2.665   1.948   9.442 -0.2096 -0.0213  0.4540
  258MOL0     C33961  -2.812   1.906   9.454  0.3095  0.0470 -0.4488
  258MOL0     C33962  -2.854   1.887   9.604  0.3594  0.7285  0.0846
  258MOL0     C33963  -2.998   1.847   9.610 -1.0912  0.1187 -0.5913
  258MOL0     C33964  -3.075   1.869   9.743  0.2336  0.0276  0.6473
  258MOL0     C33965  -3.008   1.789   9.860 -0.0234  0.2767 -1.1326
  258MOL0     C33966  -3.065   1.786  10.002 -0.4816 -0.5806  0.7771
  258MOL0     C33967  -3.197   1.723  10.008 -0.8512  0.2647 -0.2607
  258MOL0    Cl33968  -3.203   1.549   9.966  0.1544  0.0478  0.3543
  258MOL0     C33969  -2.384   1.979   9.490 -0.7493  0.1937 -0.4973
  258MOL0     C33970  -2.248   1.991   9.535  0.3414  0.3537 -0.3838
  258MOL0     O33971  -1.969   1.931   9.443  0.0196  0.7313  0.0676
  258MOL0     C33972  -1.818   1.961   9.760  0.4153 -0.2843 -0.2210
  258MOL0     C33973  -1.702   2.010   9.827 -0.6737 -0.6870 -0.0886
  258MOL0     N33974  -1.218   2.241  10.385 -0.2477 -0.7209 -1.4133
  258MOL0     N33975  -1.172   2.240  10.507  0.1272  0.4813 -0.0990
  258MOL0     C33976  -0.263   1.383  10.340 -0.3891 -0.6068  0.4628
  258MOL0     C33977  -0.121   1.385  10.349  0.3360 -0.2323 -0.3458
  258MOL0     C33978   0.311   1.359  10.450  0.3769  1.3752  0.1986
  258MOL0     C33979   0.343   1.358  10.592  0.9867  0.0284 -0.9881
  258MOL0     C33980   0.469   1.364  10.632 -0.5049 -0.0639 -0.5129
  258MOL0     C33981   0.571   1.392  10.544  0.3568 -0.0346  0.2121
  258MOL0     O33982   0.697   1.422  10.593 -0.1721  0.3861 -0.7098
  258MOL0     C33983   0.747   1.321  10.698 -0.1863  1.0996  0.2648
  258MOL0     C33984   0.861   1.260  10.618  0.2910 -0.8166 -0.2495
  258MOL0     C33985   0.986   1.347  10.600 -0.1359 -0.3352  0.4425
  258MOL0     C33986   1.037   1.420  10.722 -0.5118  0.2287 -0.5547
  258MOL0     C33987   1.075   1.356  10.841  0.2122  0.3861 -0.0047
  258MOL0     C33988   1.100   1.279  10.936  0.6859 -0.1041 -0.1394
  258MOL0     C33989   0.543   1.396  10.405 -0.6216  0.1534 -0.4349
  258MOL0     C33990   0.413   1.382  10.358  0.6949  0.0673 -0.9689
  258MOL0     H33991  -0.094   1.253  10.658 -1.0101 -0.1395  1.0764
  258MOL0     H33992  -0.352   1.259  10.639 -2.1093  1.7189 -1.9448
  258MOL0     H33993  -0.431   1.561  10.562  0.0876  0.0911  0.5909
  258MOL0     H33994  -0.517   1.425  10.656 -0.6627  1.8820  1.3762
  258MOL0     H33995  -0.701   1.434  10.538  3.0385 -1.0461  3.6414
  258MOL0     H33996  -0.633   1.546  10.415  0.8052  1.6863  0.1584
  258MOL0     H33997  -0.607   1.711  10.608 -0.0157 -0.1770 -0.0099
  258MOL0     H33998  -0.729   1.606  10.706 -0.3194  0.8942 -0.3640
  258MOL0     H33999  -0.787   1.743  10.446  1.9511  1.2866  0.8073
  258MOL0     H34000  -0.891   1.650  10.557  0.3100 -1.1138  0.2282
  258MOL0     H34001  -0.752   1.904  10.633 -1.6503  0.0740 -0.8852
  258MOL0     H34002  -0.843   1.803  10.742  1.1675 -1.0274  0.2030
  258MOL0     H34003  -1.032   1.859  10.551  0.0443 -0.0953  0.9878
  258MOL0     H34004  -0.913   1.972  10.490 -2.7879 -0.9674 -1.3347
  258MOL0     H34005  -1.091   2.031  10.701  1.0569  0.1904  1.7379
  258MOL0     H34006  -0.931   2.027  10.766 -1.0081 -0.4741  0.8505
  258MOL0     H34007  -0.847   2.183  10.571  0.7217 -1.2512  2.7573
  258MOL0     H34008  -0.959   2.262  10.674  1.2946  2.5867 -2.5028
  258MOL0     H34009  -0.899   2.186  10.317 -1.0734 -1.6603 -0.4598
  258MOL0     H34010  -1.059   2.095  10.128  1.9632  1.0139 -0.0293
  258MOL0     H34011  -1.081   2.272  10.099  0.9818  0.1410  1.6417
  258MOL0     H34012  -1.322   2.251  10.142  4.2702  2.4376  2.4334
  258MOL0     H34013  -1.307   2.088  10.199 -1.5735  3.0638  0.8144
  258MOL0     H34014  -1.262   2.187   9.916  2.1722 -0.6896 -0.1521
  258MOL0     H34015  -1.247   2.012   9.957 -0.2054 -1.0153  1.0950
  258MOL0     H34016  -1.488   2.192   9.966  0.5633 -0.2490  2.4890
  258MOL0     H34017  -1.488   2.015  10.002 -0.8517  0.2789 -0.9004
  258MOL0     H34018  -1.504   2.067   9.560 -0.8865  0.5393 -2.1827
  258MOL0     H34019  -1.728   2.031   9.441 -0.1726 -1.9088  0.1798
  258MOL0     H34020  -2.200   1.672   9.614  0.2221 -0.9272 -3.0675
  258MOL0     H34021  -2.426   1.651   9.523 -1.3164  0.4600  1.3531
  258MOL0     H34022  -2.656   2.005   9.349  1.0692  0.9848  1.1703
  258MOL0     H34023  -2.635   2.015   9.522  1.9074 -0.2599 -0.0944
  258MOL0     H34024  -2.837   1.814   9.401 -3.2673  1.4668 -1.4911
  258MOL0     H34025  -2.880   1.979   9.409 -2.4617 -3.5139 -2.5462
  258MOL0     H34026  -2.835   1.978   9.661  4.3367  1.5796 -2.2014
  258MOL0     H34027  -2.787   1.812   9.648  1.2728  2.8710  2.6210
  258MOL0     H34028  -3.043   1.919   9.541 -1.7395  0.1438 -0.1538
  258MOL0     H34029  -3.013   1.748   9.567  0.8188 -0.1114 -0.7825
  258MOL0     H34030  -3.179   1.836   9.732  0.3270 -0.3531  0.9018
  258MOL0     H34031  -3.086   1.975   9.768 -1.4414 -0.2902  1.4083
  258MOL0     H34032  -2.913   1.841   9.875 -0.5706  1.5365 -1.8502
  258MOL0     H34033  -2.998   1.685   9.825  0.9517 -1.4064  3.4172
  258MOL0     H34034  -2.992   1.731  10.063  1.3043 -1.6684 -2.1118
  258MOL0     H34035  -3.081   1.884  10.047  0.9797 -0.3009  0.7471
  258MOL0     H34036  -3.265   1.772   9.938  0.3027  0.7564 -1.0789
  258MOL0     H34037  -3.237   1.737  10.109  0.4971  0.8146  0.2216
  258MOL0     H34038  -2.443   2.068   9.471  0.5447  1.3512  0.7736
  258MOL0     H34039  -2.202   2.089   9.538  1.0201  0.0239  1.7217
  258MOL0     H34040  -1.906   1.937   9.820 -0.0251  0.9576 -0.3428
  258MOL0     H34041  -1.689   2.010   9.935 -0.3724 -0.1976 -0.1194
  258MOL0     H34042  -0.317   1.408  10.249 -0.7552 -1.4802  0.4250
  258MOL0     H34043  -0.058   1.432  10.274  0.7870 -0.7869 -0.3219
  258MOL0     H34044   0.259   1.350  10.661  0.9655 -2.5779 -1.2343
  258MOL0     H34045   0.496   1.363  10.737  3.6727 -1.1641 -1.4230
  258MOL0     H34046   0.681   1.238  10.721 -0.2334  1.8934  3.4662
  258MOL0     H34047   0.775   1.361  10.796 -1.1413 -0.2256  1.0980
  258MOL0     H34048   0.894   1.171  10.671  0.1438  0.4792  2.1364
  258MOL0     H34049   0.813   1.244  10.521 -0.5606 -0.3238  0.0870
  258MOL0     H34050   0.966   1.420  10.521  3.6683  2.0800  1.4454
  258MOL0     H34051   1.067   1.283  10.566  0.2876  1.5370 -2.4778
  258MOL0     H34052   1.129   1.470  10.691  2.1955 -2.7991  1.9354
  258MOL0     H34053   0.957   1.488  10.754 -1.0460 -1.2315  1.4150
  258MOL0     H34054   1.120   1.212  11.017 -3.0729 -3.9650 -2.0052
  258MOL0     H34055   0.618   1.431  10.335  1.1379 -1.9961  0.2587
  258MOL0     H34056   0.388   1.394  10.253  1.2447 -0.3864 -1.1549
  259MOL0     O34057   8.997   2.828  10.278  0.0314 -0.4741 -0.0540
  259MOL0     C34058   8.957   2.949  10.263  0.0995 -0.5448 -0.2680
  259MOL0     O34059   9.043   3.039  10.196 -0.3884  0.0121 -0.3000
  259MOL0     C34060   9.163   2.986  10.150 -0.2736  0.4719  0.1746
  259MOL0     C34061   9.185   3.001  10.006 -0.4939  0.2658 -0.7332
  259MOL0     C34062   9.302   2.963   9.939 -0.0744  0.3895  0.0851
  259MOL0     C34063   9.407   2.903  10.016  0.5601  0.8301 -0.0242
  259MOL0     O34064   9.523   2.847   9.965 -1.0625  0.0012  0.5657
  259MOL0     C34065   9.581   2.912   9.850  0.1228  0.8008  0.2064
  259MOL0     C34066   9.703   2.834   9.802 -0.2743 -0.1128 -0.1926
  259MOL0     C34067   9.684   2.689   9.756 -0.0282 -0.2274 -0.2012
  259MOL0     C34068   9.590   2.667   9.637 -0.0926  0.0740 -0.1520
  259MOL0     C34069   9.610   2.527   9.574 -0.3049  0.0430 -0.4979
  259MOL0     C34070   9.592   2.406   9.670  0.1417 -0.9029 -0.3900
  259MOL0     C34071   9.455   2.388   9.728  1.1473 -0.0535 -0.0693
  259MOL0     C34072   9.354   2.329   9.626  1.0605 -0.5555 -0.5207
  259MOL0     N34073   9.220   2.322   9.689  0.2266 -0.0029  0.2079
  259MOL0     C34074   9.183   2.235   9.791 -0.6563  0.6659  0.1597
  259MOL0     C34075   9.049   2.252   9.803  0.0743  0.5975  0.4524
  259MOL0     C34076   8.988   2.173   9.916 -0.2283  1.0293  0.2402
  259MOL0     C34077   8.841   2.142   9.893 -0.8372 -0.8624  0.7647
  259MOL0     C34078   8.756   2.267   9.900  0.0967 -0.4660 -0.7233
  259MOL0     C34079   8.603   2.257   9.859  0.2273 -0.7852  0.4025
  259MOL0     O34080   8.538   2.144   9.917 -0.6021 -0.1345  0.5627
  259MOL0     C34081   8.424   2.171   9.974  0.1448 -0.3847 -0.1840
  259MOL0     C34082   8.427   2.198  10.109 -0.3663  0.0096 -0.6621
  259MOL0     C34083   8.312   2.204  10.184  0.4066 -0.2508  0.4803
  259MOL0     C34084   8.185   2.176  10.123 -0.6902  0.4117  0.0506
  259MOL0     C34085   8.051   2.160  10.199 -0.2980  0.8955 -1.0676
  259MOL0     O34086   7.944   2.120  10.122 -0.8065  0.7130  0.0170
  259MOL0     C34087   7.827   2.080  10.191 -0.0997 -0.1144  1.1928
  259MOL0     C34088   7.808   1.949  10.238 -0.2940  0.0291  1.1208
  259MOL0     C34089   7.686   1.907  10.293  0.7280  0.2219 -0.1486
  259MOL0     C34090   7.578   1.989  10.290  0.0103 -0.3525  0.1077
  259MOL0     O34091   7.466   1.930  10.333  0.8207  0.0365 -0.2118
  259MOL0     C34092   7.340   1.979  10.276  0.3199  0.5600  0.6026
  259MOL0     C34093   7.219   1.896  10.310  0.3416 -0.0465  0.6236
  259MOL0     C34094   7.102   1.929  10.214 -0.5856  0.1107  0.0658
  259MOL0     C34095   7.002   1.809  10.220 -0.0218  0.5869  0.4946
  259MOL0     C34096   6.909   1.801  10.095 -0.2342 -0.2865 -0.2362
  259MOL0     C34097   6.792   1.696  10.109 -1.0255 -0.5035 -0.4739
  259MOL0     C34098   6.713   1.706  10.238 -0.0797  0.5371 -0.3257
  259MOL0     C34099   6.588   1.618  10.249  0.3948 -0.3668  0.6009
  259MOL0    Cl34100   6.453   1.677  10.142 -0.2960  0.1427 -0.4564
  259MOL0     C34101   7.590   2.125  10.256 -0.0804  1.1462  0.3031
  259MOL0     C34102   7.718   2.165  10.214  0.4301 -0.4609  0.4265
  259MOL0     O34103   8.051   2.165  10.318 -0.2400  0.6473 -0.0826
  259MOL0     C34104   8.187   2.164   9.981 -0.0383  0.2059  0.1616
  259MOL0     C34105   8.306   2.161   9.900  0.4952  0.3308  0.0513
  259MOL0     N34106   9.005   2.343   9.699 -0.2177 -0.3348 -0.5415
  259MOL0     N34107   9.114   2.394   9.645  0.3048  0.1072  0.3666
  259MOL0     C34108   9.388   2.881  10.154  0.7998 -0.4523 -0.2492
  259MOL0     C34109   9.264   2.917  10.218  0.3368 -0.0222  0.0532
  259MOL0     C34110   8.823   2.990  10.294  0.1187  0.6349 -0.3432
  259MOL0     C34111   8.770   3.116  10.251  0.0055  0.3815  0.3410
  259MOL0     C34112   8.649   3.150  10.302  0.3687  0.2859 -0.5502
  259MOL0     C34113   8.565   3.072  10.385 -0.3200 -0.9141  0.1479
  259MOL0     O34114   8.448   3.126  10.423  0.5168  0.5849 -0.6264
  259MOL0     C34115   8.356   3.037  10.495  0.8728 -0.6535 -0.0604
  259MOL0     C34116   8.251   3.136  10.550 -0.3415 -0.1548 -0.2827
  259MOL0     C34117   8.124   3.070  10.606  0.7550  0.8522  0.0643
  259MOL0     C34118   8.015   3.175  10.609  1.4358  0.0038 -0.1237
  259MOL0     C34119   7.883   3.122  10.643 -0.2369  0.1568  0.3908
  259MOL0     C34120   7.780   3.060  10.656  0.3090 -0.9561 -0.2351
  259MOL0     C34121   8.610   2.944  10.412 -0.5864 -0.2381  0.8846
  259MOL0     C34122   8.738   2.906  10.373 -0.1536  0.0650  0.0119
  259MOL0     H34123   9.106   3.050   9.949 -0.7400  0.5148 -0.1865
  259MOL0     H34124   9.314   2.986   9.834  0.6924 -2.1782 -0.4623
  259MOL0     H34125   9.629   3.006   9.879  2.0299  0.2593 -1.0152
  259MOL0     H34126   9.503   2.932   9.776  1.1229  0.7252 -0.8867
  259MOL0     H34127   9.762   2.840   9.894  0.4993 -1.3338 -0.5975
  259MOL0     H34128   9.752   2.884   9.718 -1.3800 -1.2806 -1.5995
  259MOL0     H34129   9.645   2.625   9.836  0.4173  0.9875  1.0217
  259MOL0     H34130   9.780   2.640   9.740 -1.1658 -2.5055 -0.4641
  259MOL0     H34131   9.485   2.688   9.659 -0.1993 -0.1511 -0.4361
  259MOL0     H34132   9.632   2.735   9.562  0.6017 -0.6564 -0.4402
  259MOL0     H34133   9.715   2.531   9.541  0.8730  0.3964  2.8872
  259MOL0     H34134   9.540   2.503   9.493  1.4246 -1.5583 -1.6193
  259MOL0     H34135   9.662   2.417   9.753 -0.2097  0.6268 -0.2635
  259MOL0     H34136   9.616   2.319   9.608  1.6727 -1.6788  1.2262
  259MOL0     H34137   9.449   2.316   9.810  1.2672  0.7937  0.6944
  259MOL0     H34138   9.411   2.479   9.769 -0.3138 -0.2490 -1.1278
  259MOL0     H34139   9.386   2.228   9.601  1.3246 -0.5889 -0.0641
  259MOL0     H34140   9.353   2.391   9.536  0.2633 -1.7656 -1.3625
  259MOL0     H34141   9.237   2.173   9.862 -0.8569  0.9425  0.5647
  259MOL0     H34142   8.993   2.241  10.001  1.3654 -3.5479  4.2412
  259MOL0     H34143   9.050   2.084   9.930  0.1969  0.6350 -3.2960
  259MOL0     H34144   8.807   2.071   9.969 -1.7464 -0.6330  0.5889
  259MOL0     H34145   8.830   2.094   9.795  1.4291  0.4099 -0.1711
  259MOL0     H34146   8.765   2.306  10.002 -0.2297 -0.3502 -0.7401
  259MOL0     H34147   8.803   2.337   9.831 -0.2040 -1.2469 -1.7377
  259MOL0     H34148   8.607   2.263   9.749  0.1370 -1.1463  0.3795
  259MOL0     H34149   8.542   2.345   9.881  0.1519 -0.2857 -1.5780
  259MOL0     H34150   8.520   2.221  10.158 -0.6541 -1.5389  0.6732
  259MOL0     H34151   8.310   2.235  10.288 -0.9110  1.7768 -0.0910
  259MOL0     H34152   7.891   1.881  10.226 -0.0799  0.6282 -1.3483
  259MOL0     H34153   7.676   1.806  10.330 -2.2816  1.5986  3.3651
  259MOL0     H34154   7.357   1.999  10.169 -0.3794 -0.0753  0.3721
  259MOL0     H34155   7.325   2.080  10.316  1.3676  0.8115  0.4149
  259MOL0     H34156   7.198   1.925  10.413 -0.8695  4.8053 -0.7182
  259MOL0     H34157   7.256   1.794  10.297  1.9535  0.7766 -2.0045
  259MOL0     H34158   7.155   1.930  10.119 -0.4852 -0.8446  0.1069
  259MOL0     H34159   7.051   2.024  10.230 -1.1399  0.0927 -1.4455
  259MOL0     H34160   7.044   1.708  10.226 -3.4140 -1.3008 -2.9419
  259MOL0     H34161   6.941   1.823  10.310 -1.4260  2.6734 -0.6741
  259MOL0     H34162   6.968   1.775  10.007 -0.0304  2.6424 -1.1061
  259MOL0     H34163   6.860   1.897  10.073 -3.2917 -1.7870 -0.4337
  259MOL0     H34164   6.831   1.594  10.109 -0.1004 -0.1623 -0.6419
  259MOL0     H34165   6.723   1.695  10.024 -0.7767  1.4556 -0.7532
  259MOL0     H34166   6.785   1.673  10.313 -0.5185  0.5210  0.0937
  259MOL0     H34167   6.697   1.810  10.268  1.1409  0.3535  1.0793
  259MOL0     H34168   6.549   1.595  10.348 -0.2319 -1.7611  0.0638
  259MOL0     H34169   6.626   1.517  10.230  2.2951 -0.2709  3.3540
  259MOL0     H34170   7.508   2.195  10.268 -1.8294 -0.5743 -1.0169
  259MOL0     H34171   7.727   2.273  10.200  3.1548 -0.7664 -0.7782
  259MOL0     H34172   8.100   2.158   9.916  0.0143 -1.6487  0.2088
  259MOL0     H34173   8.311   2.157   9.791  1.7007  0.1588  0.0973
  259MOL0     H34174   9.472   2.839  10.208  0.4598  0.2601  0.8765
  259MOL0     H34175   9.251   2.899  10.324  0.3339 -2.5497 -0.3241
  259MOL0     H34176   8.825   3.181  10.184 -0.4956 -2.2282 -2.8669
  259MOL0     H34177   8.602   3.245  10.279 -0.8442 -1.1501 -5.0083
  259MOL0     H34178   8.394   2.989  10.586  1.2097  3.1921  2.0527
  259MOL0     H34179   8.310   2.956  10.437  1.1683 -1.0314  0.2245
  259MOL0     H34180   8.301   3.191  10.629 -0.4359  3.0883 -2.2790
  259MOL0     H34181   8.230   3.209  10.471  1.2670 -1.5500 -2.1196
  259MOL0     H34182   8.131   3.030  10.708 -0.0250 -1.3475 -0.6867
  259MOL0     H34183   8.096   2.987  10.540  0.8419  0.2642  0.7508
  259MOL0     H34184   8.043   3.267  10.662  1.7008 -0.9418  1.4542
  259MOL0     H34185   8.008   3.215  10.507  1.3166  1.2771  0.3654
  259MOL0     H34186   7.689   3.005  10.653 -2.0541  2.3111  2.7674
  259MOL0     H34187   8.553   2.873  10.472  1.6046 -1.5034  1.5755
  259MOL0     H34188   8.772   2.809  10.408  0.5764  0.1352 -0.4804
  260MOL0     O34189  10.892   5.337   2.336  0.0130  0.9292 -0.0015
  260MOL0     C34190  10.885   5.382   2.454  0.6612  0.8456  0.6497
  260MOL0     O34191  10.775   5.407   2.526  0.1219  0.1461 -0.0919
  260MOL0     C34192  10.655   5.352   2.467 -0.0432  0.3279 -0.2026
  260MOL0     C34193  10.593   5.426   2.362 -0.1160 -1.2522 -0.3965
  260MOL0     C34194  10.472   5.381   2.309 -0.3481  0.0566  0.5182
  260MOL0     C34195  10.414   5.260   2.355  0.3345  0.1427  0.7254
  260MOL0     O34196  10.298   5.208   2.309 -0.0479  0.4329 -0.1932
  260MOL0     C34197  10.220   5.283   2.217  0.1501 -0.2512  0.3041
  260MOL0     C34198  10.110   5.193   2.168  0.1779  0.0846 -0.5577
  260MOL0     C34199   9.998   5.284   2.110  0.3372 -0.0281  0.1005
  260MOL0     C34200   9.910   5.200   2.018  0.8942  0.9263  0.2436
  260MOL0     C34201   9.782   5.261   1.986  0.0566 -0.3781  0.6767
  260MOL0     C34202   9.678   5.167   1.934  0.8342 -0.7540 -0.3164
  260MOL0     C34203   9.568   5.251   1.868  0.7379  0.8191 -0.3024
  260MOL0     C34204   9.440   5.248   1.960  0.2564  0.2715 -0.7633
  260MOL0     N34205   9.312   5.266   1.885 -0.2564 -1.6240 -0.6649
  260MOL0     C34206   9.187   5.229   1.941 -0.1068  0.4173  0.4220
  260MOL0     C34207   9.105   5.259   1.833 -0.3970 -0.1632 -0.0573
  260MOL0     C34208   8.952   5.253   1.840 -0.0953  0.4024 -0.1917
  260MOL0     C34209   8.908   5.149   1.739 -0.5684 -0.0720 -0.0717
  260MOL0     C34210   8.762   5.143   1.705 -0.0449 -0.3821  0.2887
  260MOL0     C34211   8.719   5.245   1.595 -1.1322  0.4421  0.2785
  260MOL0     O34212   8.593   5.203   1.548  0.3103  0.7033  0.5996
  260MOL0     C34213   8.476   5.246   1.611  0.8411  0.2699 -0.4362
  260MOL0     C34214   8.464   5.300   1.743  0.1993  0.2280  0.0282
  260MOL0     C34215   8.339   5.328   1.798  1.1316  1.1683 -0.2389
  260MOL0     C34216   8.218   5.311   1.723 -0.5557 -0.4330  0.0037
  260MOL0     C34217   8.090   5.330   1.795 -0.2274 -0.1785 -0.1205
  260MOL0     O34218   7.978   5.306   1.715  0.2150  0.7489  0.3177
  260MOL0     C34219   7.856   5.263   1.769  0.4630  0.1617 -0.1804
  260MOL0     C34220   7.795   5.149   1.718  0.6909  0.0209 -0.9221
  260MOL0     C34221   7.661   5.118   1.754 -0.4932 -1.0228  0.1579
  260MOL0     C34222   7.593   5.193   1.848  0.0403 -0.6256 -0.5996
  260MOL0     O34223   7.466   5.145   1.866  0.4868 -0.2131 -0.1038
  260MOL0     C34224   7.406   5.171   1.990 -0.1774  0.1464  0.9529
  260MOL0     C34225   7.280   5.083   2.009 -0.9122 -0.5814 -1.1292
  260MOL0     C34226   7.151   5.159   1.950  0.2827  0.2492 -0.1236
  260MOL0     C34227   7.026   5.072   1.989 -0.5643  0.1582 -0.0153
  260MOL0     C34228   6.899   5.153   1.963 -0.3647 -0.7391 -0.0678
  260MOL0     C34229   6.776   5.074   2.005  0.1784 -0.4681 -0.3572
  260MOL0     C34230   6.661   5.161   2.038  0.1281  0.3036 -0.5533
  260MOL0     C34231   6.562   5.086   2.135 -0.2607  0.3174  0.2396
  260MOL0    Cl34232   6.545   4.913   2.101  0.0859 -0.0008  0.2476
  260MOL0     C34233   7.653   5.299   1.911 -0.7290  0.4622 -0.4508
  260MOL0     C34234   7.787   5.329   1.871  0.1639 -0.0145 -0.2546
  260MOL0     O34235   8.087   5.344   1.915 -0.5118  0.4628 -0.2790
  260MOL0     C34236   8.230   5.262   1.591 -0.4296 -0.6611 -0.0034
  260MOL0     C34237   8.356   5.230   1.534  0.2356  0.4278 -0.1932
  260MOL0     N34238   9.176   5.296   1.719  0.5416 -0.3271 -0.3280
  260MOL0     N34239   9.302   5.302   1.749  0.2015 -0.6850 -0.3646
  260MOL0     C34240  10.485   5.181   2.446 -0.9355 -0.8205 -0.4278
  260MOL0     C34241  10.602   5.233   2.504 -0.3765  0.0229  0.7999
  260MOL0     C34242  11.020   5.411   2.510  0.0995  0.1366  0.2212
  260MOL0     C34243  11.027   5.419   2.651 -0.7065  0.0747 -0.1962
  260MOL0     C34244  11.145   5.438   2.713 -0.9060  0.4354  0.0045
  260MOL0     C34245  11.264   5.476   2.637  0.2735 -0.1233  0.0813
  260MOL0     O34246  11.372   5.523   2.711 -0.4478 -0.0456 -0.1458
  260MOL0     C34247  11.491   5.565   2.639  0.3018  0.5302 -0.5321
  260MOL0     C34248  11.550   5.684   2.693 -0.3256 -0.0568  0.1703
  260MOL0     C34249  11.698   5.683   2.657  0.0471 -0.0372  0.4462
  260MOL0     C34250  11.776   5.788   2.743 -0.2323  0.0087  0.2305
  260MOL0     C34251  11.919   5.770   2.732  0.5262  0.0363  0.6743
  260MOL0     C34252  12.036   5.767   2.717 -0.6720 -1.0855 -0.0635
  260MOL0     C34253  11.253   5.467   2.501 -0.1678  0.2414  0.3546
  260MOL0     C34254  11.134   5.434   2.434 -1.1516 -0.0457 -0.8564
  260MOL0     H34255  10.644   5.518   2.334 -1.9900 -0.2517 -0.6557
  260MOL0     H34256  10.435   5.448   2.232 -1.5104  0.5667  1.4912
  260MOL0     H34257  10.285   5.310   2.134 -0.9452  2.5606  0.2607
  260MOL0     H34258  10.187   5.365   2.281  3.4775 -0.6224  2.7152
  260MOL0     H34259  10.064   5.138   2.250  0.0100 -1.8548 -1.8953
  260MOL0     H34260  10.156   5.119   2.102  2.1425  3.3161 -3.1546
  260MOL0     H34261  10.049   5.365   2.057 -0.0507 -0.4989 -1.0099
  260MOL0     H34262   9.943   5.343   2.184  2.3806  1.8978  0.1960
  260MOL0     H34263   9.970   5.180   1.929  0.2206  1.6949 -0.4077
  260MOL0     H34264   9.878   5.104   2.058 -3.3114  1.7839 -0.5673
  260MOL0     H34265   9.810   5.339   1.915 -0.7152 -0.7050  0.0139
  260MOL0     H34266   9.746   5.312   2.076 -0.0604  0.2502  0.2786
  260MOL0     H34267   9.642   5.095   2.008 -1.9790 -1.3929 -2.1338
  260MOL0     H34268   9.725   5.106   1.856 -0.4354  0.1829 -1.8830
  260MOL0     H34269   9.591   5.356   1.849 -3.0804  1.7133 -0.8591
  260MOL0     H34270   9.546   5.206   1.770 -2.0271 -1.5589  1.2534
  260MOL0     H34271   9.450   5.335   2.025 -0.2621  0.7279 -1.2694
  260MOL0     H34272   9.431   5.157   2.019 -5.1038 -0.2158 -1.7800
  260MOL0     H34273   9.163   5.198   2.042 -0.6154 -1.4571 -0.2401
  260MOL0     H34274   8.917   5.353   1.815 -0.6873  0.4930  0.9469
  260MOL0     H34275   8.918   5.222   1.939 -0.1717 -0.9912 -0.6259
  260MOL0     H34276   8.924   5.051   1.786  1.2799 -0.1175 -0.6813
  260MOL0     H34277   8.984   5.165   1.662  0.3056 -0.1415  0.7613
  260MOL0     H34278   8.729   5.047   1.667  0.9032  0.1299 -1.9887
  260MOL0     H34279   8.698   5.154   1.794 -0.5733 -0.9898 -0.0115
  260MOL0     H34280   8.786   5.264   1.510 -0.3205  0.8353  0.9884
  260MOL0     H34281   8.714   5.343   1.644  0.8174  0.3674  0.7274
  260MOL0     H34282   8.554   5.308   1.803  0.6097  2.3647 -0.8031
  260MOL0     H34283   8.338   5.353   1.903 -0.9946  2.5638 -0.5364
  260MOL0     H34284   7.858   5.090   1.653  1.5261  0.4102 -0.4743
  260MOL0     H34285   7.618   5.021   1.729  1.0730 -1.1774 -2.1818
  260MOL0     H34286   7.372   5.275   1.998  1.8729  0.9502 -0.1238
  260MOL0     H34287   7.469   5.143   2.075 -0.7022  0.4809  1.4567
  260MOL0     H34288   7.278   5.072   2.118  0.9117 -0.6518 -1.0672
  260MOL0     H34289   7.298   4.986   1.962  2.8606 -1.8905  2.3941
  260MOL0     H34290   7.159   5.179   1.843 -0.0580  1.8851  0.1406
  260MOL0     H34291   7.134   5.260   1.987  0.7298 -1.1343  4.5129
  260MOL0     H34292   7.044   4.979   1.934  3.2504  1.4616 -1.3103
  260MOL0     H34293   7.028   5.051   2.096  1.4557  2.7178  0.5596
  260MOL0     H34294   6.884   5.166   1.855  0.8394 -1.9884 -0.4126
  260MOL0     H34295   6.898   5.249   2.015 -1.2041 -1.0501  0.5111
  260MOL0     H34296   6.815   5.023   2.093  4.4692  2.6889 -0.1234
  260MOL0     H34297   6.744   5.000   1.931 -5.5977  2.3470 -1.2659
  260MOL0     H34298   6.692   5.252   2.090  3.1445 -1.0846  0.3153
  260MOL0     H34299   6.614   5.183   1.942 -1.4673 -2.5531 -0.5440
  260MOL0     H34300   6.465   5.137   2.134 -0.8647 -0.3765  4.4308
  260MOL0     H34301   6.608   5.099   2.233 -1.3398  1.3328  0.6384
  260MOL0     H34302   7.605   5.357   1.990  0.3418 -1.0621  1.4013
  260MOL0     H34303   7.843   5.405   1.925  0.0215 -1.7347  2.5042
  260MOL0     H34304   8.135   5.248   1.541 -1.2763  1.0588  1.0196
  260MOL0     H34305   8.362   5.182   1.437 -1.2165 -1.2625  0.5009
  260MOL0     H34306  10.445   5.081   2.461  1.6254 -2.4027 -3.1416
  260MOL0     H34307  10.654   5.168   2.573 -0.9174  0.4276  1.6074
  260MOL0     H34308  10.934   5.415   2.708 -1.8859  1.3088 -1.9515
  260MOL0     H34309  11.152   5.447   2.821 -0.6081  1.4928 -0.0928
  260MOL0     H34310  11.470   5.587   2.533 -0.8234  1.0421 -0.2185
  260MOL0     H34311  11.554   5.476   2.638  0.1162  0.3938 -0.0715
  260MOL0     H34312  11.495   5.773   2.660 -2.2085 -0.0080  3.0550
  260MOL0     H34313  11.551   5.683   2.802 -0.3254 -2.5675  0.2080
  260MOL0     H34314  11.711   5.706   2.551  1.3934 -2.0088  0.1420
  260MOL0     H34315  11.740   5.583   2.667 -0.4561 -0.0310  3.7564
  260MOL0     H34316  11.743   5.883   2.698  0.5228  0.3046  0.2847
  260MOL0     H34317  11.751   5.787   2.849 -0.4770 -0.1481  0.1734
  260MOL0     H34318  12.139   5.768   2.688 -1.1782  1.3641 -2.0971
  260MOL0     H34319  11.345   5.471   2.443 -0.4635 -3.5535 -0.6467
  260MOL0     H34320  11.148   5.435   2.327  3.3338  0.5778 -0.4817
  261MOL0     O34321   2.624   8.511   1.115  0.2265  0.6913 -0.0073
  261MOL0     C34322   2.705   8.429   1.167  0.3915  0.8804 -0.1362
  261MOL0     O34323   2.673   8.305   1.212  0.5149 -0.1622 -0.4319
  261MOL0     C34324   2.531   8.272   1.206 -0.3337 -0.1212 -0.4624
  261MOL0     C34325   2.435   8.342   1.282 -0.1772 -0.6153  0.2182
  261MOL0     C34326   2.299   8.306   1.274 -0.4489  0.2120 -0.1944
  261MOL0     C34327   2.266   8.208   1.173 -0.5026 -0.0244 -0.0055
  261MOL0     O34328   2.129   8.195   1.151  0.0813  0.0223 -0.1028
  261MOL0     C34329   2.085   8.056   1.167  0.5713 -0.5000 -0.5459
  261MOL0     C34330   1.939   8.047   1.111  0.3381 -0.4025  0.1441
  261MOL0     C34331   1.874   7.907   1.121  0.2125 -0.6833 -0.1043
  261MOL0     C34332   1.739   7.888   1.050  1.7166 -0.3272  0.2831
  261MOL0     C34333   1.669   7.761   1.090  0.0425  0.5206  0.6587
  261MOL0     C34334   1.559   7.706   0.993 -0.0897 -0.8344  0.6742
  261MOL0     C34335   1.438   7.801   0.993  0.4450 -0.7696  0.3996
  261MOL0     C34336   1.309   7.743   0.925 -0.3382 -0.0360  0.6573
  261MOL0     N34337   1.241   7.641   0.998  0.5422 -0.1439 -0.1321
  261MOL0     C34338   1.133   7.668   1.088  0.6450 -0.6214  0.2492
  261MOL0     C34339   1.084   7.544   1.119  0.6759  0.2124 -0.2806
  261MOL0     C34340   0.973   7.505   1.207 -0.4676 -0.1188  0.4584
  261MOL0     C34341   0.846   7.559   1.150 -1.0267 -0.1874  0.6015
  261MOL0     C34342   0.819   7.523   1.004  0.9576  0.6997  1.4187
  261MOL0     C34343   0.698   7.587   0.939 -0.3907 -0.5735  0.3861
  261MOL0     O34344   0.585   7.553   1.012 -0.8379  0.6551 -0.0780
  261MOL0     C34345   0.458   7.595   0.966 -0.0088  0.7235  1.1955
  261MOL0     C34346   0.342   7.521   0.993  0.4102 -0.1911  0.2356
  261MOL0     C34347   0.221   7.574   0.952 -0.0625  0.2247 -0.4771
  261MOL0     C34348   0.203   7.682   0.872 -0.7331 -0.5562 -0.1882
  261MOL0     C34349   0.071   7.732   0.818  0.2471 -0.2629 -0.6923
  261MOL0     O34350  -0.035   7.644   0.849 -0.8799  0.3981  0.4966
  261MOL0     C34351  -0.170   7.661   0.823  0.2717 -0.6945  1.2819
  261MOL0     C34352  -0.264   7.558   0.811 -0.6381  0.0464 -0.1516
  261MOL0     C34353  -0.390   7.573   0.756  0.7858  0.7963  0.8735
  261MOL0     C34354  -0.439   7.705   0.733  0.2774  0.1135  0.1073
  261MOL0     O34355  -0.566   7.722   0.693 -0.0987 -0.1399  0.4083
  261MOL0     C34356  -0.596   7.833   0.593  0.1806 -0.3573 -0.3973
  261MOL0     C34357  -0.712   7.802   0.512 -0.1039 -0.4330 -0.8826
  261MOL0     C34358  -0.826   7.768   0.598  0.0442 -0.8763  0.7619
  261MOL0     C34359  -0.951   7.762   0.503 -0.8146 -0.0365 -0.5602
  261MOL0     C34360  -1.067   7.712   0.581  0.6973 -0.4213 -1.1341
  261MOL0     C34361  -1.066   7.556   0.593 -0.2028 -0.5656 -0.2902
  261MOL0     C34362  -1.218   7.505   0.597 -0.3183 -0.4981  0.5733
  261MOL0     C34363  -1.214   7.353   0.616 -0.1178 -0.3735  0.5808
  261MOL0    Cl34364  -1.144   7.298   0.775  0.2016 -0.1351  0.3133
  261MOL0     C34365  -0.357   7.814   0.763  0.1029  0.6201 -0.5110
  261MOL0     C34366  -0.227   7.784   0.800 -0.5893 -0.5211 -0.7054
  261MOL0     O34367   0.063   7.840   0.764  0.8156  0.2021  0.0890
  261MOL0     C34368   0.317   7.750   0.832  1.0301  0.1440  0.8467
  261MOL0     C34369   0.443   7.702   0.876 -0.5861 -0.1803 -0.4311
  261MOL0     N34370   1.150   7.453   1.039  0.7502  0.5104  0.2528
  261MOL0     N34371   1.243   7.507   0.966  0.4291  0.0398  0.0196
  261MOL0     C34372   2.361   8.138   1.103 -0.3613  0.2450 -0.8709
  261MOL0     C34373   2.493   8.169   1.120  0.0083 -0.5575 -0.0098
  261MOL0     C34374   2.848   8.463   1.169 -0.1445  0.1441 -0.4715
  261MOL0     C34375   2.935   8.397   1.257  0.0314  0.1827  0.0836
  261MOL0     C34376   3.073   8.431   1.263 -0.3547  0.2956 -0.1519
  261MOL0     C34377   3.127   8.539   1.187 -0.4527 -0.6897 -0.5572
  261MOL0     O34378   3.266   8.565   1.205 -0.2688 -0.4068 -0.3170
  261MOL0     C34379   3.326   8.636   1.102 -0.1992  0.1920  0.4166
  261MOL0     C34380   3.475   8.672   1.118  1.3687  0.3719  0.2871
  261MOL0     C34381   3.509   8.687   1.267  1.0960 -0.1816 -0.2581
  261MOL0     C34382   3.631   8.776   1.291 -0.0099  0.4355  0.0216
  261MOL0     C34383   3.744   8.710   1.235 -0.6787 -0.6093  0.4751
  261MOL0     C34384   3.845   8.644   1.196  0.2193  0.3055 -0.7013
  261MOL0     C34385   3.036   8.605   1.096 -0.2495 -0.8788  0.6514
  261MOL0     C34386   2.900   8.568   1.097  0.3891 -0.1656  0.8630
  261MOL0     H34387   2.480   8.415   1.349 -0.3113 -1.4458  1.2549
  261MOL0     H34388   2.212   8.351   1.320 -1.8101 -1.2773 -1.1794
  261MOL0     H34389   2.079   8.023   1.271  0.9842  0.2797 -0.2736
  261MOL0     H34390   2.144   7.981   1.112  1.3241  0.6955 -1.4111
  261MOL0     H34391   1.953   8.067   1.004  2.3058  3.2814  0.9390
  261MOL0     H34392   1.877   8.123   1.160  0.3415 -0.4520  0.2256
  261MOL0     H34393   1.867   7.893   1.229  2.5321 -0.9513  0.0581
  261MOL0     H34394   1.943   7.827   1.092  0.2628 -0.7418  0.1711
  261MOL0     H34395   1.673   7.972   1.075  0.2170 -1.2607 -0.3744
  261MOL0     H34396   1.758   7.890   0.942 -0.0345 -4.3167 -0.2629
  261MOL0     H34397   1.618   7.791   1.182  0.7380 -0.6218  1.4422
  261MOL0     H34398   1.741   7.681   1.107 -1.4477 -1.1471 -0.5252
  261MOL0     H34399   1.516   7.613   1.032 -1.0340 -0.7544 -0.1180
  261MOL0     H34400   1.588   7.698   0.888  0.9557 -1.3649  0.9925
  261MOL0     H34401   1.426   7.835   1.097 -1.9318 -1.1258  0.2885
  261MOL0     H34402   1.470   7.888   0.934  2.0356 -2.6836 -1.7262
  261MOL0     H34403   1.333   7.704   0.825 -0.9552 -0.5850  0.7174
  261MOL0     H34404   1.241   7.828   0.916 -2.9323 -1.8275  2.1434
  261MOL0     H34405   1.097   7.757   1.137 -0.2028  0.1888 -1.7574
  261MOL0     H34406   0.999   7.548   1.304 -0.8201 -1.3347  1.1199
  261MOL0     H34407   0.962   7.396   1.217 -0.5321 -0.5417 -3.0350
  261MOL0     H34408   0.845   7.668   1.157  1.5858  0.0267 -0.8064
  261MOL0     H34409   0.761   7.531   1.212 -0.7081 -1.7379  0.3807
  261MOL0     H34410   0.897   7.564   0.940  0.0523  0.4895  0.1545
  261MOL0     H34411   0.806   7.416   0.985 -1.6943  1.4366 -1.8110
  261MOL0     H34412   0.689   7.572   0.831  0.6362 -0.7700  0.3249
  261MOL0     H34413   0.708   7.696   0.942 -0.2838 -0.5820  2.7324
  261MOL0     H34414   0.341   7.430   1.053 -3.1565  0.3005  1.1441
  261MOL0     H34415   0.131   7.517   0.974  1.0685 -0.7777  1.9461
  261MOL0     H34416  -0.225   7.459   0.835 -0.7358  0.0411 -0.0102
  261MOL0     H34417  -0.435   7.482   0.717  0.5274  0.9831  0.7319
  261MOL0     H34418  -0.510   7.834   0.524  2.0839 -1.2244  1.8315
  261MOL0     H34419  -0.613   7.927   0.645 -1.3334 -0.2017 -1.1257
  261MOL0     H34420  -0.697   7.729   0.433 -0.4499 -0.5979 -0.7994
  261MOL0     H34421  -0.736   7.896   0.461 -1.5947  0.2056  0.8565
  261MOL0     H34422  -0.851   7.842   0.675 -1.6267  0.6224 -1.0960
  261MOL0     H34423  -0.805   7.669   0.641  1.6591 -1.5766 -1.4656
  261MOL0     H34424  -0.969   7.852   0.442 -1.2794 -0.8923 -1.7294
  261MOL0     H34425  -0.932   7.681   0.432  2.0318  1.1354 -1.2734
  261MOL0     H34426  -1.151   7.744   0.518 -1.3226 -0.8047  1.1936
  261MOL0     H34427  -1.071   7.759   0.679  2.3321 -3.7453  0.6816
  261MOL0     H34428  -1.011   7.519   0.679  2.0249 -0.8343 -1.7534
  261MOL0     H34429  -1.025   7.517   0.500  2.1184 -0.3080  0.5642
  261MOL0     H34430  -1.267   7.564   0.675  3.2983 -0.5339  3.1189
  261MOL0     H34431  -1.259   7.530   0.499  3.4756  2.5654 -0.5093
  261MOL0     H34432  -1.156   7.304   0.537 -1.0793  1.6084 -1.4895
  261MOL0     H34433  -1.316   7.315   0.603 -0.8998  1.8572 -0.2609
  261MOL0     H34434  -0.375   7.920   0.756 -1.5560  0.2796 -2.0893
  261MOL0     H34435  -0.166   7.871   0.821  1.8883 -1.4320 -3.4324
  261MOL0     H34436   0.298   7.836   0.768 -2.6116 -1.5544 -0.6174
  261MOL0     H34437   0.527   7.763   0.842 -1.6518  1.2645 -0.5778
  261MOL0     H34438   2.342   8.067   1.023 -2.0321  0.5761 -0.8018
  261MOL0     H34439   2.575   8.121   1.067  0.3159 -2.3655  1.9607
  261MOL0     H34440   2.904   8.311   1.316  0.9786  0.2875  0.7518
  261MOL0     H34441   3.135   8.377   1.333 -2.4287 -0.2936  1.3294
  261MOL0     H34442   3.277   8.733   1.090  0.9322  0.8376  0.8383
  261MOL0     H34443   3.312   8.581   1.008 -1.1715 -2.1357  1.8273
  261MOL0     H34444   3.533   8.585   1.085  0.0782 -1.5232  2.6786
  261MOL0     H34445   3.479   8.763   1.057 -2.2469  0.4493 -0.0902
  261MOL0     H34446   3.526   8.585   1.305  2.7490  0.7033  1.5631
  261MOL0     H34447   3.426   8.737   1.317  1.8594  2.4482 -1.4856
  261MOL0     H34448   3.620   8.877   1.252 -2.3068 -0.7933 -2.9182
  261MOL0     H34449   3.632   8.777   1.401 -2.0690  0.5187  0.0734
  261MOL0     H34450   3.936   8.592   1.173 -0.9768 -3.8045  2.5027
  261MOL0     H34451   3.073   8.686   1.034 -0.3427 -0.5662  0.9947
  261MOL0     H34452   2.834   8.622   1.030  0.8003  1.2088  1.5054
  262MOL0     O34453   6.353   9.768   5.641  0.2520 -0.8231  0.7523
  262MOL0     C34454   6.400   9.768   5.527 -0.1384  0.1521 -0.3344
  262MOL0     O34455   6.378   9.679   5.432  0.4819  0.4074  0.0402
  262MOL0     C34456   6.288   9.572   5.443  0.3926 -0.1373 -0.0436
  262MOL0     C34457   6.200   9.552   5.549  0.3994  0.7512 -0.3242
  262MOL0     C34458   6.117   9.436   5.561  0.4072 -0.6292  0.2776
  262MOL0     C34459   6.112   9.346   5.452 -0.2333  0.1973  0.3080
  262MOL0     O34460   6.030   9.241   5.443 -0.2403  0.8071  0.2994
  262MOL0     C34461   5.923   9.225   5.535 -0.4211 -0.5395  0.1935
  262MOL0     C34462   5.806   9.321   5.512  0.5228 -0.7507 -0.0131
  262MOL0     C34463   5.704   9.295   5.624 -0.0647 -0.2491 -0.5317
  262MOL0     C34464   5.620   9.169   5.613  0.1907 -0.3489  0.2035
  262MOL0     C34465   5.517   9.173   5.728  0.1387  0.3012 -0.4633
  262MOL0     C34466   5.430   9.041   5.745  0.4458  0.3274  0.5907
  262MOL0     C34467   5.309   9.049   5.829 -0.3617  0.7945 -0.8649
  262MOL0     C34468   5.226   8.925   5.853  0.2177 -0.0649 -0.8807
  262MOL0     N34469   5.301   8.831   5.945  0.0708  0.3159  0.2878
  262MOL0     C34470   5.370   8.721   5.903  0.5788  0.0629  0.0017
  262MOL0     C34471   5.411   8.654   6.014  0.6766 -0.2941 -0.1580
  262MOL0     C34472   5.490   8.528   6.019 -0.4234  0.4838 -0.3143
  262MOL0     C34473   5.563   8.482   5.891  0.5335  0.3211  0.1282
  262MOL0     C34474   5.684   8.387   5.907 -0.1888 -0.0368  0.0183
  262MOL0     C34475   5.731   8.344   5.768  0.7605 -0.8303  0.4110
  262MOL0     O34476   5.775   8.450   5.681  0.7149 -0.6406 -0.2560
  262MOL0     C34477   5.885   8.430   5.605  0.0734  0.3392  0.8136
  262MOL0     C34478   5.917   8.309   5.545  0.5003 -1.0234  1.4210
  262MOL0     C34479   6.036   8.304   5.473  0.1277  0.2211 -0.1221
  262MOL0     C34480   6.120   8.406   5.440  0.7274  0.5554 -0.4302
  262MOL0     C34481   6.244   8.396   5.361 -0.3273  0.7025 -0.5241
  262MOL0     O34482   6.332   8.500   5.367 -0.0559 -0.6559 -0.2334
  262MOL0     C34483   6.428   8.506   5.268  0.0596  0.3502  0.2777
  262MOL0     C34484   6.545   8.429   5.275  0.4170 -0.0008 -0.0710
  262MOL0     C34485   6.644   8.449   5.172 -0.0740  0.9621  0.0180
  262MOL0     C34486   6.624   8.537   5.073 -0.2733 -0.6081  0.2787
  262MOL0     O34487   6.723   8.541   4.973  0.3626 -0.4785 -0.6610
  262MOL0     C34488   6.678   8.568   4.837 -0.5544  0.7831 -0.4192
  262MOL0     C34489   6.784   8.525   4.728 -0.5497  0.1114 -0.5714
  262MOL0     C34490   6.923   8.565   4.763  0.3688  0.2846 -0.7454
  262MOL0     C34491   7.020   8.546   4.649 -0.3919 -0.3136  0.3716
  262MOL0     C34492   7.166   8.545   4.705  0.2455  0.5522  1.0424
  262MOL0     C34493   7.269   8.520   4.588 -0.0902  0.1269  0.5645
  262MOL0     C34494   7.412   8.514   4.635 -0.1142 -0.1546 -0.1895
  262MOL0     C34495   7.508   8.454   4.534  0.4634  0.9276 -0.3957
  262MOL0    Cl34496   7.515   8.550   4.382 -0.2898 -0.0136  0.9126
  262MOL0     C34497   6.506   8.615   5.062 -1.0009 -0.2944  0.1879
  262MOL0     C34498   6.416   8.609   5.168 -0.6340 -0.6186  0.5457
  262MOL0     O34499   6.265   8.286   5.306 -0.8796 -0.4305  0.0036
  262MOL0     C34500   6.077   8.529   5.501  0.1138  0.2474 -0.1460
  262MOL0     C34501   5.966   8.536   5.578  0.4241  1.0739 -0.2430
  262MOL0     N34502   5.364   8.723   6.125  0.0077 -0.3522  0.0596
  262MOL0     N34503   5.305   8.825   6.077 -0.0306  0.7550 -0.3126
  262MOL0     C34504   6.198   9.369   5.349  0.0559  0.5827 -0.2106
  262MOL0     C34505   6.278   9.477   5.336 -0.1858 -0.5477 -1.1330
  262MOL0     C34506   6.512   9.868   5.508  0.6427  0.2209  0.5525
  262MOL0     C34507   6.602   9.858   5.405  0.3751 -0.3788 -0.2702
  262MOL0     C34508   6.708   9.955   5.388 -0.6116  0.3548 -0.8862
  262MOL0     C34509   6.735  10.048   5.484  0.8924 -0.4135  0.0948
  262MOL0     O34510   6.843  10.131   5.464 -0.0547  0.0525  0.4361
  262MOL0     C34511   6.882  10.212   5.574 -0.4368  0.2126 -0.2754
  262MOL0     C34512   7.010  10.286   5.549  0.3932  0.5302  0.2977
  262MOL0     C34513   7.122  10.186   5.499  0.1538  0.9217 -0.6420
  262MOL0     C34514   7.259  10.249   5.500 -0.2061 -0.3351 -0.2535
  262MOL0     C34515   7.365  10.155   5.462 -0.8150  0.1535 -1.3289
  262MOL0     C34516   7.458  10.079   5.436 -0.6124  0.3238  0.4753
  262MOL0     C34517   6.640  10.066   5.590 -0.6282 -0.6796 -0.0384
  262MOL0     C34518   6.526   9.984   5.597 -0.0880  0.4003  0.1895
  262MOL0     H34519   6.197   9.616   5.636  3.5208 -0.2164  0.6141
  262MOL0     H34520   6.052   9.435   5.648 -1.0838  0.0615 -0.7776
  262MOL0     H34521   5.960   9.240   5.637 -2.6312  2.1495  0.7353
  262MOL0     H34522   5.895   9.120   5.531 -3.9920  0.2885 -0.5971
  262MOL0     H34523   5.753   9.277   5.426  0.3080  0.9065 -0.7689
  262MOL0     H34524   5.832   9.426   5.498  3.8581 -1.3534  0.8567
  262MOL0     H34525   5.642   9.385   5.623 -1.2375 -1.0452 -0.9873
  262MOL0     H34526   5.765   9.292   5.715  2.4263 -0.5824 -2.1094
  262MOL0     H34527   5.557   9.179   5.524 -1.6188 -0.2039  1.4661
  262MOL0     H34528   5.681   9.079   5.610 -1.9649 -1.8732  0.3630
  262MOL0     H34529   5.446   9.252   5.700 -2.0862 -0.8513  1.5622
  262MOL0     H34530   5.567   9.212   5.817  2.4381  1.8101 -2.3063
  262MOL0     H34531   5.498   8.971   5.795 -0.1234 -0.6319  0.0439
  262MOL0     H34532   5.397   9.005   5.647 -0.7615  3.5763 -0.3332
  262MOL0     H34533   5.341   9.074   5.931 -1.0317  0.0470 -0.4574
  262MOL0     H34534   5.244   9.125   5.786 -1.8505 -0.5659 -1.1185
  262MOL0     H34535   5.196   8.869   5.764 -1.4851 -0.0786 -0.3316
  262MOL0     H34536   5.142   8.954   5.916  2.0566  2.0543  0.7261
  262MOL0     H34537   5.385   8.704   5.797  0.2652  4.9745 -1.0789
  262MOL0     H34538   5.425   8.450   6.059 -0.6124  2.0539  2.7437
  262MOL0     H34539   5.567   8.545   6.095  0.5889  0.3534 -1.2738
  262MOL0     H34540   5.591   8.570   5.833 -1.5720 -0.6448 -2.5633
  262MOL0     H34541   5.489   8.421   5.838  0.8704 -0.5808  0.6724
  262MOL0     H34542   5.759   8.435   5.970 -1.6422  1.7119  0.5309
  262MOL0     H34543   5.645   8.299   5.960 -2.9729  1.8610  1.4045
  262MOL0     H34544   5.648   8.296   5.716  1.8445 -1.0195 -1.2054
  262MOL0     H34545   5.807   8.268   5.788  0.1823 -0.9919  2.1527
  262MOL0     H34546   5.844   8.229   5.539 -0.5493 -0.0260 -2.5501
  262MOL0     H34547   6.068   8.213   5.423  0.9554  0.9245 -0.9095
  262MOL0     H34548   6.569   8.354   5.350 -0.0734  0.9279  1.0444
  262MOL0     H34549   6.740   8.399   5.175  0.3752  1.8310  0.3649
  262MOL0     H34550   6.662   8.673   4.812 -1.6948  0.5897 -0.5512
  262MOL0     H34551   6.586   8.512   4.821 -0.4448  0.0713  1.2229
  262MOL0     H34552   6.760   8.584   4.639 -0.8171  0.1631 -0.4679
  262MOL0     H34553   6.770   8.420   4.703 -0.6678  0.6508 -2.9571
  262MOL0     H34554   6.963   8.512   4.850  0.2903  3.5115  1.4476
  262MOL0     H34555   6.906   8.670   4.788 -0.5722  0.0912 -0.5460
  262MOL0     H34556   6.986   8.460   4.591 -2.4486  2.5720 -3.1050
  262MOL0     H34557   7.011   8.631   4.581 -1.6331 -0.3342  0.4812
  262MOL0     H34558   7.175   8.477   4.790 -2.2042  0.1996  1.0925
  262MOL0     H34559   7.170   8.647   4.743 -0.7874  0.3120  1.8530
  262MOL0     H34560   7.258   8.595   4.509 -1.9853  0.0464  0.7013
  262MOL0     H34561   7.253   8.426   4.534 -2.3249  0.0782  1.1959
  262MOL0     H34562   7.450   8.610   4.669 -0.6669  0.3629 -0.9963
  262MOL0     H34563   7.417   8.445   4.720 -2.0849 -1.3857 -0.9869
  262MOL0     H34564   7.468   8.359   4.497 -2.6251  2.2535 -0.7234
  262MOL0     H34565   7.603   8.421   4.577 -0.3240 -0.1427  0.5696
  262MOL0     H34566   6.499   8.691   4.985 -2.7663 -1.5287 -0.9401
  262MOL0     H34567   6.348   8.693   5.172  1.5293  1.5672 -2.6876
  262MOL0     H34568   6.139   8.617   5.487 -1.2744  1.3635  0.5458
  262MOL0     H34569   5.938   8.624   5.635 -0.7105  0.1343  0.6951
  262MOL0     H34570   6.199   9.295   5.270 -3.1891  1.2607 -1.0445
  262MOL0     H34571   6.353   9.494   5.259 -0.9265 -0.3651 -1.8257
  262MOL0     H34572   6.612   9.765   5.350 -0.2004  1.1042 -3.0942
  262MOL0     H34573   6.779   9.952   5.306  1.2847  0.5745  0.6752
  262MOL0     H34574   6.895  10.156   5.667 -0.2539  0.7122  0.0041
  262MOL0     H34575   6.808  10.291   5.593  0.6774  1.5306 -1.2327
  262MOL0     H34576   6.998  10.365   5.474  4.3210  0.5856 -0.4864
  262MOL0     H34577   7.035  10.334   5.644  2.6052 -2.3297  1.2973
  262MOL0     H34578   7.102  10.159   5.395  0.9056 -0.2668 -0.4970
  262MOL0     H34579   7.139  10.096   5.559  1.6829  1.7610  0.2337
  262MOL0     H34580   7.251  10.336   5.434 -3.2864  1.4441  2.1744
  262MOL0     H34581   7.296  10.300   5.590 -1.1578  2.1757 -1.1908
  262MOL0     H34582   7.541  10.019   5.407 -1.6399 -2.5306  2.8894
  262MOL0     H34583   6.643  10.150   5.659 -1.7805 -2.2142  1.9791
  262MOL0     H34584   6.448  10.012   5.667  0.5681 -0.3014  1.2316
  263MOL0     O34585  11.079   7.494  11.070  0.7114 -0.0771  0.7393
  263MOL0     C34586  11.148   7.394  11.048 -0.2284  0.5147  0.2775
  263MOL0     O34587  11.110   7.295  10.956 -0.6604  0.4776  0.7252
  263MOL0     C34588  10.983   7.304  10.894  0.3603  0.0413  0.1954
  263MOL0     C34589  10.980   7.311  10.757  0.4759  0.1174  0.4171
  263MOL0     C34590  10.858   7.304  10.690  0.4055  0.4953 -0.4821
  263MOL0     C34591  10.730   7.276  10.758 -0.1670  0.4794 -0.0662
  263MOL0     O34592  10.612   7.291  10.697 -0.2112  1.0069  0.4883
  263MOL0     C34593  10.544   7.177  10.650 -0.1970  0.8594  0.3078
  263MOL0     C34594  10.408   7.220  10.596 -0.2282 -0.8609 -0.1999
  263MOL0     C34595  10.336   7.086  10.568  0.1315  0.0343 -0.2288
  263MOL0     C34596  10.201   7.110  10.508 -0.1615 -0.1644 -0.7091
  263MOL0     C34597  10.113   6.994  10.472 -0.0393 -0.6338 -0.1924
  263MOL0     C34598   9.967   7.047  10.461  0.2441  0.1699 -0.0838
  263MOL0     C34599   9.879   6.943  10.388  0.6619  0.1789  0.6647
  263MOL0     C34600   9.756   6.993  10.330  0.0457  0.3849  0.4629
  263MOL0     N34601   9.676   7.071  10.428 -0.7010 -0.3385 -0.0528
  263MOL0     C34602   9.697   7.203  10.466 -0.3443  0.1075  0.5084
  263MOL0     C34603   9.589   7.228  10.549 -0.2225  0.0794  0.5785
  263MOL0     C34604   9.526   7.362  10.592  0.0192 -0.4892 -0.5117
  263MOL0     C34605   9.412   7.362  10.699 -0.3728  0.1686 -0.3201
  263MOL0     C34606   9.379   7.496  10.757  0.4825 -0.3184 -0.4692
  263MOL0     C34607   9.250   7.479  10.832 -1.0743 -0.2216  0.4883
  263MOL0     O34608   9.195   7.608  10.884  0.2743 -0.6021  0.3373
  263MOL0     C34609   9.093   7.601  10.978 -0.0862  0.2815  0.1735
  263MOL0     C34610   9.029   7.475  10.992  0.6626  0.0295 -0.3489
  263MOL0     C34611   8.919   7.459  11.081  0.4354 -0.3865 -0.4606
  263MOL0     C34612   8.860   7.567  11.148 -0.1978  0.8815  0.2439
  263MOL0     C34613   8.741   7.564  11.239  0.2999  0.9515  0.1709
  263MOL0     O34614   8.710   7.437  11.278 -0.4791 -0.3906  0.3897
  263MOL0     C34615   8.642   7.415  11.393 -0.0292  0.3015 -0.6977
  263MOL0     C34616   8.652   7.280  11.437 -0.6090 -0.6615  0.4406
  263MOL0     C34617   8.585   7.232  11.540  0.2507 -0.9080 -0.2715
  263MOL0     C34618   8.482   7.310  11.612  0.0518  0.0567  0.2837
  263MOL0     O34619   8.408   7.258  11.714  0.2298 -0.2184  0.5315
  263MOL0     C34620   8.465   7.191  11.818  0.8639  0.5878  0.7473
  263MOL0     C34621   8.352   7.132  11.913 -0.6446 -0.0591  0.4767
  263MOL0     C34622   8.234   7.086  11.836 -0.6878 -0.1423 -0.7479
  263MOL0     C34623   8.137   7.020  11.937  0.1963  0.4552  0.0190
  263MOL0     C34624   8.000   6.984  11.869 -0.1556  0.3006  0.1739
  263MOL0     C34625   7.889   6.936  11.964  0.0668  0.3051 -0.9161
  263MOL0     C34626   7.918   6.796  12.040 -0.6544 -0.0556 -0.5453
  263MOL0     C34627   7.796   6.728  12.087 -0.4930  0.4693  0.6406
  263MOL0    Cl34628   7.821   6.575  12.176 -0.6382  0.1127  0.2124
  263MOL0     C34629   8.458   7.438  11.566 -0.2603  0.1763 -0.5401
  263MOL0     C34630   8.538   7.495  11.462 -0.0374  0.0281  0.2189
  263MOL0     O34631   8.670   7.663  11.256  0.2559  0.4814  0.3004
  263MOL0     C34632   8.923   7.690  11.129  0.1622  0.4012  0.3112
  263MOL0     C34633   9.042   7.711  11.055 -0.2881 -0.2049 -0.5775
  263MOL0     N34634   9.511   7.115  10.573  0.5253  0.0092  0.1923
  263MOL0     N34635   9.569   7.023  10.503 -0.8520  0.1679  0.2272
  263MOL0     C34636  10.746   7.262  10.899  0.0567  0.4165 -0.5850
  263MOL0     C34637  10.871   7.282  10.968 -0.1950  0.4892 -0.6526
  263MOL0     C34638  11.282   7.385  11.106 -0.0926 -0.7517 -0.1737
  263MOL0     C34639  11.357   7.263  11.117 -0.0491 -0.2876  0.1083
  263MOL0     C34640  11.475   7.268  11.181  0.6749  0.2059 -0.5936
  263MOL0     C34641  11.537   7.385  11.220 -0.5577 -0.1607  0.1350
  263MOL0     O34642  11.655   7.394  11.284  0.0957  0.0643  0.3344
  263MOL0     C34643  11.758   7.316  11.235  0.1541  0.6779 -0.3136
  263MOL0     C34644  11.782   7.173  11.302 -0.0065 -0.2986 -0.3039
  263MOL0     C34645  11.773   7.050  11.208  0.0139 -0.2336  0.3907
  263MOL0     C34646  11.842   6.928  11.272  0.4382  0.5094 -0.1448
  263MOL0     C34647  11.970   6.946  11.340  0.5287  0.9774  0.1295
  263MOL0     C34648  12.076   6.974  11.394 -0.6153  0.5501  0.6256
  263MOL0     C34649  11.467   7.503  11.207  0.4246 -0.1624  0.1221
  263MOL0     C34650  11.341   7.508  11.155  1.1821 -0.4516  0.7346
  263MOL0     H34651  11.071   7.323  10.700  1.4783  0.7626  2.0849
  263MOL0     H34652  10.838   7.306  10.583  1.2355 -1.5082 -0.7183
  263MOL0     H34653  10.527   7.113  10.737 -1.9849  0.8463 -0.0211
  263MOL0     H34654  10.603   7.122  10.576 -1.6529  1.2657 -1.2048
  263MOL0     H34655  10.414   7.283  10.507  1.4992 -0.0340  0.4427
  263MOL0     H34656  10.357   7.289  10.664  2.4221  1.3858 -0.3031
  263MOL0     H34657  10.327   7.039  10.666 -1.4882  0.6767 -0.0336
  263MOL0     H34658  10.395   7.022  10.501  0.3970  1.1321 -1.0758
  263MOL0     H34659  10.140   7.172  10.574  0.1764 -1.3537  0.7652
  263MOL0     H34660  10.222   7.167  10.417  0.6296  1.1468  0.2747
  263MOL0     H34661  10.124   6.920  10.552  0.6036 -2.4926 -1.9263
  263MOL0     H34662  10.139   6.962  10.371 -0.7933 -1.3046 -0.1885
  263MOL0     H34663   9.968   7.146  10.414  1.5491  0.1216 -0.1827
  263MOL0     H34664   9.919   7.068  10.558  0.1671  5.7488 -0.9820
  263MOL0     H34665   9.926   6.897  10.301 -1.5962 -0.9515 -0.0644
  263MOL0     H34666   9.856   6.860  10.457 -0.7133 -1.2563 -1.4015
  263MOL0     H34667   9.696   6.905  10.304  4.6869 -2.0833 -3.5921
  263MOL0     H34668   9.779   7.034  10.231 -0.0620 -0.5951  0.0164
  263MOL0     H34669   9.765   7.280  10.432 -1.8373  0.9929 -0.6088
  263MOL0     H34670   9.497   7.414  10.500 -1.1408 -1.9743 -1.0300
  263MOL0     H34671   9.602   7.425  10.639 -3.0298  1.2557  2.5532
  263MOL0     H34672   9.429   7.285  10.775 -1.4208 -0.9640 -1.1903
  263MOL0     H34673   9.324   7.330  10.642 -1.4346 -1.6888  2.1819
  263MOL0     H34674   9.451   7.529  10.833 -0.8482  2.5618 -0.2902
  263MOL0     H34675   9.361   7.576  10.684 -0.3394 -1.9967 -2.1991
  263MOL0     H34676   9.273   7.403  10.907 -1.3886 -0.3705  0.4347
  263MOL0     H34677   9.176   7.432  10.766  0.7727 -0.9775 -1.1425
  263MOL0     H34678   9.051   7.383  10.939  0.7955  0.2419 -0.6632
  263MOL0     H34679   8.884   7.357  11.094 -0.6155 -0.1322 -1.1734
  263MOL0     H34680   8.718   7.212  11.384 -0.8497  0.0649 -0.8533
  263MOL0     H34681   8.610   7.130  11.567 -0.0518 -1.3441 -1.5749
  263MOL0     H34682   8.537   7.242  11.883  0.3920  1.8891  0.2568
  263MOL0     H34683   8.518   7.108  11.770  0.9293  1.3862 -0.5960
  263MOL0     H34684   8.328   7.216  11.979 -3.5241 -0.4727  0.0859
  263MOL0     H34685   8.391   7.054  11.980  1.5884  0.8318  0.2698
  263MOL0     H34686   8.269   7.004  11.773 -0.4182 -3.8361  3.6986
  263MOL0     H34687   8.183   7.167  11.783 -1.7962  1.6460  2.7769
  263MOL0     H34688   8.186   6.930  11.976  1.2735  1.0542  0.1092
  263MOL0     H34689   8.118   7.083  12.024 -1.2553  0.8651 -0.5758
  263MOL0     H34690   8.019   6.903  11.798  1.3894 -1.1128  2.0650
  263MOL0     H34691   7.967   7.075  11.819 -3.1739 -1.2431 -0.9010
  263MOL0     H34692   7.791   6.924  11.917  0.7648 -3.0293 -1.7840
  263MOL0     H34693   7.876   7.012  12.041 -1.4160 -1.0904  0.2790
  263MOL0     H34694   7.974   6.724  11.980 -0.6761 -1.8974  1.5442
  263MOL0     H34695   7.976   6.826  12.127 -0.4012  2.2525 -1.4147
  263MOL0     H34696   7.732   6.710  12.000 -0.8623 -1.0820  1.1947
  263MOL0     H34697   7.742   6.792  12.158 -1.5775 -0.5640  0.7742
  263MOL0     H34698   8.378   7.502  11.602 -2.4863 -1.3310 -2.5016
  263MOL0     H34699   8.516   7.591  11.416  3.1480  0.3210 -0.9716
  263MOL0     H34700   8.877   7.782  11.165 -0.0916  0.2736  0.3154
  263MOL0     H34701   9.078   7.813  11.042  2.1596 -0.6567  1.6831
  263MOL0     H34702  10.662   7.224  10.956  0.2125 -2.5091 -2.1090
  263MOL0     H34703  10.876   7.270  11.075  1.9786  1.5947 -0.5819
  263MOL0     H34704  11.322   7.165  11.084  2.0623 -1.9539  2.4125
  263MOL0     H34705  11.524   7.171  11.180  0.7451  0.2495 -1.4066
  263MOL0     H34706  11.850   7.375  11.240 -0.3386  1.4229  0.3196
  263MOL0     H34707  11.740   7.285  11.132 -1.7614 -1.5593  0.5858
  263MOL0     H34708  11.889   7.183  11.323  0.8060 -2.7358 -2.7728
  263MOL0     H34709  11.733   7.148  11.396 -0.1425 -2.9553 -1.0161
  263MOL0     H34710  11.829   7.078  11.118 -3.2356  1.8305 -1.1742
  263MOL0     H34711  11.668   7.037  11.180  0.2699  1.6970 -1.7310
  263MOL0     H34712  11.774   6.880  11.344  0.1863  0.3868 -0.4576
  263MOL0     H34713  11.854   6.854  11.192  1.2742 -1.9222  2.0877
  263MOL0     H34714  12.161   7.006  11.451 -0.8634 -1.8518  2.5366
  263MOL0     H34715  11.514   7.590  11.253 -0.9688 -0.1726  1.6570
  263MOL0     H34716  11.292   7.604  11.143  0.1806 -1.1681 -1.4571
  264MOL0     O34717   0.396  11.169   7.116 -0.5838  0.2478  0.1854
  264MOL0     C34718   0.449  11.065   7.074 -0.1601 -0.0260  0.2321
  264MOL0     O34719   0.375  10.956   7.038 -0.3738 -0.1824  0.4137
  264MOL0     C34720   0.240  10.957   7.070 -0.2130  0.5926  0.6385
  264MOL0     C34721   0.141  10.934   6.973  0.1506 -0.5027 -0.3021
  264MOL0     C34722   0.006  10.914   7.019  0.4552 -0.2803 -0.5218
  264MOL0     C34723  -0.031  10.924   7.152  0.7803 -0.2553  0.1180
  264MOL0     O34724  -0.161  10.919   7.177  0.0339  1.1476  0.0968
  264MOL0     C34725  -0.200  10.982   7.297  0.9263  0.6853 -0.7593
  264MOL0     C34726  -0.349  11.007   7.291 -0.7448  0.8055  0.0730
  264MOL0     C34727  -0.421  11.108   7.397 -0.4861  0.1182 -0.1434
  264MOL0     C34728  -0.422  11.054   7.539  0.2844  0.1805 -0.1804
  264MOL0     C34729  -0.483  11.169   7.629 -0.6871  0.0664 -0.2579
  264MOL0     C34730  -0.512  11.120   7.771  0.5779 -0.5667  0.3325
  264MOL0     C34731  -0.372  11.117   7.845 -0.3330 -0.1441  0.2558
  264MOL0     C34732  -0.376  11.056   7.988 -0.3397 -0.2529  0.2277
  264MOL0     N34733  -0.478  11.135   8.074 -0.0134  0.8461  0.6033
  264MOL0     C34734  -0.613  11.099   8.090 -1.3952  0.6210 -0.0806
  264MOL0     C34735  -0.661  11.184   8.181 -0.4355  0.2597  0.4029
  264MOL0     C34736  -0.801  11.210   8.240  0.3731  0.1844  0.2853
  264MOL0     C34737  -0.913  11.159   8.151  0.0346 -0.0904  0.8903
  264MOL0     C34738  -1.055  11.215   8.199  0.5326  0.0020  0.1513
  264MOL0     C34739  -1.165  11.163   8.113  0.6716 -0.1092 -0.4658
  264MOL0     O34740  -1.289  11.196   8.177 -0.5233 -0.0345  0.0572
  264MOL0     C34741  -1.408  11.147   8.130 -0.7990 -0.0210 -0.0972
  264MOL0     C34742  -1.418  11.088   8.002  0.2805 -0.7978  0.0805
  264MOL0     C34743  -1.541  11.038   7.954  0.9529 -0.1869  0.0023
  264MOL0     C34744  -1.666  11.046   8.031  0.2050  1.0710  0.1731
  264MOL0     C34745  -1.797  10.982   7.995 -0.0906 -0.0345 -0.0536
  264MOL0     O34746  -1.879  10.957   8.098 -0.8228 -0.2107 -0.3005
  264MOL0     C34747  -2.013  10.938   8.088  0.1120  0.0857 -0.1284
  264MOL0     C34748  -2.074  10.962   8.206  0.1677 -0.6632 -0.2878
  264MOL0     C34749  -2.207  10.935   8.220  0.2876  0.4026  0.3323
  264MOL0     C34750  -2.288  10.881   8.118  0.3782 -0.3062  0.1613
  264MOL0     O34751  -2.412  10.843   8.130 -0.6535 -0.0667 -0.1310
  264MOL0     C34752  -2.457  10.810   8.266 -0.4715  0.3268  0.2118
  264MOL0     C34753  -2.539  10.685   8.253 -0.4873  0.1139 -1.0189
  264MOL0     C34754  -2.673  10.693   8.161 -0.8833  0.1813  0.5074
  264MOL0     C34755  -2.760  10.567   8.182 -0.1263  0.6318 -0.1857
  264MOL0     C34756  -2.907  10.580   8.131 -0.9202 -1.3102  0.3314
  264MOL0     C34757  -2.996  10.699   8.171  0.3585 -0.8157 -0.7322
  264MOL0     C34758  -3.151  10.671   8.140 -1.0683 -0.2181 -0.1566
  264MOL0     C34759  -3.241  10.802   8.133  0.5934 -0.5469  0.7970
  264MOL0    Cl34760  -3.228  10.885   8.285 -0.0982 -0.1367  0.5157
  264MOL0     C34761  -2.225  10.859   7.997 -0.5694 -0.2976  0.1035
  264MOL0     C34762  -2.090  10.886   7.984 -0.7932 -0.6749 -0.4647
  264MOL0     O34763  -1.824  10.974   7.876  0.0516 -0.2944 -0.6172
  264MOL0     C34764  -1.652  11.103   8.157  0.4760  1.0976 -0.0623
  264MOL0     C34765  -1.527  11.162   8.199  0.5636 -0.2326 -0.4724
  264MOL0     N34766  -0.572  11.282   8.209  0.0558 -0.1666 -0.1830
  264MOL0     N34767  -0.458  11.250   8.141 -0.5544  0.2889  0.4341
  264MOL0     C34768   0.073  10.942   7.244 -0.0477  1.3741 -0.5090
  264MOL0     C34769   0.205  10.950   7.207  0.4327 -0.0823  0.0305
  264MOL0     C34770   0.589  11.072   7.034  0.4080  0.2602 -0.4572
  264MOL0     C34771   0.653  10.984   6.950 -0.2967  0.2204 -0.0588
  264MOL0     C34772   0.791  10.984   6.928 -0.3062  0.4091 -0.2410
  264MOL0     C34773   0.876  11.080   6.985  0.3332  0.9788 -1.2439
  264MOL0     O34774   1.014  11.098   6.973  0.2536  0.0568  0.0078
  264MOL0     C34775   1.085  10.991   6.902  1.0629 -0.0430  0.3712
  264MOL0     C34776   1.225  11.028   6.880 -0.0147 -0.9740  0.3763
  264MOL0     C34777   1.308  11.053   7.007 -1.0400  0.0745 -0.1798
  264MOL0     C34778   1.266  10.962   7.122 -0.2793  0.5653  0.2410
  264MOL0     C34779   1.352  10.990   7.235 -0.3607  0.2479  0.0979
  264MOL0     C34780   1.412  11.019   7.342  0.3452  0.2559 -0.2477
  264MOL0     C34781   0.810  11.160   7.083 -0.9465 -1.2348  0.0668
  264MOL0     C34782   0.668  11.156   7.107  0.0783 -0.1205  0.8115
  264MOL0     H34783   0.169  10.927   6.869  1.6479  1.2552 -0.0732
  264MOL0     H34784  -0.073  10.895   6.948  2.0140  2.1081 -3.1036
  264MOL0     H34785  -0.145  11.076   7.304 -1.4323  2.2465 -1.7204
  264MOL0     H34786  -0.174  10.918   7.381 -1.9133 -0.5899 -0.7495
  264MOL0     H34787  -0.400  10.911   7.306 -1.2519  0.9734 -0.5519
  264MOL0     H34788  -0.370  11.047   7.191  0.1951  2.4262  0.4897
  264MOL0     H34789  -0.525  11.128   7.367  0.1063  1.4242 -1.4495
  264MOL0     H34790  -0.373  11.206   7.400 -2.1061  0.9753 -0.9472
  264MOL0     H34791  -0.489  10.968   7.551 -0.6190  1.0298  1.0991
  264MOL0     H34792  -0.322  11.031   7.575  0.4433  2.4529  0.9892
  264MOL0     H34793  -0.580  11.188   7.582 -0.4835  0.3791 -0.5589
  264MOL0     H34794  -0.422  11.260   7.631 -0.3966 -0.1300 -0.2720
  264MOL0     H34795  -0.548  11.017   7.766 -0.9814 -0.0138 -0.6642
  264MOL0     H34796  -0.586  11.185   7.817  1.8694  1.2298 -0.0162
  264MOL0     H34797  -0.301  11.054   7.793  2.7523  1.5256  2.1546
  264MOL0     H34798  -0.332  11.219   7.853  3.0583 -1.4683  2.2169
  264MOL0     H34799  -0.280  11.078   8.036 -1.7932  2.5119  2.1009
  264MOL0     H34800  -0.403  10.950   7.992 -3.0235  0.2807 -1.2888
  264MOL0     H34801  -0.647  11.007   8.044  1.3686 -0.2637 -0.5438
  264MOL0     H34802  -0.797  11.320   8.247 -0.3860  0.4907 -2.5631
  264MOL0     H34803  -0.819  11.151   8.329 -0.4884 -0.2461 -0.1671
  264MOL0     H34804  -0.919  11.050   8.151 -1.7808 -0.0409  0.3967
  264MOL0     H34805  -0.887  11.185   8.048  1.6187 -0.9521  1.0410
  264MOL0     H34806  -1.060  11.167   8.297  1.1312  0.1651  0.2686
  264MOL0     H34807  -1.063  11.323   8.217  0.4022 -0.2311  1.6858
  264MOL0     H34808  -1.160  11.055   8.098 -2.6957 -1.1966  4.0197
  264MOL0     H34809  -1.165  11.217   8.018  1.7723  3.2366  1.2547
  264MOL0     H34810  -1.326  11.085   7.944 -0.0760 -2.1925 -0.4413
  264MOL0     H34811  -1.555  10.984   7.861 -3.3179  0.6578 -0.0469
  264MOL0     H34812  -2.029  11.002   8.296 -1.1447  3.6203 -1.2603
  264MOL0     H34813  -2.244  10.933   8.322  2.0879 -0.4268  1.0143
  264MOL0     H34814  -2.513  10.892   8.311 -3.1050 -1.3494  0.1719
  264MOL0     H34815  -2.373  10.785   8.332  0.4154  0.9799 -0.6312
  264MOL0     H34816  -2.578  10.658   8.351 -2.2412 -0.0555 -1.7254
  264MOL0     H34817  -2.479  10.606   8.207 -2.3894 -0.5271 -2.4918
  264MOL0     H34818  -2.646  10.704   8.056 -0.9170 -0.6052  0.4060
  264MOL0     H34819  -2.730  10.779   8.197 -1.3070  0.1309 -0.0255
  264MOL0     H34820  -2.709  10.484   8.133 -1.2451 -0.6683  0.7621
  264MOL0     H34821  -2.759  10.532   8.286 -2.1771 -0.5302 -0.5002
  264MOL0     H34822  -2.953  10.484   8.152  2.5459 -2.9127  1.3287
  264MOL0     H34823  -2.889  10.574   8.023 -1.7899 -1.6412  0.1971
  264MOL0     H34824  -2.974  10.798   8.131 -0.9662  0.5207  1.6615
  264MOL0     H34825  -2.992  10.701   8.280 -0.2116  0.1571 -0.7239
  264MOL0     H34826  -3.152  10.626   8.040 -0.4409 -0.4150 -0.0835
  264MOL0     H34827  -3.196  10.601   8.211 -1.0245  1.7211  1.8579
  264MOL0     H34828  -3.348  10.779   8.124  0.6798 -0.2549 -1.5591
  264MOL0     H34829  -3.206  10.864   8.050  2.2841 -0.5035  1.5082
  264MOL0     H34830  -2.286  10.819   7.917 -1.5711  0.0812  0.6666
  264MOL0     H34831  -2.027  10.870   7.896 -0.4512  0.1373 -0.3835
  264MOL0     H34832  -1.728  11.116   8.234  2.4681  2.1947  1.8257
  264MOL0     H34833  -1.524  11.195   8.303 -0.7015 -0.4905 -0.3383
  264MOL0     H34834   0.050  10.926   7.349  0.6370  0.2171 -0.5169
  264MOL0     H34835   0.286  10.944   7.279  1.7030 -1.3597 -1.4354
  264MOL0     H34836   0.596  10.901   6.909 -1.1418 -0.2472  1.9265
  264MOL0     H34837   0.831  10.911   6.858 -0.0524  0.9630 -0.6863
  264MOL0     H34838   1.035  10.970   6.808  0.3823  0.2157  0.6663
  264MOL0     H34839   1.076  10.899   6.960  1.0083 -0.7834 -0.7906
  264MOL0     H34840   1.268  10.964   6.802 -0.8952 -0.3687 -0.6393
  264MOL0     H34841   1.222  11.121   6.822  1.1087 -0.8803  0.4451
  264MOL0     H34842   1.294  11.155   7.044 -0.2276  0.7717 -1.7040
  264MOL0     H34843   1.413  11.035   6.981 -1.5661  0.1807 -2.5847
  264MOL0     H34844   1.161  10.960   7.152 -0.6819 -1.2951 -1.0976
  264MOL0     H34845   1.273  10.858   7.088 -3.1358  0.2978  0.2475
  264MOL0     H34846   1.489  11.034   7.414 -0.2237  0.4843  0.3283
  264MOL0     H34847   0.871  11.227   7.143  0.5294 -1.1187 -1.4979
  264MOL0     H34848   0.626  11.219   7.185 -1.5950 -1.0851  0.7327
  265MOL0     O34849   5.399   4.490   0.240  0.7348 -0.2066 -0.1806
  265MOL0     C34850   5.452   4.461   0.131  0.7259 -0.4820  0.1891
  265MOL0     O34851   5.386   4.386   0.026  0.0607 -0.7484 -0.1707
  265MOL0     C34852   5.259   4.333   0.055 -0.0149 -0.2267  0.0387
  265MOL0     C34853   5.243   4.193   0.076 -0.7847  0.7970 -0.1193
  265MOL0     C34854   5.113   4.139   0.105 -1.2920 -0.1507  0.2446
  265MOL0     C34855   5.001   4.226   0.094  0.4271 -0.6183  0.1622
  265MOL0     O34856   4.871   4.183   0.112  0.7647  1.2584 -0.1515
  265MOL0     C34857   4.865   4.081   0.207 -0.0612 -0.0401 -0.1112
  265MOL0     C34858   4.731   4.073   0.283  0.4284  1.3666  0.2554
  265MOL0     C34859   4.698   4.212   0.338 -0.0373 -0.2988  1.3793
  265MOL0     C34860   4.568   4.201   0.420 -0.3855 -0.3683  0.7245
  265MOL0     C34861   4.516   4.326   0.486 -0.6039 -0.9028 -0.1403
  265MOL0     C34862   4.491   4.445   0.380 -0.3005  0.3491 -0.2864
  265MOL0     C34863   4.434   4.557   0.461 -0.0539 -0.5818 -0.5698
  265MOL0     C34864   4.410   4.688   0.392 -0.3347 -0.5890 -0.1654
  265MOL0     N34865   4.376   4.799   0.482  0.3328  0.2612 -0.4135
  265MOL0     C34866   4.319   4.792   0.610 -1.0035  0.1804  0.5975
  265MOL0     C34867   4.310   4.920   0.650 -0.1678 -0.5247  0.8896
  265MOL0     C34868   4.245   4.968   0.780  0.4162 -0.6891  0.0940
  265MOL0     C34869   4.098   4.947   0.808 -0.1190  0.7032  0.2422
  265MOL0     C34870   4.078   4.798   0.824  0.2735 -0.2658  0.3413
  265MOL0     C34871   3.941   4.765   0.885  0.7077  0.3550 -0.7230
  265MOL0     O34872   3.853   4.792   0.777  0.0450 -0.2436  0.2435
  265MOL0     C34873   3.729   4.729   0.792 -0.2265  1.1973  0.0253
  265MOL0     C34874   3.671   4.717   0.668 -0.6072 -0.7062  0.4368
  265MOL0     C34875   3.549   4.654   0.642 -0.4483 -0.1421  0.4679
  265MOL0     C34876   3.483   4.604   0.757 -0.3264  0.2722  0.7184
  265MOL0     C34877   3.350   4.544   0.743  0.5927  0.7338 -1.0490
  265MOL0     O34878   3.279   4.562   0.630 -0.0020  0.1324  0.1370
  265MOL0     C34879   3.158   4.508   0.617 -1.7428 -1.1416  0.1387
  265MOL0     C34880   3.132   4.438   0.499  0.2360  0.0571 -0.5985
  265MOL0     C34881   3.002   4.387   0.477  0.4102  0.1277  0.3376
  265MOL0     C34882   2.897   4.398   0.573  0.5870 -0.3056  0.4392
  265MOL0     O34883   2.764   4.347   0.555 -0.7931 -0.3189 -0.2887
  265MOL0     C34884   2.711   4.324   0.423  0.0478 -0.0847 -1.2758
  265MOL0     C34885   2.565   4.272   0.436 -0.1778  0.1663  0.3397
  265MOL0     C34886   2.547   4.159   0.541  0.1563  0.8737 -1.0557
  265MOL0     C34887   2.412   4.097   0.537  0.6855 -0.1660  0.1847
  265MOL0     C34888   2.297   4.204   0.572 -0.3293 -0.2028 -0.2321
  265MOL0     C34889   2.160   4.151   0.539 -0.1718 -0.4556 -0.7727
  265MOL0     C34890   2.124   4.175   0.397 -0.1428 -0.3358  0.0206
  265MOL0     C34891   1.981   4.118   0.364  0.1098 -0.3812  0.2895
  265MOL0    Cl34892   1.977   3.946   0.414 -0.0272  0.0047 -0.5334
  265MOL0     C34893   2.924   4.472   0.691 -0.5157  0.2940  0.1442
  265MOL0     C34894   3.056   4.526   0.713  1.1628  0.3791 -0.3198
  265MOL0     O34895   3.309   4.480   0.837  0.3439 -0.4177 -0.4517
  265MOL0     C34896   3.537   4.631   0.887  0.5642  0.1283 -0.7818
  265MOL0     C34897   3.663   4.677   0.904 -0.3180 -0.5098 -0.2332
  265MOL0     N34898   4.358   5.004   0.552  0.3777  0.1059 -0.7245
  265MOL0     N34899   4.389   4.934   0.456  0.6828 -0.0701 -0.4715
  265MOL0     C34900   5.021   4.361   0.076 -0.6893 -0.5176  0.4934
  265MOL0     C34901   5.149   4.413   0.058 -0.7084 -0.6665  0.1610
  265MOL0     C34902   5.583   4.505   0.106 -0.7362 -0.7303 -0.3410
  265MOL0     C34903   5.636   4.488  -0.018 -0.8030  0.3976  0.0158
  265MOL0     C34904   5.760   4.537  -0.045  0.3390 -0.6574  0.5479
  265MOL0     C34905   5.836   4.618   0.041 -0.4852  0.1244  0.2115
  265MOL0     O34906   5.958   4.664   0.004 -0.7466  0.1873 -0.6041
  265MOL0     C34907   6.038   4.743   0.097 -0.4179 -0.5288  0.5253
  265MOL0     C34908   6.123   4.663   0.202  0.3469 -0.0674  0.6417
  265MOL0     C34909   6.206   4.542   0.151 -0.6284 -0.5356  0.6345
  265MOL0     C34910   6.340   4.562   0.077 -0.5190  0.3021  0.4990
  265MOL0     C34911   6.437   4.647   0.160 -0.6458  0.5392  0.0267
  265MOL0     C34912   6.517   4.711   0.225 -0.4167 -0.4258  0.0063
  265MOL0     C34913   5.786   4.628   0.172  1.1732 -0.1107  0.3673
  265MOL0     C34914   5.657   4.575   0.199 -0.0265  0.8591  0.3243
  265MOL0     H34915   5.335   4.136   0.070 -0.7106  0.7111  1.3646
  265MOL0     H34916   5.125   4.031   0.107  0.2475 -0.0342 -0.6853
  265MOL0     H34917   4.941   4.092   0.285 -0.2219  1.2526 -0.1094
  265MOL0     H34918   4.883   3.983   0.162 -0.3308 -1.3874  2.5421
  265MOL0     H34919   4.732   4.005   0.369  0.0616  0.5660 -0.3594
  265MOL0     H34920   4.653   4.039   0.213 -0.3986  2.5202  0.5873
  265MOL0     H34921   4.697   4.289   0.261 -4.2447 -2.5591 -1.2652
  265MOL0     H34922   4.781   4.254   0.395  0.1101  2.1090 -0.4807
  265MOL0     H34923   4.480   4.162   0.368 -0.7042 -2.0241  2.3857
  265MOL0     H34924   4.582   4.125   0.498  0.1327 -0.9304  0.0975
  265MOL0     H34925   4.589   4.358   0.562  0.5065  1.5747 -2.1103
  265MOL0     H34926   4.424   4.305   0.542 -0.4619  0.3710  0.6091
  265MOL0     H34927   4.422   4.400   0.308 -2.0348  0.9909  0.9084
  265MOL0     H34928   4.585   4.479   0.335 -1.8442  0.2051 -3.9571
  265MOL0     H34929   4.344   4.516   0.508 -0.2541  0.3519 -0.1236
  265MOL0     H34930   4.506   4.580   0.540 -0.8629  0.9619 -0.2554
  265MOL0     H34931   4.331   4.683   0.317 -0.6659  2.3232 -0.1269
  265MOL0     H34932   4.501   4.711   0.335 -1.1287  0.4690 -1.0435
  265MOL0     H34933   4.291   4.706   0.670  2.1814 -0.5861  1.1446
  265MOL0     H34934   4.266   5.074   0.797  0.8852 -0.7424 -0.1342
  265MOL0     H34935   4.296   4.919   0.864  1.3920  2.6766  1.6335
  265MOL0     H34936   4.042   4.988   0.724 -0.2612 -1.2285 -0.6545
  265MOL0     H34937   4.064   5.000   0.897  0.5208  0.4514  0.6449
  265MOL0     H34938   4.084   4.744   0.729  1.5472 -0.2730  0.4092
  265MOL0     H34939   4.150   4.764   0.899 -3.4390 -0.8325  3.9951
  265MOL0     H34940   3.920   4.820   0.977  3.3684 -1.0323  0.8541
  265MOL0     H34941   3.937   4.661   0.919 -0.5002  0.7814  0.5494
  265MOL0     H34942   3.723   4.758   0.582 -1.6939 -2.7544 -1.2709
  265MOL0     H34943   3.506   4.645   0.543 -0.8563 -1.5122  0.7474
  265MOL0     H34944   3.213   4.439   0.426  0.7444 -0.8711 -0.0661
  265MOL0     H34945   2.988   4.328   0.387  3.5742 -0.5361  0.1622
  265MOL0     H34946   2.775   4.245   0.382 -1.7181 -1.5576 -1.3147
  265MOL0     H34947   2.716   4.415   0.362 -2.5617 -0.2132 -1.7964
  265MOL0     H34948   2.522   4.239   0.341  1.8785  1.2440 -1.0319
  265MOL0     H34949   2.510   4.364   0.457  1.2757  1.4085 -1.0253
  265MOL0     H34950   2.565   4.202   0.640 -0.6655  0.5729 -0.7642
  265MOL0     H34951   2.616   4.077   0.518  0.6976  0.6407  1.2143
  265MOL0     H34952   2.401   4.053   0.438 -1.1889 -1.1249  0.7912
  265MOL0     H34953   2.410   4.017   0.612  2.5179 -0.8449 -0.4434
  265MOL0     H34954   2.315   4.301   0.525 -0.8882  0.2512  0.4733
  265MOL0     H34955   2.297   4.224   0.679  1.0458  1.7577 -0.5399
  265MOL0     H34956   2.088   4.197   0.607  0.1717  1.2742 -1.5241
  265MOL0     H34957   2.160   4.046   0.569  2.4768 -1.2714 -3.2195
  265MOL0     H34958   2.112   4.283   0.385 -3.7966 -0.7459 -1.3643
  265MOL0     H34959   2.190   4.131   0.321  1.6890 -0.2913  1.5283
  265MOL0     H34960   1.954   4.126   0.258 -2.0453 -1.6271  0.6658
  265MOL0     H34961   1.909   4.184   0.414  0.3759  1.0896 -1.1942
  265MOL0     H34962   2.836   4.489   0.752 -0.3828 -1.3905  0.8644
  265MOL0     H34963   3.082   4.582   0.802 -0.2035 -0.1390  0.4336
  265MOL0     H34964   3.482   4.597   0.974 -0.6441  1.8271 -0.8166
  265MOL0     H34965   3.699   4.690   1.006  1.8166 -1.1170 -0.8655
  265MOL0     H34966   4.941   4.433   0.088 -2.6579 -1.9447 -2.8186
  265MOL0     H34967   5.162   4.520   0.049  0.5053 -0.8027  0.0829
  265MOL0     H34968   5.594   4.435  -0.103 -3.5229 -0.2008  1.6010
  265MOL0     H34969   5.793   4.516  -0.147  0.3103  3.1973 -0.4124
  265MOL0     H34970   5.973   4.818   0.144 -2.6714 -2.4931  0.7521
  265MOL0     H34971   6.107   4.793   0.028 -2.3874 -0.5339 -1.5757
  265MOL0     H34972   6.190   4.728   0.259  1.7050 -0.2617 -0.6617
  265MOL0     H34973   6.045   4.627   0.270  1.8339 -1.2076  1.8303
  265MOL0     H34974   6.137   4.501   0.076 -0.9948 -0.9778  1.2050
  265MOL0     H34975   6.220   4.465   0.228 -1.0350 -1.0664  0.1903
  265MOL0     H34976   6.397   4.470   0.057 -3.3142 -1.5359  0.4463
  265MOL0     H34977   6.323   4.622  -0.014 -1.2930  0.0402  0.4650
  265MOL0     H34978   6.594   4.763   0.278 -0.7208 -0.6418  0.6731
  265MOL0     H34979   5.823   4.693   0.250  0.8375  3.5267 -2.2592
  265MOL0     H34980   5.615   4.600   0.295 -1.0185 -0.6571  0.3172
  266MOL0     O34981   1.445   0.015   8.148 -0.7950 -0.3424  0.3887
  266MOL0     C34982   1.489   0.121   8.107 -0.2865 -0.4616 -0.8200
  266MOL0     O34983   1.422   0.211   8.030 -0.3196 -0.1853  0.4402
  266MOL0     C34984   1.298   0.212   8.055 -0.0561 -0.4124  0.4389
  266MOL0     C34985   1.243   0.312   8.134  0.1600  0.8504  0.3297
  266MOL0     C34986   1.106   0.318   8.164 -0.6337  0.3648  0.1723
  266MOL0     C34987   1.019   0.231   8.107 -0.1242  0.7119  0.2745
  266MOL0     O34988   0.884   0.240   8.119  0.6419  0.0863 -0.4124
  266MOL0     C34989   0.830   0.346   8.206  0.2299  0.1664 -0.2552
  266MOL0     C34990   0.675   0.358   8.205 -1.1368  0.2429  0.2554
  266MOL0     C34991   0.616   0.423   8.079  0.0464  0.7601 -0.7460
  266MOL0     C34992   0.468   0.445   8.099  0.1174 -0.4011 -0.1969
  266MOL0     C34993   0.413   0.518   7.974  0.5783  0.1570 -0.3575
  266MOL0     C34994   0.262   0.528   7.988 -0.7382  1.0830 -0.9090
  266MOL0     C34995   0.207   0.540   7.843 -0.3931  0.3211  0.0461
  266MOL0     C34996   0.052   0.537   7.837 -0.2791 -1.1227 -0.1974
  266MOL0     N34997   0.010   0.561   7.704  1.3565  0.0257 -0.5101
  266MOL0     C34998  -0.011   0.692   7.655  0.9507 -0.1068 -0.5777
  266MOL0     C34999  -0.003   0.683   7.524  0.4967  0.5669  0.5420
  266MOL0     C35000  -0.014   0.787   7.410 -0.5503  0.4590  0.1960
  266MOL0     C35001  -0.121   0.891   7.435  0.1699  0.6742 -0.1434
  266MOL0     C35002  -0.134   0.995   7.331 -0.0740 -0.1473 -0.1217
  266MOL0     C35003  -0.274   1.050   7.330  0.5049 -0.3390 -0.2392
  266MOL0     O35004  -0.358   0.943   7.266  0.4951  0.7662  0.9508
  266MOL0     C35005  -0.489   0.971   7.239  1.0247 -0.2461 -0.6118
  266MOL0     C35006  -0.554   1.100   7.257 -0.7133 -0.7041 -0.9309
  266MOL0     C35007  -0.688   1.120   7.235 -1.3655 -0.0883 -0.0963
  266MOL0     C35008  -0.767   1.020   7.183  0.5037 -0.6986 -0.6116
  266MOL0     C35009  -0.904   1.051   7.132 -0.1839  0.4554 -0.0455
  266MOL0     O35010  -0.987   0.940   7.129  1.1842  0.0990 -0.0655
  266MOL0     C35011  -1.117   0.939   7.084  1.1483 -0.2365 -0.0236
  266MOL0     C35012  -1.155   1.018   6.973 -0.4910 -0.7101 -0.2020
  266MOL0     C35013  -1.286   1.026   6.930 -0.7624  0.2094 -0.0674
  266MOL0     C35014  -1.393   0.940   6.980  0.3236 -0.9826  0.0199
  266MOL0     O35015  -1.514   0.941   6.925 -0.1212 -0.3980  0.3728
  266MOL0     C35016  -1.578   0.811   6.901  0.2257 -0.1636  0.6310
  266MOL0     C35017  -1.507   0.703   6.808  0.9621 -0.9360 -0.5379
  266MOL0     C35018  -1.441   0.760   6.683 -0.4308  0.5722 -1.0256
  266MOL0     C35019  -1.527   0.827   6.577 -0.1641 -0.7179  0.0576
  266MOL0     C35020  -1.643   0.744   6.518  0.1640  0.4817 -0.0414
  266MOL0     C35021  -1.775   0.817   6.510 -0.1921  0.5253  0.1932
  266MOL0     C35022  -1.894   0.713   6.483  0.0827  0.2114  0.4271
  266MOL0     C35023  -2.025   0.769   6.525  0.0800  0.2722 -0.1374
  266MOL0    Cl35024  -2.059   0.936   6.472 -0.0789  0.3101 -0.5174
  266MOL0     C35025  -1.357   0.862   7.085  0.3484  0.4135  1.1012
  266MOL0     C35026  -1.218   0.859   7.143  0.4264 -0.4110 -0.1292
  266MOL0     O35027  -0.933   1.168   7.099 -0.2975  0.1576  0.4570
  266MOL0     C35028  -0.704   0.897   7.152 -0.4059  0.0887 -0.5215
  266MOL0     C35029  -0.570   0.871   7.189  0.0097 -0.3016  0.8295
  266MOL0     N35030  -0.002   0.544   7.492 -0.6898 -0.4466 -0.8849
  266MOL0     N35031  -0.013   0.474   7.603  0.2740  0.2418  0.4166
  266MOL0     C35032   1.074   0.137   8.020  0.0672  0.7197  0.0871
  266MOL0     C35033   1.211   0.122   7.997 -0.8256  0.2646  0.2531
  266MOL0     C35034   1.637   0.139   8.108 -0.6465 -0.4124  0.0957
  266MOL0     C35035   1.717   0.102   8.213 -0.3503  0.1125 -0.6141
  266MOL0     C35036   1.859   0.122   8.205 -0.5165  0.8118 -0.5311
  266MOL0     C35037   1.914   0.171   8.089  0.6394 -0.1737  0.2666
  266MOL0     O35038   2.049   0.191   8.087  0.1462 -0.4494 -0.0599
  266MOL0     C35039   2.117   0.270   7.988  0.6560 -0.0540  0.0049
  266MOL0     C35040   2.095   0.415   8.009 -0.3420 -0.1687 -0.3983
  266MOL0     C35041   2.136   0.515   7.910 -1.3620  0.1976 -0.1052
  266MOL0     C35042   2.286   0.525   7.883  0.5147 -0.9830  0.1106
  266MOL0     C35043   2.351   0.592   8.000  0.0999 -0.4795  0.9323
  266MOL0     C35044   2.399   0.642   8.097  0.0130 -0.0620  0.7006
  266MOL0     C35045   1.834   0.212   7.987  1.2508  0.0767  1.0212
  266MOL0     C35046   1.699   0.198   7.997  0.4517  0.3055  0.6711
  266MOL0     H35047   1.301   0.390   8.183  1.2204  0.9979 -1.0967
  266MOL0     H35048   1.072   0.386   8.241  1.7047 -0.2882  1.9039
  266MOL0     H35049   0.863   0.447   8.182 -0.0940  0.6273  1.1378
  266MOL0     H35050   0.841   0.318   8.311  0.4297  0.0392 -0.3107
  266MOL0     H35051   0.652   0.421   8.291  0.9995  0.4307  0.7501
  266MOL0     H35052   0.620   0.265   8.226 -1.1335  0.4216  1.0942
  266MOL0     H35053   0.615   0.354   7.994 -1.3226 -0.0136 -0.1306
  266MOL0     H35054   0.669   0.515   8.051  0.4073  0.4042 -1.2567
  266MOL0     H35055   0.405   0.356   8.105  0.2091 -0.3636  1.9646
  266MOL0     H35056   0.446   0.495   8.194 -1.6394  0.0234 -0.7922
  266MOL0     H35057   0.431   0.463   7.881 -3.9503  0.1585 -1.4822
  266MOL0     H35058   0.459   0.617   7.964  2.9727 -0.8626 -0.0731
  266MOL0     H35059   0.236   0.612   8.053  1.5525  0.4208  1.0314
  266MOL0     H35060   0.213   0.435   8.020  1.9380  0.2506  1.1781
  266MOL0     H35061   0.237   0.635   7.798 -3.1360  1.7292  0.9087
  266MOL0     H35062   0.248   0.467   7.773  0.8963  1.7965 -0.8159
  266MOL0     H35063   0.011   0.611   7.905  0.1734 -2.8422  2.0799
  266MOL0     H35064   0.008   0.441   7.866 -2.9099  0.1063  0.0787
  266MOL0     H35065  -0.009   0.783   7.715  1.7789  1.6559 -3.1027
  266MOL0     H35066  -0.046   0.728   7.324 -0.1226 -2.1253  1.6802
  266MOL0     H35067   0.085   0.832   7.396 -0.3096 -0.2971 -0.5758
  266MOL0     H35068  -0.085   0.934   7.529 -0.9608 -1.4961  1.3549
  266MOL0     H35069  -0.216   0.843   7.463 -0.7370  0.8435 -2.6941
  266MOL0     H35070  -0.065   1.079   7.348  3.4725 -2.8574  0.1157
  266MOL0     H35071  -0.116   0.945   7.236 -4.1632 -1.2906 -0.4830
  266MOL0     H35072  -0.274   1.143   7.272 -2.8147  0.1167  0.2909
  266MOL0     H35073  -0.300   1.074   7.434 -3.1942  0.5976 -1.2214
  266MOL0     H35074  -0.504   1.190   7.292  1.2195 -2.6467  1.7692
  266MOL0     H35075  -0.730   1.212   7.275 -0.9108  0.1672 -0.1943
  266MOL0     H35076  -1.085   1.090   6.933 -0.1530 -1.4207 -0.9108
  266MOL0     H35077  -1.300   1.081   6.837  0.6277 -1.8935 -1.6161
  266MOL0     H35078  -1.672   0.843   6.856  1.5113  0.6992 -1.6336
  266MOL0     H35079  -1.601   0.763   6.996 -0.6242  0.4509  0.7513
  266MOL0     H35080  -1.590   0.635   6.788 -0.0481  0.4433 -1.1880
  266MOL0     H35081  -1.423   0.656   6.861  0.5613  1.9449  2.9869
  266MOL0     H35082  -1.407   0.663   6.647  1.0501  1.0228 -0.8897
  266MOL0     H35083  -1.351   0.819   6.702 -0.6735  0.0907  2.1368
  266MOL0     H35084  -1.570   0.914   6.626  0.1569 -1.6283  2.0902
  266MOL0     H35085  -1.461   0.863   6.498  0.4210 -1.8648 -0.0119
  266MOL0     H35086  -1.655   0.661   6.588  2.8409 -0.1685 -0.2352
  266MOL0     H35087  -1.613   0.715   6.417  1.0773  1.6966 -0.1502
  266MOL0     H35088  -1.769   0.897   6.435  0.9243 -0.2230 -0.5434
  266MOL0     H35089  -1.798   0.864   6.606 -2.5527  1.1507 -0.6163
  266MOL0     H35090  -1.894   0.696   6.375  2.8129 -1.7328  0.6608
  266MOL0     H35091  -1.872   0.615   6.525 -1.5240 -0.4527 -0.1771
  266MOL0     H35092  -2.023   0.756   6.633 -1.2403 -0.6801 -0.1899
  266MOL0     H35093  -2.103   0.709   6.477 -0.0315 -1.9732  2.5819
  266MOL0     H35094  -1.433   0.797   7.128 -0.5376 -1.8603 -3.3081
  266MOL0     H35095  -1.187   0.801   7.229 -1.5362 -1.6500 -0.1973
  266MOL0     H35096  -0.750   0.816   7.096  0.0007 -0.6997  0.2666
  266MOL0     H35097  -0.517   0.779   7.165 -2.0619 -0.6976 -3.0131
  266MOL0     H35098   1.012   0.067   7.964  0.3175 -0.5086  1.3019
  266MOL0     H35099   1.241   0.028   7.951 -1.3982 -0.9792  2.2631
  266MOL0     H35100   1.669   0.065   8.303  0.2864 -1.7165 -0.9767
  266MOL0     H35101   1.928   0.110   8.287  0.6095  0.8380 -1.4530
  266MOL0     H35102   2.104   0.240   7.884  0.8163 -0.3268  0.0640
  266MOL0     H35103   2.224   0.253   8.001  0.0399 -2.7700  2.3416
  266MOL0     H35104   1.993   0.447   8.032  0.5421  2.5024  0.2254
  266MOL0     H35105   2.151   0.426   8.102  2.7530  0.3062 -2.1906
  266MOL0     H35106   2.108   0.617   7.938  2.7730  0.9404  2.0988
  266MOL0     H35107   2.084   0.493   7.816  0.0350 -0.3775 -0.7668
  266MOL0     H35108   2.334   0.432   7.852  1.2824 -0.8575  0.8957
  266MOL0     H35109   2.302   0.596   7.801  6.1837 -0.7606  0.9767
  266MOL0     H35110   2.442   0.686   8.184  0.0361  0.5347  0.3881
  266MOL0     H35111   1.870   0.273   7.905  0.7119 -1.1253 -0.1440
  266MOL0     H35112   1.643   0.223   7.907 -1.5239 -1.1526  1.4202
  267MOL0     O35113   4.212   6.056   6.802 -0.0832 -0.0817  0.4294
  267MOL0     C35114   4.116   6.083   6.724  0.4754  0.1704 -0.0118
  267MOL0     O35115   3.991   6.020   6.727 -0.0623  0.2496  0.4685
  267MOL0     C35116   3.971   5.916   6.813 -0.4527  0.7682  0.1684
  267MOL0     C35117   3.915   5.939   6.941  0.1634  0.8598 -0.3103
  267MOL0     C35118   3.905   5.823   7.018 -0.0450  0.4269 -0.2806
  267MOL0     C35119   3.937   5.691   6.970 -0.2475 -0.6415 -0.3671
  267MOL0     O35120   3.927   5.591   7.063  0.2940  0.2174  0.2487
  267MOL0     C35121   3.979   5.461   7.036 -0.5901  0.5020 -0.1222
  267MOL0     C35122   3.952   5.354   7.148 -1.1761 -0.7853  0.2098
  267MOL0     C35123   3.808   5.315   7.154 -0.0294  0.0995  0.5533
  267MOL0     C35124   3.784   5.287   7.301 -0.0099  0.2080 -0.8276
  267MOL0     C35125   3.657   5.208   7.317 -0.2466  0.4617 -0.3213
  267MOL0     C35126   3.624   5.184   7.460  1.1405  0.7965  0.1835
  267MOL0     C35127   3.482   5.116   7.476  0.6562  0.0339  0.1052
  267MOL0     C35128   3.453   5.074   7.626 -0.0825  0.2741  0.6246
  267MOL0     N35129   3.328   4.999   7.629 -0.7612  0.7289 -0.4489
  267MOL0     C35130   3.203   5.042   7.661  0.0093 -0.3526 -0.1809
  267MOL0     C35131   3.122   4.931   7.676 -0.8757 -0.5795  0.5795
  267MOL0     C35132   2.979   4.932   7.715  0.5306  0.1701 -0.4416
  267MOL0     C35133   2.907   4.808   7.663  0.0803  0.0519 -0.0554
  267MOL0     C35134   2.761   4.800   7.701  0.0560  0.0897 -0.4889
  267MOL0     C35135   2.705   4.673   7.638 -0.6649  0.0285 -0.1296
  267MOL0     O35136   2.578   4.643   7.684 -0.0205  0.1969 -0.2608
  267MOL0     C35137   2.457   4.707   7.670 -0.0100  0.1292 -0.0216
  267MOL0     C35138   2.354   4.653   7.740  0.2745 -0.5206  0.7283
  267MOL0     C35139   2.224   4.700   7.735 -0.1158  0.2940 -0.6668
  267MOL0     C35140   2.207   4.823   7.665 -0.1603 -0.3022 -0.7561
  267MOL0     C35141   2.073   4.895   7.671 -0.4514  0.9010  0.1917
  267MOL0     O35142   1.972   4.838   7.750 -0.1106  0.1220  0.3771
  267MOL0     C35143   1.851   4.902   7.754  0.6915  0.3170  0.3607
  267MOL0     C35144   1.808   4.937   7.880 -0.2447 -0.5600 -0.1627
  267MOL0     C35145   1.686   5.010   7.906  0.1085 -1.2996 -0.1832
  267MOL0     C35146   1.610   5.051   7.795 -0.2199  0.5402  0.3759
  267MOL0     O35147   1.491   5.112   7.821 -0.1804  0.0997 -0.3338
  267MOL0     C35148   1.407   5.161   7.717  0.0823 -0.1126  0.1314
  267MOL0     C35149   1.297   5.253   7.766 -0.3249 -0.1519 -0.4542
  267MOL0     C35150   1.190   5.190   7.855  0.6851 -0.3712  1.5821
  267MOL0     C35151   1.242   5.120   7.983 -0.6519 -1.1667 -0.3683
  267MOL0     C35152   1.156   5.109   8.098  0.8576  0.0177  0.1242
  267MOL0     C35153   1.024   5.038   8.080  0.3464 -0.9799  0.4232
  267MOL0     C35154   1.040   4.886   8.060  0.0005  0.0137 -0.0219
  267MOL0     C35155   0.899   4.837   8.037 -1.0641 -0.0944 -0.6457
  267MOL0    Cl35156   0.797   4.812   8.186  0.0563  0.4691 -0.0409
  267MOL0     C35157   1.654   5.012   7.670  1.1729 -0.7208  0.0363
  267MOL0     C35158   1.772   4.944   7.646 -0.1872 -0.3069 -0.1249
  267MOL0     O35159   2.068   5.001   7.617  0.9638  0.0389  0.2355
  267MOL0     C35160   2.317   4.886   7.604  0.2499 -0.1326  0.4647
  267MOL0     C35161   2.442   4.826   7.599 -0.2023  0.5168 -0.0760
  267MOL0     N35162   3.204   4.816   7.648  0.0845 -0.0422 -0.7233
  267MOL0     N35163   3.316   4.865   7.607 -0.4187 -0.2689  0.2298
  267MOL0     C35164   3.993   5.675   6.837 -0.2190 -0.1105 -0.1011
  267MOL0     C35165   4.008   5.787   6.761  0.3128  0.5458 -0.7603
  267MOL0     C35166   4.131   6.177   6.612 -0.3987 -0.2217  0.5108
  267MOL0     C35167   4.035   6.176   6.506 -0.5618 -0.4397 -0.3616
  267MOL0     C35168   4.056   6.266   6.393 -0.4501  0.1234  0.3281
  267MOL0     C35169   4.155   6.355   6.393  0.0222 -0.2824 -0.3874
  267MOL0     O35170   4.175   6.444   6.290 -0.0282  0.0809  0.8127
  267MOL0     C35171   4.296   6.447   6.200  0.3214  0.2932  0.3496
  267MOL0     C35172   4.258   6.373   6.073  0.0754 -0.0075  0.0294
  267MOL0     C35173   4.208   6.233   6.087  0.0085 -0.5267 -0.2903
  267MOL0     C35174   4.255   6.149   5.968  0.4514  0.5780  0.7319
  267MOL0     C35175   4.181   6.015   5.987  0.2878 -0.6919 -0.0288
  267MOL0     C35176   4.125   5.915   6.010  0.2626 -0.1392  0.2531
  267MOL0     C35177   4.244   6.364   6.504  0.2930 -0.0421 -0.6493
  267MOL0     C35178   4.240   6.268   6.613  0.1332 -0.9621  0.6913
  267MOL0     H35179   3.887   6.024   7.002  0.0595  0.3874  0.3129
  267MOL0     H35180   3.870   5.830   7.120  2.8970  0.5057  0.8028
  267MOL0     H35181   4.087   5.472   7.027 -0.5572  2.2228  1.7236
  267MOL0     H35182   3.945   5.424   6.939 -0.5233  0.0989  0.0061
  267MOL0     H35183   3.987   5.384   7.247  1.7780 -0.3551 -0.8782
  267MOL0     H35184   4.009   5.262   7.134 -0.4527 -0.2928 -0.0893
  267MOL0     H35185   3.798   5.224   7.095  2.6278  0.2713 -0.2972
  267MOL0     H35186   3.736   5.391   7.122 -0.7520 -0.3828  1.0019
  267MOL0     H35187   3.867   5.223   7.334  0.3412  1.2332  0.3773
  267MOL0     H35188   3.797   5.381   7.355 -1.1770 -1.2797  2.2975
  267MOL0     H35189   3.657   5.112   7.264 -1.5253 -0.8051  1.8371
  267MOL0     H35190   3.578   5.274   7.278 -1.4394 -1.1294 -0.7288
  267MOL0     H35191   3.624   5.280   7.513  1.1784 -0.2151  2.1048
  267MOL0     H35192   3.698   5.114   7.500  1.0444  0.3411 -0.4252
  267MOL0     H35193   3.409   5.194   7.455  0.3056 -0.6259 -1.2395
  267MOL0     H35194   3.470   5.036   7.402 -4.5730  1.4954 -1.0310
  267MOL0     H35195   3.452   5.155   7.699  0.0989 -1.4660  2.6739
  267MOL0     H35196   3.535   5.013   7.668  1.7940  0.4119 -2.4904
  267MOL0     H35197   3.177   5.145   7.683 -0.2743 -0.4587 -0.0166
  267MOL0     H35198   2.937   5.020   7.665  0.4186 -0.6625 -1.8501
  267MOL0     H35199   2.956   4.966   7.817 -1.3589  1.2204 -1.1609
  267MOL0     H35200   2.954   4.721   7.711 -0.4060  1.0125  2.2748
  267MOL0     H35201   2.925   4.807   7.555 -3.4878  1.3361 -0.7948
  267MOL0     H35202   2.760   4.796   7.810  0.0567 -0.7010 -0.5142
  267MOL0     H35203   2.710   4.891   7.667  0.1342 -0.1138 -1.1595
  267MOL0     H35204   2.770   4.593   7.675 -0.8766  1.1748  3.0246
  267MOL0     H35205   2.698   4.676   7.528 -0.3999  0.3265 -0.1398
  267MOL0     H35206   2.379   4.572   7.808 -1.5419 -0.4236  1.5746
  267MOL0     H35207   2.142   4.657   7.791 -0.1766  1.4191  0.1273
  267MOL0     H35208   1.878   4.912   7.960  0.6880 -0.0458 -0.7962
  267MOL0     H35209   1.658   5.035   8.008 -1.3879  0.5086 -0.9636
  267MOL0     H35210   1.353   5.082   7.664 -2.2465  1.9538 -0.7691
  267MOL0     H35211   1.467   5.217   7.645 -0.1697  0.1088  0.0945
  267MOL0     H35212   1.245   5.300   7.683 -0.7369 -0.3920 -0.3342
  267MOL0     H35213   1.353   5.333   7.817  0.9450 -0.5483 -1.1710
  267MOL0     H35214   1.130   5.126   7.789  3.2666  0.8238 -2.2385
  267MOL0     H35215   1.116   5.266   7.884  0.7797  1.0415 -1.4756
  267MOL0     H35216   1.279   5.025   7.945  0.6869 -0.4920 -0.8200
  267MOL0     H35217   1.328   5.181   8.013  0.4940 -2.9567  0.1503
  267MOL0     H35218   1.134   5.209   8.136 -0.1701 -1.0689  2.5980
  267MOL0     H35219   1.216   5.051   8.168 -0.1453 -0.0015  1.0010
  267MOL0     H35220   0.969   5.080   7.995  0.7200 -0.6154  0.3559
  267MOL0     H35221   0.960   5.052   8.168  0.6442  0.4125  0.4478
  267MOL0     H35222   1.100   4.871   7.970  1.1651  0.9035  0.5823
  267MOL0     H35223   1.085   4.835   8.147 -0.5978  0.4147  0.5273
  267MOL0     H35224   0.910   4.736   7.998  1.6585 -0.0173 -0.2807
  267MOL0     H35225   0.853   4.902   7.963 -1.6940 -0.9414 -1.0099
  267MOL0     H35226   1.604   5.059   7.586  1.7466  1.8039  1.0330
  267MOL0     H35227   1.795   4.919   7.543 -0.8486 -0.7184 -0.1760
  267MOL0     H35228   2.312   4.978   7.547  1.2844 -0.2465  0.1744
  267MOL0     H35229   2.521   4.865   7.536  0.6324 -0.4186  0.3766
  267MOL0     H35230   4.031   5.577   6.811  1.2226 -0.2936  2.3590
  267MOL0     H35231   4.066   5.782   6.670  2.8203  0.8585  0.7337
  267MOL0     H35232   3.952   6.107   6.492  1.2484 -2.7539 -0.1940
  267MOL0     H35233   3.986   6.263   6.310 -0.5363  1.3928  0.3427
  267MOL0     H35234   4.375   6.398   6.258  0.7291  0.8798  0.2961
  267MOL0     H35235   4.337   6.547   6.187 -0.9596  0.9354  1.0914
  267MOL0     H35236   4.180   6.429   6.019 -0.7249 -0.1865  0.9688
  267MOL0     H35237   4.344   6.376   6.005 -1.0378  0.5700 -1.4301
  267MOL0     H35238   4.098   6.233   6.084  0.0054  0.8273 -2.0731
  267MOL0     H35239   4.237   6.181   6.179 -2.3706 -1.1627  0.1778
  267MOL0     H35240   4.214   6.182   5.872  0.2887  0.0657  0.6220
  267MOL0     H35241   4.363   6.137   5.962  0.1016 -3.7083 -0.1570
  267MOL0     H35242   4.080   5.821   6.033  0.4642 -0.1554  0.5768
  267MOL0     H35243   4.323   6.439   6.500  0.1994  0.0290 -1.3669
  267MOL0     H35244   4.309   6.277   6.697  0.9405 -1.3527  0.0822
  268MOL0     O35245   6.606   9.194  10.995 -0.1767  0.2143  0.2062
  268MOL0     C35246   6.643   9.192  11.111  0.5084  0.8256  0.8547
  268MOL0     O35247   6.558   9.179  11.221 -0.6075  0.0750  0.1879
  268MOL0     C35248   6.429   9.143  11.204 -0.3691  0.0104 -0.3013
  268MOL0     C35249   6.336   9.185  11.300 -0.5013 -0.1885 -0.0268
  268MOL0     C35250   6.200   9.144  11.306 -0.5386 -0.1752 -0.5270
  268MOL0     C35251   6.158   9.055  11.209 -0.6974 -0.4934 -0.7711
  268MOL0     O35252   6.026   9.033  11.204 -0.2806  0.4822  0.7433
  268MOL0     C35253   5.982   8.894  11.210 -0.8074 -0.6105  0.5331
  268MOL0     C35254   5.840   8.889  11.262 -0.8418 -0.3932 -0.4618
  268MOL0     C35255   5.733   8.951  11.175 -0.0597  0.4481  0.4643
  268MOL0     C35256   5.594   8.975  11.237 -0.4048  0.3435 -0.1395
  268MOL0     C35257   5.479   9.028  11.146  0.1062  0.7012 -0.1773
  268MOL0     C35258   5.372   9.078  11.260 -0.6996  0.0099  0.2427
  268MOL0     C35259   5.245   9.132  11.192  1.2896  0.0306  0.7286
  268MOL0     C35260   5.253   9.271  11.136  0.2239  0.5552  0.3081
  268MOL0     N35261   5.140   9.324  11.069 -0.1052  0.6023  0.2530
  268MOL0     C35262   5.103   9.304  10.935 -0.3162 -0.0052  0.3963
  268MOL0     C35263   4.997   9.383  10.923 -0.6295 -0.2789 -0.4843
  268MOL0     C35264   4.897   9.389  10.812 -0.0302 -0.2762  0.6355
  268MOL0     C35265   4.769   9.299  10.847 -0.1836 -0.0636  0.2481
  268MOL0     C35266   4.639   9.330  10.769 -0.8204 -0.3987 -0.5634
  268MOL0     C35267   4.526   9.245  10.806  0.0273  0.2370  0.1147
  268MOL0     O35268   4.536   9.119  10.746 -0.6049  0.1328  0.1728
  268MOL0     C35269   4.439   9.023  10.752 -0.1140  0.2838 -0.4075
  268MOL0     C35270   4.444   8.919  10.664 -0.0635 -0.0994 -0.1061
  268MOL0     C35271   4.355   8.815  10.670 -0.4118  0.1651  0.2477
  268MOL0     C35272   4.249   8.810  10.764  0.0341  0.2164  0.8647
  268MOL0     C35273   4.145   8.707  10.743  0.1773  0.4234 -0.0706
  268MOL0     O35274   4.029   8.722  10.815 -0.2270 -0.3001  0.0070
  268MOL0     C35275   3.921   8.651  10.765 -0.5059  0.2916 -0.2992
  268MOL0     C35276   3.917   8.510  10.771  0.5034 -0.0612 -0.8066
  268MOL0     C35277   3.801   8.436  10.746 -0.3449 -0.8640 -0.2030
  268MOL0     C35278   3.682   8.501  10.724 -0.2211  0.0194 -0.5964
  268MOL0     O35279   3.569   8.430  10.703 -0.1206  0.1238  0.6112
  268MOL0     C35280   3.527   8.412  10.567 -0.4637  0.0202 -0.3965
  268MOL0     C35281   3.381   8.473  10.556 -0.0902 -0.9169  0.4682
  268MOL0     C35282   3.275   8.388  10.626 -0.0599  0.8025 -0.1300
  268MOL0     C35283   3.145   8.468  10.625 -0.5353 -0.7084 -0.4238
  268MOL0     C35284   3.047   8.391  10.697  0.6290  1.2161  0.0796
  268MOL0     C35285   2.930   8.470  10.723  0.0477  0.1802 -0.5360
  268MOL0     C35286   2.811   8.389  10.773  0.2442  0.2802  0.5068
  268MOL0     C35287   2.711   8.478  10.845 -0.3060  0.5508 -0.0227
  268MOL0    Cl35288   2.538   8.409  10.820 -0.0853 -0.5668  0.5402
  268MOL0     C35289   3.687   8.640  10.707  0.5116  0.1748 -0.1467
  268MOL0     C35290   3.807   8.714  10.723  0.8085 -0.4224  0.2038
  268MOL0     O35291   4.170   8.610  10.667 -0.3613 -0.5736  0.0884
  268MOL0     C35292   4.237   8.925  10.842  0.2126 -0.6726 -0.0284
  268MOL0     C35293   4.328   9.028  10.834  0.2926 -0.3364  0.3514
  268MOL0     N35294   4.971   9.457  11.036 -0.2726 -0.0011  0.3377
  268MOL0     N35295   5.067   9.421  11.119  0.7235 -0.5853 -0.1240
  268MOL0     C35296   6.253   9.004  11.118  0.1342  0.6155  0.1879
  268MOL0     C35297   6.387   9.041  11.117 -0.2253  0.3313 -0.0293
  268MOL0     C35298   6.784   9.220  11.147 -1.2635 -0.7219 -0.6412
  268MOL0     C35299   6.825   9.219  11.280  0.0689  0.2806 -0.2430
  268MOL0     C35300   6.948   9.257  11.316  0.2647  1.5276  0.4381
  268MOL0     C35301   7.033   9.315  11.224 -0.4273  0.4792 -0.1839
  268MOL0     O35302   7.150   9.366  11.254  0.1732 -0.2484  0.0953
  268MOL0     C35303   7.268   9.294  11.207 -0.1214 -0.5310 -0.3467
  268MOL0     C35304   7.338   9.219  11.323 -0.5948  0.2038  0.7670
  268MOL0     C35305   7.375   9.302  11.443  0.8932 -0.5609  0.5830
  268MOL0     C35306   7.452   9.436  11.413 -0.6321 -0.4644  0.6487
  268MOL0     C35307   7.479   9.527  11.524  0.0803  0.1417 -0.4162
  268MOL0     C35308   7.499   9.609  11.616 -0.5955  0.3078  0.2297
  268MOL0     C35309   6.991   9.328  11.090  0.4189 -0.9760 -0.8151
  268MOL0     C35310   6.869   9.275  11.048 -0.2715 -0.0816  0.1089
  268MOL0     H35311   6.371   9.254  11.376  0.5632  0.1650 -0.8140
  268MOL0     H35312   6.130   9.174  11.384  1.5232 -0.9665  1.7622
  268MOL0     H35313   6.046   8.830  11.271  0.5581 -1.4068 -1.6287
  268MOL0     H35314   5.982   8.854  11.109  1.4906 -1.0340  0.6534
  268MOL0     H35315   5.831   8.946  11.355 -0.4330  1.7535 -1.6811
  268MOL0     H35316   5.824   8.783  11.287  2.1087 -0.4519  1.7187
  268MOL0     H35317   5.706   8.883  11.094 -1.4661  1.8160 -0.2722
  268MOL0     H35318   5.769   9.045  11.132 -0.2013  1.0276  1.5764
  268MOL0     H35319   5.578   8.884  11.295  0.2721  0.6654  0.5757
  268MOL0     H35320   5.616   9.057  11.306  0.6468 -1.0959  1.2809
  268MOL0     H35321   5.443   8.948  11.080  0.7827 -1.4743  1.9494
  268MOL0     H35322   5.506   9.104  11.072 -1.4272  1.4729 -0.0029
  268MOL0     H35323   5.417   9.164  11.311 -0.5791  0.6386 -0.8900
  268MOL0     H35324   5.349   8.991  11.323  0.8933 -0.7137 -0.1203
  268MOL0     H35325   5.221   9.068  11.106  1.5851  0.7436  0.0938
  268MOL0     H35326   5.160   9.132  11.260 -0.4467  1.9717 -1.2593
  268MOL0     H35327   5.335   9.278  11.065  0.2285 -0.1168  0.2514
  268MOL0     H35328   5.251   9.331  11.228 -4.4724  0.9467  0.1914
  268MOL0     H35329   5.131   9.234  10.856  2.1807  2.4483 -1.0957
  268MOL0     H35330   4.943   9.351  10.720 -1.5540 -0.8336  0.0764
  268MOL0     H35331   4.866   9.493  10.799 -0.1763 -0.3790  0.1171
  268MOL0     H35332   4.744   9.303  10.954 -2.2095  2.1614 -0.2090
  268MOL0     H35333   4.800   9.196  10.830  2.5729  0.2753  2.5340
  268MOL0     H35334   4.620   9.432  10.804 -0.3079 -0.1729 -0.9230
  268MOL0     H35335   4.663   9.325  10.662  8.2627  2.1785  0.5325
  268MOL0     H35336   4.429   9.281  10.768  1.4543  0.4791 -3.8066
  268MOL0     H35337   4.521   9.223  10.913  0.1368  2.2634  0.5782
  268MOL0     H35338   4.533   8.916  10.601  0.3709 -1.5582  0.5182
  268MOL0     H35339   4.378   8.738  10.597  1.1002 -0.0383  0.9156
  268MOL0     H35340   4.008   8.460  10.803  0.4188  0.7668  0.8171
  268MOL0     H35341   3.806   8.328  10.741  1.9902 -0.7810 -1.2501
  268MOL0     H35342   3.532   8.305  10.544 -1.1176  0.5048 -3.1767
  268MOL0     H35343   3.588   8.458  10.488  0.9959 -1.2583 -0.0694
  268MOL0     H35344   3.358   8.488  10.450 -1.9432 -1.0788  0.8241
  268MOL0     H35345   3.391   8.571  10.603  2.6108 -1.4539  1.2352
  268MOL0     H35346   3.297   8.356  10.728  1.2361  0.8764 -0.3806
  268MOL0     H35347   3.275   8.298  10.565  3.2762  1.9744 -2.0664
  268MOL0     H35348   3.149   8.569  10.667 -2.0585 -0.3879 -0.9766
  268MOL0     H35349   3.108   8.481  10.522 -1.6599 -0.8626 -0.0568
  268MOL0     H35350   3.082   8.353  10.793  0.5899  1.4799  0.1978
  268MOL0     H35351   3.031   8.306  10.630  0.3722  1.8829 -0.7109
  268MOL0     H35352   2.903   8.527  10.634  0.9664 -0.4230 -1.2152
  268MOL0     H35353   2.962   8.547  10.794  0.3855  0.7463 -1.2905
  268MOL0     H35354   2.768   8.350  10.680 -4.0587  0.2216  2.3237
  268MOL0     H35355   2.838   8.303  10.834  1.3945 -0.3795 -0.8520
  268MOL0     H35356   2.719   8.584  10.819 -2.5253  0.7103 -0.2747
  268MOL0     H35357   2.725   8.471  10.953 -1.9786  1.1353  0.2543
  268MOL0     H35358   3.596   8.699  10.699 -1.2959 -2.1429  1.6782
  268MOL0     H35359   3.791   8.821  10.715 -0.9630 -0.7508 -1.2999
  268MOL0     H35360   4.151   8.956  10.900 -0.4770  1.3406 -1.9851
  268MOL0     H35361   4.318   9.122  10.886  3.9098 -0.0909  0.8361
  268MOL0     H35362   6.224   8.931  11.043  2.6423  1.3741 -1.6735
  268MOL0     H35363   6.453   9.004  11.039  0.9243  1.3633  0.4231
  268MOL0     H35364   6.765   9.170  11.356  2.7878 -1.9347  0.6135
  268MOL0     H35365   6.968   9.251  11.423  0.1759  1.0526  0.4281
  268MOL0     H35366   7.340   9.360  11.159  2.6354 -3.1677 -0.2110
  268MOL0     H35367   7.232   9.222  11.133 -1.4040  0.5366 -0.7811
  268MOL0     H35368   7.275   9.132  11.342  2.9229 -2.9391 -0.6633
  268MOL0     H35369   7.433   9.176  11.289  0.6168  2.2664  1.3792
  268MOL0     H35370   7.442   9.245  11.508  0.7805 -0.7077  0.5724
  268MOL0     H35371   7.283   9.331  11.495  0.5706 -0.4917 -0.0130
  268MOL0     H35372   7.541   9.422  11.352 -0.8385  1.0904 -0.0390
  268MOL0     H35373   7.393   9.484  11.335  0.0583 -2.4060 -1.1642
  268MOL0     H35374   7.506   9.678  11.697  2.0635 -0.0066  0.3374
  268MOL0     H35375   7.056   9.380  11.020  1.7991  1.1837  1.8786
  268MOL0     H35376   6.836   9.292  10.947 -3.1263  1.3858  1.1909
  269MOL0     O35377   6.400   4.389   1.258  0.6316 -0.1949 -0.5234
  269MOL0     C35378   6.466   4.290   1.237  0.1613 -0.1358 -0.0415
  269MOL0     O35379   6.411   4.164   1.242  0.0987  0.0893 -0.4406
  269MOL0     C35380   6.278   4.145   1.274  0.6783 -0.2752 -0.2789
  269MOL0     C35381   6.214   4.046   1.197  0.2852  0.3678 -1.0908
  269MOL0     C35382   6.092   3.996   1.248 -0.3752  0.2778 -0.7522
  269MOL0     C35383   6.035   4.046   1.366 -1.3021 -0.1663  0.0084
  269MOL0     O35384   5.927   3.973   1.415  0.2066  0.2241  0.3904
  269MOL0     C35385   5.825   4.055   1.473 -0.1977  0.4390  0.2591
  269MOL0     C35386   5.685   3.987   1.434 -0.3741 -0.6742  0.0943
  269MOL0     C35387   5.663   3.875   1.530  0.3294  1.0015  0.1530
  269MOL0     C35388   5.511   3.844   1.557  0.0490  0.3250  0.3717
  269MOL0     C35389   5.428   3.832   1.435  0.7759 -0.2789 -0.5907
  269MOL0     C35390   5.276   3.807   1.471 -0.0244  0.7343  0.1025
  269MOL0     C35391   5.248   3.664   1.520 -0.0288 -0.8358 -0.0425
  269MOL0     C35392   5.114   3.597   1.485  0.7216 -0.3061 -0.1803
  269MOL0     N35393   4.999   3.670   1.542 -0.0432 -0.6722  0.5358
  269MOL0     C35394   4.894   3.615   1.616 -0.4473 -0.2098 -0.8192
  269MOL0     C35395   4.809   3.719   1.623  0.0657 -0.3054 -0.2101
  269MOL0     C35396   4.681   3.731   1.715 -0.5693 -0.0402  0.2773
  269MOL0     C35397   4.692   3.832   1.824  0.5720 -0.4896 -0.2935
  269MOL0     C35398   4.708   3.977   1.790  0.5287 -0.0127 -0.5338
  269MOL0     C35399   4.672   4.077   1.903  0.6633  0.4578  0.2334
  269MOL0     O35400   4.538   4.063   1.973  0.2789 -0.9157  0.4981
  269MOL0     C35401   4.421   4.105   1.916 -0.3584  0.5123 -0.0599
  269MOL0     C35402   4.413   4.140   1.785 -0.4092 -0.3811  0.3525
  269MOL0     C35403   4.293   4.178   1.728 -0.2183 -0.0132 -0.1394
  269MOL0     C35404   4.166   4.139   1.794  0.4026 -0.3531 -1.0283
  269MOL0     C35405   4.036   4.160   1.720  0.3016 -0.5930  0.4850
  269MOL0     O35406   3.925   4.092   1.765  0.4524  0.0732 -0.2609
  269MOL0     C35407   3.806   4.110   1.707  0.9628  0.2033 -0.1950
  269MOL0     C35408   3.758   4.228   1.652  0.1890  1.2909  0.0270
  269MOL0     C35409   3.624   4.230   1.599 -0.0857 -0.4971 -0.6258
  269MOL0     C35410   3.538   4.119   1.607 -0.2645  0.3124  0.8772
  269MOL0     O35411   3.409   4.121   1.567  0.5251 -0.0040  0.1279
  269MOL0     C35412   3.332   4.136   1.683  0.6029 -0.0163  0.6111
  269MOL0     C35413   3.181   4.143   1.646 -0.0907 -0.2465 -0.4780
  269MOL0     C35414   3.090   4.128   1.763 -0.0700 -0.4863 -0.0247
  269MOL0     C35415   2.943   4.135   1.711  0.8634  0.2596  0.2357
  269MOL0     C35416   2.854   4.141   1.839  1.3443  0.3611 -0.5066
  269MOL0     C35417   2.709   4.137   1.802 -1.0881  0.8135  0.8486
  269MOL0     C35418   2.615   4.130   1.926  0.0199  0.3714  0.1904
  269MOL0     C35419   2.635   4.240   2.038 -0.0699  0.7561 -0.2462
  269MOL0    Cl35420   2.485   4.250   2.135 -0.6003  0.0569 -0.1483
  269MOL0     C35421   3.593   3.998   1.651 -0.6237  0.5233 -0.3039
  269MOL0     C35422   3.722   4.001   1.711  0.4604  0.0600 -0.4143
  269MOL0     O35423   4.043   4.226   1.618 -0.1532  0.4465  0.3568
  269MOL0     C35424   4.182   4.101   1.927 -0.2837 -0.8060  0.4445
  269MOL0     C35425   4.309   4.077   1.986 -0.2345  0.9550 -1.1900
  269MOL0     N35426   4.854   3.830   1.550 -0.3547  0.3278 -0.1263
  269MOL0     N35427   4.977   3.801   1.513  0.6335  0.0797  0.1196
  269MOL0     C35428   6.097   4.154   1.436 -0.0065 -0.0343 -0.3783
  269MOL0     C35429   6.211   4.209   1.381  0.8751 -0.1625  0.4917
  269MOL0     C35430   6.604   4.301   1.200 -0.7465 -0.4731  0.1481
  269MOL0     C35431   6.688   4.186   1.174  0.9021  0.1617  0.5680
  269MOL0     C35432   6.832   4.206   1.154  0.4732 -0.6546 -0.4884
  269MOL0     C35433   6.895   4.337   1.167 -0.8514 -0.0536  0.0987
  269MOL0     O35434   7.027   4.364   1.175  0.7842 -0.0076 -0.1879
  269MOL0     C35435   7.115   4.250   1.192  0.5898  0.3176 -0.8689
  269MOL0     C35436   7.260   4.274   1.177 -0.2638 -1.1676 -0.8764
  269MOL0     C35437   7.312   4.395   1.265 -0.4637  0.4372  0.0133
  269MOL0     C35438   7.458   4.436   1.237 -0.2398  0.1615  0.0521
  269MOL0     C35439   7.502   4.448   1.104 -0.5923 -0.1211 -0.6774
  269MOL0     C35440   7.518   4.446   0.983 -0.1516  0.5453 -0.4901
  269MOL0     C35441   6.809   4.442   1.196 -0.3260  0.6825  0.5184
  269MOL0     C35442   6.670   4.425   1.207  1.6746  0.4662  0.1063
  269MOL0     H35443   6.261   4.019   1.104 -1.9754 -1.4015 -1.8243
  269MOL0     H35444   6.034   3.925   1.189  0.4003 -0.0760 -1.1054
  269MOL0     H35445   5.812   4.155   1.431  0.1059  0.2541 -0.2834
  269MOL0     H35446   5.848   4.066   1.579 -0.4808  0.3901  0.3286
  269MOL0     H35447   5.684   3.945   1.334  0.8159 -0.1122 -0.1801
  269MOL0     H35448   5.604   4.058   1.453 -4.1421 -3.8907 -2.4921
  269MOL0     H35449   5.702   3.896   1.630 -1.2419  1.3077  0.7396
  269MOL0     H35450   5.713   3.790   1.483 -2.3584  0.3834 -1.8410
  269MOL0     H35451   5.517   3.746   1.605  1.1800 -1.1021 -2.4617
  269MOL0     H35452   5.467   3.916   1.627  0.0989 -0.0114  0.7567
  269MOL0     H35453   5.471   3.744   1.387  1.8992  0.4332 -0.9177
  269MOL0     H35454   5.433   3.925   1.377  1.8094 -0.8086 -1.3705
  269MOL0     H35455   5.211   3.820   1.384  0.6120 -2.2334 -0.9148
  269MOL0     H35456   5.239   3.877   1.547  0.1523  1.2453 -0.2808
  269MOL0     H35457   5.322   3.597   1.476 -0.2267 -1.7071  0.9011
  269MOL0     H35458   5.270   3.681   1.626 -0.9720  0.6501 -0.0628
  269MOL0     H35459   5.114   3.495   1.525 -1.0487 -0.5294 -0.6922
  269MOL0     H35460   5.093   3.578   1.380 -0.7101 -0.5014  0.1156
  269MOL0     H35461   4.891   3.520   1.668  0.5504  0.7234  1.0267
  269MOL0     H35462   4.662   3.633   1.759 -1.3714 -0.4568 -0.9377
  269MOL0     H35463   4.595   3.752   1.650 -2.8931 -2.6547  2.2818
  269MOL0     H35464   4.770   3.800   1.893  0.0552 -2.4919 -0.5863
  269MOL0     H35465   4.598   3.826   1.879  0.6375  1.0524  0.0367
  269MOL0     H35466   4.811   3.996   1.761 -0.2989  1.2041 -2.8723
  269MOL0     H35467   4.652   4.000   1.700 -2.5772 -0.0168  1.2442
  269MOL0     H35468   4.679   4.179   1.863 -0.6085  1.0852  1.4984
  269MOL0     H35469   4.748   4.067   1.980  0.6462  0.5678  0.2644
  269MOL0     H35470   4.503   4.158   1.727 -1.2604  1.1431 -0.5714
  269MOL0     H35471   4.285   4.228   1.632 -1.8883 -2.7990 -1.5908
  269MOL0     H35472   3.816   4.319   1.664 -0.7993  1.8694  0.6642
  269MOL0     H35473   3.589   4.330   1.576  1.9336  0.1833 -0.8941
  269MOL0     H35474   3.345   4.230   1.739 -4.2436 -0.3607  2.8235
  269MOL0     H35475   3.343   4.054   1.755 -0.1453 -1.1208 -0.5047
  269MOL0     H35476   3.145   4.059   1.585 -0.6555 -1.5723  1.5538
  269MOL0     H35477   3.157   4.241   1.605  0.8308  0.2731  0.1925
  269MOL0     H35478   3.104   4.217   1.825 -3.6730  1.3291 -1.5020
  269MOL0     H35479   3.111   4.033   1.812 -0.1764  0.5524  2.1665
  269MOL0     H35480   2.935   4.220   1.643 -0.1927 -0.7260 -0.9267
  269MOL0     H35481   2.909   4.063   1.635  0.7491  1.0904 -0.5163
  269MOL0     H35482   2.875   4.236   1.890  0.6764  1.4292 -2.1502
  269MOL0     H35483   2.872   4.056   1.906  0.3272 -0.7621 -1.6279
  269MOL0     H35484   2.687   4.048   1.742  0.3142  1.2318 -0.3325
  269MOL0     H35485   2.674   4.223   1.743 -0.1983 -0.2382 -1.3330
  269MOL0     H35486   2.514   4.147   1.886  0.8135  1.6001 -1.4190
  269MOL0     H35487   2.625   4.032   1.974  1.7419  1.5813  2.5015
  269MOL0     H35488   2.659   4.336   1.991  1.6587  1.0959  1.2164
  269MOL0     H35489   2.712   4.217   2.112 -2.6146 -0.8438  2.1284
  269MOL0     H35490   3.536   3.906   1.659 -1.4327  0.8899 -1.4791
  269MOL0     H35491   3.772   3.916   1.756 -0.4131 -2.2081 -3.4170
  269MOL0     H35492   4.087   4.088   1.979 -0.4986 -0.3182  0.1793
  269MOL0     H35493   4.327   4.044   2.088 -0.3246  0.8835 -1.1970
  269MOL0     H35494   6.054   4.184   1.531 -0.2162  0.0011 -0.4829
  269MOL0     H35495   6.267   4.281   1.441 -2.4582  0.8116  2.7494
  269MOL0     H35496   6.652   4.084   1.162 -0.9552  0.9173 -0.6527
  269MOL0     H35497   6.887   4.114   1.137  1.2612 -0.2026 -0.4431
  269MOL0     H35498   7.081   4.167   1.129 -0.0243 -0.4496  0.4531
  269MOL0     H35499   7.096   4.221   1.295  0.1721 -0.8464 -1.2523
  269MOL0     H35500   7.322   4.185   1.191  0.8597 -0.3032 -0.0637
  269MOL0     H35501   7.264   4.299   1.071  0.3072  1.5636 -0.2898
  269MOL0     H35502   7.311   4.371   1.372 -2.4003 -4.6247 -0.8494
  269MOL0     H35503   7.250   4.484   1.249  1.9400  2.5765  1.7340
  269MOL0     H35504   7.486   4.528   1.289  3.1798 -1.6795  1.8421
  269MOL0     H35505   7.523   4.363   1.285  0.6403  0.1413 -1.1180
  269MOL0     H35506   7.528   4.440   0.876  1.6091  2.2418 -0.4936
  269MOL0     H35507   6.857   4.536   1.222  2.6629 -1.0874  1.9627
  269MOL0     H35508   6.603   4.509   1.225  2.3659  1.1715 -0.5385
  270MOL0     O35509   0.361   1.167   2.697  0.0316  0.2806  0.3462
  270MOL0     C35510   0.444   1.074   2.687  0.0489 -0.2065  0.7032
  270MOL0     O35511   0.414   0.944   2.644 -0.0721  0.3729 -1.0272
  270MOL0     C35512   0.298   0.897   2.595 -0.0852  0.9514  0.1171
  270MOL0     C35513   0.172   0.954   2.618  0.1904  0.4606 -0.5321
  270MOL0     C35514   0.059   0.886   2.569  0.0816  0.2764 -0.3615
  270MOL0     C35515   0.068   0.776   2.489  0.8142  0.3335 -0.0405
  270MOL0     O35516  -0.055   0.725   2.452 -0.4881 -0.2407  0.4539
  270MOL0     C35517  -0.049   0.582   2.402 -0.0466 -0.0913  0.2017
  270MOL0     C35518  -0.193   0.532   2.384  0.8950 -0.9301 -0.0407
  270MOL0     C35519  -0.201   0.379   2.390 -0.3937 -0.2905  0.1751
  270MOL0     C35520  -0.332   0.329   2.320  0.8036 -0.3115  1.5765
  270MOL0     C35521  -0.444   0.313   2.425 -1.4741 -0.1556  0.4013
  270MOL0     C35522  -0.572   0.310   2.345 -0.2787  0.1873  1.1897
  270MOL0     C35523  -0.696   0.307   2.429 -0.0843  0.7764  0.0142
  270MOL0     C35524  -0.716   0.176   2.508  0.7405  0.3310  0.6814
  270MOL0     N35525  -0.840   0.183   2.586  0.0008  0.2418 -0.6512
  270MOL0     C35526  -0.969   0.140   2.541  0.0499  0.1126 -0.1279
  270MOL0     C35527  -1.051   0.154   2.646 -0.4842 -0.3633  0.6773
  270MOL0     C35528  -1.200   0.134   2.640  0.9790  0.1853  0.5476
  270MOL0     C35529  -1.283   0.237   2.566  0.2540  0.5890  0.1492
  270MOL0     C35530  -1.272   0.379   2.616 -0.2607 -0.1474 -0.4369
  270MOL0     C35531  -1.306   0.383   2.768 -0.6265 -0.0749 -0.1001
  270MOL0     O35532  -1.353   0.500   2.835 -0.0066 -0.4844  0.3380
  270MOL0     C35533  -1.480   0.536   2.813  0.6280 -0.7629  0.4560
  270MOL0     C35534  -1.571   0.485   2.717  0.2332  0.9822  0.1664
  270MOL0     C35535  -1.696   0.539   2.687 -0.0589  0.3773 -0.1628
  270MOL0     C35536  -1.741   0.657   2.753 -0.1664 -0.4165  0.2020
  270MOL0     C35537  -1.877   0.722   2.740 -0.5400  0.0699 -0.1595
  270MOL0     O35538  -1.908   0.821   2.828  0.0885  0.0025  0.2705
  270MOL0     C35539  -2.021   0.894   2.800 -0.0126  0.8923 -0.2986
  270MOL0     C35540  -2.013   1.019   2.755  0.1309 -0.2901  0.4424
  270MOL0     C35541  -2.125   1.090   2.743  0.5006  0.1885  0.0798
  270MOL0     C35542  -2.250   1.053   2.780 -0.2011 -0.0113  0.2903
  270MOL0     O35543  -2.362   1.138   2.754  0.0383  0.2479 -0.5831
  270MOL0     C35544  -2.484   1.069   2.767 -0.2676  0.2405 -0.4028
  270MOL0     C35545  -2.597   1.165   2.741  0.3345 -0.4409  0.5007
  270MOL0     C35546  -2.732   1.085   2.725 -0.5407 -0.3552 -0.2021
  270MOL0     C35547  -2.827   1.171   2.645  0.8929  0.2344 -0.5963
  270MOL0     C35548  -2.969   1.111   2.642 -0.5763  0.0937 -0.0511
  270MOL0     C35549  -3.055   1.222   2.577  0.1177 -0.7943 -0.0412
  270MOL0     C35550  -3.198   1.177   2.555 -0.2430  0.4102 -0.3156
  270MOL0     C35551  -3.275   1.285   2.467  0.4311  0.3979  0.2061
  270MOL0    Cl35552  -3.224   1.323   2.287  0.3171 -0.1117 -0.2080
  270MOL0     C35553  -2.260   0.913   2.824 -0.3852  0.0457  0.9859
  270MOL0     C35554  -2.144   0.838   2.836 -0.3629 -0.0658  1.2519
  270MOL0     O35555  -1.934   0.695   2.636 -0.5520 -0.2387  0.4431
  270MOL0     C35556  -1.658   0.709   2.850 -0.7288 -0.1851 -0.0414
  270MOL0     C35557  -1.528   0.652   2.883 -0.0572 -0.1465  0.3458
  270MOL0     N35558  -0.972   0.199   2.759  0.3933  0.7158  0.1937
  270MOL0     N35559  -0.849   0.204   2.722  0.4840  0.4082  0.0938
  270MOL0     C35560   0.194   0.725   2.454 -0.9244  0.0123  0.0619
  270MOL0     C35561   0.309   0.776   2.516  0.6544 -0.0666  0.1155
  270MOL0     C35562   0.586   1.115   2.707  0.2397  0.1112 -0.1957
  270MOL0     C35563   0.630   1.244   2.722  0.1127 -0.2044  0.1646
  270MOL0     C35564   0.766   1.277   2.739 -0.3283 -0.3723  0.0413
  270MOL0     C35565   0.866   1.179   2.740  0.0465 -0.0767 -0.1476
  270MOL0     O35566   1.000   1.200   2.728 -0.1660 -0.2190 -0.5525
  270MOL0     C35567   1.050   1.316   2.788 -1.1767  0.1179  0.3406
  270MOL0     C35568   1.201   1.302   2.813 -0.2020  0.5892 -0.1502
  270MOL0     C35569   1.283   1.302   2.683 -0.3833  0.7109 -0.5940
  270MOL0     C35570   1.430   1.316   2.723 -0.1181 -0.4423  1.0807
  270MOL0     C35571   1.518   1.304   2.600  0.1382  0.2858 -0.4641
  270MOL0     C35572   1.593   1.295   2.507 -0.6376  0.9327  0.6003
  270MOL0     C35573   0.823   1.049   2.726  0.3222  0.3703  1.1029
  270MOL0     C35574   0.688   1.016   2.703 -0.6082 -0.2317  0.0874
  270MOL0     H35575   0.149   1.041   2.679  1.4155  0.7526 -0.4620
  270MOL0     H35576  -0.035   0.930   2.599  0.5281  0.0478  1.5195
  270MOL0     H35577   0.007   0.520   2.472 -0.4071 -0.5045  0.1263
  270MOL0     H35578   0.021   0.584   2.318  0.2685  1.3415  0.4603
  270MOL0     H35579  -0.232   0.564   2.288 -2.4004  0.5580  1.6158
  270MOL0     H35580  -0.260   0.554   2.468  1.2959 -2.1981  0.6404
  270MOL0     H35581  -0.197   0.346   2.494 -2.0194  1.7739  0.9884
  270MOL0     H35582  -0.116   0.331   2.341 -0.9504 -3.6387  2.2557
  270MOL0     H35583  -0.354   0.397   2.238 -1.4456 -1.0579  1.4962
  270MOL0     H35584  -0.314   0.236   2.265 -2.5005 -0.3057  0.2490
  270MOL0     H35585  -0.447   0.403   2.488 -1.1467  2.2380 -2.7815
  270MOL0     H35586  -0.427   0.235   2.500 -1.2544  2.7492  3.6447
  270MOL0     H35587  -0.590   0.232   2.271 -1.2739 -0.8887  2.5156
  270MOL0     H35588  -0.582   0.402   2.286 -0.8553 -0.1734  0.7175
  270MOL0     H35589  -0.700   0.394   2.496 -0.1029  2.1975 -1.7684
  270MOL0     H35590  -0.788   0.313   2.371  1.3651 -0.7966 -2.6154
  270MOL0     H35591  -0.633   0.155   2.575  0.7638 -0.5183  0.3923
  270MOL0     H35592  -0.727   0.092   2.439 -1.0723 -0.5682  1.9759
  270MOL0     H35593  -0.999   0.113   2.440 -0.6100 -3.8689  0.9799
  270MOL0     H35594  -1.234   0.142   2.744 -0.4804  2.0175 -0.0348
  270MOL0     H35595  -1.217   0.032   2.602 -1.1159  1.2647 -1.6369
  270MOL0     H35596  -1.389   0.212   2.573  0.2539  1.0709  2.4873
  270MOL0     H35597  -1.257   0.239   2.459  0.3958 -0.9033  0.1301
  270MOL0     H35598  -1.172   0.421   2.603  0.9779 -2.3334  1.1682
  270MOL0     H35599  -1.339   0.445   2.561 -0.2386  0.6408  0.4695
  270MOL0     H35600  -1.206   0.369   2.810  0.2658  4.2517 -0.3974
  270MOL0     H35601  -1.379   0.306   2.797 -1.4337  0.7809  0.2242
  270MOL0     H35602  -1.541   0.399   2.657 -2.6884  1.6377 -2.5564
  270MOL0     H35603  -1.759   0.501   2.607  0.0155  0.8492 -0.4538
  270MOL0     H35604  -1.917   1.062   2.727  0.1342 -1.5775 -1.7722
  270MOL0     H35605  -2.110   1.181   2.685 -0.2118  0.8652  0.9297
  270MOL0     H35606  -2.482   1.023   2.866  0.4429 -0.8173 -0.8940
  270MOL0     H35607  -2.478   0.990   2.692  1.0227  1.2556 -1.4283
  270MOL0     H35608  -2.569   1.225   2.654  1.0112  1.1737  1.7770
  270MOL0     H35609  -2.613   1.223   2.832 -0.9642  3.4811 -1.9732
  270MOL0     H35610  -2.761   1.068   2.829  1.9008 -0.6531  0.5073
  270MOL0     H35611  -2.714   0.988   2.679 -0.4179 -0.5487  0.2495
  270MOL0     H35612  -2.820   1.270   2.690  0.4967  0.1827 -0.4161
  270MOL0     H35613  -2.794   1.175   2.541 -2.7754 -1.0266 -1.9631
  270MOL0     H35614  -3.015   1.089   2.738  2.7568  0.1904  1.7311
  270MOL0     H35615  -2.967   1.027   2.572  4.0590  0.8864 -1.2129
  270MOL0     H35616  -3.003   1.261   2.489  1.6439  0.8954  1.5230
  270MOL0     H35617  -3.065   1.304   2.648  0.3724 -1.3472  0.6437
  270MOL0     H35618  -3.187   1.080   2.506  2.9374 -0.4489  1.7894
  270MOL0     H35619  -3.251   1.169   2.650  1.1236  0.7457  0.5076
  270MOL0     H35620  -3.300   1.376   2.522 -0.1171  0.3390  0.0608
  270MOL0     H35621  -3.374   1.244   2.446  0.1730 -0.5694  2.9158
  270MOL0     H35622  -2.350   0.855   2.843  0.9434 -2.0490  1.2242
  270MOL0     H35623  -2.149   0.735   2.868  0.0168  0.0172  1.5716
  270MOL0     H35624  -1.682   0.808   2.888  0.0818  0.7232 -1.7940
  270MOL0     H35625  -1.477   0.691   2.970 -2.5740  3.3413  0.4869
  270MOL0     H35626   0.203   0.641   2.386  2.1048  0.0130  0.3363
  270MOL0     H35627   0.407   0.735   2.494  0.7801  1.5477 -2.8920
  270MOL0     H35628   0.552   1.319   2.709 -0.3478 -0.9908 -1.9908
  270MOL0     H35629   0.796   1.381   2.735  1.8194 -0.9700 -1.5402
  270MOL0     H35630   1.016   1.337   2.890  2.2535  2.0392  1.2569
  270MOL0     H35631   1.035   1.403   2.723 -1.1131  0.2509  0.5030
  270MOL0     H35632   1.235   1.384   2.877 -0.1056  2.3330 -2.2894
  270MOL0     H35633   1.215   1.206   2.862  1.3109  0.2604 -1.1568
  270MOL0     H35634   1.251   1.390   2.628 -0.5711 -0.9304 -3.2730
  270MOL0     H35635   1.263   1.212   2.624 -1.6396  0.6719 -0.1330
  270MOL0     H35636   1.441   1.416   2.764  3.3828  0.3965 -1.3937
  270MOL0     H35637   1.461   1.241   2.796  2.1829  0.0749  0.7105
  270MOL0     H35638   1.655   1.314   2.422  0.6649 -0.6948  1.1359
  270MOL0     H35639   0.894   0.967   2.716 -0.9212 -0.6019 -0.3686
  270MOL0     H35640   0.665   0.914   2.671  2.3236 -1.0948  0.4252
  271MOL0     O35641   2.231  10.852   2.305 -0.6573 -0.4628 -0.9237
  271MOL0     C35642   2.291  10.762   2.248  0.2703  0.1915  0.4304
  271MOL0     O35643   2.234  10.696   2.145 -0.6022 -0.7795 -0.0129
  271MOL0     C35644   2.108  10.725   2.113  0.0205 -0.5164  0.3497
  271MOL0     C35645   2.023  10.616   2.094  0.3349 -0.0591 -0.7147
  271MOL0     C35646   1.889  10.632   2.054  0.4380  0.0731 -0.0872
  271MOL0     C35647   1.838  10.761   2.021 -0.0871  0.6563  0.5642
  271MOL0     O35648   1.709  10.789   1.987 -0.0731 -0.3364  0.2054
  271MOL0     C35649   1.629  10.680   1.927 -0.5020  0.0754 -0.1276
  271MOL0     C35650   1.663  10.647   1.777  0.1946 -0.7823 -0.8113
  271MOL0     C35651   1.678  10.781   1.695 -0.5658 -0.2338 -0.4671
  271MOL0     C35652   1.543  10.839   1.662 -0.6321  0.4194 -0.6050
  271MOL0     C35653   1.552  10.963   1.571  0.7711 -0.3088  0.3886
  271MOL0     C35654   1.410  10.969   1.507 -0.3233 -0.1939 -0.6264
  271MOL0     C35655   1.400  11.080   1.408  0.1466 -1.0438  0.2973
  271MOL0     C35656   1.284  11.071   1.315 -0.4783 -0.5212  0.1774
  271MOL0     N35657   1.155  11.099   1.381 -0.3553  0.2348 -0.4954
  271MOL0     C35658   1.078  10.999   1.442 -1.0486  0.0035  0.4501
  271MOL0     C35659   0.960  11.063   1.455  0.9773 -0.8118  0.5037
  271MOL0     C35660   0.831  11.002   1.499 -0.3134  0.0642 -0.8664
  271MOL0     C35661   0.768  10.898   1.400  0.3892  0.2229 -1.0432
  271MOL0     C35662   0.729  10.956   1.264  0.3116 -0.6272 -1.0128
  271MOL0     C35663   0.593  11.037   1.272  0.5457 -0.5485  0.4441
  271MOL0     O35664   0.571  11.086   1.140  0.2888 -0.4977  0.0719
  271MOL0     C35665   0.445  11.069   1.091 -0.6278  0.3304  0.3311
  271MOL0     C35666   0.346  11.171   1.086 -0.0335 -0.5040  0.4223
  271MOL0     C35667   0.212  11.136   1.055 -0.7994  0.4704 -0.2074
  271MOL0     C35668   0.179  10.996   1.037 -0.0251  0.0620  1.3216
  271MOL0     C35669   0.031  10.956   1.018  0.2833 -0.1755  0.2736
  271MOL0     O35670   0.002  10.821   1.018 -0.4126 -0.4414 -0.3694
  271MOL0     C35671  -0.131  10.792   1.016  0.1234  1.0104  0.5162
  271MOL0     C35672  -0.189  10.772   1.143 -0.8320 -0.0729 -0.3358
  271MOL0     C35673  -0.325  10.738   1.153 -0.1618  0.4098  0.3119
  271MOL0     C35674  -0.402  10.724   1.034 -0.0478  0.8902 -0.0438
  271MOL0     O35675  -0.542  10.703   1.040 -0.3152 -0.4015 -0.3097
  271MOL0     C35676  -0.589  10.660   1.170  0.2900  0.6767 -0.3719
  271MOL0     C35677  -0.726  10.609   1.157  0.7635 -0.3821 -0.0384
  271MOL0     C35678  -0.829  10.713   1.124  0.6666  0.3204  0.5089
  271MOL0     C35679  -0.961  10.662   1.092 -0.0209  0.4899  0.3311
  271MOL0     C35680  -1.019  10.588   1.213 -0.0164  0.0483 -0.2991
  271MOL0     C35681  -1.172  10.567   1.189 -1.0315  0.3513 -0.2849
  271MOL0     C35682  -1.261  10.685   1.154 -0.0898 -0.1454 -0.7692
  271MOL0     C35683  -1.251  10.802   1.246  0.3084 -0.5219 -0.0834
  271MOL0    Cl35684  -1.299  10.774   1.416 -0.0192  0.0671  0.2962
  271MOL0     C35685  -0.348  10.739   0.907 -0.7435  0.4217 -0.4887
  271MOL0     C35686  -0.202  10.762   0.902  0.5207 -1.0153  0.1894
  271MOL0     O35687  -0.054  11.049   1.000  0.0756  0.7590 -0.7184
  271MOL0     C35688   0.278  10.903   1.034  0.4842  1.0631 -0.2787
  271MOL0     C35689   0.413  10.940   1.070  0.0129  0.3429 -0.4130
  271MOL0     N35690   0.959  11.190   1.391 -0.4160  0.1726  1.2460
  271MOL0     N35691   1.080  11.210   1.345 -0.1483  0.1155  0.0385
  271MOL0     C35692   1.933  10.873   2.022  0.1887  0.6716  0.0729
  271MOL0     C35693   2.064  10.852   2.070 -0.0911  0.2014 -1.2884
  271MOL0     C35694   2.429  10.728   2.282  0.2367 -0.3537  0.1376
  271MOL0     C35695   2.499  10.804   2.382  0.1281  1.2011 -0.6697
  271MOL0     C35696   2.623  10.766   2.432  0.6099  0.2285 -0.0475
  271MOL0     C35697   2.681  10.649   2.384  0.5920  0.6895  0.6122
  271MOL0     O35698   2.797  10.601   2.430  0.0379  0.4883  0.0420
  271MOL0     C35699   2.909  10.623   2.344  0.4488 -0.3528  0.6714
  271MOL0     C35700   3.030  10.677   2.438 -0.1391  0.1126  0.0523
  271MOL0     C35701   2.994  10.802   2.515 -0.7873 -0.3927  0.4939
  271MOL0     C35702   3.109  10.850   2.600 -1.1778 -0.2432  0.4015
  271MOL0     C35703   3.201  10.943   2.528  0.1522 -0.2342 -0.3427
  271MOL0     C35704   3.255  11.018   2.461  0.3943 -0.6936  0.5271
  271MOL0     C35705   2.619  10.577   2.286 -1.1975 -0.6668 -0.2514
  271MOL0     C35706   2.495  10.615   2.231 -0.6421  0.8403  0.8106
  271MOL0     H35707   2.066  10.519   2.115  0.1643 -0.0779 -0.4442
  271MOL0     H35708   1.834  10.538   2.043  2.8475 -1.5369  0.7612
  271MOL0     H35709   1.522  10.705   1.928 -1.1447 -2.2979 -1.6319
  271MOL0     H35710   1.643  10.588   1.984  0.3470 -0.2160 -0.7876
  271MOL0     H35711   1.588  10.577   1.738 -0.9988 -0.0205  0.0446
  271MOL0     H35712   1.760  10.597   1.772  0.0593 -1.0500 -0.7737
  271MOL0     H35713   1.725  10.749   1.602 -1.2953  1.0688 -1.3191
  271MOL0     H35714   1.741  10.855   1.746  0.4598 -2.3962  1.6161
  271MOL0     H35715   1.497  10.751   1.617 -0.2464  0.0361 -0.2533
  271MOL0     H35716   1.485  10.877   1.746  0.8564  0.5749  0.3974
  271MOL0     H35717   1.625  10.947   1.491 -0.9114  2.3617 -1.8754
  271MOL0     H35718   1.573  11.058   1.620  1.0389 -0.8355  1.3109
  271MOL0     H35719   1.336  10.962   1.587  1.7684 -1.6423  1.3417
  271MOL0     H35720   1.391  10.878   1.448  0.0202  0.0963 -1.1937
  271MOL0     H35721   1.404  11.174   1.465  0.8882 -0.4762 -0.6529
  271MOL0     H35722   1.487  11.076   1.342  1.0081  1.4885  1.1476
  271MOL0     H35723   1.276  10.971   1.271 -0.0141 -0.8433  0.8009
  271MOL0     H35724   1.299  11.138   1.231 -1.3467  1.8921  1.8220
  271MOL0     H35725   1.106  10.898   1.470 -1.1154 -0.9196 -2.4714
  271MOL0     H35726   0.759  11.080   1.525 -0.2486  0.8888 -2.9558
  271MOL0     H35727   0.854  10.949   1.592  0.4904  0.0974 -1.0369
  271MOL0     H35728   0.687  10.842   1.447  1.2085  0.5583  0.8330
  271MOL0     H35729   0.847  10.823   1.386 -0.7879 -0.8857 -1.9143
  271MOL0     H35730   0.809  11.017   1.222 -1.3366 -0.2936 -3.8978
  271MOL0     H35731   0.710  10.881   1.187  1.3933 -0.9268 -0.9996
  271MOL0     H35732   0.601  11.124   1.338 -0.8637 -0.2461  0.2406
  271MOL0     H35733   0.513  10.973   1.309  2.0550 -2.4184  0.6295
  271MOL0     H35734   0.372  11.276   1.082 -1.5585 -0.1011  0.6359
  271MOL0     H35735   0.148  11.223   1.048 -0.6998  0.8242  2.3775
  271MOL0     H35736  -0.129  10.788   1.232  1.6094  0.0217 -1.8988
  271MOL0     H35737  -0.360  10.717   1.253  0.4674  1.7965  0.8461
  271MOL0     H35738  -0.598  10.738   1.246 -1.4658 -0.1389  0.2936
  271MOL0     H35739  -0.528  10.586   1.222  0.3342  1.3364  0.5516
  271MOL0     H35740  -0.763  10.570   1.252  2.7617 -1.4455  0.3514
  271MOL0     H35741  -0.734  10.527   1.085 -1.1764  0.9330 -1.4525
  271MOL0     H35742  -0.796  10.766   1.035 -2.6751  0.0498 -1.0218
  271MOL0     H35743  -0.839  10.787   1.204 -2.4559  0.1888  0.3823
  271MOL0     H35744  -1.023  10.748   1.066 -0.4469  0.3271  0.7837
  271MOL0     H35745  -0.959  10.610   0.996 -1.3120  2.3488 -0.7696
  271MOL0     H35746  -1.000  10.656   1.296  1.7902  0.6302 -1.1375
  271MOL0     H35747  -0.974  10.489   1.213  0.6313  0.2407 -3.2529
  271MOL0     H35748  -1.214  10.523   1.280  0.0168 -1.7922 -0.7815
  271MOL0     H35749  -1.183  10.484   1.119  0.4544 -0.1137 -0.0075
  271MOL0     H35750  -1.249  10.710   1.048 -1.2923  1.9371 -0.4847
  271MOL0     H35751  -1.364  10.648   1.165  0.5649 -2.4654 -1.8314
  271MOL0     H35752  -1.315  10.887   1.218 -0.8165 -0.5301  2.2070
  271MOL0     H35753  -1.152  10.848   1.253 -1.6260  4.0352  1.2211
  271MOL0     H35754  -0.411  10.728   0.819 -0.0635 -1.2977 -0.8093
  271MOL0     H35755  -0.157  10.789   0.807  0.1351 -0.1755  0.2413
  271MOL0     H35756   0.251  10.798   1.022 -0.1445  1.2829 -0.8230
  271MOL0     H35757   0.495  10.870   1.081  1.3809  2.0673  1.0541
  271MOL0     H35758   1.882  10.960   1.983 -1.7588 -0.5380 -0.2259
  271MOL0     H35759   2.129  10.938   2.080  0.7346 -0.6530  1.6415
  271MOL0     H35760   2.451  10.890   2.426  0.3913 -0.2233  2.6786
  271MOL0     H35761   2.668  10.818   2.515 -1.6051 -1.0030  2.0512
  271MOL0     H35762   2.890  10.705   2.274 -0.7110 -0.9803  0.2232
  271MOL0     H35763   2.937  10.531   2.291  3.2457  0.3634  0.7266
  271MOL0     H35764   3.064  10.594   2.501  1.6359  0.4824 -0.3618
  271MOL0     H35765   3.114  10.692   2.369 -1.3482 -1.0324 -1.7771
  271MOL0     H35766   2.914  10.780   2.586 -0.5070 -0.6741  0.7310
  271MOL0     H35767   2.958  10.881   2.449 -0.4290 -0.9266 -0.3541
  271MOL0     H35768   3.063  10.890   2.691 -1.6352  1.3764 -0.5152
  271MOL0     H35769   3.170  10.764   2.628 -0.2828 -0.0360 -0.8395
  271MOL0     H35770   3.301  11.092   2.398 -2.4149 -1.3570 -2.5494
  271MOL0     H35771   2.676  10.490   2.255  1.0708  0.4838  0.4636
  271MOL0     H35772   2.451  10.550   2.155  2.2642  0.1378 -0.4180
  272MOL0     O35773   5.578   0.016   1.035 -0.1253 -0.3324 -0.0569
  272MOL0     C35774   5.627  -0.048   1.125 -0.4941  0.3050  0.3221
  272MOL0     O35775   5.563  -0.123   1.225 -0.1853  0.0424 -0.5582
  272MOL0     C35776   5.431  -0.162   1.222  0.4590 -0.2664 -0.0326
  272MOL0     C35777   5.384  -0.285   1.268  0.4902  0.0016  0.3416
  272MOL0     C35778   5.241  -0.313   1.278 -0.4454 -0.4691 -0.6566
  272MOL0     C35779   5.157  -0.204   1.259  0.1031  0.9429 -0.0706
  272MOL0     O35780   5.026  -0.226   1.298 -0.5382 -0.3683 -0.1382
  272MOL0     C35781   4.930  -0.121   1.286  0.0744  0.4319 -0.1586
  272MOL0     C35782   4.793  -0.175   1.333  0.1545 -0.4398 -0.5281
  272MOL0     C35783   4.695  -0.053   1.319  0.6768 -0.5996  0.6178
  272MOL0     C35784   4.544  -0.095   1.332 -0.7782  0.0194 -0.4168
  272MOL0     C35785   4.440   0.007   1.355  0.6286 -0.0105 -0.4476
  272MOL0     C35786   4.442   0.048   1.502 -0.0803  0.8822  0.8376
  272MOL0     C35787   4.316   0.130   1.516 -0.0156  0.2759 -0.3960
  272MOL0     C35788   4.193   0.048   1.540 -0.9411  0.1114 -0.3321
  272MOL0     N35789   4.074   0.138   1.583 -0.4730 -0.3503 -1.2796
  272MOL0     C35790   3.986   0.197   1.499 -0.9323  0.1613 -0.0691
  272MOL0     C35791   3.889   0.242   1.583 -0.1452  0.4714 -0.1812
  272MOL0     C35792   3.760   0.305   1.546  0.3411  0.5831 -0.3254
  272MOL0     C35793   3.647   0.279   1.646 -0.3729  1.0036 -0.4573
  272MOL0     C35794   3.524   0.342   1.592  0.8047  0.9730 -0.8746
  272MOL0     C35795   3.392   0.302   1.658 -0.0951 -0.4633  0.0098
  272MOL0     O35796   3.372   0.371   1.786 -0.1710  0.0368  0.4995
  272MOL0     C35797   3.243   0.411   1.822 -0.1291  0.2830 -0.1345
  272MOL0     C35798   3.230   0.490   1.931  1.0948  0.6034  0.3445
  272MOL0     C35799   3.108   0.531   1.981 -0.0599  0.4942  0.9541
  272MOL0     C35800   2.994   0.477   1.938  0.6657  0.1068 -0.1982
  272MOL0     C35801   2.862   0.512   2.000  0.8725  0.5124  0.4650
  272MOL0     O35802   2.746   0.472   1.946 -0.2242 -0.0623  0.0635
  272MOL0     C35803   2.627   0.490   2.009  0.0724 -0.4510 -0.4111
  272MOL0     C35804   2.586   0.490   2.147 -0.5882  0.2991  0.8301
  272MOL0     C35805   2.452   0.469   2.183  0.6320  1.0539 -0.0174
  272MOL0     C35806   2.347   0.466   2.096 -0.0793 -1.0021  0.4201
  272MOL0     O35807   2.219   0.438   2.121  0.1869 -0.3565 -0.7128
  272MOL0     C35808   2.162   0.488   2.242 -1.1892  0.1300  0.3641
  272MOL0     C35809   2.015   0.445   2.250 -0.6339  0.6595  0.1259
  272MOL0     C35810   1.940   0.504   2.369 -0.2727  0.5757 -1.1732
  272MOL0     C35811   2.007   0.477   2.496 -0.8254 -0.2063  0.5634
  272MOL0     C35812   1.917   0.511   2.619 -0.5551 -0.1071 -0.3511
  272MOL0     C35813   2.010   0.497   2.742  0.1047  0.5915  0.6083
  272MOL0     C35814   1.931   0.457   2.869 -0.5531 -0.4649  1.3040
  272MOL0     C35815   2.021   0.472   2.990  0.3576 -0.5447 -0.2883
  272MOL0    Cl35816   2.139   0.341   2.989  0.1211  0.4781  0.0213
  272MOL0     C35817   2.382   0.485   1.962 -0.3280  0.6739  0.5092
  272MOL0     C35818   2.517   0.488   1.922  0.0173  0.0161  0.2612
  272MOL0     O35819   2.864   0.567   2.107 -0.4288  0.0069 -0.5517
  272MOL0     C35820   2.997   0.397   1.823 -0.7703 -0.5268  0.4059
  272MOL0     C35821   3.124   0.363   1.765 -0.3521 -0.0307 -0.4803
  272MOL0     N35822   3.934   0.224   1.713  0.0869  0.1496 -0.2383
  272MOL0     N35823   4.048   0.171   1.716  0.4430 -0.3550  0.0122
  272MOL0     C35824   5.203  -0.081   1.204 -0.2564  0.2729  0.1766
  272MOL0     C35825   5.338  -0.062   1.180  0.1292 -0.0365 -0.7978
  272MOL0     C35826   5.773  -0.058   1.131 -0.7052 -0.6937  0.2506
  272MOL0     C35827   5.858   0.035   1.059  0.3917  0.8232  0.3129
  272MOL0     C35828   5.994   0.023   1.061  0.6403  0.1174 -0.2529
  272MOL0     C35829   6.065  -0.076   1.140 -0.5186  0.5359  0.1720
  272MOL0     O35830   6.200  -0.083   1.155 -0.2959 -0.0955  0.0927
  272MOL0     C35831   6.270   0.030   1.108 -0.0634  0.5996 -0.6927
  272MOL0     C35832   6.425   0.034   1.155 -0.2661  0.5847 -0.1768
  272MOL0     C35833   6.444   0.002   1.306 -0.4845  0.7769 -0.4266
  272MOL0     C35834   6.386   0.106   1.402 -0.0191  0.3935  0.8404
  272MOL0     C35835   6.435   0.078   1.538 -0.2869 -0.1892  0.8550
  272MOL0     C35836   6.476   0.082   1.649  0.2652  0.3443  0.1245
  272MOL0     C35837   5.983  -0.158   1.215 -0.9828  0.5109 -0.7095
  272MOL0     C35838   5.842  -0.160   1.208 -0.0473  0.0965 -0.1116
  272MOL0     H35839   5.460  -0.357   1.297  1.4719 -0.1993 -2.4001
  272MOL0     H35840   5.205  -0.400   1.331  1.4519 -1.1128 -0.3508
  272MOL0     H35841   4.931  -0.085   1.183 -2.1458  0.5275 -0.2083
  272MOL0     H35842   4.964  -0.046   1.358  0.4105  0.9022 -0.8013
  272MOL0     H35843   4.785  -0.218   1.433  0.0777  1.6783  0.4321
  272MOL0     H35844   4.757  -0.252   1.264 -0.7365 -0.9344  0.4506
  272MOL0     H35845   4.697  -0.010   1.219 -0.7831 -1.8526  0.0174
  272MOL0     H35846   4.721   0.021   1.395  1.1476  0.7360 -0.7969
  272MOL0     H35847   4.519  -0.142   1.236 -0.8729  1.2353 -1.0026
  272MOL0     H35848   4.543  -0.161   1.419 -0.4501  0.9488  0.3086
  272MOL0     H35849   4.344  -0.032   1.318  0.0015  2.8230 -2.0725
  272MOL0     H35850   4.463   0.098   1.300 -1.3534  1.2767  0.7119
  272MOL0     H35851   4.532   0.109   1.507  0.9277 -0.3166 -1.3613
  272MOL0     H35852   4.442  -0.032   1.577 -1.4267 -2.1631 -2.1165
  272MOL0     H35853   4.328   0.193   1.606 -1.1745  0.9485 -0.6994
  272MOL0     H35854   4.294   0.194   1.430 -3.5848 -1.4637 -0.9378
  272MOL0     H35855   4.206  -0.027   1.618  1.3977 -1.6842 -2.2567
  272MOL0     H35856   4.176   0.000   1.443  3.6789  0.0325 -1.3519
  272MOL0     H35857   3.983   0.201   1.391  0.8005  1.2435 -0.0992
  272MOL0     H35858   3.726   0.277   1.447  0.9623 -0.2433 -0.3124
  272MOL0     H35859   3.784   0.412   1.553  0.5603  0.4691  0.8636
  272MOL0     H35860   3.668   0.323   1.744  2.1668  0.5368 -0.7366
  272MOL0     H35861   3.633   0.170   1.648  1.2095  0.6631 -3.1246
  272MOL0     H35862   3.539   0.451   1.594 -0.0827  1.0910  0.2818
  272MOL0     H35863   3.505   0.306   1.490  2.4602  0.7746 -1.1407
  272MOL0     H35864   3.384   0.193   1.663 -5.1883 -0.2695  2.1230
  272MOL0     H35865   3.301   0.329   1.604 -0.9545 -1.4066  0.9378
  272MOL0     H35866   3.322   0.530   1.971  2.5066 -2.9459  0.9841
  272MOL0     H35867   3.122   0.606   2.059 -2.0053  0.2252  1.6079
  272MOL0     H35868   2.662   0.485   2.225 -0.1126  0.8102  0.4031
  272MOL0     H35869   2.436   0.449   2.289  0.1456 -2.6562 -0.6766
  272MOL0     H35870   2.187   0.595   2.247  0.0278  0.0794 -2.6462
  272MOL0     H35871   2.214   0.438   2.325 -0.8499 -1.7729 -0.9323
  272MOL0     H35872   2.022   0.338   2.272  0.1012  0.6806  0.0288
  272MOL0     H35873   1.964   0.466   2.156  1.0674  1.8179 -0.5910
  272MOL0     H35874   1.854   0.437   2.382 -0.4189  1.2350  2.1107
  272MOL0     H35875   1.906   0.608   2.368  0.5496  0.8973  0.6444
  272MOL0     H35876   2.028   0.370   2.511  2.7274 -0.0003 -1.8462
  272MOL0     H35877   2.102   0.531   2.502 -2.0235  2.0797  0.0881
  272MOL0     H35878   1.828   0.449   2.627 -0.0259 -0.6783  4.1392
  272MOL0     H35879   1.890   0.617   2.609  1.4353  0.2636 -2.8638
  272MOL0     H35880   2.065   0.589   2.763 -0.0497  0.8805 -0.2370
  272MOL0     H35881   2.084   0.419   2.724 -1.3445 -0.8366  0.6286
  272MOL0     H35882   1.837   0.513   2.878  1.5761  3.7707  0.2243
  272MOL0     H35883   1.893   0.355   2.858 -2.6023 -0.0741  3.7658
  272MOL0     H35884   1.959   0.456   3.078  0.1247 -2.2489 -0.7271
  272MOL0     H35885   2.081   0.563   3.003 -1.3141  0.4836  0.5484
  272MOL0     H35886   2.314   0.475   1.878  2.1721 -0.0173 -1.5523
  272MOL0     H35887   2.536   0.479   1.815 -0.8981  0.5317  0.0357
  272MOL0     H35888   2.909   0.359   1.773  0.2579  2.4194 -4.2639
  272MOL0     H35889   3.122   0.307   1.672  2.3033 -1.0946  0.0287
  272MOL0     H35890   5.122  -0.012   1.181 -2.6321 -1.8474  1.5918
  272MOL0     H35891   5.374   0.035   1.147 -0.6880  0.1694 -1.1056
  272MOL0     H35892   5.812   0.116   1.004  0.5399  0.8166  0.1774
  272MOL0     H35893   6.043   0.105   1.010 -0.1245  1.1008  0.5410
  272MOL0     H35894   6.222   0.119   1.150  0.4750  0.6178 -0.1181
  272MOL0     H35895   6.264   0.039   0.999  2.5057  3.8665 -0.7232
  272MOL0     H35896   6.473  -0.055   1.112 -0.6061  0.7099 -0.8224
  272MOL0     H35897   6.478   0.125   1.129 -0.8895  1.7422  2.2702
  272MOL0     H35898   6.553  -0.005   1.313 -0.4244  1.8840 -0.0739
  272MOL0     H35899   6.413  -0.097   1.340 -0.6731  0.2730 -1.9573
  272MOL0     H35900   6.425   0.203   1.370  1.4206 -0.1442  0.8596
  272MOL0     H35901   6.278   0.098   1.412  0.2789 -0.8338  4.3798
  272MOL0     H35902   6.496   0.088   1.754 -0.2956  0.4678  0.2282
  272MOL0     H35903   6.039  -0.227   1.278 -0.7056  0.5156 -0.9455
  272MOL0     H35904   5.783  -0.234   1.262 -0.3301 -1.4944 -2.4267
  273MOL0     O35905  10.543   5.604   7.245  0.0308 -0.4428  0.3669
  273MOL0     C35906  10.514   5.703   7.317 -0.0435  0.4478 -0.0199
  273MOL0     O35907  10.396   5.779   7.300 -0.2686 -0.1540  0.1824
  273MOL0     C35908  10.305   5.735   7.209 -0.6476 -1.2390  0.1640
  273MOL0     C35909  10.234   5.834   7.135 -0.2254 -0.6846  0.8436
  273MOL0     C35910  10.126   5.796   7.050 -0.5894 -0.3812  0.0538
  273MOL0     C35911  10.090   5.664   7.034  0.7839  0.5652 -1.1062
  273MOL0     O35912   9.998   5.648   6.938  0.1704  0.6249 -0.3701
  273MOL0     C35913   9.956   5.512   6.908 -0.0769  0.1050  0.6354
  273MOL0     C35914  10.065   5.441   6.813  0.4817 -0.3250 -0.3211
  273MOL0     C35915  10.051   5.293   6.794  0.6344  0.2645  0.6656
  273MOL0     C35916  10.168   5.232   6.708 -0.2251 -0.5869  0.1371
  273MOL0     C35917  10.309   5.240   6.769 -0.4659  0.0046 -0.0543
  273MOL0     C35918  10.403   5.167   6.673  0.4654 -0.6863  0.0961
  273MOL0     C35919  10.537   5.147   6.737  0.7239 -0.2863 -1.2940
  273MOL0     C35920  10.642   5.080   6.649 -0.3847  0.8225 -0.1511
  273MOL0     N35921  10.667   5.155   6.528 -0.3838 -0.4893  0.4951
  273MOL0     C35922  10.746   5.271   6.516 -0.0347 -0.1451 -0.2023
  273MOL0     C35923  10.763   5.282   6.380  0.8377 -0.2664 -0.4474
  273MOL0     C35924  10.821   5.400   6.310 -1.0368 -1.6387 -0.2456
  273MOL0     C35925  10.810   5.387   6.158  0.5105  0.3842  0.0797
  273MOL0     C35926  10.895   5.494   6.086 -1.1829 -0.0698  0.7514
  273MOL0     C35927  11.032   5.443   6.083 -0.3982 -0.1006  0.1462
  273MOL0     O35928  11.109   5.530   5.996 -0.0618 -0.0051 -0.4091
  273MOL0     C35929  11.245   5.540   6.026  0.5880  0.4739 -0.6547
  273MOL0     C35930  11.317   5.455   6.117 -0.1504 -0.0146  0.3333
  273MOL0     C35931  11.456   5.462   6.125 -0.7580 -0.2243  0.1034
  273MOL0     C35932  11.528   5.544   6.042  0.5307 -0.0270 -0.1999
  273MOL0     C35933  11.682   5.543   6.051 -0.4689  0.2022 -0.7086
  273MOL0     O35934  11.743   5.614   5.947  0.3998 -0.0829  0.3050
  273MOL0     C35935  11.882   5.635   5.955 -0.8582 -0.8556  0.5894
  273MOL0     C35936  11.953   5.609   5.838  0.9044 -0.0913  0.8896
  273MOL0     C35937  12.088   5.637   5.827 -0.0993 -0.3505 -0.2722
  273MOL0     C35938  12.156   5.685   5.942 -0.4781  0.4906  0.7179
  273MOL0     O35939  12.289   5.718   5.930 -0.0553 -0.5104 -0.1202
  273MOL0     C35940  12.379   5.659   6.028 -0.1463  0.6930 -0.2389
  273MOL0     C35941  12.523   5.666   5.962 -0.6540  0.1890  0.1387
  273MOL0     C35942  12.552   5.805   5.909  0.9458 -0.3774  0.5670
  273MOL0     C35943  12.694   5.800   5.841  0.4350  0.2352  0.6076
  273MOL0     C35944  12.718   5.921   5.757 -0.0587 -0.4266 -0.1357
  273MOL0     C35945  12.851   5.917   5.688 -0.4133 -0.2605 -0.2759
  273MOL0     C35946  12.880   6.044   5.602 -0.1545  0.4423  0.2965
  273MOL0     C35947  13.033   6.059   5.584 -0.3688 -0.7510  0.6249
  273MOL0    Cl35948  13.067   6.215   5.517 -0.5669 -0.0191  0.1165
  273MOL0     C35949  12.090   5.704   6.056  0.5323 -0.1239 -0.2183
  273MOL0     C35950  11.951   5.683   6.065  0.0798  0.3382 -0.4055
  273MOL0     O35951  11.741   5.483   6.139 -0.2305  0.1134 -0.2622
  273MOL0     C35952  11.456   5.632   5.950 -0.4018 -0.2531  0.3773
  273MOL0     C35953  11.317   5.623   5.938  0.2163 -0.6550  0.2298
  273MOL0     N35954  10.699   5.167   6.318 -0.7143  0.3029  0.0387
  273MOL0     N35955  10.657   5.091   6.413  0.1850  0.1357  0.0741
  273MOL0     C35956  10.168   5.570   7.098 -0.2150  1.0125  0.0697
  273MOL0     C35957  10.266   5.600   7.187  0.1329  0.3186  0.1040
  273MOL0     C35958  10.609   5.740   7.417 -1.0041  0.0183 -0.1656
  273MOL0     C35959  10.619   5.874   7.463  0.6027 -0.2839 -0.7204
  273MOL0     C35960  10.715   5.917   7.560 -0.1511  1.1981 -0.1802
  273MOL0     C35961  10.815   5.818   7.597  0.2934  0.0390  0.6899
  273MOL0     O35962  10.923   5.860   7.672 -0.0524  0.5494  0.4598
  273MOL0     C35963  11.017   5.771   7.731 -0.0665  0.0154  0.0021
  273MOL0     C35964  11.077   5.836   7.858  0.2623  0.9192 -0.2198
  273MOL0     C35965  10.965   5.864   7.965  0.4909  0.0745 -0.5073
  273MOL0     C35966  11.019   5.918   8.099  0.1504  0.4707  0.3812
  273MOL0     C35967  10.903   5.950   8.180  0.2647  0.9304 -0.1400
  273MOL0     C35968  10.815   5.967   8.261  0.2702  0.9678 -0.7256
  273MOL0     C35969  10.808   5.686   7.550  0.0621  0.1228 -0.0989
  273MOL0     C35970  10.697   5.648   7.476 -0.8744 -0.1037  0.2422
  273MOL0     H35971  10.255   5.939   7.150  0.4810 -0.7063  0.0830
  273MOL0     H35972  10.081   5.880   6.999 -0.5860 -0.5839 -0.2846
  273MOL0     H35973   9.861   5.511   6.854 -0.3466 -1.8712  1.0663
  273MOL0     H35974   9.929   5.457   6.998 -3.6734  1.3485  0.4474
  273MOL0     H35975  10.163   5.468   6.853 -0.0422 -0.4915  1.1703
  273MOL0     H35976  10.061   5.483   6.712  2.1920 -0.3966 -0.4543
  273MOL0     H35977   9.958   5.261   6.745 -0.5860 -1.3022  3.7408
  273MOL0     H35978  10.051   5.243   6.891  2.4543  0.0248  0.5739
  273MOL0     H35979  10.140   5.129   6.681  0.6447 -0.6814 -0.4584
  273MOL0     H35980  10.165   5.272   6.606 -2.9392 -0.4619  0.2017
  273MOL0     H35981  10.325   5.200   6.869  2.7535  0.1626 -0.3911
  273MOL0     H35982  10.340   5.343   6.790  2.9030 -0.8629 -0.0964
  273MOL0     H35983  10.417   5.234   6.587 -0.2200 -0.8291 -0.1343
  273MOL0     H35984  10.366   5.074   6.628 -0.1961  0.7932 -2.6533
  273MOL0     H35985  10.567   5.248   6.767  0.8826  0.0515 -2.5473
  273MOL0     H35986  10.524   5.087   6.828  0.7844  1.6395  0.0583
  273MOL0     H35987  10.603   4.980   6.626  2.9998  0.0264 -3.5257
  273MOL0     H35988  10.738   5.071   6.700 -0.6202 -2.2464 -0.0151
  273MOL0     H35989  10.777   5.341   6.593 -0.3324 -1.4836  1.1829
  273MOL0     H35990  10.926   5.400   6.338 -0.4746 -1.6841 -2.2420
  273MOL0     H35991  10.771   5.491   6.344  4.5239  1.8237 -0.2110
  273MOL0     H35992  10.705   5.401   6.131  0.2212 -0.1648  0.8581
  273MOL0     H35993  10.835   5.287   6.123 -0.5609  0.9218 -2.3824
  273MOL0     H35994  10.850   5.508   5.987 -0.9871 -0.6211  0.5822
  273MOL0     H35995  10.896   5.591   6.135  0.3193 -0.8188  2.2561
  273MOL0     H35996  11.045   5.345   6.037 -2.5873  0.0390 -0.9043
  273MOL0     H35997  11.063   5.448   6.188 -0.2819 -0.1896  0.1177
  273MOL0     H35998  11.273   5.378   6.180 -0.6878  1.3337  1.6584
  273MOL0     H35999  11.501   5.394   6.197  1.4661  2.7011  1.6917
  273MOL0     H36000  11.898   5.581   5.748  1.4862  0.1568  0.4530
  273MOL0     H36001  12.149   5.630   5.737  2.4924  1.3714  1.2210
  273MOL0     H36002  12.364   5.551   6.045 -1.3554  0.3856 -2.7690
  273MOL0     H36003  12.373   5.704   6.127  1.0736 -1.6785  1.0005
  273MOL0     H36004  12.523   5.584   5.889 -0.6842 -0.0697  0.4274
  273MOL0     H36005  12.601   5.640   6.035  1.4330  0.4116 -1.8945
  273MOL0     H36006  12.548   5.877   5.992 -3.2061  1.8282 -1.2322
  273MOL0     H36007  12.481   5.841   5.834  0.8191 -2.0640 -0.1626
  273MOL0     H36008  12.781   5.787   5.907  1.1096  0.0985 -0.2912
  273MOL0     H36009  12.684   5.709   5.781  1.3164  1.2518 -1.1676
  273MOL0     H36010  12.713   6.007   5.824 -2.2888  0.6387 -1.5355
  273MOL0     H36011  12.634   5.941   5.689 -0.1479 -0.3295  0.0013
  273MOL0     H36012  12.857   5.819   5.638  2.4983 -2.3084  3.5288
  273MOL0     H36013  12.931   5.910   5.762 -0.9875 -2.6328  0.2067
  273MOL0     H36014  12.836   6.031   5.502  1.3896  1.6236 -0.5791
  273MOL0     H36015  12.831   6.132   5.644  0.4568  0.0775  1.8258
  273MOL0     H36016  13.086   5.987   5.520 -0.9014  0.9091 -1.8205
  273MOL0     H36017  13.087   6.063   5.680 -0.1366  0.2579  0.4618
  273MOL0     H36018  12.137   5.745   6.145 -0.3985 -0.9642  0.6877
  273MOL0     H36019  11.906   5.703   6.162 -0.5842 -3.0593  0.0921
  273MOL0     H36020  11.505   5.692   5.874  0.5107 -3.0367 -1.3822
  273MOL0     H36021  11.265   5.687   5.868  2.2179  1.4667  0.5769
  273MOL0     H36022  10.148   5.465   7.082 -1.2901  0.7143  2.7691
  273MOL0     H36023  10.318   5.512   7.224 -0.8845  0.4038  1.8291
  273MOL0     H36024  10.542   5.938   7.423  1.2123  0.2585 -1.0370
  273MOL0     H36025  10.717   6.016   7.604 -4.2332  1.1494  0.4734
  273MOL0     H36026  11.104   5.758   7.665 -0.1946  1.1290 -0.4089
  273MOL0     H36027  10.970   5.674   7.747  3.0526 -1.2753  2.4176
  273MOL0     H36028  11.155   5.774   7.903 -0.7235 -0.1202  0.1222
  273MOL0     H36029  11.124   5.928   7.823 -0.5957  1.3267 -0.3228
  273MOL0     H36030  10.917   5.766   7.974  3.5437 -1.5345 -0.5220
  273MOL0     H36031  10.893   5.934   7.922  0.7626 -0.0904 -1.2265
  273MOL0     H36032  11.076   5.843   8.155 -2.0454 -1.6606 -0.1086
  273MOL0     H36033  11.082   6.004   8.072 -2.1672  2.2254  0.2397
  273MOL0     H36034  10.750   5.972   8.347 -0.3858  2.1554 -1.2668
  273MOL0     H36035  10.875   5.604   7.573 -3.3677 -2.2072  2.5250
  273MOL0     H36036  10.683   5.544   7.448 -2.4240 -0.1303  0.9940
  274MOL0     O36037   0.195  10.848   3.435  0.1954  0.6439  0.5862
  274MOL0     C36038   0.181  10.839   3.552  0.5449  0.3010 -0.3638
  274MOL0     O36039   0.256  10.895   3.649 -0.0968 -0.3340 -0.3265
  274MOL0     C36040   0.357  10.986   3.628  0.6012  0.0440  0.2347
  274MOL0     C36041   0.443  10.993   3.735  0.4511  0.0788  0.1506
  274MOL0     C36042   0.550  11.091   3.736  0.4548  0.3623 -0.6276
  274MOL0     C36043   0.578  11.164   3.624  0.2829  0.7430  0.2545
  274MOL0     O36044   0.679  11.250   3.631  0.8443  0.0947  0.1834
  274MOL0     C36045   0.776  11.248   3.519  0.1072  0.0427 -0.3163
  274MOL0     C36046   0.917  11.291   3.559  1.1926  0.1043 -0.3885
  274MOL0     C36047   0.920  11.442   3.580 -0.2258  0.4337  0.0792
  274MOL0     C36048   1.042  11.491   3.669 -0.1645 -0.6075 -0.6098
  274MOL0     C36049   1.061  11.638   3.666 -0.1764  1.3265  0.3409
  274MOL0     C36050   1.189  11.683   3.734 -0.5858  0.4882 -0.7057
  274MOL0     C36051   1.178  11.687   3.896 -0.4599 -0.4967  0.2674
  274MOL0     C36052   1.271  11.794   3.967  0.9208  0.2548 -0.1049
  274MOL0     N36053   1.408  11.747   3.923  0.4264 -0.4073  0.1462
  274MOL0     C36054   1.485  11.773   3.815  0.0485  0.1282  0.0300
  274MOL0     C36055   1.596  11.703   3.818 -0.4997 -0.6119 -0.0453
  274MOL0     C36056   1.707  11.720   3.726  0.2885 -0.0324 -0.4244
  274MOL0     C36057   1.672  11.692   3.585 -0.5443 -0.2856  0.7654
  274MOL0     C36058   1.637  11.545   3.564  0.6554  0.4633 -0.2980
  274MOL0     C36059   1.721  11.443   3.642 -0.6179  0.5779 -0.5347
  274MOL0     O36060   1.713  11.317   3.573  0.3216  0.4367 -0.3996
  274MOL0     C36061   1.586  11.260   3.587 -0.3693 -0.3148  0.1256
  274MOL0     C36062   1.547  11.171   3.488 -0.4725 -0.4648 -0.2468
  274MOL0     C36063   1.424  11.099   3.505 -0.9230 -0.1165 -0.7064
  274MOL0     C36064   1.326  11.132   3.603 -0.0756 -0.9857 -0.0841
  274MOL0     C36065   1.199  11.046   3.618 -0.5590  0.2459  0.4394
  274MOL0     O36066   1.160  10.960   3.520  0.4721  0.1738 -0.6830
  274MOL0     C36067   1.055  10.875   3.537 -0.6484  1.0905 -1.0969
  274MOL0     C36068   1.063  10.749   3.472 -1.1545  0.5843  0.4043
  274MOL0     C36069   0.963  10.657   3.488  0.7147  0.2677  0.3444
  274MOL0     C36070   0.851  10.682   3.569 -0.6532  0.0838 -0.1628
  274MOL0     O36071   0.758  10.580   3.589 -0.1601 -0.4657 -0.0171
  274MOL0     C36072   0.662  10.605   3.693 -0.0529  1.2900 -0.1711
  274MOL0     C36073   0.593  10.472   3.726 -0.0103  0.2757 -0.1023
  274MOL0     C36074   0.459  10.500   3.803  0.0634 -0.0398 -0.0922
  274MOL0     C36075   0.397  10.364   3.827  0.2003  0.1530  0.4491
  274MOL0     C36076   0.248  10.388   3.873 -0.2480  0.6418  0.1325
  274MOL0     C36077   0.199  10.247   3.923  1.1140  1.0789 -0.4925
  274MOL0     C36078   0.051  10.249   3.977 -0.0826  0.6349 -0.6325
  274MOL0     C36079  -0.052  10.297   3.876  0.7856  0.2327  0.3794
  274MOL0    Cl36080  -0.219  10.283   3.958  0.2853  0.4408  0.0182
  274MOL0     C36081   0.834  10.815   3.623 -0.3230  0.2626  0.1379
  274MOL0     C36082   0.935  10.911   3.607  0.8475  0.3263  0.1781
  274MOL0     O36083   1.140  11.059   3.723 -0.4064  0.4531 -0.1235
  274MOL0     C36084   1.354  11.240   3.684 -0.0265 -0.3976  0.9150
  274MOL0     C36085   1.485  11.291   3.689  0.5174 -0.2602 -1.3678
  274MOL0     N36086   1.595  11.623   3.925  0.0767  0.7103 -0.1589
  274MOL0     N36087   1.485  11.657   3.996  0.2115  0.2494 -0.5500
  274MOL0     C36088   0.501  11.136   3.508 -0.1069  1.2932 -0.5962
  274MOL0     C36089   0.390  11.059   3.511  0.3934 -0.5595 -0.9187
  274MOL0     C36090   0.073  10.755   3.592 -0.0029 -0.1297 -0.3815
  274MOL0     C36091  -0.015  10.697   3.497  0.6676  0.2449 -0.0719
  274MOL0     C36092  -0.137  10.639   3.537 -0.3818  0.2706 -0.1978
  274MOL0     C36093  -0.167  10.622   3.676  0.1409 -0.3859 -0.2765
  274MOL0     O36094  -0.289  10.567   3.716  0.1657  1.0914 -0.8216
  274MOL0     C36095  -0.399  10.627   3.660  0.3763 -0.5173  0.6644
  274MOL0     C36096  -0.511  10.636   3.765  0.4034  0.7430  0.5915
  274MOL0     C36097  -0.648  10.633   3.697 -0.4078  0.3364  0.4155
  274MOL0     C36098  -0.761  10.612   3.807  0.7144  0.5524 -0.0462
  274MOL0     C36099  -0.759  10.472   3.866  0.2787 -0.9527  0.3750
  274MOL0     C36100  -0.753  10.360   3.909  0.3860 -0.2975 -0.4443
  274MOL0     C36101  -0.074  10.660   3.767 -0.3807 -0.2647 -0.2841
  274MOL0     C36102   0.043  10.734   3.733  0.3782  0.4021 -0.0386
  274MOL0     H36103   0.423  10.942   3.829  0.4971 -1.8396 -0.8265
  274MOL0     H36104   0.606  11.095   3.829 -0.5566  2.9517 -0.0320
  274MOL0     H36105   0.742  11.308   3.433 -2.8853  1.9058  1.9520
  274MOL0     H36106   0.786  11.146   3.481 -0.9187 -0.5900  1.0282
  274MOL0     H36107   0.999  11.249   3.500  0.5619 -0.4279 -0.8991
  274MOL0     H36108   0.940  11.240   3.653  0.9717 -2.4144 -1.6099
  274MOL0     H36109   0.823  11.476   3.619 -0.5773 -1.1159  0.5923
  274MOL0     H36110   0.917  11.475   3.475  1.5026 -0.3500 -0.2568
  274MOL0     H36111   1.033  11.463   3.774  0.3877  0.7973 -0.1662
  274MOL0     H36112   1.136  11.442   3.640  1.4649  1.2179  1.2665
  274MOL0     H36113   0.972  11.684   3.710 -0.0253  2.6915 -0.6988
  274MOL0     H36114   1.052  11.677   3.564  0.8580  0.1802 -0.2071
  274MOL0     H36115   1.224  11.778   3.691  1.1832  0.4776  0.5686
  274MOL0     H36116   1.277  11.620   3.720 -0.3893 -0.1852  2.6633
  274MOL0     H36117   1.083  11.735   3.920  1.1648  1.3733  3.8418
  274MOL0     H36118   1.181  11.587   3.940  1.1524  0.7249  3.2388
  274MOL0     H36119   1.256  11.791   4.075  0.7296  2.0950 -0.0584
  274MOL0     H36120   1.249  11.897   3.939  0.3195  0.3557  0.6942
  274MOL0     H36121   1.461  11.848   3.741 -0.9347  3.7256  3.6402
  274MOL0     H36122   1.791  11.661   3.764  1.0458  0.7141 -0.9069
  274MOL0     H36123   1.741  11.823   3.739 -1.6749  0.3901  2.3403
  274MOL0     H36124   1.763  11.705   3.525  0.8943 -1.5814  2.5728
  274MOL0     H36125   1.590  11.754   3.548 -0.9899 -1.1856  0.2126
  274MOL0     H36126   1.531  11.524   3.587  0.7485 -0.8219 -0.9396
  274MOL0     H36127   1.655  11.539   3.457 -0.5747  0.5104 -0.5252
  274MOL0     H36128   1.699  11.437   3.749  1.3856  0.1279 -0.0942
  274MOL0     H36129   1.827  11.472   3.646 -1.0212  2.2201  3.8773
  274MOL0     H36130   1.617  11.148   3.408  0.3066 -0.9562  0.5615
  274MOL0     H36131   1.396  11.019   3.438  0.0079 -2.1301  1.1825
  274MOL0     H36132   1.148  10.731   3.406 -2.3047  2.0171 -1.5563
  274MOL0     H36133   0.972  10.561   3.439  0.6149  1.7970 -2.9193
  274MOL0     H36134   0.591  10.681   3.657 -0.5658  0.4546 -0.9830
  274MOL0     H36135   0.707  10.638   3.786  0.5682 -2.4120  0.9886
  274MOL0     H36136   0.659  10.406   3.782 -2.9694 -0.2150  3.2181
  274MOL0     H36137   0.568  10.415   3.637  0.1886 -0.6397  0.4200
  274MOL0     H36138   0.395  10.568   3.745  1.0854 -0.0404 -1.2669
  274MOL0     H36139   0.479  10.554   3.896 -2.5692 -2.1492  1.8602
  274MOL0     H36140   0.389  10.307   3.733  1.2182  0.6372  0.0571
  274MOL0     H36141   0.455  10.301   3.895  0.0345 -0.5722 -0.0660
  274MOL0     H36142   0.177  10.413   3.794 -0.2873 -0.8006 -0.3241
  274MOL0     H36143   0.244  10.460   3.955  2.6856  0.8822  0.1775
  274MOL0     H36144   0.272  10.207   3.993  0.1147  0.4479  0.2201
  274MOL0     H36145   0.198  10.175   3.841 -2.5987 -0.7739  0.9402
  274MOL0     H36146   0.023  10.153   4.020  1.3369  1.0734  1.4398
  274MOL0     H36147   0.046  10.314   4.065 -1.9278 -0.4292  0.1087
  274MOL0     H36148  -0.047  10.224   3.795  0.1286  1.7468 -1.0935
  274MOL0     H36149  -0.024  10.399   3.846 -0.3625  0.9165  1.5507
  274MOL0     H36150   0.747  10.844   3.681 -1.0007 -0.9144 -0.2607
  274MOL0     H36151   0.932  11.007   3.659  3.2853  0.2333  0.6098
  274MOL0     H36152   1.282  11.281   3.753  0.1310 -0.2975  1.0200
  274MOL0     H36153   1.496  11.360   3.771 -3.0610 -0.4433 -0.5736
  274MOL0     H36154   0.536  11.193   3.423  0.7007  0.7646 -0.6265
  274MOL0     H36155   0.343  11.033   3.417 -2.6954  0.0361  0.3245
  274MOL0     H36156   0.009  10.705   3.391 -0.3549  0.3368 -0.3057
  274MOL0     H36157  -0.213  10.608   3.466 -2.4741 -1.2977  2.5285
  274MOL0     H36158  -0.430  10.554   3.585  1.1814 -2.1148  1.8338
  274MOL0     H36159  -0.375  10.725   3.617  1.1091 -1.1352 -0.3734
  274MOL0     H36160  -0.497  10.551   3.833 -0.1358 -0.7718 -1.1129
  274MOL0     H36161  -0.498  10.729   3.822  0.0873  1.5222 -0.5735
  274MOL0     H36162  -0.645  10.555   3.620  2.5986  0.0058  0.7611
  274MOL0     H36163  -0.659  10.730   3.648  1.8548  0.1326 -0.6003
  274MOL0     H36164  -0.753  10.681   3.891  1.3476 -0.5924  0.8643
  274MOL0     H36165  -0.859  10.616   3.760 -1.0564 -1.0918  3.2055
  274MOL0     H36166  -0.745  10.261   3.948 -1.8177 -0.2519  0.2749
  274MOL0     H36167  -0.100  10.657   3.873 -0.0376  4.1670  0.1195
  274MOL0     H36168   0.112  10.765   3.810  2.6118 -1.3973 -1.2073
  275MOL0     O36169   4.208   4.656   4.974 -0.6940  0.4950 -0.5475
  275MOL0     C36170   4.281   4.683   5.074  1.0859  0.1488  0.9141
  275MOL0     O36171   4.231   4.732   5.192  0.1780  0.0588 -0.1726
  275MOL0     C36172   4.098   4.761   5.210  0.5170  1.0430 -0.0940
  275MOL0     C36173   4.022   4.695   5.316 -0.1288 -0.4093  0.5022
  275MOL0     C36174   3.885   4.697   5.320  0.2752 -0.2427 -0.4340
  275MOL0     C36175   3.811   4.783   5.235  0.1584 -0.0252 -0.4349
  275MOL0     O36176   3.677   4.802   5.238  0.4745  0.0108 -0.1195
  275MOL0     C36177   3.597   4.683   5.267  0.1177  0.2839  0.0741
  275MOL0     C36178   3.465   4.711   5.198 -0.7512 -0.2743 -0.4405
  275MOL0     C36179   3.367   4.593   5.229  0.5830  0.0935  0.1968
  275MOL0     C36180   3.232   4.634   5.175  0.3220 -0.3750 -0.0974
  275MOL0     C36181   3.138   4.517   5.169 -0.8246  0.1082  0.2351
  275MOL0     C36182   2.993   4.568   5.133  0.4624 -0.0897  0.2555
  275MOL0     C36183   2.901   4.443   5.105  0.8344 -0.1977  0.0532
  275MOL0     C36184   2.754   4.483   5.070  0.4113 -1.3155 -0.2818
  275MOL0     N36185   2.681   4.545   5.182  0.4179  0.5182 -0.0049
  275MOL0     C36186   2.594   4.650   5.180 -0.1312 -0.4964  0.2726
  275MOL0     C36187   2.512   4.643   5.288 -0.8037  0.6596 -0.0013
  275MOL0     C36188   2.407   4.746   5.314  1.0231 -0.7821 -0.3352
  275MOL0     C36189   2.268   4.685   5.317  0.5859 -0.4804 -0.3057
  275MOL0     C36190   2.174   4.797   5.365  0.2363 -1.0693 -0.5330
  275MOL0     C36191   2.030   4.740   5.414  0.7085 -0.6094  0.2532
  275MOL0     O36192   1.946   4.854   5.437  0.0096  0.3171  0.8945
  275MOL0     C36193   1.812   4.818   5.441  0.3521  0.4119 -0.1655
  275MOL0     C36194   1.733   4.922   5.407 -0.1087  0.2586 -0.0433
  275MOL0     C36195   1.599   4.909   5.422 -0.0003  0.6837 -0.3991
  275MOL0     C36196   1.535   4.791   5.465 -0.2549  0.9931  0.8216
  275MOL0     C36197   1.397   4.796   5.505 -0.0152 -0.1400 -0.3669
  275MOL0     O36198   1.334   4.688   5.552 -0.5408 -0.0973 -0.1424
  275MOL0     C36199   1.200   4.694   5.568  0.1413 -0.5780 -0.1952
  275MOL0     C36200   1.140   4.761   5.673 -0.3203  0.6453  0.2220
  275MOL0     C36201   0.997   4.748   5.699 -0.5930 -0.5020  0.0565
  275MOL0     C36202   0.927   4.652   5.624 -0.5592  0.7430  0.2522
  275MOL0     O36203   0.794   4.646   5.645  1.0605 -0.7058  0.6212
  275MOL0     C36204   0.706   4.589   5.541 -0.4172 -0.0961  0.2738
  275MOL0     C36205   0.568   4.587   5.604  0.6361 -0.1735  0.4155
  275MOL0     C36206   0.471   4.533   5.501 -0.3914  0.0001  0.3218
  275MOL0     C36207   0.332   4.527   5.563  0.2780  0.3461  0.0647
  275MOL0     C36208   0.220   4.516   5.465  0.0039 -0.1209  0.5681
  275MOL0     C36209   0.096   4.574   5.529 -0.3769 -0.0163 -0.2578
  275MOL0     C36210  -0.002   4.614   5.423  0.1761 -0.7268  0.7698
  275MOL0     C36211  -0.074   4.496   5.367 -0.0810  0.6997 -0.4870
  275MOL0    Cl36212  -0.164   4.414   5.500  0.1545 -0.1372 -0.2092
  275MOL0     C36213   0.995   4.578   5.528 -0.0422  0.6967  0.2151
  275MOL0     C36214   1.131   4.597   5.502  0.4448  0.7715 -0.7595
  275MOL0     O36215   1.344   4.905   5.487 -0.2604 -0.2554  0.2318
  275MOL0     C36216   1.618   4.673   5.484  0.7585  0.4641  0.2935
  275MOL0     C36217   1.754   4.689   5.472 -0.9542 -0.7720  1.3924
  275MOL0     N36218   2.557   4.539   5.366 -0.2228  0.1364  0.0263
  275MOL0     N36219   2.650   4.478   5.299  0.1957 -0.0290 -0.4320
  275MOL0     C36220   3.884   4.860   5.144 -0.4367  0.0667 -0.0555
  275MOL0     C36221   4.019   4.841   5.122 -0.1926 -0.3899  0.1304
  275MOL0     C36222   4.422   4.678   5.054 -0.2914 -0.0578  0.4317
  275MOL0     C36223   4.482   4.647   4.933  1.1383  0.2183 -0.5153
  275MOL0     C36224   4.623   4.634   4.922 -0.0468  0.7625 -0.2906
  275MOL0     C36225   4.709   4.649   5.040  0.0189  0.0438  0.4348
  275MOL0     O36226   4.848   4.642   5.017 -0.1743 -0.4267  0.2028
  275MOL0     C36227   4.928   4.685   5.129  0.5150 -0.2273  0.1279
  275MOL0     C36228   4.958   4.831   5.115  0.0296 -0.8453  0.0659
  275MOL0     C36229   5.073   4.870   5.024 -0.5534  0.0667  0.2454
  275MOL0     C36230   5.112   5.022   5.035  0.1602 -0.3597  0.1256
  275MOL0     C36231   5.218   5.046   4.943 -0.3105  0.1635 -0.1987
  275MOL0     C36232   5.307   5.101   4.874 -0.5143 -0.9025 -0.5939
  275MOL0     C36233   4.650   4.704   5.155 -0.3038  0.0650  0.2501
  275MOL0     C36234   4.506   4.711   5.164 -0.2946 -0.1608 -0.0897
  275MOL0     H36235   4.081   4.642   5.390 -0.0904 -0.7182  0.2557
  275MOL0     H36236   3.826   4.653   5.400  0.3689 -1.1606 -0.8612
  275MOL0     H36237   3.568   4.673   5.372 -1.4462 -0.7605 -0.4340
  275MOL0     H36238   3.644   4.589   5.236  0.1246 -0.2125  1.5095
  275MOL0     H36239   3.490   4.717   5.092  0.5286 -0.0401 -0.1482
  275MOL0     H36240   3.419   4.803   5.237  1.7221  1.4014 -1.2221
  275MOL0     H36241   3.353   4.569   5.335  1.7439 -0.4579  0.2413
  275MOL0     H36242   3.396   4.502   5.176  0.9472  0.9372 -1.1157
  275MOL0     H36243   3.194   4.706   5.248  2.5538 -0.5858  1.3329
  275MOL0     H36244   3.242   4.675   5.074  1.3962 -1.0448 -0.2686
  275MOL0     H36245   3.130   4.482   5.273 -1.5411  1.6387  0.7230
  275MOL0     H36246   3.180   4.437   5.106  0.0763  0.0173  0.9349
  275MOL0     H36247   2.988   4.644   5.054 -1.6279 -0.9051 -0.4587
  275MOL0     H36248   2.959   4.616   5.225 -0.4094 -2.7046  1.3874
  275MOL0     H36249   2.950   4.390   5.022  2.1076  4.3732 -2.4220
  275MOL0     H36250   2.892   4.381   5.195  0.4390  2.4640  1.9445
  275MOL0     H36251   2.703   4.391   5.041  0.2679 -1.1824 -0.4527
  275MOL0     H36252   2.751   4.556   4.989 -1.3623  2.0874  2.5186
  275MOL0     H36253   2.585   4.732   5.111  0.3800  0.3273  1.1610
  275MOL0     H36254   2.426   4.829   5.246  0.4383  0.8373  1.3932
  275MOL0     H36255   2.434   4.793   5.409 -1.5771 -1.4300  0.8205
  275MOL0     H36256   2.265   4.600   5.387  1.4127 -0.7529 -0.5876
  275MOL0     H36257   2.252   4.656   5.213  1.9820  0.9956 -0.9735
  275MOL0     H36258   2.219   4.847   5.451  1.4768 -1.6695 -0.8057
  275MOL0     H36259   2.152   4.864   5.281 -0.3515 -2.5373 -1.5887
  275MOL0     H36260   2.039   4.672   5.499 -0.9737 -2.9428 -1.3272
  275MOL0     H36261   1.988   4.679   5.333  0.0994  0.9034 -0.6238
  275MOL0     H36262   1.780   5.014   5.373  0.8604 -0.7574 -1.5724
  275MOL0     H36263   1.543   5.001   5.412 -1.7819 -0.2865  0.2424
  275MOL0     H36264   1.203   4.815   5.743 -0.3066  1.4650 -0.4000
  275MOL0     H36265   0.956   4.809   5.778 -1.7334 -1.0807 -0.0650
  275MOL0     H36266   0.747   4.489   5.525  3.6916  1.2872  1.0973
  275MOL0     H36267   0.713   4.654   5.453  0.7467 -0.5380  0.0228
  275MOL0     H36268   0.546   4.692   5.624 -0.9993 -0.3407 -0.3301
  275MOL0     H36269   0.564   4.533   5.699  1.0562 -1.4315 -0.2638
  275MOL0     H36270   0.502   4.433   5.468  2.2728  1.2812 -1.3833
  275MOL0     H36271   0.466   4.593   5.411  0.5682 -0.9736 -0.4047
  275MOL0     H36272   0.341   4.438   5.627  0.7126  0.3957  0.0761
  275MOL0     H36273   0.312   4.614   5.626 -1.5993 -1.4473  2.1472
  275MOL0     H36274   0.206   4.417   5.421 -2.1816 -0.1298  1.1701
  275MOL0     H36275   0.244   4.581   5.380  3.9737 -0.7070  1.0181
  275MOL0     H36276   0.122   4.662   5.588 -0.8489  0.4522 -0.7397
  275MOL0     H36277   0.062   4.497   5.600  0.5649  0.5166  0.8056
  275MOL0     H36278  -0.079   4.683   5.461 -0.0435 -0.0532 -0.8112
  275MOL0     H36279   0.055   4.667   5.347 -0.6130 -0.7940  0.1226
  275MOL0     H36280  -0.007   4.420   5.324 -0.0906  0.9067 -0.8737
  275MOL0     H36281  -0.146   4.529   5.291  1.9370 -0.5281 -3.1172
  275MOL0     H36282   0.935   4.508   5.470  0.6491 -0.7867  1.2232
  275MOL0     H36283   1.180   4.531   5.431 -0.6241  1.6414 -2.3778
  275MOL0     H36284   1.598   4.572   5.521  3.9183  0.3782  2.1117
  275MOL0     H36285   1.822   4.604   5.476  0.5156  0.2899  0.0956
  275MOL0     H36286   3.826   4.918   5.072 -0.1420 -1.3542 -1.4971
  275MOL0     H36287   4.069   4.882   5.035  0.2634 -0.2493  0.4534
  275MOL0     H36288   4.410   4.633   4.853 -1.3780 -1.4323  1.8796
  275MOL0     H36289   4.653   4.591   4.827 -1.5300 -0.5194 -0.2161
  275MOL0     H36290   5.022   4.629   5.118  0.6802  0.4682 -3.2994
  275MOL0     H36291   4.894   4.664   5.231  1.6340  4.8149  1.7943
  275MOL0     H36292   4.868   4.886   5.085  1.3121  1.2960 -0.0258
  275MOL0     H36293   4.990   4.866   5.214  3.4251  0.8528 -1.4719
  275MOL0     H36294   5.051   4.839   4.922 -1.2785  0.7883  0.1751
  275MOL0     H36295   5.150   4.807   5.070 -2.5626 -3.0736 -0.3708
  275MOL0     H36296   5.026   5.089   5.033 -1.0864 -1.5798  3.8649
  275MOL0     H36297   5.155   5.028   5.135  0.0677 -1.0227  0.2100
  275MOL0     H36298   5.376   5.157   4.814 -0.9957 -0.6482 -0.9114
  275MOL0     H36299   4.704   4.738   5.243 -4.2196  1.1078  2.5266
  275MOL0     H36300   4.457   4.750   5.253 -0.5807 -0.2361 -0.2145
  276MOL0     O36301   6.701   3.460   6.424  0.0098  0.3347  0.0090
  276MOL0     C36302   6.776   3.474   6.521 -0.1072  0.1950 -0.8838
  276MOL0     O36303   6.753   3.559   6.628  0.1030 -0.2518 -0.4629
  276MOL0     C36304   6.643   3.633   6.638 -0.4792 -0.1603  0.2988
  276MOL0     C36305   6.516   3.573   6.653  0.6593 -0.1156 -0.1718
  276MOL0     C36306   6.403   3.665   6.655  0.1111  0.0847 -0.3334
  276MOL0     C36307   6.422   3.804   6.645  0.8917  0.0572 -0.3232
  276MOL0     O36308   6.309   3.882   6.650  0.5658  0.5603  0.4477
  276MOL0     C36309   6.321   4.026   6.648  0.5763 -0.5953 -0.1743
  276MOL0     C36310   6.183   4.080   6.653 -0.4412  0.1061 -0.4079
  276MOL0     C36311   6.079   4.041   6.543  0.3944 -0.5524 -0.3181
  276MOL0     C36312   5.949   4.116   6.577  0.3775 -0.2249  0.1293
  276MOL0     C36313   5.945   4.266   6.535 -0.3399  0.3962 -0.5292
  276MOL0     C36314   5.796   4.313   6.526  0.2972  0.3168  0.0231
  276MOL0     C36315   5.749   4.293   6.381 -0.2618 -0.5693 -0.0443
  276MOL0     C36316   5.603   4.337   6.377 -0.2857 -0.4727 -0.1394
  276MOL0     N36317   5.509   4.225   6.383 -0.4731 -0.3845 -0.1668
  276MOL0     C36318   5.436   4.182   6.277  0.9567 -0.3563  0.0757
  276MOL0     C36319   5.349   4.094   6.322 -0.3447  0.9151 -0.2579
  276MOL0     C36320   5.263   4.005   6.243  0.5608 -0.4207 -0.4053
  276MOL0     C36321   5.132   3.979   6.324 -0.2206 -1.6813  0.5244
  276MOL0     C36322   5.028   3.925   6.225  0.1563  0.5709 -0.0543
  276MOL0     C36323   4.886   3.939   6.282  0.2721  0.4364 -0.3552
  276MOL0     O36324   4.866   3.857   6.400 -0.3166 -0.7181 -0.3496
  276MOL0     C36325   4.744   3.829   6.457 -0.1995 -1.2097  0.3207
  276MOL0     C36326   4.630   3.889   6.408 -0.1993  0.2213 -0.2774
  276MOL0     C36327   4.513   3.888   6.472 -0.1558 -1.2037  0.5187
  276MOL0     C36328   4.494   3.806   6.590 -0.0210 -0.1410  0.7194
  276MOL0     C36329   4.369   3.798   6.659  0.7286  0.6070 -1.0799
  276MOL0     O36330   4.370   3.726   6.782 -0.2976 -0.2440 -0.4494
  276MOL0     C36331   4.248   3.701   6.846  0.2374  0.0627  0.7298
  276MOL0     C36332   4.145   3.648   6.773 -0.3323 -0.1695 -0.2490
  276MOL0     C36333   4.027   3.637   6.839  0.5115 -0.1250 -0.5261
  276MOL0     C36334   3.992   3.683   6.960 -0.1422 -0.1689 -0.7255
  276MOL0     O36335   3.858   3.682   6.987  0.4707 -0.1034  0.3071
  276MOL0     C36336   3.830   3.669   7.131  0.3215 -0.3709 -0.2580
  276MOL0     C36337   3.680   3.676   7.143  1.0001 -0.1557 -0.7509
  276MOL0     C36338   3.626   3.667   7.286  0.3111 -0.3914  0.0350
  276MOL0     C36339   3.467   3.675   7.275  0.4050  0.8503  0.5059
  276MOL0     C36340   3.405   3.640   7.411 -0.3656  0.3396 -0.3330
  276MOL0     C36341   3.402   3.761   7.510  0.3357  0.0732  0.1503
  276MOL0     C36342   3.359   3.707   7.651  0.0991 -0.2316  0.2468
  276MOL0     C36343   3.313   3.820   7.743  0.9494 -0.4104 -1.2803
  276MOL0    Cl36344   3.443   3.931   7.792 -0.3687 -0.4550 -0.3206
  276MOL0     C36345   4.097   3.741   7.039  0.4767  0.4431  1.1251
  276MOL0     C36346   4.223   3.746   6.977 -0.4115 -0.9047 -0.0571
  276MOL0     O36347   4.272   3.847   6.603  0.4220  0.2844  0.5799
  276MOL0     C36348   4.616   3.747   6.632 -0.1367  0.2055  0.1074
  276MOL0     C36349   4.741   3.765   6.574 -0.4798 -0.0777  0.3213
  276MOL0     N36350   5.374   4.074   6.460  0.6866 -0.0863 -0.5327
  276MOL0     N36351   5.473   4.150   6.494 -0.1898  0.3295  0.1851
  276MOL0     C36352   6.552   3.855   6.636  0.3268 -0.9123 -0.5415
  276MOL0     C36353   6.664   3.770   6.631  0.2819 -0.4092 -0.1839
  276MOL0     C36354   6.904   3.404   6.531  0.3662  0.1340  0.2086
  276MOL0     C36355   6.973   3.395   6.656  0.0375 -0.7120  0.0203
  276MOL0     C36356   7.098   3.330   6.664  0.3642  0.1131  0.0760
  276MOL0     C36357   7.152   3.272   6.545  0.6498 -0.3427  0.1803
  276MOL0     O36358   7.279   3.229   6.559  0.5245 -0.8994 -0.1901
  276MOL0     C36359   7.353   3.171   6.451 -0.1532  1.1460  0.6200
  276MOL0     C36360   7.500   3.157   6.465 -0.3555  0.3552  0.2360
  276MOL0     C36361   7.564   3.281   6.409 -0.1663 -0.2176  0.2471
  276MOL0     C36362   7.718   3.282   6.440  0.6395  0.0989  0.2739
  276MOL0     C36363   7.801   3.165   6.397  0.2498 -0.2092 -0.1145
  276MOL0     C36364   7.892   3.092   6.372 -0.3610  0.3430  0.8239
  276MOL0     C36365   7.077   3.276   6.426 -0.2101 -0.0655 -0.0590
  276MOL0     C36366   6.958   3.332   6.421  0.3527 -0.0584 -0.7333
  276MOL0     H36367   6.510   3.468   6.678 -4.7450  0.2409  1.4111
  276MOL0     H36368   6.306   3.617   6.670  0.9830 -0.6201  4.9901
  276MOL0     H36369   6.371   4.055   6.555 -0.1828  0.4774 -0.2631
  276MOL0     H36370   6.364   4.062   6.742  0.1018  0.5843 -0.3996
  276MOL0     H36371   6.195   4.189   6.656  0.8583 -0.0450  0.7905
  276MOL0     H36372   6.158   4.064   6.758  0.5436 -1.0099 -0.3239
  276MOL0     H36373   6.059   3.934   6.536 -2.2714 -0.0142 -3.5086
  276MOL0     H36374   6.110   4.082   6.447 -0.1707 -0.3000 -0.3988
  276MOL0     H36375   5.876   4.076   6.505  0.6290  2.1910 -1.5552
  276MOL0     H36376   5.911   4.079   6.674  1.9576 -5.0813 -0.8066
  276MOL0     H36377   5.996   4.296   6.443 -3.2108  0.1149 -2.3338
  276MOL0     H36378   5.988   4.315   6.624 -1.4163 -0.1087  0.2888
  276MOL0     H36379   5.796   4.419   6.552  3.0815 -0.0575  2.0273
  276MOL0     H36380   5.729   4.246   6.582 -0.3437 -0.8616 -2.0657
  276MOL0     H36381   5.811   4.370   6.334  0.0431  0.2586  1.6384
  276MOL0     H36382   5.777   4.194   6.344  2.6835  0.9243 -2.1820
  276MOL0     H36383   5.574   4.387   6.284 -1.1094 -1.8060 -0.6149
  276MOL0     H36384   5.585   4.398   6.466  1.5197 -1.4593  0.9714
  276MOL0     H36385   5.450   4.205   6.172  1.0794 -1.1096 -0.0744
  276MOL0     H36386   5.316   3.920   6.198 -3.0860 -2.9276 -0.3706
  276MOL0     H36387   5.241   4.081   6.167 -0.4726  0.7350  1.0086
  276MOL0     H36388   5.098   4.073   6.369  0.9234 -0.3575 -1.2341
  276MOL0     H36389   5.153   3.909   6.406 -0.0169 -1.9556  0.2377
  276MOL0     H36390   5.028   3.975   6.127  0.5448  2.1497  0.7216
  276MOL0     H36391   5.056   3.821   6.205  0.1558  0.5699 -0.0503
  276MOL0     H36392   4.816   3.918   6.201 -0.0708 -3.1817  0.6979
  276MOL0     H36393   4.866   4.043   6.310 -0.6519 -0.0918  1.0324
  276MOL0     H36394   4.644   3.947   6.317  1.1604 -0.1503 -0.3304
  276MOL0     H36395   4.429   3.944   6.433 -1.0950 -3.0031 -0.1507
  276MOL0     H36396   4.146   3.601   6.675 -2.1698  1.3141 -1.0401
  276MOL0     H36397   3.942   3.599   6.784 -1.0960  2.2299  0.1499
  276MOL0     H36398   3.872   3.742   7.201 -1.4307 -0.1229  0.6020
  276MOL0     H36399   3.852   3.566   7.159 -0.9047 -0.7211 -0.5419
  276MOL0     H36400   3.625   3.601   7.086  0.0952 -0.7010  0.7834
  276MOL0     H36401   3.654   3.774   7.103  4.4688  1.8115  1.3206
  276MOL0     H36402   3.652   3.760   7.337 -1.1911  1.4869 -2.3661
  276MOL0     H36403   3.661   3.574   7.332  0.7364 -1.0964 -1.6312
  276MOL0     H36404   3.439   3.776   7.244 -1.0114  0.5424  0.7215
  276MOL0     H36405   3.437   3.597   7.205  1.3768  0.9248 -0.0026
  276MOL0     H36406   3.462   3.557   7.454 -2.4733  0.1561  2.3753
  276MOL0     H36407   3.300   3.612   7.397 -0.5546  0.0480  1.4158
  276MOL0     H36408   3.333   3.837   7.474  0.8918  0.2060 -0.6742
  276MOL0     H36409   3.497   3.815   7.509 -0.8867  2.3325 -0.0930
  276MOL0     H36410   3.276   3.640   7.626 -0.6217  0.4358  0.7853
  276MOL0     H36411   3.436   3.656   7.709  0.0643 -0.8442 -0.2431
  276MOL0     H36412   3.263   3.789   7.835 -1.7108  4.0193 -0.9399
  276MOL0     H36413   3.229   3.873   7.696 -3.2733 -3.7288  1.7697
  276MOL0     H36414   4.073   3.780   7.137  0.0261  1.0892  0.7600
  276MOL0     H36415   4.311   3.791   7.020 -0.7768 -2.5678  2.6691
  276MOL0     H36416   4.607   3.699   6.729  1.3617  1.1642  0.7547
  276MOL0     H36417   4.835   3.732   6.617  0.7472 -0.8692 -2.6594
  276MOL0     H36418   6.568   3.963   6.631 -1.9325 -0.5231 -0.1613
  276MOL0     H36419   6.762   3.817   6.639 -1.2506  3.3587 -1.3323
  276MOL0     H36420   6.939   3.450   6.744 -1.8434 -1.5746 -0.1281
  276MOL0     H36421   7.144   3.327   6.762  1.3174 -0.4181 -0.3677
  276MOL0     H36422   7.347   3.219   6.353  0.0887  0.1988  0.1201
  276MOL0     H36423   7.312   3.070   6.434 -0.3226  1.5361 -1.5778
  276MOL0     H36424   7.523   3.133   6.569  0.2679 -0.1173 -0.0015
  276MOL0     H36425   7.540   3.074   6.406  1.6306  1.8723 -0.6705
  276MOL0     H36426   7.516   3.372   6.445 -2.7778 -1.0575 -0.8678
  276MOL0     H36427   7.550   3.279   6.301  0.4590  3.1754 -0.0047
  276MOL0     H36428   7.768   3.377   6.418 -0.2620  0.6289  0.4534
  276MOL0     H36429   7.702   3.288   6.548 -0.5781  2.4180  0.0353
  276MOL0     H36430   7.961   3.015   6.344 -0.5070  0.0305  1.3118
  276MOL0     H36431   7.112   3.230   6.334 -0.2025  0.3514 -0.2653
  276MOL0     H36432   6.898   3.327   6.331  0.1820  1.3452 -0.7318
  277MOL0     O36433   9.120   7.681   5.189  0.4767 -0.2335 -0.0743
  277MOL0     C36434   9.171   7.756   5.107 -0.4101 -1.4354 -0.3419
  277MOL0     O36435   9.135   7.896   5.095 -0.0353  0.3853  0.2927
  277MOL0     C36436   9.048   7.957   5.184 -0.3926 -0.3221  0.4236
  277MOL0     C36437   8.931   8.013   5.138  0.2700 -0.6065  0.5294
  277MOL0     C36438   8.849   8.082   5.226 -0.0836  0.2794 -0.6662
  277MOL0     C36439   8.873   8.074   5.364 -0.2833  0.0000  0.4280
  277MOL0     O36440   8.784   8.126   5.448 -0.4902  0.3859  0.3324
  277MOL0     C36441   8.829   8.184   5.570  0.8011  0.0041 -0.4019
  277MOL0     C36442   8.787   8.095   5.684 -0.1080 -0.3720  0.5015
  277MOL0     C36443   8.635   8.082   5.699  0.4289  0.4486  0.2563
  277MOL0     C36444   8.590   8.006   5.826  0.6417 -0.1587 -0.1299
  277MOL0     C36445   8.435   7.972   5.820  0.2608 -0.1369  0.7878
  277MOL0     C36446   8.392   7.907   5.951 -0.2017  0.1897 -0.2222
  277MOL0     C36447   8.250   7.848   5.927  0.5591 -0.8349  0.0766
  277MOL0     C36448   8.188   7.799   6.049  0.9590  0.1026 -0.6759
  277MOL0     N36449   8.067   7.715   6.020 -0.4794  0.2306  0.5273
  277MOL0     C36450   7.941   7.756   6.039  0.2155 -0.5591  0.4533
  277MOL0     C36451   7.855   7.666   5.984 -0.0188 -0.5304 -0.8933
  277MOL0     C36452   7.709   7.671   5.962  0.5470 -0.2261  0.8778
  277MOL0     C36453   7.621   7.599   6.057 -0.3211  0.6664  0.1605
  277MOL0     C36454   7.476   7.638   6.034 -0.4275 -0.0032 -0.4704
  277MOL0     C36455   7.388   7.573   6.135 -0.5117 -0.4936  0.2084
  277MOL0     O36456   7.253   7.580   6.085 -0.3602  0.0111 -0.0625
  277MOL0     C36457   7.149   7.571   6.180 -0.0155 -0.0098 -0.5501
  277MOL0     C36458   7.022   7.527   6.139  0.8088  0.8522  0.4629
  277MOL0     C36459   6.915   7.513   6.228 -0.3396 -1.0610  0.2571
  277MOL0     C36460   6.927   7.552   6.364  0.2380 -0.2839  1.4216
  277MOL0     C36461   6.816   7.540   6.452 -0.3152 -0.2156 -1.1882
  277MOL0     O36462   6.705   7.482   6.402  0.5560 -0.0789  0.4764
  277MOL0     C36463   6.580   7.484   6.460  0.4636  0.5381  1.0539
  277MOL0     C36464   6.540   7.581   6.546 -0.1643  0.2089  0.6974
  277MOL0     C36465   6.410   7.572   6.602  0.1483  0.2880 -0.1023
  277MOL0     C36466   6.321   7.464   6.568  0.1063 -1.0150  0.1716
  277MOL0     O36467   6.192   7.454   6.620  0.0438  0.5835 -0.0131
  277MOL0     C36468   6.142   7.575   6.679  0.0470 -0.0515  0.0640
  277MOL0     C36469   5.995   7.536   6.710 -0.8222 -0.8682  0.8518
  277MOL0     C36470   5.936   7.671   6.756 -0.2658 -0.6285 -0.1757
  277MOL0     C36471   5.792   7.653   6.817 -0.4565  0.1893 -0.7200
  277MOL0     C36472   5.693   7.572   6.736  0.4709  0.4041 -0.1634
  277MOL0     C36473   5.640   7.659   6.617 -0.0921  0.6014 -0.7077
  277MOL0     C36474   5.503   7.613   6.570 -0.1673  0.5388 -0.5879
  277MOL0     C36475   5.444   7.722   6.478 -0.1661 -0.0383  0.1853
  277MOL0    Cl36476   5.400   7.879   6.571  0.2308  0.1038  0.0320
  277MOL0     C36477   6.368   7.364   6.478 -0.3970  0.7939 -0.6324
  277MOL0     C36478   6.500   7.372   6.425 -0.1263 -0.2418 -1.0498
  277MOL0     O36479   6.829   7.600   6.562  0.1422 -1.0393 -0.1198
  277MOL0     C36480   7.054   7.597   6.406 -0.2835 -0.1875  0.0398
  277MOL0     C36481   7.155   7.622   6.314 -1.0567 -0.1335 -0.5543
  277MOL0     N36482   7.946   7.567   5.934  0.6961  0.2451 -0.6549
  277MOL0     N36483   8.067   7.592   5.966  0.5387  0.0410  0.6928
  277MOL0     C36484   8.996   8.020   5.402  0.0500  0.4989 -0.3692
  277MOL0     C36485   9.083   7.965   5.312 -0.4844 -0.6702 -0.3459
  277MOL0     C36486   9.269   7.703   5.007  0.9322 -0.0878 -0.8342
  277MOL0     C36487   9.306   7.783   4.896  0.5099  0.7851  1.2790
  277MOL0     C36488   9.374   7.726   4.785 -0.0605 -0.6236  0.8602
  277MOL0     C36489   9.419   7.593   4.791  0.0650  0.4468  0.0467
  277MOL0     O36490   9.498   7.540   4.686  0.3238 -0.5410 -0.7433
  277MOL0     C36491   9.608   7.457   4.732  0.3337  0.0419  0.3601
  277MOL0     C36492   9.729   7.477   4.645  0.2241 -0.4549  0.7254
  277MOL0     C36493   9.721   7.398   4.512  0.1179  0.2019  0.3394
  277MOL0     C36494   9.626   7.468   4.412 -0.0744  0.7133  0.0804
  277MOL0     C36495   9.558   7.367   4.332 -0.6409 -0.2754 -0.3531
  277MOL0     C36496   9.513   7.268   4.268  0.5808  0.0910  0.6203
  277MOL0     C36497   9.385   7.514   4.898 -0.0138  0.0784 -0.2111
  277MOL0     C36498   9.317   7.573   5.015 -0.1369 -0.4158  0.1889
  277MOL0     H36499   8.903   8.005   5.033 -0.4068  1.7461  0.4725
  277MOL0     H36500   8.760   8.137   5.196 -1.4241 -0.8740  1.0165
  277MOL0     H36501   8.788   8.282   5.596 -0.8000 -0.2994 -1.6298
  277MOL0     H36502   8.938   8.199   5.568  0.8689 -0.5063 -0.9818
  277MOL0     H36503   8.829   8.132   5.778  0.7508  0.0840 -0.0500
  277MOL0     H36504   8.837   8.002   5.657  0.0686  0.2951 -1.6406
  277MOL0     H36505   8.589   8.042   5.608 -1.6748 -0.3514  1.6006
  277MOL0     H36506   8.596   8.183   5.712 -1.2812  0.2424 -2.3910
  277MOL0     H36507   8.646   7.912   5.836 -0.0815 -0.4622  1.3679
  277MOL0     H36508   8.612   8.064   5.916  0.4889 -1.4778  0.7882
  277MOL0     H36509   8.418   7.904   5.736  0.9203 -0.3122  0.7847
  277MOL0     H36510   8.381   8.063   5.794  0.5465 -0.9198 -3.2754
  277MOL0     H36511   8.390   7.984   6.028 -2.3470 -1.6870  1.7608
  277MOL0     H36512   8.468   7.833   5.978  0.8109  0.4748 -2.0976
  277MOL0     H36513   8.181   7.922   5.887 -1.6552 -3.4766 -1.2785
  277MOL0     H36514   8.267   7.763   5.861  0.6988 -0.1310 -0.7994
  277MOL0     H36515   8.159   7.879   6.119  1.4172 -1.7177  1.7316
  277MOL0     H36516   8.266   7.734   6.089 -0.3801 -2.2218 -1.6661
  277MOL0     H36517   7.910   7.846   6.091 -2.3185 -0.5246 -0.9268
  277MOL0     H36518   7.690   7.626   5.864 -0.9661  0.9626  0.5780
  277MOL0     H36519   7.681   7.777   5.961 -1.1552 -0.6365  1.8396
  277MOL0     H36520   7.652   7.623   6.159 -3.2037  1.5038  0.9339
  277MOL0     H36521   7.633   7.493   6.036  1.6294  0.8570  0.1268
  277MOL0     H36522   7.468   7.747   6.044  2.8741  0.1440  2.3528
  277MOL0     H36523   7.444   7.606   5.934  0.0364  1.2237 -1.0360
  277MOL0     H36524   7.413   7.630   6.225 -0.0102 -0.3599 -0.0145
  277MOL0     H36525   7.417   7.468   6.137  0.8336 -0.1240  1.6206
  277MOL0     H36526   7.018   7.499   6.034  0.6235 -1.2159  0.9694
  277MOL0     H36527   6.821   7.476   6.189 -0.2437  0.5710 -1.6935
  277MOL0     H36528   6.608   7.661   6.572 -0.5238  1.0290 -0.7715
  277MOL0     H36529   6.381   7.658   6.661 -1.4780  0.1943 -0.7138
  277MOL0     H36530   6.141   7.657   6.606 -1.3636  0.1711  0.3137
  277MOL0     H36531   6.197   7.599   6.770  1.7199  1.9240 -1.3578
  277MOL0     H36532   5.991   7.464   6.792 -0.0995 -1.5761  0.2795
  277MOL0     H36533   5.946   7.500   6.620 -1.4099  0.1680  0.7417
  277MOL0     H36534   5.920   7.735   6.670  1.7476  1.4882  0.9140
  277MOL0     H36535   5.994   7.724   6.833 -1.4300 -1.2774  1.2044
  277MOL0     H36536   5.800   7.601   6.913 -1.8737  0.0908 -0.6381
  277MOL0     H36537   5.747   7.750   6.840  0.1491 -0.0427  1.7008
  277MOL0     H36538   5.603   7.550   6.794  0.1248 -1.6367 -1.3621
  277MOL0     H36539   5.731   7.471   6.722 -1.7847 -0.4475 -0.6154
  277MOL0     H36540   5.713   7.660   6.536 -0.2080 -0.2864 -0.8248
  277MOL0     H36541   5.638   7.758   6.664  2.3377  0.8938 -1.0870
  277MOL0     H36542   5.509   7.526   6.505 -1.3987 -0.0727  0.0742
  277MOL0     H36543   5.442   7.583   6.656 -0.2276 -0.4142 -0.9531
  277MOL0     H36544   5.360   7.681   6.420 -1.2991  3.4280 -0.8410
  277MOL0     H36545   5.521   7.747   6.404 -1.4000 -1.9870 -1.9012
  277MOL0     H36546   6.291   7.295   6.445 -1.8168  2.1294 -0.2294
  277MOL0     H36547   6.534   7.297   6.355 -0.1135  0.5040 -1.8598
  277MOL0     H36548   7.073   7.608   6.512  4.8175  1.7719 -0.7596
  277MOL0     H36549   7.253   7.655   6.346 -1.4233  0.8735 -0.4257
  277MOL0     H36550   9.015   8.016   5.509  0.3203  0.1579 -0.4264
  277MOL0     H36551   9.169   7.908   5.347 -1.3814 -0.8169  1.7779
  277MOL0     H36552   9.256   7.879   4.888  0.4057  0.6841  0.6908
  277MOL0     H36553   9.402   7.792   4.704 -4.5737 -1.0128 -1.3296
  277MOL0     H36554   9.572   7.354   4.726 -2.3280  0.8569  1.0858
  277MOL0     H36555   9.638   7.493   4.832 -0.6024  0.8613  0.3630
  277MOL0     H36556   9.746   7.584   4.629 -1.6654 -0.2972 -0.4057
  277MOL0     H36557   9.813   7.443   4.707 -0.5982 -0.8227  1.6622
  277MOL0     H36558   9.670   7.305   4.540 -0.8521  0.4935 -0.4161
  277MOL0     H36559   9.817   7.382   4.462 -0.2380  1.0394 -0.6453
  277MOL0     H36560   9.552   7.532   4.461  1.3841  3.0671 -0.5969
  277MOL0     H36561   9.684   7.530   4.342  1.3624 -0.4355  0.2094
  277MOL0     H36562   9.465   7.202   4.199 -1.0955  3.0038 -1.2269
  277MOL0     H36563   9.420   7.412   4.906  1.2388  0.3330 -1.9572
  277MOL0     H36564   9.283   7.514   5.100 -3.2560  1.0090  0.0735
  278MOL0     O36565   8.504  10.697   1.267  0.2695  0.7518  0.2427
  278MOL0     C36566   8.585  10.789   1.274 -0.7285  0.8271  0.1500
  278MOL0     O36567   8.549  10.921   1.292  0.4627  0.0654 -0.4985
  278MOL0     C36568   8.418  10.958   1.279  0.0513  0.2684  0.8158
  278MOL0     C36569   8.354  11.021   1.382  0.1308 -0.7143  0.1655
  278MOL0     C36570   8.220  11.064   1.383 -0.6028  0.5183  0.2314
  278MOL0     C36571   8.148  11.053   1.265  0.2866  0.1179 -0.4588
  278MOL0     O36572   8.019  11.087   1.244  0.0688  0.1114  0.0985
  278MOL0     C36573   7.942  11.159   1.350 -0.2717  0.5662 -0.4761
  278MOL0     C36574   7.815  11.207   1.278 -0.2195  0.5274  0.5971
  278MOL0     C36575   7.734  11.311   1.358  0.6839 -0.5432 -0.4979
  278MOL0     C36576   7.650  11.249   1.468  0.8425  0.4402  0.5192
  278MOL0     C36577   7.581  11.364   1.540  0.1477  0.1659  0.2764
  278MOL0     C36578   7.477  11.306   1.635  0.5371 -0.6619 -0.3599
  278MOL0     C36579   7.446  11.427   1.729  0.0112  0.4677  0.5347
  278MOL0     C36580   7.316  11.404   1.798  0.1608  0.4400  0.3483
  278MOL0     N36581   7.200  11.399   1.703  0.4763  0.2817 -0.1363
  278MOL0     C36582   7.139  11.500   1.644  0.8310  0.4838 -1.1979
  278MOL0     C36583   7.034  11.448   1.573 -0.2313  0.0656 -0.5244
  278MOL0     C36584   6.929  11.514   1.489  0.0096  0.5122  0.1521
  278MOL0     C36585   6.797  11.535   1.561 -0.5047 -0.2063  0.6204
  278MOL0     C36586   6.806  11.674   1.638 -0.1108 -0.4500  0.5068
  278MOL0     C36587   6.662  11.694   1.695  0.3872 -0.6794  0.6871
  278MOL0     O36588   6.555  11.712   1.601  0.1811 -0.2464  0.1061
  278MOL0     C36589   6.425  11.706   1.651 -0.3271 -0.3159  0.4452
  278MOL0     C36590   6.318  11.729   1.553  0.1001  0.0940 -0.3692
  278MOL0     C36591   6.186  11.738   1.602  0.2238  0.9297  0.4952
  278MOL0     C36592   6.141  11.708   1.729  0.0869 -0.0194 -0.6672
  278MOL0     C36593   6.008  11.722   1.779  0.0976 -0.4496  1.5865
  278MOL0     O36594   5.915  11.743   1.673 -0.5389 -0.1783  0.2253
  278MOL0     C36595   5.782  11.757   1.689 -0.1124  0.1025  1.0168
  278MOL0     C36596   5.702  11.729   1.796 -0.1103 -0.2072 -0.2797
  278MOL0     C36597   5.567  11.754   1.796  0.2353  0.6661 -0.2223
  278MOL0     C36598   5.512  11.821   1.682 -0.4992  0.4164 -1.1434
  278MOL0     O36599   5.386  11.875   1.674 -0.9117 -0.7500 -0.2515
  278MOL0     C36600   5.318  11.881   1.797  0.4609 -0.4144 -0.0495
  278MOL0     C36601   5.183  11.946   1.764 -0.3010 -0.6589  0.7444
  278MOL0     C36602   5.091  11.959   1.878 -0.5912  0.3423 -0.1749
  278MOL0     C36603   4.958  12.024   1.845  0.5895  0.0863 -0.5772
  278MOL0     C36604   4.870  12.026   1.970  0.3315 -0.0161  0.3774
  278MOL0     C36605   4.749  12.118   1.938  0.6283  0.0500 -0.5501
  278MOL0     C36606   4.631  12.079   2.017  0.1193 -0.3581  0.0831
  278MOL0     C36607   4.503  12.155   1.981  0.3058  0.2208  0.9821
  278MOL0    Cl36608   4.362  12.043   2.020  0.2466  0.1825  0.1816
  278MOL0     C36609   5.589  11.830   1.566  0.6047  0.5113 -0.2671
  278MOL0     C36610   5.719  11.792   1.564  0.6335 -0.1224 -0.8845
  278MOL0     O36611   5.986  11.712   1.901  0.4149 -0.5113 -0.3997
  278MOL0     C36612   6.250  11.673   1.824  0.7429 -0.4940  0.4528
  278MOL0     C36613   6.385  11.677   1.784  0.0820  0.1082 -0.6282
  278MOL0     N36614   7.044  11.307   1.579 -0.0862 -0.1297  0.0139
  278MOL0     N36615   7.140  11.288   1.663  0.5568 -0.1676  0.7400
  278MOL0     C36616   8.210  10.991   1.152  0.5853  0.7167  0.4603
  278MOL0     C36617   8.346  10.948   1.154  0.1425  0.5199 -0.1555
  278MOL0     C36618   8.731  10.754   1.283 -0.7021 -0.2743  0.1525
  278MOL0     C36619   8.764  10.624   1.330  0.4027 -0.2943  0.0896
  278MOL0     C36620   8.901  10.591   1.346  0.2816 -0.1212 -0.1648
  278MOL0     C36621   9.009  10.669   1.307  0.6775  0.2491 -0.0781
  278MOL0     O36622   9.139  10.638   1.317 -0.2214  0.4220  0.1233
  278MOL0     C36623   9.170  10.529   1.411 -0.6672  0.9846 -0.2191
  278MOL0     C36624   9.308  10.556   1.477 -0.2817  0.8618  0.8485
  278MOL0     C36625   9.406  10.616   1.379 -0.9968 -0.0721  0.6845
  278MOL0     C36626   9.553  10.629   1.445  0.4410 -0.7216  0.5575
  278MOL0     C36627   9.551  10.741   1.547  0.0765 -0.3483  0.8250
  278MOL0     C36628   9.552  10.845   1.610  0.6321  0.8849  0.2500
  278MOL0     C36629   8.974  10.793   1.255  0.2533  0.5931  0.2588
  278MOL0     C36630   8.844  10.837   1.238  0.4985 -0.3510 -0.1931
  278MOL0     H36631   8.411  11.030   1.473  3.7464 -3.2574 -1.5905
  278MOL0     H36632   8.184  11.106   1.476  1.5236  0.6603  1.0492
  278MOL0     H36633   8.007  11.245   1.371  2.3199 -1.2227 -0.6418
  278MOL0     H36634   7.930  11.092   1.435 -1.3853  1.4362  0.0798
  278MOL0     H36635   7.756  11.120   1.247  1.6855 -0.1173 -1.4578
  278MOL0     H36636   7.846  11.253   1.184 -0.8155 -2.9299 -1.4835
  278MOL0     H36637   7.665  11.357   1.287  2.2116 -0.0003 -1.6825
  278MOL0     H36638   7.802  11.381   1.406 -0.4330 -1.0171  1.9387
  278MOL0     H36639   7.579  11.176   1.429 -1.4252  2.1821  1.1924
  278MOL0     H36640   7.716  11.196   1.536  0.5030  0.6292  1.0018
  278MOL0     H36641   7.529  11.432   1.472  0.3210  0.9333  0.8879
  278MOL0     H36642   7.662  11.417   1.592  1.1632 -2.2461  1.2891
  278MOL0     H36643   7.525  11.229   1.696  1.2521 -0.1840 -0.3077
  278MOL0     H36644   7.392  11.265   1.580 -1.7819  2.5412  0.5521
  278MOL0     H36645   7.531  11.432   1.798  0.1886 -0.3938  0.3982
  278MOL0     H36646   7.449  11.519   1.669 -0.6718 -1.3883 -2.6026
  278MOL0     H36647   7.296  11.489   1.865  2.1809  0.5370  0.8871
  278MOL0     H36648   7.310  11.311   1.856  1.5652 -0.4335 -0.8393
  278MOL0     H36649   7.158  11.605   1.662  2.2599 -0.0374  0.6946
  278MOL0     H36650   6.903  11.460   1.398 -1.1888 -0.6243  1.1288
  278MOL0     H36651   6.977  11.608   1.461  0.6497  0.2450  0.3494
  278MOL0     H36652   6.769  11.456   1.632 -1.6133  0.5899  1.0944
  278MOL0     H36653   6.712  11.536   1.493 -0.1241 -2.7583 -0.0010
  278MOL0     H36654   6.880  11.671   1.719  1.2880  0.5988 -0.6905
  278MOL0     H36655   6.831  11.755   1.569 -1.1657  1.1995  1.9662
  278MOL0     H36656   6.656  11.781   1.762 -2.0221 -1.7784  2.0238
  278MOL0     H36657   6.646  11.617   1.771  1.9211 -0.7879  0.9438
  278MOL0     H36658   6.334  11.758   1.450  0.4866  0.4966 -0.2008
  278MOL0     H36659   6.114  11.748   1.521  0.0599  1.9264  0.7567
  278MOL0     H36660   5.762  11.706   1.884 -0.8713  2.5202  1.0745
  278MOL0     H36661   5.507  11.739   1.885 -0.5670 -0.9785 -1.0063
  278MOL0     H36662   5.374  11.937   1.873 -0.2352 -0.5903  0.6115
  278MOL0     H36663   5.299  11.781   1.840  0.5256 -0.1853  0.5255
  278MOL0     H36664   5.136  11.915   1.670 -1.3538  2.4340  0.1344
  278MOL0     H36665   5.207  12.047   1.729  2.6108 -1.0726  1.2579
  278MOL0     H36666   5.149  12.019   1.949  4.7700 -0.7688 -3.0404
  278MOL0     H36667   5.065  11.859   1.916 -1.5924  1.2095  1.4956
  278MOL0     H36668   4.982  12.128   1.818 -0.2952  0.7743  1.1060
  278MOL0     H36669   4.905  11.972   1.764  1.1810 -0.3407 -0.6974
  278MOL0     H36670   4.929  12.068   2.051 -0.1857 -0.2733  0.8977
  278MOL0     H36671   4.838  11.924   1.994  2.5117 -0.7455  0.3766
  278MOL0     H36672   4.721  12.103   1.833  0.6102  0.2329 -0.5718
  278MOL0     H36673   4.774  12.221   1.963  1.6329 -0.6300  1.5001
  278MOL0     H36674   4.616  11.975   1.986  2.2076 -0.1223 -2.0273
  278MOL0     H36675   4.642  12.080   2.126  1.8884 -3.1816  0.0422
  278MOL0     H36676   4.512  12.168   1.873 -3.3104 -1.7491  0.2921
  278MOL0     H36677   4.492  12.249   2.037  0.6427  0.1247  1.2161
  278MOL0     H36678   5.547  11.871   1.474  1.3812 -0.2587 -0.9810
  278MOL0     H36679   5.775  11.813   1.473  2.8949  3.2271  1.0173
  278MOL0     H36680   6.220  11.643   1.924 -1.1782  2.6393  0.9486
  278MOL0     H36681   6.457  11.653   1.862 -3.5794 -2.9107  2.1573
  278MOL0     H36682   8.149  10.972   1.065  1.1102  0.1204  0.2150
  278MOL0     H36683   8.389  10.897   1.069  1.1221 -2.9577  2.2249
  278MOL0     H36684   8.691  10.551   1.365 -1.7684  0.8098 -1.9351
  278MOL0     H36685   8.925  10.498   1.396  1.9194  0.8850  1.0222
  278MOL0     H36686   9.178  10.437   1.352  1.3183  1.8785 -1.4198
  278MOL0     H36687   9.095  10.527   1.491 -2.0049  2.1083 -1.4132
  278MOL0     H36688   9.301  10.626   1.561  0.9276  1.1928  0.6915
  278MOL0     H36689   9.345  10.467   1.530 -2.3296  0.1702  1.2048
  278MOL0     H36690   9.370  10.709   1.336  2.9442  0.2490 -2.5095
  278MOL0     H36691   9.412  10.548   1.293  0.3876  1.0108 -0.1115
  278MOL0     H36692   9.576  10.533   1.493  2.5759 -0.9606 -0.7988
  278MOL0     H36693   9.624  10.662   1.369 -2.0057  3.6164 -0.1458
  278MOL0     H36694   9.540  10.929   1.676 -0.9577  0.2414  0.8340
  278MOL0     H36695   9.063  10.848   1.230  0.1243 -0.4224 -2.7980
  278MOL0     H36696   8.831  10.928   1.181 -2.0152  0.0455  0.8835
  279MOL0     O36697   0.459   4.564   1.613  0.0839  0.2350  0.1674
  279MOL0     C36698   0.450   4.468   1.696  0.1128  0.2556  0.0855
  279MOL0     O36699   0.335   4.424   1.752  0.1010 -0.0980  0.3581
  279MOL0     C36700   0.211   4.449   1.701  0.1984  1.1095  0.4197
  279MOL0     C36701   0.107   4.476   1.792 -0.1328  0.3627 -0.1977
  279MOL0     C36702  -0.024   4.508   1.747 -1.0536  0.3718  0.8102
  279MOL0     C36703  -0.054   4.506   1.607  0.4231  0.0361 -0.2003
  279MOL0     O36704  -0.184   4.513   1.557 -0.1132  0.1594 -0.1318
  279MOL0     C36705  -0.294   4.506   1.646 -0.2295 -0.9165  0.1235
  279MOL0     C36706  -0.422   4.500   1.568  0.3043 -0.0642 -0.2724
  279MOL0     C36707  -0.455   4.361   1.511 -0.0502 -0.0701  0.2613
  279MOL0     C36708  -0.610   4.353   1.472  1.1654 -0.3643 -0.0491
  279MOL0     C36709  -0.647   4.239   1.370  0.0883 -0.3133 -0.3617
  279MOL0     C36710  -0.790   4.204   1.363  0.5000  0.2520  0.3780
  279MOL0     C36711  -0.813   4.099   1.269  0.3262  0.7040  0.7580
  279MOL0     C36712  -0.945   4.105   1.208 -0.2899  0.3473  0.0531
  279MOL0     N36713  -1.060   4.112   1.301 -0.3179  0.0647  0.3984
  279MOL0     C36714  -1.098   4.225   1.365 -0.1587  1.1023  0.8330
  279MOL0     C36715  -1.193   4.189   1.450 -0.2827  0.6255  0.4250
  279MOL0     C36716  -1.265   4.293   1.535 -1.0080 -0.1206 -0.4881
  279MOL0     C36717  -1.381   4.361   1.463  0.2713  0.3369  0.4236
  279MOL0     C36718  -1.459   4.445   1.554  0.0393 -0.4718 -0.3655
  279MOL0     C36719  -1.577   4.529   1.490  0.1971  0.0923 -0.1751
  279MOL0     O36720  -1.637   4.452   1.382  0.7702  0.2136  0.3858
  279MOL0     C36721  -1.751   4.504   1.324 -0.1752  0.0948 -1.2135
  279MOL0     C36722  -1.766   4.634   1.285  0.5079 -0.2907 -0.5855
  279MOL0     C36723  -1.886   4.681   1.235 -0.9627  0.0822 -0.2662
  279MOL0     C36724  -1.996   4.599   1.208  0.8472  0.0108 -0.4983
  279MOL0     C36725  -2.125   4.649   1.154 -0.0844 -0.3222 -0.0903
  279MOL0     O36726  -2.217   4.552   1.126  0.3075  0.2978 -0.4226
  279MOL0     C36727  -2.321   4.596   1.044 -0.0273 -0.6310 -0.5568
  279MOL0     C36728  -2.452   4.562   1.074 -0.1308 -0.0740 -0.7907
  279MOL0     C36729  -2.562   4.611   0.998  0.0288  0.7994  0.8969
  279MOL0     C36730  -2.541   4.676   0.878  0.7729 -0.1626  0.6879
  279MOL0     O36731  -2.638   4.729   0.799  0.9445  0.3348 -0.5561
  279MOL0     C36732  -2.757   4.787   0.851  0.1878 -0.0165  0.8150
  279MOL0     C36733  -2.870   4.785   0.741 -0.1587 -0.1147 -0.3823
  279MOL0     C36734  -2.882   4.644   0.670 -0.2402  0.3961 -0.5189
  279MOL0     C36735  -3.011   4.645   0.586  0.0911 -0.4190 -0.3134
  279MOL0     C36736  -3.028   4.502   0.542 -0.3369  0.1308  0.5333
  279MOL0     C36737  -2.918   4.458   0.444 -0.4531  0.0820 -0.1094
  279MOL0     C36738  -2.971   4.336   0.362 -0.0076  0.0738  0.6263
  279MOL0     C36739  -2.868   4.251   0.291  0.6824 -0.0133  0.7629
  279MOL0    Cl36740  -2.768   4.159   0.406 -0.0781 -0.6824 -0.1155
  279MOL0     C36741  -2.413   4.701   0.842 -0.5547  0.3345  0.7369
  279MOL0     C36742  -2.298   4.661   0.921  0.2465 -0.2249  0.5030
  279MOL0     O36743  -2.142   4.772   1.145  0.3678  0.1617 -1.0241
  279MOL0     C36744  -1.973   4.465   1.247 -0.3977  0.0614  0.7128
  279MOL0     C36745  -1.848   4.418   1.297 -0.2431  0.5360 -0.1920
  279MOL0     N36746  -1.229   4.060   1.420 -0.2728  0.5706  0.3953
  279MOL0     N36747  -1.141   4.010   1.338  0.0779  0.1078 -0.0042
  279MOL0     C36748   0.049   4.483   1.519  0.6548 -1.2027 -0.2658
  279MOL0     C36749   0.177   4.454   1.564  0.0775  0.2998 -0.3794
  279MOL0     C36750   0.574   4.411   1.742 -0.9160  0.6766 -0.1161
  279MOL0     C36751   0.575   4.313   1.845  0.6153  0.2972 -0.2160
  279MOL0     C36752   0.688   4.251   1.884 -0.6286 -0.4813  0.2417
  279MOL0     C36753   0.807   4.287   1.832 -0.1788 -0.0879  0.5166
  279MOL0     O36754   0.912   4.210   1.884 -0.6002 -0.1361  0.7074
  279MOL0     C36755   1.048   4.271   1.872  0.3898 -0.0540 -0.4890
  279MOL0     C36756   1.069   4.390   1.960 -0.4174  0.0595  0.0576
  279MOL0     C36757   1.195   4.463   1.928 -0.4373  0.1148 -0.2370
  279MOL0     C36758   1.224   4.581   2.024 -0.8117  0.2031 -0.2004
  279MOL0     C36759   1.345   4.649   1.989  0.1384  0.4701  0.1222
  279MOL0     C36760   1.442   4.710   1.955  0.1831  1.1233 -0.2054
  279MOL0     C36761   0.818   4.391   1.729 -0.1586 -0.0921 -0.2494
  279MOL0     C36762   0.698   4.451   1.691  0.3899 -0.6218  0.1921
  279MOL0     H36763   0.132   4.478   1.897 -3.7562  1.9621  0.8137
  279MOL0     H36764  -0.103   4.526   1.820  0.9375 -0.8803  3.4103
  279MOL0     H36765  -0.291   4.589   1.717 -1.4031  0.0345 -0.8946
  279MOL0     H36766  -0.290   4.416   1.707  0.4582  0.4720  2.2617
  279MOL0     H36767  -0.425   4.582   1.495  1.9236 -0.5939 -0.9676
  279MOL0     H36768  -0.508   4.534   1.628  0.5408  0.1103 -0.0277
  279MOL0     H36769  -0.431   4.276   1.576 -2.2772 -0.4365  0.6891
  279MOL0     H36770  -0.402   4.345   1.417  1.4173 -0.5663  1.1316
  279MOL0     H36771  -0.660   4.341   1.568 -1.4378  0.3797 -1.2355
  279MOL0     H36772  -0.644   4.442   1.419 -0.1874 -0.3335  0.8313
  279MOL0     H36773  -0.585   4.152   1.396  3.4452  2.5042  2.0609
  279MOL0     H36774  -0.621   4.281   1.273  0.7964  0.1478  0.0201
  279MOL0     H36775  -0.848   4.292   1.333 -1.0383  0.8191  4.2807
  279MOL0     H36776  -0.823   4.182   1.465  1.9137 -0.0937  0.7795
  279MOL0     H36777  -0.746   4.105   1.183  1.7918 -0.0413  1.8117
  279MOL0     H36778  -0.811   4.000   1.315 -4.1805  1.0741  2.2938
  279MOL0     H36779  -0.945   4.011   1.152  1.1234 -1.2116  2.4825
  279MOL0     H36780  -0.946   4.187   1.136  1.7972  0.9829  0.6814
  279MOL0     H36781  -1.051   4.321   1.345 -0.9077  1.3965  0.4284
  279MOL0     H36782  -1.197   4.372   1.567 -0.0934 -0.5640 -1.2611
  279MOL0     H36783  -1.297   4.227   1.616 -0.1082 -0.5143 -0.4347
  279MOL0     H36784  -1.444   4.291   1.407  0.1949  1.1786 -0.5861
  279MOL0     H36785  -1.342   4.433   1.391 -0.1442 -2.3385 -2.7511
  279MOL0     H36786  -1.512   4.373   1.617 -1.5807 -0.1804 -1.3490
  279MOL0     H36787  -1.399   4.514   1.614 -1.0637 -1.7696  2.4083
  279MOL0     H36788  -1.534   4.623   1.454 -1.8650  1.1183 -0.1067
  279MOL0     H36789  -1.648   4.561   1.567 -0.0467 -1.8095  0.4298
  279MOL0     H36790  -1.700   4.718   1.306  0.0077 -0.2275  0.8478
  279MOL0     H36791  -1.891   4.786   1.206 -0.3782  0.4108  0.7771
  279MOL0     H36792  -2.460   4.508   1.168 -1.7870  3.7305  1.4540
  279MOL0     H36793  -2.665   4.585   1.020  0.2312  1.8377  3.2909
  279MOL0     H36794  -2.742   4.893   0.873  2.1398  0.3009 -1.6269
  279MOL0     H36795  -2.792   4.734   0.940 -0.1038 -0.7155  0.2913
  279MOL0     H36796  -2.855   4.861   0.663 -1.7716  0.3178 -0.2922
  279MOL0     H36797  -2.960   4.804   0.800 -0.2238  0.3185 -0.6160
  279MOL0     H36798  -2.887   4.562   0.742  0.2772 -2.4022 -3.4161
  279MOL0     H36799  -2.798   4.619   0.604 -1.2905 -2.8389 -0.7766
  279MOL0     H36800  -3.097   4.676   0.647  1.8942  1.0591  1.6419
  279MOL0     H36801  -2.995   4.715   0.503  2.1326 -0.9657 -0.4448
  279MOL0     H36802  -3.124   4.501   0.490 -0.0881  1.5579  0.0074
  279MOL0     H36803  -3.035   4.430   0.625 -0.3821 -1.6811 -0.9807
  279MOL0     H36804  -2.831   4.430   0.505 -0.4906 -2.5664 -1.1501
  279MOL0     H36805  -2.884   4.534   0.374  5.6605 -0.4872  1.6575
  279MOL0     H36806  -3.032   4.275   0.429 -1.4673  2.7269  1.8930
  279MOL0     H36807  -3.042   4.365   0.284 -0.9665 -1.3784  0.9245
  279MOL0     H36808  -2.825   4.314   0.213 -1.2776 -0.8212 -1.0601
  279MOL0     H36809  -2.930   4.179   0.236  1.1346 -0.1221  0.3902
  279MOL0     H36810  -2.408   4.749   0.745  0.7374  1.8182  1.4935
  279MOL0     H36811  -2.196   4.677   0.888 -0.2934  2.3095 -0.1812
  279MOL0     H36812  -2.046   4.385   1.234 -1.4007  0.8710  1.2292
  279MOL0     H36813  -1.853   4.316   1.333 -0.8881  0.7299  0.2839
  279MOL0     H36814   0.032   4.492   1.412  0.5534  1.0739 -0.0931
  279MOL0     H36815   0.263   4.432   1.501  0.8742  0.3980  0.6519
  279MOL0     H36816   0.480   4.289   1.890  0.7690  1.5094  0.8238
  279MOL0     H36817   0.669   4.178   1.962  0.9665 -1.0717  0.0928
  279MOL0     H36818   1.080   4.289   1.769  1.2991 -0.6889 -0.3352
  279MOL0     H36819   1.120   4.201   1.916 -1.2707 -0.7318  1.3155
  279MOL0     H36820   0.988   4.462   1.950  1.2806  2.1501  0.5193
  279MOL0     H36821   1.073   4.343   2.059 -1.3405 -3.4828 -1.4439
  279MOL0     H36822   1.209   4.496   1.824  5.5497  1.2265  0.5506
  279MOL0     H36823   1.276   4.392   1.946  0.2039  0.9082  0.0493
  279MOL0     H36824   1.131   4.638   2.013 -1.1668 -0.2653  0.3106
  279MOL0     H36825   1.229   4.542   2.126 -0.3875 -0.9661 -0.6412
  279MOL0     H36826   1.533   4.759   1.925 -1.0524  1.1033 -4.8778
  279MOL0     H36827   0.918   4.422   1.701 -0.7274  2.5317  0.3860
  279MOL0     H36828   0.700   4.519   1.607 -2.8670 -0.5712  0.0303
  280MOL0     O36829   6.569   6.226   1.003 -0.4144  0.8594  0.1182
  280MOL0     C36830   6.650   6.161   1.069 -0.5842 -0.0237  0.0835
  280MOL0     O36831   6.633   6.114   1.194 -0.2287  0.9391 -0.0962
  280MOL0     C36832   6.504   6.117   1.243  0.3283 -0.1341 -0.7100
  280MOL0     C36833   6.417   6.010   1.267 -1.4072  0.4227  0.0246
  280MOL0     C36834   6.295   6.033   1.330  0.0924  1.0134 -0.1055
  280MOL0     C36835   6.238   6.158   1.349 -0.1926 -0.1894  0.1995
  280MOL0     O36836   6.115   6.180   1.407 -0.2733  0.5741 -0.0188
  280MOL0     C36837   6.046   6.068   1.460 -0.2179  0.6815 -0.2556
  280MOL0     C36838   5.908   6.114   1.524 -0.3905  0.9792 -0.2466
  280MOL0     C36839   5.837   5.993   1.571  0.0378  0.3450  1.0009
  280MOL0     C36840   5.710   6.034   1.658 -0.9394 -0.4360  0.4635
  280MOL0     C36841   5.626   5.908   1.688 -0.8280 -0.5899  0.4839
  280MOL0     C36842   5.521   5.935   1.788  1.0519 -0.1164 -0.5378
  280MOL0     C36843   5.406   5.833   1.803 -0.0905 -0.0673  0.6244
  280MOL0     C36844   5.300   5.851   1.697  0.7498 -0.2165  0.7420
  280MOL0     N36845   5.167   5.774   1.710 -0.1137  0.3797 -0.8837
  280MOL0     C36846   5.059   5.769   1.619  0.4944  0.4327  0.0650
  280MOL0     C36847   4.970   5.686   1.686  0.3759  0.6994 -1.3752
  280MOL0     C36848   4.841   5.632   1.644  0.9579  0.0917  1.1972
  280MOL0     C36849   4.802   5.486   1.674 -0.0176 -0.3355  0.1034
  280MOL0     C36850   4.660   5.467   1.632  0.4208 -0.5915  0.5740
  280MOL0     C36851   4.613   5.325   1.648 -0.9709  0.1590 -0.0527
  280MOL0     O36852   4.494   5.296   1.576  0.1740 -0.2893  0.1568
  280MOL0     C36853   4.369   5.333   1.622  0.0888  0.1332 -0.6810
  280MOL0     C36854   4.257   5.285   1.553  0.3377 -0.1405 -0.0337
  280MOL0     C36855   4.121   5.311   1.602 -0.3745  0.4707 -0.2658
  280MOL0     C36856   4.099   5.392   1.722 -0.0846  0.4869  0.2590
  280MOL0     C36857   3.965   5.420   1.780  0.2628 -0.8331 -0.0213
  280MOL0     O36858   3.964   5.513   1.877  0.2396  0.3463 -0.1757
  280MOL0     C36859   3.845   5.553   1.939  0.1136  0.0384 -0.4343
  280MOL0     C36860   3.765   5.459   2.002  1.0942  0.1700 -0.1011
  280MOL0     C36861   3.645   5.502   2.069 -0.5850  0.0822 -0.3218
  280MOL0     C36862   3.612   5.635   2.074  0.5660  0.3470 -0.0894
  280MOL0     O36863   3.497   5.679   2.148 -0.3054  0.3656 -0.0183
  280MOL0     C36864   3.439   5.809   2.129 -1.0249 -0.5628 -1.1173
  280MOL0     C36865   3.340   5.834   2.244 -0.2508  0.3417  0.0146
  280MOL0     C36866   3.227   5.731   2.237  0.6470  0.3060 -0.5447
  280MOL0     C36867   3.130   5.742   2.356 -0.7953  0.4627  0.7211
  280MOL0     C36868   3.039   5.616   2.358  0.0566 -0.3456  0.8930
  280MOL0     C36869   2.931   5.627   2.254 -0.2736  0.0929 -0.4315
  280MOL0     C36870   2.814   5.523   2.287  0.7780 -0.7742 -0.2141
  280MOL0     C36871   2.722   5.577   2.395  0.1230  0.5193  0.0398
  280MOL0    Cl36872   2.588   5.473   2.417  0.2485 -0.1800 -0.4263
  280MOL0     C36873   3.691   5.734   1.994  0.5008  0.6732  0.5831
  280MOL0     C36874   3.809   5.685   1.935  0.1868 -0.0366 -0.9505
  280MOL0     O36875   3.865   5.378   1.724 -0.0199  0.7207 -0.8477
  280MOL0     C36876   4.218   5.429   1.787  0.8023  0.5787  0.1696
  280MOL0     C36877   4.348   5.409   1.734 -0.0687  0.0089  0.1533
  280MOL0     N36878   5.027   5.655   1.811  0.3287 -0.1569  0.6635
  280MOL0     N36879   5.134   5.713   1.827 -0.3749 -0.4939  0.3334
  280MOL0     C36880   6.319   6.272   1.316 -0.7077  0.4307 -0.2182
  280MOL0     C36881   6.451   6.243   1.274  0.8741 -0.6476 -0.6226
  280MOL0     C36882   6.776   6.129   0.997 -0.5141 -0.0362  0.7214
  280MOL0     C36883   6.788   6.139   0.854 -0.7000 -0.0704 -0.1917
  280MOL0     C36884   6.912   6.111   0.795  0.6060  0.4874 -0.4040
  280MOL0     C36885   7.026   6.078   0.863 -0.6572  0.6240 -0.5487
  280MOL0     O36886   7.154   6.070   0.807 -0.1410  0.1581  0.5540
  280MOL0     C36887   7.253   5.981   0.867 -1.2333 -0.1511  0.9068
  280MOL0     C36888   7.238   5.829   0.844 -0.3991 -1.0478 -1.0525
  280MOL0     C36889   7.329   5.749   0.942  1.0810  0.1477 -0.1190
  280MOL0     C36890   7.470   5.750   0.890  0.1356 -0.5639  0.6099
  280MOL0     C36891   7.556   5.682   0.987 -0.3356 -0.2910  0.3586
  280MOL0     C36892   7.617   5.612   1.054 -0.0525 -0.7792 -0.6617
  280MOL0     C36893   7.010   6.071   1.004  0.2224 -0.1017 -0.1167
  280MOL0     C36894   6.891   6.099   1.069  0.8695  0.1911  0.4038
  280MOL0     H36895   6.461   5.914   1.241  1.5458  0.9999  2.2634
  280MOL0     H36896   6.240   5.944   1.356 -1.6915  2.2842  0.6844
  280MOL0     H36897   6.109   6.009   1.527  1.6988 -0.3918 -2.8379
  280MOL0     H36898   6.029   5.999   1.377 -0.6760 -0.8070  1.0278
  280MOL0     H36899   5.858   6.178   1.452 -0.7455  1.1265  0.1253
  280MOL0     H36900   5.927   6.184   1.606 -1.6165 -1.4460  2.2700
  280MOL0     H36901   5.893   5.919   1.628  1.7552  1.0442  0.2962
  280MOL0     H36902   5.800   5.940   1.482  2.6314  3.8214 -2.5032
  280MOL0     H36903   5.736   6.092   1.747 -2.1196  1.5094 -0.3991
  280MOL0     H36904   5.646   6.103   1.601  1.7276  2.3331  0.5895
  280MOL0     H36905   5.688   5.826   1.724  0.2876  1.0341  2.5247
  280MOL0     H36906   5.580   5.888   1.591  1.6449  0.6310 -1.0508
  280MOL0     H36907   5.472   6.029   1.759  1.0957  0.3790  0.9363
  280MOL0     H36908   5.557   5.954   1.889 -0.7991 -1.0628  0.3343
  280MOL0     H36909   5.446   5.733   1.784  1.2469  0.8153 -1.5802
  280MOL0     H36910   5.365   5.836   1.904  0.2834 -0.4775  0.7932
  280MOL0     H36911   5.347   5.817   1.605  0.8559  1.4274  0.1578
  280MOL0     H36912   5.270   5.956   1.690  1.1866 -0.0233  1.6251
  280MOL0     H36913   5.042   5.816   1.522 -2.7170 -0.0322  0.2703
  280MOL0     H36914   4.833   5.647   1.536 -1.6912  1.8268  1.5450
  280MOL0     H36915   4.770   5.697   1.696 -0.1375 -1.2028  1.3690
  280MOL0     H36916   4.814   5.477   1.782  3.6119 -1.5141 -0.2604
  280MOL0     H36917   4.870   5.422   1.618  1.0000  2.4124 -2.0738
  280MOL0     H36918   4.592   5.534   1.686 -2.7495 -0.7858 -2.7869
  280MOL0     H36919   4.642   5.483   1.526 -4.5507 -0.4933  1.1807
  280MOL0     H36920   4.597   5.293   1.751  0.8332 -2.3663 -0.4384
  280MOL0     H36921   4.697   5.262   1.617 -0.6627  0.7962 -0.5336
  280MOL0     H36922   4.286   5.209   1.481  0.6895 -1.4743  1.4466
  280MOL0     H36923   4.039   5.274   1.541 -0.4714  0.3406 -0.0566
  280MOL0     H36924   3.781   5.351   1.999  2.0051  0.3100 -0.5353
  280MOL0     H36925   3.594   5.425   2.125 -0.7971  1.0073  0.7818
  280MOL0     H36926   3.405   5.833   2.028 -0.2241  0.5308 -1.1414
  280MOL0     H36927   3.516   5.886   2.140  0.2937 -1.8498 -0.9616
  280MOL0     H36928   3.307   5.938   2.237  3.7696  1.8503  0.5063
  280MOL0     H36929   3.396   5.824   2.338  0.9611  1.1044 -0.6019
  280MOL0     H36930   3.260   5.627   2.233 -1.0155 -0.2187 -1.3886
  280MOL0     H36931   3.189   5.754   2.137 -2.9753 -0.3599  0.5389
  280MOL0     H36932   3.177   5.752   2.454  0.2870  1.4865  0.1259
  280MOL0     H36933   3.073   5.834   2.339 -0.4250  0.8400  1.4826
  280MOL0     H36934   3.005   5.600   2.461  2.5344  0.6617  1.9364
  280MOL0     H36935   3.101   5.527   2.342 -0.9985 -1.3532  2.1513
  280MOL0     H36936   2.970   5.605   2.154  2.5586 -1.8301  0.9598
  280MOL0     H36937   2.885   5.726   2.258 -2.4418 -0.8772  0.2534
  280MOL0     H36938   2.745   5.511   2.203 -0.0958  0.8579  0.2395
  280MOL0     H36939   2.854   5.426   2.320  1.0651  0.0039  1.8769
  280MOL0     H36940   2.694   5.681   2.377 -4.1426  0.0296  2.5768
  280MOL0     H36941   2.777   5.576   2.490 -0.1157  0.7249  0.1799
  280MOL0     H36942   3.645   5.827   1.963  2.3940  1.1936 -0.8842
  280MOL0     H36943   3.878   5.754   1.887 -0.6926  0.9172 -0.8824
  280MOL0     H36944   4.213   5.476   1.884  0.2968 -0.0758  0.4747
  280MOL0     H36945   4.432   5.452   1.787  0.4678 -0.4550 -0.3093
  280MOL0     H36946   6.272   6.368   1.333  2.9148  2.2300  0.6297
  280MOL0     H36947   6.512   6.333   1.267  1.8112 -1.1679  0.5478
  280MOL0     H36948   6.708   6.161   0.784  1.5639 -0.9017 -3.2408
  280MOL0     H36949   6.915   6.120   0.687  0.2187  1.4305 -0.3386
  280MOL0     H36950   7.250   5.993   0.975 -2.9017  0.7049  0.8087
  280MOL0     H36951   7.352   6.015   0.836 -0.8270 -1.9637  0.0722
  280MOL0     H36952   7.129   5.816   0.848 -0.8513  1.7433 -2.0692
  280MOL0     H36953   7.278   5.822   0.742  0.8742 -0.2978 -0.6129
  280MOL0     H36954   7.291   5.647   0.934 -3.1338  1.4738  0.5130
  280MOL0     H36955   7.331   5.785   1.045  2.3583  0.3551 -0.2015
  280MOL0     H36956   7.474   5.696   0.795  0.0565  1.8263 -0.8307
  280MOL0     H36957   7.504   5.852   0.868  0.1760 -0.7303 -0.1192
  280MOL0     H36958   7.663   5.555   1.132 -1.8015  2.5475  3.1543
  280MOL0     H36959   7.091   6.062   1.076 -1.8782 -1.9330  2.1544
  280MOL0     H36960   6.893   6.082   1.176  1.8085 -0.0958  0.3539
  281MOL0     O36961  10.238  10.597  10.029  0.2194  0.3669  0.3525
  281MOL0     C36962  10.246  10.473  10.034 -0.1370  0.0970  0.4147
  281MOL0     O36963  10.145  10.379  10.026 -0.5544 -0.1838  0.2233
  281MOL0     C36964  10.018  10.421  10.053 -0.1526  0.4821 -0.3087
  281MOL0     C36965   9.931  10.324  10.011  0.3566  0.0992  0.3658
  281MOL0     C36966   9.796  10.330  10.057  0.0301  0.1608 -0.5400
  281MOL0     C36967   9.752  10.434  10.136 -0.0012  0.3050 -0.8942
  281MOL0     O36968   9.613  10.451  10.149  1.0710  0.4968 -0.2386
  281MOL0     C36969   9.558  10.544  10.247  0.4010  0.1175  0.0178
  281MOL0     C36970   9.410  10.513  10.280  0.9380 -0.1619  0.2188
  281MOL0     C36971   9.324  10.541  10.154 -0.8042  0.4595 -0.4869
  281MOL0     C36972   9.177  10.505  10.181 -0.5248 -0.4652 -0.9123
  281MOL0     C36973   9.078  10.527  10.055 -0.0508 -0.0804 -0.5480
  281MOL0     C36974   8.936  10.485  10.110 -0.1086  0.3917 -0.1133
  281MOL0     C36975   8.830  10.481  10.000 -0.4741  0.8887  0.0604
  281MOL0     C36976   8.796  10.610   9.914  0.3195 -0.5761 -0.1863
  281MOL0     N36977   8.756  10.726  10.003 -0.0108  0.3999  0.0630
  281MOL0     C36978   8.839  10.792  10.085 -0.6229  0.8415  0.1348
  281MOL0     C36979   8.762  10.867  10.163  0.1068 -0.4649  0.1075
  281MOL0     C36980   8.805  10.950  10.281  0.1027  0.2830  0.4593
  281MOL0     C36981   8.784  10.882  10.419 -0.2288 -0.4709  0.5308
  281MOL0     C36982   8.867  10.759  10.438 -0.2295  1.2344 -0.0539
  281MOL0     C36983   9.012  10.803  10.469 -0.7941 -0.3437  0.2217
  281MOL0     O36984   9.087  10.822  10.345 -0.0792 -0.3464  0.6126
  281MOL0     C36985   9.222  10.837  10.376 -0.7378  0.1225 -0.8918
  281MOL0     C36986   9.291  10.847  10.500 -0.3623  0.4762 -1.1037
  281MOL0     C36987   9.431  10.875  10.503 -1.3151  0.6903 -0.3486
  281MOL0     C36988   9.503  10.884  10.378 -0.5961 -0.3973 -0.0283
  281MOL0     C36989   9.646  10.892  10.375 -0.0429  0.0287 -0.1935
  281MOL0     O36990   9.714  10.847  10.479  0.1140  0.8094 -0.1596
  281MOL0     C36991   9.851  10.836  10.465  1.0355  0.1760  0.3205
  281MOL0     C36992   9.937  10.948  10.463  0.3200  0.7262 -0.0792
  281MOL0     C36993  10.077  10.935  10.458 -0.4181 -0.5490 -0.1646
  281MOL0     C36994  10.135  10.808  10.428  0.0522 -0.0252  0.2696
  281MOL0     O36995  10.265  10.788  10.415 -0.4732 -0.6199 -0.3448
  281MOL0     C36996  10.373  10.885  10.435 -0.2301  0.1794  0.0166
  281MOL0     C36997  10.488  10.812  10.490 -0.1159 -0.1855 -1.2014
  281MOL0     C36998  10.504  10.854  10.643 -0.3011  0.2305 -0.0499
  281MOL0     C36999  10.587  10.753  10.720  0.1875  0.5730 -0.3281
  281MOL0     C37000  10.729  10.791  10.755 -0.3382 -0.1315  0.0215
  281MOL0     C37001  10.817  10.835  10.641 -0.1167 -0.1627 -0.3915
  281MOL0     C37002  10.927  10.924  10.695  0.5867 -0.1532 -0.2194
  281MOL0     C37003  11.050  10.920  10.620 -0.5513 -0.8501  0.0660
  281MOL0    Cl37004  11.062  11.076  10.519 -0.5364  0.0700  0.2410
  281MOL0     C37005  10.052  10.697  10.437  0.0870 -0.3932  0.6338
  281MOL0     C37006   9.916  10.712  10.457 -0.4380  0.5348 -0.0415
  281MOL0     O37007   9.693  10.952  10.279 -0.8955 -0.3871  0.2961
  281MOL0     C37008   9.430  10.887  10.257  0.5115 -1.0398 -0.1944
  281MOL0     C37009   9.293  10.852  10.256 -0.2057 -1.7622 -0.1598
  281MOL0     N37010   8.632  10.847  10.124  0.0551  0.1793  1.0296
  281MOL0     N37011   8.631  10.760  10.026 -1.2429 -0.7091  0.5510
  281MOL0     C37012   9.842  10.541  10.177  0.1335 -0.3412  0.2428
  281MOL0     C37013   9.980  10.526  10.131  0.3185 -0.2423  0.1553
  281MOL0     C37014  10.391  10.420  10.019  0.5545 -0.3965  0.6606
  281MOL0     C37015  10.496  10.507  10.039 -0.0672  0.6555  0.5104
  281MOL0     C37016  10.624  10.473   9.999 -0.2628 -0.6947  0.7725
  281MOL0     C37017  10.646  10.347   9.942  0.3121 -0.3357  0.4250
  281MOL0     O37018  10.773  10.309   9.900  0.3672 -1.3206  0.0379
  281MOL0     C37019  10.878  10.294  10.001  0.5728 -0.5632  0.9928
  281MOL0     C37020  11.015  10.329   9.938 -0.5928  0.2525 -1.2506
  281MOL0     C37021  11.126  10.297  10.034 -0.8062  0.8730 -1.1565
  281MOL0     C37022  11.265  10.288   9.976  0.3451  0.7793  0.2806
  281MOL0     C37023  11.276  10.209   9.852  0.3121 -0.3044  0.5343
  281MOL0     C37024  11.280  10.158   9.742  0.6087 -0.7473  0.6690
  281MOL0     C37025  10.538  10.260   9.914 -0.9034  0.0810 -0.5431
  281MOL0     C37026  10.411  10.297   9.956  0.8368  0.9552  0.2519
  281MOL0     H37027   9.963  10.248   9.941 -1.5297 -0.5994  0.1962
  281MOL0     H37028   9.724  10.251  10.037  0.0284 -0.1968  0.7599
  281MOL0     H37029   9.569  10.650  10.221 -0.5616 -0.2145 -1.9458
  281MOL0     H37030   9.613  10.528  10.340  0.0622  1.1807  0.4186
  281MOL0     H37031   9.387  10.583  10.362 -0.1290 -0.1078 -0.1165
  281MOL0     H37032   9.392  10.408  10.307 -3.1440 -0.4836 -2.7734
  281MOL0     H37033   9.370  10.490  10.069 -0.2780  2.1339 -1.2480
  281MOL0     H37034   9.322  10.645  10.122 -1.8783 -0.3625 -3.4690
  281MOL0     H37035   9.171  10.397  10.201  1.8137 -0.6621 -1.0316
  281MOL0     H37036   9.138  10.549  10.273 -4.5948 -1.9802 -1.6655
  281MOL0     H37037   9.105  10.468   9.968 -3.4162 -0.6387 -1.3610
  281MOL0     H37038   9.078  10.633  10.027  1.7136 -0.6867 -3.1494
  281MOL0     H37039   8.911  10.545  10.197 -1.0594 -0.9777  0.5858
  281MOL0     H37040   8.943  10.380  10.139  0.1548  0.4664  0.0937
  281MOL0     H37041   8.848  10.396   9.934  1.1050  0.8392  0.5036
  281MOL0     H37042   8.737  10.455  10.053  0.1116 -3.1247 -0.5979
  281MOL0     H37043   8.715  10.577   9.848  0.6655 -0.0720 -0.8806
  281MOL0     H37044   8.882  10.641   9.854  0.1982  0.3669  0.1189
  281MOL0     H37045   8.947  10.788  10.098 -0.7331 -0.7099  0.7655
  281MOL0     H37046   8.748  11.043  10.279 -0.1891  0.0988  0.0757
  281MOL0     H37047   8.910  10.971  10.258 -0.3306  1.3349 -0.6262
  281MOL0     H37048   8.678  10.861  10.440 -0.4069 -2.5111 -1.8537
  281MOL0     H37049   8.816  10.954  10.494  1.3491 -0.0395 -0.5132
  281MOL0     H37050   8.822  10.704  10.520 -1.9903 -1.4777 -2.6240
  281MOL0     H37051   8.854  10.697  10.348 -1.0997  4.8746 -2.6954
  281MOL0     H37052   9.063  10.720  10.521  1.1160 -1.4036 -3.0286
  281MOL0     H37053   9.016  10.898  10.522  2.0941 -0.4017  0.2893
  281MOL0     H37054   9.251  10.836  10.601  0.8485 -3.1678 -0.8921
  281MOL0     H37055   9.466  10.875  10.606  0.2059  0.2103 -0.8397
  281MOL0     H37056   9.893  11.047  10.468 -5.0590 -1.3599  2.0341
  281MOL0     H37057  10.140  11.023  10.466 -0.4473 -0.4713 -0.7059
  281MOL0     H37058  10.335  10.971  10.492  0.5513 -0.3154  1.3115
  281MOL0     H37059  10.389  10.926  10.335 -1.8509 -1.2307 -0.8669
  281MOL0     H37060  10.584  10.842  10.447  0.6645 -1.4248 -0.3805
  281MOL0     H37061  10.486  10.703  10.479 -1.9918 -0.5514  1.6905
  281MOL0     H37062  10.402  10.863  10.683 -0.2329 -2.5740  0.9378
  281MOL0     H37063  10.555  10.949  10.665 -1.0003  1.5503 -3.4131
  281MOL0     H37064  10.541  10.740  10.818  1.3952  1.1134  0.3122
  281MOL0     H37065  10.571  10.653  10.678  1.7872  0.9414 -1.9503
  281MOL0     H37066  10.785  10.717  10.812 -0.6156  0.4341  1.0627
  281MOL0     H37067  10.715  10.884  10.811 -0.8602  0.3492 -0.8887
  281MOL0     H37068  10.760  10.891  10.567 -1.8657 -0.4417  0.6996
  281MOL0     H37069  10.860  10.743  10.599 -2.3433 -1.1598 -0.6226
  281MOL0     H37070  10.886  11.023  10.717 -0.8901 -0.1606 -2.5680
  281MOL0     H37071  10.964  10.883  10.790  2.6052 -0.0791 -0.9206
  281MOL0     H37072  11.050  10.839  10.546  3.0519 -1.9069  1.0133
  281MOL0     H37073  11.140  10.911  10.681  0.8120 -0.8990 -1.8455
  281MOL0     H37074  10.100  10.600  10.427 -1.6584 -1.3397  1.0650
  281MOL0     H37075   9.852  10.630  10.488  1.8387 -0.2813  2.9384
  281MOL0     H37076   9.466  10.917  10.159 -1.7277 -0.4156 -0.8952
  281MOL0     H37077   9.246  10.847  10.159  0.3866  2.9180 -0.8794
  281MOL0     H37078   9.811  10.622  10.242  2.6010  0.1351  0.9069
  281MOL0     H37079  10.051  10.599  10.169 -0.2849  0.1799  0.5007
  281MOL0     H37080  10.483  10.605  10.083 -3.7970  1.0653 -1.0974
  281MOL0     H37081  10.713  10.534  10.007 -1.6968  1.6176 -0.0255
  281MOL0     H37082  10.877  10.191  10.039 -1.5692 -0.8572  0.2710
  281MOL0     H37083  10.869  10.358  10.089 -1.2312  3.0230 -1.5502
  281MOL0     H37084  11.025  10.272   9.846  3.4673  0.8571 -1.3713
  281MOL0     H37085  11.017  10.434   9.904  0.4544  0.8499  0.5311
  281MOL0     H37086  11.103  10.199  10.077 -2.0129  1.4529 -0.4309
  281MOL0     H37087  11.133  10.352  10.128 -1.2448 -2.0059  0.6883
  281MOL0     H37088  11.289  10.393   9.958  2.1168  0.2256 -0.7856
  281MOL0     H37089  11.338  10.261  10.052  0.8645  0.3552 -0.3654
  281MOL0     H37090  11.299  10.120   9.644  0.5833 -0.4557  0.5509
  281MOL0     H37091  10.564  10.172   9.856 -1.0300  1.1124 -2.2204
  281MOL0     H37092  10.325  10.245   9.916  1.9335 -1.4370  0.8552
  282MOL0     O37093   4.415   9.486   8.644  0.0697 -0.1012 -0.7702
  282MOL0     C37094   4.509   9.503   8.562 -0.5553  0.5513  0.6312
  282MOL0     O37095   4.506   9.581   8.449  0.0678 -0.8255 -0.3801
  282MOL0     C37096   4.382   9.636   8.411 -0.4046 -0.0764  0.4482
  282MOL0     C37097   4.318   9.603   8.290 -1.3148  0.6123  0.1647
  282MOL0     C37098   4.200   9.666   8.243 -1.1807  0.5335 -0.7247
  282MOL0     C37099   4.130   9.753   8.335  0.4413  0.1409 -0.2042
  282MOL0     O37100   4.026   9.837   8.299  1.2439  0.2238 -0.1347
  282MOL0     C37101   3.914   9.785   8.223 -0.1005 -0.1043  0.8198
  282MOL0     C37102   3.814   9.895   8.180 -0.4435  0.4282  0.5253
  282MOL0     C37103   3.682   9.844   8.130 -0.2545 -0.4326 -0.5613
  282MOL0     C37104   3.588   9.952   8.083  0.1252  0.4824 -0.9787
  282MOL0     C37105   3.441   9.901   8.071 -0.2174  0.5633 -0.0037
  282MOL0     C37106   3.362  10.016   8.014  0.2573  0.6573  0.0978
  282MOL0     C37107   3.215   9.979   7.967 -0.7532  0.0445 -0.7675
  282MOL0     C37108   3.120   9.945   8.086 -1.0545 -0.5567 -0.0138
  282MOL0     N37109   2.985   9.909   8.048  0.4056 -0.3323 -0.4643
  282MOL0     C37110   2.956   9.818   7.951  0.3073 -0.0002 -0.8315
  282MOL0     C37111   2.825   9.802   7.953  0.7330  0.9250  0.4001
  282MOL0     C37112   2.763   9.708   7.856 -0.7872 -0.2169 -0.5668
  282MOL0     C37113   2.749   9.576   7.923 -0.1918  0.4046 -0.2651
  282MOL0     C37114   2.709   9.474   7.817  0.1370  0.4976  0.8659
  282MOL0     C37115   2.700   9.329   7.869 -0.6429  0.3856 -0.1123
  282MOL0     O37116   2.666   9.244   7.766  0.1768  0.3501  0.5266
  282MOL0     C37117   2.537   9.210   7.746  0.8070  0.2633  0.1630
  282MOL0     C37118   2.431   9.271   7.809  0.6059  0.0217  0.0045
  282MOL0     C37119   2.292   9.230   7.790 -0.4892 -1.1035 -0.1778
  282MOL0     C37120   2.264   9.127   7.699  0.6768  0.0727 -0.4852
  282MOL0     C37121   2.124   9.095   7.677  0.7775  0.4695  0.1956
  282MOL0     O37122   2.029   9.147   7.766 -0.2597  0.0031  0.4119
  282MOL0     C37123   1.899   9.098   7.777  0.3319 -0.9749 -0.5795
  282MOL0     C37124   1.876   8.965   7.760 -0.2723  0.7058 -0.2551
  282MOL0     C37125   1.746   8.927   7.757 -0.2560  0.8990 -1.3652
  282MOL0     C37126   1.638   9.012   7.783  0.3099  0.3506  0.8617
  282MOL0     O37127   1.518   8.935   7.774 -0.2332  0.0998 -0.5064
  282MOL0     C37128   1.399   9.008   7.759 -0.0502  0.9056  0.1545
  282MOL0     C37129   1.379   9.054   7.617 -0.2346 -0.4467 -0.1150
  282MOL0     C37130   1.248   9.124   7.601 -0.4914  0.3069  0.0748
  282MOL0     C37131   1.219   9.142   7.449  0.1215  0.1074  0.7329
  282MOL0     C37132   1.070   9.185   7.430 -0.6407  0.2019  0.0202
  282MOL0     C37133   1.047   9.236   7.287 -0.2869 -0.8919  0.1210
  282MOL0     C37134   0.907   9.306   7.272 -0.7212 -0.0097  0.3094
  282MOL0     C37135   0.880   9.332   7.124  0.4454  0.5733  0.0072
  282MOL0    Cl37136   0.736   9.428   7.104  0.2107 -0.2857 -0.2068
  282MOL0     C37137   1.657   9.148   7.798  0.4403 -0.2250  0.3633
  282MOL0     C37138   1.793   9.198   7.796  0.0821  0.9389  0.2619
  282MOL0     O37139   2.101   9.021   7.580 -0.1834  0.6276  0.8351
  282MOL0     C37140   2.368   9.054   7.642 -0.0598 -0.0111  0.4252
  282MOL0     C37141   2.505   9.101   7.665 -0.6100 -0.7086 -0.0115
  282MOL0     N37142   2.763   9.881   8.050  0.7500 -0.8850 -0.5231
  282MOL0     N37143   2.865   9.948   8.100  0.4920 -0.1449  0.0055
  282MOL0     C37144   4.187   9.778   8.459  0.1363 -0.1474  0.5052
  282MOL0     C37145   4.309   9.719   8.495  0.7564  0.9018  0.2120
  282MOL0     C37146   4.651   9.465   8.602 -0.1020  0.9372 -0.6670
  282MOL0     C37147   4.765   9.492   8.525 -0.1476  0.6190 -0.8716
  282MOL0     C37148   4.890   9.451   8.581 -0.7804 -0.0068  0.7019
  282MOL0     C37149   4.900   9.397   8.711  0.3269 -0.1042  0.5206
  282MOL0     O37150   5.017   9.368   8.773 -1.1629  0.2053  0.4472
  282MOL0     C37151   5.135   9.442   8.730  0.0389 -1.0722  0.2723
  282MOL0     C37152   5.205   9.371   8.610 -0.3597  0.1831  0.9282
  282MOL0     C37153   5.351   9.422   8.598 -0.1498 -0.4153  0.2302
  282MOL0     C37154   5.354   9.566   8.557 -0.4919 -0.3390  0.5751
  282MOL0     C37155   5.487   9.579   8.503 -0.4150  0.8582 -0.0944
  282MOL0     C37156   5.600   9.581   8.462 -1.1308 -0.4589  0.1473
  282MOL0     C37157   4.784   9.377   8.782  0.4286  0.4627  0.2749
  282MOL0     C37158   4.664   9.403   8.722  0.0210 -0.3008 -0.4602
  282MOL0     H37159   4.382   9.554   8.217  1.4963  3.6460  0.3552
  282MOL0     H37160   4.174   9.654   8.139 -0.1999 -0.7745 -0.8363
  282MOL0     H37161   3.861   9.716   8.290 -0.2920 -1.0713 -0.3064
  282MOL0     H37162   3.954   9.743   8.131  0.3012  2.9096 -0.4765
  282MOL0     H37163   3.867   9.957   8.108  0.7535 -2.1842 -0.9701
  282MOL0     H37164   3.800   9.953   8.272  2.9211  0.2410  1.2947
  282MOL0     H37165   3.646   9.789   8.217  1.1362  2.7909  2.2899
  282MOL0     H37166   3.707   9.778   8.046 -0.7879  0.2208 -1.2490
  282MOL0     H37167   3.597  10.042   8.145 -1.3107  1.9746 -2.7906
  282MOL0     H37168   3.626   9.968   7.982 -0.0547 -2.1046 -1.5296
  282MOL0     H37169   3.418   9.860   8.170  2.1047 -1.0662 -0.0392
  282MOL0     H37170   3.444   9.824   7.993 -0.2500  0.8732 -0.3112
  282MOL0     H37171   3.412  10.060   7.927  2.0237  1.8260  1.6313
  282MOL0     H37172   3.364  10.099   8.085  2.2059 -1.0379  2.1726
  282MOL0     H37173   3.168  10.059   7.909 -0.6725  0.9345  0.3526
  282MOL0     H37174   3.227   9.899   7.893 -1.6801  1.0846 -2.1075
  282MOL0     H37175   3.113  10.017   8.168  1.7519  0.1754 -0.3309
  282MOL0     H37176   3.166   9.859   8.135 -0.1905  0.1965  0.5389
  282MOL0     H37177   3.034   9.768   7.894  1.3108 -0.7660  1.1321
  282MOL0     H37178   2.818   9.704   7.762 -1.6936 -2.4617 -1.0863
  282MOL0     H37179   2.661   9.739   7.831 -0.8022  0.2347  0.0410
  282MOL0     H37180   2.672   9.588   8.001 -0.5933  1.9750 -0.8627
  282MOL0     H37181   2.840   9.549   7.977  0.2085  0.4532 -0.9225
  282MOL0     H37182   2.612   9.509   7.782  0.2879  0.1034  0.0336
  282MOL0     H37183   2.780   9.475   7.733 -0.2411 -1.2064  0.4968
  282MOL0     H37184   2.649   9.323   7.966 -0.2820  1.3409  0.1463
  282MOL0     H37185   2.799   9.301   7.907 -1.8215 -1.5906  1.7305
  282MOL0     H37186   2.448   9.357   7.872 -1.6640  1.3501 -1.0486
  282MOL0     H37187   2.223   9.288   7.849  1.5269 -0.7138  1.9492
  282MOL0     H37188   1.951   8.890   7.739 -0.1703  1.2762 -2.0543
  282MOL0     H37189   1.721   8.823   7.737 -0.1084  0.2571  1.3342
  282MOL0     H37190   1.396   9.081   7.841 -0.9837 -0.7349  1.6521
  282MOL0     H37191   1.310   8.946   7.773  0.3803  0.7262  2.6177
  282MOL0     H37192   1.380   8.965   7.554 -1.5984  0.4025 -1.3984
  282MOL0     H37193   1.455   9.128   7.590 -0.1947 -0.3433  0.2842
  282MOL0     H37194   1.256   9.217   7.657  2.5578 -0.7676  1.6372
  282MOL0     H37195   1.171   9.060   7.646  0.9736  0.1865  2.5465
  282MOL0     H37196   1.287   9.219   7.412 -1.4914  0.9868 -0.5400
  282MOL0     H37197   1.242   9.046   7.403  2.0264  0.1709  1.4852
  282MOL0     H37198   1.034   9.252   7.508  2.7035  0.5944  1.3916
  282MOL0     H37199   1.026   9.085   7.439 -0.3541 -0.1506 -2.0456
  282MOL0     H37200   1.027   9.152   7.220  0.3761  0.6478 -2.1093
  282MOL0     H37201   1.133   9.293   7.252 -1.2588  1.2552  1.0085
  282MOL0     H37202   0.825   9.247   7.313 -0.6061  1.4181  2.8265
  282MOL0     H37203   0.915   9.402   7.325  1.6481  0.1657 -0.2661
  282MOL0     H37204   0.876   9.236   7.073  0.7283  0.3324  0.4326
  282MOL0     H37205   0.956   9.391   7.072  1.6816  1.0719  2.2311
  282MOL0     H37206   1.568   9.205   7.824 -0.0186 -2.0253  3.1679
  282MOL0     H37207   1.802   9.306   7.804 -2.2422  1.2195 -0.2714
  282MOL0     H37208   2.354   8.967   7.579  0.5327  1.1311 -1.3720
  282MOL0     H37209   2.586   9.045   7.618  0.5784 -0.6023  1.8082
  282MOL0     H37210   4.147   9.855   8.525 -0.4752 -0.4957  0.5578
  282MOL0     H37211   4.360   9.749   8.587 -3.3079 -0.3443  3.1440
  282MOL0     H37212   4.754   9.540   8.429  1.1876 -0.9374 -1.8581
  282MOL0     H37213   4.971   9.482   8.515 -1.4503 -0.9348 -0.6006
  282MOL0     H37214   5.196   9.441   8.821  0.4748  0.1210  0.0114
  282MOL0     H37215   5.110   9.547   8.714  0.1717 -1.1168 -0.2520
  282MOL0     H37216   5.205   9.263   8.628 -2.3100 -0.4531 -2.1732
  282MOL0     H37217   5.144   9.380   8.520  1.5530  0.9744 -0.3639
  282MOL0     H37218   5.388   9.355   8.520 -0.6453  0.3180 -0.6544
  282MOL0     H37219   5.406   9.417   8.692 -1.9494  2.5046  1.5709
  282MOL0     H37220   5.284   9.588   8.476 -0.0591 -0.0133  0.2861
  282MOL0     H37221   5.337   9.634   8.642  0.7149  1.0253 -0.2237
  282MOL0     H37222   5.701   9.585   8.426 -0.7727 -0.9352  1.0809
  282MOL0     H37223   4.783   9.342   8.885  0.8046 -0.1583  0.0746
  282MOL0     H37224   4.573   9.381   8.776  0.3999  1.2290  0.8458
  283MOL0     O37225  10.826   1.402   1.398  0.5415  0.0703  0.5184
  283MOL0     C37226  10.931   1.464   1.397 -0.2558 -0.3059  0.0275
  283MOL0     O37227  11.006   1.495   1.288 -0.2150 -0.5958  0.3956
  283MOL0     C37228  10.961   1.464   1.160 -0.2555 -0.3719 -0.1318
  283MOL0     C37229  10.950   1.333   1.132  0.2861  0.1639  0.0266
  283MOL0     C37230  10.923   1.286   1.005  0.2684  0.4532  0.9746
  283MOL0     C37231  10.888   1.376   0.908 -0.3101 -0.2724  0.5214
  283MOL0     O37232  10.863   1.326   0.784 -0.5299  0.0799  0.0683
  283MOL0     C37233  10.811   1.412   0.690 -0.4343  0.4099  0.9031
  283MOL0     C37234  10.776   1.314   0.578 -0.1574 -0.0041 -0.5391
  283MOL0     C37235  10.701   1.392   0.470  1.0413  0.2007 -0.7627
  283MOL0     C37236  10.618   1.311   0.371 -0.2512 -0.4706  0.1126
  283MOL0     C37237  10.589   1.384   0.232  1.1287  0.4791 -0.0977
  283MOL0     C37238  10.491   1.508   0.266  0.9217 -0.0744  0.2516
  283MOL0     C37239  10.467   1.585   0.138  0.4210 -0.3360  0.0100
  283MOL0     C37240  10.450   1.511   0.011 -0.4061 -0.2056 -0.3867
  283MOL0     N37241  10.386   1.583  -0.102 -0.0768  0.3096  0.0031
  283MOL0     C37242  10.251   1.567  -0.137 -0.8051 -0.5749  0.9077
  283MOL0     C37243  10.229   1.670  -0.227  0.1211  0.1474  0.7804
  283MOL0     C37244  10.089   1.677  -0.304  0.0934 -0.2122  0.7137
  283MOL0     C37245  10.116   1.683  -0.453 -0.8575  0.0003  1.3481
  283MOL0     C37246   9.984   1.706  -0.540 -0.5986  0.1234  0.6596
  283MOL0     C37247   9.858   1.626  -0.506  0.0838 -0.3999  0.5014
  283MOL0     O37248   9.776   1.614  -0.626  0.0496  0.4816  0.4071
  283MOL0     C37249   9.646   1.573  -0.602 -0.5048  0.1275  0.6447
  283MOL0     C37250   9.557   1.592  -0.710  0.2681  0.1248  0.1195
  283MOL0     C37251   9.427   1.541  -0.698 -1.0667  0.4933 -0.3981
  283MOL0     C37252   9.378   1.491  -0.575 -0.1621  0.0058  0.4854
  283MOL0     C37253   9.240   1.439  -0.577  0.3379  0.1594 -0.4140
  283MOL0     O37254   9.190   1.385  -0.465 -0.3404  0.3945 -0.0948
  283MOL0     C37255   9.060   1.338  -0.453  0.5041 -0.3764 -0.4767
  283MOL0     C37256   9.007   1.343  -0.326 -0.3562 -0.0819 -0.6475
  283MOL0     C37257   8.878   1.301  -0.292  0.3606  1.2907  0.4142
  283MOL0     C37258   8.803   1.240  -0.395  0.9739 -0.0973  0.1311
  283MOL0     O37259   8.670   1.212  -0.395  0.4662  0.6983  0.5837
  283MOL0     C37260   8.599   1.232  -0.276  0.0167 -0.2201 -0.7327
  283MOL0     C37261   8.445   1.189  -0.293 -0.4904 -1.3263 -0.2768
  283MOL0     C37262   8.362   1.222  -0.176  0.7164  0.6590  0.2213
  283MOL0     C37263   8.240   1.125  -0.182 -0.7077 -0.3916  0.5018
  283MOL0     C37264   8.138   1.153  -0.074  1.0889 -0.2770 -0.1112
  283MOL0     C37265   8.182   1.133   0.069 -0.1646  0.1634  0.3452
  283MOL0     C37266   8.072   1.178   0.173 -0.4221 -0.3522  0.1092
  283MOL0     C37267   7.969   1.057   0.204  0.7483  0.1463  0.3443
  283MOL0    Cl37268   7.875   0.999   0.052  0.6426  0.1944 -0.2915
  283MOL0     C37269   8.862   1.222  -0.521  0.2217 -0.4061  0.0430
  283MOL0     C37270   8.986   1.272  -0.555  0.1544  0.6505  0.4802
  283MOL0     O37271   9.182   1.461  -0.685 -0.0982  0.5490  0.8904
  283MOL0     C37272   9.466   1.471  -0.470 -0.0361  0.2658 -0.7504
  283MOL0     C37273   9.596   1.515  -0.482  0.0373 -0.0616  0.2604
  283MOL0     N37274  10.340   1.750  -0.239 -0.1306  0.3151 -0.6404
  283MOL0     N37275  10.428   1.703  -0.155 -0.1995 -0.1374 -0.4039
  283MOL0     C37276  10.892   1.518   0.938  0.0563  0.0608  0.4705
  283MOL0     C37277  10.913   1.562   1.068  0.5492  0.2708 -0.1729
  283MOL0     C37278  10.966   1.536   1.524 -0.3667  0.4807  0.6740
  283MOL0     C37279  11.091   1.606   1.529  0.5582  0.6224  0.4074
  283MOL0     C37280  11.123   1.681   1.640 -1.0930 -0.9448 -0.0899
  283MOL0     C37281  11.029   1.704   1.738 -0.2062 -0.0784 -1.3331
  283MOL0     O37282  11.055   1.786   1.845  0.6297 -0.5646  0.3054
  283MOL0     C37283  11.000   1.922   1.833  0.0628 -0.1131  0.3743
  283MOL0     C37284  10.926   1.952   1.968  0.7651  0.1261 -0.0557
  283MOL0     C37285  11.026   1.967   2.088 -0.0144  0.5896 -0.2287
  283MOL0     C37286  11.077   1.833   2.146 -0.1623  0.7228  0.7137
  283MOL0     C37287  11.099   1.833   2.288  0.2302 -0.8126  0.4859
  283MOL0     C37288  11.091   1.813   2.410  0.6977  0.0146  0.3731
  283MOL0     C37289  10.910   1.638   1.735 -0.1621  1.0093  0.1488
  283MOL0     C37290  10.876   1.549   1.632 -0.8784  0.9993  0.2970
  283MOL0     H37291  10.967   1.251   1.202 -1.4956  0.9663  1.5112
  283MOL0     H37292  10.928   1.184   0.968 -3.1716 -0.1320  1.8587
  283MOL0     H37293  10.871   1.499   0.662 -1.5059  0.7766 -0.3454
  283MOL0     H37294  10.715   1.453   0.722  0.5745  3.3806  0.4826
  283MOL0     H37295  10.712   1.233   0.616  0.3826 -0.2337 -0.0977
  283MOL0     H37296  10.866   1.265   0.539 -1.3098 -0.2803 -3.0747
  283MOL0     H37297  10.767   1.460   0.414  1.4373  1.7819  1.4867
  283MOL0     H37298  10.630   1.460   0.518 -0.4116 -1.9312  0.2658
  283MOL0     H37299  10.659   1.212   0.351 -2.9404 -2.5417  3.7385
  283MOL0     H37300  10.523   1.288   0.420  0.1983  0.8267  1.6854
  283MOL0     H37301  10.539   1.311   0.168 -2.2444  0.2472  2.5400
  283MOL0     H37302  10.677   1.421   0.179  1.2237  0.8051  0.2818
  283MOL0     H37303  10.549   1.580   0.324 -0.4127  1.5893 -0.3868
  283MOL0     H37304  10.395   1.484   0.314 -0.8273  0.3941 -2.7847
  283MOL0     H37305  10.383   1.651   0.164 -0.6634 -2.4177  2.0858
  283MOL0     H37306  10.563   1.636   0.127 -0.3381  1.0625 -0.5249
  283MOL0     H37307  10.371   1.436   0.027 -1.5652  0.9588 -0.4888
  283MOL0     H37308  10.546   1.465  -0.014 -1.4084 -2.1539 -0.8952
  283MOL0     H37309  10.179   1.499  -0.093  0.5162 -2.2929  0.4849
  283MOL0     H37310  10.036   1.767  -0.271  2.2072  0.3806  2.7198
  283MOL0     H37311  10.032   1.594  -0.261 -1.9409  2.0356  2.6483
  283MOL0     H37312  10.160   1.588  -0.484 -1.3466  0.1141  0.2422
  283MOL0     H37313  10.181   1.769  -0.473 -2.2557  1.3198  2.2728
  283MOL0     H37314   9.954   1.812  -0.540 -0.5374  0.2027 -1.7737
  283MOL0     H37315  10.004   1.691  -0.646 -3.5977  3.3548 -0.5634
  283MOL0     H37316   9.804   1.673  -0.423  0.0340  2.0216 -0.8103
  283MOL0     H37317   9.890   1.526  -0.473 -4.4894 -2.7030 -1.1723
  283MOL0     H37318   9.582   1.648  -0.800  0.2087  0.2757  0.1954
  283MOL0     H37319   9.368   1.562  -0.786  0.7400  1.8841 -1.3292
  283MOL0     H37320   9.061   1.365  -0.234 -1.5926  1.7780 -0.3002
  283MOL0     H37321   8.855   1.316  -0.187  0.4029 -0.1883  0.6592
  283MOL0     H37322   8.605   1.339  -0.256  1.6828 -0.9276  3.5113
  283MOL0     H37323   8.652   1.194  -0.188  2.4631  5.3494  0.6155
  283MOL0     H37324   8.460   1.081  -0.299 -0.1783 -1.2437 -1.1513
  283MOL0     H37325   8.393   1.220  -0.385 -0.7611 -1.7852 -0.2832
  283MOL0     H37326   8.336   1.329  -0.172  2.2717  1.0220  2.0019
  283MOL0     H37327   8.418   1.194  -0.086 -0.9532  2.4431  1.9207
  283MOL0     H37328   8.199   1.144  -0.281 -0.5734  1.5726  0.7880
  283MOL0     H37329   8.277   1.022  -0.185  0.4140 -0.0229  1.1892
  283MOL0     H37330   8.048   1.094  -0.095  1.0564 -0.4263  0.4215
  283MOL0     H37331   8.100   1.254  -0.087  0.8031 -0.2672  0.7150
  283MOL0     H37332   8.274   1.189   0.088 -0.3835  0.5878  0.1683
  283MOL0     H37333   8.206   1.027   0.080 -2.2992 -0.9900 -4.0386
  283MOL0     H37334   8.127   1.191   0.267 -0.3142  0.4602 -0.0661
  283MOL0     H37335   8.027   1.276   0.155  1.6001  1.0250  2.0397
  283MOL0     H37336   7.907   1.089   0.288  0.4359  3.1370 -0.9130
  283MOL0     H37337   8.029   0.977   0.250  1.0999  0.9011  1.2291
  283MOL0     H37338   8.795   1.186  -0.598 -0.1700 -2.1819  1.1603
  283MOL0     H37339   9.029   1.255  -0.654 -0.6369  1.0066  0.0671
  283MOL0     H37340   9.445   1.424  -0.375  3.4594  1.4775  0.7934
  283MOL0     H37341   9.669   1.481  -0.408  1.8205 -0.3774 -1.5631
  283MOL0     H37342  10.883   1.595   0.863  1.7908  0.7356  0.8931
  283MOL0     H37343  10.898   1.664   1.102 -2.0703 -0.4604  1.1065
  283MOL0     H37344  11.168   1.594   1.454  2.8170 -0.9770  2.8136
  283MOL0     H37345  11.221   1.725   1.655 -0.8123 -2.0375  1.5297
  283MOL0     H37346  10.930   1.918   1.749  3.3439 -0.3927 -2.5449
  283MOL0     H37347  11.079   1.993   1.812 -0.6400  0.7397  0.5590
  283MOL0     H37348  10.863   2.041   1.955 -1.7196 -1.5828 -0.2665
  283MOL0     H37349  10.849   1.877   1.986  1.0461 -0.1551 -0.0134
  283MOL0     H37350  10.978   2.027   2.165  1.5406  1.5454  0.0466
  283MOL0     H37351  11.110   2.030   2.056  2.6369 -2.0446  1.0473
  283MOL0     H37352  11.003   1.754   2.132  0.6552 -0.1339  1.1295
  283MOL0     H37353  11.159   1.805   2.079 -0.4721  0.2346  0.5286
  283MOL0     H37354  11.079   1.798   2.515 -0.0035 -0.3963  0.2393
  283MOL0     H37355  10.836   1.658   1.811 -2.9646 -1.2426 -1.7769
  283MOL0     H37356  10.776   1.509   1.624 -0.5677 -0.1878  1.9061
  284MOL0     O37357   6.950   0.492  10.373  0.0853  0.4934 -0.7354
  284MOL0     C37358   7.053   0.543  10.338  0.2717  0.4771  0.0673
  284MOL0     O37359   7.076   0.679  10.345  0.6730  0.1842  0.3325
  284MOL0     C37360   6.964   0.748  10.397 -0.8078 -0.5223 -0.4629
  284MOL0     C37361   6.855   0.787  10.314  0.0270  0.0312 -0.4384
  284MOL0     C37362   6.762   0.869  10.380  0.2797  0.2316 -0.6634
  284MOL0     C37363   6.763   0.897  10.528  0.3714 -0.7658  0.7177
  284MOL0     O37364   6.663   0.952  10.600 -0.3084 -0.1315  0.1067
  284MOL0     C37365   6.548   1.012  10.547 -0.9934  0.2349  0.8211
  284MOL0     C37366   6.449   1.048  10.653 -0.2076  0.3595  0.3976
  284MOL0     C37367   6.332   1.119  10.584 -0.3134 -0.6016 -1.2509
  284MOL0     C37368   6.358   1.264  10.540 -0.9910 -0.0635 -0.2912
  284MOL0     C37369   6.228   1.303  10.475  0.0091 -0.8305  0.6966
  284MOL0     C37370   6.245   1.440  10.414  0.3082  0.0250  0.7218
  284MOL0     C37371   6.254   1.549  10.520 -0.3160 -0.4337  0.0805
  284MOL0     C37372   6.226   1.688  10.453  0.2838 -0.2297  1.2143
  284MOL0     N37373   6.093   1.686  10.383  0.0728  0.1852 -0.0195
  284MOL0     C37374   6.040   1.774  10.290  0.0073 -0.1823  0.3015
  284MOL0     C37375   5.908   1.735  10.280  0.4094  0.4138  0.4537
  284MOL0     C37376   5.794   1.809  10.218 -0.1639  0.7959 -1.0179
  284MOL0     C37377   5.768   1.940  10.300 -0.1417 -0.7313  0.3046
  284MOL0     C37378   5.690   1.935  10.433  0.5023 -0.1340  0.4280
  284MOL0     C37379   5.561   1.861  10.408 -0.5108 -0.5974 -0.3155
  284MOL0     O37380   5.481   1.869  10.520 -0.0483 -0.1890  1.0740
  284MOL0     C37381   5.355   1.813  10.505 -0.2916 -0.5993 -0.2600
  284MOL0     C37382   5.294   1.772  10.386  0.3389  0.1213  0.2691
  284MOL0     C37383   5.151   1.762  10.375 -0.0381 -0.2559 -0.7830
  284MOL0     C37384   5.065   1.803  10.480 -0.2878 -0.7649 -0.4140
  284MOL0     C37385   4.917   1.792  10.473  0.1571 -0.4315  0.4546
  284MOL0     O37386   4.863   1.787  10.347  0.2530 -0.2995 -0.2270
  284MOL0     C37387   4.726   1.772  10.339 -0.7146 -0.0836  0.2835
  284MOL0     C37388   4.656   1.652  10.370 -0.4591 -0.1721  0.9054
  284MOL0     C37389   4.515   1.654  10.366 -0.6393  0.1910  0.0108
  284MOL0     C37390   4.441   1.769  10.325  0.1603  0.7121  0.7889
  284MOL0     O37391   4.305   1.759  10.331  0.6382 -0.1537  0.3264
  284MOL0     C37392   4.242   1.869  10.258 -0.1228  0.2418 -0.9329
  284MOL0     C37393   4.093   1.839  10.248 -0.2265 -0.3260  0.5677
  284MOL0     C37394   4.014   1.957  10.182 -0.1765 -0.1319  0.2641
  284MOL0     C37395   3.868   1.918  10.191  0.1292  0.3568 -0.4705
  284MOL0     C37396   3.787   2.034  10.128 -0.5480  0.5671  0.7174
  284MOL0     C37397   3.632   2.012  10.140  0.2644 -0.7051  0.3779
  284MOL0     C37398   3.551   2.095  10.045 -0.4417 -0.1177  0.7362
  284MOL0     C37399   3.503   2.024   9.920 -0.2072 -0.0723 -0.8298
  284MOL0    Cl37400   3.383   1.899   9.964 -0.3569 -0.1649 -0.0533
  284MOL0     C37401   4.518   1.886  10.303  0.3774  0.3180  0.7349
  284MOL0     C37402   4.658   1.887  10.304  0.2636 -0.2893 -0.3210
  284MOL0     O37403   4.849   1.817  10.573  0.2606 -0.3970 -0.6831
  284MOL0     C37404   5.132   1.833  10.597  0.8664 -0.1628  0.8529
  284MOL0     C37405   5.266   1.846  10.608 -1.3591  0.5725  0.3106
  284MOL0     N37406   5.879   1.633  10.373 -0.4277  0.0074 -0.2005
  284MOL0     N37407   5.990   1.610  10.436  0.3483  0.1032 -0.4702
  284MOL0     C37408   6.867   0.840  10.603  0.2479  0.4077 -0.1101
  284MOL0     C37409   6.972   0.772  10.531 -0.2125 -0.7484 -0.3602
  284MOL0     C37410   7.170   0.460  10.324  1.0093 -0.1180 -0.3877
  284MOL0     C37411   7.292   0.519  10.321 -0.8724 -0.0930 -0.0069
  284MOL0     C37412   7.405   0.446  10.308 -0.0371  0.6407 -0.2124
  284MOL0     C37413   7.403   0.306  10.300  0.1386  0.2861  0.2978
  284MOL0     O37414   7.505   0.214  10.278  0.3783  0.0587  0.6275
  284MOL0     C37415   7.639   0.273  10.290  0.2701 -0.0674  0.1324
  284MOL0     C37416   7.723   0.192  10.196 -0.6231  0.3104  0.4209
  284MOL0     C37417   7.872   0.228  10.215  0.5778  0.5618 -0.4445
  284MOL0     C37418   7.973   0.116  10.182  0.3192  0.2375  0.2195
  284MOL0     C37419   8.110   0.155  10.223  0.2183  0.5691 -0.7233
  284MOL0     C37420   8.229   0.170  10.251  0.0272  0.5641  0.3967
  284MOL0     C37421   7.277   0.250  10.303 -0.2623  0.4424 -0.2143
  284MOL0     C37422   7.159   0.322  10.322 -0.4015 -0.1202  0.9848
  284MOL0     H37423   6.858   0.769  10.207  1.0233  1.1916 -0.6295
  284MOL0     H37424   6.677   0.904  10.322 -0.9203  0.8059  1.3537
  284MOL0     H37425   6.503   0.942  10.475 -0.6068 -2.4376  3.0269
  284MOL0     H37426   6.590   1.105  10.507 -1.9705  0.2770 -0.1542
  284MOL0     H37427   6.492   1.114  10.730 -0.4838  0.3019  0.6004
  284MOL0     H37428   6.416   0.954  10.698  2.5623 -1.3998 -0.9545
  284MOL0     H37429   6.250   1.123  10.657 -0.4103 -0.6998 -1.3546
  284MOL0     H37430   6.297   1.055  10.503 -1.6546 -0.8223 -0.5380
  284MOL0     H37431   6.378   1.323  10.630 -0.7057 -0.0215 -0.3800
  284MOL0     H37432   6.441   1.264  10.470 -0.0326  0.8594  0.8035
  284MOL0     H37433   6.143   1.302  10.544  0.1748 -1.7122  0.9010
  284MOL0     H37434   6.199   1.235  10.394 -0.7323  0.6639 -0.3469
  284MOL0     H37435   6.152   1.448  10.357  0.1499  0.8351  1.0882
  284MOL0     H37436   6.328   1.436  10.342  0.6628  0.8521  1.0743
  284MOL0     H37437   6.175   1.541  10.595  0.0936  0.5127  0.6369
  284MOL0     H37438   6.350   1.552  10.572 -0.2569 -1.6292  0.0621
  284MOL0     H37439   6.299   1.726  10.382 -3.4449  2.0373 -1.8102
  284MOL0     H37440   6.224   1.760  10.536 -1.6682 -0.6110  1.5656
  284MOL0     H37441   6.090   1.850  10.232 -0.0674  0.2561  0.8072
  284MOL0     H37442   5.706   1.743  10.223  2.3762 -2.8171  1.1504
  284MOL0     H37443   5.812   1.820  10.111 -1.7837  1.9937 -1.2013
  284MOL0     H37444   5.720   2.009  10.229 -0.5764 -2.1373 -0.8209
  284MOL0     H37445   5.863   1.990  10.322 -1.2682  1.9503 -0.5818
  284MOL0     H37446   5.757   1.898  10.511 -1.3345 -0.7443  1.7816
  284MOL0     H37447   5.654   2.033  10.467 -2.7802 -1.7906  2.2344
  284MOL0     H37448   5.571   1.753  10.388  0.8589 -0.6732  0.6445
  284MOL0     H37449   5.513   1.909  10.322  1.1835 -2.0296 -2.1808
  284MOL0     H37450   5.348   1.752  10.294  0.7624  1.4368  0.2139
  284MOL0     H37451   5.117   1.721  10.280  2.0363 -1.1325 -1.2186
  284MOL0     H37452   4.699   1.558  10.404 -1.8005 -0.1034  2.9644
  284MOL0     H37453   4.449   1.573  10.395 -0.6436  0.1487 -0.1176
  284MOL0     H37454   4.287   1.875  10.159 -0.0068  3.0506 -0.7998
  284MOL0     H37455   4.253   1.960  10.318 -0.3397  1.3622 -2.5133
  284MOL0     H37456   4.065   1.815  10.350  1.1463  0.4384  1.1469
  284MOL0     H37457   4.073   1.756  10.180  1.3858  1.2467 -2.0271
  284MOL0     H37458   4.050   1.976  10.081  0.3912 -2.0131  0.0907
  284MOL0     H37459   4.029   2.050  10.239  2.9864 -0.5882  0.3476
  284MOL0     H37460   3.845   1.820  10.148 -0.7585  0.2774  0.1587
  284MOL0     H37461   3.839   1.914  10.296 -2.4205  0.2551 -1.0980
  284MOL0     H37462   3.813   2.033  10.022 -0.3486 -3.1201  0.6865
  284MOL0     H37463   3.816   2.128  10.176  1.4830  0.6140 -0.4948
  284MOL0     H37464   3.606   2.032  10.244  2.9079 -0.5790  1.0851
  284MOL0     H37465   3.594   1.911  10.128 -1.7415  0.2360 -2.3137
  284MOL0     H37466   3.468   2.138  10.102  0.1430  1.9070  0.1658
  284MOL0     H37467   3.599   2.185  10.005 -1.1494 -1.0869 -2.6849
  284MOL0     H37468   3.576   1.976   9.854  2.6448 -1.3647  2.9454
  284MOL0     H37469   3.447   2.101   9.866 -1.0930  0.1082  0.3122
  284MOL0     H37470   4.478   1.983  10.275  2.8281  1.1511 -0.1880
  284MOL0     H37471   4.721   1.974  10.288  1.7694 -1.2338  0.2381
  284MOL0     H37472   5.069   1.859  10.682  2.3988  3.6030  1.0549
  284MOL0     H37473   5.304   1.898  10.696  2.4144  3.5143 -2.6832
  284MOL0     H37474   6.856   0.855  10.710 -2.7167  2.4772 -0.5724
  284MOL0     H37475   7.052   0.741  10.597 -1.4818 -1.2750  1.0019
  284MOL0     H37476   7.307   0.626  10.336 -0.1725 -0.5210  2.9739
  284MOL0     H37477   7.502   0.493  10.324  0.7842 -1.2172  0.6078
  284MOL0     H37478   7.677   0.269  10.393  0.3039 -2.7077  0.0972
  284MOL0     H37479   7.635   0.375  10.252 -1.3578 -0.4629 -0.8593
  284MOL0     H37480   7.714   0.085  10.218 -2.4179  0.4479  0.5119
  284MOL0     H37481   7.697   0.209  10.091  0.7120  2.2978  0.3482
  284MOL0     H37482   7.909   0.259  10.313  1.0514  1.0109 -0.7639
  284MOL0     H37483   7.897   0.318  10.159  2.8283 -0.4166 -1.1295
  284MOL0     H37484   7.944   0.029  10.241 -2.0096  0.7698 -0.0394
  284MOL0     H37485   7.970   0.112  10.073  0.1605  1.2976  0.1671
  284MOL0     H37486   8.328   0.190  10.288 -0.8366  1.2119  2.5308
  284MOL0     H37487   7.271   0.142  10.294 -0.0600  0.4657 -0.6769
  284MOL0     H37488   7.062   0.274  10.322  0.1751 -1.4960 -2.1285
  285MOL0     O37489   1.912   5.050   1.126 -0.6601  0.5610  0.3294
  285MOL0     C37490   2.008   4.984   1.093  0.1628 -0.4631 -0.3619
  285MOL0     O37491   2.007   4.853   1.062 -0.3839  1.1313  0.4648
  285MOL0     C37492   1.888   4.778   1.055 -0.3138  1.0993  0.8490
  285MOL0     C37493   1.801   4.774   1.162 -0.1364  0.9628 -0.0602
  285MOL0     C37494   1.681   4.691   1.161  0.0350  0.0987  0.0416
  285MOL0     C37495   1.652   4.607   1.055 -0.2660 -0.5194 -0.3627
  285MOL0     O37496   1.537   4.531   1.043  0.5159  0.1081 -0.4351
  285MOL0     C37497   1.457   4.513   1.154  0.3180 -0.1743 -1.2346
  285MOL0     C37498   1.397   4.378   1.149  0.1153 -0.8839 -0.2805
  285MOL0     C37499   1.293   4.375   1.034 -0.5074 -0.1894 -0.1196
  285MOL0     C37500   1.224   4.243   1.024  0.2615  0.0210  0.0665
  285MOL0     C37501   1.131   4.239   0.895 -0.0620  0.4005  0.7150
  285MOL0     C37502   1.042   4.360   0.894 -0.3123  0.3146  0.3329
  285MOL0     C37503   0.926   4.350   0.806 -0.2174  0.1988 -0.5614
  285MOL0     C37504   0.846   4.489   0.781 -0.4565  0.7648  0.0521
  285MOL0     N37505   0.760   4.520   0.889  0.4471 -0.9183 -0.4317
  285MOL0     C37506   0.643   4.457   0.926  0.3037 -0.0502 -0.0432
  285MOL0     C37507   0.596   4.522   1.036 -0.2849  0.2525 -0.1125
  285MOL0     C37508   0.469   4.502   1.117 -0.5248  0.3122 -0.9079
  285MOL0     C37509   0.343   4.465   1.036  0.8710 -0.0972 -1.0095
  285MOL0     C37510   0.220   4.477   1.131  0.0898 -0.5514  0.6791
  285MOL0     C37511   0.084   4.503   1.060  0.4162 -0.3611  0.0952
  285MOL0     O37512  -0.017   4.474   1.151  0.2631 -0.0775 -0.3427
  285MOL0     C37513  -0.148   4.496   1.105 -0.9216  0.2466  0.7042
  285MOL0     C37514  -0.245   4.467   1.188  0.5219 -0.1230  0.0952
  285MOL0     C37515  -0.385   4.475   1.152  0.0085 -0.4237 -0.7293
  285MOL0     C37516  -0.411   4.531   1.028  0.1584 -0.2526  0.3840
  285MOL0     C37517  -0.556   4.544   0.983 -0.2992  0.4145  0.5448
  285MOL0     O37518  -0.648   4.525   1.080  0.2252 -0.6834  0.4014
  285MOL0     C37519  -0.787   4.501   1.055 -0.9300  0.5594 -0.2545
  285MOL0     C37520  -0.849   4.465   0.937 -0.0722 -0.5566  0.2134
  285MOL0     C37521  -0.992   4.464   0.931 -0.3172  0.4169  0.1040
  285MOL0     C37522  -1.075   4.481   1.041 -0.7032  0.8474 -0.8291
  285MOL0     O37523  -1.211   4.461   1.023  0.2613 -0.1295  0.4339
  285MOL0     C37524  -1.247   4.325   1.063  0.4514 -0.5975 -0.1008
  285MOL0     C37525  -1.362   4.267   0.985  0.2724  0.1467 -0.2574
  285MOL0     C37526  -1.333   4.246   0.834 -0.3223  0.2022 -0.1461
  285MOL0     C37527  -1.452   4.213   0.759  0.0508  0.5770  1.1056
  285MOL0     C37528  -1.406   4.157   0.621  0.0962 -0.6082 -0.1248
  285MOL0     C37529  -1.506   4.054   0.560  0.4511 -0.3571 -0.5033
  285MOL0     C37530  -1.646   4.115   0.554  0.6590  0.3937 -0.2094
  285MOL0     C37531  -1.745   4.028   0.472  0.5718 -0.2284  0.0065
  285MOL0    Cl37532  -1.763   3.869   0.544 -0.4188 -0.0787  0.4592
  285MOL0     C37533  -1.005   4.499   1.162 -0.0276  0.9396 -0.1542
  285MOL0     C37534  -0.870   4.509   1.165 -0.5647 -0.8962 -0.3855
  285MOL0     O37535  -0.578   4.554   0.863 -0.0773 -0.1009  0.0418
  285MOL0     C37536  -0.313   4.581   0.944 -0.0610  0.9348 -0.1122
  285MOL0     C37537  -0.177   4.559   0.984 -0.5170  0.1236  0.0386
  285MOL0     N37538   0.685   4.628   1.064 -0.1860  0.3173  0.4556
  285MOL0     N37539   0.765   4.631   0.965 -0.0777  0.2792  0.4942
  285MOL0     C37540   1.740   4.616   0.950  0.7680 -0.0351 -0.3783
  285MOL0     C37541   1.860   4.688   0.946  0.2256  0.6674 -0.9571
  285MOL0     C37542   2.142   5.044   1.084 -0.0285  0.9799  0.4257
  285MOL0     C37543   2.253   4.979   1.028 -0.9952 -0.2412 -0.4514
  285MOL0     C37544   2.377   5.051   1.023 -0.8334 -0.1368  0.1407
  285MOL0     C37545   2.386   5.187   1.070  0.6199  0.1586 -0.8313
  285MOL0     O37546   2.509   5.245   1.066  0.3896 -0.1261  1.4199
  285MOL0     C37547   2.543   5.361   1.132  0.7491  0.1503  0.1741
  285MOL0     C37548   2.691   5.367   1.153  0.3724  0.1414  0.5372
  285MOL0     C37549   2.754   5.497   1.226  0.1881  0.3417  0.2035
  285MOL0     C37550   2.697   5.523   1.363 -0.0391 -0.0189  0.0965
  285MOL0     C37551   2.738   5.414   1.457 -0.0154 -0.2121 -0.6052
  285MOL0     C37552   2.787   5.317   1.512 -0.1737  0.3655 -0.0353
  285MOL0     C37553   2.268   5.247   1.119 -0.0384 -0.3607  0.1742
  285MOL0     C37554   2.148   5.182   1.116  0.8137  0.4146 -0.1401
  285MOL0     H37555   1.839   4.821   1.252  1.8832  0.6239 -0.6883
  285MOL0     H37556   1.611   4.696   1.244 -0.7027 -3.9465 -0.1410
  285MOL0     H37557   1.375   4.583   1.172  2.0263  0.9873  3.5895
  285MOL0     H37558   1.510   4.508   1.250 -0.3102 -1.4967 -0.9439
  285MOL0     H37559   1.350   4.355   1.245  2.1421  1.6453  1.4088
  285MOL0     H37560   1.475   4.309   1.115  1.5213  1.2703 -1.6080
  285MOL0     H37561   1.329   4.411   0.937 -1.9385  1.7480  0.0139
  285MOL0     H37562   1.222   4.453   1.063  0.2626  0.2054  0.7265
  285MOL0     H37563   1.292   4.158   1.017 -0.9838 -1.3182  2.6918
  285MOL0     H37564   1.186   4.225   1.126  1.6541  0.4450  0.6816
  285MOL0     H37565   1.079   4.143   0.892 -0.4998  0.6287  0.8860
  285MOL0     H37566   1.194   4.242   0.806  2.3682  1.0091  2.3677
  285MOL0     H37567   1.101   4.448   0.867  0.0022 -0.4327 -1.6361
  285MOL0     H37568   1.016   4.375   0.999  1.5941  1.9170  0.6224
  285MOL0     H37569   0.973   4.328   0.709  0.6555 -0.1288 -0.0748
  285MOL0     H37570   0.857   4.269   0.833 -2.0573  1.4111 -1.4175
  285MOL0     H37571   0.795   4.475   0.685  1.5987 -1.8128 -0.7895
  285MOL0     H37572   0.908   4.578   0.768  1.4672 -0.9045 -4.0862
  285MOL0     H37573   0.597   4.372   0.878  1.9596  0.1924 -2.2047
  285MOL0     H37574   0.450   4.591   1.177  0.0283 -1.3004  1.8445
  285MOL0     H37575   0.495   4.424   1.189  0.9101 -0.0205 -1.7635
  285MOL0     H37576   0.337   4.363   0.999 -1.6990 -0.8782  1.1468
  285MOL0     H37577   0.330   4.539   0.957 -1.4810 -0.8062 -1.3616
  285MOL0     H37578   0.208   4.385   1.189  0.7882 -0.7521  0.5120
  285MOL0     H37579   0.248   4.550   1.208  2.2673 -1.1031  0.4843
  285MOL0     H37580   0.071   4.425   0.985  3.0050  0.2785 -1.1418
  285MOL0     H37581   0.070   4.608   1.032 -0.0678 -0.5596 -0.4168
  285MOL0     H37582  -0.217   4.434   1.288  0.2874 -1.0261 -0.1241
  285MOL0     H37583  -0.463   4.433   1.215  1.6031 -1.6621  0.5271
  285MOL0     H37584  -0.796   4.453   0.843 -2.2224 -2.1839 -0.8939
  285MOL0     H37585  -1.033   4.455   0.831  0.4869  1.0984 -0.3034
  285MOL0     H37586  -1.275   4.329   1.168 -1.8982 -1.5492 -0.6112
  285MOL0     H37587  -1.165   4.253   1.063  0.5806 -0.5111  2.1135
  285MOL0     H37588  -1.437   4.346   0.985 -0.0035 -0.0749 -2.2484
  285MOL0     H37589  -1.388   4.170   1.029 -0.3875 -0.3982 -1.7992
  285MOL0     H37590  -1.256   4.169   0.836  0.2737  0.7869  2.1709
  285MOL0     H37591  -1.297   4.337   0.785 -0.9229 -0.6985 -2.3902
  285MOL0     H37592  -1.497   4.134   0.819  2.5972 -2.0228 -0.1783
  285MOL0     H37593  -1.510   4.304   0.740  1.0750  1.0169  0.0016
  285MOL0     H37594  -1.306   4.113   0.627  0.0732 -0.6684 -0.1911
  285MOL0     H37595  -1.401   4.251   0.565 -0.0041 -1.5044 -1.6842
  285MOL0     H37596  -1.511   3.972   0.632  1.7255 -0.0033  0.0228
  285MOL0     H37597  -1.476   4.024   0.459  0.6628  0.8657 -0.8225
  285MOL0     H37598  -1.689   4.108   0.655 -2.2227  1.9865 -1.2053
  285MOL0     H37599  -1.636   4.215   0.510  0.0180  0.6106  0.1195
  285MOL0     H37600  -1.702   4.021   0.371  2.0074  0.7691  0.5207
  285MOL0     H37601  -1.842   4.075   0.485 -0.6917 -2.6440  0.0024
  285MOL0     H37602  -1.064   4.517   1.252 -0.5731  1.9590 -0.6968
  285MOL0     H37603  -0.816   4.522   1.259  2.8500  0.5825 -2.3392
  285MOL0     H37604  -0.341   4.629   0.851  1.0024  0.3501 -0.7636
  285MOL0     H37605  -0.096   4.596   0.922 -1.5504  2.1107 -0.2030
  285MOL0     H37606   1.710   4.565   0.859 -2.2037 -1.3349  1.1694
  285MOL0     H37607   1.921   4.683   0.856 -0.9702 -1.9516 -1.7008
  285MOL0     H37608   2.249   4.880   0.984 -0.2523 -0.6130  0.3044
  285MOL0     H37609   2.467   5.011   0.977  0.5438  2.7222  0.1152
  285MOL0     H37610   2.493   5.355   1.229  0.0192  1.4972 -0.0934
  285MOL0     H37611   2.505   5.447   1.076  0.3898 -0.8990 -1.2193
  285MOL0     H37612   2.700   5.276   1.213  3.1474  1.4395  2.2936
  285MOL0     H37613   2.743   5.347   1.058 -1.4569  1.1497 -0.7364
  285MOL0     H37614   2.728   5.582   1.163 -2.4964 -0.0788  0.6276
  285MOL0     H37615   2.863   5.486   1.225  0.0849 -0.8074 -0.1226
  285MOL0     H37616   2.730   5.618   1.405 -1.8648  0.1974  1.1897
  285MOL0     H37617   2.588   5.529   1.354 -0.0429  2.3571  0.8907
  285MOL0     H37618   2.814   5.221   1.551 -0.6759  0.1418 -0.2242
  285MOL0     H37619   2.272   5.351   1.147 -1.1855 -0.6863  1.6553
  285MOL0     H37620   2.064   5.238   1.155  2.6629  1.4435  2.7618
  286MOL0     O37621  10.596   3.673  10.497 -0.0886  0.1804  0.4260
  286MOL0     C37622  10.654   3.777  10.468 -0.1184 -0.2060 -0.4067
  286MOL0     O37623  10.595   3.893  10.425  0.5077  0.2420  0.0222
  286MOL0     C37624  10.453   3.907  10.418 -0.4360 -0.4503  0.7320
  286MOL0     C37625  10.400   3.931  10.285 -0.3619 -0.1159 -0.2496
  286MOL0     C37626  10.257   3.952  10.277 -0.3002  1.0068  0.0840
  286MOL0     C37627  10.178   3.953  10.389  0.5335  0.6412  0.1720
  286MOL0     O37628  10.045   3.976  10.358 -0.5408  0.0572 -0.1663
  286MOL0     C37629   9.961   4.021  10.469 -0.4109  0.7093  0.3125
  286MOL0     C37630   9.817   3.999  10.415  0.4137 -0.1651  0.0771
  286MOL0     C37631   9.708   4.072  10.496 -0.0762 -0.1732 -0.9338
  286MOL0     C37632   9.576   4.028  10.425  0.5758  0.2527  0.5644
  286MOL0     C37633   9.457   4.109  10.473 -0.5955  0.6717 -0.2131
  286MOL0     C37634   9.355   4.001  10.521 -0.2455 -0.2314  0.0347
  286MOL0     C37635   9.233   4.076  10.574  0.2889 -0.5638 -0.8585
  286MOL0     C37636   9.129   3.985  10.637 -0.7561  0.0005  0.2761
  286MOL0     N37637   9.021   4.075  10.660  0.3862 -0.4643 -0.2112
  286MOL0     C37638   8.939   4.143  10.571  0.0874 -0.2504 -0.1869
  286MOL0     C37639   8.851   4.216  10.640  0.5105 -0.0200 -0.2418
  286MOL0     C37640   8.757   4.317  10.578 -0.0928  0.5741  0.5500
  286MOL0     C37641   8.704   4.406  10.687 -0.2535  0.0369 -0.5928
  286MOL0     C37642   8.615   4.512  10.624 -0.6496  0.9509  0.0192
  286MOL0     C37643   8.520   4.581  10.718 -0.4199  0.3633 -0.4229
  286MOL0     O37644   8.387   4.516  10.704 -0.6132  0.6694 -0.3568
  286MOL0     C37645   8.288   4.560  10.786  0.8664  0.0741  0.7093
  286MOL0     C37646   8.301   4.655  10.882 -0.8784  1.0562  0.4502
  286MOL0     C37647   8.198   4.708  10.957  0.1197  0.5036  0.4391
  286MOL0     C37648   8.071   4.650  10.942  0.0626 -0.3112 -1.1291
  286MOL0     C37649   7.956   4.688  11.029 -0.0105  0.3008  0.7761
  286MOL0     O37650   7.839   4.615  11.034  0.1744  0.2047 -0.0136
  286MOL0     C37651   7.725   4.646  11.091  0.3788  0.2307  0.4245
  286MOL0     C37652   7.612   4.565  11.056 -0.1200  0.1125 -0.0457
  286MOL0     C37653   7.487   4.581  11.117  0.0875 -0.6181  0.4396
  286MOL0     C37654   7.462   4.701  11.183  0.2466  0.5827  0.3815
  286MOL0     O37655   7.329   4.717  11.202  0.1165 -0.3969 -0.3712
  286MOL0     C37656   7.281   4.822  11.283 -0.4368  0.2679 -0.5229
  286MOL0     C37657   7.135   4.811  11.298  0.5104  0.2158  0.3056
  286MOL0     C37658   7.063   4.946  11.332  0.2517 -0.7072  0.3071
  286MOL0     C37659   6.925   4.935  11.402 -0.4865  0.2090 -0.4625
  286MOL0     C37660   6.838   5.054  11.381 -0.1835 -0.2495  0.3591
  286MOL0     C37661   6.694   5.028  11.421  0.1287 -0.0745 -0.1594
  286MOL0     C37662   6.609   5.152  11.400 -0.0598 -0.3007  0.2412
  286MOL0     C37663   6.464   5.131  11.422  0.3590  0.0770 -0.4025
  286MOL0    Cl37664   6.359   5.271  11.399 -0.1088 -0.2327  0.2101
  286MOL0     C37665   7.570   4.791  11.210  0.5328 -0.2144 -0.7225
  286MOL0     C37666   7.701   4.763  11.167 -0.4444  0.9174  0.1930
  286MOL0     O37667   7.976   4.798  11.087 -0.0338  0.5595 -0.2988
  286MOL0     C37668   8.055   4.548  10.852 -0.6965 -0.1345  0.2621
  286MOL0     C37669   8.162   4.505  10.772 -0.2320  0.1268 -0.4673
  286MOL0     N37670   8.890   4.212  10.770 -0.2597 -0.4121 -0.2884
  286MOL0     N37671   8.995   4.147  10.780 -0.0758 -0.2762  0.0701
  286MOL0     C37672  10.233   3.919  10.514 -0.2116  0.7713  0.3886
  286MOL0     C37673  10.368   3.899  10.528  0.2199  0.0080  0.0209
  286MOL0     C37674  10.798   3.786  10.479  0.1655 -1.0832 -0.4597
  286MOL0     C37675  10.881   3.833  10.375  0.1866  0.1485 -0.7890
  286MOL0     C37676  11.016   3.858  10.395 -0.2525  0.6973 -0.5226
  286MOL0     C37677  11.070   3.845  10.523  0.6317 -0.5498  0.1652
  286MOL0     O37678  11.201   3.872  10.568 -0.2862  1.0630  0.2797
  286MOL0     C37679  11.306   3.902  10.474 -0.6386  0.2374  0.4094
  286MOL0     C37680  11.432   3.957  10.548  0.1269 -0.1263  0.4617
  286MOL0     C37681  11.486   3.864  10.649 -0.1725 -0.4797  0.1187
  286MOL0     C37682  11.540   3.726  10.606  0.3565 -1.0681  0.1741
  286MOL0     C37683  11.622   3.667  10.717  0.8957 -0.5077  0.3848
  286MOL0     C37684  11.680   3.611  10.808  0.3004 -0.3720 -0.1045
  286MOL0     C37685  10.988   3.797  10.630  0.8243 -0.1678  0.1629
  286MOL0     C37686  10.854   3.765  10.607 -0.2435 -0.1014  0.3165
  286MOL0     H37687  10.461   3.921  10.196 -1.4623  0.5686 -1.1142
  286MOL0     H37688  10.218   3.965  10.177  5.0318  1.0812 -2.3294
  286MOL0     H37689   9.981   4.128  10.479 -1.1343  1.0896 -1.8072
  286MOL0     H37690   9.980   3.972  10.565  1.5191 -0.7200 -0.7237
  286MOL0     H37691   9.803   3.891  10.404  2.8222 -0.5238  0.0137
  286MOL0     H37692   9.809   4.028  10.310 -0.2054 -0.8839 -0.0853
  286MOL0     H37693   9.725   4.179  10.488 -2.9444  0.6589  1.9721
  286MOL0     H37694   9.712   4.045  10.602  0.8095 -2.7993 -1.5419
  286MOL0     H37695   9.569   4.030  10.315 -3.7346  0.6175  0.6912
  286MOL0     H37696   9.563   3.924  10.454 -0.1485  0.7563  2.1595
  286MOL0     H37697   9.426   4.174  10.390  2.4157  2.5716 -0.0227
  286MOL0     H37698   9.489   4.182  10.549  0.0987 -1.0439  1.2044
  286MOL0     H37699   9.391   3.937  10.602  2.5703  1.8712  0.5892
  286MOL0     H37700   9.325   3.942  10.434 -1.7741  0.8522 -0.2085
  286MOL0     H37701   9.250   4.157  10.645 -2.0326  0.3398 -1.2590
  286MOL0     H37702   9.197   4.133  10.488 -0.8167  1.3845  0.7931
  286MOL0     H37703   9.169   3.937  10.726 -3.4359 -2.7157  0.1985
  286MOL0     H37704   9.098   3.904  10.570 -0.5622  1.2861 -1.4430
  286MOL0     H37705   8.934   4.137  10.462 -1.0835  0.2435 -0.1708
  286MOL0     H37706   8.675   4.263  10.531  1.1327 -0.2826 -0.7104
  286MOL0     H37707   8.814   4.381  10.510 -0.1615 -0.3791 -0.4379
  286MOL0     H37708   8.787   4.454  10.739  0.4024 -1.4594 -0.2104
  286MOL0     H37709   8.653   4.346  10.764  0.4358 -1.3219 -1.1646
  286MOL0     H37710   8.682   4.587  10.580  2.0137  1.4907  4.3957
  286MOL0     H37711   8.559   4.456  10.549 -0.9567  0.2739  0.7429
  286MOL0     H37712   8.512   4.689  10.699  0.9141  0.7944  1.2466
  286MOL0     H37713   8.577   4.586  10.811 -0.6020  3.5115 -0.3762
  286MOL0     H37714   8.395   4.710  10.887  1.2898 -2.0774 -1.9455
  286MOL0     H37715   8.213   4.773  11.042 -1.7320  2.9436 -0.9755
  286MOL0     H37716   7.633   4.481  10.992 -2.2415 -0.4684 -0.0292
  286MOL0     H37717   7.410   4.507  11.097  0.5360 -1.2929  1.1500
  286MOL0     H37718   7.305   4.917  11.234 -1.3898 -0.2153 -1.9862
  286MOL0     H37719   7.330   4.814  11.380  0.0831 -1.9699 -0.8894
  286MOL0     H37720   7.110   4.740  11.378  0.7758  0.9125  1.0175
  286MOL0     H37721   7.093   4.767  11.207 -1.2248  0.8595  0.7446
  286MOL0     H37722   7.056   5.009  11.243 -2.3565  1.4127  1.8514
  286MOL0     H37723   7.132   4.998  11.399 -0.3187  0.1581  0.2413
  286MOL0     H37724   6.872   4.854  11.351  0.3265  0.5280 -1.8554
  286MOL0     H37725   6.939   4.916  11.509  0.4736  2.0920 -0.2142
  286MOL0     H37726   6.848   5.086  11.277 -2.8171  0.5723  0.2938
  286MOL0     H37727   6.879   5.131  11.447 -1.3067  0.1606  0.6089
  286MOL0     H37728   6.703   4.989  11.523  0.6799  0.9648  0.2037
  286MOL0     H37729   6.659   4.945  11.359  0.2735  1.2465 -2.0668
  286MOL0     H37730   6.634   5.237  11.465 -1.9081  0.5379 -0.0718
  286MOL0     H37731   6.622   5.196  11.300 -2.5500 -2.0363 -0.9524
  286MOL0     H37732   6.458   5.119  11.531  4.4851  0.8140  0.0795
  286MOL0     H37733   6.433   5.046  11.361 -1.8241  0.3397  0.2483
  286MOL0     H37734   7.544   4.883  11.263 -0.1667 -1.2158  0.7499
  286MOL0     H37735   7.780   4.834  11.187  0.3452  0.4116 -1.0133
  286MOL0     H37736   7.962   4.492  10.845  0.0897 -1.3912 -0.4566
  286MOL0     H37737   8.148   4.418  10.708 -0.7291 -0.1775  0.0475
  286MOL0     H37738  10.187   3.921  10.612  0.4201  1.7674  0.6788
  286MOL0     H37739  10.408   3.887  10.628 -1.2674  1.5988  0.8544
  286MOL0     H37740  10.826   3.835  10.281  1.3107  0.9182 -1.4428
  286MOL0     H37741  11.081   3.880  10.311  1.5784 -3.6282 -0.4924
  286MOL0     H37742  11.272   3.966  10.392  1.0676 -2.1108 -2.3229
  286MOL0     H37743  11.330   3.817  10.409 -3.8509 -0.1830 -0.3840
  286MOL0     H37744  11.507   3.980  10.472 -0.8540 -1.4577 -0.9732
  286MOL0     H37745  11.396   4.049  10.594 -0.2799  0.1211 -0.3310
  286MOL0     H37746  11.414   3.863  10.731 -2.2292  2.2034 -1.4981
  286MOL0     H37747  11.575   3.917  10.685  1.3420 -3.8590  1.7355
  286MOL0     H37748  11.447   3.669  10.594 -0.6081  0.4609  0.0577
  286MOL0     H37749  11.594   3.734  10.511 -1.5178  0.2101 -0.8695
  286MOL0     H37750  11.737   3.562  10.884 -1.2532  1.5004  2.4177
  286MOL0     H37751  11.028   3.792  10.731  2.7687  0.5360 -0.5096
  286MOL0     H37752  10.780   3.742  10.683 -1.4659 -2.6661 -1.4828
  287MOL0     O37753   3.361   9.661   0.101  0.0316 -0.1223 -0.0997
  287MOL0     C37754   3.463   9.695   0.162  0.0575 -0.4257  0.1449
  287MOL0     O37755   3.470   9.764   0.287  0.3318  0.0985  0.1202
  287MOL0     C37756   3.342   9.781   0.348 -1.3326  1.0063  0.7025
  287MOL0     C37757   3.271   9.671   0.389 -0.3866  0.1912 -0.7052
  287MOL0     C37758   3.150   9.680   0.456  0.1033 -0.0235  0.1375
  287MOL0     C37759   3.089   9.809   0.473 -0.7247  0.6857  0.0696
  287MOL0     O37760   2.971   9.831   0.540  0.0671  0.3751  0.1267
  287MOL0     C37761   2.931   9.738   0.635  0.4948  0.0454 -0.6713
  287MOL0     C37762   2.815   9.781   0.720  0.8300 -0.5073 -0.2132
  287MOL0     C37763   2.691   9.826   0.637  0.1264 -0.9364  0.6205
  287MOL0     C37764   2.564   9.856   0.720 -0.0916 -0.7329  0.1830
  287MOL0     C37765   2.454   9.920   0.631  0.1975  0.2075 -0.2497
  287MOL0     C37766   2.317   9.942   0.701  0.2031 -0.1969  0.1597
  287MOL0     C37767   2.269   9.821   0.772 -0.4215  0.0878 -0.0838
  287MOL0     C37768   2.268   9.674   0.714  0.1393  0.3035  0.4337
  287MOL0     N37769   2.151   9.648   0.628 -0.0247  0.0894 -0.4607
  287MOL0     C37770   2.121   9.710   0.512  0.3619 -0.2024  0.1765
  287MOL0     C37771   2.049   9.622   0.441  0.5977  0.5390  1.0296
  287MOL0     C37772   1.976   9.643   0.311  0.7324 -1.1956 -0.0499
  287MOL0     C37773   1.867   9.529   0.281  0.4085 -0.4232 -0.7213
  287MOL0     C37774   1.744   9.549   0.377 -0.3057 -0.5441  0.4303
  287MOL0     C37775   1.628   9.468   0.353  0.5060 -0.0283  0.8627
  287MOL0     O37776   1.664   9.337   0.300  0.6558  1.0635  0.7526
  287MOL0     C37777   1.577   9.262   0.221 -0.9094  0.0975  0.5564
  287MOL0     C37778   1.627   9.138   0.168  0.6109 -0.2417  0.5937
  287MOL0     C37779   1.547   9.055   0.082 -0.2494  0.0096  0.1653
  287MOL0     C37780   1.414   9.091   0.062  0.8062 -0.5263  0.2351
  287MOL0     C37781   1.323   9.022  -0.025  0.2702 -1.1870  0.1853
  287MOL0     O37782   1.197   9.079  -0.045 -0.1122 -0.6677 -0.3080
  287MOL0     C37783   1.101   9.019  -0.112  0.4581 -0.6572 -0.4580
  287MOL0     C37784   1.013   9.096  -0.191  0.2022 -0.6099  0.6998
  287MOL0     C37785   0.904   9.043  -0.260  0.4044 -0.1131 -0.2209
  287MOL0     C37786   0.865   8.909  -0.245  0.3273 -0.1540  0.3259
  287MOL0     O37787   0.754   8.851  -0.305 -0.4693  0.7181  0.0169
  287MOL0     C37788   0.665   8.929  -0.387 -0.1874  0.1085 -1.2060
  287MOL0     C37789   0.542   8.848  -0.410 -0.8691  0.7473 -0.4339
  287MOL0     C37790   0.440   8.921  -0.496 -0.2546 -0.8050 -1.0444
  287MOL0     C37791   0.336   8.818  -0.546 -0.7102 -0.2138 -0.5578
  287MOL0     C37792   0.217   8.898  -0.595 -0.1169  0.3018  0.3638
  287MOL0     C37793   0.235   8.960  -0.738 -0.0396  0.1438 -1.0234
  287MOL0     C37794   0.109   9.026  -0.780 -0.0870  0.6055  0.0902
  287MOL0     C37795   0.127   9.087  -0.917  0.5713  0.3016  0.0028
  287MOL0    Cl37796   0.148   8.963  -1.049  0.3615 -0.5719 -0.4004
  287MOL0     C37797   0.953   8.828  -0.168  0.1264  0.3497 -0.3596
  287MOL0     C37798   1.066   8.885  -0.102 -0.3713  0.8973  0.3800
  287MOL0     O37799   1.368   8.920  -0.069 -0.1583  0.0224  0.0959
  287MOL0     C37800   1.371   9.218   0.110 -0.0340  0.4358  0.0307
  287MOL0     C37801   1.447   9.295   0.196 -0.1914 -1.1783  1.2733
  287MOL0     N37802   2.038   9.502   0.519 -0.6335  0.4087 -1.0608
  287MOL0     N37803   2.104   9.522   0.630  0.7063 -0.3397 -0.0836
  287MOL0     C37804   3.156   9.923   0.422  0.4512  0.1717  0.0527
  287MOL0     C37805   3.287   9.911   0.375 -1.3010 -0.2644  0.1762
  287MOL0     C37806   3.591   9.664   0.098  0.1725  0.6314 -0.0139
  287MOL0     C37807   3.708   9.636   0.180 -0.5412  0.2260 -0.6994
  287MOL0     C37808   3.826   9.596   0.124  0.4263  0.3172  0.3707
  287MOL0     C37809   3.838   9.593  -0.008 -0.0649 -0.2028  0.7075
  287MOL0     O37810   3.952   9.546  -0.058  0.0308 -0.7730 -0.1777
  287MOL0     C37811   4.009   9.646  -0.155  0.4066  0.3537 -0.1103
  287MOL0     C37812   4.101   9.741  -0.089  1.0107 -0.4541 -0.2277
  287MOL0     C37813   4.168   9.824  -0.193 -0.0745  0.2672  0.5744
  287MOL0     C37814   4.256   9.936  -0.143  0.4410 -0.2812  1.0556
  287MOL0     C37815   4.173  10.030  -0.060  0.1035 -0.2385 -0.8770
  287MOL0     C37816   4.105  10.103   0.004 -0.4142  0.3888 -0.2213
  287MOL0     C37817   3.728   9.618  -0.092  0.9027  0.3138  0.0594
  287MOL0     C37818   3.607   9.652  -0.038 -0.1294 -0.6801  0.3898
  287MOL0     H37819   3.312   9.575   0.359 -0.6778  0.1416 -0.9534
  287MOL0     H37820   3.090   9.602   0.500 -0.0548  0.5734  0.9997
  287MOL0     H37821   3.021   9.718   0.694  1.4795 -0.1373 -2.1573
  287MOL0     H37822   2.908   9.644   0.585  1.1030 -0.8277  0.6258
  287MOL0     H37823   2.850   9.870   0.773 -0.6354  0.2306 -0.4150
  287MOL0     H37824   2.781   9.708   0.793 -1.9712  1.8146  0.9996
  287MOL0     H37825   2.663   9.752   0.561  1.2257 -1.3130  0.5631
  287MOL0     H37826   2.717   9.920   0.586 -0.7844 -0.5886  0.7883
  287MOL0     H37827   2.520   9.768   0.768 -0.7865 -1.0216 -0.9588
  287MOL0     H37828   2.584   9.939   0.789  0.9824  0.5768 -1.6227
  287MOL0     H37829   2.432   9.855   0.546 -0.2755 -0.1138  0.1132
  287MOL0     H37830   2.479  10.021   0.596 -2.2374  0.5696 -1.1259
  287MOL0     H37831   2.253   9.977   0.620  0.9982 -1.1337 -0.9070
  287MOL0     H37832   2.330  10.016   0.781 -0.7137 -2.0873  2.1554
  287MOL0     H37833   2.333   9.814   0.860  2.9756 -1.5956 -2.4894
  287MOL0     H37834   2.166   9.842   0.804 -0.2775  2.7641 -1.1136
  287MOL0     H37835   2.249   9.602   0.794 -1.5257 -0.6613 -0.7539
  287MOL0     H37836   2.360   9.639   0.666 -0.7176  0.9596 -1.8348
  287MOL0     H37837   2.152   9.807   0.474 -2.5369 -0.0479 -2.2325
  287MOL0     H37838   2.055   9.645   0.234  0.7579 -2.2045 -0.0640
  287MOL0     H37839   1.926   9.739   0.325  0.6158 -1.4882  1.7373
  287MOL0     H37840   1.912   9.429   0.287  0.9859 -0.2511 -1.8742
  287MOL0     H37841   1.845   9.541   0.175  1.4768 -2.1096 -1.1788
  287MOL0     H37842   1.770   9.518   0.479  0.9851  0.1070  0.3184
  287MOL0     H37843   1.711   9.654   0.374 -1.0004 -0.7729 -0.1523
  287MOL0     H37844   1.559   9.526   0.291 -0.4042 -2.8614 -0.9619
  287MOL0     H37845   1.573   9.452   0.446  1.3172 -3.3971  0.8955
  287MOL0     H37846   1.728   9.102   0.185  0.7724 -0.7858 -1.2656
  287MOL0     H37847   1.586   8.964   0.038  0.4480  1.0163 -1.4130
  287MOL0     H37848   1.023   9.204  -0.196 -1.2057 -0.3817  1.9815
  287MOL0     H37849   0.832   9.106  -0.311 -1.5699 -1.2872  0.9658
  287MOL0     H37850   0.713   8.945  -0.484  0.4266 -1.4074 -1.1764
  287MOL0     H37851   0.638   9.027  -0.347 -2.2687 -0.1963 -1.7689
  287MOL0     H37852   0.491   8.839  -0.314  0.7241  2.5241  0.6445
  287MOL0     H37853   0.567   8.746  -0.440  3.3083  0.4320  3.1142
  287MOL0     H37854   0.491   8.961  -0.583 -2.1273  0.9946 -1.3967
  287MOL0     H37855   0.392   9.005  -0.445  0.9474  0.0332 -1.2756
  287MOL0     H37856   0.382   8.762  -0.628 -1.1859 -2.8615  0.8651
  287MOL0     H37857   0.323   8.748  -0.463  1.8689  1.2434  1.2431
  287MOL0     H37858   0.178   8.963  -0.516 -2.2123 -0.2702 -0.1263
  287MOL0     H37859   0.138   8.824  -0.612  0.5167 -0.4829  0.7335
  287MOL0     H37860   0.275   8.882  -0.803  2.5143 -0.3254  0.9207
  287MOL0     H37861   0.309   9.041  -0.732  0.4067 -0.3345  0.5481
  287MOL0     H37862   0.030   8.951  -0.791  1.4589 -0.6512 -3.9446
  287MOL0     H37863   0.085   9.106  -0.708  1.6489  2.2131 -1.0408
  287MOL0     H37864   0.211   9.156  -0.905  0.5182  0.3672  0.0074
  287MOL0     H37865   0.042   9.153  -0.936  1.1340  0.7922 -0.8837
  287MOL0     H37866   0.905   8.731  -0.162 -3.1834  1.9494  2.6555
  287MOL0     H37867   1.124   8.825  -0.033 -1.2313  2.8157  2.9471
  287MOL0     H37868   1.266   9.245   0.103 -0.4496 -1.4405 -4.1459
  287MOL0     H37869   1.405   9.385   0.239 -0.5653 -0.5136 -0.4385
  287MOL0     H37870   3.122  10.024   0.447  0.3620  0.5644 -1.5609
  287MOL0     H37871   3.344  10.001   0.354 -1.6375 -0.6618 -2.8921
  287MOL0     H37872   3.706   9.632   0.288  2.6916 -3.3542 -0.5733
  287MOL0     H37873   3.910   9.570   0.188  0.1027  1.1391  1.1537
  287MOL0     H37874   3.936   9.702  -0.214 -0.2815  1.1801  1.4535
  287MOL0     H37875   4.058   9.590  -0.235 -0.2817 -1.1026  0.4335
  287MOL0     H37876   4.039   9.800  -0.021 -1.0461 -0.9153 -1.5852
  287MOL0     H37877   4.169   9.676  -0.033 -0.1785 -2.3141 -0.8504
  287MOL0     H37878   4.101   9.863  -0.270  1.5486  0.4933 -0.7769
  287MOL0     H37879   4.229   9.753  -0.249 -1.0591  0.0806 -0.2925
  287MOL0     H37880   4.334   9.888  -0.083 -1.8076 -0.9568  3.6160
  287MOL0     H37881   4.300   9.999  -0.222  0.5053  1.1556  2.2008
  287MOL0     H37882   4.043  10.161   0.069  0.2460  1.1186 -0.2220
  287MOL0     H37883   3.733   9.580  -0.193  3.5699 -1.6332  0.7958
  287MOL0     H37884   3.524   9.676  -0.104 -0.5398  2.0626  1.7315
  288MOL0     O37885   8.036  11.131   1.786  0.1499  0.7528 -0.7756
  288MOL0     C37886   8.130  11.217   1.795  0.7809 -0.5378 -0.3079
  288MOL0     O37887   8.110  11.351   1.784 -0.0622  0.5355 -0.1684
  288MOL0     C37888   7.989  11.418   1.798  0.3962  0.3588 -0.0690
  288MOL0     C37889   7.872  11.363   1.848 -0.5872 -0.5476 -0.0688
  288MOL0     C37890   7.766  11.446   1.884  0.3448 -0.9328 -0.4261
  288MOL0     C37891   7.762  11.580   1.843  0.2641 -0.8707 -0.5149
  288MOL0     O37892   7.647  11.661   1.865 -0.0259 -0.1305 -0.4679
  288MOL0     C37893   7.675  11.800   1.894  1.1886 -0.1249  0.4908
  288MOL0     C37894   7.564  11.869   1.988 -0.2717 -1.0797  0.0854
  288MOL0     C37895   7.421  11.843   1.932  0.6938  0.4950 -0.3535
  288MOL0     C37896   7.312  11.944   1.980 -0.0305  0.0552 -0.1344
  288MOL0     C37897   7.166  11.921   1.934 -0.0269 -0.2659 -0.1416
  288MOL0     C37898   7.087  11.800   1.974 -0.5912  0.4824 -0.5212
  288MOL0     C37899   6.937  11.824   1.967  0.2489 -0.3026  0.2242
  288MOL0     C37900   6.857  11.741   2.067  0.8237  1.5271 -0.4244
  288MOL0     N37901   6.712  11.772   2.046  0.0560 -0.3078  0.4551
  288MOL0     C37902   6.654  11.888   1.994 -0.6867 -0.1437 -0.0619
  288MOL0     C37903   6.523  11.880   2.012 -0.5297  0.0717 -0.5620
  288MOL0     C37904   6.406  11.967   1.965 -0.1318 -0.3296  0.0697
  288MOL0     C37905   6.294  11.960   2.070 -0.3181 -0.1745  0.5748
  288MOL0     C37906   6.172  12.040   2.022  0.5236  0.1975  0.5558
  288MOL0     C37907   6.058  12.035   2.131 -0.1331  0.2702 -0.3432
  288MOL0     O37908   5.940  12.099   2.094 -0.5610  0.4678  0.4457
  288MOL0     C37909   5.827  12.037   2.144 -0.0386  0.4112 -1.2033
  288MOL0     C37910   5.806  11.979   2.273  0.4268 -0.7600  0.3969
  288MOL0     C37911   5.673  11.937   2.299  0.1549 -0.1898  0.6474
  288MOL0     C37912   5.563  11.937   2.213 -1.0664 -0.6119 -0.2458
  288MOL0     C37913   5.422  11.907   2.247 -0.2770  0.4287 -0.2407
  288MOL0     O37914   5.404  11.878   2.381  0.2696  0.3697 -0.6136
  288MOL0     C37915   5.276  11.905   2.437  0.3461  0.8591 -0.1663
  288MOL0     C37916   5.177  11.804   2.448 -0.7026 -0.4052  0.2633
  288MOL0     C37917   5.053  11.834   2.502 -0.0149  0.4486  0.2708
  288MOL0     C37918   5.020  11.968   2.533  0.1778  0.1177 -0.0054
  288MOL0     O37919   4.898  11.997   2.570  0.6810  0.3547  0.4165
  288MOL0     C37920   4.855  12.122   2.637  0.2336 -1.0009 -0.5544
  288MOL0     C37921   4.721  12.098   2.700  0.5758  0.4765  0.3936
  288MOL0     C37922   4.632  12.225   2.700 -0.2263 -0.2606 -0.8425
  288MOL0     C37923   4.483  12.187   2.722  0.3753 -0.3877  0.7594
  288MOL0     C37924   4.390  12.310   2.728  0.8865 -0.4966 -1.0898
  288MOL0     C37925   4.397  12.396   2.856 -0.0897 -0.2848 -0.4894
  288MOL0     C37926   4.370  12.322   2.980 -0.3558 -0.3557 -0.4732
  288MOL0     C37927   4.225  12.268   2.985 -0.1723 -0.2124  1.1266
  288MOL0    Cl37928   4.203  12.177   3.129 -0.2617  0.6251 -0.3109
  288MOL0     C37929   5.119  12.069   2.516  0.8505  0.4274 -0.2713
  288MOL0     C37930   5.237  12.039   2.461 -0.2194 -0.1893  0.3481
  288MOL0     O37931   5.334  11.944   2.176 -0.4041  0.2492  0.6599
  288MOL0     C37932   5.595  11.992   2.086 -0.0985 -0.0398  0.0543
  288MOL0     C37933   5.718  12.049   2.058 -0.3811  0.0407 -0.3970
  288MOL0     N37934   6.513  11.763   2.079 -0.0671 -0.2921  0.0442
  288MOL0     N37935   6.620  11.700   2.098 -0.2547 -0.1209  0.6654
  288MOL0     C37936   7.871  11.633   1.772  0.9780  0.3251  0.3677
  288MOL0     C37937   7.987  11.550   1.758  0.2901  0.2159  0.6693
  288MOL0     C37938   8.272  11.175   1.793 -0.4532 -0.2742  0.2689
  288MOL0     C37939   8.297  11.034   1.798 -0.7002  0.7763 -0.6741
  288MOL0     C37940   8.432  10.985   1.813  0.3167 -0.3405  0.6244
  288MOL0     C37941   8.535  11.081   1.807  0.2317  0.1328 -0.5666
  288MOL0     O37942   8.665  11.046   1.796  0.3159  0.0317  0.2663
  288MOL0     C37943   8.716  11.059   1.663 -0.0366 -0.0911 -0.0879
  288MOL0     C37944   8.847  10.988   1.652 -0.3552  0.6709 -0.2343
  288MOL0     C37945   8.840  10.835   1.659 -0.3930  0.3063 -1.0921
  288MOL0     C37946   8.976  10.769   1.652  0.2532  0.2744  0.1583
  288MOL0     C37947   9.069  10.827   1.752  0.2256  0.0863  0.3921
  288MOL0     C37948   9.150  10.879   1.832  0.1715  0.8338 -0.0782
  288MOL0     C37949   8.504  11.222   1.808  0.2191  0.2968  0.2354
  288MOL0     C37950   8.377  11.267   1.798 -0.1836 -0.8558 -0.7430
  288MOL0     H37951   7.876  11.264   1.890  2.9450 -0.9249 -0.9256
  288MOL0     H37952   7.681  11.403   1.935 -0.6411 -3.1758 -3.6061
  288MOL0     H37953   7.688  11.860   1.803  1.8420  1.1205  1.3661
  288MOL0     H37954   7.767  11.796   1.953  0.3352 -2.3470  1.7640
  288MOL0     H37955   7.590  11.975   1.990  0.8825 -1.2604 -2.0799
  288MOL0     H37956   7.574  11.842   2.093  0.8489  4.5197  1.7715
  288MOL0     H37957   7.397  11.739   1.956  0.7161  0.6556  0.4067
  288MOL0     H37958   7.413  11.844   1.823 -0.4792 -3.9812 -0.4710
  288MOL0     H37959   7.321  11.958   2.088 -0.5646  4.0338 -0.4697
  288MOL0     H37960   7.342  12.041   1.939  1.4798 -0.2919  0.0852
  288MOL0     H37961   7.163  11.911   1.825  0.1238 -2.3865  0.0117
  288MOL0     H37962   7.115  12.009   1.974 -0.4712 -0.8774  0.6629
  288MOL0     H37963   7.118  11.777   2.077 -2.3915  3.3527  0.8049
  288MOL0     H37964   7.106  11.715   1.908  0.5465  0.1287  0.2283
  288MOL0     H37965   6.920  11.932   1.975  0.8158 -0.1461 -0.6310
  288MOL0     H37966   6.908  11.803   1.864  1.4156 -4.9237  0.6413
  288MOL0     H37967   6.871  11.776   2.170  0.2985  1.8630 -0.4609
  288MOL0     H37968   6.884  11.637   2.049  0.4349  1.8176 -3.1583
  288MOL0     H37969   6.701  11.963   1.931  1.0205  0.2747  1.6184
  288MOL0     H37970   6.370  11.937   1.866  2.9157  0.5669 -1.4421
  288MOL0     H37971   6.442  12.070   1.963 -0.9745  0.2668  4.7391
  288MOL0     H37972   6.334  11.997   2.165 -1.4890  3.7541 -0.2408
  288MOL0     H37973   6.261  11.858   2.090 -0.4544 -0.5438 -1.3309
  288MOL0     H37974   6.187  12.147   2.004 -0.4356  0.6156  2.0655
  288MOL0     H37975   6.138  11.992   1.930  2.5137  2.9105 -1.7924
  288MOL0     H37976   6.097  12.081   2.222 -2.4667  0.6944  0.5064
  288MOL0     H37977   6.044  11.932   2.165  2.7160 -0.3664 -0.8744
  288MOL0     H37978   5.896  11.975   2.334  2.2199  0.8108 -1.9747
  288MOL0     H37979   5.637  11.897   2.393 -3.8550 -2.4140 -1.5701
  288MOL0     H37980   5.207  11.703   2.422  1.9789  0.7776 -1.7364
  288MOL0     H37981   4.981  11.762   2.537  1.8951 -2.2625 -1.0260
  288MOL0     H37982   4.856  12.204   2.564 -0.9024 -1.2442 -0.8632
  288MOL0     H37983   4.923  12.144   2.719  0.7675  0.8346 -1.4307
  288MOL0     H37984   4.735  12.040   2.792 -0.9392 -0.7608 -0.1099
  288MOL0     H37985   4.672  12.028   2.631  0.9780  0.9603 -0.3984
  288MOL0     H37986   4.635  12.274   2.602 -2.1246  2.2644  0.2245
  288MOL0     H37987   4.666  12.292   2.779  0.6958 -1.2608 -0.3779
  288MOL0     H37988   4.445  12.126   2.640 -1.4523  1.5447  0.0795
  288MOL0     H37989   4.473  12.128   2.813 -2.3357  1.8607  2.0827
  288MOL0     H37990   4.286  12.281   2.709  0.4214  0.5813 -0.3384
  288MOL0     H37991   4.419  12.378   2.647  2.3801 -2.3687 -2.1895
  288MOL0     H37992   4.317  12.470   2.851  0.2265  0.1448  0.4398
  288MOL0     H37993   4.488  12.455   2.873 -0.6050  0.2448  0.5028
  288MOL0     H37994   4.436  12.235   2.987 -1.5074 -1.1495  1.3623
  288MOL0     H37995   4.383  12.389   3.066 -3.3659  1.4283 -1.2574
  288MOL0     H37996   4.203  12.201   2.901  0.1130  1.4973 -0.3733
  288MOL0     H37997   4.155  12.351   2.992 -0.2414  0.0232 -1.5948
  288MOL0     H37998   5.100  12.173   2.539  1.0623  0.2444  0.8092
  288MOL0     H37999   5.299  12.122   2.430  1.0668 -1.2436  0.0124
  288MOL0     H38000   5.520  12.005   2.009 -0.7071  0.0341  0.6582
  288MOL0     H38001   5.725  12.098   1.961 -0.1140  1.6873  0.4153
  288MOL0     H38002   7.875  11.723   1.710  0.7190 -2.4084 -4.0859
  288MOL0     H38003   8.071  11.595   1.707 -0.6372  0.2137 -0.9066
  288MOL0     H38004   8.215  10.964   1.811  0.5077 -0.9694 -2.0176
  288MOL0     H38005   8.446  10.879   1.831 -2.6979 -1.5590 -2.9142
  288MOL0     H38006   8.739  11.164   1.646 -0.9475  0.0277 -0.6400
  288MOL0     H38007   8.651  11.030   1.580  1.7890 -0.8598 -1.3299
  288MOL0     H38008   8.892  11.010   1.555  1.9404  1.8768  1.0250
  288MOL0     H38009   8.899  11.034   1.737 -2.6912  2.1769  0.4913
  288MOL0     H38010   8.778  10.800   1.576 -0.9261 -3.2136  0.6238
  288MOL0     H38011   8.784  10.807   1.749  0.3267  2.0291 -0.0558
  288MOL0     H38012   8.973  10.663   1.679  0.5926  0.1280 -0.3682
  288MOL0     H38013   9.023  10.781   1.554 -3.1231  0.6003 -1.5504
  288MOL0     H38014   9.227  10.916   1.897  0.9020  3.7550 -2.4093
  288MOL0     H38015   8.580  11.299   1.806 -1.4436  1.9796 -0.2294
  288MOL0     H38016   8.355  11.373   1.804  2.6681 -0.2683  0.8263
  289MOL0     O38017   1.100   8.337   8.031 -0.9261 -0.3553 -0.3049
  289MOL0     C38018   1.073   8.312   7.906 -0.7136 -0.4183  0.4758
  289MOL0     O38019   1.158   8.241   7.824 -0.3022  0.0826 -0.1495
  289MOL0     C38020   1.264   8.185   7.885  0.2678  0.5633 -0.0654
  289MOL0     C38021   1.241   8.061   7.951 -0.2423  0.3779  0.5484
  289MOL0     C38022   1.341   7.992   8.015  0.1089  0.0883  0.8566
  289MOL0     C38023   1.468   8.048   8.029 -0.5095 -0.2331 -0.3901
  289MOL0     O38024   1.563   7.990   8.114  0.0177 -0.1542 -0.3425
  289MOL0     C38025   1.702   8.033   8.130  0.0078  0.0681  0.4449
  289MOL0     C38026   1.764   7.919   8.210 -0.6635 -0.4531  0.0633
  289MOL0     C38027   1.917   7.935   8.223  0.0205 -0.7583  0.5709
  289MOL0     C38028   1.988   7.919   8.088  1.5508 -0.7897 -1.7393
  289MOL0     C38029   2.133   7.908   8.094  0.0645  0.1070 -0.2899
  289MOL0     C38030   2.186   7.845   7.968  0.4334  0.2970  0.9338
  289MOL0     C38031   2.333   7.828   7.957 -0.2695 -1.0515 -1.1532
  289MOL0     C38032   2.387   7.708   8.030  1.0296 -0.2362 -0.0351
  289MOL0     N38033   2.519   7.665   7.975  0.2449  0.2980  0.3740
  289MOL0     C38034   2.634   7.731   7.953 -0.6854 -0.4528 -0.2905
  289MOL0     C38035   2.722   7.644   7.902  0.1507 -0.4360  0.1555
  289MOL0     C38036   2.866   7.663   7.875  0.7770  0.1668 -0.5093
  289MOL0     C38037   2.886   7.758   7.750 -1.1005 -0.4200 -0.3739
  289MOL0     C38038   2.882   7.901   7.776 -0.2204  0.4497  0.1752
  289MOL0     C38039   2.875   7.990   7.649  0.6631 -0.3805  0.0170
  289MOL0     O38040   2.747   7.996   7.583  0.8007  0.3596  0.0817
  289MOL0     C38041   2.631   8.042   7.652 -1.7414  0.0620 -0.2764
  289MOL0     C38042   2.513   7.993   7.605  0.6773 -0.3101 -0.0197
  289MOL0     C38043   2.391   8.039   7.652  0.5963 -0.3674 -0.2671
  289MOL0     C38044   2.390   8.130   7.756 -0.1123  0.2421  0.0703
  289MOL0     C38045   2.256   8.166   7.816 -0.2317  0.7934  0.0271
  289MOL0     O38046   2.144   8.137   7.744  0.4487 -0.0522  0.2345
  289MOL0     C38047   2.018   8.190   7.749 -0.5971 -0.2299 -0.1819
  289MOL0     C38048   1.917   8.127   7.675 -0.2736 -0.1747 -0.3626
  289MOL0     C38049   1.791   8.197   7.665 -0.2847  0.4099  0.5053
  289MOL0     C38050   1.763   8.321   7.719  0.4351 -0.4894  0.4306
  289MOL0     O38051   1.640   8.373   7.699  0.0218 -0.1229 -0.5587
  289MOL0     C38052   1.610   8.502   7.758 -0.5355  0.5317 -0.2736
  289MOL0     C38053   1.517   8.579   7.666  0.8052 -0.6964  0.2052
  289MOL0     C38054   1.381   8.507   7.644 -0.1038 -0.4483 -0.0376
  289MOL0     C38055   1.302   8.604   7.548 -1.0513 -0.1491  0.8177
  289MOL0     C38056   1.173   8.545   7.498  0.8518  0.5170 -0.1042
  289MOL0     C38057   1.124   8.631   7.391  0.0807 -0.7763 -0.2537
  289MOL0     C38058   0.998   8.589   7.326  0.2810  0.3643  0.1603
  289MOL0     C38059   0.904   8.697   7.279  0.1386  0.2358 -0.2232
  289MOL0    Cl38060   0.764   8.644   7.179 -0.2752  0.1929 -0.3633
  289MOL0     C38061   1.865   8.376   7.791  0.1475  0.6261 -0.3191
  289MOL0     C38062   1.990   8.320   7.800 -0.1905 -0.3405 -0.2769
  289MOL0     O38063   2.254   8.218   7.926  0.5357  0.0285  0.1928
  289MOL0     C38064   2.512   8.165   7.811  0.6555 -0.0943  0.9021
  289MOL0     C38065   2.634   8.128   7.762  0.0926 -0.1230  0.4870
  289MOL0     N38066   2.653   7.526   7.876 -1.1849 -1.0004  0.0477
  289MOL0     N38067   2.539   7.539   7.943  0.5235  0.1277  0.9245
  289MOL0     C38068   1.492   8.170   7.959  0.1313 -0.4795 -0.7616
  289MOL0     C38069   1.394   8.228   7.885 -0.2826  1.0285 -0.3897
  289MOL0     C38070   0.946   8.361   7.846 -0.6791 -0.8940  0.1291
  289MOL0     C38071   0.848   8.426   7.920  0.1693 -0.3828 -0.4856
  289MOL0     C38072   0.739   8.486   7.859  0.4786  0.3566 -0.4221
  289MOL0     C38073   0.728   8.478   7.718  0.0382 -0.2391 -0.7850
  289MOL0     O38074   0.634   8.553   7.652  0.6797 -0.2014 -0.1507
  289MOL0     C38075   0.588   8.512   7.524  0.3803  0.3294 -0.2211
  289MOL0     C38076   0.531   8.632   7.449  0.0226  0.2315  0.3116
  289MOL0     C38077   0.474   8.579   7.316  0.4999 -0.5317  0.0681
  289MOL0     C38078   0.412   8.699   7.244 -0.1269 -0.0765  0.4403
  289MOL0     C38079   0.322   8.668   7.134 -0.3085 -0.5851  0.5932
  289MOL0     C38080   0.248   8.651   7.038 -0.2227 -0.2931 -0.4240
  289MOL0     C38081   0.823   8.406   7.645  0.3043 -0.0486  0.1958
  289MOL0     C38082   0.924   8.340   7.711  0.3032  0.2011 -0.3028
  289MOL0     H38083   1.139   8.022   7.947  0.6593 -2.1672  0.9736
  289MOL0     H38084   1.311   7.900   8.064 -0.1513 -1.0180 -1.2628
  289MOL0     H38085   1.703   8.128   8.185 -1.8433 -0.2413  1.0799
  289MOL0     H38086   1.741   8.050   8.029 -0.2442  2.4097  0.6917
  289MOL0     H38087   1.752   7.817   8.173  1.1673 -0.3774 -0.8432
  289MOL0     H38088   1.725   7.948   8.308  1.7667 -0.1228  0.9883
  289MOL0     H38089   1.957   7.853   8.283  1.4258  1.7689  3.4467
  289MOL0     H38090   1.948   8.025   8.279  0.8433  1.0320 -2.5108
  289MOL0     H38091   1.943   7.832   8.041 -1.8063  1.5017 -3.1800
  289MOL0     H38092   1.962   8.003   8.023  0.0118 -1.1475 -1.6266
  289MOL0     H38093   2.150   7.837   8.175 -0.7615  0.4890  0.2287
  289MOL0     H38094   2.188   8.002   8.100  4.6055 -2.3402  1.4779
  289MOL0     H38095   2.155   7.909   7.884 -1.0971 -3.5964 -1.7729
  289MOL0     H38096   2.148   7.745   7.949  0.4738  0.1792  1.4597
  289MOL0     H38097   2.355   7.816   7.851 -1.6075 -0.6621 -1.4976
  289MOL0     H38098   2.383   7.915   8.001 -2.7068 -0.6452  1.0854
  289MOL0     H38099   2.316   7.626   8.019  1.0566 -0.2522 -0.0958
  289MOL0     H38100   2.383   7.728   8.137 -1.9666 -1.1180  0.0982
  289MOL0     H38101   2.663   7.829   7.989 -0.7062 -1.3207  2.2737
  289MOL0     H38102   2.899   7.566   7.836 -0.1770 -0.2243 -0.3730
  289MOL0     H38103   2.919   7.696   7.965  1.2512 -0.2142 -0.6456
  289MOL0     H38104   2.813   7.735   7.672 -1.7113  0.9143 -0.2269
  289MOL0     H38105   2.985   7.731   7.712 -0.4448 -0.2463  1.1387
  289MOL0     H38106   2.802   7.927   7.846 -1.6369  0.1487 -1.2627
  289MOL0     H38107   2.970   7.924   7.836  0.0571 -0.6560  0.2164
  289MOL0     H38108   2.947   7.954   7.575 -0.0536  1.4206 -1.6538
  289MOL0     H38109   2.919   8.086   7.679  2.2847 -1.2828  0.6483
  289MOL0     H38110   2.504   7.921   7.524 -3.7287  0.7715 -0.7308
  289MOL0     H38111   2.298   8.000   7.611  0.3268  2.0967 -2.2067
  289MOL0     H38112   1.940   8.031   7.629  2.9571 -0.2956  1.2434
  289MOL0     H38113   1.715   8.152   7.602  0.3971 -0.2032  0.0975
  289MOL0     H38114   1.684   8.579   7.783  0.8508 -1.0513  0.7058
  289MOL0     H38115   1.559   8.479   7.852  0.2080 -1.9154 -0.3835
  289MOL0     H38116   1.565   8.584   7.568 -4.0590 -1.0736 -2.4613
  289MOL0     H38117   1.505   8.682   7.700 -1.1008 -0.5490 -0.8064
  289MOL0     H38118   1.312   8.507   7.729  1.0522  1.0705  0.9483
  289MOL0     H38119   1.401   8.413   7.592 -1.5328 -0.1900 -1.1350
  289MOL0     H38120   1.289   8.708   7.578  0.1078  0.5397 -0.9342
  289MOL0     H38121   1.369   8.608   7.462  1.1413  0.2494  2.4634
  289MOL0     H38122   1.106   8.530   7.584  0.8177 -0.6905 -0.3285
  289MOL0     H38123   1.175   8.444   7.457 -2.7988  0.6813 -1.0752
  289MOL0     H38124   1.209   8.627   7.323  0.6601  0.9931  0.3259
  289MOL0     H38125   1.114   8.731   7.435  0.9957 -1.1964  0.9606
  289MOL0     H38126   1.014   8.518   7.244  0.3679 -0.2237  0.6792
  289MOL0     H38127   0.955   8.529   7.406  1.0180 -1.3597 -0.6873
  289MOL0     H38128   0.956   8.766   7.212 -1.3710  1.8917  0.2031
  289MOL0     H38129   0.865   8.753   7.365 -1.8905  2.5287 -2.4528
  289MOL0     H38130   1.855   8.474   7.837  1.1221  1.1728 -1.1964
  289MOL0     H38131   2.071   8.365   7.858 -0.6236 -0.0959  0.1443
  289MOL0     H38132   2.513   8.218   7.907 -0.2028  1.7844 -0.0646
  289MOL0     H38133   2.726   8.153   7.814 -0.1092  2.0229 -0.0819
  289MOL0     H38134   1.590   8.215   7.971 -0.5188  0.6154  0.6606
  289MOL0     H38135   1.418   8.317   7.827  0.9886  0.7697 -0.2955
  289MOL0     H38136   0.852   8.430   8.029 -0.1865 -2.1820 -0.3722
  289MOL0     H38137   0.655   8.532   7.910 -0.6776  0.0123 -1.9456
  289MOL0     H38138   0.521   8.426   7.533  0.3931  0.3540  0.1494
  289MOL0     H38139   0.671   8.481   7.461  0.2901  0.6617 -0.5051
  289MOL0     H38140   0.443   8.657   7.509 -2.0284 -2.6186 -1.2591
  289MOL0     H38141   0.601   8.716   7.442 -1.9588  1.8718 -1.9757
  289MOL0     H38142   0.393   8.515   7.352 -0.8116  1.0219  0.0113
  289MOL0     H38143   0.552   8.525   7.262  2.6169  0.6393  1.7487
  289MOL0     H38144   0.351   8.763   7.308  1.9312  2.1081  0.3678
  289MOL0     H38145   0.498   8.752   7.203 -0.6628 -0.3092 -1.0456
  289MOL0     H38146   0.181   8.635   6.956 -1.1299 -2.1648  0.6009
  289MOL0     H38147   0.829   8.393   7.538  1.1200  2.2282 -0.0868
  289MOL0     H38148   0.991   8.284   7.646 -0.6583 -1.2797 -0.0778
  290MOL0     O38149   2.326   9.911   2.859  0.4495 -0.4668 -0.6659
  290MOL0     C38150   2.412   9.919   2.767 -0.4351  0.7204 -0.3971
  290MOL0     O38151   2.393   9.893   2.627 -0.7760 -0.5144  0.2129
  290MOL0     C38152   2.268   9.877   2.575  0.4638  0.5577 -0.2264
  290MOL0     C38153   2.220   9.964   2.479 -0.1378  0.1487  0.0380
  290MOL0     C38154   2.083   9.962   2.435  0.3187 -0.3342 -0.6091
  290MOL0     C38155   1.993   9.869   2.490  0.5330 -0.6280  0.6864
  290MOL0     O38156   1.858   9.868   2.449 -0.4473  0.3962 -0.0001
  290MOL0     C38157   1.798   9.979   2.379  0.4097  0.1868 -0.2626
  290MOL0     C38158   1.802   9.961   2.224  0.2166 -0.7705 -0.5536
  290MOL0     C38159   1.740   9.830   2.181 -0.2990  0.7223 -0.2408
  290MOL0     C38160   1.743   9.827   2.031 -0.6526 -0.7330  0.2447
  290MOL0     C38161   1.712   9.688   1.980  0.8590 -0.4189 -0.0255
  290MOL0     C38162   1.726   9.693   1.826  0.2654  0.0429  1.3054
  290MOL0     C38163   1.715   9.557   1.766 -0.3803 -0.0792 -0.2092
  290MOL0     C38164   1.575   9.509   1.760 -0.3461 -0.1434  0.5387
  290MOL0     N38165   1.571   9.382   1.684 -0.0329 -0.3509  0.6227
  290MOL0     C38166   1.595   9.369   1.546 -0.4405 -0.1904 -0.2108
  290MOL0     C38167   1.573   9.248   1.505  0.1444 -0.6234  0.8464
  290MOL0     C38168   1.621   9.185   1.373  0.0562  0.1446  0.5227
  290MOL0     C38169   1.517   9.095   1.306  0.3384 -0.0614 -0.0832
  290MOL0     C38170   1.430   9.190   1.218  0.2811 -0.3975  0.1952
  290MOL0     C38171   1.297   9.126   1.170 -0.5448  0.4402 -0.1252
  290MOL0     O38172   1.321   8.988   1.112  0.5761  0.4936 -0.5395
  290MOL0     C38173   1.216   8.917   1.061 -0.8702 -0.5011 -0.6506
  290MOL0     C38174   1.120   8.959   0.967  0.1769 -0.4608  0.5710
  290MOL0     C38175   1.003   8.897   0.939 -0.7622 -0.0993  0.1556
  290MOL0     C38176   0.977   8.771   1.003 -0.4321 -0.1828 -0.4510
  290MOL0     C38177   0.859   8.703   0.961  0.3490 -0.1146  0.3262
  290MOL0     O38178   0.764   8.773   0.884  0.1541  0.4034 -0.2207
  290MOL0     C38179   0.657   8.702   0.844  0.3718  0.1657 -0.1200
  290MOL0     C38180   0.632   8.698   0.710 -0.7975  0.7792 -0.1744
  290MOL0     C38181   0.527   8.626   0.655  0.0080 -0.0861 -1.4749
  290MOL0     C38182   0.443   8.554   0.737 -0.4010  0.2651 -1.0510
  290MOL0     O38183   0.342   8.483   0.684 -0.4991  0.3816  0.0221
  290MOL0     C38184   0.220   8.547   0.723  0.2986 -0.3991  0.0819
  290MOL0     C38185   0.135   8.567   0.599 -0.7059  0.1908  1.0401
  290MOL0     C38186   0.012   8.653   0.622  0.5711 -0.1752 -0.6574
  290MOL0     C38187  -0.112   8.603   0.541 -0.1457 -0.5093  0.1086
  290MOL0     C38188  -0.226   8.702   0.542  0.2122  0.3909 -0.8586
  290MOL0     C38189  -0.305   8.701   0.669  1.6168  0.0222  0.3361
  290MOL0     C38190  -0.413   8.589   0.668 -0.1076 -0.3810  0.3049
  290MOL0     C38191  -0.541   8.626   0.600 -0.2909 -0.4624  0.2870
  290MOL0    Cl38192  -0.643   8.488   0.583  0.2025  0.4442  0.5329
  290MOL0     C38193   0.464   8.558   0.880 -0.0886 -0.8781 -0.1203
  290MOL0     C38194   0.571   8.632   0.926 -0.4012  0.6911  0.0534
  290MOL0     O38195   0.845   8.589   1.004  0.1488  0.6258  0.4281
  290MOL0     C38196   1.071   8.721   1.090 -0.3610 -0.0371 -0.2353
  290MOL0     C38197   1.187   8.796   1.130 -0.1535  0.1770  0.3389
  290MOL0     N38198   1.525   9.184   1.608 -1.2489 -0.5431  0.0815
  290MOL0     N38199   1.531   9.256   1.716 -0.3430 -0.5008  0.5692
  290MOL0     C38200   2.045   9.783   2.588  0.0073 -0.1717 -0.3476
  290MOL0     C38201   2.181   9.776   2.619  0.1654 -0.0972 -0.6683
  290MOL0     C38202   2.546   9.954   2.817 -0.7048  0.0172  0.4587
  290MOL0     C38203   2.655   9.950   2.726 -0.3167 -0.0206 -0.1157
  290MOL0     C38204   2.784  10.002   2.762 -0.1404 -0.1132 -0.0372
  290MOL0     C38205   2.806  10.044   2.897 -0.7880  0.0365  0.9323
  290MOL0     O38206   2.934  10.079   2.943  0.4098  0.2530 -0.4897
  290MOL0     C38207   3.049  10.058   2.874  0.5651 -0.5240 -0.0813
  290MOL0     C38208   3.080  10.182   2.785 -0.6473  0.0392 -0.4146
  290MOL0     C38209   3.132  10.300   2.858  0.8310  0.1300  0.8647
  290MOL0     C38210   3.135  10.430   2.771 -0.0806 -0.0394 -1.4135
  290MOL0     C38211   3.256  10.428   2.691  0.1043  0.5126 -1.1400
  290MOL0     C38212   3.363  10.459   2.638 -0.0589  0.4407 -0.2566
  290MOL0     C38213   2.698  10.048   2.977 -0.0270  0.6527  0.3559
  290MOL0     C38214   2.569  10.002   2.949 -0.2023  0.0605  0.2834
  290MOL0     H38215   2.296  10.030   2.441  2.3411 -0.9278  2.7266
  290MOL0     H38216   2.060  10.037   2.359  0.9297  0.0463 -0.4205
  290MOL0     H38217   1.851  10.070   2.407 -1.1793  1.5240 -1.3915
  290MOL0     H38218   1.694   9.995   2.408  0.5258  1.2902 -0.3922
  290MOL0     H38219   1.910   9.959   2.205  0.9726  1.1046  2.6613
  290MOL0     H38220   1.758  10.042   2.166 -0.9721 -0.3062  0.9314
  290MOL0     H38221   1.634   9.819   2.203  0.0222 -2.4067  0.2229
  290MOL0     H38222   1.802   9.753   2.228 -1.0579  0.5434  0.4771
  290MOL0     H38223   1.667   9.897   1.995 -1.0078 -0.6086  1.1974
  290MOL0     H38224   1.841   9.863   2.000 -0.9218  1.1807  1.4321
  290MOL0     H38225   1.604   9.678   1.991  0.5681  1.6152 -0.5383
  290MOL0     H38226   1.775   9.615   2.031 -1.3361 -2.4039  0.0166
  290MOL0     H38227   1.823   9.737   1.802 -0.6018  0.8318 -1.0301
  290MOL0     H38228   1.651   9.760   1.782  2.0607  3.6958  3.2891
  290MOL0     H38229   1.758   9.559   1.666 -0.6168 -0.1845 -0.3117
  290MOL0     H38230   1.776   9.492   1.829  0.0583  3.5035  3.5307
  290MOL0     H38231   1.504   9.581   1.717  0.3900  0.8236  0.8913
  290MOL0     H38232   1.533   9.491   1.860 -1.4387 -0.2410  0.0727
  290MOL0     H38233   1.633   9.451   1.487  0.4878  0.4616  1.2316
  290MOL0     H38234   1.705   9.119   1.398  0.4841  0.7508  0.7019
  290MOL0     H38235   1.650   9.265   1.305 -1.4853  0.7418  0.5158
  290MOL0     H38236   1.453   9.058   1.386 -1.0451 -0.4886 -1.3351
  290MOL0     H38237   1.564   9.015   1.248 -3.6948 -1.3360 -1.9711
  290MOL0     H38238   1.410   9.282   1.274 -3.5356  0.7017 -2.5884
  290MOL0     H38239   1.489   9.202   1.127  2.0546 -3.3467  0.8388
  290MOL0     H38240   1.243   9.190   1.100 -1.5516 -1.0264 -0.7392
  290MOL0     H38241   1.229   9.107   1.254 -1.0274  0.6171 -0.4704
  290MOL0     H38242   1.136   9.061   0.934  2.6436 -0.7627  0.6324
  290MOL0     H38243   0.942   8.945   0.864  2.1478 -0.7074 -2.8216
  290MOL0     H38244   0.694   8.748   0.636  1.4361 -2.0249 -0.3789
  290MOL0     H38245   0.520   8.617   0.547  0.4595  1.6027 -1.6742
  290MOL0     H38246   0.226   8.636   0.787 -1.1672 -0.0281 -0.2578
  290MOL0     H38247   0.171   8.474   0.788  2.2392 -1.0293  0.8921
  290MOL0     H38248   0.101   8.474   0.552 -0.4973  1.5466 -2.0213
  290MOL0     H38249   0.201   8.616   0.528  2.8734 -2.3644  2.3438
  290MOL0     H38250   0.025   8.754   0.582 -1.7284  0.2211 -0.5385
  290MOL0     H38251  -0.021   8.658   0.726 -0.5330 -0.6812 -0.9671
  290MOL0     H38252  -0.083   8.576   0.439  1.4351  1.1364  0.0753
  290MOL0     H38253  -0.133   8.505   0.585 -0.0340 -0.3755  0.4642
  290MOL0     H38254  -0.291   8.660   0.465  1.8628 -2.0328 -1.0471
  290MOL0     H38255  -0.181   8.799   0.518 -1.2893  1.3854  0.1632
  290MOL0     H38256  -0.359   8.795   0.681  0.6631 -0.5764  0.9136
  290MOL0     H38257  -0.244   8.688   0.759  1.2711  3.4562  1.1935
  290MOL0     H38258  -0.361   8.502   0.627  0.9939  0.6377 -0.5529
  290MOL0     H38259  -0.447   8.562   0.768 -3.3064  0.7371 -0.3805
  290MOL0     H38260  -0.525   8.673   0.503 -0.5298 -0.8773  0.0433
  290MOL0     H38261  -0.593   8.698   0.665  2.4310 -0.4618  2.6487
  290MOL0     H38262   0.397   8.507   0.949  1.1421  0.5605  2.2713
  290MOL0     H38263   0.597   8.644   1.031  1.6041 -2.3830  0.0248
  290MOL0     H38264   1.051   8.623   1.131  1.8122 -0.5057 -0.1437
  290MOL0     H38265   1.249   8.762   1.212 -0.8821  2.1191  1.7490
  290MOL0     H38266   1.981   9.700   2.616 -0.2206  0.5354  1.3617
  290MOL0     H38267   2.215   9.710   2.698  2.1277  0.5026 -0.9763
  290MOL0     H38268   2.643   9.899   2.631  3.3973 -0.6247 -0.4116
  290MOL0     H38269   2.866  10.012   2.692  0.3417 -1.0057  0.3891
  290MOL0     H38270   3.036   9.967   2.813 -0.3939 -2.3953  2.7317
  290MOL0     H38271   3.137  10.036   2.935  0.5873 -0.2638 -0.0182
  290MOL0     H38272   3.148  10.156   2.704 -1.4025  1.3885 -1.5214
  290MOL0     H38273   2.990  10.213   2.731 -0.5608 -0.7666 -1.0283
  290MOL0     H38274   3.233  10.287   2.899  0.3756 -0.4596  1.8216
  290MOL0     H38275   3.059  10.310   2.939 -0.4321 -0.1082 -0.2186
  290MOL0     H38276   3.046  10.446   2.710 -1.0687  0.6861  0.1471
  290MOL0     H38277   3.149  10.518   2.835  3.0782 -0.4632 -1.3543
  290MOL0     H38278   3.446  10.478   2.574  1.6027  1.4686  2.0611
  290MOL0     H38279   2.725  10.082   3.077  5.4854  2.1559 -1.3207
  290MOL0     H38280   2.489   9.994   3.022 -0.2150 -0.3130  0.2342
  291MOL0     O38281  10.535   2.508   6.223 -0.1985  0.5811 -0.6931
  291MOL0     C38282  10.509   2.605   6.298 -0.1375 -0.3808 -0.4968
  291MOL0     O38283  10.391   2.657   6.334 -0.5847 -0.5966 -0.1938
  291MOL0     C38284  10.268   2.600   6.315 -0.3951  0.3405  0.0064
  291MOL0     C38285  10.164   2.608   6.415 -0.2413  1.2893 -0.8140
  291MOL0     C38286  10.041   2.548   6.403  0.4309 -0.9640 -0.2442
  291MOL0     C38287  10.009   2.482   6.288  0.4510  0.4123  0.6835
  291MOL0     O38288   9.879   2.442   6.284  0.5131  0.1988 -0.1953
  291MOL0     C38289   9.838   2.355   6.175 -0.7162  0.0534 -0.1464
  291MOL0     C38290   9.690   2.318   6.188  0.0181  0.4755 -0.5178
  291MOL0     C38291   9.603   2.450   6.203  0.5162  0.3995 -0.1661
  291MOL0     C38292   9.453   2.426   6.238 -0.0801 -1.0314  0.3321
  291MOL0     C38293   9.364   2.548   6.246 -0.6648 -0.0553 -0.8326
  291MOL0     C38294   9.346   2.602   6.108 -0.4546 -0.9883 -0.7745
  291MOL0     C38295   9.233   2.709   6.107 -0.5622  0.2888  0.5267
  291MOL0     C38296   9.093   2.654   6.080 -0.4314 -0.0888 -0.1587
  291MOL0     N38297   9.008   2.775   6.086  0.0134 -0.2407 -0.6332
  291MOL0     C38298   8.974   2.834   6.207 -0.2766  0.1981 -0.4740
  291MOL0     C38299   8.858   2.908   6.178 -0.3882  0.7068 -0.0777
  291MOL0     C38300   8.779   2.980   6.286  0.4071 -0.5954  0.1140
  291MOL0     C38301   8.656   3.057   6.233 -0.1801 -0.7004 -0.0127
  291MOL0     C38302   8.690   3.186   6.156  0.5956 -0.1592 -0.1048
  291MOL0     C38303   8.569   3.246   6.085 -0.6512 -0.2010  0.6692
  291MOL0     O38304   8.457   3.294   6.160  0.2458  0.5425 -0.4421
  291MOL0     C38305   8.347   3.317   6.085  0.1618  0.4210  0.3019
  291MOL0     C38306   8.339   3.325   5.945 -0.6398 -1.3604 -0.1743
  291MOL0     C38307   8.224   3.364   5.877 -0.0679 -0.6438 -0.4108
  291MOL0     C38308   8.102   3.398   5.950  0.2094 -0.7270  0.0055
  291MOL0     C38309   7.970   3.418   5.880 -0.2914  0.2259 -0.3106
  291MOL0     O38310   7.860   3.421   5.968  0.2038 -0.0022  0.5079
  291MOL0     C38311   7.729   3.433   5.928 -1.2283 -0.9899  0.2346
  291MOL0     C38312   7.682   3.339   5.834  0.2588  0.1975 -0.3704
  291MOL0     C38313   7.539   3.332   5.813  0.2279  0.5614  0.5607
  291MOL0     C38314   7.448   3.415   5.881  0.0264  0.1294  0.0497
  291MOL0     O38315   7.319   3.413   5.860 -0.5024 -0.4438  0.6432
  291MOL0     C38316   7.250   3.294   5.838  0.3789  0.4417  0.4424
  291MOL0     C38317   7.203   3.273   5.694 -0.5174  0.5628 -0.2703
  291MOL0     C38318   7.159   3.121   5.681  0.2285 -0.2199  0.3165
  291MOL0     C38319   7.053   3.103   5.571  0.1793 -0.6015  0.4728
  291MOL0     C38320   6.997   2.958   5.561 -0.2941 -0.5119  0.7671
  291MOL0     C38321   6.904   2.946   5.431  0.1063  0.3626  0.6627
  291MOL0     C38322   6.772   3.015   5.462  0.1170  0.1738  0.4861
  291MOL0     C38323   6.669   2.975   5.355 -1.1500 -0.1913  0.2937
  291MOL0    Cl38324   6.501   3.024   5.399  0.3834  0.1682 -0.3083
  291MOL0     C38325   7.502   3.510   5.973  0.0253  0.1135  1.1100
  291MOL0     C38326   7.641   3.516   5.994 -0.2633  0.0474 -0.2724
  291MOL0     O38327   7.965   3.423   5.764 -0.5530 -0.3843  0.6166
  291MOL0     C38328   8.111   3.387   6.093  0.2224 -0.8369  0.0476
  291MOL0     C38329   8.231   3.346   6.155  0.4343  0.7816  0.7661
  291MOL0     N38330   8.821   2.879   6.053 -0.5381 -0.0604  0.7014
  291MOL0     N38331   8.916   2.808   5.999 -0.0581  0.0311  0.0796
  291MOL0     C38332  10.110   2.473   6.186 -0.9052 -0.9558  0.1184
  291MOL0     C38333  10.236   2.522   6.207 -0.8800  0.3634 -0.8429
  291MOL0     C38334  10.633   2.687   6.337 -0.4821  0.9177 -0.2930
  291MOL0     C38335  10.765   2.631   6.320  0.9408  0.7928 -0.0082
  291MOL0     C38336  10.875   2.705   6.351 -0.8839  0.0243  0.2493
  291MOL0     C38337  10.863   2.833   6.415 -0.5241  0.1697  0.4539
  291MOL0     O38338  10.978   2.905   6.459 -0.1724 -0.3103  0.0737
  291MOL0     C38339  11.097   2.832   6.492  0.2081 -0.7748  0.7609
  291MOL0     C38340  11.182   2.900   6.592  0.0070  0.2103 -0.0440
  291MOL0     C38341  11.265   3.021   6.527  0.2395  0.4343  0.1858
  291MOL0     C38342  11.401   3.043   6.587  0.1593 -0.2269 -0.8192
  291MOL0     C38343  11.407   3.028   6.731 -0.0593  0.0511 -0.4403
  291MOL0     C38344  11.418   2.989   6.841  0.1509  0.2952 -0.6828
  291MOL0     C38345  10.736   2.888   6.430  0.2091 -0.7594  0.0614
  291MOL0     C38346  10.624   2.819   6.389 -0.2270  0.4245 -0.4237
  291MOL0     H38347  10.192   2.659   6.506 -2.0198 -1.4327  1.4446
  291MOL0     H38348   9.969   2.560   6.484  1.1281  2.7213  0.0193
  291MOL0     H38349   9.903   2.268   6.161  1.5642  1.2795  2.1041
  291MOL0     H38350   9.845   2.424   6.090 -2.9152  1.3648  0.6621
  291MOL0     H38351   9.694   2.247   6.271 -0.2238 -2.3308 -2.7742
  291MOL0     H38352   9.669   2.258   6.099  1.3739 -0.1402 -0.4378
  291MOL0     H38353   9.603   2.497   6.104 -1.9207  0.4328 -0.2138
  291MOL0     H38354   9.640   2.523   6.275  1.2306  1.0990 -1.2152
  291MOL0     H38355   9.400   2.354   6.175  0.5462  0.7664 -2.4259
  291MOL0     H38356   9.457   2.367   6.330 -1.1812  1.1324  1.8503
  291MOL0     H38357   9.413   2.621   6.311 -2.4438  1.6381 -1.3106
  291MOL0     H38358   9.272   2.523   6.300 -0.1584 -4.5145 -1.6586
  291MOL0     H38359   9.323   2.517   6.044  1.1004 -2.9066  1.0649
  291MOL0     H38360   9.441   2.649   6.079 -0.3820  0.9539  2.2118
  291MOL0     H38361   9.233   2.765   6.201 -0.6984  4.2464 -1.6311
  291MOL0     H38362   9.253   2.783   6.029 -2.3030  0.7661  0.4915
  291MOL0     H38363   9.063   2.578   6.153  1.0903  0.3839  1.0149
  291MOL0     H38364   9.074   2.613   5.980 -2.2942 -1.4289  0.6957
  291MOL0     H38365   9.021   2.824   6.304  2.6796  3.2191 -1.4146
  291MOL0     H38366   8.849   3.046   6.339 -0.4716 -0.0248  0.5928
  291MOL0     H38367   8.750   2.907   6.362  0.9535  0.0862  0.9913
  291MOL0     H38368   8.600   3.085   6.323  0.1756 -0.6699  0.2017
  291MOL0     H38369   8.597   2.993   6.166 -3.3205  0.0071  1.8930
  291MOL0     H38370   8.722   3.267   6.222  0.1319  2.2198 -2.6246
  291MOL0     H38371   8.777   3.171   6.092  1.1747 -1.7371  0.9870
  291MOL0     H38372   8.559   3.171   6.005  1.4030 -0.6776  0.8188
  291MOL0     H38373   8.608   3.334   6.033  1.9774 -1.4854  0.3195
  291MOL0     H38374   8.427   3.301   5.886  0.8901  1.8872  0.5443
  291MOL0     H38375   8.219   3.368   5.768 -1.5226 -1.9052 -0.4241
  291MOL0     H38376   7.750   3.274   5.780 -0.8516 -2.0873  0.8316
  291MOL0     H38377   7.503   3.265   5.736  1.0224 -0.1032  0.7500
  291MOL0     H38378   7.165   3.301   5.907  1.1018 -0.7768  1.5076
  291MOL0     H38379   7.302   3.207   5.878 -2.3878 -0.5126  2.2991
  291MOL0     H38380   7.285   3.296   5.625  0.2222  0.4348  0.5512
  291MOL0     H38381   7.116   3.338   5.677  0.5705  2.3015  0.5625
  291MOL0     H38382   7.106   3.102   5.775  2.0048 -1.3423  1.1480
  291MOL0     H38383   7.244   3.053   5.667 -0.0735 -0.1202 -2.3326
  291MOL0     H38384   6.971   3.171   5.598  1.0529  1.6441 -2.0610
  291MOL0     H38385   7.079   3.141   5.472 -5.3292  1.9269 -0.4214
  291MOL0     H38386   6.943   2.932   5.652  0.3858  1.9413  1.9424
  291MOL0     H38387   7.077   2.886   5.539  0.7139  1.2018 -1.6291
  291MOL0     H38388   6.897   2.838   5.415  1.7851  0.1827  0.9563
  291MOL0     H38389   6.960   2.988   5.347  1.1243  0.7956  1.5414
  291MOL0     H38390   6.734   2.980   5.558  0.0139 -3.4661 -0.7569
  291MOL0     H38391   6.780   3.123   5.443 -2.3455  0.7044  2.0519
  291MOL0     H38392   6.669   2.867   5.337  2.3332 -0.2336 -0.1830
  291MOL0     H38393   6.684   3.027   5.260  0.8590 -0.7947  0.2400
  291MOL0     H38394   7.445   3.573   6.040  1.0496  1.6111  0.6261
  291MOL0     H38395   7.683   3.578   6.072 -1.7091 -0.6107  1.0872
  291MOL0     H38396   8.023   3.398   6.156 -0.7367 -0.5446 -1.3151
  291MOL0     H38397   8.224   3.342   6.263 -0.8571  0.1295  0.6729
  291MOL0     H38398  10.084   2.412   6.101  2.4407 -1.1502 -0.8900
  291MOL0     H38399  10.304   2.489   6.129 -0.1610  0.4264 -0.2607
  291MOL0     H38400  10.775   2.532   6.277 -0.6090  0.0361  1.2617
  291MOL0     H38401  10.972   2.659   6.331 -0.2929  0.7272  1.3688
  291MOL0     H38402  11.164   2.827   6.406  0.8143 -2.1771  1.2841
  291MOL0     H38403  11.067   2.737   6.537 -1.7695 -1.2068 -1.2644
  291MOL0     H38404  11.127   2.937   6.678 -2.4592  1.6242 -2.0803
  291MOL0     H38405  11.258   2.831   6.628  0.3995  1.6367  1.9731
  291MOL0     H38406  11.209   3.115   6.537  0.5892  0.4069  3.6731
  291MOL0     H38407  11.272   2.997   6.421  0.9842 -1.6392  0.6576
  291MOL0     H38408  11.461   2.968   6.535  0.1371 -0.4684 -0.4972
  291MOL0     H38409  11.450   3.136   6.557 -0.7308 -0.0872 -1.9541
  291MOL0     H38410  11.428   2.947   6.939 -1.0540 -1.3707 -1.2377
  291MOL0     H38411  10.725   2.980   6.485  0.3406  0.3986 -1.7776
  291MOL0     H38412  10.530   2.868   6.410 -0.3456 -0.2676  0.7705
  292MOL0     O38413   6.389   2.135  10.350 -0.2821 -0.0408  0.2145
  292MOL0     C38414   6.407   2.234  10.418 -0.3292  0.5917 -0.1402
  292MOL0     O38415   6.311   2.312  10.483 -0.1342  0.0642 -0.3481
  292MOL0     C38416   6.179   2.303  10.440 -0.4099 -0.1732  0.4880
  292MOL0     C38417   6.139   2.274  10.306  0.0687 -0.9486 -0.5601
  292MOL0     C38418   6.002   2.272  10.276  0.0248  0.0679 -0.2862
  292MOL0     C38419   5.900   2.291  10.374 -0.5280 -0.1461 -0.2711
  292MOL0     O38420   5.772   2.282  10.335 -0.2786 -0.8775  0.5232
  292MOL0     C38421   5.672   2.329  10.421  0.6464 -0.4859  0.4485
  292MOL0     C38422   5.545   2.305  10.354  0.0211 -0.3342 -0.0885
  292MOL0     C38423   5.430   2.302  10.455 -0.6446 -0.2795 -0.2468
  292MOL0     C38424   5.294   2.317  10.384 -0.6448  0.3657  0.7569
  292MOL0     C38425   5.175   2.288  10.473 -0.1660  0.2425  0.6660
  292MOL0     C38426   5.041   2.288  10.401 -0.2498  0.6748 -0.1512
  292MOL0     C38427   4.939   2.201  10.476 -0.3716  0.2629 -0.9338
  292MOL0     C38428   4.802   2.245  10.423 -0.8398  0.6756 -0.0663
  292MOL0     N38429   4.698   2.244  10.527  0.3438  0.6073 -0.0115
  292MOL0     C38430   4.683   2.135  10.614  0.5501 -0.2785 -0.2504
  292MOL0     C38431   4.598   2.177  10.710 -0.9740  0.2697 -0.7036
  292MOL0     C38432   4.552   2.097  10.836  0.4484 -0.3835 -0.4741
  292MOL0     C38433   4.399   2.099  10.843 -0.3817 -0.3802 -0.5435
  292MOL0     C38434   4.345   2.010  10.729  0.0059  0.3433 -0.5799
  292MOL0     C38435   4.364   1.864  10.744 -0.3400 -0.4721  0.1555
  292MOL0     O38436   4.291   1.785  10.652  0.9347  0.3286  0.4150
  292MOL0     C38437   4.167   1.734  10.695 -1.0896 -0.1277 -0.4470
  292MOL0     C38438   4.102   1.650  10.601  0.0032  0.3011 -0.5434
  292MOL0     C38439   3.979   1.606  10.623  0.6788 -0.4372 -0.5073
  292MOL0     C38440   3.906   1.655  10.741  0.0734 -0.3133  0.3877
  292MOL0     C38441   3.769   1.608  10.753 -0.2194  0.1438 -0.0366
  292MOL0     O38442   3.687   1.685  10.833 -0.3182 -0.7700 -0.0913
  292MOL0     C38443   3.569   1.639  10.883  0.1903 -0.3527  0.1078
  292MOL0     C38444   3.553   1.679  11.018  0.2239 -0.6036 -0.7339
  292MOL0     C38445   3.431   1.654  11.079 -0.3612 -0.1723 -0.0615
  292MOL0     C38446   3.325   1.580  11.016 -0.3018 -0.4961 -0.2554
  292MOL0     O38447   3.216   1.547  11.096  0.1966  0.1352  0.0959
  292MOL0     C38448   3.092   1.507  11.032 -0.6673  0.9761 -0.9173
  292MOL0     C38449   2.976   1.496  11.133  0.2977 -0.0981 -0.5037
  292MOL0     C38450   3.001   1.393  11.234 -0.3867  0.4465 -0.6787
  292MOL0     C38451   2.885   1.370  11.323  0.9550 -0.5759 -0.0590
  292MOL0     C38452   2.879   1.241  11.408  0.3500  1.2029 -1.0320
  292MOL0     C38453   2.821   1.124  11.327 -0.0715 -0.0359  0.4113
  292MOL0     C38454   2.792   0.995  11.410  0.5391  0.5678 -0.2748
  292MOL0     C38455   2.699   0.891  11.337 -0.3929  0.9835  0.4598
  292MOL0    Cl38456   2.718   0.879  11.163  0.1702  0.3953 -0.1142
  292MOL0     C38457   3.341   1.564  10.876  0.0874 -0.2726 -0.4173
  292MOL0     C38458   3.464   1.586  10.810  0.5506  0.6280 -0.7742
  292MOL0     O38459   3.729   1.510  10.684 -0.0521 -0.6336 -0.5642
  292MOL0     C38460   3.973   1.743  10.838  1.0161 -0.0040  0.1233
  292MOL0     C38461   4.103   1.780  10.812  0.2254  0.2931  0.0466
  292MOL0     N38462   4.579   2.308  10.695  0.5702 -1.2863  0.7880
  292MOL0     N38463   4.640   2.348  10.589 -0.8291 -0.1103  0.0633
  292MOL0     C38464   5.938   2.335  10.504  0.9535  0.0140  0.2093
  292MOL0     C38465   6.075   2.341  10.527 -0.4280  0.4368 -0.4572
  292MOL0     C38466   6.553   2.260  10.437  0.1416  0.1576 -1.3292
  292MOL0     C38467   6.587   2.371  10.505  0.1897  0.6139 -0.5621
  292MOL0     C38468   6.718   2.395  10.537  0.1330  0.0882 -0.2060
  292MOL0     C38469   6.817   2.302  10.505 -0.6204  0.1126 -0.3538
  292MOL0     O38470   6.940   2.340  10.546 -0.1045 -0.8457 -0.4061
  292MOL0     C38471   7.051   2.262  10.505 -0.5731  0.5738 -0.1135
  292MOL0     C38472   7.185   2.335  10.543 -0.0890 -0.1472 -0.2125
  292MOL0     C38473   7.197   2.335  10.692 -0.8318  0.2647 -0.7585
  292MOL0     C38474   7.332   2.409  10.731  0.2916  0.3590 -0.5686
  292MOL0     C38475   7.330   2.553  10.720 -0.7100 -0.6310  0.9292
  292MOL0     C38476   7.316   2.675  10.716  0.1314  0.3764 -0.0745
  292MOL0     C38477   6.787   2.186  10.436 -0.5955  1.0369 -1.6739
  292MOL0     C38478   6.652   2.162  10.406  0.3442 -0.0894 -0.0187
  292MOL0     H38479   6.219   2.251  10.237  0.8473 -0.4749  0.1633
  292MOL0     H38480   5.985   2.237  10.175 -0.5511  2.1855 -0.9838
  292MOL0     H38481   5.697   2.432  10.446  1.2438 -0.3804 -0.5636
  292MOL0     H38482   5.671   2.272  10.515 -0.5087 -2.3718 -0.6428
  292MOL0     H38483   5.552   2.216  10.291 -2.9744  0.1144 -1.2578
  292MOL0     H38484   5.530   2.394  10.293 -0.4147  0.8868  1.6921
  292MOL0     H38485   5.436   2.383  10.529  1.1438 -1.4473  0.9649
  292MOL0     H38486   5.434   2.214  10.520 -0.8186 -1.9924 -2.4300
  292MOL0     H38487   5.286   2.417  10.343  0.0494 -0.3381 -1.1853
  292MOL0     H38488   5.299   2.240  10.307 -0.9898 -0.1986  1.2818
  292MOL0     H38489   5.186   2.371  10.544  2.4268  0.8943 -0.3618
  292MOL0     H38490   5.190   2.190  10.518 -2.7592 -1.5997 -2.0815
  292MOL0     H38491   5.049   2.256  10.297  0.6988 -3.6638  1.0410
  292MOL0     H38492   5.001   2.390  10.402 -3.4379 -0.4545  1.4145
  292MOL0     H38493   4.948   2.095  10.449 -2.9799  0.7926 -4.7884
  292MOL0     H38494   4.957   2.206  10.584  4.8272 -2.9641 -1.3321
  292MOL0     H38495   4.775   2.172  10.346 -1.7188 -0.7457  1.5273
  292MOL0     H38496   4.798   2.346  10.382 -2.0784  1.4744  1.9141
  292MOL0     H38497   4.729   2.037  10.611  2.6005  0.6275  0.1290
  292MOL0     H38498   4.585   2.155  10.922 -0.9093  0.1196 -0.2639
  292MOL0     H38499   4.587   1.994  10.849 -0.3988 -0.4833  1.3593
  292MOL0     H38500   4.368   2.204  10.840  1.0663  0.0536 -0.9248
  292MOL0     H38501   4.377   2.055  10.940 -1.2400  0.2159 -0.4519
  292MOL0     H38502   4.237   2.021  10.725 -0.1034  2.1143  3.3659
  292MOL0     H38503   4.398   2.033  10.635 -1.6218 -1.5326 -2.0411
  292MOL0     H38504   4.338   1.831  10.845 -0.2602 -2.5854 -0.4519
  292MOL0     H38505   4.472   1.845  10.743 -0.3035 -0.2633 -1.0466
  292MOL0     H38506   4.154   1.630  10.508 -1.3745  2.7182 -1.9430
  292MOL0     H38507   3.937   1.534  10.554 -1.2457 -0.4196  0.5767
  292MOL0     H38508   3.638   1.721  11.072 -1.0666 -0.7088  1.5113
  292MOL0     H38509   3.421   1.693  11.180 -0.5881 -0.1448 -0.0930
  292MOL0     H38510   3.117   1.408  10.992  0.4304  0.1590  1.5956
  292MOL0     H38511   3.068   1.573  10.949 -1.3601  1.3579 -0.4115
  292MOL0     H38512   2.887   1.466  11.078 -0.7419 -2.3338  2.1539
  292MOL0     H38513   2.968   1.591  11.188  0.4499 -1.3607  1.8207
  292MOL0     H38514   3.091   1.405  11.295 -1.6243  0.8814  1.1568
  292MOL0     H38515   3.030   1.301  11.182  1.1985 -0.4008  1.5505
  292MOL0     H38516   2.877   1.455  11.393  0.5688 -0.9252  0.3253
  292MOL0     H38517   2.796   1.367  11.258  2.3362 -1.4417 -1.9859
  292MOL0     H38518   2.815   1.251  11.496  0.3527 -1.0956 -0.7134
  292MOL0     H38519   2.976   1.208  11.445 -0.5075  0.9932  1.2182
  292MOL0     H38520   2.888   1.096  11.245  0.2827  2.9175 -0.4447
  292MOL0     H38521   2.730   1.160  11.278  2.1478  1.8057 -2.7337
  292MOL0     H38522   2.880   0.938  11.441 -0.6742  0.0022  2.3560
  292MOL0     H38523   2.741   1.028  11.500  0.0581 -1.4026  0.2366
  292MOL0     H38524   2.595   0.919  11.355 -0.7442  0.1559 -0.2252
  292MOL0     H38525   2.725   0.795  11.384 -0.0591  1.5493  1.4559
  292MOL0     H38526   3.259   1.526  10.816 -1.0487  0.9443  0.3070
  292MOL0     H38527   3.486   1.566  10.705  3.4637  0.7652 -0.2510
  292MOL0     H38528   3.921   1.772  10.929  1.3574  0.9329  0.0308
  292MOL0     H38529   4.149   1.851  10.880  0.1839 -1.0280  1.4835
  292MOL0     H38530   5.874   2.367  10.585  0.1527 -0.1689 -0.3378
  292MOL0     H38531   6.110   2.360  10.628  0.1839 -0.6121 -0.4530
  292MOL0     H38532   6.513   2.443  10.540  0.8600  1.3725 -0.6814
  292MOL0     H38533   6.744   2.478  10.602  5.0385 -0.8408 -0.6317
  292MOL0     H38534   7.049   2.244  10.397  0.2163 -1.9290  0.2214
  292MOL0     H38535   7.036   2.164  10.552  2.1060 -0.3404 -0.9735
  292MOL0     H38536   7.270   2.289  10.492 -0.6305  3.9449 -5.7508
  292MOL0     H38537   7.169   2.435  10.502  1.8258 -0.0289 -0.8051
  292MOL0     H38538   7.193   2.235  10.736  3.3790  1.1171  2.1797
  292MOL0     H38539   7.128   2.402  10.743  0.7579  0.9359  0.5881
  292MOL0     H38540   7.351   2.391  10.837  1.0689 -1.7100 -1.0031
  292MOL0     H38541   7.420   2.372  10.677  2.0316  2.0652  0.9419
  292MOL0     H38542   7.298   2.780  10.703  0.0177  0.3452 -0.1735
  292MOL0     H38543   6.849   2.102  10.407 -1.4991 -0.7162  1.1267
  292MOL0     H38544   6.624   2.077  10.344  1.6480  0.5394 -1.5725
  293MOL0     O38545   2.233   6.829   9.895 -0.5976 -0.0173 -0.4043
  293MOL0     C38546   2.236   6.955   9.874  0.5743  0.4934  0.2785
  293MOL0     O38547   2.169   7.021   9.771  0.5069  0.1212  0.1348
  293MOL0     C38548   2.089   6.940   9.687 -0.3207  0.9846 -0.3482
  293MOL0     C38549   2.153   6.854   9.595 -0.3884 -0.2475  0.0618
  293MOL0     C38550   2.073   6.776   9.511  0.3656  0.0513 -0.4104
  293MOL0     C38551   1.932   6.791   9.517 -0.8069 -0.1253  0.9576
  293MOL0     O38552   1.855   6.724   9.422  0.0086  0.0333  0.1208
  293MOL0     C38553   1.712   6.718   9.421 -0.2115  0.5471 -0.0299
  293MOL0     C38554   1.672   6.623   9.308 -0.1966 -0.7400 -0.1893
  293MOL0     C38555   1.531   6.653   9.269  0.2169  0.0476 -0.4331
  293MOL0     C38556   1.493   6.555   9.152 -0.2033  0.0248 -1.1794
  293MOL0     C38557   1.351   6.564   9.104  0.7828 -0.3547  0.0347
  293MOL0     C38558   1.333   6.509   8.961  0.5684 -0.4792 -1.0322
  293MOL0     C38559   1.189   6.508   8.921  0.9059 -0.4342  0.8864
  293MOL0     C38560   1.165   6.534   8.772 -0.9094 -0.2186  0.4799
  293MOL0     N38561   1.022   6.525   8.737 -0.1039  0.3151  0.4295
  293MOL0     C38562   0.916   6.577   8.806 -0.1104 -0.5957  0.5266
  293MOL0     C38563   0.804   6.506   8.767 -0.6389  0.4148  0.2699
  293MOL0     C38564   0.667   6.545   8.822  0.4889 -0.0785  0.0523
  293MOL0     C38565   0.572   6.582   8.708 -0.2950  0.4751  0.8279
  293MOL0     C38566   0.450   6.653   8.766  0.2187 -0.1759  0.1469
  293MOL0     C38567   0.331   6.646   8.675 -0.0413 -0.0391  0.2913
  293MOL0     O38568   0.251   6.761   8.705 -0.1166  0.3245  0.0240
  293MOL0     C38569   0.119   6.745   8.732 -0.2911 -0.3816  0.0628
  293MOL0     C38570   0.043   6.666   8.645  0.1284  0.1519 -0.1112
  293MOL0     C38571  -0.098   6.672   8.654  0.0707  0.5415 -0.5030
  293MOL0     C38572  -0.163   6.767   8.725  0.1446 -0.2822 -0.4190
  293MOL0     C38573  -0.313   6.779   8.716  0.3269  0.8106  0.7008
  293MOL0     O38574  -0.375   6.683   8.633  0.2367  0.1372 -0.1582
  293MOL0     C38575  -0.508   6.690   8.617 -0.1439  0.6241  0.7149
  293MOL0     C38576  -0.597   6.804   8.590 -0.2971  0.4034  0.8482
  293MOL0     C38577  -0.737   6.797   8.590 -0.1684 -0.4105  0.3119
  293MOL0     C38578  -0.799   6.674   8.614 -0.0845 -0.3344  0.1040
  293MOL0     O38579  -0.931   6.646   8.621 -0.2945  0.5381  0.0471
  293MOL0     C38580  -1.028   6.756   8.610  0.5492  0.1420 -0.1613
  293MOL0     C38581  -1.073   6.814   8.749 -0.4227 -0.0922 -0.5929
  293MOL0     C38582  -1.154   6.943   8.750  1.0633 -0.3716  0.0387
  293MOL0     C38583  -1.207   7.007   8.873 -0.4938  0.3682 -0.1459
  293MOL0     C38584  -1.098   7.047   8.977  1.0185  0.4647 -0.2767
  293MOL0     C38585  -1.171   7.102   9.104  0.4221 -0.2934 -0.0772
  293MOL0     C38586  -1.065   7.137   9.210  0.8522 -0.2209 -0.3729
  293MOL0     C38587  -1.143   7.204   9.324  0.4753 -0.1102 -0.6572
  293MOL0    Cl38588  -1.255   7.092   9.402 -0.2575  0.5321 -0.5748
  293MOL0     C38589  -0.714   6.560   8.627  0.2775  0.1391 -0.4882
  293MOL0     C38590  -0.576   6.568   8.627 -0.3609 -0.1434 -0.5386
  293MOL0     O38591  -0.368   6.884   8.760 -0.4242  0.5329 -0.0818
  293MOL0     C38592  -0.089   6.852   8.815  0.2554  0.1747 -0.5725
  293MOL0     C38593   0.044   6.829   8.817 -0.0947 -0.3666  0.2638
  293MOL0     N38594   0.848   6.410   8.677 -0.2506 -0.7184 -0.4196
  293MOL0     N38595   0.973   6.419   8.657  0.4486  0.7243 -0.3228
  293MOL0     C38596   1.873   6.873   9.615 -0.3737 -0.3334  0.4640
  293MOL0     C38597   1.952   6.953   9.701  0.6118  0.5417 -0.0804
  293MOL0     C38598   2.327   7.038   9.952  0.0165 -0.5317 -0.0929
  293MOL0     C38599   2.301   7.176   9.971 -0.7500  0.1470  0.5054
  293MOL0     C38600   2.384   7.260  10.054  0.3115  0.6153  0.2149
  293MOL0     C38601   2.503   7.204  10.110 -0.2868  1.3184  0.6084
  293MOL0     O38602   2.599   7.267  10.191  0.5278  0.1870 -0.1259
  293MOL0     C38603   2.597   7.406  10.187  0.5742 -0.6177 -0.7251
  293MOL0     C38604   2.509   7.452  10.296  0.6798 -0.7226  0.5546
  293MOL0     C38605   2.494   7.607  10.310  0.6220 -0.0920  0.4465
  293MOL0     C38606   2.394   7.643  10.419 -0.3818  0.0170  0.0984
  293MOL0     C38607   2.419   7.776  10.467  0.1333  0.3642 -0.1490
  293MOL0     C38608   2.443   7.879  10.531  0.4405  0.5280 -0.3470
  293MOL0     C38609   2.521   7.064  10.091  0.0968  0.1176 -0.3505
  293MOL0     C38610   2.442   6.986  10.019  0.2335 -0.0212 -0.2852
  293MOL0     H38611   2.261   6.851   9.587 -0.3245 -1.3779  1.0048
  293MOL0     H38612   2.126   6.717   9.437  1.0793 -0.9086  0.8330
  293MOL0     H38613   1.689   6.821   9.391  1.2937  0.7678 -0.4794
  293MOL0     H38614   1.659   6.696   9.515  0.1556 -0.5370 -0.0699
  293MOL0     H38615   1.673   6.521   9.347 -1.6829 -0.6291  0.1911
  293MOL0     H38616   1.736   6.644   9.222  0.5146  3.9408  1.2169
  293MOL0     H38617   1.521   6.761   9.249  0.3090 -0.2221 -2.1479
  293MOL0     H38618   1.463   6.630   9.351  0.2726  2.5705  0.4189
  293MOL0     H38619   1.566   6.574   9.073 -1.3433  2.4320 -1.7673
  293MOL0     H38620   1.507   6.451   9.183 -1.0791  0.1715 -0.2244
  293MOL0     H38621   1.308   6.665   9.102  0.1073 -0.6083  1.0536
  293MOL0     H38622   1.283   6.515   9.175  2.4978 -1.3431  1.0658
  293MOL0     H38623   1.370   6.406   8.959 -1.2417 -1.1406 -1.6801
  293MOL0     H38624   1.391   6.573   8.894 -2.1361  3.1065 -0.2766
  293MOL0     H38625   1.135   6.414   8.937 -2.3390  0.7537 -1.8430
  293MOL0     H38626   1.138   6.589   8.976 -3.9038 -2.2435 -0.3704
  293MOL0     H38627   1.228   6.465   8.715  2.4666  0.5457  2.9183
  293MOL0     H38628   1.194   6.638   8.751  3.4750 -1.3542 -0.2288
  293MOL0     H38629   0.919   6.651   8.885 -1.1599 -1.0448  0.9910
  293MOL0     H38630   0.679   6.633   8.885 -1.8305 -0.7969  1.6558
  293MOL0     H38631   0.623   6.469   8.887  1.6370  0.1521  1.1322
  293MOL0     H38632   0.547   6.504   8.636  0.8169  0.3606  0.5415
  293MOL0     H38633   0.624   6.657   8.647  2.8023 -3.1879 -1.5051
  293MOL0     H38634   0.422   6.613   8.864  0.9687  2.4335  1.5145
  293MOL0     H38635   0.474   6.757   8.790 -1.4793  0.7710 -1.9885
  293MOL0     H38636   0.283   6.549   8.691 -0.6682  0.2769  0.3556
  293MOL0     H38637   0.361   6.646   8.570  1.0481 -0.2836  0.5898
  293MOL0     H38638   0.083   6.600   8.570  1.3145  1.9987 -1.1892
  293MOL0     H38639  -0.146   6.593   8.597  0.1831  0.0160  0.1278
  293MOL0     H38640  -0.550   6.899   8.571  2.6845 -1.2444 -0.8398
  293MOL0     H38641  -0.791   6.892   8.590 -0.6602 -0.6752 -0.8441
  293MOL0     H38642  -1.119   6.710   8.572 -2.1593  3.1606  2.0729
  293MOL0     H38643  -0.992   6.836   8.544  2.4391 -0.7008 -0.2291
  293MOL0     H38644  -0.983   6.836   8.807 -2.1749  0.7606  2.0126
  293MOL0     H38645  -1.133   6.737   8.798 -1.6663 -0.3749 -2.4599
  293MOL0     H38646  -1.247   6.922   8.696 -0.0187  2.7970  0.5073
  293MOL0     H38647  -1.093   7.017   8.698  0.7031  0.7352  1.1397
  293MOL0     H38648  -1.262   7.100   8.856  1.1160  1.7999  1.9761
  293MOL0     H38649  -1.279   6.942   8.924  0.2674  0.0643  0.5609
  293MOL0     H38650  -1.021   7.114   8.939 -0.1769  1.1530 -1.5792
  293MOL0     H38651  -1.046   6.955   9.007  0.0501  1.0242  3.7576
  293MOL0     H38652  -1.251   7.044   9.152 -1.2041  2.9390  1.4360
  293MOL0     H38653  -1.221   7.196   9.080 -0.3749 -0.3743  1.1824
  293MOL0     H38654  -1.024   7.039   9.237 -0.7939 -0.3882  1.7209
  293MOL0     H38655  -0.989   7.206   9.172  0.7502  0.4572  0.6377
  293MOL0     H38656  -1.187   7.302   9.301 -1.9095 -1.0223 -0.2143
  293MOL0     H38657  -1.068   7.226   9.400 -1.1864  3.8429  0.1234
  293MOL0     H38658  -0.765   6.465   8.634  1.0342 -0.1787  1.4990
  293MOL0     H38659  -0.511   6.482   8.642  1.2789  1.2400  0.5666
  293MOL0     H38660  -0.140   6.930   8.871 -1.5143  0.5978 -2.6274
  293MOL0     H38661   0.097   6.895   8.885  1.7870 -1.9645  0.4254
  293MOL0     H38662   1.765   6.872   9.613 -0.3859 -2.0227  0.9910
  293MOL0     H38663   1.902   7.007   9.781 -0.1453 -0.1429 -0.0811
  293MOL0     H38664   2.213   7.220   9.925 -0.2308  2.0289  1.2109
  293MOL0     H38665   2.368   7.366  10.069  2.5470  0.7417  2.4229
  293MOL0     H38666   2.566   7.439  10.088  0.9480 -1.6703 -1.2046
  293MOL0     H38667   2.694   7.450  10.211 -0.0837  1.3011 -1.4312
  293MOL0     H38668   2.410   7.411  10.273  1.1243 -0.6728 -1.6395
  293MOL0     H38669   2.549   7.425  10.394 -1.2450 -1.1216  1.2775
  293MOL0     H38670   2.459   7.650  10.216 -1.4389  2.2334  2.1668
  293MOL0     H38671   2.594   7.640  10.341  1.0567 -0.1203 -0.8437
  293MOL0     H38672   2.291   7.632  10.384  0.1562  2.3129 -2.4877
  293MOL0     H38673   2.411   7.583  10.510  3.1355  1.5618  0.6180
  293MOL0     H38674   2.483   7.970  10.573  0.7491 -0.0876  0.7134
  293MOL0     H38675   2.607   7.016  10.136  1.1103  0.3306 -1.9935
  293MOL0     H38676   2.475   6.885   9.998 -0.5378 -0.1510 -0.9182
  294MOL0     O38677   5.353   8.253   7.921  0.1122  0.2049  0.7705
  294MOL0     C38678   5.374   8.363   7.977 -0.3988 -0.1187 -0.5034
  294MOL0     O38679   5.312   8.412   8.087 -0.1431 -0.0372 -0.1781
  294MOL0     C38680   5.206   8.358   8.156 -1.2964 -0.9971 -0.2112
  294MOL0     C38681   5.166   8.432   8.267 -0.1499  0.2179 -0.0953
  294MOL0     C38682   5.049   8.405   8.334  0.6760 -0.2477 -0.6759
  294MOL0     C38683   4.974   8.288   8.304 -0.1952  0.0959 -0.0230
  294MOL0     O38684   4.856   8.261   8.372  0.0098  0.2148  0.1718
  294MOL0     C38685   4.789   8.134   8.362  0.0945  0.4838  0.2652
  294MOL0     C38686   4.684   8.115   8.475  0.4837  0.1481  0.2558
  294MOL0     C38687   4.542   8.168   8.428 -0.2676 -0.1361 -0.8180
  294MOL0     C38688   4.462   8.184   8.563  0.1975  0.3601 -0.6845
  294MOL0     C38689   4.323   8.242   8.548  0.5118  0.2296  0.5065
  294MOL0     C38690   4.247   8.277   8.674  0.2320  0.9357 -0.0462
  294MOL0     C38691   4.100   8.295   8.633  0.6116  0.1937 -0.5288
  294MOL0     C38692   4.004   8.342   8.740  0.2156  0.3288 -0.1838
  294MOL0     N38693   3.867   8.357   8.697  0.0667 -0.0708 -0.1838
  294MOL0     C38694   3.769   8.264   8.689  0.0217 -0.1552 -1.0223
  294MOL0     C38695   3.660   8.332   8.644  0.0194  0.3647 -0.2656
  294MOL0     C38696   3.537   8.258   8.604  0.5456 -0.6181  0.4454
  294MOL0     C38697   3.519   8.290   8.460 -0.3753  0.1114  0.4051
  294MOL0     C38698   3.410   8.205   8.391 -0.1824 -0.1811 -0.1322
  294MOL0     C38699   3.267   8.258   8.390 -0.0514  1.0864 -0.2535
  294MOL0     O38700   3.186   8.160   8.326 -0.6374  0.9722 -0.6189
  294MOL0     C38701   3.048   8.158   8.334 -0.1505  1.0750  0.3095
  294MOL0     C38702   2.980   8.058   8.263 -1.1325 -0.1773  0.4409
  294MOL0     C38703   2.841   8.055   8.243  0.2887  0.4931  0.3024
  294MOL0     C38704   2.764   8.149   8.314  0.4859  0.8580  0.1773
  294MOL0     C38705   2.618   8.142   8.299  0.3587  0.3725 -0.2899
  294MOL0     O38706   2.542   8.212   8.390 -0.2452 -0.1620  0.0997
  294MOL0     C38707   2.410   8.203   8.411  1.0260  0.2442  0.6932
  294MOL0     C38708   2.322   8.198   8.297 -0.2505 -0.7101  0.2979
  294MOL0     C38709   2.185   8.211   8.311 -0.3863 -0.5697  0.6710
  294MOL0     C38710   2.130   8.229   8.442 -0.1371 -0.3955 -0.2937
  294MOL0     O38711   1.992   8.204   8.459 -0.3926  0.6297  0.7861
  294MOL0     C38712   1.917   8.305   8.530  1.0632 -0.4849  0.5945
  294MOL0     C38713   1.793   8.243   8.592 -0.4049 -0.1350 -0.0544
  294MOL0     C38714   1.677   8.251   8.500 -0.1446 -0.1058 -0.0811
  294MOL0     C38715   1.558   8.248   8.582  0.8946  0.0127 -0.4860
  294MOL0     C38716   1.434   8.292   8.498 -0.1401  0.2475  0.6760
  294MOL0     C38717   1.419   8.219   8.362  1.2768  0.1196 -0.7980
  294MOL0     C38718   1.292   8.236   8.282 -0.2204  0.3117  0.2252
  294MOL0     C38719   1.154   8.212   8.353  0.3914 -0.1329 -0.1310
  294MOL0    Cl38720   1.095   8.039   8.339  0.6227 -0.3197 -0.1105
  294MOL0     C38721   2.218   8.241   8.550 -0.0800  0.6733  0.2217
  294MOL0     C38722   2.354   8.224   8.534  0.1574 -0.3409 -0.3957
  294MOL0     O38723   2.572   8.072   8.209  0.2909 -0.0379 -0.6095
  294MOL0     C38724   2.833   8.247   8.388  0.4558  0.2529  0.0635
  294MOL0     C38725   2.972   8.245   8.408  0.8505 -1.2036 -0.0431
  294MOL0     N38726   3.699   8.462   8.612  0.2545 -0.2295  0.2265
  294MOL0     N38727   3.824   8.473   8.641 -0.3149  0.5687  0.2667
  294MOL0     C38728   5.017   8.209   8.197  0.0068 -0.3502 -0.4921
  294MOL0     C38729   5.141   8.239   8.132  0.2821 -0.3496 -0.4663
  294MOL0     C38730   5.486   8.446   7.932  0.1667  0.1404  0.0717
  294MOL0     C38731   5.575   8.401   7.830  0.1872  0.0084  0.4477
  294MOL0     C38732   5.685   8.480   7.794  0.1161  0.3778  0.1391
  294MOL0     C38733   5.697   8.604   7.852 -1.3341  0.2833  0.7653
  294MOL0     O38734   5.796   8.698   7.811 -0.0766 -0.1959 -0.2343
  294MOL0     C38735   5.927   8.652   7.769 -0.2239 -0.4238 -0.3346
  294MOL0     C38736   5.957   8.756   7.661 -0.1555 -0.1781 -0.7755
  294MOL0     C38737   5.980   8.899   7.726 -0.9247 -0.1328  0.0240
  294MOL0     C38738   5.998   9.006   7.619  0.4866 -0.5096  0.2195
  294MOL0     C38739   5.985   9.138   7.689 -0.0928 -0.2712 -0.7797
  294MOL0     C38740   5.977   9.247   7.744  0.7531 -0.0315 -0.1213
  294MOL0     C38741   5.607   8.652   7.944 -0.9295  0.6523 -0.2651
  294MOL0     C38742   5.498   8.574   7.990  0.0572 -0.1833  0.0684
  294MOL0     H38743   5.217   8.525   8.291 -2.6806  1.5676  0.4855
  294MOL0     H38744   5.013   8.468   8.415  0.9971 -1.2521  0.2670
  294MOL0     H38745   4.863   8.055   8.379 -2.2714 -1.9236  0.0308
  294MOL0     H38746   4.747   8.124   8.262 -0.5988 -1.2960  0.6827
  294MOL0     H38747   4.724   8.165   8.564  2.8147 -1.7887  0.3993
  294MOL0     H38748   4.656   8.013   8.502 -1.6071 -0.4325 -3.4519
  294MOL0     H38749   4.492   8.097   8.362 -2.4333 -1.5330  2.1170
  294MOL0     H38750   4.562   8.266   8.384  0.9857 -0.5629 -1.2333
  294MOL0     H38751   4.450   8.088   8.615 -0.0815  0.5408 -0.4115
  294MOL0     H38752   4.525   8.249   8.624 -2.1314 -0.0367  2.4241
  294MOL0     H38753   4.275   8.171   8.480 -0.4907  3.5494 -2.5504
  294MOL0     H38754   4.331   8.337   8.495 -0.5454  1.7380  2.8701
  294MOL0     H38755   4.285   8.365   8.728 -0.8976  0.6891  1.2190
  294MOL0     H38756   4.249   8.190   8.741 -0.7115  0.2231 -0.9297
  294MOL0     H38757   4.094   8.365   8.550  1.2654  0.7164 -0.1470
  294MOL0     H38758   4.065   8.202   8.587  1.4735 -0.0671 -0.6828
  294MOL0     H38759   4.032   8.440   8.782 -0.2853 -0.8495  3.2333
  294MOL0     H38760   4.012   8.282   8.831  3.4919  1.9120  0.7492
  294MOL0     H38761   3.778   8.159   8.715  1.0538  0.5674  1.9887
  294MOL0     H38762   3.444   8.291   8.651 -0.1308  0.6003 -1.6122
  294MOL0     H38763   3.553   8.153   8.632 -0.4906 -1.4125 -1.7012
  294MOL0     H38764   3.615   8.262   8.415 -1.1540 -0.6524 -0.8380
  294MOL0     H38765   3.497   8.396   8.443 -4.0949 -0.8915 -2.3625
  294MOL0     H38766   3.444   8.192   8.288 -1.5726  1.4404 -0.8471
  294MOL0     H38767   3.415   8.110   8.445  4.0388  0.3913  0.8281
  294MOL0     H38768   3.265   8.346   8.324 -0.3849 -0.4700 -2.4503
  294MOL0     H38769   3.233   8.278   8.492 -0.5176 -1.3140  0.1167
  294MOL0     H38770   3.037   7.987   8.203  0.3531 -0.6532  2.3004
  294MOL0     H38771   2.800   7.975   8.182 -0.0924  2.0714 -1.6176
  294MOL0     H38772   2.370   8.195   8.200 -0.2197  1.5708  0.1855
  294MOL0     H38773   2.117   8.216   8.227  0.3419 -0.5153  0.0784
  294MOL0     H38774   1.901   8.392   8.465  0.4757 -1.7866 -1.0709
  294MOL0     H38775   1.979   8.342   8.612  1.6014 -0.4808  0.1884
  294MOL0     H38776   1.774   8.296   8.685 -0.6109  4.1560 -2.3139
  294MOL0     H38777   1.824   8.139   8.607  0.5878  0.2959  0.9877
  294MOL0     H38778   1.679   8.171   8.426  1.4694 -0.3421  0.1733
  294MOL0     H38779   1.682   8.348   8.450 -0.5747  0.1518  0.3651
  294MOL0     H38780   1.553   8.146   8.620 -0.1694  0.2909  0.1654
  294MOL0     H38781   1.565   8.324   8.660  0.6613  0.0256 -0.4796
  294MOL0     H38782   1.437   8.400   8.484  0.6843  0.5217  2.7154
  294MOL0     H38783   1.343   8.274   8.556 -0.5347 -2.5750 -0.6398
  294MOL0     H38784   1.421   8.112   8.381 -0.9864  0.3785  1.5341
  294MOL0     H38785   1.495   8.246   8.288 -0.9516  1.7295 -2.6448
  294MOL0     H38786   1.298   8.341   8.251  0.5239  0.9156  2.2112
  294MOL0     H38787   1.282   8.179   8.189 -1.8301 -0.0139  0.5539
  294MOL0     H38788   1.072   8.276   8.318  0.8044  1.6417  1.9211
  294MOL0     H38789   1.166   8.248   8.455  0.3092 -1.1363  0.2344
  294MOL0     H38790   2.170   8.283   8.637  0.1288 -1.1995  1.2848
  294MOL0     H38791   2.421   8.250   8.616 -1.7911  1.1221  0.8441
  294MOL0     H38792   2.783   8.331   8.435  1.8186 -0.0313  2.1877
  294MOL0     H38793   3.011   8.325   8.470 -1.1266  1.7427 -2.2890
  294MOL0     H38794   4.950   8.131   8.164 -2.0489  1.7098 -1.4704
  294MOL0     H38795   5.163   8.173   8.049 -1.4738  1.1529 -2.2111
  294MOL0     H38796   5.555   8.313   7.769 -3.8709  1.0350  0.0273
  294MOL0     H38797   5.741   8.463   7.702  0.2698  4.9245 -0.8545
  294MOL0     H38798   5.911   8.560   7.712 -0.4011  0.2469 -1.4068
  294MOL0     H38799   5.995   8.642   7.854 -0.7797  2.9133  0.6247
  294MOL0     H38800   6.044   8.725   7.603 -2.0587 -0.5303 -3.6278
  294MOL0     H38801   5.872   8.757   7.593 -0.2940 -1.5444 -0.6483
  294MOL0     H38802   6.067   8.900   7.791 -0.4967 -4.7301 -0.1318
  294MOL0     H38803   5.894   8.925   7.789 -0.8084 -1.5999  0.8387
  294MOL0     H38804   6.083   9.005   7.551  0.4937  1.5204  0.1360
  294MOL0     H38805   5.911   8.997   7.553 -1.0086 -0.5851  2.1021
  294MOL0     H38806   5.956   9.344   7.786 -3.0410  0.4101 -2.5608
  294MOL0     H38807   5.616   8.743   8.002 -0.2458 -1.0665  2.5239
  294MOL0     H38808   5.447   8.611   8.078  0.2101 -1.3911  0.6942
  295MOL0     O38809   8.905   1.120   6.109 -0.2005 -0.1413 -0.1785
  295MOL0     C38810   8.890   1.196   6.206  0.0761  0.5181 -0.2459
  295MOL0     O38811   8.768   1.231   6.261  1.3086 -0.2968 -0.0898
  295MOL0     C38812   8.646   1.167   6.230  0.8790  0.4660  0.6454
  295MOL0     C38813   8.526   1.249   6.220 -0.0262 -0.1194 -1.0163
  295MOL0     C38814   8.402   1.190   6.196 -0.2200 -0.4096  0.4857
  295MOL0     C38815   8.397   1.047   6.174 -0.9265  0.6467 -0.1001
  295MOL0     O38816   8.282   0.981   6.133 -0.2073  0.7184 -0.6010
  295MOL0     C38817   8.180   1.055   6.078 -0.1306 -0.1986  0.1222
  295MOL0     C38818   8.050   0.973   6.050  0.0454 -0.4678  0.4695
  295MOL0     C38819   7.940   1.041   5.978  0.7966  0.0991 -1.1914
  295MOL0     C38820   7.893   1.173   6.042  0.4844 -0.0434  0.2609
  295MOL0     C38821   7.749   1.224   6.006  0.3133  0.5860  0.4472
  295MOL0     C38822   7.746   1.251   5.851 -0.5278  0.1624  0.1809
  295MOL0     C38823   7.622   1.312   5.804 -0.0372 -0.3873  0.3691
  295MOL0     C38824   7.616   1.340   5.650  0.3914  0.5049  0.4342
  295MOL0     N38825   7.718   1.426   5.597  0.6993  1.1504  0.4094
  295MOL0     C38826   7.813   1.370   5.522 -0.4620 -0.2598 -0.1512
  295MOL0     C38827   7.879   1.472   5.468 -0.4825 -0.6836 -0.2676
  295MOL0     C38828   7.993   1.475   5.369  0.3121  0.0959 -0.3775
  295MOL0     C38829   7.933   1.462   5.229  0.1187 -0.5407  0.9468
  295MOL0     C38830   7.855   1.589   5.181  0.4416 -0.2339  0.2035
  295MOL0     C38831   7.768   1.537   5.066 -0.8385  0.0246 -0.1909
  295MOL0     O38832   7.664   1.442   5.109  0.4409  0.2709  0.1811
  295MOL0     C38833   7.544   1.513   5.114  0.1115 -0.2409 -0.2457
  295MOL0     C38834   7.503   1.557   5.240  0.2895 -1.0408  0.1416
  295MOL0     C38835   7.372   1.627   5.257  0.3156  0.7567  0.4093
  295MOL0     C38836   7.306   1.661   5.128 -0.5164  0.2010 -0.3432
  295MOL0     C38837   7.185   1.743   5.137 -0.3086 -0.5051  0.1587
  295MOL0     O38838   7.126   1.734   5.258  0.6245 -0.0680 -0.6796
  295MOL0     C38839   6.996   1.778   5.281 -0.2089 -0.1208  0.5030
  295MOL0     C38840   6.888   1.749   5.194 -0.6899 -0.6046  0.1240
  295MOL0     C38841   6.757   1.792   5.228  0.3642 -0.3080 -0.4444
  295MOL0     C38842   6.725   1.855   5.348  0.2093 -0.3483 -0.2129
  295MOL0     O38843   6.597   1.888   5.389 -0.3479 -0.0005 -0.4367
  295MOL0     C38844   6.488   1.884   5.296 -0.3908 -0.3989  0.4221
  295MOL0     C38845   6.354   1.867   5.363  0.6089 -0.6062 -0.5895
  295MOL0     C38846   6.332   1.721   5.388  0.3228 -0.7066 -1.1889
  295MOL0     C38847   6.188   1.706   5.428  0.3521  0.7558 -0.1037
  295MOL0     C38848   6.167   1.559   5.484 -0.1574 -0.8488 -0.4797
  295MOL0     C38849   6.042   1.547   5.576 -0.1865  0.1969  1.0092
  295MOL0     C38850   5.918   1.614   5.519  0.4487 -1.1281 -0.0583
  295MOL0     C38851   5.806   1.559   5.603 -0.6498 -0.4350 -0.2127
  295MOL0    Cl38852   5.773   1.379   5.593  0.5950  0.0759 -0.1457
  295MOL0     C38853   6.830   1.872   5.441  0.2665  0.5127 -0.0190
  295MOL0     C38854   6.962   1.851   5.397 -0.2123  0.6673  0.4157
  295MOL0     O38855   7.133   1.788   5.033 -0.2468 -0.3629 -0.7240
  295MOL0     C38856   7.357   1.623   5.001  1.2287  0.1866  0.4553
  295MOL0     C38857   7.470   1.544   5.000  0.0518 -1.1251 -0.1975
  295MOL0     N38858   7.826   1.588   5.522  0.2914 -0.1118  0.4911
  295MOL0     N38859   7.716   1.560   5.586 -1.4779 -0.0725 -0.2894
  295MOL0     C38860   8.507   0.971   6.201  0.2621 -0.2022  1.1252
  295MOL0     C38861   8.630   1.030   6.221  0.1733 -0.5449  1.1052
  295MOL0     C38862   9.005   1.253   6.270  0.4168 -0.1436  0.2522
  295MOL0     C38863   9.001   1.293   6.405  0.4071 -0.3837  0.5835
  295MOL0     C38864   9.124   1.344   6.463  0.0576  0.3117  0.0214
  295MOL0     C38865   9.245   1.350   6.397  0.0813 -0.2927  0.3176
  295MOL0     O38866   9.351   1.400   6.466  0.6590  0.1255  0.4766
  295MOL0     C38867   9.482   1.402   6.408 -0.7667 -0.3791  0.0104
  295MOL0     C38868   9.583   1.370   6.526 -0.0458 -0.5350  0.9425
  295MOL0     C38869   9.557   1.237   6.598 -0.4279  0.5991  0.7686
  295MOL0     C38870   9.673   1.200   6.701 -0.3308  0.2455  0.6937
  295MOL0     C38871   9.728   1.304   6.785 -0.2944 -0.1470 -0.1355
  295MOL0     C38872   9.791   1.383   6.860  0.8017 -0.3180  0.6927
  295MOL0     C38873   9.247   1.308   6.261  0.1016 -0.6725 -0.6975
  295MOL0     C38874   9.127   1.261   6.199  0.8813 -0.3650 -1.2443
  295MOL0     H38875   8.548   1.355   6.232  0.4496 -0.5126  3.0101
  295MOL0     H38876   8.312   1.250   6.197 -0.3172 -0.4132 -1.8362
  295MOL0     H38877   8.210   1.112   5.990  1.6894  1.4476  1.6870
  295MOL0     H38878   8.152   1.130   6.153 -1.5474 -0.3674 -0.2170
  295MOL0     H38879   8.013   0.953   6.151 -0.9477  0.7279  0.3534
  295MOL0     H38880   8.079   0.875   6.010 -1.2104 -1.4265  1.7966
  295MOL0     H38881   7.850   0.979   5.989  1.6222 -1.1028 -0.9756
  295MOL0     H38882   7.977   1.044   5.875  1.6008  0.0538 -0.9130
  295MOL0     H38883   7.896   1.164   6.150 -0.5126  0.8764  0.3873
  295MOL0     H38884   7.962   1.251   6.007  0.9057 -0.5317 -0.0240
  295MOL0     H38885   7.732   1.321   6.054  2.6780  0.7355  1.1195
  295MOL0     H38886   7.677   1.144   6.025  1.2755 -0.1339  1.1913
  295MOL0     H38887   7.761   1.155   5.801  0.5355  1.0220 -1.2291
  295MOL0     H38888   7.837   1.300   5.815  0.1680 -1.2443 -0.0528
  295MOL0     H38889   7.545   1.237   5.823 -1.7931  1.7300  2.1826
  295MOL0     H38890   7.606   1.407   5.855  2.2159 -1.1095  2.6128
  295MOL0     H38891   7.522   1.382   5.612 -0.0123 -1.6562 -1.1390
  295MOL0     H38892   7.631   1.243   5.602  2.0375  0.6631  0.5917
  295MOL0     H38893   7.825   1.264   5.497 -3.0083 -0.6789  0.1706
  295MOL0     H38894   8.065   1.395   5.388  0.9377  1.1376  2.2243
  295MOL0     H38895   8.056   1.565   5.368  0.4319  0.0105 -1.2034
  295MOL0     H38896   7.874   1.371   5.213 -1.4001  0.8825 -2.6065
  295MOL0     H38897   8.018   1.439   5.165 -0.0248  0.3916  0.4052
  295MOL0     H38898   7.793   1.631   5.261 -0.7659  1.3005 -1.4593
  295MOL0     H38899   7.922   1.670   5.152  0.7204 -0.7398 -0.5993
  295MOL0     H38900   7.844   1.487   5.005  2.0427  2.1480  1.3912
  295MOL0     H38901   7.733   1.616   4.999 -1.4857 -0.2308 -0.1602
  295MOL0     H38902   7.567   1.529   5.323 -1.1033  0.7298  1.9045
  295MOL0     H38903   7.352   1.660   5.358 -1.2192 -1.6137  0.9591
  295MOL0     H38904   6.905   1.709   5.095  0.8829  0.0191  0.1185
  295MOL0     H38905   6.679   1.783   5.152  0.7074 -2.9088 -0.5631
  295MOL0     H38906   6.498   1.799   5.228  1.3072  1.2568 -1.5186
  295MOL0     H38907   6.497   1.977   5.240  2.0304 -0.8611 -0.0403
  295MOL0     H38908   6.278   1.908   5.296  0.2761  0.9442  0.6751
  295MOL0     H38909   6.346   1.926   5.455 -0.6762 -3.0749  1.0265
  295MOL0     H38910   6.400   1.685   5.466  1.1533  0.5754 -1.2828
  295MOL0     H38911   6.347   1.661   5.299  0.0910 -0.5301 -1.3481
  295MOL0     H38912   6.177   1.775   5.513 -2.9086 -0.5178  0.6827
  295MOL0     H38913   6.121   1.732   5.345  0.6552 -3.8502 -2.1179
  295MOL0     H38914   6.251   1.540   5.552 -0.3174 -0.2370 -0.1071
  295MOL0     H38915   6.159   1.484   5.404 -1.1303 -2.5835  1.1428
  295MOL0     H38916   6.078   1.598   5.666  1.5093 -0.2573  0.6260
  295MOL0     H38917   6.022   1.442   5.597 -0.4357  0.2565  1.0773
  295MOL0     H38918   5.925   1.722   5.536 -1.5020 -0.7179 -1.4783
  295MOL0     H38919   5.893   1.594   5.414  0.8905 -3.2148  0.1923
  295MOL0     H38920   5.714   1.607   5.570  0.1700  1.5220  0.1909
  295MOL0     H38921   5.831   1.580   5.707  1.2979  1.9817 -1.0610
  295MOL0     H38922   6.796   1.925   5.529  1.1290 -2.0547  1.9949
  295MOL0     H38923   7.046   1.865   5.465  0.8149  0.0888 -0.6884
  295MOL0     H38924   7.312   1.654   4.907  1.0350  0.2397  0.5655
  295MOL0     H38925   7.510   1.515   4.903 -0.1326 -1.7483 -0.0846
  295MOL0     H38926   8.507   0.863   6.187  0.4638  0.1100 -1.9861
  295MOL0     H38927   8.715   0.970   6.253  1.6222  0.7923 -0.0391
  295MOL0     H38928   8.918   1.266   6.469 -0.3134  0.6977  0.1308
  295MOL0     H38929   9.131   1.354   6.571  1.0049  0.6692 -0.0671
  295MOL0     H38930   9.504   1.503   6.372 -1.7942 -0.4010 -0.7396
  295MOL0     H38931   9.490   1.335   6.322 -0.2113 -0.1931 -0.0878
  295MOL0     H38932   9.684   1.362   6.485  0.8237 -2.3078  3.1910
  295MOL0     H38933   9.588   1.450   6.600 -1.5769  1.4482 -0.9663
  295MOL0     H38934   9.531   1.157   6.527 -1.3833  0.6376  1.0584
  295MOL0     H38935   9.473   1.247   6.667 -0.1689 -1.5075  1.4688
  295MOL0     H38936   9.628   1.122   6.764 -0.6678 -0.5722 -0.5271
  295MOL0     H38937   9.753   1.157   6.639 -2.1521 -0.0919 -1.5550
  295MOL0     H38938   9.862   1.450   6.905  0.4788 -0.1507  0.9528
  295MOL0     H38939   9.327   1.313   6.188  1.9153  1.8813  1.2602
  295MOL0     H38940   9.117   1.232   6.095 -5.0023  0.2164 -1.1565
  296MOL0     O38941  10.960   6.135  10.739 -0.2553  0.0647  0.1832
  296MOL0     C38942  10.949   6.226  10.823  0.0783  0.0517  0.5863
  296MOL0     O38943  10.830   6.290  10.855 -0.4176  0.1623 -0.3974
  296MOL0     C38944  10.718   6.234  10.811 -0.7318  0.1843  0.3581
  296MOL0     C38945  10.688   6.096  10.807 -0.0212  0.4723 -0.0683
  296MOL0     C38946  10.571   6.050  10.743 -0.3883 -0.5187  0.4697
  296MOL0     C38947  10.487   6.140  10.675 -0.1464 -0.6001 -0.4260
  296MOL0     O38948  10.379   6.110  10.597  0.1756 -0.1871 -0.1761
  296MOL0     C38949  10.355   5.970  10.570  0.0675 -0.3306 -0.8558
  296MOL0     C38950  10.231   5.960  10.477  0.5136  0.7029  0.1159
  296MOL0     C38951  10.106   6.019  10.545 -0.1813  0.5311  0.1299
  296MOL0     C38952   9.988   6.015  10.453  0.3109  0.2041  0.7375
  296MOL0     C38953   9.868   6.072  10.528 -0.5784  0.0976 -0.5130
  296MOL0     C38954   9.748   6.085  10.432 -0.0625 -0.6081 -0.2026
  296MOL0     C38955   9.618   6.115  10.516 -0.7098  0.5736  0.4309
  296MOL0     C38956   9.512   6.161  10.421 -0.0825  0.3897 -0.1423
  296MOL0     N38957   9.460   6.061  10.333 -0.4298  0.9322  0.8569
  296MOL0     C38958   9.403   5.946  10.385  0.0320 -0.3136 -0.8410
  296MOL0     C38959   9.369   5.875  10.277 -0.3813  0.3630  0.6148
  296MOL0     C38960   9.308   5.742  10.256  0.3721  0.1557  0.1730
  296MOL0     C38961   9.150   5.760  10.258 -0.5841 -0.4030 -0.5229
  296MOL0     C38962   9.083   5.769  10.118  0.1257  0.0625  0.4227
  296MOL0     C38963   8.932   5.749  10.133  0.3332 -0.9460  0.9255
  296MOL0     O38964   8.866   5.744  10.005 -0.2223  1.0881 -0.2611
  296MOL0     C38965   8.732   5.730   9.990 -0.2488 -0.6718 -0.4467
  296MOL0     C38966   8.672   5.740   9.866 -0.0908  0.9281 -0.4384
  296MOL0     C38967   8.532   5.722   9.850 -0.2905 -0.1111  0.3863
  296MOL0     C38968   8.449   5.714   9.969  0.1478  0.4218 -0.0373
  296MOL0     C38969   8.305   5.701   9.952 -1.1046 -0.1069 -0.6207
  296MOL0     O38970   8.228   5.675  10.063 -0.6994  0.0279  0.0250
  296MOL0     C38971   8.094   5.646  10.053 -0.2063  0.3618 -0.9988
  296MOL0     C38972   8.014   5.629   9.944 -0.0973 -0.1574 -0.2636
  296MOL0     C38973   7.879   5.604   9.954  0.5565  0.5967 -0.8357
  296MOL0     C38974   7.816   5.615  10.082  0.1027  0.2122 -1.0405
  296MOL0     O38975   7.678   5.599  10.079 -0.3244 -0.0794  0.2288
  296MOL0     C38976   7.612   5.575  10.199 -0.0316  0.1119 -0.6941
  296MOL0     C38977   7.466   5.540  10.163  0.4752 -0.3076 -0.6882
  296MOL0     C38978   7.401   5.669  10.110  0.2526 -0.0658  0.0543
  296MOL0     C38979   7.247   5.660  10.098  0.1879  0.0138  0.1855
  296MOL0     C38980   7.197   5.707  10.241 -0.2515  0.8716  0.7958
  296MOL0     C38981   7.039   5.693  10.241 -0.8781  0.0294  0.0491
  296MOL0     C38982   6.970   5.785  10.342 -0.6708  0.4077 -0.0819
  296MOL0     C38983   6.822   5.742  10.356  0.3731 -0.1561 -0.7757
  296MOL0    Cl38984   6.734   5.756  10.201  0.3559  0.4915  0.0783
  296MOL0     C38985   7.896   5.644  10.199 -0.1932 -0.3143  0.2160
  296MOL0     C38986   8.033   5.643  10.180 -0.7790 -0.4730  0.4159
  296MOL0     O38987   8.268   5.731   9.842 -0.3469  0.0083 -0.1314
  296MOL0     C38988   8.511   5.708  10.091  0.7746  0.0417  0.0353
  296MOL0     C38989   8.653   5.717  10.103  0.0714 -0.0974 -0.0689
  296MOL0     N38990   9.421   5.935  10.163 -0.7877  0.4977  0.0216
  296MOL0     N38991   9.473   6.043  10.195  0.3435 -0.7443  0.1510
  296MOL0     C38992  10.511   6.273  10.696  0.1195  0.1840  0.3784
  296MOL0     C38993  10.626   6.322  10.756  0.3273  0.4082  0.3040
  296MOL0     C38994  11.075   6.272  10.878  0.7373  0.5339 -0.7940
  296MOL0     C38995  11.067   6.371  10.979  0.1288  0.2878  0.4174
  296MOL0     C38996  11.174   6.400  11.057 -0.7081 -0.8768 -0.6313
  296MOL0     C38997  11.286   6.321  11.046  0.1802  0.8804  0.1433
  296MOL0     O38998  11.386   6.356  11.135  0.1743 -0.0186  0.1454
  296MOL0     C38999  11.479   6.255  11.169  0.3682  1.0765 -0.3007
  296MOL0     C39000  11.496   6.233  11.320 -0.3876  0.1964 -0.0387
  296MOL0     C39001  11.542   6.085  11.348 -0.6049 -0.2540  0.9577
  296MOL0     C39002  11.684   6.035  11.304  0.1670 -0.1016 -0.1165
  296MOL0     C39003  11.709   5.902  11.357 -0.2372  0.1578 -0.0092
  296MOL0     C39004  11.723   5.781  11.387 -0.2312  0.5901 -0.2748
  296MOL0     C39005  11.296   6.218  10.946  0.1646 -0.3963  0.3590
  296MOL0     C39006  11.189   6.197  10.862  0.3592 -0.7948  0.6949
  296MOL0     H39007  10.753   6.023  10.854 -0.2939 -1.2019 -2.1174
  296MOL0     H39008  10.547   5.945  10.757 -4.0420  0.4820  2.9381
  296MOL0     H39009  10.328   5.919  10.663 -3.6319  1.6252 -0.6755
  296MOL0     H39010  10.445   5.931  10.520  0.1402  1.6369 -2.3769
  296MOL0     H39011  10.219   5.857  10.441 -1.0380  0.2857  1.6534
  296MOL0     H39012  10.245   6.024  10.390 -2.0587 -1.7655 -2.3040
  296MOL0     H39013  10.123   6.122  10.576  1.3227  0.2474  0.3328
  296MOL0     H39014  10.076   5.960  10.632  1.6788 -1.9536 -0.7694
  296MOL0     H39015  10.015   6.080  10.369  1.8971  0.2552  1.2388
  296MOL0     H39016   9.974   5.913  10.418 -0.1608  0.8177 -0.9886
  296MOL0     H39017   9.889   6.164  10.583 -2.7287 -0.3847  1.2595
  296MOL0     H39018   9.858   5.996  10.607  0.0326  0.2994 -0.2397
  296MOL0     H39019   9.750   5.986  10.386 -0.2730 -0.1304 -1.2679
  296MOL0     H39020   9.766   6.165  10.360  0.3339  0.3699  0.9427
  296MOL0     H39021   9.580   6.027  10.570 -0.1904 -0.5731 -1.0049
  296MOL0     H39022   9.631   6.194  10.591 -0.1447  0.0183  0.9344
  296MOL0     H39023   9.545   6.249  10.366  0.0862  0.7122  0.4593
  296MOL0     H39024   9.426   6.195  10.480  0.1535  0.0936  0.3810
  296MOL0     H39025   9.392   5.918  10.489  0.9917  1.8056 -0.1165
  296MOL0     H39026   9.340   5.684  10.343 -1.0443 -0.6957  0.1520
  296MOL0     H39027   9.334   5.689  10.164  1.3835 -0.1809  0.6313
  296MOL0     H39028   9.127   5.850  10.316 -3.4758 -1.6371  0.4433
  296MOL0     H39029   9.112   5.669  10.307  0.9301 -1.8826 -1.9911
  296MOL0     H39030   9.106   5.863  10.067 -2.3039 -0.6730 -2.3034
  296MOL0     H39031   9.125   5.700  10.045 -2.0139  0.3967 -1.2262
  296MOL0     H39032   8.903   5.839  10.188 -0.7408  1.0298 -2.5795
  296MOL0     H39033   8.917   5.663  10.200 -1.2542  0.0315  1.8814
  296MOL0     H39034   8.738   5.768   9.785 -1.1867 -1.3403 -2.2522
  296MOL0     H39035   8.484   5.718   9.753  0.1994  0.1778  0.1261
  296MOL0     H39036   8.063   5.617   9.848  1.0409  1.2872  0.1015
  296MOL0     H39037   7.816   5.597   9.866  1.4026  1.7172 -1.5535
  296MOL0     H39038   7.622   5.648  10.280 -2.2454 -2.8602  2.6086
  296MOL0     H39039   7.662   5.484  10.235  0.7273  0.4938 -0.7771
  296MOL0     H39040   7.419   5.503  10.255  3.1837  0.3901  1.1050
  296MOL0     H39041   7.449   5.455  10.096 -0.4675 -0.0397 -0.8063
  296MOL0     H39042   7.433   5.684  10.007 -0.7030 -0.1453 -0.2717
  296MOL0     H39043   7.440   5.749  10.173 -1.4598 -1.6574  3.4250
  296MOL0     H39044   7.204   5.724  10.021 -1.3788 -0.4332  0.6669
  296MOL0     H39045   7.222   5.557  10.074  4.2529 -0.7959 -1.5689
  296MOL0     H39046   7.222   5.813  10.252  0.5341  1.1942 -2.8941
  296MOL0     H39047   7.236   5.650  10.325 -0.9875  2.6793  2.4504
  296MOL0     H39048   7.027   5.586  10.262 -2.3197  0.0604 -0.5084
  296MOL0     H39049   6.986   5.692  10.145 -0.2558  0.9233 -0.3134
  296MOL0     H39050   7.026   5.786  10.436  0.7787 -1.8482 -0.8343
  296MOL0     H39051   6.987   5.886  10.305 -0.1036  0.3865  0.1242
  296MOL0     H39052   6.799   5.817  10.433  1.2567  0.5452 -1.1678
  296MOL0     H39053   6.827   5.639  10.391  0.2017  0.9688  3.0466
  296MOL0     H39054   7.853   5.653  10.298 -1.0158 -0.5406 -0.1094
  296MOL0     H39055   8.096   5.664  10.265 -2.8834 -0.8608  2.1615
  296MOL0     H39056   8.465   5.688  10.187  0.8308 -0.8616 -0.1171
  296MOL0     H39057   8.696   5.709  10.202 -1.2568  1.5075  0.6899
  296MOL0     H39058  10.427   6.334  10.664  0.2660 -0.4073 -1.2113
  296MOL0     H39059  10.654   6.427  10.764  1.3780  0.2524 -0.9601
  296MOL0     H39060  10.977   6.424  11.008  0.7569  0.1400  2.7887
  296MOL0     H39061  11.181   6.487  11.121  0.3120 -1.6109  0.2864
  296MOL0     H39062  11.567   6.296  11.119  0.4219  0.9917 -0.2759
  296MOL0     H39063  11.460   6.156  11.127 -1.5986  1.4136 -0.3042
  296MOL0     H39064  11.571   6.303  11.358  0.4666 -1.5039  1.5540
  296MOL0     H39065  11.402   6.251  11.373 -1.8060 -6.5269  0.5455
  296MOL0     H39066  11.464   6.021  11.304 -0.7863 -0.4367  1.5330
  296MOL0     H39067  11.533   6.077  11.457 -0.0498 -3.5459  0.8754
  296MOL0     H39068  11.692   6.050  11.196 -0.9619  0.1856 -0.1709
  296MOL0     H39069  11.761   6.101  11.346 -0.3926 -0.1135  0.9503
  296MOL0     H39070  11.733   5.679  11.417 -3.0253 -0.0005 -1.0559
  296MOL0     H39071  11.387   6.162  10.927  0.3972  0.9146 -3.1134
  296MOL0     H39072  11.210   6.126  10.783  1.2834 -0.7663  0.8951
  297MOL0     O39073   1.287  10.854   9.734 -0.2023 -0.8484  0.3752
  297MOL0     C39074   1.412  10.867   9.719 -0.2007 -0.5966  0.1572
  297MOL0     O39075   1.494  10.792   9.641 -0.0745 -0.1633  0.3762
  297MOL0     C39076   1.436  10.713   9.548  0.3230 -0.0998  0.7635
  297MOL0     C39077   1.507  10.604   9.506 -0.2937  0.1503  0.3018
  297MOL0     C39078   1.468  10.508   9.412 -0.4457  0.0582 -0.8025
  297MOL0     C39079   1.346  10.541   9.346  0.8643  0.7213  0.8949
  297MOL0     O39080   1.289  10.460   9.247 -0.3249  0.2758 -0.7614
  297MOL0     C39081   1.234  10.339   9.305 -0.2142  0.1671  0.2628
  297MOL0     C39082   1.079  10.341   9.298  0.0546 -0.1034  0.7814
  297MOL0     C39083   1.034  10.313   9.153  0.1109  0.4206 -0.0110
  297MOL0     C39084   0.879  10.307   9.134  0.5258 -0.8781 -0.5120
  297MOL0     C39085   0.830  10.246   9.007 -0.6151 -0.2554 -0.2656
  297MOL0     C39086   0.682  10.269   8.972 -0.1980 -0.8028  0.5298
  297MOL0     C39087   0.649  10.189   8.854  0.2046 -0.8654 -0.2548
  297MOL0     C39088   0.500  10.195   8.816  0.2046 -0.3314  1.2717
  297MOL0     N39089   0.487  10.085   8.725  0.3767  0.7870  0.5213
  297MOL0     C39090   0.511  10.100   8.590  1.2142 -0.6194 -0.3799
  297MOL0     C39091   0.452   9.991   8.537  0.1647  0.3170 -0.3902
  297MOL0     C39092   0.442   9.966   8.391  1.1567  0.6676  0.4871
  297MOL0     C39093   0.297   9.946   8.329 -0.5524  0.3566 -0.6141
  297MOL0     C39094   0.302   9.924   8.175  0.3450 -0.5282 -0.8083
  297MOL0     C39095   0.156   9.912   8.133  0.1694  0.5208 -0.3670
  297MOL0     O39096   0.160   9.937   7.990 -0.2488 -0.5950  0.1911
  297MOL0     C39097   0.038   9.945   7.919 -0.7350  0.0576 -0.2608
  297MOL0     C39098   0.044   9.954   7.776  0.8583 -0.7423 -0.3504
  297MOL0     C39099  -0.072   9.956   7.698  0.9403  0.0150  0.3147
  297MOL0     C39100  -0.195   9.967   7.761 -0.3497  0.3104 -0.6322
  297MOL0     C39101  -0.319   9.955   7.692 -0.1787  0.1257  0.1283
  297MOL0     O39102  -0.430   9.974   7.763 -0.5895  1.0651 -0.6013
  297MOL0     C39103  -0.553   9.949   7.714  0.6225  0.1517 -0.3744
  297MOL0     C39104  -0.592   9.968   7.585  0.1224 -0.5491  0.4128
  297MOL0     C39105  -0.722   9.943   7.531 -0.3715 -0.3887 -0.3360
  297MOL0     C39106  -0.817   9.907   7.627 -0.0710 -0.1416 -0.0823
  297MOL0     O39107  -0.953   9.910   7.613 -0.1283 -0.2793  0.6571
  297MOL0     C39108  -1.003   9.862   7.490 -0.0146 -0.1458 -0.0589
  297MOL0     C39109  -1.136   9.782   7.494 -0.5037 -0.5600 -0.8929
  297MOL0     C39110  -1.266   9.850   7.516  0.2311 -0.9379 -0.3615
  297MOL0     C39111  -1.306   9.963   7.429 -0.3762  0.2324 -0.1744
  297MOL0     C39112  -1.428  10.049   7.470 -0.0159  0.6664  0.4817
  297MOL0     C39113  -1.559   9.968   7.503 -0.2303  0.9903  0.0209
  297MOL0     C39114  -1.677  10.065   7.497 -0.0675  0.5524 -0.0624
  297MOL0     C39115  -1.807   9.986   7.501  0.0962  0.4394  0.5435
  297MOL0    Cl39116  -1.853   9.944   7.664  0.3633 -0.3322 -0.4266
  297MOL0     C39117  -0.782   9.873   7.753 -0.8029 -0.4810  0.2308
  297MOL0     C39118  -0.649   9.899   7.803  0.1905  0.0562  0.4439
  297MOL0     O39119  -0.311   9.905   7.576 -0.0127  0.0715  0.0305
  297MOL0     C39120  -0.201   9.971   7.903  0.1174  0.3382  0.1682
  297MOL0     C39121  -0.089   9.958   7.977  0.3631 -0.0373 -0.7396
  297MOL0     N39122   0.405   9.916   8.636 -0.2949 -0.0315 -0.3250
  297MOL0     N39123   0.428   9.963   8.753  0.0049 -0.0430 -0.5221
  297MOL0     C39124   1.274  10.659   9.376 -1.0852 -0.1974  0.1551
  297MOL0     C39125   1.316  10.744   9.478 -0.2047  0.1458 -0.3921
  297MOL0     C39126   1.477  10.969   9.816  0.2041  0.5816 -0.3769
  297MOL0     C39127   1.392  11.047   9.895 -0.5998 -0.3296 -0.8082
  297MOL0     C39128   1.436  11.167   9.962 -1.3294 -0.7950 -0.1801
  297MOL0     C39129   1.582  11.185   9.971  0.0511  0.2965 -0.3280
  297MOL0     O39130   1.620  11.303  10.033 -0.3861 -0.3620  0.2473
  297MOL0     C39131   1.743  11.292  10.105  0.1306 -0.0407  0.0757
  297MOL0     C39132   1.750  11.396  10.215  0.0769 -0.2480  0.2780
  297MOL0     C39133   1.625  11.401  10.310  0.3747  0.4370 -0.5581
  297MOL0     C39134   1.575  11.262  10.360 -0.2424 -0.4468  0.8351
  297MOL0     C39135   1.484  11.278  10.474 -0.6818  0.1082  0.0722
  297MOL0     C39136   1.423  11.302  10.575  0.2431 -1.1449  0.0801
  297MOL0     C39137   1.670  11.094   9.908  0.2996 -0.4371  0.1464
  297MOL0     C39138   1.620  10.986   9.832 -0.3630 -0.0604 -0.4407
  297MOL0     H39139   1.604  10.583   9.550 -0.6115 -1.4791  0.2868
  297MOL0     H39140   1.530  10.425   9.380  0.0773 -0.2442  0.9097
  297MOL0     H39141   1.260  10.321   9.410  0.0876 -2.3691 -0.1887
  297MOL0     H39142   1.270  10.253   9.248 -1.3292 -0.6801  0.7864
  297MOL0     H39143   1.047  10.438   9.337 -1.1385  0.1196 -0.6414
  297MOL0     H39144   1.035  10.264   9.361  1.9594  0.1826  2.5629
  297MOL0     H39145   1.083  10.220   9.123 -0.2199  0.5184 -0.8783
  297MOL0     H39146   1.074  10.389   9.086 -0.8986 -1.2009 -2.6244
  297MOL0     H39147   0.837  10.260   9.223  2.8162  0.8278  1.5933
  297MOL0     H39148   0.845  10.411   9.135 -0.8875 -1.3289 -0.5162
  297MOL0     H39149   0.854  10.140   9.002  3.2310  0.4447 -5.3109
  297MOL0     H39150   0.881  10.288   8.920 -0.0459 -0.3168  0.0351
  297MOL0     H39151   0.672  10.377   8.955  1.4247 -0.8999 -1.5285
  297MOL0     H39152   0.620  10.233   9.054 -0.7413 -0.3237  0.3364
  297MOL0     H39153   0.712  10.215   8.768  0.5390 -1.9709 -0.3576
  297MOL0     H39154   0.675  10.087   8.884 -2.4693 -0.4811  4.0673
  297MOL0     H39155   0.473  10.285   8.760  0.0237 -0.0024  1.8759
  297MOL0     H39156   0.436  10.187   8.905 -2.0400 -0.2618 -0.2462
  297MOL0     H39157   0.544  10.186   8.533  0.0765  1.3885  1.8177
  297MOL0     H39158   0.500   9.878   8.364  1.1608  0.6650  0.5060
  297MOL0     H39159   0.479  10.056   8.341  2.4723  0.4837  1.0750
  297MOL0     H39160   0.228  10.029   8.346 -1.0143 -0.0325 -0.5806
  297MOL0     H39161   0.258   9.859   8.383 -2.2725  1.3083 -0.2672
  297MOL0     H39162   0.337  10.010   8.117 -2.3270 -0.6299 -2.7618
  297MOL0     H39163   0.380   9.849   8.155  3.2574  1.1222  3.1209
  297MOL0     H39164   0.092   9.983   8.186 -0.5563  0.1553 -0.7435
  297MOL0     H39165   0.119   9.810   8.147 -0.3285  0.7350 -0.1011
  297MOL0     H39166   0.143   9.945   7.734 -0.3537 -0.3382 -3.5229
  297MOL0     H39167  -0.066   9.935   7.592 -0.5711 -1.4594  0.4829
  297MOL0     H39168  -0.522  10.007   7.512 -2.8812  1.5644 -1.5969
  297MOL0     H39169  -0.757   9.978   7.434 -1.7625 -1.4716 -0.2449
  297MOL0     H39170  -0.934   9.791   7.444 -1.7959 -1.3214 -1.0516
  297MOL0     H39171  -1.013   9.933   7.407  1.4936 -0.0116 -0.1514
  297MOL0     H39172  -1.119   9.708   7.573 -1.2038 -0.6531 -0.8272
  297MOL0     H39173  -1.145   9.735   7.395 -1.9581 -0.7233 -0.7012
  297MOL0     H39174  -1.263   9.894   7.616 -0.9524  1.6098 -1.3642
  297MOL0     H39175  -1.342   9.772   7.509 -0.4633 -0.5442  2.0377
  297MOL0     H39176  -1.215  10.021   7.414  0.3482 -1.3783 -2.5978
  297MOL0     H39177  -1.323   9.916   7.332  1.9642 -4.4318  1.3613
  297MOL0     H39178  -1.466  10.106   7.384  0.7381  1.5557  0.7229
  297MOL0     H39179  -1.403  10.118   7.550 -1.6010  1.6852  0.1581
  297MOL0     H39180  -1.550   9.930   7.606 -1.8777  2.1358  0.6281
  297MOL0     H39181  -1.571   9.897   7.421  2.5854  3.6896 -3.0336
  297MOL0     H39182  -1.672  10.136   7.581  2.8706  0.9497 -0.4575
  297MOL0     H39183  -1.660  10.114   7.401  3.1201 -0.2561 -0.0310
  297MOL0     H39184  -1.802   9.895   7.440 -0.9530 -1.3682  2.9713
  297MOL0     H39185  -1.887  10.050   7.462 -2.2994 -1.2006  2.4125
  297MOL0     H39186  -0.855   9.840   7.827  1.5851  1.0876  3.5248
  297MOL0     H39187  -0.622   9.879   7.906  1.2016 -1.6898 -0.1303
  297MOL0     H39188  -0.287   9.985   7.968  2.1098  2.3054  2.5768
  297MOL0     H39189  -0.105   9.946   8.084 -1.1992  0.8240 -0.8573
  297MOL0     H39190   1.178  10.674   9.327 -0.6291 -2.1711 -1.5077
  297MOL0     H39191   1.260  10.836   9.485 -0.8698 -0.0133 -2.8762
  297MOL0     H39192   1.284  11.054   9.894 -0.5092  3.3447  0.9801
  297MOL0     H39193   1.376  11.244  10.011  0.9204  2.2543 -1.8660
  297MOL0     H39194   1.825  11.317  10.038 -1.5360  0.5318 -1.8534
  297MOL0     H39195   1.766  11.196  10.151  0.6610  0.4516  0.8739
  297MOL0     H39196   1.832  11.373  10.284  0.4881 -1.4150 -0.5533
  297MOL0     H39197   1.754  11.492  10.163 -2.5207 -1.5274 -2.6107
  297MOL0     H39198   1.547  11.459  10.260 -0.0091  1.1429  0.8024
  297MOL0     H39199   1.651  11.463  10.396  1.4790 -0.4587 -0.2185
  297MOL0     H39200   1.519  11.212  10.281 -0.3993  1.6371 -0.4574
  297MOL0     H39201   1.661  11.198  10.384  0.9161  0.5848 -0.3961
  297MOL0     H39202   1.376  11.315  10.671  1.9254  1.9402  0.6385
  297MOL0     H39203   1.777  11.110   9.912  0.4959 -1.9632  2.3085
  297MOL0     H39204   1.692  10.928   9.774 -2.0083 -0.2404 -2.4226
  298MOL0     O39205   2.255   8.953   3.079  0.1144 -0.9421 -0.1758
  298MOL0     C39206   2.303   8.872   2.999  1.0128 -0.7296 -0.1719
  298MOL0     O39207   2.236   8.766   2.944  0.7981 -0.4648 -0.6056
  298MOL0     C39208   2.099   8.761   2.927 -0.6349 -0.2538 -0.3401
  298MOL0     C39209   2.024   8.876   2.907 -0.3993  0.6770  0.5779
  298MOL0     C39210   1.887   8.868   2.896 -0.2030 -0.2131  0.1667
  298MOL0     C39211   1.818   8.747   2.881  0.7169  0.4964  0.3107
  298MOL0     O39212   1.682   8.732   2.886  0.1342 -0.3972 -0.0457
  298MOL0     C39213   1.608   8.848   2.847  0.1756 -1.0799  0.3072
  298MOL0     C39214   1.463   8.821   2.793 -0.1940 -0.4250  0.7177
  298MOL0     C39215   1.386   8.947   2.796 -0.0657  0.8229  1.7089
  298MOL0     C39216   1.242   8.917   2.777  0.1974 -0.3887 -0.1965
  298MOL0     C39217   1.160   9.040   2.825  0.4683  0.2913 -0.0674
  298MOL0     C39218   1.012   9.024   2.781  0.6288 -1.0428 -0.3781
  298MOL0     C39219   0.918   9.121   2.838 -0.2816  0.6214 -0.9945
  298MOL0     C39220   0.779   9.117   2.776  0.7243 -0.7536  0.4886
  298MOL0     N39221   0.692   9.002   2.809  0.3307 -0.0986  0.1794
  298MOL0     C39222   0.646   8.916   2.717  0.0787  0.7398  0.9988
  298MOL0     C39223   0.588   8.813   2.793 -0.3824 -0.3829  1.1265
  298MOL0     C39224   0.529   8.691   2.734  0.2131 -0.1629 -1.2072
  298MOL0     C39225   0.376   8.709   2.722 -0.2333  0.4819  0.1442
  298MOL0     C39226   0.326   8.832   2.646  0.5033 -0.1201 -1.0967
  298MOL0     C39227   0.170   8.839   2.661 -0.8660 -0.2377  0.2018
  298MOL0     O39228   0.137   8.958   2.584  0.3754  1.1716 -0.5464
  298MOL0     C39229   0.007   8.997   2.564 -0.4071 -0.2832 -0.9337
  298MOL0     C39230  -0.005   9.129   2.513  0.3105  0.5587  0.6514
  298MOL0     C39231  -0.129   9.187   2.494  0.2733  0.0425  0.6163
  298MOL0     C39232  -0.247   9.110   2.522  0.1335  0.4356  1.3702
  298MOL0     C39233  -0.380   9.155   2.474  0.4003  0.1800  0.0871
  298MOL0     O39234  -0.491   9.076   2.471 -0.0607 -0.0069  0.5883
  298MOL0     C39235  -0.621   9.117   2.450 -0.1666  0.3405  0.9894
  298MOL0     C39236  -0.669   9.247   2.415 -0.9751  0.3019  0.1063
  298MOL0     C39237  -0.803   9.269   2.378 -0.1658 -0.2162 -0.3191
  298MOL0     C39238  -0.896   9.159   2.387  0.2915 -0.5375  0.2467
  298MOL0     O39239  -1.030   9.172   2.341  0.6091 -0.2948  1.1441
  298MOL0     C39240  -1.054   9.254   2.228 -0.0114 -0.5253 -0.3179
  298MOL0     C39241  -1.204   9.287   2.232  0.3253  0.1992  0.0424
  298MOL0     C39242  -1.292   9.158   2.217  0.0076 -1.0519  0.4577
  298MOL0     C39243  -1.448   9.181   2.202  0.2796  0.1696 -0.6264
  298MOL0     C39244  -1.537   9.064   2.216  0.4067 -0.3375 -0.6934
  298MOL0     C39245  -1.517   8.947   2.114 -0.8882 -0.4111 -0.2483
  298MOL0     C39246  -1.528   8.992   1.971  0.2193  0.5113  0.2303
  298MOL0     C39247  -1.586   8.884   1.879 -0.0642 -0.8628  0.0473
  298MOL0    Cl39248  -1.475   8.731   1.875 -0.0137  0.2612  0.1960
  298MOL0     C39249  -0.848   9.038   2.438  0.0085 -0.5416  0.4423
  298MOL0     C39250  -0.715   9.015   2.460 -0.4698 -0.3808 -0.1860
  298MOL0     O39251  -0.385   9.278   2.473  0.0050  0.0001  0.1276
  298MOL0     C39252  -0.240   8.979   2.560 -0.3139 -0.3620 -0.3656
  298MOL0     C39253  -0.113   8.928   2.598 -0.3047  0.1633  0.3184
  298MOL0     N39254   0.605   8.839   2.923  0.7135 -1.0736 -0.4495
  298MOL0     N39255   0.663   8.956   2.936 -0.1707  0.3718  0.3736
  298MOL0     C39256   1.901   8.628   2.878  0.7482 -0.6174 -0.6901
  298MOL0     C39257   2.034   8.632   2.912 -0.4030  0.0313  0.2916
  298MOL0     C39258   2.444   8.887   2.977 -1.3250  0.5162  0.4418
  298MOL0     C39259   2.519   8.992   3.032 -0.3331 -1.2720 -0.1569
  298MOL0     C39260   2.648   9.019   3.010 -0.6014 -0.0070 -0.5801
  298MOL0     C39261   2.721   8.933   2.930 -0.2742  0.4351 -0.7934
  298MOL0     O39262   2.852   8.964   2.904 -0.7307  0.5312  0.7944
  298MOL0     C39263   2.935   8.873   2.829  0.9024  0.5198 -0.2426
  298MOL0     C39264   3.062   8.942   2.804  0.0832 -1.1728 -0.1040
  298MOL0     C39265   3.163   8.891   2.697 -0.8459  0.1636  0.4478
  298MOL0     C39266   3.151   8.964   2.568  1.0210  0.6252 -0.0639
  298MOL0     C39267   3.011   9.010   2.543 -0.0246 -0.2610 -0.0487
  298MOL0     C39268   2.903   9.065   2.520 -0.5052 -0.0409  0.6637
  298MOL0     C39269   2.654   8.821   2.879  0.4842 -0.1377 -0.6789
  298MOL0     C39270   2.520   8.801   2.895 -0.3527 -0.2148 -0.1557
  298MOL0     H39271   2.070   8.974   2.914  1.7614 -0.0337 -2.0533
  298MOL0     H39272   1.829   8.960   2.896  1.8667  1.1985  1.6925
  298MOL0     H39273   1.646   8.899   2.757 -0.0055 -1.8047 -0.1898
  298MOL0     H39274   1.621   8.916   2.931  1.0994  0.3415 -0.9289
  298MOL0     H39275   1.413   8.755   2.864  1.5216 -0.6626  1.7835
  298MOL0     H39276   1.484   8.775   2.696  1.3377 -0.0821  0.8520
  298MOL0     H39277   1.408   9.012   2.711  0.9490 -4.4491 -2.5427
  298MOL0     H39278   1.398   8.988   2.897 -2.6144  1.6003  1.7837
  298MOL0     H39279   1.218   8.889   2.673  0.4336 -0.1760 -0.3095
  298MOL0     H39280   1.211   8.831   2.837  0.3157  1.1871  2.2669
  298MOL0     H39281   1.194   9.136   2.784 -1.1631  0.8576 -0.1378
  298MOL0     H39282   1.168   9.044   2.934 -0.5474 -2.0252  0.1511
  298MOL0     H39283   0.965   8.931   2.816 -0.5949 -1.2688 -2.4964
  298MOL0     H39284   1.013   9.025   2.672 -1.7085  1.7508 -0.4815
  298MOL0     H39285   0.903   9.111   2.946 -2.1857 -3.7756 -1.4417
  298MOL0     H39286   0.966   9.217   2.819 -0.0226  0.5205 -0.8414
  298MOL0     H39287   0.794   9.118   2.667 -0.7062  2.6444  0.1919
  298MOL0     H39288   0.724   9.209   2.800  1.3355  0.5105 -2.4656
  298MOL0     H39289   0.650   8.927   2.609 -0.3128 -0.0704  0.8967
  298MOL0     H39290   0.555   8.614   2.807  2.4620  1.9248  0.3959
  298MOL0     H39291   0.553   8.673   2.629 -0.5421  3.1514 -2.0867
  298MOL0     H39292   0.329   8.700   2.821 -0.6418  0.2178 -0.0721
  298MOL0     H39293   0.336   8.623   2.668 -3.1679  0.8846  1.4715
  298MOL0     H39294   0.371   8.923   2.688  3.9134 -1.7191 -0.9364
  298MOL0     H39295   0.355   8.830   2.541  2.2784  0.6935 -0.6712
  298MOL0     H39296   0.139   8.855   2.765  1.6988 -2.1444  1.3369
  298MOL0     H39297   0.124   8.753   2.611  1.2278 -0.5523 -1.2786
  298MOL0     H39298   0.085   9.185   2.491  0.0920  0.4791 -0.5309
  298MOL0     H39299  -0.144   9.280   2.441 -0.7796 -1.9409 -2.9564
  298MOL0     H39300  -0.602   9.331   2.406  1.0713 -1.1890  0.6952
  298MOL0     H39301  -0.836   9.360   2.331 -2.3502 -1.7107 -1.8798
  298MOL0     H39302  -1.039   9.190   2.140  2.3011  0.9134 -1.0384
  298MOL0     H39303  -1.002   9.349   2.224  0.0648 -0.4204  1.8996
  298MOL0     H39304  -1.232   9.357   2.153 -2.6981  3.4826  3.5996
  298MOL0     H39305  -1.221   9.337   2.328 -0.2803  0.4588 -0.1938
  298MOL0     H39306  -1.268   9.092   2.301 -0.4909 -0.7315  0.8633
  298MOL0     H39307  -1.266   9.112   2.122 -0.3613  0.2471 -0.2981
  298MOL0     H39308  -1.481   9.251   2.279 -0.9939  1.5300 -2.3239
  298MOL0     H39309  -1.470   9.223   2.103 -0.3969 -0.2787 -0.6677
  298MOL0     H39310  -1.636   9.109   2.211  0.6013 -0.0302 -3.5730
  298MOL0     H39311  -1.529   9.014   2.313  0.5920  0.3587 -0.3452
  298MOL0     H39312  -1.599   8.877   2.136 -0.3421 -0.9292  0.1715
  298MOL0     H39313  -1.421   8.897   2.129 -0.4857  0.9665  2.2976
  298MOL0     H39314  -1.591   9.079   1.950  0.0171 -0.3697 -3.5506
  298MOL0     H39315  -1.425   9.015   1.942 -0.0185  1.7707  0.3276
  298MOL0     H39316  -1.606   8.914   1.776  0.7713  1.3557  0.4724
  298MOL0     H39317  -1.681   8.855   1.925 -0.0774  1.5260  1.7106
  298MOL0     H39318  -0.913   8.952   2.445  0.5231 -1.2034 -1.8791
  298MOL0     H39319  -0.681   8.918   2.495  1.8580  0.3101 -0.3269
  298MOL0     H39320  -0.332   8.928   2.587  0.3490 -0.3872  2.1481
  298MOL0     H39321  -0.119   8.833   2.650 -1.9607  1.2385  2.2489
  298MOL0     H39322   1.853   8.531   2.873  0.6983 -0.5538 -1.5688
  298MOL0     H39323   2.090   8.540   2.924  1.0956  1.0584  1.7178
  298MOL0     H39324   2.458   9.054   3.097  2.2381  0.1883  1.0195
  298MOL0     H39325   2.698   9.103   3.059 -1.5290 -1.7284  3.7861
  298MOL0     H39326   2.897   8.847   2.730  3.6965 -1.5457 -0.9012
  298MOL0     H39327   2.954   8.777   2.878  0.3436 -0.0535 -1.1214
  298MOL0     H39328   3.049   9.051   2.802  2.4328 -0.7804  1.5466
  298MOL0     H39329   3.108   8.932   2.903  1.5775  0.7974 -0.5282
  298MOL0     H39330   3.163   8.785   2.671  2.2305  0.0213  0.5690
  298MOL0     H39331   3.263   8.909   2.738 -0.1767 -1.1613 -0.5122
  298MOL0     H39332   3.222   9.046   2.553  1.2981  0.9007  2.3392
  298MOL0     H39333   3.174   8.897   2.485 -2.9757 -0.4956 -0.4709
  298MOL0     H39334   2.806   9.108   2.500 -0.5271 -0.5696 -0.4480
  298MOL0     H39335   2.719   8.746   2.834 -0.7742 -1.5456 -0.2332
  298MOL0     H39336   2.471   8.712   2.856 -0.3184  0.0052 -0.7161
  299MOL0     O39337   4.595   3.699   5.889  0.0509  0.0329  0.2824
  299MOL0     C39338   4.660   3.794   5.938 -0.0130  0.7468 -0.4268
  299MOL0     O39339   4.601   3.903   5.990 -0.4258 -0.3586  0.4947
  299MOL0     C39340   4.469   3.916   5.981 -0.3026 -0.2482  1.0922
  299MOL0     C39341   4.394   3.926   6.099 -0.1437  0.5709 -0.0947
  299MOL0     C39342   4.252   3.946   6.089  0.3162  0.7978  0.3260
  299MOL0     C39343   4.199   3.972   5.968 -0.1491 -1.1499 -0.5545
  299MOL0     O39344   4.063   4.005   5.982  0.9197  0.1488  0.2348
  299MOL0     C39345   3.997   4.068   5.866 -0.3355 -0.1603  0.6205
  299MOL0     C39346   3.859   4.121   5.906 -0.4413 -0.2773  0.0957
  299MOL0     C39347   3.762   3.997   5.917 -0.2195  0.0090 -0.9844
  299MOL0     C39348   3.614   4.038   5.946 -0.4686  0.1644  0.2943
  299MOL0     C39349   3.552   3.936   6.030 -0.5009 -0.0020 -0.9233
  299MOL0     C39350   3.417   3.965   6.093 -0.0760  0.5497 -0.0616
  299MOL0     C39351   3.372   3.856   6.189 -0.0444 -0.1964 -0.4988
  299MOL0     C39352   3.234   3.871   6.246  0.4478 -0.3919 -1.0704
  299MOL0     N39353   3.233   3.929   6.388 -0.4172 -0.6014 -0.6586
  299MOL0     C39354   3.274   3.860   6.497  0.7101  0.0535 -0.2990
  299MOL0     C39355   3.286   3.961   6.595  0.3858  0.2286  0.1252
  299MOL0     C39356   3.316   3.939   6.735  0.2442  0.4953  0.1319
  299MOL0     C39357   3.461   3.984   6.763 -0.2002  0.1721 -0.0781
  299MOL0     C39358   3.497   3.987   6.912  1.0261 -0.0168  0.3307
  299MOL0     C39359   3.619   4.073   6.936  0.0883  0.4825 -0.3229
  299MOL0     O39360   3.726   3.991   6.890 -0.0102 -0.2090  0.1897
  299MOL0     C39361   3.847   4.056   6.870  0.1230 -0.4747 -1.8485
  299MOL0     C39362   3.952   3.987   6.812  0.3441 -0.5537  0.8813
  299MOL0     C39363   4.079   4.039   6.807 -0.0059 -0.4593 -0.6360
  299MOL0     C39364   4.099   4.171   6.856 -0.1272  0.9054  0.6854
  299MOL0     C39365   4.229   4.232   6.852 -0.9375 -0.1570  0.1034
  299MOL0     O39366   4.339   4.150   6.830  1.4576  0.2396  0.1715
  299MOL0     C39367   4.467   4.186   6.800 -0.5878 -0.1153  0.9369
  299MOL0     C39368   4.512   4.310   6.754 -0.1025  0.3730 -0.3255
  299MOL0     C39369   4.644   4.327   6.716  0.9490 -0.1342 -0.4471
  299MOL0     C39370   4.734   4.228   6.745  0.8246  0.1955  0.2650
  299MOL0     O39371   4.862   4.256   6.727  0.8702  0.6602  0.8028
  299MOL0     C39372   4.910   4.225   6.594 -0.1082  0.9109 -0.7200
  299MOL0     C39373   5.001   4.337   6.558 -0.2121 -0.2792  0.3081
  299MOL0     C39374   5.136   4.350   6.641 -0.4630 -0.8901  0.6844
  299MOL0     C39375   5.221   4.476   6.598 -0.1924 -0.0260  0.3227
  299MOL0     C39376   5.319   4.529   6.702 -0.1841  1.0705 -0.3023
  299MOL0     C39377   5.366   4.659   6.650  0.4958  0.2778  0.2705
  299MOL0     C39378   5.490   4.709   6.729 -0.2192  1.8433  0.2872
  299MOL0     C39379   5.617   4.620   6.707 -0.0222  0.4131  0.1948
  299MOL0    Cl39380   5.614   4.483   6.818 -0.5427  0.2555 -0.1012
  299MOL0     C39381   4.696   4.103   6.784 -1.3666  0.1593 -0.1575
  299MOL0     C39382   4.561   4.085   6.810 -0.0517 -0.4154  0.9202
  299MOL0     O39383   4.242   4.353   6.878  0.3555 -0.2757 -0.0905
  299MOL0     C39384   3.992   4.250   6.913 -0.6619  0.3598 -0.0352
  299MOL0     C39385   3.871   4.192   6.923  0.0987  0.4160  0.2458
  299MOL0     N39386   3.243   4.082   6.536 -0.6805 -0.6073 -0.3334
  299MOL0     N39387   3.238   4.068   6.410  0.3349 -0.9520 -0.0688
  299MOL0     C39388   4.268   3.959   5.852  0.1933 -0.2353 -0.5140
  299MOL0     C39389   4.412   3.923   5.860  0.0893  0.2555  0.6636
  299MOL0     C39390   4.806   3.790   5.917 -0.2787 -0.1208  0.3417
  299MOL0     C39391   4.880   3.676   5.887 -0.0330  0.1365  0.7442
  299MOL0     C39392   5.018   3.676   5.848  0.0000  0.0511 -0.4927
  299MOL0     C39393   5.085   3.796   5.847 -0.2431 -0.1169 -0.4409
  299MOL0     O39394   5.220   3.780   5.809 -0.0950 -0.4644  0.1146
  299MOL0     C39395   5.309   3.896   5.816  0.3277  0.7176 -0.0167
  299MOL0     C39396   5.457   3.869   5.810 -0.1069  0.4587  0.0391
  299MOL0     C39397   5.527   3.767   5.904  0.6717  0.6767  0.2561
  299MOL0     C39398   5.631   3.685   5.842  0.0496 -0.0399  0.6605
  299MOL0     C39399   5.653   3.561   5.919 -0.0383 -0.4952 -0.6678
  299MOL0     C39400   5.693   3.467   5.983  0.9588 -0.6484 -0.0427
  299MOL0     C39401   5.016   3.912   5.867  0.6391  0.7793 -0.5945
  299MOL0     C39402   4.879   3.909   5.902 -0.2683  0.3531 -0.3253
  299MOL0     H39403   4.435   3.900   6.196  4.3241  3.6420 -0.8282
  299MOL0     H39404   4.182   3.954   6.171  1.3948  1.3966  1.2184
  299MOL0     H39405   3.977   3.991   5.791 -1.4477 -0.0015  0.7396
  299MOL0     H39406   4.058   4.152   5.831  1.1201  0.0659  3.4110
  299MOL0     H39407   3.825   4.196   5.834 -0.5372  0.6722  1.0863
  299MOL0     H39408   3.885   4.176   5.998  2.6972 -0.0324 -0.8310
  299MOL0     H39409   3.803   3.942   6.002 -0.7887  2.3181  0.9135
  299MOL0     H39410   3.756   3.932   5.830 -0.9581 -0.1977 -0.7838
  299MOL0     H39411   3.617   4.126   6.011  0.4206  0.2886  0.0976
  299MOL0     H39412   3.560   4.077   5.860  0.4063 -0.5492 -0.5966
  299MOL0     H39413   3.614   3.917   6.118 -2.4405  1.3242  0.7936
  299MOL0     H39414   3.555   3.848   5.965  0.7374  0.3175 -1.3235
  299MOL0     H39415   3.344   3.972   6.012  0.7958  0.5721 -0.8646
  299MOL0     H39416   3.424   4.058   6.150  1.6695  0.2916  0.1894
  299MOL0     H39417   3.360   3.762   6.134 -0.9723 -1.3144  1.5061
  299MOL0     H39418   3.447   3.837   6.266 -0.0184 -1.4737 -0.8163
  299MOL0     H39419   3.190   3.771   6.248 -1.2738  0.3363  0.8359
  299MOL0     H39420   3.169   3.929   6.179 -0.5795 -1.2708 -0.8523
  299MOL0     H39421   3.291   3.753   6.502  0.6301  0.0691  0.4084
  299MOL0     H39422   3.323   3.831   6.749  3.5637  0.3020 -1.8373
  299MOL0     H39423   3.235   3.982   6.795  0.5856  3.0783 -1.1038
  299MOL0     H39424   3.472   4.088   6.729  0.8288 -0.1114 -0.6608
  299MOL0     H39425   3.523   3.909   6.713 -1.5887 -0.5281 -0.8175
  299MOL0     H39426   3.415   4.030   6.970  1.0514  1.1218 -0.4428
  299MOL0     H39427   3.512   3.887   6.954 -0.7344  0.1204  1.4111
  299MOL0     H39428   3.627   4.092   7.043 -3.4151 -3.6714  0.9691
  299MOL0     H39429   3.605   4.165   6.877 -1.1414  0.3948 -0.2068
  299MOL0     H39430   3.938   3.890   6.765  0.7908 -0.6306  0.8983
  299MOL0     H39431   4.157   3.985   6.755  2.6228  0.9398  1.5225
  299MOL0     H39432   4.441   4.389   6.731 -0.7859 -0.3626 -0.8177
  299MOL0     H39433   4.670   4.418   6.662  0.9030 -0.5629 -1.2097
  299MOL0     H39434   4.829   4.227   6.521  0.5508  1.4070 -1.4622
  299MOL0     H39435   4.962   4.129   6.590 -0.6697  0.4831  1.2537
  299MOL0     H39436   4.951   4.434   6.568 -1.3423 -0.5542 -2.1675
  299MOL0     H39437   5.036   4.321   6.456  2.3914  0.3450  1.0255
  299MOL0     H39438   5.192   4.263   6.606 -1.3606 -0.0574 -3.3297
  299MOL0     H39439   5.118   4.348   6.749 -1.7563 -1.2517  0.4813
  299MOL0     H39440   5.268   4.443   6.505 -1.8211  2.0285 -1.3011
  299MOL0     H39441   5.152   4.555   6.568  0.9770  1.3131  1.0706
  299MOL0     H39442   5.395   4.451   6.715 -0.2794  0.9234 -0.6161
  299MOL0     H39443   5.283   4.532   6.805  2.9043 -2.2264  1.0971
  299MOL0     H39444   5.284   4.729   6.668  0.4586 -0.3878  3.1569
  299MOL0     H39445   5.392   4.661   6.544  1.2431  2.8134  0.4281
  299MOL0     H39446   5.509   4.811   6.694  0.1554  1.2988 -1.1544
  299MOL0     H39447   5.469   4.702   6.836  0.7922 -0.3787  0.3946
  299MOL0     H39448   5.710   4.673   6.729  1.1764 -1.3914 -0.3950
  299MOL0     H39449   5.619   4.578   6.607  1.0486 -0.1755  0.4517
  299MOL0     H39450   4.764   4.018   6.790 -0.5226  0.7050 -1.3703
  299MOL0     H39451   4.535   3.984   6.840 -0.0718 -0.7859 -0.2926
  299MOL0     H39452   4.014   4.349   6.952 -2.1699  0.9082 -0.5091
  299MOL0     H39453   3.804   4.247   6.989 -0.9140  0.4188 -0.7542
  299MOL0     H39454   4.222   3.975   5.755 -1.5166 -2.6534 -0.1864
  299MOL0     H39455   4.471   3.906   5.771  1.5280 -1.2771  1.8401
  299MOL0     H39456   4.828   3.582   5.903  1.5421 -0.7338  0.8715
  299MOL0     H39457   5.068   3.582   5.826 -0.4347 -0.0056 -1.2691
  299MOL0     H39458   5.278   3.954   5.903 -0.1069  1.2563 -0.5220
  299MOL0     H39459   5.272   3.960   5.735 -3.8707  0.9934  1.8805
  299MOL0     H39460   5.489   3.848   5.707  2.3869 -0.2749  0.8921
  299MOL0     H39461   5.506   3.962   5.842 -2.0669  2.4754 -2.3691
  299MOL0     H39462   5.442   3.702   5.931  1.0538  0.1533  0.2115
  299MOL0     H39463   5.577   3.813   5.989  3.5428  1.3680 -1.6791
  299MOL0     H39464   5.586   3.654   5.747 -0.5218 -0.2110  0.9838
  299MOL0     H39465   5.717   3.752   5.830 -2.0250  2.4969 -1.3823
  299MOL0     H39466   5.726   3.375   6.028  0.5593 -0.4679  0.6372
  299MOL0     H39467   5.063   4.009   5.854  0.0197  1.0529 -0.8280
  299MOL0     H39468   4.828   4.005   5.906 -0.6362  0.2769 -2.2132
  300MOL0     O39469   1.296   7.424  10.895 -0.5708 -0.3100 -0.5216
  300MOL0     C39470   1.392   7.368  10.956  0.7555  0.1315  0.2371
  300MOL0     O39471   1.411   7.238  10.980  0.4520  1.1511  0.0868
  300MOL0     C39472   1.299   7.156  10.949  0.1912  0.2572  0.5179
  300MOL0     C39473   1.244   7.131  10.822  0.7612 -0.0193 -0.7143
  300MOL0     C39474   1.130   7.056  10.802 -0.5485  0.0090 -0.3493
  300MOL0     C39475   1.062   6.987  10.908 -0.6739  0.3754  0.7996
  300MOL0     O39476   0.953   6.910  10.906  0.0858  0.3339  0.4340
  300MOL0     C39477   0.851   6.934  10.810  0.4620 -0.5717  0.3878
  300MOL0     C39478   0.722   6.917  10.884  0.5715 -0.1256 -0.0725
  300MOL0     C39479   0.605   6.927  10.779 -0.3507  0.4342 -0.2967
  300MOL0     C39480   0.563   7.066  10.731  0.7137  0.1455  0.1931
  300MOL0     C39481   0.418   7.069  10.670 -0.6742 -0.6266 -0.3954
  300MOL0     C39482   0.318   7.070  10.785  0.3636 -0.6077 -0.3376
  300MOL0     C39483   0.178   7.107  10.738 -0.1992 -0.2806  0.2420
  300MOL0     C39484   0.113   6.992  10.659  0.0950  1.2192  0.3443
  300MOL0     N39485  -0.010   7.037  10.585 -0.2245  0.1695 -0.0239
  300MOL0     C39486  -0.112   6.961  10.546 -0.0446 -0.6726  0.2248
  300MOL0     C39487  -0.204   7.045  10.493  1.1237  0.5220 -0.1775
  300MOL0     C39488  -0.338   6.995  10.441 -0.0851 -0.4058  0.8634
  300MOL0     C39489  -0.377   7.069  10.316 -0.3487 -0.3345  0.0784
  300MOL0     C39490  -0.521   7.020  10.269 -0.5585 -0.4516  0.0786
  300MOL0     C39491  -0.561   7.091  10.137 -0.4930 -0.9589  0.5674
  300MOL0     O39492  -0.687   7.044  10.094 -0.4390 -0.3959 -0.1122
  300MOL0     C39493  -0.803   7.127  10.099 -0.0117 -0.3558 -0.4652
  300MOL0     C39494  -0.912   7.087  10.023 -0.2702 -0.2769 -0.2767
  300MOL0     C39495  -1.036   7.145  10.041  0.5459  0.3545 -0.3628
  300MOL0     C39496  -1.059   7.247  10.136 -0.0858 -0.6740  0.0729
  300MOL0     C39497  -1.197   7.294  10.161 -0.3427  0.5558  0.5080
  300MOL0     O39498  -1.291   7.260  10.068  0.2104 -0.1006  0.0115
  300MOL0     C39499  -1.428   7.281  10.093 -0.0434 -0.0002 -0.3977
  300MOL0     C39500  -1.487   7.399  10.134 -0.3605 -0.5886  0.5448
  300MOL0     C39501  -1.624   7.416  10.137  0.7582 -0.4132  1.1725
  300MOL0     C39502  -1.704   7.310  10.102 -0.0650  0.4141 -0.2551
  300MOL0     O39503  -1.837   7.335  10.104  0.7638 -0.3011  0.2504
  300MOL0     C39504  -1.914   7.214  10.129 -1.2699  0.1863  0.2297
  300MOL0     C39505  -2.064   7.245  10.131 -0.0570  0.4616  0.2016
  300MOL0     C39506  -2.117   7.326  10.256 -0.6681 -0.2691  0.1122
  300MOL0     C39507  -2.264   7.370  10.249 -0.1471  0.0073  0.2616
  300MOL0     C39508  -2.305   7.448  10.369 -0.0584 -0.6637  0.7504
  300MOL0     C39509  -2.444   7.517  10.333 -0.2926 -1.3550 -0.8147
  300MOL0     C39510  -2.568   7.433  10.344  0.2737 -1.0308 -0.4556
  300MOL0     C39511  -2.679   7.527  10.344  0.3843  0.3865 -0.3445
  300MOL0    Cl39512  -2.814   7.452  10.249 -0.3275  0.7844 -0.1728
  300MOL0     C39513  -1.644   7.200  10.043 -0.3670 -0.4950 -0.7900
  300MOL0     C39514  -1.510   7.179  10.041 -1.0514  0.0230 -0.9532
  300MOL0     O39515  -1.221   7.357  10.263  0.2570 -0.1137 -0.1415
  300MOL0     C39516  -0.949   7.302  10.202 -0.0399  0.3674  0.1700
  300MOL0     C39517  -0.823   7.235  10.195 -1.1669 -0.6043 -0.2234
  300MOL0     N39518  -0.150   7.170  10.491 -0.4053  0.3958  0.1256
  300MOL0     N39519  -0.039   7.171  10.561 -0.1152  0.1316  0.5102
  300MOL0     C39520   1.130   6.999  11.035  0.1688 -0.9957  0.0699
  300MOL0     C39521   1.250   7.077  11.051  0.1832 -0.2186  0.6317
  300MOL0     C39522   1.493   7.460  11.007  0.7205  0.4586  0.2437
  300MOL0     C39523   1.478   7.599  10.995  0.5195  0.0280  0.0383
  300MOL0     C39524   1.575   7.677  11.057 -0.0267 -0.0346 -0.0135
  300MOL0     C39525   1.687   7.626  11.112 -0.0627  0.1418  0.4449
  300MOL0     O39526   1.792   7.707  11.161  0.5746 -0.0570 -0.0678
  300MOL0     C39527   1.801   7.839  11.108  0.5759 -0.4640  0.1303
  300MOL0     C39528   1.945   7.894  11.130 -0.6720  0.6440 -0.0151
  300MOL0     C39529   1.988   7.882  11.269  0.8621  0.6867 -0.1649
  300MOL0     C39530   2.145   7.900  11.272  0.6328 -0.7577 -0.3279
  300MOL0     C39531   2.183   7.918  11.410  0.8799  0.6598 -0.2948
  300MOL0     C39532   2.199   7.945  11.528  0.1468  1.1473  0.6021
  300MOL0     C39533   1.705   7.489  11.121  0.0527  0.7589 -0.3753
  300MOL0     C39534   1.609   7.410  11.064 -0.3412 -0.3513 -0.4344
  300MOL0     H39535   1.284   7.182  10.736 -0.5107  0.2316 -1.1761
  300MOL0     H39536   1.099   7.047  10.699  0.2601 -1.6161 -0.4854
  300MOL0     H39537   0.862   6.858  10.732  1.5351 -1.0157  0.9567
  300MOL0     H39538   0.851   7.034  10.764  0.3518 -1.1348 -0.8867
  300MOL0     H39539   0.711   6.987  10.967  1.2215 -2.0427  1.7058
  300MOL0     H39540   0.711   6.822  10.937  2.4416  0.1181  0.8390
  300MOL0     H39541   0.522   6.873  10.825  2.3058 -2.4016  1.5114
  300MOL0     H39542   0.639   6.875  10.689  2.5978  1.0964  0.3280
  300MOL0     H39543   0.565   7.135  10.816  1.1585  1.3259 -0.7448
  300MOL0     H39544   0.631   7.117  10.662 -2.4333  2.7170 -1.3002
  300MOL0     H39545   0.404   6.977  10.612 -1.1428 -1.2991  0.7430
  300MOL0     H39546   0.407   7.164  10.617 -1.2117  0.8572  2.1903
  300MOL0     H39547   0.344   7.160  10.842 -1.3623 -0.8712  0.9324
  300MOL0     H39548   0.318   6.977  10.842  0.8938 -0.7107 -0.5018
  300MOL0     H39549   0.118   7.124  10.828  0.7046 -0.7024  0.9390
  300MOL0     H39550   0.178   7.200  10.680 -0.0536 -1.2989 -1.4705
  300MOL0     H39551   0.099   6.906  10.727 -0.9283  0.4050 -0.8462
  300MOL0     H39552   0.173   6.952  10.576 -1.2510 -0.4346  0.1092
  300MOL0     H39553  -0.120   6.852  10.547 -2.6760 -0.5535  0.0835
  300MOL0     H39554  -0.417   7.008  10.516  0.7190 -0.0750  1.6712
  300MOL0     H39555  -0.326   6.888  10.419 -1.1856 -1.0468  3.0156
  300MOL0     H39556  -0.296   7.065  10.243 -1.0046  0.9408 -0.7585
  300MOL0     H39557  -0.382   7.172  10.353 -1.1412  0.6216 -2.4654
  300MOL0     H39558  -0.530   6.912  10.257 -1.2407 -0.3696 -0.1776
  300MOL0     H39559  -0.601   7.034  10.343 -0.3918  0.1137  0.1607
  300MOL0     H39560  -0.478   7.075  10.068 -0.0426  1.8657  0.3029
  300MOL0     H39561  -0.561   7.200  10.147  1.5378 -0.9695  1.0771
  300MOL0     H39562  -0.895   7.000   9.960  0.8892  1.6367 -2.7717
  300MOL0     H39563  -1.117   7.093   9.991  0.9386 -0.5644 -0.0670
  300MOL0     H39564  -1.425   7.482  10.169 -3.2411  1.6627  0.6455
  300MOL0     H39565  -1.671   7.502  10.183 -2.6319 -1.4496 -0.0366
  300MOL0     H39566  -1.881   7.177  10.227 -2.0375 -0.2891  0.3213
  300MOL0     H39567  -1.894   7.136  10.056  1.8100 -0.3376  1.4644
  300MOL0     H39568  -2.120   7.151  10.134  1.4462 -0.4418  2.1294
  300MOL0     H39569  -2.082   7.298  10.037  0.8309 -0.5201 -0.5404
  300MOL0     H39570  -2.054   7.416  10.255 -1.5172  0.4077 -3.1356
  300MOL0     H39571  -2.105   7.262  10.344 -0.0567 -2.3645 -1.4270
  300MOL0     H39572  -2.283   7.426  10.157  1.9613 -0.5539 -0.5700
  300MOL0     H39573  -2.327   7.280  10.238 -0.4081  0.3931 -2.0125
  300MOL0     H39574  -2.244   7.537  10.381 -2.5867  1.5134 -1.1820
  300MOL0     H39575  -2.301   7.393  10.463 -1.9614 -2.2468 -0.0137
  300MOL0     H39576  -2.448   7.568  10.236  2.3156  1.8237  0.5282
  300MOL0     H39577  -2.438   7.597  10.407  6.4496  0.1815 -2.2949
  300MOL0     H39578  -2.564   7.358  10.264 -1.2852  1.8315 -3.4657
  300MOL0     H39579  -2.579   7.385  10.441  1.3939 -1.3962 -0.4951
  300MOL0     H39580  -2.651   7.613  10.282  0.2621 -0.3188 -1.3977
  300MOL0     H39581  -2.704   7.559  10.446 -1.3178  1.3633 -1.0139
  300MOL0     H39582  -1.702   7.131   9.982  0.9391 -1.6986 -0.7259
  300MOL0     H39583  -1.469   7.092   9.991 -0.7529 -0.4068  0.0095
  300MOL0     H39584  -0.969   7.377  10.278 -0.9221  1.8053 -1.4272
  300MOL0     H39585  -0.745   7.261  10.266 -1.3508 -0.9773  0.1230
  300MOL0     H39586   1.095   6.940  11.119  3.6390 -2.1257  0.9167
  300MOL0     H39587   1.289   7.080  11.153  0.1604 -2.3530  0.7536
  300MOL0     H39588   1.393   7.645  10.945 -0.0587  0.0688  1.0392
  300MOL0     H39589   1.562   7.784  11.070 -3.2835 -0.4964  1.5641
  300MOL0     H39590   1.734   7.913  11.153 -0.4652  0.6707 -3.0042
  300MOL0     H39591   1.792   7.844  10.999  0.2044  0.8244  0.2123
  300MOL0     H39592   2.013   7.841  11.062  0.0441  2.2097 -0.5701
  300MOL0     H39593   1.938   7.997  11.095 -1.1901 -0.0735 -2.2159
  300MOL0     H39594   1.939   7.800  11.321 -1.2653  1.9778 -0.0235
  300MOL0     H39595   1.940   7.968  11.316  1.3428  0.3046  1.0807
  300MOL0     H39596   2.184   7.807  11.230  1.0430 -0.2371 -1.1233
  300MOL0     H39597   2.180   7.987  11.216 -0.6048  0.0896  0.1723
  300MOL0     H39598   2.206   7.972  11.631  1.7083  1.3098  0.4880
  300MOL0     H39599   1.788   7.441  11.172  2.6122  0.9093 -4.0432
  300MOL0     H39600   1.631   7.304  11.072  3.2794  0.3361  1.0326
  301MOL0     O39601   7.719   9.517   2.875  0.3325 -0.6082 -0.5304
  301MOL0     C39602   7.792   9.419   2.847  0.2364 -1.2126  1.2357
  301MOL0     O39603   7.925   9.410   2.879 -0.4343  0.5201  0.1288
  301MOL0     C39604   7.986   9.497   2.969  0.4374  0.2801 -0.1442
  301MOL0     C39605   7.949   9.633   2.982  0.4792  1.1085  0.8053
  301MOL0     C39606   7.995   9.711   3.094  0.3652 -0.6959  0.6973
  301MOL0     C39607   8.084   9.655   3.180 -1.4620  0.9496  0.1766
  301MOL0     O39608   8.148   9.727   3.280  0.5457  0.5093 -0.0575
  301MOL0     C39609   8.081   9.834   3.352 -0.1382 -0.6848  0.0621
  301MOL0     C39610   7.967   9.769   3.433 -0.3594 -0.6884 -0.6943
  301MOL0     C39611   7.974   9.803   3.585  0.5823 -0.1762 -0.1201
  301MOL0     C39612   7.873   9.718   3.654 -0.5004  0.4754  1.5204
  301MOL0     C39613   7.890   9.741   3.807  0.5022  0.8178 -0.7625
  301MOL0     C39614   7.767   9.696   3.891 -0.0781  0.1286  0.0745
  301MOL0     C39615   7.758   9.756   4.038  0.0024  0.1256 -0.1822
  301MOL0     C39616   7.721   9.912   4.052 -0.2939  1.1646  0.9347
  301MOL0     N39617   7.742   9.971   4.178 -0.3114  0.3862 -0.9211
  301MOL0     C39618   7.668   9.925   4.286 -0.0297  0.4213  0.7054
  301MOL0     C39619   7.708  10.001   4.387 -1.0927 -0.7303  0.2300
  301MOL0     C39620   7.667   9.992   4.534 -0.5439  0.7304  0.1101
  301MOL0     C39621   7.540  10.065   4.571  0.8177  0.2392  0.2117
  301MOL0     C39622   7.416   9.971   4.572 -0.2549 -0.6619  0.1113
  301MOL0     C39623   7.282  10.051   4.584 -0.3967 -0.9785  0.1354
  301MOL0     O39624   7.171   9.963   4.598 -0.1494  0.5314  0.5237
  301MOL0     C39625   7.047  10.012   4.608  0.0874 -0.4891 -0.3926
  301MOL0     C39626   6.950   9.955   4.530  0.0369  0.7338 -0.2243
  301MOL0     C39627   6.812   9.987   4.554 -0.1900 -0.0752  0.4590
  301MOL0     C39628   6.780  10.106   4.625 -0.1902  0.0436 -0.3902
  301MOL0     C39629   6.639  10.159   4.649  0.1689 -0.8353  0.1869
  301MOL0     O39630   6.627  10.271   4.738  0.3033 -0.6416 -0.7126
  301MOL0     C39631   6.501  10.311   4.759  0.3181  0.2075  0.6840
  301MOL0     C39632   6.424  10.361   4.651 -0.6741  0.1865 -0.4374
  301MOL0     C39633   6.295  10.420   4.670 -0.7542  0.6930  0.7969
  301MOL0     C39634   6.245  10.428   4.796 -0.9279 -0.2598 -0.0373
  301MOL0     O39635   6.129  10.489   4.835  0.0415 -0.6115  0.6674
  301MOL0     C39636   6.039  10.518   4.725  0.7574 -0.1977 -1.2043
  301MOL0     C39637   5.896  10.550   4.791 -0.7032 -0.2435 -0.4508
  301MOL0     C39638   5.896  10.648   4.902 -1.2980 -0.0488  0.7449
  301MOL0     C39639   5.957  10.779   4.852 -0.8285  0.9726  0.2106
  301MOL0     C39640   5.947  10.886   4.965  0.1469  0.0962 -0.0031
  301MOL0     C39641   6.005  10.835   5.101  0.6822  0.0985 -0.1746
  301MOL0     C39642   6.146  10.788   5.091 -0.1260  0.2554 -1.0108
  301MOL0     C39643   6.246  10.908   5.077  0.2481 -0.4049  0.5540
  301MOL0    Cl39644   6.409  10.844   5.131  0.3165 -0.0736  0.1312
  301MOL0     C39645   6.333  10.386   4.906  0.2448  0.0212  0.7294
  301MOL0     C39646   6.449  10.326   4.889 -0.4952  0.5776  0.4985
  301MOL0     O39647   6.541  10.092   4.613 -0.0877 -0.9396  0.3132
  301MOL0     C39648   6.885  10.172   4.693  0.0247  0.8916  0.4939
  301MOL0     C39649   7.012  10.116   4.697 -0.4330 -0.6759 -0.3173
  301MOL0     N39650   7.806  10.085   4.340 -1.1066 -0.4956  0.3062
  301MOL0     N39651   7.829  10.072   4.212 -0.3377 -0.6342 -0.6950
  301MOL0     C39652   8.139   9.529   3.149  0.1407  0.4312 -0.4103
  301MOL0     C39653   8.089   9.445   3.047 -0.2794  0.0807 -0.1710
  301MOL0     C39654   7.729   9.299   2.784  0.0238  0.1206  0.2004
  301MOL0     C39655   7.807   9.191   2.741 -0.0779 -0.0979 -0.3905
  301MOL0     C39656   7.750   9.084   2.687  0.3496 -0.3321  0.3415
  301MOL0     C39657   7.614   9.061   2.711  0.8170  0.4923 -0.2894
  301MOL0     O39658   7.545   8.951   2.678  0.9512  0.3682 -0.2792
  301MOL0     C39659   7.617   8.841   2.615  0.1128 -0.0156  0.0246
  301MOL0     C39660   7.660   8.863   2.467  0.0481 -0.0197  0.0858
  301MOL0     C39661   7.745   8.753   2.411 -0.4550 -0.5707 -0.3249
  301MOL0     C39662   7.762   8.773   2.261 -0.7648 -0.0462  0.0991
  301MOL0     C39663   7.864   8.669   2.222 -0.7283 -0.8950 -0.0220
  301MOL0     C39664   7.960   8.602   2.205 -0.7332 -0.3163  0.2135
  301MOL0     C39665   7.535   9.163   2.766 -0.6418 -0.4435  0.5829
  301MOL0     C39666   7.592   9.283   2.786  0.3315  0.4016 -0.4562
  301MOL0     H39667   7.895   9.683   2.902 -1.7490 -2.0153  0.1598
  301MOL0     H39668   7.974   9.817   3.104  1.5641 -0.4303  0.5644
  301MOL0     H39669   8.037   9.917   3.295 -0.9305 -0.7431  0.5766
  301MOL0     H39670   8.154   9.877   3.421  1.3818 -1.6743 -0.8669
  301MOL0     H39671   7.971   9.663   3.405 -0.0409 -0.2844 -2.3093
  301MOL0     H39672   7.868   9.807   3.409 -0.8074 -1.8414 -0.7447
  301MOL0     H39673   7.951   9.906   3.611 -3.4909 -1.2170  1.2318
  301MOL0     H39674   8.074   9.777   3.622  1.5771  4.6721  1.2369
  301MOL0     H39675   7.774   9.749   3.621 -0.8671 -2.5709 -0.6254
  301MOL0     H39676   7.888   9.613   3.629  3.2582  1.1134  0.4772
  301MOL0     H39677   7.915   9.841   3.843  0.8654 -0.0859  1.6333
  301MOL0     H39678   7.974   9.680   3.839  0.2355 -0.1192 -1.7786
  301MOL0     H39679   7.777   9.587   3.898  0.0709  0.1090 -0.3934
  301MOL0     H39680   7.682   9.737   3.836  0.5895  0.1173 -1.0145
  301MOL0     H39681   7.683   9.701   4.095 -0.3316 -0.8836 -1.5599
  301MOL0     H39682   7.853   9.749   4.092 -2.0086  0.4450  3.7545
  301MOL0     H39683   7.618   9.927   4.018  0.0313 -0.2122 -0.8019
  301MOL0     H39684   7.792   9.965   3.987  0.6269 -1.2535 -0.1565
  301MOL0     H39685   7.606   9.836   4.278 -2.3798  1.9983  0.3231
  301MOL0     H39686   7.755  10.019   4.594  0.0200  0.6300 -0.6552
  301MOL0     H39687   7.661   9.887   4.564  0.0075  0.2956 -1.2337
  301MOL0     H39688   7.519  10.142   4.496  1.5838  0.2082 -0.0478
  301MOL0     H39689   7.547  10.120   4.665 -0.0647  3.4394 -1.4625
  301MOL0     H39690   7.420   9.916   4.477  1.1798  1.7084 -1.2705
  301MOL0     H39691   7.418   9.895   4.652  0.0178 -0.7738 -0.0010
  301MOL0     H39692   7.264  10.104   4.490 -0.9335  2.3490  1.9727
  301MOL0     H39693   7.291  10.120   4.668  1.6783 -0.6731 -0.2677
  301MOL0     H39694   6.981   9.876   4.462 -0.0116  1.0446 -0.6082
  301MOL0     H39695   6.732   9.942   4.496  0.5611 -0.4717 -0.2907
  301MOL0     H39696   6.453  10.341   4.548 -1.0494 -0.2950 -0.4531
  301MOL0     H39697   6.250  10.472   4.585  2.5336  0.3949 -1.3226
  301MOL0     H39698   6.036  10.429   4.662  0.3043 -1.9046  1.0965
  301MOL0     H39699   6.071  10.605   4.667 -0.4218  0.3031 -1.1347
  301MOL0     H39700   5.856  10.464   4.845 -0.2074 -0.1644  0.0397
  301MOL0     H39701   5.830  10.579   4.709 -1.1202 -0.3656 -0.1634
  301MOL0     H39702   5.967  10.611   4.976  2.6660  1.0038 -2.1753
  301MOL0     H39703   5.795  10.663   4.940 -1.9143 -0.7146 -0.5481
  301MOL0     H39704   6.059  10.766   4.815 -1.2591 -2.0591 -0.0949
  301MOL0     H39705   5.901  10.797   4.759 -1.6879 -3.2034 -0.2380
  301MOL0     H39706   5.844  10.916   4.983  0.3796  0.5865  0.5178
  301MOL0     H39707   6.009  10.969   4.928  2.9918 -1.8048  0.1477
  301MOL0     H39708   5.938  10.760   5.145  1.3705 -0.6778 -0.4222
  301MOL0     H39709   6.000  10.918   5.173 -2.4626  0.1300 -0.2648
  301MOL0     H39710   6.177  10.739   5.184  0.3482  2.4215  0.0441
  301MOL0     H39711   6.165  10.713   5.014 -0.5240  0.2722 -1.1257
  301MOL0     H39712   6.223  10.982   5.154  0.0379  2.5009 -2.0835
  301MOL0     H39713   6.236  10.952   4.977 -2.7729  0.2469  1.0493
  301MOL0     H39714   6.298  10.383   5.009 -1.2360  4.6331  0.6136
  301MOL0     H39715   6.489  10.262   4.967 -0.3796  1.2258  0.9833
  301MOL0     H39716   6.862  10.263   4.748 -0.0158  0.4865  1.1467
  301MOL0     H39717   7.082  10.170   4.760  0.8608 -1.4159 -1.0866
  301MOL0     H39718   8.214   9.492   3.219 -0.3362 -2.8342 -1.4388
  301MOL0     H39719   8.134   9.346   3.049 -0.1663  0.1000 -1.2738
  301MOL0     H39720   7.915   9.197   2.729 -0.1058 -1.3640 -1.5376
  301MOL0     H39721   7.814   9.009   2.642 -1.1680 -1.4540 -0.0693
  301MOL0     H39722   7.550   8.755   2.617  1.2639 -1.0068 -1.8609
  301MOL0     H39723   7.703   8.815   2.677  0.4533  0.5838 -0.1885
  301MOL0     H39724   7.563   8.859   2.416 -0.3464  1.3273  0.6831
  301MOL0     H39725   7.716   8.957   2.459 -2.5466  1.9552  2.9689
  301MOL0     H39726   7.698   8.657   2.434 -1.4181  0.3507  1.8487
  301MOL0     H39727   7.847   8.757   2.451 -0.3862 -1.1121 -0.4387
  301MOL0     H39728   7.670   8.751   2.206  0.6818 -1.9531 -1.6904
  301MOL0     H39729   7.803   8.871   2.237  1.2324 -0.4794  1.4614
  301MOL0     H39730   8.045   8.539   2.187 -1.5483 -0.7577 -2.5781
  301MOL0     H39731   7.430   9.136   2.772 -0.7969 -0.1288 -0.6550
  301MOL0     H39732   7.527   9.367   2.808 -1.3962 -0.1931 -2.8656
  302MOL0     O39733  10.115   6.306   9.434 -0.5667  0.0483  0.5887
  302MOL0     C39734  10.192   6.392   9.456 -0.4967  0.5446 -0.0375
  302MOL0     O39735  10.176   6.523   9.429 -0.1482  0.3131 -0.1397
  302MOL0     C39736  10.103   6.560   9.324  0.2480  0.1201 -0.1514
  302MOL0     C39737  10.085   6.493   9.197  0.1393  0.7638 -0.3766
  302MOL0     C39738  10.008   6.542   9.097  1.0594  0.2874 -0.2703
  302MOL0     C39739   9.942   6.666   9.106  0.8215 -0.5954  0.4327
  302MOL0     O39740   9.832   6.703   9.026 -1.1078 -0.4078  0.2061
  302MOL0     C39741   9.763   6.606   8.940  0.2327 -0.5267 -0.2773
  302MOL0     C39742   9.642   6.678   8.875  0.1258  0.0944 -0.1967
  302MOL0     C39743   9.572   6.590   8.766  0.3048 -0.0895 -0.0461
  302MOL0     C39744   9.454   6.669   8.704 -0.3399  0.1205  0.3786
  302MOL0     C39745   9.356   6.573   8.645 -0.0041 -0.1236 -0.2268
  302MOL0     C39746   9.249   6.635   8.555  0.4345 -0.3036 -0.1410
  302MOL0     C39747   9.165   6.532   8.473  0.0369  0.6574  0.6284
  302MOL0     C39748   9.095   6.425   8.558 -0.2683  0.7586  0.4775
  302MOL0     N39749   8.988   6.480   8.638 -0.0995  0.2684  0.3170
  302MOL0     C39750   8.879   6.534   8.587  0.3522 -1.2122 -0.4283
  302MOL0     C39751   8.834   6.610   8.693  0.3862  1.1565  1.1505
  302MOL0     C39752   8.701   6.686   8.680  0.1957  0.2227  0.4972
  302MOL0     C39753   8.700   6.817   8.596  0.5139  0.7297 -0.1833
  302MOL0     C39754   8.568   6.903   8.610 -0.6242  0.6284  0.3004
  302MOL0     C39755   8.592   7.041   8.540 -0.0195  0.2469  0.6619
  302MOL0     O39756   8.496   7.149   8.576  0.0015  0.7523  0.3792
  302MOL0     C39757   8.365   7.132   8.557  0.9085 -0.3531  0.1224
  302MOL0     C39758   8.295   7.063   8.657 -0.0212 -0.5825  0.1755
  302MOL0     C39759   8.153   7.044   8.647 -0.3583 -0.2940  0.2346
  302MOL0     C39760   8.092   7.090   8.526  0.1906  0.2949  0.3847
  302MOL0     C39761   7.952   7.063   8.496  0.3872 -1.0655 -0.4831
  302MOL0     O39762   7.910   7.143   8.397  0.6119 -0.2289  0.1388
  302MOL0     C39763   7.774   7.162   8.375 -0.2648  0.4077  0.5978
  302MOL0     C39764   7.730   7.186   8.241  0.4236 -0.2642  0.0695
  302MOL0     C39765   7.594   7.210   8.211  0.3301  0.5308 -0.1461
  302MOL0     C39766   7.490   7.194   8.306 -0.3622  0.2597 -1.1952
  302MOL0     O39767   7.360   7.183   8.255 -0.3728  0.1011 -0.3504
  302MOL0     C39768   7.240   7.199   8.339 -0.0948  0.2929  0.4774
  302MOL0     C39769   7.122   7.245   8.257  0.0359 -0.4419  0.0772
  302MOL0     C39770   7.011   7.301   8.351  0.4500  0.5448 -0.4418
  302MOL0     C39771   6.921   7.407   8.289 -0.2274 -0.8638 -0.6633
  302MOL0     C39772   6.847   7.363   8.159 -1.0449  0.5700  0.1073
  302MOL0     C39773   6.733   7.266   8.169  0.0100  0.3970  1.0483
  302MOL0     C39774   6.640   7.271   8.040 -0.6581  0.3096 -0.2506
  302MOL0     C39775   6.699   7.191   7.917  0.2765 -0.1777 -0.6807
  302MOL0    Cl39776   6.562   7.205   7.801 -0.0244 -0.3102  0.5908
  302MOL0     C39777   7.535   7.178   8.438 -0.5733 -0.6661 -0.4366
  302MOL0     C39778   7.673   7.160   8.473  0.2823 -0.7877 -0.6996
  302MOL0     O39779   7.883   7.000   8.570 -0.0810 -0.5373  0.4579
  302MOL0     C39780   8.166   7.169   8.436  0.0092  0.7001  0.0722
  302MOL0     C39781   8.303   7.182   8.440  0.3864  0.2308  0.2011
  302MOL0     N39782   8.916   6.597   8.803  0.2278 -0.4489 -0.5118
  302MOL0     N39783   9.013   6.522   8.767  0.4792 -0.0395  0.0936
  302MOL0     C39784   9.963   6.733   9.226 -0.6733 -0.5802  0.0088
  302MOL0     C39785  10.037   6.681   9.330 -1.1853  0.4149  0.5238
  302MOL0     C39786  10.315   6.357   9.529  0.2534 -0.6161  0.4127
  302MOL0     C39787  10.326   6.234   9.588  0.8335 -0.3238  0.6525
  302MOL0     C39788  10.438   6.200   9.667  0.2220 -0.4278 -0.8115
  302MOL0     C39789  10.549   6.282   9.683  0.0450 -0.0066 -0.3828
  302MOL0     O39790  10.657   6.226   9.750  0.4734 -0.4534 -0.6100
  302MOL0     C39791  10.773   6.308   9.773  0.1119 -0.5684 -0.0687
  302MOL0     C39792  10.863   6.259   9.888  0.7651  0.2077 -0.5664
  302MOL0     C39793  11.008   6.253   9.861  1.1004  0.3311  0.5186
  302MOL0     C39794  11.079   6.186   9.969 -0.7088 -0.2692 -0.7409
  302MOL0     C39795  11.130   6.278  10.072  0.7493 -0.0447 -0.0603
  302MOL0     C39796  11.160   6.370  10.147 -0.1676 -0.2386 -0.0603
  302MOL0     C39797  10.534   6.415   9.634  0.4644 -0.0366 -0.5758
  302MOL0     C39798  10.414   6.452   9.556  0.0024 -0.4910  0.1741
  302MOL0     H39799  10.121   6.392   9.180  1.6509  1.2500 -0.1457
  302MOL0     H39800   9.989   6.479   9.011  1.3614 -2.2673  1.4257
  302MOL0     H39801   9.753   6.510   8.991  0.7030 -1.3072 -1.5943
  302MOL0     H39802   9.833   6.573   8.863 -1.1512 -0.4069 -1.6427
  302MOL0     H39803   9.674   6.772   8.829 -0.5928  0.2880 -0.3153
  302MOL0     H39804   9.571   6.696   8.957  0.6198 -4.1926  1.4692
  302MOL0     H39805   9.533   6.501   8.816  1.4818  0.7895  2.6555
  302MOL0     H39806   9.643   6.560   8.689 -0.7686  0.3962 -1.2668
  302MOL0     H39807   9.406   6.730   8.780 -0.4533  0.3254  0.1432
  302MOL0     H39808   9.486   6.743   8.629 -1.0632  1.2098  1.1197
  302MOL0     H39809   9.320   6.510   8.727  0.9640  0.5241  0.7289
  302MOL0     H39810   9.406   6.498   8.584 -0.6560 -2.1175  1.5741
  302MOL0     H39811   9.303   6.695   8.481  0.1298 -0.3062 -0.3698
  302MOL0     H39812   9.183   6.701   8.613  0.7010  0.7693 -1.0143
  302MOL0     H39813   9.093   6.593   8.417  0.2096  0.7776  0.5328
  302MOL0     H39814   9.223   6.469   8.404 -0.4478  1.5944 -0.6775
  302MOL0     H39815   9.164   6.377   8.628  0.2400  1.2919  0.3542
  302MOL0     H39816   9.055   6.354   8.486  0.3029 -0.2547  1.1402
  302MOL0     H39817   8.840   6.519   8.487  0.5371  0.1827 -0.7352
  302MOL0     H39818   8.676   6.716   8.782 -0.3551 -0.2299  0.4999
  302MOL0     H39819   8.621   6.623   8.638 -0.5967  0.9833  0.8475
  302MOL0     H39820   8.726   6.788   8.493  1.4292 -1.2622  0.5545
  302MOL0     H39821   8.781   6.885   8.623  2.3365 -1.7415  0.9618
  302MOL0     H39822   8.490   6.848   8.556  0.1840  1.2205 -1.5438
  302MOL0     H39823   8.533   6.898   8.713 -0.6686 -0.4171  0.2450
  302MOL0     H39824   8.564   7.018   8.437  1.4916 -1.5553  0.6065
  302MOL0     H39825   8.694   7.078   8.554  0.3218 -0.4674  0.0887
  302MOL0     H39826   8.346   7.018   8.741 -2.2037 -2.8759  0.4068
  302MOL0     H39827   8.099   6.982   8.718  0.6011  2.1341  3.2889
  302MOL0     H39828   7.814   7.184   8.173  1.4019  1.0368  1.1790
  302MOL0     H39829   7.573   7.214   8.104  4.4779  3.7271 -1.1000
  302MOL0     H39830   7.259   7.277   8.415 -1.9441 -1.9570  3.4905
  302MOL0     H39831   7.204   7.108   8.387 -1.6441  0.5361 -0.1775
  302MOL0     H39832   7.070   7.159   8.214 -1.3206 -0.1827  1.1355
  302MOL0     H39833   7.153   7.319   8.182 -1.2827  0.6768  0.5964
  302MOL0     H39834   7.056   7.356   8.434 -0.8265 -0.5466  1.0188
  302MOL0     H39835   6.956   7.216   8.392  0.8111  0.6494  0.2699
  302MOL0     H39836   6.852   7.428   8.371  1.3195  2.6263 -0.1010
  302MOL0     H39837   6.989   7.489   8.266 -0.3613 -0.5460  0.0424
  302MOL0     H39838   6.915   7.324   8.082 -1.5215  0.9642 -0.5218
  302MOL0     H39839   6.814   7.456   8.112  0.0448  1.0817  0.3198
  302MOL0     H39840   6.665   7.301   8.248 -0.6012 -2.4302  1.8650
  302MOL0     H39841   6.757   7.166   8.205  0.6882 -0.6467 -1.9985
  302MOL0     H39842   6.552   7.213   8.071 -0.7017  0.2748 -0.4398
  302MOL0     H39843   6.615   7.372   8.006 -2.3658 -0.5032 -1.6259
  302MOL0     H39844   6.708   7.085   7.944  0.3941 -0.2013 -0.8121
  302MOL0     H39845   6.794   7.217   7.868 -0.2939  0.5556 -1.4249
  302MOL0     H39846   7.454   7.172   8.510 -1.2619 -0.5033 -1.1857
  302MOL0     H39847   7.700   7.137   8.575  3.3223  0.8031 -1.0427
  302MOL0     H39848   8.105   7.215   8.358 -3.8153 -0.8304  1.9202
  302MOL0     H39849   8.350   7.231   8.355  1.8195  3.0490  2.4631
  302MOL0     H39850   9.911   6.827   9.241  1.0050 -0.1337  5.3821
  302MOL0     H39851  10.057   6.753   9.410 -1.0134 -0.9390  1.7430
  302MOL0     H39852  10.248   6.160   9.580  2.2463 -1.7113 -1.3409
  302MOL0     H39853  10.439   6.102   9.714 -2.2573  0.5490  1.5337
  302MOL0     H39854  10.739   6.409   9.800  0.9916 -0.0741 -0.7772
  302MOL0     H39855  10.828   6.315   9.679 -0.4394  1.2239 -0.3042
  302MOL0     H39856  10.842   6.320   9.976 -3.1830  0.0497 -1.2063
  302MOL0     H39857  10.821   6.165   9.925 -1.8281  2.2145  2.1220
  302MOL0     H39858  11.060   6.347   9.839  0.2087  0.8020  0.4110
  302MOL0     H39859  11.019   6.189   9.772 -0.3703 -0.4928  0.9018
  302MOL0     H39860  11.025   6.108  10.024  0.9066 -1.1487 -0.3174
  302MOL0     H39861  11.169   6.144   9.922  0.7747  2.8226 -0.9082
  302MOL0     H39862  11.176   6.443  10.223  2.0005  0.9458 -1.5275
  302MOL0     H39863  10.616   6.484   9.650 -0.2359  1.1597 -1.9867
  302MOL0     H39864  10.417   6.555   9.522 -1.6007  0.4362  2.5616
  303MOL0     O39865   6.919   6.974   3.765 -0.1582  0.1759  0.6567
  303MOL0     C39866   6.906   6.920   3.657  0.4858 -0.4005 -0.3786
  303MOL0     O39867   6.792   6.900   3.597 -0.0786 -0.1460  0.3007
  303MOL0     C39868   6.666   6.931   3.641 -0.3525  0.0581 -0.0361
  303MOL0     C39869   6.626   6.975   3.772 -0.7128  0.4199  0.5746
  303MOL0     C39870   6.493   7.023   3.795  0.8556 -0.6339 -0.3595
  303MOL0     C39871   6.402   7.040   3.695 -0.1521 -0.0837 -0.3531
  303MOL0     O39872   6.270   7.075   3.719 -0.4568  0.0061 -0.1496
  303MOL0     C39873   6.211   7.187   3.650 -0.8191 -0.4976  0.1434
  303MOL0     C39874   6.087   7.210   3.728  0.1772 -0.9695 -0.2066
  303MOL0     C39875   6.000   7.334   3.667 -1.2928  0.6395 -0.1824
  303MOL0     C39876   5.872   7.351   3.746 -0.0805  0.2192 -0.3784
  303MOL0     C39877   5.765   7.243   3.713 -0.0018 -0.2051 -0.6500
  303MOL0     C39878   5.629   7.302   3.738  0.1497  0.7617 -1.2996
  303MOL0     C39879   5.517   7.214   3.689  0.5102 -0.2040  0.4696
  303MOL0     C39880   5.377   7.270   3.736 -0.3512 -0.0362  0.2445
  303MOL0     N39881   5.279   7.164   3.694 -0.2608  0.0111  0.5553
  303MOL0     C39882   5.274   7.038   3.746 -1.2167  0.2643  0.1604
  303MOL0     C39883   5.160   6.989   3.704 -0.1063  0.7959  0.1056
  303MOL0     C39884   5.114   6.853   3.737  0.6414  0.3270 -0.2140
  303MOL0     C39885   5.155   6.759   3.625  0.4074 -0.0168 -0.1367
  303MOL0     C39886   5.099   6.615   3.655 -0.2504 -0.0200  0.3628
  303MOL0     C39887   5.083   6.510   3.534 -0.3230 -0.0077 -0.1793
  303MOL0     O39888   4.991   6.562   3.437 -0.3042 -0.1195 -0.4143
  303MOL0     C39889   4.849   6.567   3.457 -0.3831  0.1094 -0.7811
  303MOL0     C39890   4.783   6.491   3.555 -0.4338 -0.4683 -1.3711
  303MOL0     C39891   4.649   6.485   3.555 -0.0643 -0.3049  0.0711
  303MOL0     C39892   4.574   6.559   3.470 -0.0300  0.4878 -0.3420
  303MOL0     C39893   4.421   6.538   3.466  0.8535 -0.7890 -0.0958
  303MOL0     O39894   4.353   6.583   3.359  0.1801  0.6466  0.1864
  303MOL0     C39895   4.215   6.560   3.352 -1.1492 -0.2199  0.2822
  303MOL0     C39896   4.163   6.437   3.306  0.5954 -0.2384  0.1732
  303MOL0     C39897   4.024   6.430   3.287  0.3287 -0.6769  0.7909
  303MOL0     C39898   3.935   6.536   3.318  0.5496 -0.4055 -0.3177
  303MOL0     O39899   3.799   6.526   3.328 -1.1544 -0.7364  0.6483
  303MOL0     C39900   3.739   6.403   3.316 -0.2437  0.5042 -0.0515
  303MOL0     C39901   3.592   6.413   3.284 -0.8428  0.1048 -0.1351
  303MOL0     C39902   3.530   6.488   3.410 -0.5994 -0.2038 -0.5989
  303MOL0     C39903   3.377   6.513   3.393 -0.3147 -0.2784  0.0680
  303MOL0     C39904   3.288   6.416   3.485  0.1415 -0.4562  0.8354
  303MOL0     C39905   3.142   6.455   3.500 -0.3771  0.5109 -0.0896
  303MOL0     C39906   3.082   6.369   3.616  0.4671 -0.5969 -0.8085
  303MOL0     C39907   2.933   6.387   3.628  0.2823  0.7837  0.0996
  303MOL0    Cl39908   2.894   6.549   3.683  0.0412 -0.2739  0.6857
  303MOL0     C39909   3.990   6.659   3.364 -0.0960 -0.1986  0.0759
  303MOL0     C39910   4.130   6.666   3.375  0.5537  0.9962 -0.4940
  303MOL0     O39911   4.362   6.495   3.564 -0.4477 -0.8871 -0.0350
  303MOL0     C39912   4.628   6.640   3.366 -0.4805  0.1625 -0.5939
  303MOL0     C39913   4.772   6.648   3.374 -0.3156 -0.2785 -0.2915
  303MOL0     N39914   5.084   7.081   3.635 -0.0153  0.0369  0.0550
  303MOL0     N39915   5.158   7.185   3.628  0.4527 -0.0987 -0.0548
  303MOL0     C39916   6.429   6.985   3.571  0.3934  0.3007  0.2587
  303MOL0     C39917   6.561   6.938   3.546 -0.3358 -0.6976 -0.4927
  303MOL0     C39918   7.022   6.892   3.579  0.4233  0.3946 -0.2082
  303MOL0     C39919   7.151   6.891   3.640  0.2867  0.2273  0.1933
  303MOL0     C39920   7.267   6.873   3.561 -0.1235  0.7575  0.5748
  303MOL0     C39921   7.254   6.836   3.423 -0.4150  0.4854 -0.4747
  303MOL0     O39922   7.360   6.807   3.340  0.5444  0.7872 -0.2624
  303MOL0     C39923   7.437   6.698   3.382 -0.3914  0.1008  0.1774
  303MOL0     C39924   7.570   6.759   3.420 -0.1339  0.1471 -0.1890
  303MOL0     C39925   7.684   6.668   3.464 -0.8207  0.9620 -0.2330
  303MOL0     C39926   7.802   6.753   3.516  0.5070 -0.3033  0.3350
  303MOL0     C39927   7.865   6.835   3.415  0.0004  0.0372  0.2170
  303MOL0     C39928   7.920   6.917   3.339 -0.4195 -0.5700 -1.4061
  303MOL0     C39929   7.125   6.836   3.364  0.4999 -0.3172 -0.0091
  303MOL0     C39930   7.009   6.872   3.437  0.3070 -0.0381 -0.2060
  303MOL0     H39931   6.696   6.965   3.855  0.6760 -1.0528 -0.7008
  303MOL0     H39932   6.472   7.056   3.896  1.9574 -1.8819  0.3113
  303MOL0     H39933   6.183   7.157   3.548  1.6276  1.3190 -1.1562
  303MOL0     H39934   6.278   7.273   3.654  0.1277 -1.2646  2.8933
  303MOL0     H39935   6.094   7.216   3.837 -0.3129 -3.3167  0.0014
  303MOL0     H39936   6.016   7.127   3.722 -0.4698 -0.6898  2.2371
  303MOL0     H39937   5.961   7.312   3.567 -1.2888  1.0275 -0.2677
  303MOL0     H39938   6.059   7.426   3.661 -2.2879  1.2915 -0.1714
  303MOL0     H39939   5.881   7.356   3.855 -1.7265 -1.8653 -0.0772
  303MOL0     H39940   5.838   7.450   3.715 -0.5014  0.3744  0.5179
  303MOL0     H39941   5.787   7.147   3.762  1.0463  0.1102 -0.4745
  303MOL0     H39942   5.763   7.223   3.606 -1.8170 -0.0907 -0.6677
  303MOL0     H39943   5.622   7.402   3.695  3.8532  1.7439 -0.0157
  303MOL0     H39944   5.626   7.312   3.847 -0.7015 -3.6688 -0.7191
  303MOL0     H39945   5.523   7.196   3.581 -2.7510 -0.6011  0.2732
  303MOL0     H39946   5.535   7.119   3.740  0.6710 -0.4047  0.0499
  303MOL0     H39947   5.341   7.365   3.695  0.0954  0.8196  1.7809
  303MOL0     H39948   5.382   7.278   3.845  1.1068  1.7805  0.0979
  303MOL0     H39949   5.352   6.985   3.799  1.6241  1.0717 -2.9324
  303MOL0     H39950   5.005   6.848   3.734  0.6183 -0.7342  1.4295
  303MOL0     H39951   5.151   6.810   3.830  2.0934 -0.9057 -1.3103
  303MOL0     H39952   5.264   6.749   3.622  0.3728 -0.4182  0.0372
  303MOL0     H39953   5.128   6.795   3.524  0.3076  1.0722  0.2602
  303MOL0     H39954   5.173   6.570   3.723  1.1178 -0.2256 -1.1940
  303MOL0     H39955   4.999   6.626   3.698  0.2812  1.5257  1.2953
  303MOL0     H39956   5.045   6.415   3.572 -2.6872  1.7746  2.2847
  303MOL0     H39957   5.181   6.491   3.489 -1.3087  0.1586 -2.5781
  303MOL0     H39958   4.846   6.442   3.629 -1.2827  1.5732  0.8508
  303MOL0     H39959   4.595   6.426   3.628 -0.4613 -0.5120 -0.3878
  303MOL0     H39960   4.235   6.360   3.280  0.8454  0.3632 -0.9910
  303MOL0     H39961   3.994   6.335   3.245  2.0197 -0.6933 -0.5174
  303MOL0     H39962   3.750   6.346   3.409  0.0989  1.6757  0.6454
  303MOL0     H39963   3.782   6.345   3.234 -1.6637  3.0418 -2.7894
  303MOL0     H39964   3.545   6.314   3.276 -1.6243 -0.0334  3.8316
  303MOL0     H39965   3.572   6.467   3.191 -1.2264 -1.9971 -1.3272
  303MOL0     H39966   3.576   6.587   3.414 -1.3883  0.2552 -2.0251
  303MOL0     H39967   3.551   6.427   3.498 -2.1731 -2.4617 -1.6808
  303MOL0     H39968   3.349   6.617   3.415  0.1008  0.3382 -2.0732
  303MOL0     H39969   3.352   6.492   3.288 -0.1895  0.6352 -0.1549
  303MOL0     H39970   3.343   6.407   3.580  2.2176  1.4539 -0.0819
  303MOL0     H39971   3.287   6.318   3.436 -0.8780  0.2264 -0.5621
  303MOL0     H39972   3.082   6.442   3.409 -0.3835 -0.9847  0.1050
  303MOL0     H39973   3.120   6.559   3.527  0.0651  0.3459  0.9231
  303MOL0     H39974   3.111   6.264   3.613  1.6508 -0.2752 -3.7543
  303MOL0     H39975   3.138   6.396   3.706 -0.6388 -0.5024 -0.1239
  303MOL0     H39976   2.888   6.307   3.688 -3.1196 -1.2452 -4.5161
  303MOL0     H39977   2.889   6.362   3.531  1.6745  1.0748 -0.6302
  303MOL0     H39978   3.924   6.743   3.382  1.0677  0.8565 -0.4220
  303MOL0     H39979   4.163   6.766   3.402 -1.9326  1.0205  3.0563
  303MOL0     H39980   4.567   6.693   3.293 -1.2432 -0.8619 -0.7267
  303MOL0     H39981   4.818   6.719   3.305  0.1052  0.4785  0.7484
  303MOL0     H39982   6.364   7.003   3.486 -2.7105 -3.3201  1.5819
  303MOL0     H39983   6.586   6.906   3.446  0.6569 -0.6395 -0.2726
  303MOL0     H39984   7.157   6.905   3.748 -1.9155 -0.5740  0.4912
  303MOL0     H39985   7.363   6.874   3.612  0.6959 -1.1432 -0.7838
  303MOL0     H39986   7.452   6.623   3.304 -0.5096  0.7486 -0.4737
  303MOL0     H39987   7.382   6.649   3.463  0.1975 -0.3417  0.3201
  303MOL0     H39988   7.603   6.812   3.330  2.2921 -0.7691  0.0577
  303MOL0     H39989   7.544   6.829   3.499 -1.7233 -0.7006  0.0840
  303MOL0     H39990   7.711   6.611   3.375 -3.1770  0.6567 -0.8310
  303MOL0     H39991   7.644   6.608   3.546  1.8964 -1.2845 -0.4139
  303MOL0     H39992   7.775   6.803   3.609 -0.9309 -0.1900 -0.1199
  303MOL0     H39993   7.878   6.676   3.533  1.1014 -0.0467 -1.0250
  303MOL0     H39994   7.983   6.977   3.276 -1.1042  1.7470  0.0141
  303MOL0     H39995   7.125   6.800   3.262 -0.1438 -1.8933  0.5144
  303MOL0     H39996   6.913   6.886   3.389  0.9671  0.4028 -1.4324
  304MOL0     O39997   6.993   3.467   2.839 -0.2811  0.6303 -0.9213
  304MOL0     C39998   7.054   3.387   2.917  0.1573 -0.1102 -0.2581
  304MOL0     O39999   7.003   3.269   2.969  0.1411 -0.0900  0.0237
  304MOL0     C40000   6.865   3.252   2.955  0.6526 -0.5829 -0.1551
  304MOL0     C40001   6.822   3.148   2.864  0.0265 -0.0835 -0.2177
  304MOL0     C40002   6.696   3.139   2.829 -0.4784 -0.3062 -0.3076
  304MOL0     C40003   6.603   3.215   2.899  1.1447  0.0385  0.7263
  304MOL0     O40004   6.476   3.182   2.850 -0.0103 -0.5570 -0.1946
  304MOL0     C40005   6.364   3.249   2.913  0.0435  0.2900  0.1155
  304MOL0     C40006   6.320   3.167   3.035  0.7126  0.4025 -0.3717
  304MOL0     C40007   6.236   3.041   3.010 -0.3535  0.7712  0.0949
  304MOL0     C40008   6.155   2.987   3.124  0.9645 -0.7673 -1.3070
  304MOL0     C40009   6.006   3.049   3.123 -0.0489 -0.0234  0.2397
  304MOL0     C40010   5.914   2.963   3.032  0.4457  0.3758  0.3784
  304MOL0     C40011   5.774   3.025   3.026  0.0703  0.0944  0.9400
  304MOL0     C40012   5.706   3.025   3.158  0.1103 -0.1074  0.1143
  304MOL0     N40013   5.561   3.029   3.145  0.5818  0.4269  0.2530
  304MOL0     C40014   5.486   2.924   3.122 -0.3969 -0.5715  0.0541
  304MOL0     C40015   5.368   2.975   3.115 -0.5836 -0.8120  0.0566
  304MOL0     C40016   5.240   2.899   3.095  0.0857  0.0148 -0.7074
  304MOL0     C40017   5.130   2.925   3.206  0.1344  0.3521  0.1154
  304MOL0     C40018   5.118   2.810   3.311 -0.3504  0.5222  0.5733
  304MOL0     C40019   5.244   2.777   3.386 -0.9584  0.3538  0.0373
  304MOL0     O40020   5.315   2.677   3.321 -0.8513  0.1581  0.1805
  304MOL0     C40021   5.452   2.657   3.331 -0.2983 -0.4783 -0.8112
  304MOL0     C40022   5.502   2.581   3.231 -0.5970 -0.4317  0.5151
  304MOL0     C40023   5.642   2.573   3.216 -0.1659  0.4321 -0.1174
  304MOL0     C40024   5.723   2.649   3.294 -0.5045 -0.0467 -0.4483
  304MOL0     C40025   5.870   2.647   3.271  0.3692 -0.3510 -0.1869
  304MOL0     O40026   5.959   2.694   3.370  0.4329 -0.2313 -0.2656
  304MOL0     C40027   6.092   2.700   3.356  0.2206  0.4603  0.2129
  304MOL0     C40028   6.155   2.804   3.421  0.2891  0.7122 -0.5863
  304MOL0     C40029   6.293   2.817   3.410  0.3042  0.2594 -0.2057
  304MOL0     C40030   6.369   2.724   3.337  0.1993  0.0779  0.3572
  304MOL0     O40031   6.502   2.745   3.336 -0.4420 -0.6703  0.3367
  304MOL0     C40032   6.550   2.755   3.197 -0.3665  0.5418 -0.1923
  304MOL0     C40033   6.702   2.802   3.208  0.4004  0.3287 -0.0412
  304MOL0     C40034   6.787   2.761   3.081 -0.1576 -0.5911 -0.3942
  304MOL0     C40035   6.938   2.782   3.092 -0.0036 -0.0059  1.0649
  304MOL0     C40036   7.006   2.733   2.963  0.2908 -0.2865 -0.3077
  304MOL0     C40037   7.151   2.750   2.957 -0.6955 -0.8800  0.6425
  304MOL0     C40038   7.189   2.897   2.944  0.1691  0.7358 -0.5773
  304MOL0     C40039   7.343   2.926   2.934  0.2073  0.2983  0.0266
  304MOL0    Cl40040   7.368   3.101   2.937 -0.2723 -0.3136 -0.0697
  304MOL0     C40041   6.314   2.611   3.277  0.8543 -0.2471  0.4446
  304MOL0     C40042   6.172   2.608   3.278  1.2566  0.2405 -0.9430
  304MOL0     O40043   5.896   2.611   3.156  0.0223 -0.4445 -0.0643
  304MOL0     C40044   5.671   2.710   3.412 -0.5527  0.0929  0.9616
  304MOL0     C40045   5.530   2.711   3.425  0.2863 -0.0857  0.1907
  304MOL0     N40046   5.374   3.114   3.121 -0.1080  0.4448  0.8875
  304MOL0     N40047   5.491   3.145   3.141 -0.1352 -0.1257 -0.3165
  304MOL0     C40048   6.634   3.310   3.000  1.0762 -0.3362  0.1290
  304MOL0     C40049   6.769   3.331   3.020  0.7104  0.5570  0.2220
  304MOL0     C40050   7.177   3.447   2.972 -0.1460 -0.1846 -0.0945
  304MOL0     C40051   7.232   3.416   3.097  0.6409 -0.2912  0.4663
  304MOL0     C40052   7.356   3.460   3.138  1.1792 -1.4047  0.0846
  304MOL0     C40053   7.430   3.534   3.053 -0.2889  0.1655  0.4357
  304MOL0     O40054   7.555   3.589   3.076  0.5729  0.2265 -0.1252
  304MOL0     C40055   7.653   3.510   3.158 -0.6190 -0.3639 -0.7354
  304MOL0     C40056   7.744   3.434   3.057  0.3819 -0.0295  0.1969
  304MOL0     C40057   7.817   3.538   2.968 -0.5892 -0.2552  0.0364
  304MOL0     C40058   7.965   3.496   2.949 -0.0350  0.2312  0.0300
  304MOL0     C40059   8.022   3.580   2.849  0.5681  1.1947 -0.5305
  304MOL0     C40060   8.087   3.652   2.780 -0.1698  0.0125 -0.6859
  304MOL0     C40061   7.381   3.568   2.927  0.3827  0.3578  0.2468
  304MOL0     C40062   7.257   3.518   2.883  0.4690  1.0019  0.4779
  304MOL0     H40063   6.901   3.084   2.824 -0.0865 -0.9130  0.8653
  304MOL0     H40064   6.657   3.065   2.760 -0.9587  0.7384 -1.1935
  304MOL0     H40065   6.275   3.232   2.851 -1.5753  1.2234  2.0509
  304MOL0     H40066   6.366   3.358   2.926 -1.3313  0.3060  0.3821
  304MOL0     H40067   6.268   3.227   3.109 -0.7614 -1.7437  0.4425
  304MOL0     H40068   6.407   3.132   3.091  0.1661  0.3890  0.4829
  304MOL0     H40069   6.307   2.960   2.992 -2.1158 -0.9906  0.7410
  304MOL0     H40070   6.174   3.048   2.920  0.2682 -2.5666 -0.7159
  304MOL0     H40071   6.140   2.880   3.105  1.0834 -0.8437 -0.9733
  304MOL0     H40072   6.199   3.016   3.220 -0.1067 -0.7162 -0.8182
  304MOL0     H40073   6.013   3.154   3.095 -1.1548 -0.4186 -1.7349
  304MOL0     H40074   5.971   3.041   3.226  0.4871  0.7167  0.4888
  304MOL0     H40075   5.894   2.870   3.087 -2.1911  0.6158 -0.0280
  304MOL0     H40076   5.954   2.945   2.932 -1.1154  0.8570 -0.3524
  304MOL0     H40077   5.785   3.132   3.003 -2.0520  1.3289  4.7293
  304MOL0     H40078   5.714   2.969   2.955 -3.1643  0.2504  3.3217
  304MOL0     H40079   5.739   3.121   3.198 -1.6094  1.1243 -1.2979
  304MOL0     H40080   5.745   2.939   3.213  1.9885 -0.9839 -2.3746
  304MOL0     H40081   5.518   2.821   3.114  1.7081 -0.0353  1.0611
  304MOL0     H40082   5.269   2.793   3.097 -0.5887 -0.1882 -1.3006
  304MOL0     H40083   5.194   2.931   3.001 -0.7577  1.4651  0.1663
  304MOL0     H40084   5.031   2.935   3.161  0.6651 -0.5289 -1.3290
  304MOL0     H40085   5.153   3.016   3.261  0.9803 -0.5223  1.2572
  304MOL0     H40086   5.037   2.840   3.378 -3.1472  0.1894 -2.4024
  304MOL0     H40087   5.079   2.723   3.257 -3.1729  1.5630  0.7604
  304MOL0     H40088   5.216   2.751   3.489 -1.1717  3.5967  0.9131
  304MOL0     H40089   5.309   2.865   3.400 -0.8636 -0.0562  2.8008
  304MOL0     H40090   5.435   2.534   3.160 -1.9542  0.0439  1.4436
  304MOL0     H40091   5.687   2.497   3.154 -0.2730 -2.6887  3.2829
  304MOL0     H40092   6.088   2.866   3.480 -0.3876 -0.3954 -0.1579
  304MOL0     H40093   6.343   2.901   3.457  1.5866 -0.8997  0.5866
  304MOL0     H40094   6.495   2.818   3.127  1.2768  3.8086  1.1960
  304MOL0     H40095   6.550   2.650   3.167 -1.3123  0.2953  0.6367
  304MOL0     H40096   6.762   2.770   3.293  1.7598  0.1907 -1.0302
  304MOL0     H40097   6.695   2.912   3.209 -2.6936  0.2548 -0.8814
  304MOL0     H40098   6.752   2.837   3.012 -0.2441 -0.1163  0.1685
  304MOL0     H40099   6.767   2.655   3.059  1.2950 -1.1625  0.7821
  304MOL0     H40100   6.945   2.891   3.104 -2.5637  0.2053  1.3687
  304MOL0     H40101   6.981   2.735   3.180 -0.0057  0.3657  1.2680
  304MOL0     H40102   6.958   2.777   2.875  1.4616  0.9206 -0.3669
  304MOL0     H40103   6.989   2.625   2.957  4.9035 -1.1905 -0.6360
  304MOL0     H40104   7.198   2.696   2.874 -0.7332  0.4402 -0.2756
  304MOL0     H40105   7.206   2.714   3.044  3.6752  0.2451 -1.3497
  304MOL0     H40106   7.141   2.935   2.854 -0.8114 -0.0114 -0.3839
  304MOL0     H40107   7.164   2.959   3.031 -1.4003 -1.2173  0.4268
  304MOL0     H40108   7.374   2.886   2.837 -1.0568  3.5281 -1.8780
  304MOL0     H40109   7.396   2.871   3.013  0.4182 -0.5226 -0.6665
  304MOL0     H40110   6.371   2.534   3.227 -0.0211 -0.5910 -0.0447
  304MOL0     H40111   6.138   2.519   3.226 -0.3491  0.2414  0.0523
  304MOL0     H40112   5.735   2.762   3.482 -0.5179 -3.1811  3.6135
  304MOL0     H40113   5.493   2.776   3.503 -0.5677  0.7815 -0.9075
  304MOL0     H40114   6.564   3.371   3.056  0.8189  1.0368 -1.6182
  304MOL0     H40115   6.802   3.408   3.089 -0.6330  0.7870  0.6388
  304MOL0     H40116   7.173   3.344   3.152 -1.5187 -0.0221 -1.4021
  304MOL0     H40117   7.392   3.441   3.238 -3.3369 -0.5398  2.1105
  304MOL0     H40118   7.609   3.444   3.232 -0.4195  0.5845  0.2571
  304MOL0     H40119   7.715   3.581   3.213 -1.1001 -1.4334  1.2583
  304MOL0     H40120   7.810   3.372   3.117  2.7874  1.3730 -0.8668
  304MOL0     H40121   7.685   3.378   2.983 -1.7721  1.0266  1.0352
  304MOL0     H40122   7.808   3.637   3.013 -0.3351 -0.6691  1.0175
  304MOL0     H40123   7.760   3.558   2.877 -1.9942 -1.2664  0.6577
  304MOL0     H40124   8.017   3.488   3.046  1.0097  1.5316 -0.4036
  304MOL0     H40125   7.968   3.390   2.919  2.3934  0.3449 -0.3103
  304MOL0     H40126   8.149   3.716   2.721  0.4966 -2.4484 -2.8071
  304MOL0     H40127   7.437   3.628   2.856 -0.1442  0.2910 -0.2287
  304MOL0     H40128   7.227   3.543   2.781  0.4653  1.9577  0.7040
  305MOL0     O40129   5.499   0.531  10.417  0.9595 -0.9356  0.1299
  305MOL0     C40130   5.598   0.491  10.371 -0.2413  0.3079  0.3396
  305MOL0     O40131   5.607   0.455  10.239 -0.6043  0.0894  0.5323
  305MOL0     C40132   5.501   0.456  10.147 -0.1514  0.2916 -0.6100
  305MOL0     C40133   5.374   0.414  10.179  1.2215  0.2516  0.2243
  305MOL0     C40134   5.273   0.401  10.086  0.8960  0.0244 -0.0955
  305MOL0     C40135   5.290   0.450   9.954 -0.7809 -0.1893  0.0727
  305MOL0     O40136   5.194   0.462   9.856  0.5357  0.3095  0.6872
  305MOL0     C40137   5.054   0.471   9.901 -0.8120 -0.6037  0.5285
  305MOL0     C40138   4.997   0.327   9.901 -0.3435 -0.6863  0.3445
  305MOL0     C40139   4.850   0.340   9.944 -0.4451  0.9300  0.3004
  305MOL0     C40140   4.794   0.196   9.942  0.9435 -0.0013 -0.3172
  305MOL0     C40141   4.641   0.189   9.974  0.9343 -0.2537  0.0558
  305MOL0     C40142   4.549   0.276   9.874  0.2038 -0.0819  0.6538
  305MOL0     C40143   4.399   0.240   9.872 -0.3799 -0.0078 -0.9168
  305MOL0     C40144   4.319   0.320   9.766  0.5190 -0.7083  0.5710
  305MOL0     N40145   4.180   0.269   9.765  0.4902  0.2256 -0.7235
  305MOL0     C40146   4.135   0.172   9.684  0.0136  0.0453 -0.2283
  305MOL0     C40147   4.003   0.150   9.710 -0.7932  0.8242  0.8612
  305MOL0     C40148   3.912   0.057   9.645  0.4535  0.5587  0.5349
  305MOL0     C40149   3.876   0.097   9.499  0.0550  0.1437  0.9770
  305MOL0     C40150   3.791  -0.010   9.432 -0.0714 -0.4427  0.5259
  305MOL0     C40151   3.694   0.051   9.328 -0.0487  0.3053  0.6376
  305MOL0     O40152   3.637  -0.057   9.254  1.0688 -0.1671 -0.2127
  305MOL0     C40153   3.511  -0.097   9.294 -0.4769  0.5805  0.3348
  305MOL0     C40154   3.406  -0.046   9.220 -0.4886  0.5491  0.0415
  305MOL0     C40155   3.279  -0.090   9.246 -0.0979 -0.0102  0.7582
  305MOL0     C40156   3.255  -0.184   9.353  0.1414 -0.2791 -0.3297
  305MOL0     C40157   3.116  -0.227   9.365  0.4596 -0.4709  0.0233
  305MOL0     O40158   3.094  -0.275   9.492  0.0546 -0.1581 -0.0295
  305MOL0     C40159   2.983  -0.353   9.521  0.5454 -0.1274  0.3469
  305MOL0     C40160   2.943  -0.461   9.436 -0.2748 -0.3066  0.1385
  305MOL0     C40161   2.853  -0.561   9.479  1.2140 -0.7885 -0.1176
  305MOL0     C40162   2.776  -0.535   9.599  0.5193  0.1253  0.8564
  305MOL0     O40163   2.685  -0.623   9.644  0.2704  0.5501 -0.6801
  305MOL0     C40164   2.553  -0.582   9.682 -0.4283 -0.8073  0.3499
  305MOL0     C40165   2.480  -0.691   9.753 -0.9145  0.7835 -0.3365
  305MOL0     C40166   2.572  -0.755   9.864 -0.3975  0.2531  0.4421
  305MOL0     C40167   2.497  -0.852   9.955  0.6809  0.7593 -0.4415
  305MOL0     C40168   2.587  -0.953  10.030 -0.3398 -0.2737  0.9046
  305MOL0     C40169   2.611  -0.912  10.182  0.2830  0.2877 -0.2603
  305MOL0     C40170   2.698  -1.007  10.262 -0.1114  0.0397 -0.3020
  305MOL0     C40171   2.712  -0.965  10.411  0.2409  0.2003  0.1587
  305MOL0    Cl40172   2.789  -0.807  10.432  0.4054  0.0894 -0.6911
  305MOL0     C40173   2.810  -0.419   9.674  0.9691 -0.2245 -0.1946
  305MOL0     C40174   2.907  -0.328   9.634 -0.4750 -0.0172 -0.6043
  305MOL0     O40175   3.035  -0.214   9.274  0.0558  0.4215 -0.0351
  305MOL0     C40176   3.365  -0.226   9.436  0.8974 -0.2241  0.5994
  305MOL0     C40177   3.492  -0.185   9.404 -0.1754  0.1787  0.2414
  305MOL0     N40178   3.964   0.256   9.791  0.4260 -0.4162  0.3355
  305MOL0     N40179   4.066   0.329   9.817 -0.1440 -0.1126  0.0249
  305MOL0     C40180   5.416   0.500   9.917  0.0478  0.4315 -0.1165
  305MOL0     C40181   5.520   0.502  10.018  0.3659  0.1543  0.3569
  305MOL0     C40182   5.714   0.455  10.458  0.0020 -0.2170  0.1292
  305MOL0     C40183   5.723   0.503  10.593 -0.3115  0.0051 -0.3618
  305MOL0     C40184   5.838   0.470  10.660 -0.4959  0.3407  0.0889
  305MOL0     C40185   5.932   0.384  10.611 -0.1560 -0.3381 -0.8732
  305MOL0     O40186   6.020   0.359  10.712  0.2009  0.1533 -0.0994
  305MOL0     C40187   6.131   0.283  10.676 -0.1919  0.9072  0.0428
  305MOL0     C40188   6.093   0.131  10.667  0.3734 -0.3139 -0.3122
  305MOL0     C40189   6.198   0.058  10.577 -0.1911 -0.1894 -0.3197
  305MOL0     C40190   6.324   0.034  10.674  0.1843 -0.2036 -0.3915
  305MOL0     C40191   6.409  -0.070  10.616 -0.4162 -0.0170  0.8052
  305MOL0     C40192   6.459  -0.158  10.551  0.1332 -0.9537 -0.0719
  305MOL0     C40193   5.921   0.333  10.488  0.2817 -0.1553  0.2588
  305MOL0     C40194   5.813   0.366  10.402 -0.3783 -0.9197  0.1698
  305MOL0     H40195   5.362   0.387  10.283  0.9796 -2.7057 -0.4905
  305MOL0     H40196   5.178   0.358  10.118  0.3939  1.3236  0.2397
  305MOL0     H40197   4.994   0.530   9.832  0.3546  1.3148  1.0752
  305MOL0     H40198   5.044   0.519   9.999 -1.5152 -0.3418  0.3333
  305MOL0     H40199   5.055   0.257   9.961 -1.0181 -1.6518 -0.1093
  305MOL0     H40200   5.011   0.279   9.804 -0.0157  2.2688 -1.1944
  305MOL0     H40201   4.792   0.403   9.876 -0.3995  0.9946  0.3213
  305MOL0     H40202   4.841   0.382  10.045 -2.6576  0.6477  0.2827
  305MOL0     H40203   4.813   0.141   9.849 -2.7043 -0.8211 -0.7487
  305MOL0     H40204   4.849   0.142  10.019  0.6455 -1.1254 -0.8762
  305MOL0     H40205   4.619   0.202  10.080  0.3868  0.5483 -0.1413
  305MOL0     H40206   4.603   0.089   9.953 -1.0646  0.3041  0.7995
  305MOL0     H40207   4.571   0.264   9.768 -2.5553 -0.4838  0.0526
  305MOL0     H40208   4.560   0.383   9.893 -0.3682 -0.1117  1.1904
  305MOL0     H40209   4.383   0.132   9.872 -2.8692  0.2002  2.3111
  305MOL0     H40210   4.360   0.277   9.967  2.6678  2.6847 -0.5273
  305MOL0     H40211   4.367   0.300   9.669 -0.1006  4.8976 -1.3069
  305MOL0     H40212   4.324   0.425   9.797  1.6205 -1.2301  2.3136
  305MOL0     H40213   4.210   0.124   9.621  1.8568  6.0513 -3.5080
  305MOL0     H40214   3.818   0.045   9.700 -0.0908  2.1344  0.0083
  305MOL0     H40215   3.957  -0.042   9.632 -4.8565 -2.2133  0.2848
  305MOL0     H40216   3.962   0.110   9.432 -1.2682 -2.4570 -1.4279
  305MOL0     H40217   3.810   0.184   9.495 -0.7685 -0.4989 -0.9159
  305MOL0     H40218   3.868  -0.077   9.389 -0.0312 -0.3873  0.5117
  305MOL0     H40219   3.730  -0.062   9.506 -1.2676  0.5109  0.2386
  305MOL0     H40220   3.750   0.114   9.257 -0.4728 -0.3709 -0.3216
  305MOL0     H40221   3.616   0.114   9.371  1.2842  0.6997  2.5794
  305MOL0     H40222   3.421   0.017   9.132 -0.8490 -1.2165 -1.3370
  305MOL0     H40223   3.199  -0.062   9.178  0.0439 -0.2793  0.4810
  305MOL0     H40224   2.986  -0.485   9.340 -3.0133  0.9569 -1.5386
  305MOL0     H40225   2.820  -0.648   9.422 -4.7166  0.5496  0.7125
  305MOL0     H40226   2.490  -0.551   9.598  4.8882  0.8885 -3.5301
  305MOL0     H40227   2.549  -0.499   9.754 -1.4462  0.9850 -1.6458
  305MOL0     H40228   2.437  -0.764   9.685 -1.7168 -0.7439  1.7072
  305MOL0     H40229   2.388  -0.650   9.795 -1.5157  0.2556 -1.1218
  305MOL0     H40230   2.623  -0.676   9.920  0.5521 -0.1195  0.1208
  305MOL0     H40231   2.646  -0.818   9.814  0.1566  1.6088 -0.5211
  305MOL0     H40232   2.435  -0.797  10.026 -0.3378 -1.0823  0.1667
  305MOL0     H40233   2.422  -0.904   9.894  0.8079 -2.0697  1.5831
  305MOL0     H40234   2.682  -0.952   9.976 -0.7010 -1.3553  0.2092
  305MOL0     H40235   2.542  -1.052  10.019 -0.5083  0.0517 -2.5270
  305MOL0     H40236   2.511  -0.910  10.228  0.7895 -1.1839  1.0011
  305MOL0     H40237   2.641  -0.808  10.190 -1.5640  0.8679 -0.3572
  305MOL0     H40238   2.663  -1.110  10.258 -0.4576  0.1900 -1.7193
  305MOL0     H40239   2.800  -1.001  10.223  0.4823  0.6255  1.2706
  305MOL0     H40240   2.780  -1.028  10.469  4.1763  3.1198 -0.7958
  305MOL0     H40241   2.613  -0.974  10.456  0.5843 -4.1269  0.4085
  305MOL0     H40242   2.766  -0.399   9.771  1.0292 -1.6781  0.1561
  305MOL0     H40243   2.933  -0.238   9.689 -2.3543 -0.9910  2.1550
  305MOL0     H40244   3.346  -0.286   9.524 -2.0255 -0.0193  0.1853
  305MOL0     H40245   3.579  -0.227   9.454  0.6135 -0.0869 -1.2852
  305MOL0     H40246   5.441   0.531   9.816  2.1919  2.1526  0.8466
  305MOL0     H40247   5.615   0.547   9.990 -0.2837  0.8372 -0.8204
  305MOL0     H40248   5.648   0.553  10.653 -1.0490 -1.9132  0.3847
  305MOL0     H40249   5.839   0.510  10.761  2.1203 -0.0602  0.2820
  305MOL0     H40250   6.206   0.294  10.755 -2.3271 -0.5535  2.4296
  305MOL0     H40251   6.178   0.309  10.580 -0.9566  0.1889 -0.5429
  305MOL0     H40252   6.102   0.089  10.768 -0.7398  0.4776  0.1427
  305MOL0     H40253   5.986   0.126  10.644 -0.4828 -2.6906  3.2048
  305MOL0     H40254   6.230   0.117  10.490 -3.7808  0.9906 -1.0057
  305MOL0     H40255   6.164  -0.039  10.540 -1.2249  0.0505 -0.0289
  305MOL0     H40256   6.370   0.131  10.696 -3.6995  1.8903 -0.7040
  305MOL0     H40257   6.296  -0.017  10.767 -1.6866  1.5279  0.0601
  305MOL0     H40258   6.500  -0.245  10.503 -1.5254 -1.3091 -0.9093
  305MOL0     H40259   6.002   0.274  10.447 -0.1158  0.0669 -0.8872
  305MOL0     H40260   5.799   0.321  10.304  1.2204  0.8511 -0.9395
  306MOL0     O40261   0.467   8.056   1.167  0.4200 -0.4003  0.3765
  306MOL0     C40262   0.391   8.120   1.247  0.7540  0.1278  0.7678
  306MOL0     O40263   0.432   8.213   1.339 -0.4967  0.0603 -0.3493
  306MOL0     C40264   0.567   8.246   1.340  0.4672  0.0508 -0.5515
  306MOL0     C40265   0.638   8.319   1.241  0.7169  0.2740  0.6287
  306MOL0     C40266   0.768   8.359   1.267  0.6101 -0.0808 -0.3866
  306MOL0     C40267   0.839   8.326   1.381  0.0026 -0.4626  0.3128
  306MOL0     O40268   0.973   8.365   1.380 -0.0539  0.4709  0.4864
  306MOL0     C40269   1.046   8.343   1.497 -0.8388 -0.1082 -0.0330
  306MOL0     C40270   1.191   8.377   1.455  0.5091  0.5790 -0.9090
  306MOL0     C40271   1.223   8.523   1.455 -0.4434 -0.0527  0.1418
  306MOL0     C40272   1.369   8.563   1.414  0.3165  0.0113  0.6484
  306MOL0     C40273   1.408   8.697   1.449 -1.6001 -0.0695 -1.0377
  306MOL0     C40274   1.429   8.696   1.601  0.0338 -0.4011 -0.3971
  306MOL0     C40275   1.475   8.838   1.640  0.2580 -0.5465  0.1855
  306MOL0     C40276   1.496   8.862   1.785  1.1037  0.0833 -0.6221
  306MOL0     N40277   1.370   8.850   1.859 -0.0295  0.2814  1.1605
  306MOL0     C40278   1.305   8.955   1.910 -0.6190  0.4494 -0.0910
  306MOL0     C40279   1.223   8.896   1.990  0.9977 -0.1594 -0.7787
  306MOL0     C40280   1.123   8.971   2.074 -0.3045  0.1553  0.1508
  306MOL0     C40281   0.983   8.940   2.041  0.4418  0.9509 -0.9585
  306MOL0     C40282   0.951   8.968   1.893  0.5746 -0.4604 -0.1098
  306MOL0     C40283   0.805   8.952   1.879 -0.5895 -0.1496 -0.2815
  306MOL0     O40284   0.776   9.002   1.745  0.0048 -0.5525  0.3295
  306MOL0     C40285   0.645   8.999   1.702  0.3551  0.7927  0.7086
  306MOL0     C40286   0.610   9.039   1.578  0.3704  0.3606  0.4138
  306MOL0     C40287   0.480   9.028   1.522 -0.1633 -0.0490 -0.6560
  306MOL0     C40288   0.376   8.961   1.597  0.6680  0.3051  0.4735
  306MOL0     C40289   0.235   8.954   1.553 -0.9820 -0.1082  0.2645
  306MOL0     O40290   0.153   8.859   1.603  0.3577  0.6751  0.6351
  306MOL0     C40291   0.023   8.859   1.567 -0.0755 -0.2048  0.0702
  306MOL0     C40292  -0.020   8.882   1.437  0.3912 -0.5689  0.4640
  306MOL0     C40293  -0.159   8.868   1.401 -0.1101  0.6498  0.1664
  306MOL0     C40294  -0.257   8.837   1.496  0.7919  0.0586  0.1299
  306MOL0     O40295  -0.389   8.826   1.470 -0.0705  0.0929  0.8059
  306MOL0     C40296  -0.440   8.866   1.347  0.3716  0.6250  0.7333
  306MOL0     C40297  -0.583   8.895   1.350  0.6295 -0.1395  0.0328
  306MOL0     C40298  -0.664   8.788   1.419  0.1283 -0.1779  0.1167
  306MOL0     C40299  -0.808   8.813   1.399 -0.3925  0.0021  0.7488
  306MOL0     C40300  -0.895   8.725   1.483  0.4179 -0.6216 -0.4750
  306MOL0     C40301  -1.037   8.713   1.422  0.2144  0.8279 -1.0158
  306MOL0     C40302  -1.123   8.625   1.521  0.3308  0.0671 -0.1463
  306MOL0     C40303  -1.267   8.637   1.490  1.2391  0.5117 -0.4972
  306MOL0    Cl40304  -1.334   8.796   1.518 -0.0764  0.2003 -0.3979
  306MOL0     C40305  -0.216   8.825   1.629 -0.2442  0.9393 -0.1925
  306MOL0     C40306  -0.080   8.838   1.663  0.1265  0.2299  0.0885
  306MOL0     O40307   0.211   9.028   1.464  0.2472  0.1060  0.6861
  306MOL0     C40308   0.416   8.904   1.721  0.0241  0.5155  0.4534
  306MOL0     C40309   0.548   8.921   1.771  0.1326 -1.2205  0.5290
  306MOL0     N40310   1.218   8.760   1.981  0.4585 -0.0209  0.1106
  306MOL0     N40311   1.318   8.735   1.907  0.4630  0.4507  0.0442
  306MOL0     C40312   0.771   8.259   1.482  0.5267  0.3935 -0.1823
  306MOL0     C40313   0.634   8.225   1.458 -0.0967  0.2409 -0.7773
  306MOL0     C40314   0.247   8.088   1.225 -0.3362 -0.2525 -0.5945
  306MOL0     C40315   0.202   8.019   1.113 -0.2245 -0.1022 -0.4330
  306MOL0     C40316   0.066   7.986   1.096 -0.1470 -0.0701 -0.8866
  306MOL0     C40317  -0.026   8.039   1.182  0.4843  0.4012 -0.3900
  306MOL0     O40318  -0.157   8.005   1.144  0.1682  0.9604 -0.3857
  306MOL0     C40319  -0.254   8.027   1.251 -0.6626 -0.0182 -0.4031
  306MOL0     C40320  -0.387   7.958   1.219 -0.2007 -0.1017  0.0480
  306MOL0     C40321  -0.371   7.799   1.192 -0.2440 -0.1522 -0.0128
  306MOL0     C40322  -0.511   7.738   1.165 -0.0851 -0.2963 -0.4603
  306MOL0     C40323  -0.492   7.609   1.103  0.3100 -0.1696 -0.2567
  306MOL0     C40324  -0.497   7.496   1.067  0.4747 -0.3410  0.7222
  306MOL0     C40325   0.019   8.114   1.292 -0.2493 -1.1942  0.3250
  306MOL0     C40326   0.156   8.139   1.314 -0.2805  0.7089 -0.0036
  306MOL0     H40327   0.598   8.349   1.145  1.3736  0.9829  0.5626
  306MOL0     H40328   0.826   8.411   1.191  0.9645  1.7832  1.0758
  306MOL0     H40329   1.051   8.238   1.528  1.8074 -0.6737 -2.0163
  306MOL0     H40330   1.013   8.406   1.580 -1.3507  2.3685 -1.9856
  306MOL0     H40331   1.202   8.346   1.350  0.0607  2.2480 -1.4801
  306MOL0     H40332   1.251   8.318   1.524  0.1990  1.4632  0.1400
  306MOL0     H40333   1.196   8.558   1.555  1.6791  1.7224  0.1734
  306MOL0     H40334   1.163   8.588   1.390  0.4837 -1.0196 -1.7349
  306MOL0     H40335   1.446   8.491   1.443  1.3711 -0.0727 -2.1169
  306MOL0     H40336   1.377   8.570   1.305  1.4034 -0.0794  0.7096
  306MOL0     H40337   1.342   8.782   1.432 -0.3119  2.6663  5.0076
  306MOL0     H40338   1.508   8.725   1.412 -0.1871  1.9278  3.5353
  306MOL0     H40339   1.500   8.620   1.635 -0.6010  0.2454  2.6672
  306MOL0     H40340   1.342   8.667   1.660  1.2777 -0.8545  1.2919
  306MOL0     H40341   1.575   8.856   1.599 -0.0638  1.7217  0.2610
  306MOL0     H40342   1.409   8.915   1.600  0.6946 -0.2374  0.0514
  306MOL0     H40343   1.545   8.957   1.807  0.6794 -0.0166  0.8514
  306MOL0     H40344   1.558   8.777   1.815 -1.9495 -1.4944  1.8374
  306MOL0     H40345   1.331   9.060   1.898  1.4961 -0.0266 -0.2162
  306MOL0     H40346   1.140   9.077   2.055  2.3701 -0.3421 -0.7148
  306MOL0     H40347   1.150   8.943   2.177 -2.0472  0.7705  0.8094
  306MOL0     H40348   0.919   9.002   2.105  1.2632  3.0438 -2.0814
  306MOL0     H40349   0.965   8.833   2.055 -0.2586  1.1800 -0.0148
  306MOL0     H40350   0.982   9.070   1.869  1.8592 -0.4959  1.2588
  306MOL0     H40351   1.003   8.898   1.826  0.3163  1.3491 -2.3099
  306MOL0     H40352   0.757   9.011   1.957 -0.7718 -2.0189  1.0770
  306MOL0     H40353   0.775   8.847   1.888 -0.4799 -0.0356  1.9449
  306MOL0     H40354   0.688   9.092   1.525  0.0835 -0.7162 -1.1629
  306MOL0     H40355   0.455   9.072   1.426  2.8268  0.5180 -1.2805
  306MOL0     H40356   0.046   8.889   1.351 -0.4992 -2.2948 -0.4159
  306MOL0     H40357  -0.178   8.848   1.296  0.1864 -4.8244  0.8469
  306MOL0     H40358  -0.420   8.786   1.274 -0.4478  3.0162 -2.3332
  306MOL0     H40359  -0.392   8.952   1.299 -1.6816  1.2017 -0.4326
  306MOL0     H40360  -0.619   8.897   1.247  1.1754 -1.6631 -0.2191
  306MOL0     H40361  -0.596   8.991   1.400 -0.7847 -0.1088 -0.3454
  306MOL0     H40362  -0.643   8.783   1.526 -2.8594  1.2276  0.8692
  306MOL0     H40363  -0.631   8.687   1.390  0.3666 -0.3920  1.0855
  306MOL0     H40364  -0.836   8.917   1.417  3.9394  1.4457  0.4734
  306MOL0     H40365  -0.822   8.797   1.292 -0.0352 -0.8099  0.8163
  306MOL0     H40366  -0.887   8.768   1.583  3.0097 -1.6493 -0.1761
  306MOL0     H40367  -0.850   8.625   1.493  2.1759  0.1497 -0.3746
  306MOL0     H40368  -1.045   8.663   1.325  2.2093  1.4017 -1.5197
  306MOL0     H40369  -1.085   8.808   1.444 -0.2108  0.1045  1.3899
  306MOL0     H40370  -1.079   8.525   1.511  1.2016  0.3801  0.4112
  306MOL0     H40371  -1.112   8.648   1.627 -2.9739  0.3452  0.2219
  306MOL0     H40372  -1.316   8.564   1.554 -0.8628  0.4256 -2.0945
  306MOL0     H40373  -1.289   8.601   1.389 -1.9150 -0.8081  0.5324
  306MOL0     H40374  -0.271   8.805   1.720  1.6763  1.8026  1.2336
  306MOL0     H40375  -0.056   8.831   1.769  0.1559  2.6401  0.3082
  306MOL0     H40376   0.332   8.858   1.772  0.6096 -1.6502 -0.4005
  306MOL0     H40377   0.567   8.891   1.873 -1.8563 -0.7064  1.0939
  306MOL0     H40378   0.816   8.236   1.578  1.5974 -1.1447 -1.0068
  306MOL0     H40379   0.584   8.173   1.540  1.4918 -0.0799  0.0341
  306MOL0     H40380   0.275   7.982   1.041  2.4711  1.6986  1.1847
  306MOL0     H40381   0.043   7.923   1.010  1.8655 -0.7284 -1.0210
  306MOL0     H40382  -0.265   8.136   1.264 -1.7076  0.0278 -1.5051
  306MOL0     H40383  -0.210   7.975   1.337  0.1770 -1.2919 -1.5658
  306MOL0     H40384  -0.448   7.976   1.308  0.4209 -0.5462  0.5714
  306MOL0     H40385  -0.425   8.007   1.128  1.7466  0.7495 -0.3597
  306MOL0     H40386  -0.328   7.743   1.275 -3.4777 -2.1153  0.5334
  306MOL0     H40387  -0.302   7.792   1.108  0.1939 -0.6804  0.3841
  306MOL0     H40388  -0.565   7.737   1.260 -1.4812  0.7678 -1.2076
  306MOL0     H40389  -0.558   7.811   1.100 -0.0318 -0.1850 -0.3751
  306MOL0     H40390  -0.519   7.394   1.041 -0.1706  0.1877 -0.9189
  306MOL0     H40391  -0.045   8.162   1.365  1.3032  1.2554  0.1773
  306MOL0     H40392   0.179   8.212   1.391  0.7785  1.6171 -1.1473
  307MOL0     O40393   1.682   0.800   5.250  0.1396 -0.0194  0.2783
  307MOL0     C40394   1.655   0.752   5.140  0.4947  0.2057 -0.5024
  307MOL0     O40395   1.744   0.732   5.033 -0.5359  0.1849  0.1468
  307MOL0     C40396   1.885   0.737   5.051  0.3288  0.1432 -0.4056
  307MOL0     C40397   1.956   0.696   4.941 -0.2256  0.0409 -0.3029
  307MOL0     C40398   2.094   0.688   4.941  0.7179  0.2907  0.5595
  307MOL0     C40399   2.172   0.730   5.050 -0.7328  0.2681  0.1144
  307MOL0     O40400   2.310   0.736   5.043 -0.6992 -0.2521  0.3321
  307MOL0     C40401   2.378   0.628   4.988  0.6458 -0.2309  0.2435
  307MOL0     C40402   2.529   0.658   5.009  0.1681  0.5220 -0.9100
  307MOL0     C40403   2.628   0.547   4.947 -0.1056 -0.2947  0.5352
  307MOL0     C40404   2.784   0.586   4.946  0.2443  0.6616  0.5143
  307MOL0     C40405   2.856   0.615   5.086  0.9234  0.3757  0.1090
  307MOL0     C40406   2.852   0.499   5.179 -0.2085  0.5798 -0.1851
  307MOL0     C40407   2.957   0.517   5.287 -0.1440  0.3744 -0.5161
  307MOL0     C40408   2.960   0.395   5.380 -0.4720 -0.8633  0.1763
  307MOL0     N40409   3.030   0.282   5.310 -0.0371 -0.1876 -0.2028
  307MOL0     C40410   3.155   0.279   5.241 -0.2166  0.6335  0.0332
  307MOL0     C40411   3.166   0.144   5.212  0.2533  0.0457 -0.2886
  307MOL0     C40412   3.288   0.069   5.163  0.5741 -0.5412 -1.0267
  307MOL0     C40413   3.406   0.161   5.125 -0.2891 -0.6567  0.2460
  307MOL0     C40414   3.494   0.204   5.250  0.1986  0.2487  0.4605
  307MOL0     C40415   3.625   0.246   5.200 -0.3889 -0.6629  0.0472
  307MOL0     O40416   3.717   0.266   5.300 -0.5103 -1.0614 -0.0863
  307MOL0     C40417   3.755   0.396   5.314 -0.2102 -0.3702  0.1341
  307MOL0     C40418   3.873   0.408   5.388  0.5745 -0.6453  0.1454
  307MOL0     C40419   3.930   0.533   5.414 -0.0220 -0.4792  0.3749
  307MOL0     C40420   3.869   0.649   5.362  0.6214  0.3105 -0.3238
  307MOL0     C40421   3.942   0.778   5.373 -0.7500  1.0015 -1.1707
  307MOL0     O40422   4.050   0.775   5.459  0.7124 -0.6766  0.2768
  307MOL0     C40423   4.115   0.895   5.474  0.1957  0.4135  0.6343
  307MOL0     C40424   4.226   0.914   5.404 -0.0985  0.5629 -0.2677
  307MOL0     C40425   4.287   1.030   5.420 -0.1635  0.4047  0.3757
  307MOL0     C40426   4.237   1.136   5.493  0.6772 -0.1222 -0.5323
  307MOL0     O40427   4.307   1.249   5.491  1.1253 -0.3886 -0.0299
  307MOL0     C40428   4.359   1.302   5.613 -0.0354 -0.1243 -0.3249
  307MOL0     C40429   4.511   1.309   5.596  0.1710  0.8531  0.2138
  307MOL0     C40430   4.566   1.376   5.722 -0.1853  0.2552 -0.0101
  307MOL0     C40431   4.722   1.394   5.710  0.0054 -0.6513  0.1648
  307MOL0     C40432   4.794   1.406   5.849  0.1626  0.7019 -0.1887
  307MOL0     C40433   4.936   1.463   5.827 -0.7970 -0.5593  0.3047
  307MOL0     C40434   5.045   1.408   5.917  0.3039 -0.4273  0.7019
  307MOL0     C40435   5.039   1.471   6.059 -0.3201 -0.8289 -0.4681
  307MOL0    Cl40436   5.047   1.650   6.085 -0.4342 -0.0271 -0.1424
  307MOL0     C40437   4.130   1.118   5.579  0.4229  1.3600  0.5665
  307MOL0     C40438   4.068   0.987   5.574 -0.3123 -0.2938  0.5721
  307MOL0     O40439   3.906   0.876   5.307  0.4807  0.2852 -0.3926
  307MOL0     C40440   3.738   0.646   5.314  0.4788 -0.2344  0.6334
  307MOL0     C40441   3.682   0.515   5.294 -0.5009 -0.3532  0.6535
  307MOL0     N40442   3.039   0.080   5.226 -0.3264 -0.3787 -0.1007
  307MOL0     N40443   2.962   0.170   5.281  0.2220  0.2868 -0.1487
  307MOL0     C40444   2.104   0.779   5.162  0.6411  0.4480  0.4396
  307MOL0     C40445   1.955   0.779   5.168 -0.9445 -0.1712  0.4521
  307MOL0     C40446   1.521   0.692   5.124  0.6041  0.4127  0.0653
  307MOL0     C40447   1.414   0.726   5.211 -0.1824 -0.2456 -0.2061
  307MOL0     C40448   1.292   0.675   5.189 -1.5336 -0.7481  0.4697
  307MOL0     C40449   1.254   0.599   5.078  0.2125  0.4170 -0.2673
  307MOL0     O40450   1.124   0.569   5.041 -0.0277  0.3378 -0.0385
  307MOL0     C40451   1.033   0.681   5.045 -0.4187 -0.5023  0.5720
  307MOL0     C40452   1.013   0.747   4.909  0.4552  0.2099  0.3620
  307MOL0     C40453   1.134   0.833   4.876 -0.5794  0.7453  0.4956
  307MOL0     C40454   1.128   0.884   4.731 -0.1111 -0.7628  0.2469
  307MOL0     C40455   1.015   0.982   4.717 -0.3047  0.4306  0.2717
  307MOL0     C40456   0.913   1.051   4.700 -0.0553 -0.2775 -1.3514
  307MOL0     C40457   1.355   0.569   4.995 -0.3608 -0.8944  0.0929
  307MOL0     C40458   1.492   0.608   5.020 -0.1166 -0.0376  0.2275
  307MOL0     H40459   1.914   0.659   4.848  0.4640 -0.5085 -0.4034
  307MOL0     H40460   2.129   0.643   4.849 -0.5233  0.5823 -0.0773
  307MOL0     H40461   2.355   0.616   4.882  0.3941  0.2131  0.2457
  307MOL0     H40462   2.356   0.541   5.051  0.9283  0.2745  1.0549
  307MOL0     H40463   2.550   0.669   5.115 -0.5720 -0.3356 -0.6611
  307MOL0     H40464   2.554   0.747   4.949  3.4922 -1.0500 -2.1047
  307MOL0     H40465   2.609   0.532   4.840  1.5066 -0.3833  0.2429
  307MOL0     H40466   2.621   0.449   4.997 -0.9347 -0.5118  0.0246
  307MOL0     H40467   2.835   0.498   4.908  0.1637  0.0830  1.7056
  307MOL0     H40468   2.787   0.665   4.870  0.9345 -2.3702 -2.8299
  307MOL0     H40469   2.804   0.698   5.134 -0.6026 -0.2551 -0.3847
  307MOL0     H40470   2.960   0.644   5.073  0.5448  1.6853 -0.1017
  307MOL0     H40471   2.879   0.412   5.119  2.3467  2.5207 -2.0920
  307MOL0     H40472   2.748   0.499   5.214 -0.5641 -1.7116 -1.0903
  307MOL0     H40473   3.060   0.544   5.260  0.2709  1.3799  1.8596
  307MOL0     H40474   2.926   0.598   5.354  2.2435 -1.9174  3.7526
  307MOL0     H40475   2.860   0.361   5.409  0.5460 -3.8279  0.6099
  307MOL0     H40476   3.012   0.425   5.472 -6.5296  5.3553  2.3651
  307MOL0     H40477   3.225   0.362   5.235  1.3208 -0.7256 -1.6601
  307MOL0     H40478   3.256   0.023   5.069 -0.0146  1.4954 -1.8838
  307MOL0     H40479   3.326   0.002   5.241  1.7657  2.9982  1.7074
  307MOL0     H40480   3.371   0.251   5.075  1.6575  0.2844  0.4819
  307MOL0     H40481   3.473   0.106   5.058  0.6818  1.7082 -0.8344
  307MOL0     H40482   3.448   0.282   5.311 -1.1189 -1.8088  2.2274
  307MOL0     H40483   3.508   0.118   5.316  0.4830  2.6884  3.8626
  307MOL0     H40484   3.619   0.328   5.128  0.8164 -3.2429 -3.2901
  307MOL0     H40485   3.669   0.175   5.130 -2.0113  0.2063 -1.9606
  307MOL0     H40486   3.904   0.309   5.419 -2.5271 -1.4059  1.1824
  307MOL0     H40487   4.026   0.552   5.460  1.3793  4.3472 -3.7017
  307MOL0     H40488   4.260   0.831   5.342 -1.3861 -1.3632  1.4829
  307MOL0     H40489   4.382   1.038   5.368  0.8699  0.7312  2.2549
  307MOL0     H40490   4.347   1.250   5.709  1.6195 -1.5430 -0.8413
  307MOL0     H40491   4.324   1.405   5.620  1.2467  0.7853 -4.5562
  307MOL0     H40492   4.540   1.366   5.507 -1.9041 -0.3958 -1.3632
  307MOL0     H40493   4.549   1.208   5.577 -0.3931  0.8550 -0.9948
  307MOL0     H40494   4.530   1.312   5.803 -1.5638  0.9318 -0.0695
  307MOL0     H40495   4.535   1.481   5.726  1.8229  0.9056 -0.3676
  307MOL0     H40496   4.766   1.311   5.654  2.3653 -0.6269  1.8260
  307MOL0     H40497   4.736   1.484   5.649  1.7783  0.9327  2.7238
  307MOL0     H40498   4.793   1.305   5.891  0.1281  1.4705  1.7761
  307MOL0     H40499   4.742   1.470   5.921  0.2386 -1.6213  2.0743
  307MOL0     H40500   4.936   1.571   5.809  0.4471 -0.6919 -0.6338
  307MOL0     H40501   4.964   1.422   5.730 -1.9436  0.0602 -0.3033
  307MOL0     H40502   5.041   1.299   5.924 -1.7581 -0.4655 -0.2802
  307MOL0     H40503   5.139   1.432   5.867 -1.1485  3.2038 -0.6020
  307MOL0     H40504   5.107   1.413   6.121 -0.6107 -2.7836 -1.8770
  307MOL0     H40505   4.940   1.448   6.099 -0.7561  2.5578  0.7106
  307MOL0     H40506   4.085   1.203   5.630 -2.6274 -0.5684  1.3304
  307MOL0     H40507   3.978   0.952   5.622  0.0769 -2.1631  0.0125
  307MOL0     H40508   3.685   0.731   5.272 -3.9378 -1.1119  3.7638
  307MOL0     H40509   3.582   0.509   5.251  0.1855  3.2583 -1.9317
  307MOL0     H40510   2.167   0.816   5.242 -1.7245  1.1894  2.0928
  307MOL0     H40511   1.912   0.802   5.265  0.2113  0.3176  0.8701
  307MOL0     H40512   1.430   0.786   5.300 -0.7262 -2.0622  1.1584
  307MOL0     H40513   1.216   0.719   5.253  1.3752  2.4287  2.0635
  307MOL0     H40514   1.062   0.759   5.116  1.9253 -0.6973 -0.0925
  307MOL0     H40515   0.936   0.645   5.082 -1.3081 -0.3980 -1.5627
  307MOL0     H40516   1.000   0.673   4.829 -1.7603  0.8722  0.0531
  307MOL0     H40517   0.924   0.810   4.902  0.0222 -0.4782 -0.4583
  307MOL0     H40518   1.225   0.773   4.891 -2.2796 -2.7380 -1.7238
  307MOL0     H40519   1.139   0.923   4.938  1.1950  0.9700  0.1026
  307MOL0     H40520   1.226   0.920   4.698  0.5667 -0.2808  2.6113
  307MOL0     H40521   1.104   0.801   4.663  0.6677 -1.0137  0.2677
  307MOL0     H40522   0.818   1.099   4.691  0.0877  0.6206  1.0276
  307MOL0     H40523   1.332   0.500   4.914  1.5690 -0.9521 -0.4469
  307MOL0     H40524   1.566   0.576   4.948  0.5954  0.4132  0.7452
  308MOL0     O40525   6.376   4.188   0.014  0.2586 -0.1951  0.0730
  308MOL0     C40526   6.425   4.130  -0.078  0.7365  0.6418 -0.4118
  308MOL0     O40527   6.359   4.104  -0.200 -0.6745 -0.8355 -0.0777
  308MOL0     C40528   6.236   4.153  -0.229  0.6847  0.5804 -0.7793
  308MOL0     C40529   6.160   4.081  -0.322  0.0744 -0.9554  1.1463
  308MOL0     C40530   6.024   4.111  -0.349  0.2190  0.5750  0.1184
  308MOL0     C40531   5.969   4.221  -0.285  0.2110 -1.1601 -0.5822
  308MOL0     O40532   5.842   4.268  -0.285 -0.6704 -0.3092 -0.2500
  308MOL0     C40533   5.745   4.185  -0.355  1.2304  0.3266 -0.1952
  308MOL0     C40534   5.606   4.237  -0.317 -0.4573  0.1044 -0.1773
  308MOL0     C40535   5.484   4.185  -0.399 -0.0086  0.1535 -0.1543
  308MOL0     C40536   5.354   4.209  -0.315 -0.2712 -0.3559 -0.4149
  308MOL0     C40537   5.236   4.132  -0.376 -0.1224  0.1968  0.3959
  308MOL0     C40538   5.113   4.160  -0.301  0.4665  0.5137  0.1380
  308MOL0     C40539   4.990   4.115  -0.382  0.1113  1.0149 -0.8345
  308MOL0     C40540   4.864   4.152  -0.291  0.0822  0.1829 -0.5952
  308MOL0     N40541   4.739   4.137  -0.369  0.2033  0.2733 -0.3521
  308MOL0     C40542   4.707   4.218  -0.472  0.9625 -1.0370 -0.1598
  308MOL0     C40543   4.575   4.181  -0.493 -0.8909  0.4494 -0.7565
  308MOL0     C40544   4.502   4.226  -0.610  0.5625  0.1219 -0.3424
  308MOL0     C40545   4.485   4.109  -0.713 -0.8131  0.8686 -0.0597
  308MOL0     C40546   4.402   4.152  -0.829  0.4707  0.3214 -0.8231
  308MOL0     C40547   4.247   4.157  -0.794 -0.0394 -0.1775  0.4614
  308MOL0     O40548   4.180   4.172  -0.923  0.5487 -0.0057 -0.2538
  308MOL0     C40549   4.040   4.180  -0.918  0.0541  0.5328 -1.1351
  308MOL0     C40550   3.976   4.183  -1.041 -0.5076  0.8211  0.4962
  308MOL0     C40551   3.841   4.209  -1.061 -0.1480  0.1263  0.2764
  308MOL0     C40552   3.760   4.206  -0.947  0.4195 -0.2806 -0.7234
  308MOL0     C40553   3.612   4.202  -0.970  0.2698  0.5884  0.9314
  308MOL0     O40554   3.533   4.200  -0.863 -0.3207  0.0267 -0.5697
  308MOL0     C40555   3.406   4.166  -0.867  0.6411 -0.1969 -1.1854
  308MOL0     C40556   3.311   4.185  -0.967  0.0802  1.0886 -0.7364
  308MOL0     C40557   3.178   4.145  -0.948  0.4259  0.6237 -0.3127
  308MOL0     C40558   3.135   4.072  -0.832  0.0119 -0.8431  0.5088
  308MOL0     O40559   3.015   4.026  -0.829  0.6853 -0.6343 -0.6159
  308MOL0     C40560   2.998   3.925  -0.929  0.0877  0.9022 -0.4524
  308MOL0     C40561   3.009   3.787  -0.853  0.1916  1.1757 -0.7783
  308MOL0     C40562   2.882   3.746  -0.763 -0.1383 -0.2556 -0.5768
  308MOL0     C40563   2.877   3.602  -0.727 -0.6401  0.7884 -0.0321
  308MOL0     C40564   2.769   3.562  -0.621 -0.8808 -0.5773 -0.3284
  308MOL0     C40565   2.620   3.574  -0.662  0.4268 -0.3141 -0.7602
  308MOL0     C40566   2.579   3.462  -0.761 -0.7271  0.2070  1.3109
  308MOL0     C40567   2.452   3.516  -0.831 -0.6208  0.0595  0.0149
  308MOL0    Cl40568   2.325   3.526  -0.706 -0.0468  0.0397  0.3888
  308MOL0     C40569   3.234   4.034  -0.746 -0.5550  0.3375 -0.1869
  308MOL0     C40570   3.365   4.080  -0.758 -0.0791 -0.4108  0.0854
  308MOL0     O40571   3.572   4.187  -1.083  0.0586  0.9070 -0.0137
  308MOL0     C40572   3.818   4.202  -0.814 -0.2947  0.7379 -0.3822
  308MOL0     C40573   3.954   4.184  -0.805  0.1589  0.3427  0.5255
  308MOL0     N40574   4.538   4.077  -0.405 -0.4781  0.2222 -0.4976
  308MOL0     N40575   4.636   4.053  -0.329 -0.1344  0.3520 -0.5231
  308MOL0     C40576   6.048   4.296  -0.200  0.5119 -0.4101  0.8021
  308MOL0     C40577   6.176   4.267  -0.171 -0.1253  0.1524 -0.7576
  308MOL0     C40578   6.569   4.102  -0.075  1.3448  0.7856 -0.6808
  308MOL0     C40579   6.649   4.164   0.021 -0.0491 -0.5793 -0.0742
  308MOL0     C40580   6.785   4.134   0.022 -0.2285  0.2854  0.4842
  308MOL0     C40581   6.837   4.040  -0.061  0.2244  0.1689 -0.3202
  308MOL0     O40582   6.972   3.992  -0.057 -0.6488 -0.0852 -0.4468
  308MOL0     C40583   7.068   4.036   0.048  0.0542  0.0618  0.7632
  308MOL0     C40584   7.207   3.977   0.010  0.1482  0.2312 -0.0228
  308MOL0     C40585   7.302   4.018   0.120 -0.0060  0.3547  0.7229
  308MOL0     C40586   7.410   3.914   0.154  0.3941  1.0042  0.7382
  308MOL0     C40587   7.507   3.952   0.255  0.0407  0.2094  0.1167
  308MOL0     C40588   7.603   3.969   0.337  0.2176  0.4696 -0.6115
  308MOL0     C40589   6.761   3.992  -0.168 -1.4410 -0.1624 -0.3183
  308MOL0     C40590   6.628   4.028  -0.179  0.2874  0.1866 -0.1257
  308MOL0     H40591   6.207   3.991  -0.362  1.2319 -0.1778  0.7206
  308MOL0     H40592   5.958   4.051  -0.410  0.8925 -1.6653  1.4731
  308MOL0     H40593   5.744   4.078  -0.335 -1.6708 -0.0585 -1.7965
  308MOL0     H40594   5.750   4.203  -0.463  0.8482 -1.1068 -0.4772
  308MOL0     H40595   5.604   4.346  -0.309  0.1091 -0.0319  5.5037
  308MOL0     H40596   5.602   4.201  -0.214  1.6559 -2.8809 -0.9949
  308MOL0     H40597   5.496   4.078  -0.420  0.7661 -0.2889  2.2098
  308MOL0     H40598   5.482   4.235  -0.496  0.9722  0.9301  0.2082
  308MOL0     H40599   5.361   4.177  -0.211 -1.0754  0.5869 -0.0544
  308MOL0     H40600   5.330   4.315  -0.300 -0.5768 -0.7282  2.1058
  308MOL0     H40601   5.255   4.025  -0.382 -1.3337  0.0553 -1.6611
  308MOL0     H40602   5.236   4.178  -0.475  0.4691 -1.0562 -0.2132
  308MOL0     H40603   5.100   4.265  -0.271  0.9164  0.5996  0.0351
  308MOL0     H40604   5.113   4.105  -0.206 -0.5147 -0.2889 -0.3072
  308MOL0     H40605   4.972   4.168  -0.477 -5.0258 -0.0383 -0.7775
  308MOL0     H40606   4.998   4.009  -0.407 -0.0799  0.8653 -0.2760
  308MOL0     H40607   4.871   4.256  -0.258 -3.1465  0.9692 -2.0095
  308MOL0     H40608   4.860   4.088  -0.203  3.5435 -0.7120 -0.9199
  308MOL0     H40609   4.766   4.293  -0.523  1.0517 -0.2085  1.1043
  308MOL0     H40610   4.542   4.322  -0.643  1.6767  0.1211  0.8904
  308MOL0     H40611   4.405   4.237  -0.562  1.1123 -1.5164  1.2889
  308MOL0     H40612   4.444   4.016  -0.674  1.0781  0.9996  2.4910
  308MOL0     H40613   4.579   4.075  -0.758 -1.5134 -2.4539  0.6956
  308MOL0     H40614   4.435   4.251  -0.865  0.2135 -0.0995 -2.2846
  308MOL0     H40615   4.411   4.080  -0.911 -1.0128  0.2941 -0.9854
  308MOL0     H40616   4.215   4.236  -0.724 -0.6678 -0.6051  0.6612
  308MOL0     H40617   4.228   4.057  -0.753 -1.7901 -2.5350 -5.2256
  308MOL0     H40618   4.045   4.164  -1.123 -0.4652  1.9459  0.2545
  308MOL0     H40619   3.806   4.230  -1.162  1.2575 -1.1581 -0.5077
  308MOL0     H40620   3.336   4.237  -1.059 -0.8185  0.6157 -1.2584
  308MOL0     H40621   3.109   4.173  -1.027 -0.9916  1.6098  1.2198
  308MOL0     H40622   3.073   3.919  -1.009  1.3504 -2.6908  0.7866
  308MOL0     H40623   2.898   3.937  -0.972 -0.3693 -0.9244 -0.0108
  308MOL0     H40624   3.099   3.775  -0.790 -0.1944  1.1564 -0.2218
  308MOL0     H40625   3.018   3.721  -0.940  1.0152  1.3129 -0.8071
  308MOL0     H40626   2.794   3.772  -0.822  0.2527  1.4306 -0.4806
  308MOL0     H40627   2.885   3.801  -0.668 -1.0564  0.3910 -0.9007
  308MOL0     H40628   2.861   3.547  -0.820  1.3266 -1.0357  0.6549
  308MOL0     H40629   2.979   3.576  -0.699  0.2779  2.2053 -1.8075
  308MOL0     H40630   2.794   3.611  -0.526  0.8327  1.3188 -1.6574
  308MOL0     H40631   2.786   3.460  -0.587  0.6873 -0.1321  0.3100
  308MOL0     H40632   2.609   3.672  -0.710  1.3631  0.7589  1.1178
  308MOL0     H40633   2.550   3.575  -0.578 -1.4213  0.8299 -2.2271
  308MOL0     H40634   2.664   3.449  -0.828  0.2013  1.2794  2.2344
  308MOL0     H40635   2.565   3.363  -0.717 -1.5396  0.2454  1.1466
  308MOL0     H40636   2.422   3.453  -0.916 -1.7180  1.7176 -0.8844
  308MOL0     H40637   2.475   3.614  -0.874  1.3407 -0.1525  0.4808
  308MOL0     H40638   3.216   3.969  -0.661  2.3606 -0.1384  0.1617
  308MOL0     H40639   3.438   4.048  -0.685  0.3713 -1.4091 -0.7755
  308MOL0     H40640   3.753   4.195  -0.727  0.0077 -3.4766 -0.2674
  308MOL0     H40641   3.993   4.180  -0.704  0.6483 -0.6521  0.3111
  308MOL0     H40642   5.998   4.376  -0.146 -1.1366 -0.7200 -0.1850
  308MOL0     H40643   6.219   4.343  -0.105 -1.5435  1.3853 -1.2001
  308MOL0     H40644   6.605   4.238   0.086  2.5284  2.1923 -1.2156
  308MOL0     H40645   6.844   4.178   0.101  0.5289 -1.0491  0.6875
  308MOL0     H40646   7.027   4.000   0.143 -0.1803  0.8583  0.9802
  308MOL0     H40647   7.074   4.146   0.049  1.3298  0.0331 -0.9356
  308MOL0     H40648   7.201   3.869  -0.003  0.5377  0.1280  0.6172
  308MOL0     H40649   7.240   4.024  -0.083  0.2064  0.2651  0.0155
  308MOL0     H40650   7.240   4.014   0.210 -0.6947  0.5285  0.2574
  308MOL0     H40651   7.333   4.122   0.102 -2.6658  1.1873  0.4396
  308MOL0     H40652   7.374   3.811   0.168 -1.0067  1.2402 -0.8072
  308MOL0     H40653   7.464   3.904   0.059  0.3145  4.5893  0.1798
  308MOL0     H40654   7.688   3.978   0.401 -0.3025 -1.6978  0.5175
  308MOL0     H40655   6.816   3.924  -0.232  0.1638  0.1565  0.6779
  308MOL0     H40656   6.565   3.979  -0.252 -2.7384  1.4520  1.4672
  309MOL0     O40657   5.872   0.591   4.609  0.2150  0.2676 -0.2873
  309MOL0     C40658   5.895   0.570   4.490 -0.5087 -0.0826 -0.8557
  309MOL0     O40659   5.806   0.589   4.389  0.7622  0.1742  0.2339
  309MOL0     C40660   5.676   0.629   4.404  0.2219  1.1080 -0.1167
  309MOL0     C40661   5.593   0.646   4.292  0.0987  0.2264  0.7495
  309MOL0     C40662   5.465   0.703   4.307 -0.9921 -0.0326 -0.2533
  309MOL0     C40663   5.409   0.740   4.431  0.2268 -0.8403  0.4892
  309MOL0     O40664   5.279   0.790   4.455  0.0529 -0.0790 -0.0601
  309MOL0     C40665   5.178   0.776   4.343 -0.9134 -0.1104 -0.6470
  309MOL0     C40666   5.047   0.769   4.419 -0.4747 -0.3916  1.0797
  309MOL0     C40667   4.997   0.911   4.457 -0.1863  0.7260  0.6603
  309MOL0     C40668   4.867   0.895   4.534  0.0950 -1.0849  0.9384
  309MOL0     C40669   4.825   1.035   4.588 -0.1252  0.1186 -0.3226
  309MOL0     C40670   4.710   1.028   4.697 -0.3070  0.1968  0.6460
  309MOL0     C40671   4.626   1.156   4.704  0.3708  0.4096 -0.0566
  309MOL0     C40672   4.697   1.269   4.770  0.0537  0.0675 -0.0909
  309MOL0     N40673   4.697   1.250   4.917 -0.3764  0.3568  0.0676
  309MOL0     C40674   4.809   1.248   4.996 -0.1319  0.1234  0.4959
  309MOL0     C40675   4.765   1.256   5.120  0.1294  0.0667 -0.9507
  309MOL0     C40676   4.843   1.252   5.251  0.4758 -0.2987 -0.6457
  309MOL0     C40677   4.826   1.362   5.362 -0.8583 -0.2163  0.5166
  309MOL0     C40678   4.868   1.504   5.311  0.2052  0.5196  0.5624
  309MOL0     C40679   4.879   1.608   5.418 -0.1127  0.6724 -0.9122
  309MOL0     O40680   4.905   1.731   5.362  0.1747 -0.3466 -0.6782
  309MOL0     C40681   5.032   1.771   5.384 -0.4770  0.2055 -0.7567
  309MOL0     C40682   5.139   1.709   5.322 -0.3404  0.1894  0.0668
  309MOL0     C40683   5.269   1.754   5.339 -0.1928 -0.3073  0.7502
  309MOL0     C40684   5.292   1.867   5.418  0.4457 -0.7940  0.2892
  309MOL0     C40685   5.429   1.927   5.418  0.7287  0.8978  1.2354
  309MOL0     O40686   5.537   1.835   5.406  0.5389 -0.3372  0.6670
  309MOL0     C40687   5.654   1.901   5.383  0.1048 -0.3311  0.2953
  309MOL0     C40688   5.744   1.955   5.482 -0.4968  0.6642  1.0238
  309MOL0     C40689   5.857   2.006   5.450 -0.4934 -0.1228  0.1804
  309MOL0     C40690   5.912   2.018   5.325 -0.7842  0.4899 -0.0681
  309MOL0     O40691   6.037   2.066   5.297  0.5678 -0.5925  0.6322
  309MOL0     C40692   6.099   2.163   5.388  0.4567  0.0861 -1.0167
  309MOL0     C40693   6.243   2.226   5.345  0.0613  0.0942  0.2269
  309MOL0     C40694   6.274   2.332   5.443 -0.4667  0.1103 -0.0218
  309MOL0     C40695   6.414   2.394   5.442  0.7021  0.3772  0.2144
  309MOL0     C40696   6.529   2.293   5.429 -0.1564  0.1707 -0.4510
  309MOL0     C40697   6.658   2.368   5.464  0.5827 -0.6371 -0.8219
  309MOL0     C40698   6.774   2.274   5.425 -0.2933  0.3839  0.1276
  309MOL0     C40699   6.909   2.322   5.485  0.2732 -0.4608  0.8714
  309MOL0    Cl40700   6.944   2.490   5.426  0.1495 -0.1132  0.2163
  309MOL0     C40701   5.829   1.955   5.217 -0.4864  0.6905 -0.1018
  309MOL0     C40702   5.700   1.900   5.248 -1.1762 -0.1024  0.2902
  309MOL0     O40703   5.442   2.048   5.443  0.5539 -0.0689  0.4314
  309MOL0     C40704   5.183   1.935   5.478 -0.3993 -0.0651  0.3513
  309MOL0     C40705   5.058   1.878   5.464  0.1822 -0.2444 -0.4392
  309MOL0     N40706   4.623   1.239   5.111 -0.3918 -0.4555 -0.0402
  309MOL0     N40707   4.590   1.238   4.987  0.8397  0.2522 -0.5973
  309MOL0     C40708   5.488   0.714   4.542 -0.4236 -0.6324  0.3807
  309MOL0     C40709   5.610   0.648   4.527 -0.1657 -0.2906 -0.6054
  309MOL0     C40710   6.025   0.520   4.450 -0.0092 -0.0421 -0.2303
  309MOL0     C40711   6.126   0.512   4.544 -0.3295 -0.2407 -0.2753
  309MOL0     C40712   6.250   0.465   4.498 -0.3442 -0.0669 -0.0907
  309MOL0     C40713   6.274   0.406   4.378  0.3086 -0.1232  1.3250
  309MOL0     O40714   6.380   0.343   4.333 -0.2287  0.3999 -0.2490
  309MOL0     C40715   6.491   0.321   4.413  0.4725  0.0473  0.5429
  309MOL0     C40716   6.599   0.235   4.340 -0.2151  0.0449  0.0391
  309MOL0     C40717   6.548   0.110   4.276  0.7649  0.7489  0.6906
  309MOL0     C40718   6.653   0.020   4.229 -0.4084  0.5915 -0.4315
  309MOL0     C40719   6.694   0.053   4.092 -0.3738  0.4667 -0.5241
  309MOL0     C40720   6.720   0.093   3.980 -0.2653  0.6515  0.5401
  309MOL0     C40721   6.167   0.415   4.291  0.3079 -0.6990 -0.0507
  309MOL0     C40722   6.043   0.467   4.321 -0.0671 -0.0907  0.6860
  309MOL0     H40723   5.640   0.630   4.195 -1.4362  1.1529 -0.2022
  309MOL0     H40724   5.413   0.729   4.216  0.4847  0.3038 -1.0318
  309MOL0     H40725   5.191   0.677   4.298 -0.6752 -2.7753  4.5288
  309MOL0     H40726   5.184   0.863   4.277  0.0636 -0.5308 -1.1372
  309MOL0     H40727   5.056   0.715   4.514  1.2248  1.0226  1.7759
  309MOL0     H40728   4.969   0.717   4.362 -0.6646 -0.1441  1.1093
  309MOL0     H40729   4.983   0.965   4.363  3.4822  2.2590  0.8278
  309MOL0     H40730   5.077   0.952   4.520  0.0200  2.4234 -0.6326
  309MOL0     H40731   4.788   0.860   4.467 -0.2870  2.1880 -0.4626
  309MOL0     H40732   4.867   0.827   4.620 -1.7019  1.8373  3.4450
  309MOL0     H40733   4.787   1.093   4.503 -1.8435 -0.2488  0.1627
  309MOL0     H40734   4.907   1.092   4.632  0.9247 -0.5928 -1.2938
  309MOL0     H40735   4.753   1.008   4.796  0.3698  0.4199  0.3999
  309MOL0     H40736   4.641   0.946   4.676  0.4430  0.3154 -2.8069
  309MOL0     H40737   4.593   1.185   4.604  0.0563  0.3522  0.0296
  309MOL0     H40738   4.539   1.127   4.764  1.8352 -1.8760  1.0974
  309MOL0     H40739   4.641   1.360   4.745  1.4241  0.7718 -0.7301
  309MOL0     H40740   4.800   1.281   4.737  0.9456 -0.0457  2.4512
  309MOL0     H40741   4.914   1.255   4.967 -0.5613  1.2206 -0.9159
  309MOL0     H40742   4.951   1.245   5.236  0.6148 -0.1381  0.2508
  309MOL0     H40743   4.815   1.158   5.300  1.4965 -1.0120 -1.3638
  309MOL0     H40744   4.899   1.343   5.441  0.8125 -0.4349 -1.0226
  309MOL0     H40745   4.723   1.354   5.398 -0.3285 -0.6005  2.0070
  309MOL0     H40746   4.962   1.478   5.262 -0.0743  1.6373 -0.6159
  309MOL0     H40747   4.809   1.545   5.229 -0.2384 -2.0744 -0.5176
  309MOL0     H40748   4.952   1.566   5.487 -1.5675  0.3938  0.5139
  309MOL0     H40749   4.784   1.625   5.470 -0.8597  1.3553 -2.4058
  309MOL0     H40750   5.108   1.631   5.253 -5.2362  1.7452  0.0994
  309MOL0     H40751   5.348   1.698   5.289 -1.7771 -1.0137 -1.0678
  309MOL0     H40752   5.718   1.954   5.588 -1.6239  2.0262  0.7925
  309MOL0     H40753   5.909   2.040   5.540  0.9236  1.7162 -1.2541
  309MOL0     H40754   6.123   2.125   5.487  0.8899 -3.4814 -2.3354
  309MOL0     H40755   6.027   2.244   5.401  0.9917  0.5720 -1.0371
  309MOL0     H40756   6.233   2.274   5.247 -2.5392 -0.3810  0.1874
  309MOL0     H40757   6.321   2.150   5.337  0.1233  0.2949 -1.8846
  309MOL0     H40758   6.257   2.301   5.547  0.3241  1.1418  0.4265
  309MOL0     H40759   6.197   2.410   5.439 -0.1117  0.4864  0.3309
  309MOL0     H40760   6.410   2.458   5.354  1.5653 -0.3968 -0.4001
  309MOL0     H40761   6.426   2.459   5.530  0.0425  2.2658 -1.0294
  309MOL0     H40762   6.526   2.272   5.321 -1.5837  0.6384 -0.5144
  309MOL0     H40763   6.512   2.204   5.490 -1.6682  1.2607  0.7740
  309MOL0     H40764   6.666   2.373   5.573  0.5719 -2.1357 -0.7254
  309MOL0     H40765   6.658   2.465   5.413 -2.2943  0.3808  0.8661
  309MOL0     H40766   6.751   2.177   5.469  2.0396 -1.4622 -2.3612
  309MOL0     H40767   6.788   2.264   5.317 -2.0181 -0.2319 -0.0672
  309MOL0     H40768   6.984   2.253   5.448 -0.5384 -0.9475  0.0912
  309MOL0     H40769   6.900   2.321   5.594 -0.3258 -1.1531  0.8255
  309MOL0     H40770   5.862   1.945   5.114 -2.2361 -2.8333 -0.4538
  309MOL0     H40771   5.645   1.862   5.162  0.8343  0.2055 -1.2064
  309MOL0     H40772   5.215   2.018   5.540  1.6737 -0.4006 -0.1708
  309MOL0     H40773   4.971   1.915   5.519 -0.7742 -2.2244 -0.5373
  309MOL0     H40774   5.465   0.737   4.645 -0.8684  3.3403 -0.4508
  309MOL0     H40775   5.652   0.636   4.627 -1.4051  3.4138  0.5439
  309MOL0     H40776   6.110   0.555   4.642 -1.1453 -1.0719 -0.0299
  309MOL0     H40777   6.323   0.475   4.577 -2.5415  1.2331  1.9084
  309MOL0     H40778   6.471   0.264   4.504  0.4961 -3.0687 -1.2633
  309MOL0     H40779   6.545   0.414   4.433 -0.4610  1.4232 -2.7999
  309MOL0     H40780   6.640   0.298   4.260 -0.5516 -1.2236 -1.1763
  309MOL0     H40781   6.671   0.201   4.415 -0.6318  0.8815  0.8433
  309MOL0     H40782   6.487   0.135   4.188  2.5833 -0.1653 -0.8970
  309MOL0     H40783   6.489   0.053   4.348  2.3850 -0.3090  1.2261
  309MOL0     H40784   6.743   0.016   4.291 -0.9417 -4.0978  0.3720
  309MOL0     H40785   6.622  -0.084   4.223  2.7188 -0.4425 -0.5932
  309MOL0     H40786   6.725   0.114   3.875 -0.3431 -1.5957  0.0419
  309MOL0     H40787   6.183   0.372   4.192  0.4884  2.6204 -1.6094
  309MOL0     H40788   5.967   0.451   4.245  3.0945 -0.5758 -2.6175
  310MOL0     O40789   9.749   9.643   7.888 -1.3965  0.0846 -0.3101
  310MOL0     C40790   9.870   9.619   7.845  0.3433  0.2513 -0.3444
  310MOL0     O40791   9.896   9.547   7.731  0.7514  0.9703 -0.4326
  310MOL0     C40792   9.793   9.482   7.669  0.4265  1.2264 -0.8005
  310MOL0     C40793   9.679   9.539   7.617  0.6250  0.8580  1.2147
  310MOL0     C40794   9.585   9.456   7.552  0.0597  0.3232 -0.4072
  310MOL0     C40795   9.598   9.317   7.551  0.6255  0.1497  0.6515
  310MOL0     O40796   9.503   9.248   7.489  0.2712  0.2999 -0.3335
  310MOL0     C40797   9.428   9.168   7.587 -0.6819  0.1678  0.8383
  310MOL0     C40798   9.293   9.146   7.538 -0.3763 -0.0818 -0.1903
  310MOL0     C40799   9.209   9.064   7.623  0.2848  0.0911 -0.3185
  310MOL0     C40800   9.071   9.056   7.587 -0.5468 -0.3883 -0.5893
  310MOL0     C40801   8.988   9.007   7.708 -0.4219 -0.2932  0.0742
  310MOL0     C40802   8.848   9.066   7.682 -0.2076  0.4353 -0.2085
  310MOL0     C40803   8.752   9.016   7.791 -0.1216 -0.2525  0.0897
  310MOL0     C40804   8.706   8.876   7.790 -0.3523  0.2288 -0.0379
  310MOL0     N40805   8.628   8.840   7.670  0.1394 -0.3166 -0.5893
  310MOL0     C40806   8.489   8.836   7.666 -0.4320 -0.4469  0.5213
  310MOL0     C40807   8.461   8.759   7.556  0.6930 -0.3552  0.2787
  310MOL0     C40808   8.314   8.731   7.512  0.1810 -0.4905  0.3900
  310MOL0     C40809   8.267   8.602   7.577  0.4046  0.3734 -0.2668
  310MOL0     C40810   8.326   8.481   7.512 -0.2583  0.1315 -0.1756
  310MOL0     C40811   8.456   8.430   7.596  0.7846 -0.4615  0.2793
  310MOL0     O40812   8.525   8.327   7.526 -0.0254  0.2053 -0.0035
  310MOL0     C40813   8.476   8.195   7.538 -0.4187 -0.4087 -0.2336
  310MOL0     C40814   8.563   8.099   7.483 -0.6895  0.3819  0.0793
  310MOL0     C40815   8.514   7.971   7.467 -0.1401  0.6645  0.0319
  310MOL0     C40816   8.387   7.936   7.516  0.4862  0.2982  0.0477
  310MOL0     C40817   8.338   7.791   7.497  0.3706  0.7003 -0.2033
  310MOL0     O40818   8.231   7.751   7.578  0.0595  0.3851  0.3158
  310MOL0     C40819   8.169   7.630   7.563  0.0267  1.5505  0.1059
  310MOL0     C40820   8.106   7.591   7.449 -0.2402  0.5625 -0.4799
  310MOL0     C40821   8.025   7.474   7.446 -0.3692 -0.7491 -1.3218
  310MOL0     C40822   7.992   7.411   7.562 -0.3454  0.5915 -0.4069
  310MOL0     O40823   7.912   7.298   7.558  0.1652  0.1018 -0.3567
  310MOL0     C40824   7.797   7.277   7.474 -0.4422  0.4897  0.1015
  310MOL0     C40825   7.742   7.134   7.483  0.3907 -0.5288 -0.4102
  310MOL0     C40826   7.852   7.024   7.465  0.6753 -1.4715  0.4189
  310MOL0     C40827   7.794   6.896   7.403  0.1471 -0.5944  0.4908
  310MOL0     C40828   7.891   6.782   7.379  0.1043 -0.6836  0.6181
  310MOL0     C40829   7.824   6.655   7.330 -0.4351 -0.1509 -1.0338
  310MOL0     C40830   7.766   6.655   7.193  0.3729  0.0544  0.7966
  310MOL0     C40831   7.876   6.679   7.089  0.1520  0.3660 -0.0934
  310MOL0    Cl40832   8.017   6.576   7.104 -0.4562  0.4837  0.0958
  310MOL0     C40833   8.042   7.459   7.683 -0.0293  0.6619 -0.0884
  310MOL0     C40834   8.141   7.559   7.679  0.3359 -0.0100  0.4612
  310MOL0     O40835   8.399   7.714   7.420 -0.6460 -0.0264  0.0615
  310MOL0     C40836   8.315   8.028   7.590  0.1875 -1.0060 -0.6070
  310MOL0     C40837   8.350   8.163   7.591  0.2990  0.7335  0.0877
  310MOL0     N40838   8.584   8.719   7.503 -0.2420 -0.0793  0.9923
  310MOL0     N40839   8.680   8.756   7.578  0.9789  0.2024 -0.0419
  310MOL0     C40840   9.707   9.261   7.605 -1.0303 -0.8771  0.4089
  310MOL0     C40841   9.809   9.346   7.660 -0.6465  1.0280 -0.6645
  310MOL0     C40842   9.990   9.665   7.926  0.2178  0.3101  0.1535
  310MOL0     C40843   9.974   9.731   8.039  0.3879  0.3666 -0.7744
  310MOL0     C40844  10.087   9.780   8.111 -0.3912 -1.2037 -0.1506
  310MOL0     C40845  10.219   9.751   8.071 -0.2390  0.7680  0.0299
  310MOL0     O40846  10.330   9.794   8.132 -0.5546 -0.2404  0.2386
  310MOL0     C40847  10.329   9.911   8.217  0.0008  0.4433  1.1464
  310MOL0     C40848  10.472   9.947   8.257  0.0430 -0.1730 -0.1099
  310MOL0     C40849  10.451  10.060   8.350 -0.2896  0.0433  0.1644
  310MOL0     C40850  10.559  10.093   8.448 -0.7020 -0.1064  0.1344
  310MOL0     C40851  10.682  10.127   8.375 -0.0723 -0.4378  0.5759
  310MOL0     C40852  10.786  10.139   8.317  0.3222  0.8014 -0.5271
  310MOL0     C40853  10.230   9.676   7.956 -0.0356 -0.4016  0.0581
  310MOL0     C40854  10.119   9.631   7.887 -0.0958  0.4549 -0.3805
  310MOL0     H40855   9.649   9.643   7.631 -0.8573  1.0154 -2.2911
  310MOL0     H40856   9.501   9.513   7.514  0.1167  2.0131  1.8375
  310MOL0     H40857   9.436   9.214   7.686  1.7356 -0.9058  1.2190
  310MOL0     H40858   9.483   9.074   7.597  2.0575  1.8327  2.8346
  310MOL0     H40859   9.290   9.122   7.431 -3.5910 -0.6868 -0.0572
  310MOL0     H40860   9.252   9.247   7.534 -2.2758 -0.7907  0.5128
  310MOL0     H40861   9.217   9.109   7.722  1.1316  1.5885 -1.0417
  310MOL0     H40862   9.253   8.963   7.627 -0.8506 -0.4615 -1.3637
  310MOL0     H40863   9.032   9.152   7.552 -0.1050  0.1267  0.2679
  310MOL0     H40864   9.072   8.979   7.509 -1.1562 -2.1222  1.0466
  310MOL0     H40865   9.031   9.053   7.798  0.8631  3.6892 -2.3312
  310MOL0     H40866   8.988   8.897   7.705  0.6966 -0.2947 -2.8761
  310MOL0     H40867   8.820   9.038   7.580  2.2115  2.6523 -1.6034
  310MOL0     H40868   8.849   9.176   7.685 -1.2768  0.4771 -0.8381
  310MOL0     H40869   8.806   9.031   7.884 -3.5555  0.4531  2.1439
  310MOL0     H40870   8.664   9.081   7.790  0.3955  0.5665  2.4399
  310MOL0     H40871   8.639   8.870   7.876  1.2949  2.3585  1.5042
  310MOL0     H40872   8.792   8.809   7.797 -0.0937 -0.1439 -4.1412
  310MOL0     H40873   8.420   8.886   7.733 -0.8282  1.7028 -1.3746
  310MOL0     H40874   8.299   8.721   7.404  2.7706 -1.6593  0.0560
  310MOL0     H40875   8.250   8.815   7.540 -1.2623 -1.6356  0.5963
  310MOL0     H40876   8.158   8.602   7.568  0.2135 -0.1120  1.6967
  310MOL0     H40877   8.285   8.604   7.685  1.3804  1.1640 -0.4371
  310MOL0     H40878   8.250   8.404   7.519  0.4322 -0.4156  2.5651
  310MOL0     H40879   8.349   8.506   7.408  2.3655  2.7409  0.8676
  310MOL0     H40880   8.419   8.396   7.693  1.4630 -2.4183 -0.0939
  310MOL0     H40881   8.533   8.504   7.617  2.4415 -2.5273  1.8885
  310MOL0     H40882   8.664   8.123   7.451 -0.2712 -0.5375  0.6794
  310MOL0     H40883   8.571   7.892   7.418 -0.7781  0.7591 -0.8697
  310MOL0     H40884   8.146   7.639   7.361  3.1167 -2.8743 -1.0916
  310MOL0     H40885   7.984   7.441   7.351  0.9100  0.3551 -2.2762
  310MOL0     H40886   7.835   7.291   7.373  2.2594  1.1713  1.1239
  310MOL0     H40887   7.719   7.349   7.500 -1.4949 -1.0952  1.5119
  310MOL0     H40888   7.672   7.142   7.400  0.1788  0.4659 -0.1469
  310MOL0     H40889   7.687   7.122   7.577  0.0356 -2.2991 -0.8083
  310MOL0     H40890   7.889   6.996   7.564 -0.4053 -0.3510  1.1756
  310MOL0     H40891   7.930   7.072   7.404 -1.1504  2.2890  0.7015
  310MOL0     H40892   7.706   6.871   7.462  0.7664 -0.9147  1.2936
  310MOL0     H40893   7.761   6.924   7.303  2.4828 -1.9172 -0.7607
  310MOL0     H40894   7.948   6.761   7.471 -0.4478 -1.2248  0.8442
  310MOL0     H40895   7.963   6.818   7.305 -0.2877 -1.3307 -0.0900
  310MOL0     H40896   7.748   6.636   7.407  2.3921 -0.5075  1.8696
  310MOL0     H40897   7.896   6.573   7.327 -0.9651 -0.6338 -0.8215
  310MOL0     H40898   7.728   6.556   7.169  0.4480  0.1541  0.2568
  310MOL0     H40899   7.686   6.730   7.194  0.8896  0.6305  2.2699
  310MOL0     H40900   7.926   6.774   7.110 -0.7797  0.3951  2.2311
  310MOL0     H40901   7.831   6.686   6.990  0.2782  2.1056 -0.0576
  310MOL0     H40902   8.003   7.399   7.764 -1.9759 -2.2998 -2.9592
  310MOL0     H40903   8.158   7.598   7.779 -0.8866 -3.0783  1.9951
  310MOL0     H40904   8.220   8.000   7.635 -1.1674  2.7786 -0.7514
  310MOL0     H40905   8.280   8.232   7.638  0.0620  2.0579 -2.0874
  310MOL0     H40906   9.720   9.153   7.611  4.3324 -0.6466 -1.5541
  310MOL0     H40907   9.898   9.298   7.698  0.4730  1.8759 -2.1274
  310MOL0     H40908   9.877   9.767   8.072 -1.4027 -2.9083 -2.0093
  310MOL0     H40909  10.071   9.841   8.199 -1.9637  1.1109 -1.8895
  310MOL0     H40910  10.272   9.883   8.306 -2.6441  0.6625 -0.3739
  310MOL0     H40911  10.284   9.991   8.158  1.7397  0.2718 -0.5012
  310MOL0     H40912  10.511   9.868   8.322 -3.4456  1.3034  4.3309
  310MOL0     H40913  10.524   9.977   8.166 -0.3781  0.3971 -0.1656
  310MOL0     H40914  10.362  10.041   8.411 -1.5235  0.4707 -1.4283
  310MOL0     H40915  10.422  10.147   8.290 -0.6317 -1.6905 -2.3005
  310MOL0     H40916  10.527  10.175   8.512 -0.5415  2.2981 -2.6514
  310MOL0     H40917  10.579  10.005   8.511 -0.3913 -0.1041  0.0440
  310MOL0     H40918  10.884  10.152   8.275  0.8696 -0.3258  0.3259
  310MOL0     H40919  10.328   9.661   7.914  0.3370 -0.4284  0.9119
  310MOL0     H40920  10.138   9.579   7.793 -0.6007 -1.3816  0.4901
  311MOL0     O40921   2.990   3.448   0.567 -0.0716 -0.5090 -0.7574
  311MOL0     C40922   3.039   3.390   0.469 -0.5746  0.3096  0.6250
  311MOL0     O40923   2.969   3.305   0.376 -0.3862  0.3845  0.8282
  311MOL0     C40924   2.832   3.287   0.388 -0.8256 -0.1906  0.4418
  311MOL0     C40925   2.789   3.190   0.302 -0.5800 -0.3093 -0.2587
  311MOL0     C40926   2.655   3.159   0.291  0.9348  0.6019 -0.1231
  311MOL0     C40927   2.562   3.226   0.370 -0.4265  0.2655  0.0690
  311MOL0     O40928   2.424   3.195   0.352  0.2955  0.5257 -1.2040
  311MOL0     C40929   2.330   3.209   0.460  0.6705  0.8886 -0.0121
  311MOL0     C40930   2.198   3.217   0.391 -0.1335  0.2341 -0.6602
  311MOL0     C40931   2.094   3.207   0.501  0.4684 -0.3576 -0.9888
  311MOL0     C40932   1.954   3.225   0.442 -0.3444  0.2312 -0.7508
  311MOL0     C40933   1.851   3.165   0.535  0.3635  0.4017  0.2849
  311MOL0     C40934   1.805   3.244   0.654 -0.0199 -1.0294  0.4021
  311MOL0     C40935   1.733   3.160   0.761  0.2750  0.3017  0.6392
  311MOL0     C40936   1.585   3.151   0.717 -0.3812  0.1155 -0.3833
  311MOL0     N40937   1.494   3.259   0.770 -0.2974  0.3677  0.8980
  311MOL0     C40938   1.533   3.375   0.825 -0.1349  0.2607 -0.3373
  311MOL0     C40939   1.424   3.436   0.874 -0.1361 -0.4132  0.4633
  311MOL0     C40940   1.424   3.565   0.946 -0.1859  0.8426 -0.4054
  311MOL0     C40941   1.370   3.565   1.095 -1.5636  0.4218 -0.3955
  311MOL0     C40942   1.372   3.711   1.144 -0.2926  0.4195  0.0841
  311MOL0     C40943   1.312   3.732   1.289 -0.2781  0.2973  0.4184
  311MOL0     O40944   1.180   3.695   1.313 -0.4074 -0.1827 -0.2645
  311MOL0     C40945   1.078   3.768   1.266  0.4087  0.2906 -0.1196
  311MOL0     C40946   1.091   3.889   1.196  0.7368  0.1124 -0.3973
  311MOL0     C40947   0.976   3.965   1.153 -0.4541  0.3572  0.2038
  311MOL0     C40948   0.851   3.900   1.158  0.5533 -0.7242  0.3841
  311MOL0     C40949   0.734   3.957   1.090 -0.3452  0.5129 -0.0849
  311MOL0     O40950   0.620   3.895   1.100  0.0583 -0.0948  0.3689
  311MOL0     C40951   0.512   3.974   1.054 -0.3095 -0.5301 -0.6153
  311MOL0     C40952   0.497   4.032   0.930  1.1887 -0.0479  0.5996
  311MOL0     C40953   0.369   4.093   0.888  0.0641  0.8438 -0.6188
  311MOL0     C40954   0.269   4.105   0.984  0.2890 -0.7960 -0.6307
  311MOL0     O40955   0.140   4.152   0.947  0.4279 -0.0595  0.2070
  311MOL0     C40956   0.028   4.123   1.021  0.2641  0.1335  0.2585
  311MOL0     C40957  -0.095   4.151   0.938 -0.0517 -0.4087 -0.2138
  311MOL0     C40958  -0.104   4.090   0.802  0.2636  0.2225  0.4838
  311MOL0     C40959  -0.133   3.932   0.808  0.1506  0.0785 -0.4081
  311MOL0     C40960  -0.156   3.859   0.677 -0.9745 -0.3570 -0.6085
  311MOL0     C40961  -0.288   3.889   0.614  0.1846  0.0699 -0.3418
  311MOL0     C40962  -0.412   3.819   0.678 -0.1088 -0.3119  0.2114
  311MOL0     C40963  -0.547   3.840   0.601  0.3816  0.0444  0.5607
  311MOL0    Cl40964  -0.673   3.727   0.648 -0.1031  0.3619 -0.0951
  311MOL0     C40965   0.289   4.058   1.116 -0.2636 -0.9577  0.1772
  311MOL0     C40966   0.409   3.990   1.146 -0.5172  0.3876  0.3770
  311MOL0     O40967   0.755   4.064   1.031 -0.4170  0.0434  0.1947
  311MOL0     C40968   0.841   3.779   1.233  0.0710  0.1148  0.6811
  311MOL0     C40969   0.953   3.712   1.283  0.1627  0.5867  0.0646
  311MOL0     N40970   1.312   3.348   0.858  0.2455 -0.5774 -0.5117
  311MOL0     N40971   1.363   3.239   0.802 -0.0666  0.0445  0.3448
  311MOL0     C40972   2.602   3.327   0.457  0.2167  0.3688 -0.2697
  311MOL0     C40973   2.740   3.360   0.470  0.8065  0.5729  0.6635
  311MOL0     C40974   3.178   3.422   0.441 -0.1033  0.0104 -0.4410
  311MOL0     C40975   3.226   3.417   0.314 -0.7036  0.0431 -0.0584
  311MOL0     C40976   3.363   3.437   0.287 -0.3347 -0.7713 -0.2535
  311MOL0     C40977   3.460   3.457   0.384  0.1387  0.1570 -1.1634
  311MOL0     O40978   3.593   3.490   0.370 -0.0495 -0.2664 -0.0184
  311MOL0     C40979   3.641   3.531   0.239  1.0651  0.9789  0.3190
  311MOL0     C40980   3.758   3.626   0.246 -0.1515  0.0574  0.4808
  311MOL0     C40981   3.711   3.755   0.318  0.8340  0.3277 -0.0348
  311MOL0     C40982   3.826   3.862   0.337 -0.2097  0.8611 -0.3796
  311MOL0     C40983   3.788   3.954   0.438  0.9241  0.1813  0.2143
  311MOL0     C40984   3.753   4.030   0.522  0.2300  0.6716  0.1097
  311MOL0     C40985   3.410   3.454   0.518 -0.2017 -0.2924  0.5184
  311MOL0     C40986   3.277   3.443   0.546  1.4997  0.1727  0.1429
  311MOL0     H40987   2.851   3.129   0.238 -1.8822 -0.8988 -1.0106
  311MOL0     H40988   2.618   3.088   0.218 -1.9003 -0.0089  1.7595
  311MOL0     H40989   2.349   3.300   0.517  3.8437  0.9949 -1.0693
  311MOL0     H40990   2.334   3.120   0.524 -1.5900 -0.1776 -1.2171
  311MOL0     H40991   2.186   3.128   0.329  3.0153  0.7790 -2.2495
  311MOL0     H40992   2.186   3.307   0.331 -1.1271 -0.0078 -0.8382
  311MOL0     H40993   2.099   3.290   0.573 -1.3044 -0.3709 -0.8017
  311MOL0     H40994   2.097   3.106   0.541 -3.5519 -0.4615 -0.5938
  311MOL0     H40995   1.936   3.332   0.428 -0.1018  0.5720  1.2999
  311MOL0     H40996   1.958   3.180   0.342 -1.8313  3.2310 -2.3009
  311MOL0     H40997   1.878   3.067   0.577 -1.4207  0.3248  1.3358
  311MOL0     H40998   1.761   3.140   0.479 -0.4906  2.2060  0.7891
  311MOL0     H40999   1.744   3.329   0.623 -0.8578 -0.9267  2.1608
  311MOL0     H41000   1.894   3.290   0.698 -1.0727 -0.7602  2.3899
  311MOL0     H41001   1.773   3.058   0.769 -3.0851 -1.3163 -1.0594
  311MOL0     H41002   1.734   3.206   0.860  0.8858 -0.2677  0.9020
  311MOL0     H41003   1.552   3.052   0.752  0.9811 -0.7254 -1.3519
  311MOL0     H41004   1.584   3.124   0.611  2.6216  2.3156 -1.0914
  311MOL0     H41005   1.639   3.399   0.825  1.4830 -5.1016  2.3257
  311MOL0     H41006   1.371   3.631   0.878  0.2873  0.6714 -0.9490
  311MOL0     H41007   1.523   3.611   0.949  0.7606 -1.0062  2.8670
  311MOL0     H41008   1.441   3.511   1.158 -1.6260  1.6510  0.7649
  311MOL0     H41009   1.268   3.527   1.094 -1.1863 -0.6828 -1.9366
  311MOL0     H41010   1.477   3.740   1.143 -0.3111  0.6717  2.0199
  311MOL0     H41011   1.311   3.769   1.074 -1.1952  1.1814  1.4791
  311MOL0     H41012   1.314   3.839   1.313 -0.1737  1.0249 -2.4207
  311MOL0     H41013   1.377   3.679   1.359 -0.2014 -0.7941 -0.4454
  311MOL0     H41014   1.186   3.938   1.176 -0.2819  2.8006  0.8236
  311MOL0     H41015   0.993   4.060   1.103 -0.5175 -0.0617 -0.6351
  311MOL0     H41016   0.576   4.013   0.858 -0.6375  1.7083 -2.0571
  311MOL0     H41017   0.346   4.127   0.788 -2.1208 -1.7961 -1.1142
  311MOL0     H41018   0.017   4.188   1.108  2.0446 -2.5621  2.6972
  311MOL0     H41019   0.019   4.023   1.065  0.5808  0.5937  1.3864
  311MOL0     H41020  -0.070   4.256   0.920  3.5618 -1.0929 -0.0321
  311MOL0     H41021  -0.188   4.139   0.995 -0.3295 -0.3364 -0.6494
  311MOL0     H41022  -0.024   4.105   0.728 -2.2288  0.1247 -2.4135
  311MOL0     H41023  -0.184   4.151   0.759  0.9338  1.1244  0.4812
  311MOL0     H41024  -0.044   3.891   0.857  1.7157  1.9546 -1.5109
  311MOL0     H41025  -0.223   3.921   0.869 -0.5573  2.8998 -0.7949
  311MOL0     H41026  -0.138   3.752   0.692  0.9076 -0.0584 -0.3804
  311MOL0     H41027  -0.080   3.889   0.604 -1.1894 -2.2177 -1.6653
  311MOL0     H41028  -0.287   3.848   0.512 -1.3479  0.9363 -0.7521
  311MOL0     H41029  -0.304   3.997   0.604 -3.0390 -0.2263  0.5333
  311MOL0     H41030  -0.395   3.711   0.672  0.8056 -0.2311  1.0909
  311MOL0     H41031  -0.424   3.849   0.783  0.5182 -0.8791  0.4552
  311MOL0     H41032  -0.517   3.813   0.499  0.1614 -0.0520  0.5215
  311MOL0     H41033  -0.585   3.942   0.595 -1.0628 -0.5406 -1.7492
  311MOL0     H41034   0.216   4.081   1.192 -0.4631  0.5927 -0.4453
  311MOL0     H41035   0.410   3.946   1.246 -1.1733  0.3729  0.3809
  311MOL0     H41036   0.745   3.738   1.263 -0.2511 -0.8984 -1.5774
  311MOL0     H41037   0.946   3.613   1.327  2.2681 -0.6304 -2.0900
  311MOL0     H41038   2.530   3.377   0.521  1.2106  1.6554 -0.1040
  311MOL0     H41039   2.766   3.441   0.537 -0.6746  1.9503 -0.3575
  311MOL0     H41040   3.161   3.402   0.229 -2.8389 -4.9135  2.0423
  311MOL0     H41041   3.398   3.426   0.185  1.6035 -1.7062  0.4498
  311MOL0     H41042   3.564   3.577   0.176  0.8606  0.8416  0.4653
  311MOL0     H41043   3.674   3.435   0.199  1.1727  0.5614  1.3635
  311MOL0     H41044   3.834   3.569   0.299 -0.7477 -1.1343  0.1042
  311MOL0     H41045   3.801   3.645   0.147  0.7763 -0.8975  0.6891
  311MOL0     H41046   3.661   3.734   0.413  0.6554  0.2991 -0.1343
  311MOL0     H41047   3.633   3.806   0.259 -1.0381  0.0931  2.0845
  311MOL0     H41048   3.913   3.802   0.366 -0.0197  0.6435 -1.3650
  311MOL0     H41049   3.867   3.898   0.243  1.4890  0.8196  0.3034
  311MOL0     H41050   3.735   4.102   0.598  1.7169 -1.2508  2.4067
  311MOL0     H41051   3.488   3.467   0.592  1.5065 -1.6436 -0.9373
  311MOL0     H41052   3.248   3.441   0.651  0.2212 -1.8267 -0.1945
  312MOL0     O41053   6.517  10.179   2.732 -0.1410 -0.3240 -0.3832
  312MOL0     C41054   6.507  10.295   2.774 -0.4599 -0.4649 -0.5047
  312MOL0     O41055   6.390  10.371   2.766 -0.4952 -0.0870 -0.6196
  312MOL0     C41056   6.284  10.339   2.688 -0.1445 -0.3812  0.0439
  312MOL0     C41057   6.150  10.341   2.734 -0.2240 -0.3383 -0.0002
  312MOL0     C41058   6.044  10.297   2.656  0.3718  0.6664 -0.7628
  312MOL0     C41059   6.064  10.250   2.525  0.4729 -0.0733  0.0267
  312MOL0     O41060   5.966  10.193   2.455 -0.9198 -0.0264  0.0920
  312MOL0     C41061   5.885  10.298   2.391  0.8149  0.0893  0.3752
  312MOL0     C41062   5.785  10.247   2.290 -0.1686  0.6924  0.8870
  312MOL0     C41063   5.700  10.362   2.235  0.9260  0.6479  1.3829
  312MOL0     C41064   5.584  10.400   2.327 -0.5284  0.6770 -0.3457
  312MOL0     C41065   5.501  10.529   2.278 -0.0239  0.2537 -0.8559
  312MOL0     C41066   5.414  10.496   2.161  0.7622  0.4487  0.6040
  312MOL0     C41067   5.304  10.609   2.142 -0.8954  0.5977 -1.1149
  312MOL0     C41068   5.221  10.571   2.020 -0.7028  0.6595  0.7760
  312MOL0     N41069   5.102  10.655   2.013 -0.3954  0.3248 -0.4748
  312MOL0     C41070   4.998  10.639   2.107  0.3425  0.2936 -0.3106
  312MOL0     C41071   4.909  10.727   2.065 -0.0699  0.2262  0.0079
  312MOL0     C41072   4.772  10.751   2.131  0.3905 -0.0255 -0.1811
  312MOL0     C41073   4.670  10.634   2.106 -0.6169 -0.5909 -0.7637
  312MOL0     C41074   4.523  10.675   2.117 -0.4120  0.3734 -0.3660
  312MOL0     C41075   4.493  10.757   2.248 -0.5009 -0.6618  1.5566
  312MOL0     O41076   4.346  10.745   2.267  0.1914 -0.4455  0.2260
  312MOL0     C41077   4.296  10.796   2.387  0.2425 -0.1974 -0.2227
  312MOL0     C41078   4.373  10.851   2.496 -0.2041 -0.0334 -0.0184
  312MOL0     C41079   4.312  10.914   2.608  0.0986 -0.6657  0.1732
  312MOL0     C41080   4.163  10.923   2.610  0.5499  0.5094 -0.1393
  312MOL0     C41081   4.099  10.998   2.715 -0.2691 -0.4848  0.1569
  312MOL0     O41082   3.960  10.994   2.702  0.5788 -0.7931  0.4267
  312MOL0     C41083   3.868  11.000   2.811 -0.1655 -0.1850 -0.0227
  312MOL0     C41084   3.743  11.063   2.802 -0.1809 -0.2181 -0.4751
  312MOL0     C41085   3.664  11.062   2.915  0.4080  0.4766  0.0856
  312MOL0     C41086   3.706  10.999   3.030  0.1704 -0.8100 -0.2389
  312MOL0     O41087   3.613  11.022   3.128 -0.3180 -0.3204 -0.5286
  312MOL0     C41088   3.653  10.982   3.262  0.2274  0.3517 -0.1595
  312MOL0     C41089   3.561  11.031   3.376 -1.3853 -0.5020  0.8018
  312MOL0     C41090   3.559  10.949   3.505 -0.4205 -0.4402 -0.1462
  312MOL0     C41091   3.488  11.021   3.630 -0.5230  0.7164 -0.3656
  312MOL0     C41092   3.596  11.109   3.703  0.9205  0.0862  0.2005
  312MOL0     C41093   3.659  11.023   3.823  0.8478  0.8984 -0.2619
  312MOL0     C41094   3.571  10.979   3.942  0.1750  0.1410 -0.3505
  312MOL0     C41095   3.584  10.825   3.967  0.1586 -0.4755  0.3521
  312MOL0    Cl41096   3.484  10.775   4.109  0.4645  0.2611  0.1827
  312MOL0     C41097   3.826  10.935   3.039 -0.9398  1.1005 -0.5377
  312MOL0     C41098   3.907  10.929   2.921 -0.0635  0.4248 -0.2645
  312MOL0     O41099   4.163  11.051   2.815 -0.7602  0.0867  0.1388
  312MOL0     C41100   4.089  10.858   2.507  0.9053 -0.3301 -0.7752
  312MOL0     C41101   4.160  10.792   2.402  0.8645  0.3687  0.1644
  312MOL0     N41102   4.957  10.799   1.967 -0.1784  1.1680  0.4775
  312MOL0     N41103   5.072  10.756   1.930  0.0561 -0.9719  0.2938
  312MOL0     C41104   6.193  10.245   2.479  0.3151 -0.6368  0.3130
  312MOL0     C41105   6.300  10.290   2.552  0.0528 -0.6290  0.0039
  312MOL0     C41106   6.629  10.363   2.836  0.8241  0.1082  0.4292
  312MOL0     C41107   6.742  10.283   2.881 -0.6607 -0.0718 -0.2224
  312MOL0     C41108   6.847  10.350   2.952  1.0293  0.5978 -0.2441
  312MOL0     C41109   6.839  10.486   2.978 -0.0679 -0.3905  0.2007
  312MOL0     O41110   6.925  10.549   3.067 -0.6361 -0.2764 -0.0988
  312MOL0     C41111   7.042  10.498   3.127  0.2349 -0.0054 -0.2773
  312MOL0     C41112   7.146  10.491   3.024 -0.3972  0.1293  0.2814
  312MOL0     C41113   7.189  10.622   2.961 -0.2117  0.4352  0.1182
  312MOL0     C41114   7.342  10.618   2.918 -0.0489  0.2250  0.0708
  312MOL0     C41115   7.430  10.612   3.035 -0.1301  0.2407 -0.3483
  312MOL0     C41116   7.489  10.613   3.140  0.0599 -0.5739  0.3267
  312MOL0     C41117   6.741  10.560   2.919 -0.0779  0.0314 -0.5453
  312MOL0     C41118   6.631  10.503   2.855 -0.9397 -0.2101  0.6574
  312MOL0     H41119   6.122  10.370   2.835  3.9729  0.1828  1.1775
  312MOL0     H41120   5.939  10.304   2.682 -1.3725 -3.2563 -5.2515
  312MOL0     H41121   5.941  10.382   2.350 -1.7539  1.4711 -0.4835
  312MOL0     H41122   5.820  10.333   2.472  0.3404 -3.6094  1.7974
  312MOL0     H41123   5.723  10.166   2.329 -1.7467  1.0372 -0.7633
  312MOL0     H41124   5.844  10.202   2.210  0.7311 -0.2891  2.0672
  312MOL0     H41125   5.668  10.327   2.137  2.5901  0.5054  0.8689
  312MOL0     H41126   5.765  10.450   2.228 -1.4779  2.6123  2.1037
  312MOL0     H41127   5.520  10.313   2.343  2.2330 -1.6485 -1.3236
  312MOL0     H41128   5.633  10.425   2.422  1.3566 -2.1907 -0.4663
  312MOL0     H41129   5.570  10.607   2.245  0.0424  0.5188 -0.0956
  312MOL0     H41130   5.434  10.566   2.356  0.9752 -0.7165  0.5161
  312MOL0     H41131   5.366  10.399   2.176 -1.2043  1.4978  1.3233
  312MOL0     H41132   5.482  10.480   2.076 -0.0689  2.7339 -0.5727
  312MOL0     H41133   5.246  10.617   2.235  0.4552  0.5060 -0.2466
  312MOL0     H41134   5.354  10.704   2.120 -2.3616  1.5728 -0.3913
  312MOL0     H41135   5.190  10.467   2.033 -0.5137  0.5673  0.5018
  312MOL0     H41136   5.281  10.580   1.929 -0.8100 -1.5956  0.4251
  312MOL0     H41137   4.983  10.572   2.191 -2.8090  2.3495  0.9800
  312MOL0     H41138   4.732  10.838   2.077  0.9278 -0.4714 -1.3422
  312MOL0     H41139   4.786  10.765   2.238  2.3666 -0.5162 -0.3279
  312MOL0     H41140   4.695  10.542   2.161  0.1741 -0.5974 -1.1125
  312MOL0     H41141   4.688  10.600   2.003 -1.1897 -6.1700  0.6250
  312MOL0     H41142   4.485  10.733   2.033  2.5665  1.4445 -1.1005
  312MOL0     H41143   4.466  10.581   2.114  2.7316 -1.7333  0.7925
  312MOL0     H41144   4.523  10.861   2.235 -0.8436 -0.7381 -0.0862
  312MOL0     H41145   4.548  10.716   2.333  1.3629  0.7553  1.1234
  312MOL0     H41146   4.481  10.847   2.483 -0.2348  1.0120 -0.7667
  312MOL0     H41147   4.383  10.947   2.683  0.9720  0.5115 -1.1118
  312MOL0     H41148   3.717  11.114   2.709  0.8460 -2.4876 -2.1071
  312MOL0     H41149   3.566  11.110   2.919  0.7591  1.1515  0.8001
  312MOL0     H41150   3.753  11.016   3.291 -1.2880  4.5479  0.7739
  312MOL0     H41151   3.640  10.873   3.265 -1.9967  0.5416 -1.0735
  312MOL0     H41152   3.457  11.043   3.344 -1.0138  0.5907 -0.0775
  312MOL0     H41153   3.595  11.133   3.397  3.2669 -2.2446  3.3078
  312MOL0     H41154   3.661  10.916   3.525 -0.2445  0.1162 -0.1056
  312MOL0     H41155   3.500  10.862   3.477  0.2726 -0.9264 -0.1175
  312MOL0     H41156   3.404  11.086   3.601 -1.6091 -0.8496 -0.8866
  312MOL0     H41157   3.445  10.949   3.700  0.6611 -0.4429 -0.7996
  312MOL0     H41158   3.542  11.200   3.733 -2.3093 -1.1632 -1.3373
  312MOL0     H41159   3.680  11.127   3.635 -2.0965  1.5224 -3.5155
  312MOL0     H41160   3.742  11.081   3.865  1.3005 -1.4923  2.5179
  312MOL0     H41161   3.710  10.931   3.792 -0.4180 -0.3512  1.1697
  312MOL0     H41162   3.604  11.037   4.028 -1.4334 -2.0454  1.8712
  312MOL0     H41163   3.467  11.006   3.919  1.1434  4.3441 -0.6561
  312MOL0     H41164   3.689  10.798   3.983  1.0258  2.7373  0.6875
  312MOL0     H41165   3.554  10.762   3.882 -0.8580  0.2039  0.1915
  312MOL0     H41166   3.845  10.874   3.126  1.7958  2.6822  0.1060
  312MOL0     H41167   3.991  10.860   2.920 -2.9316 -3.4430 -0.1512
  312MOL0     H41168   3.981  10.868   2.506  1.0978  3.7748 -2.8886
  312MOL0     H41169   4.095  10.752   2.325 -2.0607  4.6057  0.0734
  312MOL0     H41170   6.221  10.218   2.377  0.7090  2.1493 -0.3857
  312MOL0     H41171   6.400  10.295   2.509 -0.7991 -1.8899 -2.2808
  312MOL0     H41172   6.749  10.175   2.887 -0.5929 -0.0720 -0.3131
  312MOL0     H41173   6.936  10.299   2.987 -0.2463 -1.1138  0.6463
  312MOL0     H41174   7.017  10.400   3.167 -0.0159 -0.3208 -1.1653
  312MOL0     H41175   7.069  10.570   3.204 -0.0333 -1.3213  1.0842
  312MOL0     H41176   7.229  10.434   3.065 -1.4174 -0.8996  0.9904
  312MOL0     H41177   7.108  10.435   2.938 -1.8416  1.1773  0.1961
  312MOL0     H41178   7.168  10.703   3.032 -1.0183  0.4859 -0.1725
  312MOL0     H41179   7.134  10.653   2.872  0.1282  0.2378 -0.1635
  312MOL0     H41180   7.375  10.527   2.866  1.4312  1.0454 -0.4848
  312MOL0     H41181   7.362  10.699   2.847 -1.3644  1.0140  0.5617
  312MOL0     H41182   7.544  10.628   3.231 -1.7392  1.3514  1.1960
  312MOL0     H41183   6.728  10.668   2.921  1.0012  0.1697 -0.3230
  312MOL0     H41184   6.549  10.566   2.822  1.3606  2.3730 -0.5147
  313MOL0     O41185   3.394   6.262   6.855 -0.5788 -0.0850  1.0176
  313MOL0     C41186   3.447   6.359   6.912  0.1036 -0.1308 -0.0005
  313MOL0     O41187   3.380   6.449   6.995 -0.0517 -0.0037 -0.0343
  313MOL0     C41188   3.242   6.437   6.993 -0.7417  0.0396  0.3109
  313MOL0     C41189   3.179   6.357   7.092  0.5179 -0.0050  0.2688
  313MOL0     C41190   3.042   6.358   7.089  0.2805  0.4491 -1.0649
  313MOL0     C41191   2.960   6.427   7.003  0.9547  0.1938  0.1178
  313MOL0     O41192   2.819   6.431   7.003 -0.2237  0.3067 -0.0929
  313MOL0     C41193   2.759   6.338   7.098  0.8964 -0.0461  0.2262
  313MOL0     C41194   2.778   6.193   7.047  0.0120 -0.3242 -0.4719
  313MOL0     C41195   2.656   6.142   6.975  0.7344  0.3193 -0.0271
  313MOL0     C41196   2.617   6.227   6.855  0.2726 -0.0873 -0.2816
  313MOL0     C41197   2.507   6.159   6.771 -0.2344 -0.2787 -0.1018
  313MOL0     C41198   2.364   6.167   6.845  0.0116  0.4280 -0.4824
  313MOL0     C41199   2.252   6.115   6.771  0.2910 -0.4651 -0.2346
  313MOL0     C41200   2.218   6.219   6.659  0.3444 -0.0822  0.8053
  313MOL0     N41201   2.093   6.191   6.596  0.3701  1.0533  0.3525
  313MOL0     C41202   1.978   6.152   6.661  0.5826 -0.6056 -0.3443
  313MOL0     C41203   1.895   6.119   6.563 -0.5260  0.1717 -0.4167
  313MOL0     C41204   1.754   6.067   6.597  0.5010  0.1088  1.0697
  313MOL0     C41205   1.652   6.184   6.593 -0.0074 -0.0106  0.0380
  313MOL0     C41206   1.599   6.229   6.461  0.3816  0.5220 -0.1694
  313MOL0     C41207   1.502   6.348   6.485 -0.0341  0.2750  0.1871
  313MOL0     O41208   1.452   6.388   6.354 -0.0011 -0.1691 -0.5307
  313MOL0     C41209   1.329   6.345   6.318  0.9624  0.6460 -0.3716
  313MOL0     C41210   1.265   6.230   6.376 -0.9356 -0.6792 -0.2417
  313MOL0     C41211   1.127   6.212   6.331 -0.2338  0.0341  0.1307
  313MOL0     C41212   1.074   6.286   6.231  0.4561 -0.6563  0.6470
  313MOL0     C41213   0.929   6.272   6.173 -0.3708 -0.2095 -0.4321
  313MOL0     O41214   0.848   6.175   6.226  0.2396  0.2057 -0.6065
  313MOL0     C41215   0.725   6.157   6.173 -0.0300 -0.0716 -0.1742
  313MOL0     C41216   0.688   6.056   6.085  0.3792  0.6510  0.6919
  313MOL0     C41217   0.558   6.029   6.048 -0.0454  0.3804 -0.2111
  313MOL0     C41218   0.451   6.101   6.113  0.4838 -0.1116 -0.0403
  313MOL0     O41219   0.322   6.060   6.091  0.1864 -0.2615  0.4755
  313MOL0     C41220   0.234   6.156   6.033  0.5544  1.1090  0.6775
  313MOL0     C41221   0.082   6.121   6.065  0.3303 -0.1381  0.3901
  313MOL0     C41222   0.047   5.971   6.051 -0.5713 -0.2579 -0.1252
  313MOL0     C41223  -0.099   5.950   6.103 -0.4362 -0.2593  0.0517
  313MOL0     C41224  -0.205   6.017   6.010 -0.2287  0.0846 -0.4784
  313MOL0     C41225  -0.345   5.997   6.066  0.4450  0.1508  0.3374
  313MOL0     C41226  -0.376   6.095   6.181 -0.1040 -0.0478  0.8118
  313MOL0     C41227  -0.528   6.104   6.206 -0.0821  0.6046 -0.1338
  313MOL0    Cl41228  -0.633   6.165   6.072 -0.1876  0.2961  0.4955
  313MOL0     C41229   0.486   6.196   6.206  0.1908 -0.4007 -0.2936
  313MOL0     C41230   0.617   6.213   6.243  0.5308 -0.3408  0.1749
  313MOL0     O41231   0.895   6.342   6.074 -0.3871 -0.4802 -0.2430
  313MOL0     C41232   1.145   6.391   6.169 -0.4235  0.5191  0.8158
  313MOL0     C41233   1.274   6.413   6.213 -0.5383  1.0951 -0.3252
  313MOL0     N41234   1.958   6.121   6.437  0.2721  0.2162  0.1332
  313MOL0     N41235   2.079   6.161   6.461  0.0523 -0.0262 -0.4243
  313MOL0     C41236   3.021   6.498   6.904  0.6488 -0.6274 -0.1209
  313MOL0     C41237   3.161   6.511   6.903  0.2195 -0.5444  0.0004
  313MOL0     C41238   3.597   6.383   6.888  0.0401 -0.5670 -0.2875
  313MOL0     C41239   3.656   6.495   6.942 -0.0639  0.2013  0.2021
  313MOL0     C41240   3.790   6.518   6.919  0.2755  0.6479 -0.8370
  313MOL0     C41241   3.862   6.444   6.830 -0.2886 -0.5380  0.4497
  313MOL0     O41242   3.987   6.476   6.781 -0.5224  0.4378  0.3134
  313MOL0     C41243   4.060   6.579   6.851 -0.5078 -0.7604  0.6918
  313MOL0     C41244   4.208   6.572   6.813  0.1233 -0.6325 -0.3603
  313MOL0     C41245   4.295   6.687   6.862 -0.2111  0.2780 -0.3849
  313MOL0     C41246   4.426   6.691   6.776  0.0634 -0.0555 -0.5693
  313MOL0     C41247   4.516   6.805   6.819  0.7573  0.2436 -0.6427
  313MOL0     C41248   4.580   6.905   6.864  0.9470  0.7387 -0.9384
  313MOL0     C41249   3.814   6.325   6.781  0.2914 -0.0487  0.2197
  313MOL0     C41250   3.670   6.293   6.804 -0.2883 -1.1373  0.6796
  313MOL0     H41251   3.226   6.296   7.168 -4.1395 -1.3744  2.4353
  313MOL0     H41252   3.006   6.306   7.177  4.9514  0.8136  1.4436
  313MOL0     H41253   2.650   6.349   7.103  0.8005 -0.9268  0.3227
  313MOL0     H41254   2.802   6.348   7.198  1.5102  1.2059 -0.1527
  313MOL0     H41255   2.790   6.123   7.131  0.0566  2.2287  1.7902
  313MOL0     H41256   2.870   6.182   6.989  0.4320 -0.2731  0.1764
  313MOL0     H41257   2.564   6.130   7.033  1.1480 -1.5174  0.3180
  313MOL0     H41258   2.674   6.038   6.947 -2.9790  0.3265 -3.2283
  313MOL0     H41259   2.609   6.334   6.877  3.1002  0.3603 -0.9956
  313MOL0     H41260   2.706   6.231   6.791 -0.3213  0.9971 -1.0730
  313MOL0     H41261   2.539   6.057   6.750  0.9647 -0.0246  0.3681
  313MOL0     H41262   2.497   6.219   6.680 -2.9089  1.5886  1.2768
  313MOL0     H41263   2.344   6.268   6.880  0.5538  0.2973  0.2255
  313MOL0     H41264   2.358   6.106   6.936 -0.3014  0.8220 -0.2355
  313MOL0     H41265   2.279   6.016   6.731  2.0589 -0.5971  1.1705
  313MOL0     H41266   2.163   6.115   6.834 -1.2708  2.4153 -2.2261
  313MOL0     H41267   2.292   6.208   6.579 -2.3088  3.2025 -2.4593
  313MOL0     H41268   2.207   6.313   6.713 -4.5726 -1.1259  2.1163
  313MOL0     H41269   1.945   6.139   6.763 -1.1425  1.0070 -0.6359
  313MOL0     H41270   1.743   6.034   6.701  0.6442 -2.2618  0.4047
  313MOL0     H41271   1.713   5.990   6.531 -1.5723  3.4326 -1.8573
  313MOL0     H41272   1.685   6.273   6.646 -3.3687  1.7345 -0.5152
  313MOL0     H41273   1.566   6.135   6.639  2.0684 -1.7376  2.3073
  313MOL0     H41274   1.675   6.269   6.393  0.0233  2.7640  0.6880
  313MOL0     H41275   1.559   6.139   6.414  0.3982 -0.9435  2.3947
  313MOL0     H41276   1.559   6.436   6.517  1.8581 -0.2702 -1.4521
  313MOL0     H41277   1.421   6.318   6.551 -0.0783 -0.2070 -0.0846
  313MOL0     H41278   1.308   6.164   6.450 -0.1838  1.3444  1.2308
  313MOL0     H41279   1.073   6.134   6.384 -1.0145  0.8551  0.5600
  313MOL0     H41280   0.748   5.977   6.040 -0.4030  0.0259  0.7158
  313MOL0     H41281   0.541   5.950   5.976  3.5014 -1.5335  0.8373
  313MOL0     H41282   0.242   6.133   5.926 -1.2931  1.1044  0.5122
  313MOL0     H41283   0.248   6.261   6.060 -0.0826  1.2217  0.5943
  313MOL0     H41284   0.025   6.178   5.991  1.1331  0.2136  0.0343
  313MOL0     H41285   0.055   6.160   6.163 -4.0399 -2.5950  0.4268
  313MOL0     H41286   0.106   5.908   6.119 -0.1824 -0.5709 -0.7399
  313MOL0     H41287   0.061   5.930   5.951 -3.4745 -1.3436 -0.1578
  313MOL0     H41288  -0.127   5.845   6.113 -2.4753  0.4674  3.7752
  313MOL0     H41289  -0.108   6.001   6.199  0.8908  1.5975 -0.7373
  313MOL0     H41290  -0.189   5.970   5.913  2.3729 -0.8069  0.2822
  313MOL0     H41291  -0.186   6.122   5.987 -1.9607 -0.0261 -2.8121
  313MOL0     H41292  -0.378   5.899   6.104 -2.5913  1.1404  0.4932
  313MOL0     H41293  -0.406   6.010   5.977 -0.3580 -0.6163  0.7539
  313MOL0     H41294  -0.321   6.059   6.269 -1.9774  0.6864  2.3656
  313MOL0     H41295  -0.346   6.199   6.169 -1.8327  0.7542  2.8027
  313MOL0     H41296  -0.550   6.175   6.286 -2.8581 -1.8575  1.5390
  313MOL0     H41297  -0.574   6.010   6.238 -0.8749 -0.2315 -3.3623
  313MOL0     H41298   0.409   6.257   6.253  1.5613  0.2827  1.1593
  313MOL0     H41299   0.649   6.287   6.316  2.0367  1.0914 -1.8151
  313MOL0     H41300   1.115   6.457   6.089  0.0676 -1.6842 -1.3125
  313MOL0     H41301   1.343   6.483   6.169  0.5364 -1.7014 -3.4906
  313MOL0     H41302   2.958   6.558   6.839 -1.3144 -1.4246  0.9616
  313MOL0     H41303   3.216   6.566   6.829  1.0879 -0.9380  0.3412
  313MOL0     H41304   3.611   6.564   7.012 -2.6171 -0.7381 -0.4059
  313MOL0     H41305   3.832   6.614   6.947  1.1313  0.3304 -0.9998
  313MOL0     H41306   4.065   6.559   6.959  1.1630 -0.5837  0.6706
  313MOL0     H41307   4.020   6.676   6.823  2.1540  0.8195  1.9571
  313MOL0     H41308   4.252   6.477   6.843 -0.3230 -1.3052 -1.7628
  313MOL0     H41309   4.204   6.574   6.703  0.5908 -3.4815 -0.5027
  313MOL0     H41310   4.319   6.677   6.968  1.4893 -0.9608 -0.8441
  313MOL0     H41311   4.249   6.786   6.852 -0.6115  0.1383  0.0615
  313MOL0     H41312   4.478   6.595   6.774  1.6819  0.7602  0.2608
  313MOL0     H41313   4.399   6.716   6.673 -0.5106 -0.8908 -0.6335
  313MOL0     H41314   4.627   6.992   6.903  0.2266  0.4110  0.7426
  313MOL0     H41315   3.875   6.263   6.716  0.4288  1.0175 -0.7001
  313MOL0     H41316   3.613   6.209   6.766  0.5480 -0.6323 -1.9631
  314MOL0     O41317   8.448   2.713  10.637  0.4362 -0.2776  0.7144
  314MOL0     C41318   8.327   2.710  10.617  0.0894 -0.3009 -0.7746
  314MOL0     O41319   8.261   2.685  10.506 -0.0832  0.3433 -0.0322
  314MOL0     C41320   8.348   2.659  10.404  0.7465  0.2516  0.1454
  314MOL0     C41321   8.436   2.553  10.400 -0.4514 -0.4335  0.5551
  314MOL0     C41322   8.529   2.535  10.290 -0.3059 -0.6252 -0.1748
  314MOL0     C41323   8.534   2.622  10.184  0.0455  0.5939 -0.2750
  314MOL0     O41324   8.640   2.604  10.102  0.0899  0.5573  0.6717
  314MOL0     C41325   8.685   2.719  10.016 -0.7951 -0.4107 -0.6669
  314MOL0     C41326   8.835   2.700   9.977 -0.0315 -0.1045  0.8141
  314MOL0     C41327   8.846   2.726   9.825  0.5124 -0.4507 -0.1206
  314MOL0     C41328   8.994   2.748   9.788 -0.0330  0.2892 -1.0583
  314MOL0     C41329   9.014   2.736   9.639  0.3965 -0.9987 -0.1447
  314MOL0     C41330   9.157   2.751   9.596 -0.0232 -0.3949 -0.8512
  314MOL0     C41331   9.168   2.719   9.451  0.2873  0.1181 -0.6673
  314MOL0     C41332   9.314   2.718   9.410 -0.3906  0.4735  0.5118
  314MOL0     N41333   9.348   2.666   9.280  0.5721 -0.1833  0.4246
  314MOL0     C41334   9.296   2.552   9.222 -0.3246  0.1246  0.0297
  314MOL0     C41335   9.331   2.558   9.082  0.9372  0.9317  0.0016
  314MOL0     C41336   9.279   2.472   8.970 -0.2336  0.6062  0.8796
  314MOL0     C41337   9.157   2.535   8.898 -0.1749  0.5160  0.1477
  314MOL0     C41338   9.035   2.545   8.994 -0.1044  1.2008  0.4213
  314MOL0     C41339   8.908   2.564   8.908  0.0912  0.2792 -0.7305
  314MOL0     O41340   8.802   2.553   9.001  0.0362 -0.2548  0.0753
  314MOL0     C41341   8.678   2.553   8.958  1.2520 -0.7652  0.1814
  314MOL0     C41342   8.624   2.592   8.835  0.0295 -0.4272  0.3481
  314MOL0     C41343   8.489   2.583   8.800  0.0841 -0.1211 -0.7598
  314MOL0     C41344   8.395   2.525   8.885 -0.1992  0.4205 -0.3725
  314MOL0     C41345   8.255   2.518   8.834  0.1197 -0.5455  0.2956
  314MOL0     O41346   8.168   2.469   8.927 -0.0258  0.0231  0.5637
  314MOL0     C41347   8.043   2.457   8.879 -1.0474 -0.4225 -0.1806
  314MOL0     C41348   7.954   2.569   8.893 -0.6706  0.6807 -0.0777
  314MOL0     C41349   7.832   2.571   8.836  0.4992  0.3240 -0.0862
  314MOL0     C41350   7.800   2.473   8.742 -0.2230  0.6122  0.0508
  314MOL0     O41351   7.676   2.498   8.679  0.3640  0.2903 -0.1665
  314MOL0     C41352   7.599   2.386   8.656 -0.4265  0.4475  0.2959
  314MOL0     C41353   7.486   2.448   8.577 -0.2409 -0.1255  0.3278
  314MOL0     C41354   7.375   2.347   8.565 -0.2483 -0.1574  0.3386
  314MOL0     C41355   7.255   2.426   8.498  0.2598 -0.6340 -0.6299
  314MOL0     C41356   7.135   2.341   8.479 -0.7058 -0.2090  0.1171
  314MOL0     C41357   7.032   2.406   8.388  0.0686 -0.0860  0.1072
  314MOL0     C41358   6.937   2.297   8.323 -0.0984 -0.1368 -1.3654
  314MOL0     C41359   6.844   2.363   8.229 -0.3983  0.3775  0.3566
  314MOL0    Cl41360   6.762   2.232   8.148  0.0877 -0.0300  0.5607
  314MOL0     C41361   7.885   2.366   8.721 -0.1568  0.3048 -0.7932
  314MOL0     C41362   8.011   2.355   8.789 -0.4813  0.3536 -0.0216
  314MOL0     O41363   8.228   2.562   8.718 -0.4946  0.0674 -0.0120
  314MOL0     C41364   8.439   2.482   9.014  0.5877  0.4336 -0.0943
  314MOL0     C41365   8.575   2.502   9.043  0.2555  0.4994  0.5805
  314MOL0     N41366   9.404   2.668   9.073 -0.1233  0.6902  1.1633
  314MOL0     N41367   9.414   2.733   9.187  0.3381 -0.0641  0.2504
  314MOL0     C41368   8.435   2.720  10.186 -0.5655  0.8438  0.4403
  314MOL0     C41369   8.339   2.737  10.291 -0.2764  0.1359 -0.1257
  314MOL0     C41370   8.241   2.738  10.732 -0.1073  0.0409 -0.5376
  314MOL0     C41371   8.306   2.765  10.851  0.2314  0.7399 -0.3683
  314MOL0     C41372   8.241   2.796  10.969 -0.0245  0.3614  0.0161
  314MOL0     C41373   8.103   2.799  10.967 -0.3151 -0.4451  0.0234
  314MOL0     O41374   8.026   2.850  11.073  0.4421  0.2837  0.0765
  314MOL0     C41375   8.076   2.865  11.209 -0.5334  0.2502 -0.0455
  314MOL0     C41376   8.072   2.720  11.278  0.8338 -0.4203  0.0898
  314MOL0     C41377   8.164   2.730  11.403 -0.6873  0.2224  0.1121
  314MOL0     C41378   8.086   2.761  11.534  0.3557  0.4113 -0.1919
  314MOL0     C41379   8.013   2.894  11.527  0.2523  1.3419  0.3581
  314MOL0     C41380   7.961   3.003  11.510 -0.4030 -0.3236  0.3829
  314MOL0     C41381   8.034   2.773  10.847  0.3248 -0.9194  0.5837
  314MOL0     C41382   8.095   2.740  10.729 -0.0312 -0.8366  0.2670
  314MOL0     H41383   8.436   2.478  10.479  1.7165 -1.9391 -0.7716
  314MOL0     H41384   8.600   2.454  10.289 -0.7272 -1.0396 -2.2798
  314MOL0     H41385   8.673   2.813  10.071 -1.6946  0.3699 -2.1222
  314MOL0     H41386   8.614   2.732   9.933 -1.5678  0.1742  0.0585
  314MOL0     H41387   8.868   2.597   9.991  1.5637  0.2454 -0.0725
  314MOL0     H41388   8.891   2.769  10.039 -1.7976  2.1912  0.0229
  314MOL0     H41389   8.786   2.815   9.804 -1.3842 -2.0646 -2.0978
  314MOL0     H41390   8.798   2.639   9.779 -0.3233  0.2921 -0.6761
  314MOL0     H41391   9.022   2.843   9.834 -0.3971 -0.0391 -0.1259
  314MOL0     H41392   9.051   2.669   9.837 -3.1377 -1.9765 -0.7726
  314MOL0     H41393   8.953   2.818   9.601 -0.0955 -0.6598  1.3224
  314MOL0     H41394   8.971   2.639   9.611  3.0692 -1.6810 -2.2888
  314MOL0     H41395   9.215   2.677   9.651 -0.9165 -1.4145 -1.2610
  314MOL0     H41396   9.192   2.852   9.620 -0.0736  0.5068 -4.0698
  314MOL0     H41397   9.122   2.620   9.439  1.4427 -0.7933  1.7933
  314MOL0     H41398   9.117   2.788   9.384  2.0794  1.0933 -1.0675
  314MOL0     H41399   9.373   2.658   9.480  0.7505  0.9081 -0.0546
  314MOL0     H41400   9.368   2.813   9.416  2.4540 -1.0835  1.8479
  314MOL0     H41401   9.234   2.475   9.267 -0.2522 -0.6118 -1.0794
  314MOL0     H41402   9.248   2.377   9.013 -1.4584  1.1368  1.2179
  314MOL0     H41403   9.364   2.473   8.901  0.4426 -1.7577  1.5952
  314MOL0     H41404   9.137   2.477   8.808 -1.0235  1.7620 -0.4934
  314MOL0     H41405   9.184   2.639   8.878  1.6032  0.4912  2.0483
  314MOL0     H41406   9.012   2.449   9.042 -0.8361 -0.5658 -3.0957
  314MOL0     H41407   9.052   2.621   9.069  1.9410  1.0341  0.1687
  314MOL0     H41408   8.898   2.481   8.837 -0.2986 -0.3336  0.0339
  314MOL0     H41409   8.906   2.661   8.857 -0.8978  1.1794  0.9444
  314MOL0     H41410   8.701   2.631   8.768  2.3374 -2.9424  1.3282
  314MOL0     H41411   8.458   2.611   8.699  2.2770  0.2337 -1.4076
  314MOL0     H41412   7.974   2.650   8.962 -2.1864  0.1458  1.0230
  314MOL0     H41413   7.756   2.646   8.861  2.9375  2.2747  2.0431
  314MOL0     H41414   7.566   2.334   8.747 -1.9869  0.0015 -0.4803
  314MOL0     H41415   7.653   2.316   8.591 -0.7155 -1.1329  1.6864
  314MOL0     H41416   7.518   2.468   8.474  2.0628 -1.4832  0.6934
  314MOL0     H41417   7.453   2.544   8.618 -0.7919 -0.4328  0.6160
  314MOL0     H41418   7.346   2.305   8.661 -0.4970  1.1008  0.8420
  314MOL0     H41419   7.410   2.265   8.502 -2.1358 -2.5031  2.1654
  314MOL0     H41420   7.224   2.515   8.553  1.4714 -0.0064 -0.9092
  314MOL0     H41421   7.302   2.466   8.407  1.7515 -1.1306 -0.1160
  314MOL0     H41422   7.092   2.308   8.574  0.6107  0.6232  1.0378
  314MOL0     H41423   7.162   2.243   8.439  1.2396 -0.2480  1.3725
  314MOL0     H41424   7.083   2.466   8.312 -0.0286 -0.6068 -0.3724
  314MOL0     H41425   6.959   2.470   8.439  0.0529  0.2522 -0.3311
  314MOL0     H41426   6.992   2.215   8.275 -0.8455 -0.3758 -1.8348
  314MOL0     H41427   6.882   2.248   8.403  0.0060 -1.6051 -2.1514
  314MOL0     H41428   6.905   2.421   8.159  0.0824 -0.2282  0.2618
  314MOL0     H41429   6.778   2.428   8.287 -0.1584  0.4051  0.6039
  314MOL0     H41430   7.855   2.291   8.649  0.0757  0.3012 -0.8861
  314MOL0     H41431   8.083   2.274   8.790 -0.1803  0.5137  3.3224
  314MOL0     H41432   8.379   2.439   9.094  1.1801 -0.2391  0.0038
  314MOL0     H41433   8.615   2.455   9.133  0.9604 -5.1672 -2.2322
  314MOL0     H41434   8.440   2.795  10.108  1.7216 -1.7768 -2.1329
  314MOL0     H41435   8.292   2.835  10.297  2.3922  1.5948 -1.4624
  314MOL0     H41436   8.413   2.778  10.860  0.0389  0.7685  2.6762
  314MOL0     H41437   8.306   2.814  11.054  1.0658 -0.0210 -0.7214
  314MOL0     H41438   8.025   2.944  11.264 -3.1688 -1.2166 -0.2309
  314MOL0     H41439   8.181   2.897  11.208 -0.8174  1.6071  2.7156
  314MOL0     H41440   7.970   2.697  11.308  0.3807  0.6893 -0.5671
  314MOL0     H41441   8.120   2.640  11.220  1.8418  0.3629 -0.1852
  314MOL0     H41442   8.240   2.807  11.392  0.4608 -0.4136  2.7703
  314MOL0     H41443   8.215   2.634  11.418  0.0615  0.9447  2.7219
  314MOL0     H41444   8.027   2.671  11.553 -0.0558 -0.6945 -5.2748
  314MOL0     H41445   8.160   2.774  11.613 -0.9638 -0.0771  1.1685
  314MOL0     H41446   7.905   3.091  11.488 -0.4914 -0.8485 -1.6560
  314MOL0     H41447   7.925   2.779  10.850  0.3986  0.6851  2.6354
  314MOL0     H41448   8.032   2.719  10.643  1.2809  1.6157 -1.4587
  315MOL0     O41449   3.142   1.602   3.007 -0.3636  0.1481  0.0896
  315MOL0     C41450   3.118   1.587   2.886 -1.0606 -0.6838  0.2391
  315MOL0     O41451   3.040   1.490   2.829  0.4304  0.3926  0.6922
  315MOL0     C41452   2.957   1.405   2.908 -0.1526 -0.2814 -0.5036
  315MOL0     C41453   2.940   1.268   2.881 -0.0139 -0.2989 -0.0475
  315MOL0     C41454   2.871   1.178   2.967  0.9620 -0.8584 -0.4018
  315MOL0     C41455   2.792   1.234   3.071  1.1659  0.1589 -0.4992
  315MOL0     O41456   2.724   1.149   3.160  0.8072  0.3058 -0.2073
  315MOL0     C41457   2.593   1.194   3.214  0.2257  0.4767  0.1365
  315MOL0     C41458   2.500   1.071   3.261 -1.1967  0.0255  0.3207
  315MOL0     C41459   2.367   1.113   3.316 -0.1243  0.7675  0.7368
  315MOL0     C41460   2.272   0.996   3.308  0.0847 -0.1811 -0.3864
  315MOL0     C41461   2.159   1.018   3.418 -0.1046 -0.0055 -0.2255
  315MOL0     C41462   2.059   0.899   3.428  0.0697  0.6346  0.6911
  315MOL0     C41463   1.924   0.938   3.494  0.2471 -0.3199 -0.7897
  315MOL0     C41464   1.838   0.813   3.491 -0.3250 -0.9959 -0.5988
  315MOL0     N41465   1.695   0.837   3.525 -0.2718  0.5266 -0.2576
  315MOL0     C41466   1.598   0.901   3.454  0.4704 -0.1083  0.0062
  315MOL0     C41467   1.482   0.885   3.525  0.0293  0.5553 -0.9528
  315MOL0     C41468   1.349   0.932   3.488  0.2032  0.4561  0.0534
  315MOL0     C41469   1.243   0.830   3.522  0.6544  0.1266 -0.3940
  315MOL0     C41470   1.108   0.896   3.482  0.0378 -0.6646  0.3565
  315MOL0     C41471   0.978   0.812   3.484 -0.2287  0.6221 -0.2939
  315MOL0     O41472   0.994   0.705   3.394 -0.2748 -0.0368  0.1746
  315MOL0     C41473   0.898   0.616   3.375  0.1472  0.4536 -0.9290
  315MOL0     C41474   0.932   0.523   3.285  0.0643 -0.2122  0.5203
  315MOL0     C41475   0.848   0.417   3.264 -0.8157  0.8245 -0.6169
  315MOL0     C41476   0.717   0.406   3.314  0.2593 -0.2942 -0.1818
  315MOL0     C41477   0.628   0.288   3.286  0.1944 -0.0702 -0.2782
  315MOL0     O41478   0.500   0.305   3.317 -0.0966 -0.1988  0.0294
  315MOL0     C41479   0.412   0.204   3.297  0.5988  0.3611 -0.4994
  315MOL0     C41480   0.385   0.140   3.178 -0.2713 -0.3593 -0.2581
  315MOL0     C41481   0.281   0.042   3.156 -0.9804  0.2382 -0.1559
  315MOL0     C41482   0.189   0.027   3.249  0.6468  0.2243 -0.0140
  315MOL0     O41483   0.065  -0.028   3.226  0.1592  0.2188 -0.2279
  315MOL0     C41484   0.041  -0.159   3.273 -0.3714 -0.3489  0.6049
  315MOL0     C41485  -0.073  -0.219   3.188  0.0088  0.9728  0.0553
  315MOL0     C41486  -0.045  -0.235   3.037 -0.5922  0.2754 -0.5500
  315MOL0     C41487  -0.119  -0.357   2.977 -0.0290  0.0051  0.0728
  315MOL0     C41488  -0.065  -0.384   2.838 -0.2323 -0.1623  0.5271
  315MOL0     C41489  -0.059  -0.269   2.734 -0.1339  0.5525  0.0983
  315MOL0     C41490  -0.062  -0.326   2.592  0.3198 -0.1508 -0.1568
  315MOL0     C41491  -0.010  -0.212   2.497 -0.4700 -0.6916  0.4322
  315MOL0    Cl41492  -0.088  -0.238   2.338  0.2592 -0.1731  0.1105
  315MOL0     C41493   0.205   0.095   3.371  0.6278 -0.5383 -0.4292
  315MOL0     C41494   0.319   0.175   3.405 -0.6828 -0.1947  0.2726
  315MOL0     O41495   0.674   0.198   3.227 -0.0119  0.2130  0.9302
  315MOL0     C41496   0.679   0.511   3.412 -0.0348  0.8887 -0.1719
  315MOL0     C41497   0.774   0.605   3.434 -0.3444  0.0640 -0.0364
  315MOL0     N41498   1.515   0.817   3.637  0.1864  0.4247 -0.9258
  315MOL0     N41499   1.635   0.781   3.640  0.1834 -0.2533 -1.4987
  315MOL0     C41500   2.787   1.371   3.091  0.4019 -0.0232  0.7022
  315MOL0     C41501   2.877   1.455   3.017 -0.3447 -0.1292 -0.6955
  315MOL0     C41502   3.207   1.671   2.794 -0.0486  0.7111  0.2394
  315MOL0     C41503   3.212   1.647   2.659 -0.3855  0.0330 -0.1100
  315MOL0     C41504   3.303   1.726   2.581  0.1306  0.4111  0.1417
  315MOL0     C41505   3.383   1.820   2.619 -0.0349 -0.3942  0.2821
  315MOL0     O41506   3.479   1.885   2.539  0.1324 -0.3048  0.5451
  315MOL0     C41507   3.587   1.801   2.510 -0.0582 -0.0140 -1.1124
  315MOL0     C41508   3.687   1.799   2.627  0.7803  0.0765 -0.0868
  315MOL0     C41509   3.817   1.728   2.586  0.9881 -0.5236  0.5775
  315MOL0     C41510   3.917   1.736   2.697  0.5812 -0.2431  0.7330
  315MOL0     C41511   4.025   1.640   2.667  0.0784 -0.8717 -0.5055
  315MOL0     C41512   4.118   1.573   2.619  0.4672 -0.3607 -0.0231
  315MOL0     C41513   3.374   1.846   2.756  0.1591  0.8139 -0.2154
  315MOL0     C41514   3.290   1.772   2.839  0.5389 -0.4702  0.4197
  315MOL0     H41515   2.978   1.212   2.796  0.9826 -1.6245  1.2208
  315MOL0     H41516   2.865   1.071   2.950 -1.7623 -0.4347 -2.9688
  315MOL0     H41517   2.539   1.252   3.138 -0.7013  0.5438  0.8401
  315MOL0     H41518   2.612   1.263   3.296  1.9704  1.4904 -1.0432
  315MOL0     H41519   2.555   1.023   3.343 -1.0607 -0.8876 -0.2888
  315MOL0     H41520   2.480   0.995   3.185 -2.9192  0.6230  0.1411
  315MOL0     H41521   2.329   1.193   3.252  0.8532  0.0926 -0.7341
  315MOL0     H41522   2.380   1.151   3.418 -0.6787  0.2305  1.0106
  315MOL0     H41523   2.226   0.992   3.209 -1.5832 -0.8875  0.3697
  315MOL0     H41524   2.320   0.900   3.324  1.2773  0.2000 -1.5607
  315MOL0     H41525   2.109   1.112   3.394 -2.5284 -0.8876  1.0967
  315MOL0     H41526   2.209   1.015   3.515  3.7124 -2.9165 -2.0018
  315MOL0     H41527   2.102   0.819   3.489  2.7534 -0.2308 -2.0866
  315MOL0     H41528   2.044   0.863   3.326 -0.0452  1.2545  0.4838
  315MOL0     H41529   1.935   0.975   3.596  0.5265 -0.5197 -0.7437
  315MOL0     H41530   1.873   1.011   3.430  0.8992  0.7048 -0.1701
  315MOL0     H41531   1.873   0.727   3.549 -5.0633 -4.5822 -2.4163
  315MOL0     H41532   1.844   0.771   3.391 -0.7931 -1.6449 -0.3603
  315MOL0     H41533   1.611   0.971   3.372  3.4056 -2.1079 -1.3961
  315MOL0     H41534   1.331   0.950   3.381 -2.7211 -0.3295  0.3145
  315MOL0     H41535   1.333   1.023   3.546  1.8293  0.2235  0.9223
  315MOL0     H41536   1.240   0.807   3.629 -0.3722 -0.0493 -0.4483
  315MOL0     H41537   1.250   0.730   3.477  0.0306 -0.7638  1.3895
  315MOL0     H41538   1.095   0.988   3.539  0.2801 -0.4962  0.1438
  315MOL0     H41539   1.119   0.936   3.381 -0.9701 -0.8803  0.1482
  315MOL0     H41540   0.890   0.873   3.457 -2.6084 -1.5750  1.9106
  315MOL0     H41541   0.962   0.784   3.589  0.9332  1.0466  0.0027
  315MOL0     H41542   1.032   0.523   3.241  0.2033 -1.3453  0.8033
  315MOL0     H41543   0.888   0.332   3.211 -2.6546 -0.4693 -0.0566
  315MOL0     H41544   0.451   0.170   3.097 -1.3457  1.5249 -0.5021
  315MOL0     H41545   0.268   0.002   3.057 -0.8584  0.8713 -0.4360
  315MOL0     H41546   0.013  -0.159   3.378 -1.1891  1.9394  0.4502
  315MOL0     H41547   0.133  -0.218   3.270  0.2851  0.6277  0.8448
  315MOL0     H41548  -0.169  -0.175   3.213 -0.7845 -2.2163  3.4236
  315MOL0     H41549  -0.077  -0.321   3.228  1.4188  1.6315  1.9832
  315MOL0     H41550   0.062  -0.248   3.019 -0.3900 -3.4078  2.1591
  315MOL0     H41551  -0.081  -0.145   2.986 -1.4226 -0.9488 -2.2282
  315MOL0     H41552  -0.104  -0.450   3.033  1.0587  1.4510  2.3637
  315MOL0     H41553  -0.224  -0.328   2.970 -0.1472 -0.1640  0.9837
  315MOL0     H41554  -0.135  -0.461   2.804 -1.6538  0.3871  2.0900
  315MOL0     H41555   0.035  -0.428   2.842  0.3117  0.9563 -0.2345
  315MOL0     H41556   0.027  -0.206   2.756 -1.6522  2.2044  1.6048
  315MOL0     H41557  -0.144  -0.202   2.749  0.9843  1.2670  4.3511
  315MOL0     H41558  -0.005  -0.419   2.593  0.0449 -0.3247  0.6755
  315MOL0     H41559  -0.162  -0.361   2.566  1.6285 -3.0762 -1.7403
  315MOL0     H41560   0.099  -0.214   2.499 -0.3963 -0.0438 -1.1060
  315MOL0     H41561  -0.047  -0.112   2.520  0.1955 -0.5009  0.7048
  315MOL0     H41562   0.126   0.105   3.444  1.3355  2.6631  0.0268
  315MOL0     H41563   0.324   0.226   3.501 -0.4760  0.3294 -0.0140
  315MOL0     H41564   0.585   0.497   3.464  0.0645 -2.0767 -0.6148
  315MOL0     H41565   0.747   0.677   3.511 -0.6360 -2.1955  2.1131
  315MOL0     H41566   2.720   1.416   3.163 -0.3693  1.2596 -0.7390
  315MOL0     H41567   2.884   1.561   3.040  1.3372 -0.7841  2.2550
  315MOL0     H41568   3.143   1.581   2.607 -0.2506  2.6824 -4.0040
  315MOL0     H41569   3.309   1.699   2.476 -0.3348  0.6929  0.0406
  315MOL0     H41570   3.646   1.845   2.429 -0.4739  1.4190 -0.6684
  315MOL0     H41571   3.555   1.699   2.490  0.8204 -0.7142  0.8513
  315MOL0     H41572   3.711   1.903   2.651  0.5738  0.7563 -2.5978
  315MOL0     H41573   3.644   1.768   2.723  0.5410  2.3948  0.6223
  315MOL0     H41574   3.859   1.782   2.501 -4.2918  3.9871  0.2959
  315MOL0     H41575   3.792   1.624   2.561  1.9180 -0.0439 -2.7927
  315MOL0     H41576   3.948   1.840   2.709  0.6853  0.5080 -3.9402
  315MOL0     H41577   3.867   1.709   2.790  1.7262  0.2172  1.5093
  315MOL0     H41578   4.205   1.519   2.587  2.0859  3.0807 -2.0423
  315MOL0     H41579   3.437   1.929   2.787  1.3323  0.1081 -0.6450
  315MOL0     H41580   3.295   1.793   2.945  0.4951 -0.2926  0.3867
  316MOL0     O41581   9.241   4.553   3.735 -0.6691  0.0380  0.0662
  316MOL0     C41582   9.265   4.579   3.855 -0.7279  0.0187 -0.6987
  316MOL0     O41583   9.187   4.541   3.961 -0.6416 -0.1057  0.3603
  316MOL0     C41584   9.089   4.453   3.931  0.0895 -0.5581  0.4249
  316MOL0     C41585   8.973   4.500   3.872 -0.3895 -0.7649 -0.5412
  316MOL0     C41586   8.874   4.409   3.830  0.0214  0.1085  0.0441
  316MOL0     C41587   8.892   4.272   3.861  0.2911  0.1452  0.0551
  316MOL0     O41588   8.795   4.184   3.830 -0.1235 -0.0953 -0.0587
  316MOL0     C41589   8.834   4.049   3.801  0.1750 -0.0165  0.8875
  316MOL0     C41590   8.721   3.985   3.739  2.1089  0.2453  0.1270
  316MOL0     C41591   8.751   3.837   3.702  0.2719  0.4618  0.4569
  316MOL0     C41592   8.811   3.750   3.812  0.0492 -0.2866 -0.3015
  316MOL0     C41593   8.815   3.603   3.761 -0.1451  0.2018 -0.5580
  316MOL0     C41594   8.941   3.566   3.676  0.5156 -0.4116  0.2243
  316MOL0     C41595   8.967   3.419   3.651  0.1369  0.6416  1.1177
  316MOL0     C41596   8.873   3.356   3.542  0.3445  0.3951 -0.2607
  316MOL0     N41597   8.731   3.366   3.558  1.2113  1.6187  0.0726
  316MOL0     C41598   8.639   3.403   3.461 -0.4078 -0.7738 -0.6666
  316MOL0     C41599   8.515   3.375   3.515 -0.3228 -0.4430 -0.3720
  316MOL0     C41600   8.375   3.384   3.448 -0.0707 -0.1161  0.4344
  316MOL0     C41601   8.256   3.328   3.534 -0.3460  0.5201  0.4481
  316MOL0     C41602   8.127   3.386   3.475  0.3060 -0.1927 -0.4331
  316MOL0     C41603   7.997   3.342   3.539  0.0498  0.0217 -0.6393
  316MOL0     O41604   7.901   3.423   3.472  0.2396 -0.3249 -0.7988
  316MOL0     C41605   7.770   3.431   3.520 -0.7395  0.0188  0.4447
  316MOL0     C41606   7.700   3.552   3.497 -0.0622 -0.1379  0.4691
  316MOL0     C41607   7.560   3.556   3.527 -0.4344 -0.1219 -0.1813
  316MOL0     C41608   7.497   3.451   3.589  0.7774  0.3397 -0.6475
  316MOL0     C41609   7.347   3.454   3.577 -0.0905  0.9999  0.5765
  316MOL0     O41610   7.296   3.531   3.477  0.1569 -0.4761  0.8547
  316MOL0     C41611   7.164   3.570   3.468 -0.6520 -0.8130  0.7156
  316MOL0     C41612   7.073   3.599   3.578  0.4192  0.4347 -0.1467
  316MOL0     C41613   6.941   3.648   3.553  0.0782  0.7537 -0.3904
  316MOL0     C41614   6.896   3.675   3.424  0.0724  0.4967  0.3400
  316MOL0     O41615   6.778   3.738   3.398  0.9028 -0.8710  0.5280
  316MOL0     C41616   6.689   3.664   3.316  0.0467  0.6180 -0.1330
  316MOL0     C41617   6.545   3.708   3.343  0.1159 -0.1827  0.2839
  316MOL0     C41618   6.498   3.669   3.484  0.7130 -0.5928  0.7122
  316MOL0     C41619   6.370   3.742   3.515  0.7282 -1.1798  0.0854
  316MOL0     C41620   6.304   3.686   3.640 -0.0958 -0.4732  0.2107
  316MOL0     C41621   6.208   3.792   3.712 -0.0257  0.4273 -0.1970
  316MOL0     C41622   6.156   3.736   3.838  0.2864 -0.3589  0.3485
  316MOL0     C41623   6.048   3.629   3.822 -0.3873  0.7075 -0.5138
  316MOL0    Cl41624   5.916   3.728   3.762  0.3638  0.1784 -0.3547
  316MOL0     C41625   6.988   3.658   3.324  0.8888 -0.0340 -0.0197
  316MOL0     C41626   7.114   3.608   3.341  0.0170 -0.7903  0.7378
  316MOL0     O41627   7.279   3.378   3.650 -0.5290 -0.0561  0.3364
  316MOL0     C41628   7.571   3.344   3.630  0.0385 -0.0531  1.2495
  316MOL0     C41629   7.704   3.328   3.592 -0.4109  0.0601  0.1421
  316MOL0     N41630   8.534   3.325   3.642  0.6161  0.4781 -0.5323
  316MOL0     N41631   8.662   3.308   3.664  0.3889  0.9077  0.2755
  316MOL0     C41632   9.007   4.227   3.918  0.7756  0.3477  0.4957
  316MOL0     C41633   9.114   4.310   3.953  0.5310 -1.0249  0.4988
  316MOL0     C41634   9.383   4.666   3.881 -0.4764 -0.1551  0.0324
  316MOL0     C41635   9.462   4.672   4.004  0.1398 -0.4655 -0.1960
  316MOL0     C41636   9.572   4.754   4.016  0.1461 -0.3348 -0.2916
  316MOL0     C41637   9.619   4.836   3.910  0.3728  0.5173 -0.2672
  316MOL0     O41638   9.738   4.908   3.932  0.3568  0.1755 -0.8550
  316MOL0     C41639   9.849   4.841   3.991 -0.2819  0.0303 -0.3277
  316MOL0     C41640   9.975   4.923   3.986  0.5641 -0.3899 -0.3192
  316MOL0     C41641  10.090   4.838   4.053  0.5259  0.7053 -0.2941
  316MOL0     C41642  10.235   4.884   4.027  0.1563  0.0031 -0.0716
  316MOL0     C41643  10.333   4.828   4.114 -0.8356  0.0446 -0.4558
  316MOL0     C41644  10.438   4.780   4.173  0.5809 -0.1544 -0.7438
  316MOL0     C41645   9.546   4.843   3.794  0.8559 -0.3714 -1.2531
  316MOL0     C41646   9.433   4.758   3.779  0.1381  0.2174  0.4833
  316MOL0     H41647   8.961   4.606   3.854  0.9585 -0.5572 -0.3392
  316MOL0     H41648   8.783   4.442   3.781 -1.4848 -1.5011  1.6101
  316MOL0     H41649   8.858   3.996   3.893  0.2778 -2.3294 -0.3913
  316MOL0     H41650   8.925   4.052   3.740  0.6082 -0.3865  1.5138
  316MOL0     H41651   8.683   4.039   3.652 -1.6183 -1.4606  0.5105
  316MOL0     H41652   8.640   3.985   3.812 -0.5807 -2.4350 -2.5670
  316MOL0     H41653   8.832   3.838   3.628 -0.2541  0.8925 -0.1242
  316MOL0     H41654   8.667   3.784   3.656  0.9105  0.8597 -1.2384
  316MOL0     H41655   8.909   3.792   3.834 -1.3944  3.5489 -0.4578
  316MOL0     H41656   8.755   3.756   3.906 -0.4617 -0.1598 -0.6124
  316MOL0     H41657   8.718   3.573   3.721  0.1372 -0.4576 -0.7661
  316MOL0     H41658   8.828   3.538   3.848 -0.1035 -0.0897 -0.7790
  316MOL0     H41659   9.031   3.595   3.731 -0.7019 -3.5259  4.3313
  316MOL0     H41660   8.940   3.619   3.580 -0.4712 -3.1210 -1.3770
  316MOL0     H41661   9.068   3.390   3.621  0.3584 -0.4370  2.7979
  316MOL0     H41662   8.948   3.363   3.743  0.2249 -2.0221 -0.3815
  316MOL0     H41663   8.903   3.250   3.539 -1.8826 -0.6187  4.1195
  316MOL0     H41664   8.891   3.393   3.441 -1.5205 -3.8233 -2.4245
  316MOL0     H41665   8.664   3.439   3.361 -1.1398  1.5608 -0.0798
  316MOL0     H41666   8.380   3.325   3.356 -4.8700 -0.5355  0.1908
  316MOL0     H41667   8.358   3.490   3.428  2.2190  0.1098 -0.6245
  316MOL0     H41668   8.257   3.359   3.639 -0.5163  0.4065  0.4829
  316MOL0     H41669   8.257   3.219   3.531 -2.3517  0.4973 -0.7994
  316MOL0     H41670   8.135   3.495   3.482  1.4624 -0.2393 -0.7112
  316MOL0     H41671   8.132   3.362   3.368  0.8735  1.9668 -0.9463
  316MOL0     H41672   7.993   3.367   3.645 -2.5866 -2.3759 -0.0397
  316MOL0     H41673   7.982   3.234   3.524  1.0247 -0.2467  0.2179
  316MOL0     H41674   7.743   3.642   3.456 -0.0757 -0.6580 -0.7474
  316MOL0     H41675   7.514   3.647   3.490 -0.3688 -0.4408 -1.0729
  316MOL0     H41676   7.101   3.597   3.683  3.0818 -0.4760 -0.8107
  316MOL0     H41677   6.881   3.680   3.638  1.9815  1.2840  0.8304
  316MOL0     H41678   6.703   3.561   3.351  3.0197  0.6305 -1.0244
  316MOL0     H41679   6.709   3.665   3.209  0.8553  0.3822  0.0099
  316MOL0     H41680   6.476   3.661   3.273 -2.3681 -0.4352  2.7196
  316MOL0     H41681   6.547   3.816   3.322  0.6169 -0.1345  0.5591
  316MOL0     H41682   6.585   3.678   3.549  2.9081  0.8280 -2.1462
  316MOL0     H41683   6.469   3.565   3.499 -0.0214 -0.3363  1.1331
  316MOL0     H41684   6.391   3.848   3.535  0.3360 -1.4354  1.9913
  316MOL0     H41685   6.300   3.734   3.431 -0.1849 -1.2157  0.8383
  316MOL0     H41686   6.385   3.664   3.710 -0.6616  0.5443  1.2239
  316MOL0     H41687   6.246   3.598   3.613  0.7829 -0.2834 -2.6205
  316MOL0     H41688   6.125   3.825   3.648  0.1913 -0.7848 -1.1300
  316MOL0     H41689   6.267   3.879   3.741  1.2774 -0.5984  0.3328
  316MOL0     H41690   6.238   3.697   3.898  1.5020 -1.2444 -1.7614
  316MOL0     H41691   6.128   3.824   3.897  1.7254  0.5676 -0.2945
  316MOL0     H41692   6.036   3.577   3.918  1.4093 -0.6369 -0.9724
  316MOL0     H41693   6.086   3.552   3.754  0.7947 -0.7777  1.6729
  316MOL0     H41694   6.980   3.683   3.219 -1.0171 -6.0264 -1.6930
  316MOL0     H41695   7.190   3.603   3.264  1.2068 -2.9262  1.9606
  316MOL0     H41696   7.528   3.265   3.690 -0.0060 -1.3177 -0.4150
  316MOL0     H41697   7.753   3.236   3.621 -0.7431  0.1141  0.9054
  316MOL0     H41698   9.024   4.124   3.948  2.4067  1.1716  2.5696
  316MOL0     H41699   9.203   4.278   4.007  1.4888 -0.2049 -0.5485
  316MOL0     H41700   9.418   4.598   4.071 -4.7218  1.5266 -0.7266
  316MOL0     H41701   9.626   4.740   4.109  3.1302  3.1179 -1.2588
  316MOL0     H41702   9.863   4.749   3.932 -1.1629 -0.3776  0.0820
  316MOL0     H41703   9.821   4.825   4.095  0.1437  0.4758 -0.1440
  316MOL0     H41704  10.006   4.961   3.889 -0.0337  1.3848  0.1478
  316MOL0     H41705   9.955   5.009   4.050 -0.3943 -0.2924 -0.7257
  316MOL0     H41706  10.084   4.736   4.014  3.8501  0.9655 -1.8351
  316MOL0     H41707  10.083   4.842   4.162  2.9067  5.0518 -0.0830
  316MOL0     H41708  10.266   4.856   3.926  1.2804  0.3733  0.1585
  316MOL0     H41709  10.228   4.993   4.024 -1.2975 -0.0164  1.5732
  316MOL0     H41710  10.510   4.721   4.227 -1.7801 -1.5081  1.1454
  316MOL0     H41711   9.574   4.903   3.708  2.1334 -1.5730 -1.7015
  316MOL0     H41712   9.380   4.787   3.689 -0.2123  3.6542  1.6289
  317MOL0     O41713   9.409   9.272  10.566  0.1890  0.1718 -0.1445
  317MOL0     C41714   9.374   9.377  10.511  0.6697  0.1174 -0.1552
  317MOL0     O41715   9.248   9.428  10.508 -0.6546  0.7946  0.1695
  317MOL0     C41716   9.138   9.365  10.554 -0.3188 -0.5344 -0.1752
  317MOL0     C41717   9.028   9.444  10.591 -0.6714  0.1076  0.4543
  317MOL0     C41718   8.913   9.399  10.657  0.3355 -0.1322  0.4158
  317MOL0     C41719   8.909   9.258  10.686 -0.6359 -0.1400  0.8829
  317MOL0     O41720   8.797   9.196  10.734 -0.2669  0.0593  0.4730
  317MOL0     C41721   8.681   9.276  10.774  0.2757  0.4395 -0.2482
  317MOL0     C41722   8.596   9.175  10.855 -0.6022 -1.0517 -0.8085
  317MOL0     C41723   8.485   9.256  10.927 -0.2529  0.2242 -0.4616
  317MOL0     C41724   8.399   9.165  11.022 -0.2891 -0.5807  0.4190
  317MOL0     C41725   8.322   9.052  10.958  0.1496  0.8293  0.3083
  317MOL0     C41726   8.194   9.098  10.875 -0.5892 -0.4163 -0.0593
  317MOL0     C41727   8.163   9.009  10.755  0.1597  0.4391 -0.0442
  317MOL0     C41728   8.259   9.018  10.643  0.5397 -0.5999 -0.0171
  317MOL0     N41729   8.257   9.141  10.564 -0.2519 -0.7724  0.3635
  317MOL0     C41730   8.157   9.176  10.473 -0.2205  0.3710  0.0122
  317MOL0     C41731   8.205   9.284  10.406  0.5185 -0.3743 -0.7783
  317MOL0     C41732   8.155   9.363  10.289  0.6147  0.0706  0.5683
  317MOL0     C41733   7.997   9.369  10.280 -0.6300 -0.3544  0.2052
  317MOL0     C41734   7.941   9.419  10.148  1.7321 -0.7585 -0.3431
  317MOL0     C41735   7.942   9.320  10.031 -0.1052  0.2505 -0.1222
  317MOL0     O41736   7.833   9.350   9.956  0.0977 -0.7403  0.5353
  317MOL0     C41737   7.715   9.279   9.972  0.2078  0.6824 -0.2257
  317MOL0     C41738   7.702   9.167  10.053  0.0480 -0.0126  0.0740
  317MOL0     C41739   7.569   9.112  10.057  0.7420  0.2645  0.4008
  317MOL0     C41740   7.453   9.172   9.991  1.0176  0.3792  0.3039
  317MOL0     C41741   7.322   9.111  10.005  1.1400  0.2633  1.3331
  317MOL0     O41742   7.222   9.175   9.933 -0.1513 -0.3683  0.2733
  317MOL0     C41743   7.100   9.110   9.914 -0.7982 -0.5279 -1.0267
  317MOL0     C41744   7.068   8.972   9.920 -0.1163  0.3109 -0.0059
  317MOL0     C41745   6.942   8.932   9.907  0.5230 -0.0750 -0.0727
  317MOL0     C41746   6.836   9.015   9.863 -0.4345  0.2443  0.3767
  317MOL0     O41747   6.717   8.970   9.823 -0.5679  0.3519  0.2373
  317MOL0     C41748   6.703   8.825   9.831 -0.3211 -0.4414  0.8625
  317MOL0     C41749   6.569   8.771   9.774 -0.7489  0.3572 -0.2506
  317MOL0     C41750   6.455   8.801   9.879 -0.8581  0.8852  0.0410
  317MOL0     C41751   6.327   8.770   9.798 -0.4862 -0.2262 -1.5489
  317MOL0     C41752   6.202   8.805   9.878  0.4567 -0.6460  0.4140
  317MOL0     C41753   6.200   8.717  10.003  0.1928  0.2050  0.8243
  317MOL0     C41754   6.062   8.677  10.049 -0.2015  0.3099  0.1107
  317MOL0     C41755   6.069   8.588  10.181 -0.7173 -0.1460 -0.0630
  317MOL0    Cl41756   5.922   8.588  10.280  0.3736 -0.0097  0.0283
  317MOL0     C41757   6.862   9.150   9.863 -0.1661 -0.5566 -0.2761
  317MOL0     C41758   6.991   9.202   9.899 -0.0751  0.4055  0.6211
  317MOL0     O41759   7.309   9.007  10.065 -0.0570  0.3114 -0.5259
  317MOL0     C41760   7.470   9.287   9.914 -0.5068 -0.3407 -0.8948
  317MOL0     C41761   7.603   9.330   9.899 -0.5077 -0.1800 -0.6748
  317MOL0     N41762   8.329   9.314  10.458 -0.2871  0.5251 -0.0247
  317MOL0     N41763   8.355   9.230  10.553 -0.2428 -0.8056  0.9843
  317MOL0     C41764   9.015   9.170  10.642 -0.4424 -0.0416 -0.5545
  317MOL0     C41765   9.120   9.225  10.568 -0.2869 -0.1274 -0.4793
  317MOL0     C41766   9.491   9.463  10.475 -0.4918  0.0287 -0.0540
  317MOL0     C41767   9.467   9.591  10.415  0.2727 -0.3770 -0.6378
  317MOL0     C41768   9.572   9.683  10.398  0.2111  0.4295  0.7548
  317MOL0     C41769   9.707   9.642  10.440 -0.3829  0.3790  0.7428
  317MOL0     O41770   9.808   9.730  10.421  0.0310  0.4996 -0.4394
  317MOL0     C41771   9.950   9.698  10.437  0.7804 -0.1735  0.2392
  317MOL0     C41772  10.020   9.791  10.341 -0.3561 -0.1134  0.8512
  317MOL0     C41773  10.170   9.767  10.356 -0.4267  0.2032 -0.1193
  317MOL0     C41774  10.261   9.882  10.335 -0.4389 -0.1404  0.0433
  317MOL0     C41775  10.243   9.939  10.197 -0.1073 -1.0027 -0.5877
  317MOL0     C41776  10.224  10.003  10.098  0.2342 -0.5010  0.6201
  317MOL0     C41777   9.726   9.518  10.502 -0.6303 -0.3390  0.5959
  317MOL0     C41778   9.623   9.439  10.521 -0.2768 -0.4077  0.6582
  317MOL0     H41779   9.032   9.552  10.577  1.9271  0.0189  0.0446
  317MOL0     H41780   8.832   9.467  10.681 -0.2566  0.8443 -3.6826
  317MOL0     H41781   8.637   9.320  10.684  1.1018 -0.1518 -0.9524
  317MOL0     H41782   8.707   9.364  10.834  1.5424  0.5626 -0.9471
  317MOL0     H41783   8.659   9.121  10.927  0.9558 -0.8966 -1.9875
  317MOL0     H41784   8.561   9.101  10.783  0.4955 -1.2438 -1.1724
  317MOL0     H41785   8.413   9.315  10.869 -0.3852  2.6195  1.9604
  317MOL0     H41786   8.526   9.338  10.987 -1.1006  1.0376 -0.9726
  317MOL0     H41787   8.469   9.123  11.095 -0.6019 -1.0966  0.4290
  317MOL0     H41788   8.335   9.235  11.076 -1.2466  0.6296 -2.1002
  317MOL0     H41789   8.269   8.993  11.033 -0.9879  2.0285  0.4986
  317MOL0     H41790   8.388   8.988  10.899 -1.0466  0.1326 -0.3122
  317MOL0     H41791   8.218   9.198  10.838  1.2673 -0.2674  1.3884
  317MOL0     H41792   8.110   9.097  10.944 -0.4674  2.5602  0.2501
  317MOL0     H41793   8.174   8.906  10.788 -1.1930  0.1977 -0.2989
  317MOL0     H41794   8.058   9.019  10.726 -1.3047 -2.9564  3.3098
  317MOL0     H41795   8.244   8.932  10.579 -1.4923 -2.1208  2.3147
  317MOL0     H41796   8.360   9.000  10.681  0.9603  0.6874 -0.4692
  317MOL0     H41797   8.060   9.133  10.450 -0.0678 -0.0899  0.2041
  317MOL0     H41798   8.195   9.320  10.197  1.3864 -0.6446  1.2167
  317MOL0     H41799   8.189   9.467  10.290 -1.9362  1.0470 -1.7638
  317MOL0     H41800   7.966   9.442  10.356  0.5430 -0.7925  1.1320
  317MOL0     H41801   7.960   9.267  10.299  2.3939 -1.4926  0.5105
  317MOL0     H41802   7.835   9.439  10.167  1.3869 -1.7718 -1.0476
  317MOL0     H41803   7.984   9.513  10.112  2.8690 -1.5782 -1.2170
  317MOL0     H41804   7.959   9.220  10.074  2.3968  0.4817 -0.4469
  317MOL0     H41805   8.033   9.332   9.972 -0.7747  1.0245 -1.0178
  317MOL0     H41806   7.788   9.123  10.102  0.6727  1.5118  0.4000
  317MOL0     H41807   7.548   9.019  10.109 -2.2688 -0.6324 -2.1441
  317MOL0     H41808   7.137   8.889   9.932 -0.6458 -0.2067 -0.4590
  317MOL0     H41809   6.931   8.826   9.925 -0.6507  0.1218  0.5043
  317MOL0     H41810   6.714   8.783   9.931  2.9110 -1.5958  0.1344
  317MOL0     H41811   6.777   8.782   9.763 -2.6258 -0.5870 -1.7840
  317MOL0     H41812   6.574   8.666   9.745  2.9037  0.1980  0.4446
  317MOL0     H41813   6.556   8.824   9.680  1.3814  1.4919  0.0136
  317MOL0     H41814   6.461   8.900   9.925 -0.0832 -0.3018  2.6817
  317MOL0     H41815   6.481   8.726   9.954 -1.4886  1.2475  0.6251
  317MOL0     H41816   6.328   8.833   9.709  0.2749  1.1430 -0.6027
  317MOL0     H41817   6.320   8.663   9.777 -1.8461 -1.2202  2.7792
  317MOL0     H41818   6.108   8.777   9.830 -0.8121 -0.8823  2.8779
  317MOL0     H41819   6.198   8.910   9.909  0.4411  0.2959 -2.4941
  317MOL0     H41820   6.258   8.769  10.081  1.8514  1.8401 -1.3779
  317MOL0     H41821   6.266   8.631   9.993  3.6744  2.7534 -0.2253
  317MOL0     H41822   6.005   8.768  10.065 -2.9237 -0.9224 -1.6648
  317MOL0     H41823   6.017   8.627   9.962  2.2789  1.3720 -1.9244
  317MOL0     H41824   6.146   8.630  10.247 -0.1159  0.7947 -1.3301
  317MOL0     H41825   6.101   8.486  10.155 -0.5633 -0.0467 -0.2676
  317MOL0     H41826   6.785   9.225   9.848  0.2498  0.0487  0.5330
  317MOL0     H41827   7.015   9.307   9.892 -1.6741  0.8086  0.8824
  317MOL0     H41828   7.392   9.338   9.858 -0.4564  1.0308  0.2245
  317MOL0     H41829   7.613   9.410   9.826 -0.2991  1.0834  0.6858
  317MOL0     H41830   9.003   9.065  10.668  2.1037 -0.0837  0.7152
  317MOL0     H41831   9.198   9.156  10.538 -1.3869 -0.8027 -1.9351
  317MOL0     H41832   9.364   9.619  10.394  0.4847 -1.0170 -2.8154
  317MOL0     H41833   9.553   9.782  10.358 -0.4340 -0.5164 -1.4664
  317MOL0     H41834   9.975   9.596  10.407  0.4407 -0.0706 -0.4086
  317MOL0     H41835   9.982   9.714  10.540 -0.2257 -2.0862  0.9036
  317MOL0     H41836   9.994   9.763  10.238 -0.1826  0.1184  0.7440
  317MOL0     H41837   9.998   9.893  10.373 -0.4128  0.0138  0.4153
  317MOL0     H41838  10.200   9.675  10.305 -1.5300  0.6319 -1.5805
  317MOL0     H41839  10.189   9.734  10.459  0.4387  0.0891 -0.3075
  317MOL0     H41840  10.231   9.951  10.414 -2.8424 -3.3360  2.1594
  317MOL0     H41841  10.366   9.857  10.352 -0.5283 -0.7365 -0.2544
  317MOL0     H41842  10.197  10.064  10.014  0.5884 -0.7169  0.3517
  317MOL0     H41843   9.820   9.478  10.538 -0.9345 -0.3295  1.4083
  317MOL0     H41844   9.642   9.344  10.571  2.1216 -0.9557 -1.0996
  318MOL0     O41845  10.487   7.617   7.749 -0.4431  0.0294 -0.5282
  318MOL0     C41846  10.381   7.555   7.767  0.3258 -0.4926 -0.2479
  318MOL0     O41847  10.342   7.508   7.881  0.7200 -0.0567  0.0596
  318MOL0     C41848  10.412   7.515   7.990 -0.4465  0.5730 -0.6492
  318MOL0     C41849  10.516   7.421   8.027  0.0474  0.2596 -0.2311
  318MOL0     C41850  10.591   7.434   8.140 -0.7128  0.2340 -0.3001
  318MOL0     C41851  10.583   7.544   8.220 -0.4357  0.4903  0.5638
  318MOL0     O41852  10.651   7.545   8.338 -0.5441  0.2881  0.3956
  318MOL0     C41853  10.658   7.656   8.422 -0.2604  0.2289 -0.7732
  318MOL0     C41854  10.739   7.627   8.545  0.5638  0.1800  0.0304
  318MOL0     C41855  10.897   7.628   8.518  0.2843  1.2038  0.5733
  318MOL0     C41856  11.008   7.614   8.622  0.5120  0.5061  0.3559
  318MOL0     C41857  11.133   7.679   8.575 -0.9100 -0.2966  0.0852
  318MOL0     C41858  11.231   7.695   8.695 -0.5502  0.0266  0.4424
  318MOL0     C41859  11.286   7.559   8.746  0.1349 -0.1289 -0.0136
  318MOL0     C41860  11.292   7.554   8.901  0.4525 -0.2053 -0.1263
  318MOL0     N41861  11.159   7.567   8.966  0.1184 -1.3007  0.0008
  318MOL0     C41862  11.036   7.503   8.942 -0.5935 -0.1633 -0.4914
  318MOL0     C41863  10.950   7.578   9.013 -0.7319 -0.1639  0.2460
  318MOL0     C41864  10.808   7.547   9.045 -0.0276  0.0648  0.0073
  318MOL0     C41865  10.717   7.529   8.917 -0.1146  0.8116 -0.2759
  318MOL0     C41866  10.587   7.467   8.948 -0.1878 -0.4790 -0.1448
  318MOL0     C41867  10.598   7.320   8.995 -0.5602  0.4396 -1.3111
  318MOL0     O41868  10.531   7.229   8.903 -0.0060 -0.3943  0.6147
  318MOL0     C41869  10.534   7.103   8.954  1.5772 -0.4185 -0.1746
  318MOL0     C41870  10.543   6.992   8.866  0.4637  0.7694  0.3817
  318MOL0     C41871  10.542   6.856   8.918  0.5112 -0.0121 -0.3225
  318MOL0     C41872  10.527   6.832   9.054 -0.2830  0.5234 -0.6043
  318MOL0     C41873  10.516   6.699   9.115  0.3930 -0.2313 -0.3639
  318MOL0     O41874  10.486   6.602   9.027  0.2203 -0.0566  0.0389
  318MOL0     C41875  10.440   6.473   9.059  0.1748  0.4994 -0.0862
  318MOL0     C41876  10.395   6.399   8.947 -0.1230 -0.2241  0.8456
  318MOL0     C41877  10.345   6.265   8.962  0.2001 -0.3606  0.7600
  318MOL0     C41878  10.329   6.205   9.086 -0.1876 -0.6536 -0.3958
  318MOL0     O41879  10.267   6.081   9.109  0.5544 -0.3014  0.3174
  318MOL0     C41880  10.186   6.051   9.227 -0.4999  0.5090  0.2589
  318MOL0     C41881  10.128   5.917   9.204 -0.1250  1.0625  0.4082
  318MOL0     C41882  10.241   5.812   9.202  0.0775  0.5415  0.4155
  318MOL0     C41883  10.173   5.677   9.200  0.2028 -0.0056 -0.3473
  318MOL0     C41884  10.255   5.546   9.194  0.6261 -0.4901 -0.9143
  318MOL0     C41885  10.158   5.430   9.189  0.4595  0.2303  0.3076
  318MOL0     C41886  10.231   5.302   9.158  0.3844  0.3864  0.4066
  318MOL0     C41887  10.343   5.268   9.257 -0.0766  0.0916  0.2438
  318MOL0    Cl41888  10.419   5.113   9.214  0.4255  0.2627 -0.4079
  318MOL0     C41889  10.377   6.278   9.199 -0.2265  0.2715  0.6583
  318MOL0     C41890  10.434   6.410   9.188 -0.7894  0.5492  1.0453
  318MOL0     O41891  10.528   6.684   9.237 -0.0100 -0.1421  0.0614
  318MOL0     C41892  10.517   6.944   9.139 -0.3215  0.8433 -0.2848
  318MOL0     C41893  10.517   7.073   9.092 -0.1376  0.4387 -0.1214
  318MOL0     N41894  11.018   7.683   9.077  1.1226  0.9102  0.4181
  318MOL0     N41895  11.143   7.671   9.057 -0.7024 -0.3453 -0.0094
  318MOL0     C41896  10.495   7.649   8.183 -0.1698 -0.1804 -0.3619
  318MOL0     C41897  10.411   7.636   8.071  0.4844  0.7035 -0.3280
  318MOL0     C41898  10.295   7.541   7.645 -0.6987 -0.6318  1.0767
  318MOL0     C41899  10.311   7.630   7.536  0.7612 -0.0229 -0.3721
  318MOL0     C41900  10.219   7.633   7.428 -0.4312  0.0101  1.0018
  318MOL0     C41901  10.115   7.546   7.424 -0.0398  0.1580 -0.1618
  318MOL0     O41902  10.024   7.527   7.323  0.3999  0.4482  0.1090
  318MOL0     C41903  10.022   7.611   7.204  0.3936  0.5471 -0.1557
  318MOL0     C41904   9.944   7.738   7.213 -0.3551 -0.1606 -0.0695
  318MOL0     C41905   9.799   7.718   7.229 -1.2579  0.4200 -0.2648
  318MOL0     C41906   9.743   7.822   7.327 -0.1054 -0.3182  0.3355
  318MOL0     C41907   9.764   7.960   7.281  0.1113  0.8910 -0.7332
  318MOL0     C41908   9.778   8.075   7.242 -0.6137 -1.1698 -0.0491
  318MOL0     C41909  10.099   7.456   7.533  0.2547 -0.0563  0.1594
  318MOL0     C41910  10.187   7.460   7.643 -0.3737 -0.0339 -0.4767
  318MOL0     H41911  10.548   7.340   7.963 -0.3296  0.7241 -1.0225
  318MOL0     H41912  10.662   7.358   8.171 -1.3741  0.5958  2.4391
  318MOL0     H41913  10.558   7.683   8.455 -0.3031  0.6179 -1.2072
  318MOL0     H41914  10.702   7.736   8.362  0.4939 -0.1492 -0.7465
  318MOL0     H41915  10.705   7.530   8.583  1.7584 -0.4601 -0.4774
  318MOL0     H41916  10.725   7.703   8.622 -1.1578  0.2912 -0.3635
  318MOL0     H41917  10.901   7.721   8.460  0.3910  1.1805  0.5448
  318MOL0     H41918  10.904   7.539   8.455 -1.6075  0.4256  1.3872
  318MOL0     H41919  10.975   7.673   8.708 -0.8724 -0.2427  0.3715
  318MOL0     H41920  11.016   7.509   8.651 -1.3712 -0.1861 -1.3966
  318MOL0     H41921  11.099   7.779   8.548  0.7993  0.3527  0.2218
  318MOL0     H41922  11.182   7.628   8.492 -2.2562  0.3206 -1.1415
  318MOL0     H41923  11.182   7.736   8.783  1.2247 -0.4250  1.6974
  318MOL0     H41924  11.310   7.766   8.667  0.0060 -1.3576 -1.7943
  318MOL0     H41925  11.227   7.472   8.714  0.9874 -0.2885 -1.2227
  318MOL0     H41926  11.387   7.549   8.705 -0.4418  0.0190 -1.5162
  318MOL0     H41927  11.358   7.635   8.934 -2.1392  2.1571 -0.4306
  318MOL0     H41928  11.338   7.457   8.920  0.5383 -1.0163 -3.7359
  318MOL0     H41929  11.012   7.414   8.886  0.9665 -0.4225 -0.8082
  318MOL0     H41930  10.763   7.631   9.099 -3.0019  0.4858 -2.8152
  318MOL0     H41931  10.800   7.462   9.113  0.7131  1.5787  2.0977
  318MOL0     H41932  10.772   7.472   8.840  0.4265 -0.3801  0.9563
  318MOL0     H41933  10.706   7.632   8.882  0.3104  0.4628 -1.5073
  318MOL0     H41934  10.533   7.524   9.024 -1.0112 -0.2393 -0.8950
  318MOL0     H41935  10.529   7.454   8.857 -0.5557 -1.6919  0.2405
  318MOL0     H41936  10.563   7.324   9.099  1.1013  0.8663 -0.7314
  318MOL0     H41937  10.700   7.284   9.010  0.0382  1.6724 -2.2592
  318MOL0     H41938  10.570   6.993   8.761  1.0629  0.4763  0.5262
  318MOL0     H41939  10.550   6.772   8.850 -2.1384  1.7260 -3.0534
  318MOL0     H41940  10.391   6.436   8.845  0.4798 -3.4509 -0.4793
  318MOL0     H41941  10.303   6.212   8.878 -1.0294  0.6095  0.7354
  318MOL0     H41942  10.116   6.132   9.250  1.2860  2.0467  0.5402
  318MOL0     H41943  10.258   6.048   9.309  2.0816 -0.8371 -1.8829
  318MOL0     H41944  10.064   5.895   9.118  1.0594  2.8964 -1.0181
  318MOL0     H41945  10.070   5.899   9.295  2.6303 -0.9884  1.9226
  318MOL0     H41946  10.309   5.831   9.286  2.1295  0.0933 -1.0716
  318MOL0     H41947  10.305   5.828   9.115 -0.5132  1.0053  0.0539
  318MOL0     H41948  10.106   5.674   9.287 -0.4207  2.5807 -0.6747
  318MOL0     H41949  10.116   5.669   9.108  1.9356 -0.7387 -1.4069
  318MOL0     H41950  10.325   5.540   9.278  1.0104  0.8698 -1.1261
  318MOL0     H41951  10.315   5.548   9.103 -1.8840 -2.0405 -2.7336
  318MOL0     H41952  10.083   5.457   9.114 -1.5963  0.5812  2.3698
  318MOL0     H41953  10.108   5.408   9.284  0.8415 -3.7103 -0.2621
  318MOL0     H41954  10.160   5.219   9.158  0.3469  0.4124  1.1894
  318MOL0     H41955  10.271   5.303   9.056  0.7498 -0.0906  0.5447
  318MOL0     H41956  10.310   5.255   9.360  3.8796 -0.2198  1.6539
  318MOL0     H41957  10.419   5.347   9.261  1.9038 -1.3459 -3.6065
  318MOL0     H41958  10.363   6.228   9.294 -1.2830  0.1761  0.4691
  318MOL0     H41959  10.482   6.451   9.276 -1.9035  1.3886  1.2754
  318MOL0     H41960  10.508   6.938   9.247 -2.0851  3.1546 -0.2297
  318MOL0     H41961  10.517   7.145   9.174  0.1019 -2.5310  2.6658
  318MOL0     H41962  10.487   7.735   8.249  3.7589 -0.1341  0.2792
  318MOL0     H41963  10.329   7.706   8.058  0.7788  1.1903  0.4421
  318MOL0     H41964  10.389   7.705   7.531  0.5943  0.1071 -1.4745
  318MOL0     H41965  10.248   7.698   7.346  0.5896 -0.9004  0.6168
  318MOL0     H41966   9.975   7.570   7.114  1.2544  0.8888 -0.7748
  318MOL0     H41967  10.123   7.640   7.174  1.2276 -0.9959  1.0371
  318MOL0     H41968   9.985   7.789   7.300 -1.4939  1.7510 -0.5945
  318MOL0     H41969   9.965   7.806   7.130  3.1839 -1.9693 -0.8534
  318MOL0     H41970   9.791   7.617   7.271  0.6909 -1.1659 -3.3053
  318MOL0     H41971   9.738   7.712   7.139 -0.1085  3.0350 -1.3217
  318MOL0     H41972   9.638   7.795   7.346  0.0740 -0.0667  1.7896
  318MOL0     H41973   9.787   7.810   7.427  0.6414 -1.3380 -0.1015
  318MOL0     H41974   9.797   8.173   7.203 -0.1615 -1.4415 -0.5254
  318MOL0     H41975  10.003   7.406   7.539 -0.3395  1.1854  1.9300
  318MOL0     H41976  10.164   7.391   7.723  2.8729 -2.0602 -1.1200
  319MOL0     O41977   1.094  10.825   8.490  0.2565  0.0097 -0.0414
  319MOL0     C41978   1.149  10.902   8.415  0.1778  0.3488 -0.1291
  319MOL0     O41979   1.088  10.975   8.317  0.4264 -0.2727  0.2356
  319MOL0     C41980   0.952  10.995   8.302 -0.4229  0.2775 -0.3218
  319MOL0     C41981   0.930  11.074   8.194  0.5385  0.1395 -0.1707
  319MOL0     C41982   0.809  11.107   8.149  0.2703  0.5716  0.6291
  319MOL0     C41983   0.693  11.065   8.212  0.4053 -0.5846  0.7545
  319MOL0     O41984   0.567  11.098   8.172  0.2048 -0.8880 -0.2275
  319MOL0     C41985   0.543  11.121   8.037 -0.3104 -0.1387  0.6756
  319MOL0     C41986   0.388  11.119   8.014 -0.2541  0.1956  1.0319
  319MOL0     C41987   0.304  11.186   8.116  1.1519  0.2571  0.1737
  319MOL0     C41988   0.153  11.158   8.082 -0.0484 -0.0782 -0.5597
  319MOL0     C41989   0.040  11.191   8.184 -0.7746 -0.3310  0.1955
  319MOL0     C41990   0.063  11.102   8.303 -0.9454 -0.1297  0.2395
  319MOL0     C41991  -0.061  11.105   8.394 -0.8465 -0.7300  0.3181
  319MOL0     C41992  -0.178  11.022   8.370  0.4576 -0.5149 -0.2291
  319MOL0     N41993  -0.271  11.045   8.483  0.7624  0.0547  0.1394
  319MOL0     C41994  -0.392  11.112   8.465  0.8757  0.0536 -0.1920
  319MOL0     C41995  -0.456  11.105   8.589 -0.2443 -0.0538 -0.3483
  319MOL0     C41996  -0.587  11.162   8.629 -0.7991  0.2317 -0.7021
  319MOL0     C41997  -0.577  11.313   8.631 -0.7490 -0.7375  0.0351
  319MOL0     C41998  -0.689  11.384   8.712 -0.4099  0.9351  0.2667
  319MOL0     C41999  -0.833  11.341   8.685  0.1395 -0.1334 -0.6677
  319MOL0     O42000  -0.933  11.429   8.736 -0.9699 -0.8303 -0.0239
  319MOL0     C42001  -1.064  11.425   8.720  0.0089  0.0420 -0.1302
  319MOL0     C42002  -1.118  11.378   8.602 -0.3660  0.9217  0.1112
  319MOL0     C42003  -1.254  11.362   8.592  0.9809 -0.0089  0.7809
  319MOL0     C42004  -1.343  11.402   8.696  0.8962 -0.0421 -0.5187
  319MOL0     C42005  -1.490  11.384   8.683  0.0922  0.3873 -0.1322
  319MOL0     O42006  -1.541  11.373   8.549 -0.1732  0.4312  0.0855
  319MOL0     C42007  -1.674  11.345   8.523  0.2519 -0.8149 -0.9457
  319MOL0     C42008  -1.758  11.446   8.474  0.2176  0.3468  0.0644
  319MOL0     C42009  -1.892  11.418   8.459 -0.9240  0.0210 -0.6383
  319MOL0     C42010  -1.953  11.300   8.487 -0.8030 -0.6393 -0.2531
  319MOL0     O42011  -2.085  11.273   8.482  0.8618  0.1498 -0.5107
  319MOL0     C42012  -2.171  11.388   8.481  0.4369  0.0458 -0.4630
  319MOL0     C42013  -2.311  11.349   8.520 -0.1290 -0.1281  0.6563
  319MOL0     C42014  -2.394  11.278   8.416 -0.6158  0.3324 -0.0568
  319MOL0     C42015  -2.537  11.263   8.460 -0.2344 -0.0794 -0.0112
  319MOL0     C42016  -2.610  11.213   8.335  0.6760  0.7251  0.0188
  319MOL0     C42017  -2.760  11.217   8.360  0.0486 -0.3610  0.1452
  319MOL0     C42018  -2.836  11.175   8.234  0.3072 -0.3242  0.6141
  319MOL0     C42019  -2.984  11.168   8.255  0.7953 -0.4498  0.5486
  319MOL0    Cl42020  -3.067  11.124   8.109  0.3422 -0.4704 -0.2211
  319MOL0     C42021  -1.866  11.192   8.535 -0.3871 -0.7711  0.9696
  319MOL0     C42022  -1.729  11.219   8.553  0.9983 -0.1528 -1.1515
  319MOL0     O42023  -1.551  11.364   8.793 -0.1530  0.8779  0.2853
  319MOL0     C42024  -1.284  11.465   8.809  0.9228  0.7624 -0.1261
  319MOL0     C42025  -1.142  11.475   8.819  0.4116  0.1994 -0.1041
  319MOL0     N42026  -0.374  11.038   8.679 -0.8357 -0.6371 -0.4801
  319MOL0     N42027  -0.263  11.007   8.618  0.0977 -0.3205  0.3422
  319MOL0     C42028   0.708  10.988   8.326 -0.5810 -0.0792  1.7050
  319MOL0     C42029   0.835  10.947   8.368  0.2064  0.5254 -0.3232
  319MOL0     C42030   1.294  10.911   8.430  0.2380 -0.0571  0.5300
  319MOL0     C42031   1.370  10.808   8.485 -0.2800  0.8371 -0.3426
  319MOL0     C42032   1.514  10.815   8.486  0.1948  0.1172 -0.8450
  319MOL0     C42033   1.582  10.933   8.436  0.2097 -0.0690 -0.1415
  319MOL0     O42034   1.721  10.950   8.431  0.4931 -0.1455  0.4132
  319MOL0     C42035   1.806  10.859   8.510  0.7568  0.1275  0.4427
  319MOL0     C42036   1.823  10.724   8.438 -0.2411  0.3684 -0.3060
  319MOL0     C42037   1.904  10.736   8.306 -0.6464 -0.6803  0.1250
  319MOL0     C42038   1.976  10.601   8.276  0.1059  0.4350  0.2846
  319MOL0     C42039   2.094  10.574   8.362 -0.3296 -0.1304  0.0782
  319MOL0     C42040   2.192  10.553   8.428 -0.3953 -0.0774 -0.0623
  319MOL0     C42041   1.499  11.039   8.386  0.1854 -0.1869 -0.1259
  319MOL0     C42042   1.363  11.033   8.388  1.0065  1.0139  0.1993
  319MOL0     H42043   1.010  11.119   8.134  0.5398 -1.3964 -1.3758
  319MOL0     H42044   0.808  11.169   8.060 -1.2914  0.5890  0.6272
  319MOL0     H42045   0.597  11.045   7.981  2.8837  0.4523  2.6831
  319MOL0     H42046   0.588  11.218   8.014 -0.4708  0.2895  2.0451
  319MOL0     H42047   0.364  11.012   8.016  1.5633 -0.2348  1.3844
  319MOL0     H42048   0.351  11.157   7.919 -2.2065 -0.1947  1.5885
  319MOL0     H42049   0.321  11.293   8.127 -3.9399  1.3506  0.1523
  319MOL0     H42050   0.314  11.137   8.213  0.7724  3.2754  1.8778
  319MOL0     H42051   0.131  11.221   7.996  0.4084 -1.3299 -1.6194
  319MOL0     H42052   0.140  11.054   8.052  0.0933  0.5102 -2.8182
  319MOL0     H42053  -0.056  11.182   8.132 -0.2326  1.8768 -1.3451
  319MOL0     H42054   0.036  11.297   8.214  0.7022  0.0617 -0.8728
  319MOL0     H42055   0.145  11.133   8.368  0.3487 -3.0204  0.1141
  319MOL0     H42056   0.082  10.997   8.281  0.1200 -0.1516  1.2174
  319MOL0     H42057  -0.028  11.072   8.492 -2.4079  2.0349  1.9119
  319MOL0     H42058  -0.089  11.211   8.398 -3.2087 -1.3222  1.7530
  319MOL0     H42059  -0.151  10.918   8.347 -0.2766 -0.7542 -0.0461
  319MOL0     H42060  -0.226  11.052   8.276  1.8046 -1.0940 -1.1303
  319MOL0     H42061  -0.442  11.142   8.373  1.7978  1.0655 -0.3784
  319MOL0     H42062  -0.607  11.131   8.732  1.3446  1.3095  0.1070
  319MOL0     H42063  -0.660  11.114   8.563 -1.5610  1.1686 -0.5596
  319MOL0     H42064  -0.569  11.344   8.526 -0.9331  2.0670  0.7615
  319MOL0     H42065  -0.478  11.339   8.670 -0.5946 -0.3486 -0.5941
  319MOL0     H42066  -0.673  11.373   8.820 -2.9693  2.9527  0.9369
  319MOL0     H42067  -0.679  11.492   8.697 -0.2281  0.9441  0.4363
  319MOL0     H42068  -0.849  11.243   8.732  0.9843 -0.4962 -1.1085
  319MOL0     H42069  -0.832  11.332   8.576 -2.2432  0.6996 -0.8186
  319MOL0     H42070  -1.059  11.331   8.523 -2.0042  0.1180 -0.7063
  319MOL0     H42071  -1.285  11.307   8.504 -2.3525  3.7132 -0.6694
  319MOL0     H42072  -1.724  11.549   8.461  1.3887 -0.1501 -0.8990
  319MOL0     H42073  -1.962  11.495   8.428 -1.9055 -0.0656  1.2109
  319MOL0     H42074  -2.168  11.432   8.381  2.1016 -0.1162 -0.5151
  319MOL0     H42075  -2.142  11.466   8.552  0.2064 -2.1378  2.1988
  319MOL0     H42076  -2.368  11.441   8.537 -2.6454 -0.9884 -2.2091
  319MOL0     H42077  -2.311  11.294   8.614 -1.3759  1.2135  1.4640
  319MOL0     H42078  -2.357  11.176   8.402 -1.3139 -0.4175  2.9236
  319MOL0     H42079  -2.389  11.334   8.322 -2.0986 -0.0412 -0.3884
  319MOL0     H42080  -2.555  11.192   8.541 -2.3528  0.1096 -0.2736
  319MOL0     H42081  -2.570  11.360   8.498  2.9995 -0.3652  4.4282
  319MOL0     H42082  -2.573  11.112   8.316 -1.9875 -0.3498  0.0722
  319MOL0     H42083  -2.595  11.278   8.248 -0.2640  0.7033 -0.1772
  319MOL0     H42084  -2.795  11.319   8.378 -1.5706 -0.4561 -1.9837
  319MOL0     H42085  -2.785  11.161   8.450 -2.3416 -1.5304 -1.1488
  319MOL0     H42086  -2.814  11.234   8.145 -1.4448 -1.0201 -0.3358
  319MOL0     H42087  -2.801  11.075   8.206  0.4064 -0.1243  0.0127
  319MOL0     H42088  -3.008  11.269   8.289 -0.5139 -0.5368 -0.0322
  319MOL0     H42089  -3.016  11.104   8.337  0.6851 -1.4463 -0.2551
  319MOL0     H42090  -1.915  11.097   8.554 -0.0009 -0.8840  1.4120
  319MOL0     H42091  -1.647  11.161   8.594  0.2602  1.8962  3.9039
  319MOL0     H42092  -1.357  11.514   8.872 -1.5083  0.0427 -2.1993
  319MOL0     H42093  -1.096  11.511   8.911  1.2062 -2.0431  0.4312
  319MOL0     H42094   0.631  10.948   8.391 -2.3730  0.3817 -0.0038
  319MOL0     H42095   0.847  10.877   8.450  0.0235  0.9497  0.0722
  319MOL0     H42096   1.310  10.730   8.531  0.1683 -0.1570 -1.3727
  319MOL0     H42097   1.553  10.732   8.544 -1.2066  0.2432  0.3348
  319MOL0     H42098   1.769  10.853   8.613  1.8525  2.9590  1.0965
  319MOL0     H42099   1.906  10.902   8.520  0.3389  1.7563 -1.5646
  319MOL0     H42100   1.873  10.658   8.509  1.2733  0.5017 -1.1886
  319MOL0     H42101   1.726  10.678   8.416  0.4747 -0.9567 -0.8201
  319MOL0     H42102   1.986  10.806   8.323  0.0670 -2.0556  2.9089
  319MOL0     H42103   1.832  10.761   8.228  0.6528  1.0300 -0.6109
  319MOL0     H42104   1.907  10.516   8.285  2.2138 -1.1840  2.2136
  319MOL0     H42105   2.008  10.613   8.172 -0.7123 -0.0705 -0.0409
  319MOL0     H42106   2.271  10.516   8.490 -1.4187 -1.4586  0.4882
  319MOL0     H42107   1.534  11.139   8.361 -1.8592  1.2535  2.3802
  319MOL0     H42108   1.308  11.121   8.356 -0.2828  0.1393 -0.0682
  320MOL0     O42109   0.524   9.208   3.811  0.3498 -0.1518 -0.3625
  320MOL0     C42110   0.597   9.117   3.838  0.1776  0.1758 -0.1991
  320MOL0     O42111   0.597   8.999   3.768 -0.0364  0.5486  0.1082
  320MOL0     C42112   0.530   8.983   3.649 -0.2467  0.1423  0.1615
  320MOL0     C42113   0.592   8.956   3.521  0.4957  0.8069 -0.0318
  320MOL0     C42114   0.523   8.963   3.403  0.0594  0.9625 -0.0573
  320MOL0     C42115   0.383   8.961   3.395 -0.3497  0.2164  0.0189
  320MOL0     O42116   0.305   8.944   3.282 -0.5413  0.3901 -0.0660
  320MOL0     C42117   0.368   8.948   3.153  0.1090 -0.6818  0.0719
  320MOL0     C42118   0.394   9.103   3.110  0.6217 -0.1673 -0.1348
  320MOL0     C42119   0.265   9.177   3.121 -0.1703  0.9775  1.1839
  320MOL0     C42120   0.174   9.134   3.010  0.4667 -0.3837 -0.7293
  320MOL0     C42121   0.038   9.194   3.026 -0.0212 -0.1489 -0.1210
  320MOL0     C42122   0.032   9.348   3.036  0.9302 -0.0209 -0.1683
  320MOL0     C42123  -0.102   9.401   2.975 -0.1281  0.1273 -0.2926
  320MOL0     C42124  -0.221   9.383   3.067 -0.1428  0.2583  0.4345
  320MOL0     N42125  -0.356   9.388   3.003 -0.7607  0.1674  0.7175
  320MOL0     C42126  -0.402   9.309   2.896  0.2459 -0.4860 -0.6178
  320MOL0     C42127  -0.532   9.356   2.883  0.3924  0.1004 -0.0941
  320MOL0     C42128  -0.627   9.308   2.770 -0.8982  0.1657 -0.1270
  320MOL0     C42129  -0.731   9.205   2.814  0.2738  0.4835 -0.0434
  320MOL0     C42130  -0.856   9.277   2.869  1.0891 -0.5889  0.3046
  320MOL0     C42131  -0.941   9.334   2.764 -0.1179  0.9186  0.3461
  320MOL0     O42132  -1.007   9.230   2.689  0.2968 -0.0525 -0.2362
  320MOL0     C42133  -1.143   9.215   2.705  0.4744  0.0801  0.6195
  320MOL0     C42134  -1.207   9.256   2.821 -1.2724  0.0852 -1.2662
  320MOL0     C42135  -1.343   9.239   2.839 -0.0387 -0.3029  0.3160
  320MOL0     C42136  -1.423   9.195   2.729 -0.3343  0.8783  1.0929
  320MOL0     C42137  -1.571   9.204   2.736 -0.0246  0.0596 -0.2559
  320MOL0     O42138  -1.628   9.248   2.853  0.8154 -0.1235  0.2575
  320MOL0     C42139  -1.764   9.251   2.846  0.3910  0.6782  0.0534
  320MOL0     C42140  -1.839   9.364   2.830 -0.3945 -0.3259  0.0820
  320MOL0     C42141  -1.980   9.369   2.844  0.1998  0.1360  0.1086
  320MOL0     C42142  -2.051   9.251   2.860  0.0056 -0.3279 -1.0091
  320MOL0     O42143  -2.189   9.250   2.861  0.5528 -0.6700 -0.2218
  320MOL0     C42144  -2.273   9.308   2.763 -0.8272 -0.7875 -1.0287
  320MOL0     C42145  -2.400   9.237   2.759  0.1994 -0.4508 -0.2556
  320MOL0     C42146  -2.478   9.262   2.887  0.1717 -0.4935 -0.2682
  320MOL0     C42147  -2.618   9.195   2.872  0.6475 -0.4464  0.1071
  320MOL0     C42148  -2.697   9.237   2.997 -0.3218 -0.3800  0.2091
  320MOL0     C42149  -2.835   9.188   2.993  0.3557  0.0825 -0.1870
  320MOL0     C42150  -2.848   9.032   2.961  0.2759 -0.3094 -0.2507
  320MOL0     C42151  -2.991   8.981   2.985 -1.6121 -0.0886 -0.4775
  320MOL0    Cl42152  -3.105   9.041   2.856 -0.1805 -0.5193 -0.4394
  320MOL0     C42153  -1.980   9.131   2.885  0.3187  0.5345  0.4533
  320MOL0     C42154  -1.840   9.135   2.877 -0.6434  0.3872 -0.1225
  320MOL0     O42155  -1.630   9.172   2.633 -0.1642  0.0037 -0.4049
  320MOL0     C42156  -1.354   9.153   2.608  0.4244  0.3151  0.1576
  320MOL0     C42157  -1.215   9.150   2.606  0.7268 -0.2423  0.9064
  320MOL0     N42158  -0.552   9.457   2.977 -0.2290  0.8839  0.4241
  320MOL0     N42159  -0.450   9.469   3.048 -0.6934 -0.0450 -0.8262
  320MOL0     C42160   0.321   8.976   3.524  0.8212  0.2799  0.5559
  320MOL0     C42161   0.391   8.982   3.640 -0.0194 -0.5595  0.3516
  320MOL0     C42162   0.687   9.120   3.953 -0.0449  0.3432  0.5640
  320MOL0     C42163   0.774   9.006   3.978  0.9998  0.1105  1.2753
  320MOL0     C42164   0.876   9.020   4.067  0.1889  0.6725 -0.5407
  320MOL0     C42165   0.887   9.138   4.140  0.4263 -0.4674  0.1131
  320MOL0     O42166   0.983   9.161   4.243 -0.6928  0.6108  0.2299
  320MOL0     C42167   1.120   9.142   4.201 -0.2177 -0.9488 -0.2295
  320MOL0     C42168   1.188   9.102   4.324  0.8598 -0.5348 -0.7606
  320MOL0     C42169   1.339   9.102   4.314  0.0751  0.3010  0.1412
  320MOL0     C42170   1.402   9.038   4.441 -0.1192 -0.1668  0.9523
  320MOL0     C42171   1.551   9.033   4.419  0.4125  0.1788 -0.3764
  320MOL0     C42172   1.672   9.032   4.403  0.8205  0.0973  0.0620
  320MOL0     C42173   0.801   9.240   4.120  1.1729  0.1992  0.2024
  320MOL0     C42174   0.696   9.236   4.034 -1.2032 -0.9853  0.5106
  320MOL0     H42175   0.699   8.943   3.515  1.2670  1.2216  6.3207
  320MOL0     H42176   0.582   8.954   3.312 -2.4607  0.7047 -1.7752
  320MOL0     H42177   0.302   8.905   3.077  2.6102 -0.4284 -2.4264
  320MOL0     H42178   0.462   8.892   3.150  2.0881  2.1322  2.6985
  320MOL0     H42179   0.446   9.120   3.015  1.8897  0.1818  0.5875
  320MOL0     H42180   0.476   9.137   3.174  3.3728  0.6457 -3.7512
  320MOL0     H42181   0.281   9.285   3.117  0.1311  0.9258  1.0059
  320MOL0     H42182   0.214   9.164   3.217 -2.5201  4.1182  0.5399
  320MOL0     H42183   0.222   9.166   2.917  5.6310 -0.6387  1.5082
  320MOL0     H42184   0.150   9.028   3.019  0.4096 -0.2966  0.2984
  320MOL0     H42185  -0.008   9.160   3.119  0.0634 -0.1421 -0.0757
  320MOL0     H42186  -0.031   9.164   2.947  0.2516  1.2886 -0.9426
  320MOL0     H42187   0.109   9.390   2.971  2.2138 -2.8257 -0.6283
  320MOL0     H42188   0.048   9.398   3.132  2.3139 -3.4482  1.5607
  320MOL0     H42189  -0.085   9.508   2.958  0.1259  0.8502  3.5625
  320MOL0     H42190  -0.120   9.346   2.883 -0.3514 -1.7652  0.8274
  320MOL0     H42191  -0.201   9.463   3.139  1.0043 -0.7275  1.2686
  320MOL0     H42192  -0.211   9.296   3.133  0.4294  1.7688  2.4164
  320MOL0     H42193  -0.357   9.226   2.842 -0.9053 -0.7319 -1.2409
  320MOL0     H42194  -0.567   9.250   2.699  0.3755 -0.0247  1.0564
  320MOL0     H42195  -0.664   9.397   2.719 -2.3070 -0.0880  0.4178
  320MOL0     H42196  -0.691   9.128   2.880 -0.2322 -2.6611 -3.1290
  320MOL0     H42197  -0.757   9.144   2.727 -0.2701 -1.2947  1.3087
  320MOL0     H42198  -0.917   9.204   2.923 -1.1160  1.4761  0.8070
  320MOL0     H42199  -0.833   9.351   2.946  0.0740 -1.7745  1.8257
  320MOL0     H42200  -0.870   9.376   2.691  1.8225 -2.4074  0.0685
  320MOL0     H42201  -1.009   9.409   2.803  1.2604  3.0483 -1.1248
  320MOL0     H42202  -1.151   9.285   2.909 -1.3995  0.7171 -1.3905
  320MOL0     H42203  -1.384   9.291   2.924 -0.2558 -0.5465  0.3593
  320MOL0     H42204  -1.781   9.451   2.800 -0.1768 -1.0865 -1.8360
  320MOL0     H42205  -2.016   9.471   2.833 -1.0513 -0.2976  0.0110
  320MOL0     H42206  -2.212   9.315   2.673  0.7210 -0.4207  0.0101
  320MOL0     H42207  -2.285   9.413   2.791 -0.0705 -0.7141 -0.9532
  320MOL0     H42208  -2.380   9.132   2.740 -2.2465 -1.0188 -0.0708
  320MOL0     H42209  -2.467   9.279   2.683 -0.7099 -0.0768  0.7214
  320MOL0     H42210  -2.500   9.369   2.895 -0.4350 -0.7602  3.1170
  320MOL0     H42211  -2.422   9.238   2.977  0.1800  2.7890  0.7190
  320MOL0     H42212  -2.671   9.225   2.781 -1.5165 -0.7180  1.2143
  320MOL0     H42213  -2.605   9.087   2.875  2.6900 -0.2144  1.5681
  320MOL0     H42214  -2.710   9.346   2.992  0.2840 -0.3179 -0.2625
  320MOL0     H42215  -2.644   9.196   3.083 -0.3703 -0.8986 -0.0074
  320MOL0     H42216  -2.896   9.243   2.920 -1.4244  1.6410  2.3179
  320MOL0     H42217  -2.871   9.214   3.093 -2.1538 -2.4071 -0.3225
  320MOL0     H42218  -2.818   9.012   2.858  1.3142 -2.8968  0.4746
  320MOL0     H42219  -2.778   8.979   3.026  1.5740  0.8511 -0.6359
  320MOL0     H42220  -3.024   9.014   3.084 -0.8538 -0.2759 -0.1551
  320MOL0     H42221  -3.000   8.872   2.978 -2.5328 -0.0002 -0.8803
  320MOL0     H42222  -2.041   9.041   2.896  0.0220  0.7908  0.9013
  320MOL0     H42223  -1.781   9.047   2.903 -2.5954 -0.7390  0.6932
  320MOL0     H42224  -1.411   9.115   2.524  1.7393  0.2512 -0.7348
  320MOL0     H42225  -1.163   9.109   2.519  3.0457  3.1111  0.5177
  320MOL0     H42226   0.215   8.996   3.531  1.2050  1.9086  2.8564
  320MOL0     H42227   0.342   8.995   3.737  1.0020  0.4009  0.7748
  320MOL0     H42228   0.762   8.913   3.923 -1.3229  0.4073  1.1602
  320MOL0     H42229   0.935   8.935   4.102 -1.3913 -1.0007 -1.7574
  320MOL0     H42230   1.160   9.243   4.185 -1.8469 -0.4824 -1.6048
  320MOL0     H42231   1.126   9.089   4.106  1.3129  0.6860 -1.1124
  320MOL0     H42232   1.145   9.173   4.395 -1.0171 -1.4180 -0.9412
  320MOL0     H42233   1.153   9.000   4.345 -1.2967  0.3890  0.4796
  320MOL0     H42234   1.386   9.200   4.299  0.7196  0.2003  1.3263
  320MOL0     H42235   1.364   9.046   4.223 -1.0658  0.1688 -0.1094
  320MOL0     H42236   1.371   9.096   4.529  0.4732  1.5741  0.0575
  320MOL0     H42237   1.362   8.938   4.457  3.1252 -1.8960 -0.7175
  320MOL0     H42238   1.779   9.024   4.407  0.6388 -3.7871  0.7079
  320MOL0     H42239   0.813   9.328   4.182  0.2542  1.8661 -1.8452
  320MOL0     H42240   0.634   9.324   4.018  0.2089  0.1608  1.1211
  321MOL0     O42241  10.412   7.362   9.343  0.2066  0.3775 -0.1584
  321MOL0     C42242  10.456   7.475   9.338 -0.7193  0.3908 -1.1360
  321MOL0     O42243  10.398   7.587   9.300  0.8276 -0.0534  0.7477
  321MOL0     C42244  10.280   7.567   9.236  0.0256 -0.2631  0.5343
  321MOL0     C42245  10.164   7.646   9.261 -0.0761 -0.5265 -0.6444
  321MOL0     C42246  10.050   7.643   9.188  0.3988 -0.3230  0.2208
  321MOL0     C42247  10.046   7.567   9.069  0.3781  0.0341 -0.5934
  321MOL0     O42248   9.941   7.556   8.982  0.2252  0.5957  0.4977
  321MOL0     C42249   9.810   7.591   9.029 -1.2964  0.8495 -0.9683
  321MOL0     C42250   9.700   7.501   8.984  0.4959  0.3784 -0.1913
  321MOL0     C42251   9.692   7.492   8.829 -0.4721  0.1256 -0.8636
  321MOL0     C42252   9.599   7.387   8.754 -0.2717 -0.6125 -0.1752
  321MOL0     C42253   9.456   7.404   8.791  0.1280  0.5969 -0.6356
  321MOL0     C42254   9.394   7.553   8.775  0.2922 -0.0894 -0.5818
  321MOL0     C42255   9.239   7.562   8.817  0.2986  0.0945 -0.4423
  321MOL0     C42256   9.147   7.484   8.721 -0.3652  0.1419  0.1078
  321MOL0     N42257   9.010   7.522   8.743 -0.2518  0.5557  0.0315
  321MOL0     C42258   8.937   7.564   8.637  0.8790  0.2115  0.6148
  321MOL0     C42259   8.817   7.600   8.684 -0.2665 -0.8317 -0.3125
  321MOL0     C42260   8.699   7.644   8.603 -0.2694 -0.1698  0.4237
  321MOL0     C42261   8.573   7.554   8.640 -0.2544 -1.0665  0.0566
  321MOL0     C42262   8.462   7.565   8.540 -0.1568 -0.6178  0.0963
  321MOL0     C42263   8.335   7.498   8.596 -0.1104  1.1642  0.3903
  321MOL0     O42264   8.264   7.575   8.701  0.6773 -0.6446 -1.0458
  321MOL0     C42265   8.135   7.540   8.742 -0.1100  0.7127  0.0233
  321MOL0     C42266   8.078   7.426   8.691  1.1133  0.3360 -0.0834
  321MOL0     C42267   7.947   7.382   8.719  0.1339  0.3064  0.3883
  321MOL0     C42268   7.867   7.463   8.798  0.6036 -0.2474  0.0341
  321MOL0     C42269   7.724   7.425   8.825 -0.5924 -0.4129 -0.0240
  321MOL0     O42270   7.685   7.299   8.782 -0.1678 -0.5660  0.2774
  321MOL0     C42271   7.555   7.264   8.790  0.0863 -0.0905 -0.0601
  321MOL0     C42272   7.438   7.338   8.757 -0.8211 -0.8640 -0.2092
  321MOL0     C42273   7.310   7.285   8.765  0.4844  0.1293 -0.2252
  321MOL0     C42274   7.293   7.147   8.794 -0.6300  0.0750 -0.5968
  321MOL0     O42275   7.170   7.097   8.782 -0.0737 -0.1236  0.2112
  321MOL0     C42276   7.153   6.960   8.820 -0.1891 -0.6019 -0.5250
  321MOL0     C42277   7.002   6.934   8.826 -0.2617  0.4684  0.0874
  321MOL0     C42278   6.939   6.994   8.954 -0.2443  0.1431 -0.4039
  321MOL0     C42279   6.788   6.989   8.941 -0.0486 -0.8958 -0.1999
  321MOL0     C42280   6.722   7.030   9.077  0.0432 -0.7515 -0.0908
  321MOL0     C42281   6.562   7.026   9.066  0.0173 -0.5305 -0.0867
  321MOL0     C42282   6.513   6.882   9.051 -0.2022 -0.5022  0.0715
  321MOL0     C42283   6.361   6.890   9.050 -0.4733 -0.7779 -0.2176
  321MOL0    Cl42284   6.299   6.936   8.891 -0.1607 -0.2415  0.3028
  321MOL0     C42285   7.410   7.069   8.828 -1.3894  0.0261 -0.4752
  321MOL0     C42286   7.534   7.127   8.824 -0.2229  0.4873  0.0422
  321MOL0     O42287   7.651   7.509   8.872  0.7747  0.0505  0.9920
  321MOL0     C42288   7.919   7.585   8.852  0.3873  0.5671  0.6032
  321MOL0     C42289   8.057   7.616   8.829  0.4678  0.4026 -0.5664
  321MOL0     N42290   8.820   7.589   8.821 -0.0159  0.3029  0.0857
  321MOL0     N42291   8.934   7.527   8.852  0.2335 -0.3049 -0.2571
  321MOL0     C42292  10.161   7.490   9.038  0.0787 -0.3720 -0.2783
  321MOL0     C42293  10.269   7.482   9.126  0.0287 -0.1243 -0.4081
  321MOL0     C42294  10.606   7.492   9.378 -0.4268  0.0290 -0.7084
  321MOL0     C42295  10.671   7.617   9.382  0.2757  0.2797  0.2807
  321MOL0     C42296  10.802   7.623   9.420 -0.8567  0.5610 -0.7209
  321MOL0     C42297  10.875   7.502   9.442 -0.2618 -0.2211 -0.4642
  321MOL0     O42298  11.008   7.489   9.466  0.1847 -0.0272 -0.4790
  321MOL0     C42299  11.096   7.597   9.444 -0.0918  0.6447  0.5551
  321MOL0     C42300  11.249   7.555   9.452 -0.5373  0.1795 -0.9071
  321MOL0     C42301  11.295   7.480   9.576  0.6419 -0.3538 -0.4607
  321MOL0     C42302  11.291   7.573   9.694 -0.7527 -0.5340 -0.4782
  321MOL0     C42303  11.364   7.521   9.809 -0.2997 -0.3845  0.4701
  321MOL0     C42304  11.422   7.483   9.904 -0.5977  1.0981  0.2791
  321MOL0     C42305  10.818   7.383   9.441 -0.1489 -0.2404  0.9130
  321MOL0     C42306  10.682   7.378   9.410  0.4075  0.1851 -0.1467
  321MOL0     H42307  10.167   7.717   9.342 -4.7244  0.3116 -0.9244
  321MOL0     H42308   9.967   7.707   9.217  1.0438  0.4298  0.4382
  321MOL0     H42309   9.787   7.695   9.007 -2.0206  1.1107  0.8994
  321MOL0     H42310   9.816   7.579   9.138  0.5911  2.0109 -0.8961
  321MOL0     H42311   9.603   7.535   9.022 -0.1480 -0.9707 -0.5725
  321MOL0     H42312   9.711   7.395   9.008 -2.3092 -0.3148 -1.5598
  321MOL0     H42313   9.792   7.471   8.789 -0.8853  1.6344 -2.8753
  321MOL0     H42314   9.666   7.593   8.798 -1.5833  0.4527  0.9875
  321MOL0     H42315   9.614   7.406   8.647 -0.6187  0.1040 -0.1028
  321MOL0     H42316   9.633   7.284   8.766 -2.4890 -1.2250  1.5174
  321MOL0     H42317   9.446   7.362   8.891  0.8159  1.0676 -0.3613
  321MOL0     H42318   9.401   7.345   8.717  0.0068  2.3732 -2.0359
  321MOL0     H42319   9.416   7.589   8.674  1.8553  1.7199  0.3474
  321MOL0     H42320   9.463   7.617   8.830  2.1494  0.4591 -3.3273
  321MOL0     H42321   9.226   7.525   8.919 -3.2447  1.1872 -0.3789
  321MOL0     H42322   9.203   7.666   8.815  0.4537  0.1459 -0.6631
  321MOL0     H42323   9.158   7.376   8.734  4.2963  0.4489  0.3206
  321MOL0     H42324   9.179   7.510   8.619  1.3255  2.5078  1.1397
  321MOL0     H42325   8.965   7.546   8.533 -0.2046 -3.1044  0.8045
  321MOL0     H42326   8.719   7.637   8.495  0.1899  1.2428  0.4099
  321MOL0     H42327   8.673   7.749   8.620 -0.5676 -0.0610 -0.6130
  321MOL0     H42328   8.536   7.590   8.737  0.6198 -1.9666  0.7434
  321MOL0     H42329   8.602   7.449   8.649 -1.4245 -1.3652  0.4914
  321MOL0     H42330   8.429   7.666   8.514  0.0789 -0.6134 -0.1816
  321MOL0     H42331   8.491   7.516   8.447  1.5317  0.2195  0.1285
  321MOL0     H42332   8.360   7.396   8.626 -0.0587  0.8808 -0.5984
  321MOL0     H42333   8.268   7.494   8.509  2.9262  1.2395 -2.1229
  321MOL0     H42334   8.135   7.369   8.619 -0.3650  0.9790 -1.8316
  321MOL0     H42335   7.907   7.293   8.671  1.0715  0.7447 -1.3078
  321MOL0     H42336   7.457   7.437   8.716 -0.6877 -1.2440 -1.0692
  321MOL0     H42337   7.224   7.347   8.745  0.5187  0.0746 -0.5484
  321MOL0     H42338   7.196   6.946   8.919 -0.5025 -3.0915 -0.6738
  321MOL0     H42339   7.198   6.889   8.750 -0.2368 -0.2539 -0.9152
  321MOL0     H42340   6.975   6.828   8.828  0.4248  0.2960  0.8655
  321MOL0     H42341   6.960   6.981   8.737 -0.1969 -0.9832 -0.7497
  321MOL0     H42342   6.981   7.094   8.965  1.5034 -0.5160 -0.6882
  321MOL0     H42343   6.972   6.944   9.045 -0.7935 -0.9181 -0.7747
  321MOL0     H42344   6.763   7.064   8.866  0.6889 -0.2344  0.2044
  321MOL0     H42345   6.752   6.889   8.913  3.0694 -1.6271 -2.0174
  321MOL0     H42346   6.742   7.129   9.118 -1.6593 -0.9398  1.3016
  321MOL0     H42347   6.753   6.964   9.158 -1.6202  4.3325  5.3167
  321MOL0     H42348   6.525   7.090   8.985  1.2903  2.4491  1.5420
  321MOL0     H42349   6.528   7.076   9.156  2.9432  1.6132 -0.0080
  321MOL0     H42350   6.542   6.828   8.961 -2.2724  1.2105 -1.7590
  321MOL0     H42351   6.551   6.819   9.132  3.1808  2.2674  0.8930
  321MOL0     H42352   6.315   6.947   9.131 -1.2591 -4.5413  2.2442
  321MOL0     H42353   6.338   6.786   9.074  0.0734 -0.9558 -0.4695
  321MOL0     H42354   7.401   6.965   8.856 -1.8104  0.5598  1.5572
  321MOL0     H42355   7.624   7.071   8.846  0.4743 -0.0404 -3.4803
  321MOL0     H42356   7.862   7.660   8.907  2.4015  3.3772 -0.8620
  321MOL0     H42357   8.105   7.707   8.863 -0.0482 -0.4168  2.7166
  321MOL0     H42358  10.159   7.419   8.956  1.8864 -0.8613  0.0670
  321MOL0     H42359  10.339   7.407   9.092 -0.3279  0.1684 -1.8420
  321MOL0     H42360  10.618   7.711   9.369  0.4859  0.2545 -0.8424
  321MOL0     H42361  10.852   7.719   9.423 -0.3425  0.2949  1.4554
  321MOL0     H42362  11.075   7.665   9.527 -2.1851 -1.7735  2.1648
  321MOL0     H42363  11.079   7.645   9.347  1.2642 -4.0170 -2.2958
  321MOL0     H42364  11.264   7.498   9.360  2.7648 -2.2818  0.9668
  321MOL0     H42365  11.310   7.645   9.447  0.4535 -0.5081 -1.5933
  321MOL0     H42366  11.403   7.465   9.569  0.8140  1.2793 -2.2346
  321MOL0     H42367  11.231   7.394   9.595 -0.8316  0.9621  0.8978
  321MOL0     H42368  11.330   7.672   9.672 -4.4439  0.6947 -2.2106
  321MOL0     H42369  11.188   7.578   9.730 -0.5106 -2.3004  0.6059
  321MOL0     H42370  11.477   7.447   9.988 -0.4803  2.4084  0.7799
  321MOL0     H42371  10.871   7.292   9.466 -4.0121 -2.9358  0.3588
  321MOL0     H42372  10.641   7.277   9.414  1.2200 -0.1199  0.9073
  322MOL0     O42373   9.925   5.103   5.536 -0.2064  0.3075  0.6028
  322MOL0     C42374   9.970   5.050   5.438  0.1384  0.1035  0.1980
  322MOL0     O42375   9.895   5.047   5.317 -0.3534 -0.1107 -0.1299
  322MOL0     C42376   9.770   5.098   5.323  0.2103 -0.1617 -0.0755
  322MOL0     C42377   9.747   5.235   5.280 -0.3260 -0.0790 -0.0878
  322MOL0     C42378   9.619   5.290   5.275 -0.6667 -0.1949 -0.6719
  322MOL0     C42379   9.510   5.207   5.312  0.4181 -0.6263  0.7084
  322MOL0     O42380   9.371   5.229   5.289  0.6208  0.2580 -0.2318
  322MOL0     C42381   9.343   5.352   5.215 -0.6651  0.3595 -0.8250
  322MOL0     C42382   9.191   5.358   5.205  0.2003 -1.0641 -0.1729
  322MOL0     C42383   9.127   5.236   5.144 -0.3068 -0.5280 -0.3007
  322MOL0     C42384   8.979   5.244   5.176  0.1349 -0.0092  0.7698
  322MOL0     C42385   8.904   5.130   5.099  0.3177 -0.2824  0.1319
  322MOL0     C42386   8.756   5.152   5.108 -0.2346 -0.9771 -0.4946
  322MOL0     C42387   8.674   5.045   5.036 -0.4739 -0.0680  0.4382
  322MOL0     C42388   8.536   5.091   5.048  0.0039  0.5301  0.3107
  322MOL0     N42389   8.448   5.004   4.973  0.1108  0.2733 -0.9448
  322MOL0     C42390   8.361   4.916   5.024  0.3072  0.2008  0.4014
  322MOL0     C42391   8.281   4.876   4.922 -0.4916  0.8561  0.0832
  322MOL0     C42392   8.177   4.761   4.914  0.0252 -0.3258  0.2155
  322MOL0     C42393   8.033   4.814   4.931  0.1628 -0.0802  0.2548
  322MOL0     C42394   7.958   4.748   5.044 -0.1744 -0.6121  0.7766
  322MOL0     C42395   7.824   4.791   5.065  0.1415  0.4292 -0.5913
  322MOL0     O42396   7.740   4.776   4.951 -0.5283 -0.1231  0.2998
  322MOL0     C42397   7.615   4.816   4.959  0.2620  0.0344  0.6309
  322MOL0     C42398   7.542   4.809   5.074  0.9760  0.5855 -0.0968
  322MOL0     C42399   7.416   4.858   5.083  0.4184 -1.0769  0.5677
  322MOL0     C42400   7.351   4.909   4.964  0.7279  0.8647  0.1918
  322MOL0     C42401   7.210   4.959   4.978  0.0085  0.0837  1.6072
  322MOL0     O42402   7.120   4.904   5.064  0.2137 -0.6298  0.1808
  322MOL0     C42403   6.995   4.951   5.053  0.0827  0.2012 -0.6649
  322MOL0     C42404   6.895   4.882   4.981  0.0944 -1.1036 -0.7659
  322MOL0     C42405   6.767   4.945   4.979  0.3255 -0.0498 -0.4411
  322MOL0     C42406   6.746   5.074   5.022  0.4440  0.2678  0.3206
  322MOL0     O42407   6.621   5.132   4.988  0.3461 -0.1177  0.3022
  322MOL0     C42408   6.561   5.231   5.077  0.8254 -0.2874  0.1368
  322MOL0     C42409   6.430   5.281   5.010 -1.0055 -0.1620 -0.5727
  322MOL0     C42410   6.317   5.186   5.031 -0.4937  0.3976 -0.1323
  322MOL0     C42411   6.222   5.236   5.137  0.4619  0.0410  0.0605
  322MOL0     C42412   6.083   5.239   5.076  1.1175  0.5046  0.8646
  322MOL0     C42413   5.984   5.310   5.173  0.0642  0.3951  0.4993
  322MOL0     C42414   5.845   5.314   5.123 -0.5942 -0.0871  0.3180
  322MOL0     C42415   5.753   5.365   5.239 -0.1717  0.5389 -0.0590
  322MOL0    Cl42416   5.742   5.227   5.360 -0.5608 -0.3314  0.3755
  322MOL0     C42417   6.846   5.135   5.101  0.5899 -1.3432  0.9798
  322MOL0     C42418   6.976   5.075   5.113  0.8756  0.0103 -0.6873
  322MOL0     O42419   7.195   5.056   4.902  0.0984 -0.3685  0.7019
  322MOL0     C42420   7.423   4.919   4.848 -0.5742 -0.0178  0.0111
  322MOL0     C42421   7.559   4.865   4.842 -0.3035 -0.2716 -0.0396
  322MOL0     N42422   8.326   4.942   4.810 -0.6396 -0.2350 -0.0731
  322MOL0     N42423   8.422   5.026   4.844  0.6166 -0.2791  0.0966
  322MOL0     C42424   9.538   5.070   5.352  0.6471  0.0850 -0.2923
  322MOL0     C42425   9.668   5.019   5.360  1.2543  0.5513  0.4323
  322MOL0     C42426  10.106   4.988   5.436 -0.4279  0.1291 -0.2704
  322MOL0     C42427  10.183   4.970   5.552  0.5277 -0.7720  0.1583
  322MOL0     C42428  10.318   4.939   5.544 -0.1263  0.6338 -0.3882
  322MOL0     C42429  10.365   4.887   5.428  0.5793 -0.1792  0.4106
  322MOL0     O42430  10.490   4.848   5.442  0.2399  0.8102  0.1499
  322MOL0     C42431  10.572   4.802   5.332 -0.0858  0.1948 -0.0236
  322MOL0     C42432  10.665   4.917   5.286  0.5189  0.3330 -0.3804
  322MOL0     C42433  10.766   4.861   5.184  0.3300 -0.6613  0.2450
  322MOL0     C42434  10.886   4.795   5.254  0.5414  0.4419  0.1500
  322MOL0     C42435  10.967   4.718   5.154 -0.4929  0.0941 -0.4128
  322MOL0     C42436  11.024   4.649   5.066  0.6065  0.4968  0.2729
  322MOL0     C42437  10.287   4.896   5.311 -0.5618 -0.0868  0.1144
  322MOL0     C42438  10.167   4.950   5.311 -0.1864  0.2631 -1.1255
  322MOL0     H42439   9.839   5.289   5.260  0.0249  0.7683  3.2660
  322MOL0     H42440   9.603   5.395   5.253  0.0037  0.1667  0.4535
  322MOL0     H42441   9.389   5.349   5.116  1.3744 -0.7655  0.0923
  322MOL0     H42442   9.377   5.442   5.268 -1.2066 -0.2603  0.6338
  322MOL0     H42443   9.161   5.446   5.148 -0.4718 -0.5082  1.0145
  322MOL0     H42444   9.149   5.372   5.305 -1.2620 -2.0636 -0.6196
  322MOL0     H42445   9.163   5.142   5.187 -3.5284 -1.9725 -0.4029
  322MOL0     H42446   9.160   5.242   5.041  1.5445 -1.0788  0.2341
  322MOL0     H42447   8.967   5.240   5.284 -1.3524 -1.6694  0.5733
  322MOL0     H42448   8.937   5.340   5.144 -0.1314 -0.5299 -0.5044
  322MOL0     H42449   8.939   5.032   5.130  0.4674  0.3132  1.9436
  322MOL0     H42450   8.935   5.138   4.994 -0.5120  0.2033 -0.0864
  322MOL0     H42451   8.742   5.248   5.057 -0.9710  0.1825  1.7511
  322MOL0     H42452   8.718   5.159   5.210  0.7001 -3.2606  0.0703
  322MOL0     H42453   8.704   5.040   4.931 -1.5987 -1.5159  0.1469
  322MOL0     H42454   8.699   4.947   5.079  3.7216  1.1072  1.1097
  322MOL0     H42455   8.529   5.184   4.991 -2.9192 -0.3757 -0.9466
  322MOL0     H42456   8.508   5.111   5.152  0.0857  1.4976  0.1552
  322MOL0     H42457   8.363   4.882   5.127  0.2985  2.0880  1.0476
  322MOL0     H42458   8.202   4.682   4.987 -1.6338  1.1016  2.4716
  322MOL0     H42459   8.189   4.706   4.820  1.8311 -0.4826  0.4969
  322MOL0     H42460   7.982   4.804   4.835 -1.0081  1.7746  0.6364
  322MOL0     H42461   8.024   4.923   4.939 -3.5412 -0.2880  0.7319
  322MOL0     H42462   7.960   4.644   5.010  1.8792 -0.0940 -0.9460
  322MOL0     H42463   8.005   4.760   5.142 -1.0779  1.4094  1.0022
  322MOL0     H42464   7.821   4.894   5.102  0.2798 -0.5059  2.2560
  322MOL0     H42465   7.787   4.737   5.152 -0.6750  2.6241  0.4850
  322MOL0     H42466   7.583   4.768   5.166  1.8861  0.2100 -0.6510
  322MOL0     H42467   7.367   4.851   5.179  1.0019  0.0231  0.9643
  322MOL0     H42468   6.917   4.790   4.927  2.6550 -0.7972 -0.3873
  322MOL0     H42469   6.704   4.905   4.900 -2.0755 -0.8228  1.7054
  322MOL0     H42470   6.631   5.314   5.089  0.2672  0.1668  0.2833
  322MOL0     H42471   6.540   5.198   5.179 -1.2088 -0.7359 -0.3899
  322MOL0     H42472   6.451   5.290   4.903  0.8973  0.9843 -0.1381
  322MOL0     H42473   6.412   5.380   5.052 -3.2513  0.9783 -3.7619
  322MOL0     H42474   6.353   5.085   5.056 -0.8362 -0.1214 -1.6490
  322MOL0     H42475   6.267   5.181   4.934 -2.6038 -1.1044  0.9454
  322MOL0     H42476   6.219   5.169   5.223 -0.0468 -1.0583 -0.7943
  322MOL0     H42477   6.259   5.330   5.179 -0.6988 -0.0851  1.4297
  322MOL0     H42478   6.045   5.140   5.049 -0.6025  1.3375  0.0268
  322MOL0     H42479   6.084   5.288   4.978 -1.0015 -2.9215 -1.0744
  322MOL0     H42480   6.016   5.410   5.206  0.4465 -0.3680  2.5880
  322MOL0     H42481   5.987   5.245   5.261 -1.0553 -0.9059 -0.3925
  322MOL0     H42482   5.842   5.365   5.027 -2.4184 -2.2909 -0.8871
  322MOL0     H42483   5.803   5.216   5.101 -1.5568  0.1888  0.8818
  322MOL0     H42484   5.651   5.386   5.207 -0.1163 -1.5812 -1.9465
  322MOL0     H42485   5.777   5.460   5.287  1.8000  1.5314 -2.7609
  322MOL0     H42486   6.832   5.236   5.140  0.8844 -0.3446 -1.3748
  322MOL0     H42487   7.058   5.124   5.162 -0.0835  0.3801  0.5969
  322MOL0     H42488   7.388   4.966   4.756  1.2038  1.0400 -0.1568
  322MOL0     H42489   7.613   4.837   4.752  0.9525 -0.2361  0.6844
  322MOL0     H42490   9.457   4.999   5.362  0.9372  0.0348  2.5770
  322MOL0     H42491   9.691   4.915   5.380  0.6260 -0.1944 -2.2971
  322MOL0     H42492  10.128   4.992   5.643 -3.9763  1.2724 -2.7201
  322MOL0     H42493  10.378   4.944   5.635  0.8505 -1.4863 -0.8523
  322MOL0     H42494  10.513   4.782   5.242  0.5616  0.5341 -0.5271
  322MOL0     H42495  10.621   4.710   5.367 -2.0963 -0.1009  2.3019
  322MOL0     H42496  10.598   4.989   5.237  0.0683  1.6063  1.9723
  322MOL0     H42497  10.713   4.967   5.370  0.3854  2.4649 -1.5068
  322MOL0     H42498  10.804   4.945   5.126  0.4994  1.3181  2.9978
  322MOL0     H42499  10.707   4.797   5.118 -1.1714  1.7902 -0.9042
  322MOL0     H42500  10.947   4.872   5.303  1.0098 -1.3585  2.6286
  322MOL0     H42501  10.846   4.730   5.333  1.4231 -0.4588 -0.1345
  322MOL0     H42502  11.067   4.586   4.991 -0.2528 -1.3937  1.3073
  322MOL0     H42503  10.325   4.853   5.218  1.2707 -3.6548  2.3057
  322MOL0     H42504  10.099   4.957   5.227 -2.2579  1.6058  0.5559
  323MOL0     O42505   5.010   8.346   4.900 -0.0160  0.8790  0.4229
  323MOL0     C42506   5.086   8.321   4.804  0.3939 -0.0892  0.2322
  323MOL0     O42507   5.057   8.249   4.689 -0.4868  0.1165  0.4105
  323MOL0     C42508   4.928   8.200   4.679  0.0548  0.0579  0.4560
  323MOL0     C42509   4.913   8.080   4.616  0.0390  0.8125 -0.2423
  323MOL0     C42510   4.787   8.021   4.588 -0.7214 -0.0850 -0.6884
  323MOL0     C42511   4.671   8.084   4.624 -0.0061 -0.0499 -0.5694
  323MOL0     O42512   4.544   8.048   4.588  0.3905 -0.8812  0.1514
  323MOL0     C42513   4.436   8.147   4.582 -0.2618  0.7177 -0.0250
  323MOL0     C42514   4.311   8.104   4.504 -0.3117  0.4898  0.5120
  323MOL0     C42515   4.206   8.048   4.594 -0.6187 -0.2499  0.1055
  323MOL0     C42516   4.063   8.035   4.532 -0.7557  0.6957 -0.9467
  323MOL0     C42517   3.981   7.939   4.608 -0.1082  0.3713 -1.0372
  323MOL0     C42518   3.937   7.976   4.753  0.7955 -0.2874  0.6209
  323MOL0     C42519   3.865   8.114   4.770 -0.2196 -0.1839  0.3516
  323MOL0     C42520   3.714   8.104   4.723 -0.0943  0.0212  0.5563
  323MOL0     N42521   3.650   8.234   4.740  0.4830  0.2522  0.1716
  323MOL0     C42522   3.696   8.358   4.789  0.1599  0.6024 -0.1630
  323MOL0     C42523   3.596   8.449   4.772 -1.1153  0.6523 -0.5886
  323MOL0     C42524   3.612   8.591   4.820 -0.8889  0.6154  0.4410
  323MOL0     C42525   3.498   8.636   4.904  0.7619 -0.3182 -1.1423
  323MOL0     C42526   3.474   8.778   4.917  0.4533 -0.2686  0.0158
  323MOL0     C42527   3.356   8.809   5.016 -0.2256  0.6627 -0.3235
  323MOL0     O42528   3.357   8.746   5.142 -0.0864  0.0034 -0.3539
  323MOL0     C42529   3.469   8.748   5.227  1.0037 -0.7037 -0.4948
  323MOL0     C42530   3.546   8.859   5.238 -0.1825 -0.5863 -0.4471
  323MOL0     C42531   3.658   8.857   5.318 -0.3588  0.0546 -0.0965
  323MOL0     C42532   3.694   8.739   5.395 -0.2171 -0.1512 -0.8184
  323MOL0     C42533   3.817   8.738   5.482  0.7598  0.8225  0.2238
  323MOL0     O42534   3.823   8.629   5.567 -0.4239  0.5023 -0.2385
  323MOL0     C42535   3.850   8.650   5.703  0.1085  0.8618 -0.3021
  323MOL0     C42536   3.850   8.535   5.785  0.9108  0.3366 -0.7970
  323MOL0     C42537   3.864   8.539   5.924  0.6866 -0.4274 -0.5715
  323MOL0     C42538   3.890   8.666   5.990  0.0592 -0.4244 -0.1850
  323MOL0     O42539   3.902   8.678   6.128  0.5478 -0.1943  0.0550
  323MOL0     C42540   3.779   8.718   6.197  0.0637 -0.0431  0.3817
  323MOL0     C42541   3.807   8.747   6.347  0.3531 -0.0829 -0.1984
  323MOL0     C42542   3.911   8.860   6.369 -0.0601  0.2708  0.0747
  323MOL0     C42543   3.940   8.881   6.516 -0.1329  0.1705  0.2480
  323MOL0     C42544   4.039   8.993   6.534 -0.3306 -0.3724  0.1063
  323MOL0     C42545   4.117   8.995   6.662  0.0593  0.0744 -0.2144
  323MOL0     C42546   4.238   9.098   6.644 -0.1244 -0.4248  0.5758
  323MOL0     C42547   4.333   9.078   6.757 -0.3749  0.2216  0.0840
  323MOL0    Cl42548   4.431   8.927   6.739 -0.4419 -0.4116 -0.0876
  323MOL0     C42549   3.877   8.779   5.906  0.1867 -0.5392 -0.0226
  323MOL0     C42550   3.862   8.773   5.773  0.3758  0.0591  0.0456
  323MOL0     O42551   3.882   8.835   5.494 -0.1329 -0.4649 -0.3755
  323MOL0     C42552   3.611   8.627   5.388 -0.5102 -0.4825 -0.2945
  323MOL0     C42553   3.496   8.631   5.308 -0.4530 -0.8510 -0.2398
  323MOL0     N42554   3.491   8.388   4.710 -0.3079  0.3333 -0.1903
  323MOL0     N42555   3.529   8.264   4.684 -0.0015 -0.8892  0.0488
  323MOL0     C42556   4.688   8.206   4.694  0.0256  0.0318 -0.1093
  323MOL0     C42557   4.810   8.262   4.715 -0.8273 -0.6619  0.3772
  323MOL0     C42558   5.216   8.382   4.816  0.4631  1.0967  0.3131
  323MOL0     C42559   5.256   8.454   4.931  0.4374 -0.4250  1.1493
  323MOL0     C42560   5.378   8.519   4.934 -0.3774 -0.1746  0.5922
  323MOL0     C42561   5.470   8.515   4.825 -0.1516  0.5643 -0.3199
  323MOL0     O42562   5.582   8.593   4.853  0.4113  0.4560 -0.6337
  323MOL0     C42563   5.654   8.642   4.738  0.2000  0.4701  0.1663
  323MOL0     C42564   5.734   8.761   4.777  0.3703 -0.2213  0.2302
  323MOL0     C42565   5.814   8.811   4.656  0.2646  0.0575 -0.1730
  323MOL0     C42566   5.862   8.955   4.675 -0.2602  0.1006 -0.0280
  323MOL0     C42567   5.964   8.986   4.571  0.0414 -0.5947 -0.0501
  323MOL0     C42568   6.045   9.005   4.480 -0.4685  0.0756  0.3846
  323MOL0     C42569   5.430   8.438   4.716 -0.1121 -0.4558  0.5621
  323MOL0     C42570   5.310   8.368   4.711  1.2316 -0.2296  0.4208
  323MOL0     H42571   5.001   8.032   4.573  0.5052  2.1970 -0.8696
  323MOL0     H42572   4.777   7.929   4.532 -0.7195 -0.1715 -0.5479
  323MOL0     H42573   4.486   8.239   4.550  0.8667  0.7757  1.7425
  323MOL0     H42574   4.405   8.168   4.685  0.2345 -1.9578  0.7326
  323MOL0     H42575   4.339   8.035   4.424 -1.3420  1.9680 -1.1909
  323MOL0     H42576   4.284   8.198   4.455  1.8515  0.8508 -0.0690
  323MOL0     H42577   4.203   8.107   4.686 -0.9292  0.0771 -0.1110
  323MOL0     H42578   4.241   7.946   4.612 -0.4342 -0.4663 -1.3207
  323MOL0     H42579   4.016   8.134   4.527  1.4416  1.7643 -1.5497
  323MOL0     H42580   4.067   7.998   4.429 -1.8669 -2.4177  0.0301
  323MOL0     H42581   4.027   7.840   4.598  2.2510  1.3857 -0.8938
  323MOL0     H42582   3.886   7.925   4.557 -1.5441  0.6302  1.4200
  323MOL0     H42583   4.032   7.981   4.807 -0.2036  1.9280  2.3747
  323MOL0     H42584   3.872   7.897   4.792 -0.8873 -0.6418 -2.5662
  323MOL0     H42585   3.879   8.142   4.875  1.9095  1.1423 -0.2266
  323MOL0     H42586   3.938   8.176   4.717 -0.3480 -0.7498 -0.4879
  323MOL0     H42587   3.671   8.023   4.783  2.2159 -0.8749  1.1031
  323MOL0     H42588   3.705   8.079   4.616 -1.1379  0.4445  0.5381
  323MOL0     H42589   3.796   8.379   4.823 -0.2803 -0.4747  2.0050
  323MOL0     H42590   3.606   8.653   4.731 -1.5232  1.5465  1.1146
  323MOL0     H42591   3.712   8.608   4.861  0.4983 -2.5490 -1.2211
  323MOL0     H42592   3.516   8.601   5.006 -0.0891  0.9080 -0.5468
  323MOL0     H42593   3.406   8.583   4.877  0.5627 -0.4033 -0.3319
  323MOL0     H42594   3.567   8.818   4.958 -0.5514  0.8729  1.2533
  323MOL0     H42595   3.449   8.828   4.822  0.5619  0.5594  0.4182
  323MOL0     H42596   3.266   8.787   4.959  0.0539 -0.0353 -0.5107
  323MOL0     H42597   3.354   8.915   5.043 -1.3211  0.4894  0.2961
  323MOL0     H42598   3.530   8.949   5.179  3.2284 -1.0702 -2.3760
  323MOL0     H42599   3.721   8.945   5.323 -0.6738  0.2412  0.6265
  323MOL0     H42600   3.846   8.440   5.734 -0.1297 -0.0371 -0.0566
  323MOL0     H42601   3.873   8.451   5.987 -1.5627  1.3757  2.5654
  323MOL0     H42602   3.701   8.642   6.189 -0.1772  0.3200 -0.9985
  323MOL0     H42603   3.743   8.813   6.156  0.7992  0.4967  0.9482
  323MOL0     H42604   3.833   8.651   6.394 -1.1988 -0.6780 -0.4897
  323MOL0     H42605   3.715   8.776   6.399  0.9647  1.5030  0.0378
  323MOL0     H42606   3.881   8.952   6.316  0.7462  0.5161  0.0338
  323MOL0     H42607   4.009   8.832   6.329 -0.5253  0.3801 -1.2034
  323MOL0     H42608   3.851   8.895   6.579  0.7559 -3.3600  2.6093
  323MOL0     H42609   3.983   8.788   6.554 -4.5325 -2.0071  0.6173
  323MOL0     H42610   3.989   9.087   6.509 -0.6382 -1.0199 -1.8876
  323MOL0     H42611   4.116   8.971   6.459  0.0162 -2.9206  1.0998
  323MOL0     H42612   4.150   8.896   6.695 -0.5164 -0.1266 -0.2258
  323MOL0     H42613   4.052   9.025   6.745 -0.2138 -0.9583 -0.0402
  323MOL0     H42614   4.286   9.087   6.547 -0.9463 -0.3710  0.1553
  323MOL0     H42615   4.197   9.199   6.639 -0.4207 -0.5646  0.1768
  323MOL0     H42616   4.283   9.088   6.854 -0.9184 -4.1994  0.4287
  323MOL0     H42617   4.395   9.168   6.751 -0.7127  0.4345 -0.2458
  323MOL0     H42618   3.881   8.877   5.954  1.0487 -0.6542  0.1662
  323MOL0     H42619   3.860   8.872   5.729  0.7213 -0.7583 -1.9592
  323MOL0     H42620   3.631   8.541   5.452 -1.2653 -0.0964  0.4894
  323MOL0     H42621   3.421   8.553   5.302 -0.7418 -0.5369 -0.9316
  323MOL0     H42622   4.599   8.254   4.734 -0.6126 -1.1570 -0.0477
  323MOL0     H42623   4.801   8.360   4.761 -2.2829  0.7312 -2.5754
  323MOL0     H42624   5.183   8.478   5.008  1.3556  1.6619  1.4310
  323MOL0     H42625   5.423   8.578   5.013 -0.5938  0.4563  0.2571
  323MOL0     H42626   5.578   8.662   4.662 -0.3373 -0.3599  0.4660
  323MOL0     H42627   5.721   8.568   4.693  1.0142  2.2213 -1.6866
  323MOL0     H42628   5.660   8.838   4.802 -0.6892 -0.9398 -0.5829
  323MOL0     H42629   5.801   8.745   4.862  0.1040  0.6202  0.6099
  323MOL0     H42630   5.749   8.805   4.568  0.5364 -6.9066 -0.4446
  323MOL0     H42631   5.891   8.739   4.630  0.1802  0.5746 -1.9486
  323MOL0     H42632   5.773   9.018   4.678 -1.4046 -1.4887  2.3628
  323MOL0     H42633   5.913   8.963   4.771  1.3546 -3.7659 -0.3673
  323MOL0     H42634   6.114   9.032   4.403 -0.2071 -0.5272  0.4000
  323MOL0     H42635   5.494   8.440   4.628 -0.6253 -0.3800  0.1876
  323MOL0     H42636   5.274   8.335   4.614 -0.6600  0.3852  0.8630
  324MOL0     O42637   9.841   3.784   4.738 -0.3055 -0.2902 -0.4147
  324MOL0     C42638   9.924   3.711   4.692 -0.5195  0.1621  0.4402
  324MOL0     O42639   9.897   3.586   4.656 -0.4222 -0.3649  0.5119
  324MOL0     C42640   9.774   3.536   4.670  0.3752  0.1337  0.6758
  324MOL0     C42641   9.672   3.561   4.581  0.3847  0.5656  0.4998
  324MOL0     C42642   9.539   3.514   4.609  0.1961  1.0939  0.8488
  324MOL0     C42643   9.520   3.429   4.715  0.0837 -0.4788 -0.2437
  324MOL0     O42644   9.402   3.360   4.728  0.6212  0.0719 -0.1531
  324MOL0     C42645   9.279   3.403   4.680  0.4892  0.3764 -0.5363
  324MOL0     C42646   9.158   3.311   4.732 -0.2367  0.4085 -0.6493
  324MOL0     C42647   9.028   3.354   4.669 -0.6587 -0.1800 -0.4703
  324MOL0     C42648   8.917   3.271   4.729 -0.8224 -0.0242  0.6779
  324MOL0     C42649   8.779   3.325   4.683 -0.4252  0.1153 -0.3378
  324MOL0     C42650   8.662   3.248   4.744 -1.2761 -0.3726  0.0681
  324MOL0     C42651   8.528   3.301   4.688  0.0330 -0.9985 -0.0843
  324MOL0     C42652   8.483   3.432   4.757 -0.7463 -0.1961  0.0018
  324MOL0     N42653   8.337   3.459   4.749  0.2816 -0.3415 -0.1968
  324MOL0     C42654   8.255   3.419   4.651  0.1088 -0.1933 -0.2933
  324MOL0     C42655   8.142   3.490   4.676 -0.5275  0.0386 -0.6499
  324MOL0     C42656   8.018   3.479   4.591 -0.7093 -0.2845 -0.5629
  324MOL0     C42657   7.913   3.578   4.644 -0.3182  0.5163 -0.5918
  324MOL0     C42658   7.774   3.553   4.580  0.0263  0.4283 -0.2899
  324MOL0     C42659   7.660   3.627   4.652 -0.7601  0.3052 -0.9868
  324MOL0     O42660   7.542   3.561   4.599 -0.8501 -0.2511 -0.2517
  324MOL0     C42661   7.421   3.587   4.655 -0.1940  0.1338 -0.1272
  324MOL0     C42662   7.311   3.553   4.575 -0.3205  0.1172  0.3000
  324MOL0     C42663   7.182   3.584   4.619  0.6600 -0.1969 -0.0229
  324MOL0     C42664   7.158   3.637   4.742 -0.4414 -0.4367 -1.4225
  324MOL0     C42665   7.020   3.644   4.796  0.6203 -0.8073 -0.2591
  324MOL0     O42666   6.996   3.732   4.904 -0.5536 -0.3697 -0.6455
  324MOL0     C42667   6.868   3.733   4.957  0.2606 -0.7622 -0.4207
  324MOL0     C42668   6.849   3.715   5.096 -0.0931  0.2384 -0.1373
  324MOL0     C42669   6.723   3.726   5.158  0.5683 -0.2195  0.1462
  324MOL0     C42670   6.610   3.759   5.082  0.4766 -0.1002 -0.6289
  324MOL0     O42671   6.488   3.789   5.136  0.1303  0.0937  0.2058
  324MOL0     C42672   6.462   3.775   5.283 -0.9356  0.4829 -0.1046
  324MOL0     C42673   6.434   3.635   5.334  1.1122 -0.1263  0.7056
  324MOL0     C42674   6.385   3.626   5.486 -0.2182 -0.0492  0.2498
  324MOL0     C42675   6.255   3.706   5.502 -0.2736 -0.3335 -0.3851
  324MOL0     C42676   6.150   3.638   5.589 -0.1378 -0.8327 -1.1199
  324MOL0     C42677   6.199   3.613   5.736  1.2802  0.1860  0.8064
  324MOL0     C42678   6.075   3.549   5.809 -0.3545  0.3710 -0.0578
  324MOL0     C42679   6.093   3.539   5.961 -0.8851 -0.3221 -0.1239
  324MOL0    Cl42680   6.224   3.437   6.034  0.3379 -0.2197 -0.4411
  324MOL0     C42681   6.623   3.772   4.949 -0.1756 -0.2857 -0.0986
  324MOL0     C42682   6.745   3.760   4.885 -0.6628  0.0521 -0.7431
  324MOL0     O42683   6.937   3.584   4.737  0.0579 -0.1139  0.4268
  324MOL0     C42684   7.264   3.677   4.820 -1.0476 -0.8332  0.2375
  324MOL0     C42685   7.397   3.637   4.785  0.1901 -0.3197 -0.2354
  324MOL0     N42686   8.155   3.577   4.787  0.0499  0.1446 -0.0189
  324MOL0     N42687   8.276   3.559   4.828 -0.7198  0.5406  0.2816
  324MOL0     C42688   9.622   3.403   4.801 -0.0796  0.2945  0.3384
  324MOL0     C42689   9.749   3.463   4.778  0.9247  0.4398 -0.2438
  324MOL0     C42690  10.056   3.767   4.683  0.3254  0.4469  0.2421
  324MOL0     C42691  10.149   3.685   4.627  0.4607  0.5233  0.1153
  324MOL0     C42692  10.282   3.729   4.609  0.1849 -0.3925 -0.7946
  324MOL0     C42693  10.324   3.857   4.661 -0.4021  0.0218  0.5649
  324MOL0     O42694  10.454   3.905   4.666 -0.1036 -0.2113  0.0109
  324MOL0     C42695  10.557   3.854   4.578  0.2821  0.1649 -0.6458
  324MOL0     C42696  10.677   3.940   4.599  1.0603  0.2429  0.3028
  324MOL0     C42697  10.802   3.871   4.542  0.3128  0.9303 -0.6155
  324MOL0     C42698  10.934   3.954   4.572  1.0334 -0.0663  0.7624
  324MOL0     C42699  11.020   3.916   4.677 -0.2094  0.5922  0.1158
  324MOL0     C42700  11.075   3.896   4.782  0.0792  0.9617  0.5026
  324MOL0     C42701  10.226   3.929   4.737  0.5054 -0.6366 -0.0578
  324MOL0     C42702  10.099   3.885   4.748 -0.5464  0.0827 -0.6200
  324MOL0     H42703   9.693   3.622   4.493  0.1321 -1.9636 -1.4519
  324MOL0     H42704   9.465   3.531   4.531  0.1233  2.6441  1.2277
  324MOL0     H42705   9.277   3.392   4.571 -0.0846 -1.5872 -0.3832
  324MOL0     H42706   9.262   3.505   4.716  1.2770  0.1520  0.5069
  324MOL0     H42707   9.139   3.332   4.837 -2.3370 -0.8339 -0.7225
  324MOL0     H42708   9.170   3.206   4.704 -0.3488  0.2084  0.0450
  324MOL0     H42709   9.029   3.324   4.564 -0.6703  0.3336 -0.6208
  324MOL0     H42710   9.019   3.461   4.689 -3.1816 -0.5937  0.9804
  324MOL0     H42711   8.935   3.166   4.705 -0.5295 -0.1343  1.3790
  324MOL0     H42712   8.924   3.271   4.838  0.5057  1.0825  0.6212
  324MOL0     H42713   8.769   3.320   4.574  1.5402  1.7373 -0.6332
  324MOL0     H42714   8.773   3.431   4.706 -0.4951  0.0142  0.1210
  324MOL0     H42715   8.664   3.251   4.853  1.3099  1.1143  0.0496
  324MOL0     H42716   8.681   3.143   4.717  3.8906  0.9592 -2.8854
  324MOL0     H42717   8.524   3.309   4.579 -0.4503  1.4845  0.0473
  324MOL0     H42718   8.459   3.226   4.728  0.9382 -1.5511  0.4668
  324MOL0     H42719   8.538   3.514   4.711  1.1650  0.1315  2.6927
  324MOL0     H42720   8.514   3.445   4.861  0.5134 -0.8464 -0.2771
  324MOL0     H42721   8.277   3.340   4.580 -0.9954 -0.9836  0.2086
  324MOL0     H42722   7.989   3.376   4.615 -0.6523  0.1962  1.7261
  324MOL0     H42723   8.049   3.504   4.489 -0.8553  2.8070  0.0644
  324MOL0     H42724   7.925   3.685   4.625 -1.3385  0.4673 -1.7120
  324MOL0     H42725   7.892   3.563   4.750  1.7312 -1.3298 -0.3796
  324MOL0     H42726   7.768   3.577   4.474  0.3404 -0.4841 -0.5234
  324MOL0     H42727   7.755   3.446   4.597  2.5556 -0.1115 -0.5214
  324MOL0     H42728   7.665   3.735   4.635  3.7661  1.0387  3.0133
  324MOL0     H42729   7.671   3.615   4.760 -1.1997  0.9530 -0.8644
  324MOL0     H42730   7.324   3.514   4.475 -2.7561  1.1369 -0.4778
  324MOL0     H42731   7.097   3.559   4.557  0.8342 -0.5005 -0.1406
  324MOL0     H42732   6.942   3.697   5.149  1.0825 -2.7413 -2.8925
  324MOL0     H42733   6.717   3.697   5.262  1.6666  1.3344  0.6812
  324MOL0     H42734   6.374   3.837   5.301 -0.9101 -0.1929  2.8500
  324MOL0     H42735   6.543   3.817   5.343 -1.2381  0.1092  0.5749
  324MOL0     H42736   6.529   3.584   5.313  0.6868 -0.0774 -1.5120
  324MOL0     H42737   6.357   3.593   5.270  1.8378  1.3317 -1.2204
  324MOL0     H42738   6.461   3.660   5.556 -0.1811 -2.7383  1.6262
  324MOL0     H42739   6.381   3.519   5.509  0.6967 -0.1216  0.1071
  324MOL0     H42740   6.273   3.805   5.547 -1.2013  0.0040 -0.7386
  324MOL0     H42741   6.209   3.727   5.405 -0.6957 -0.2869 -0.1775
  324MOL0     H42742   6.125   3.540   5.548 -0.2503 -1.8093  1.1074
  324MOL0     H42743   6.061   3.701   5.587 -0.6721 -1.5790 -1.2311
  324MOL0     H42744   6.229   3.701   5.793  0.1000  1.6664 -0.7366
  324MOL0     H42745   6.280   3.540   5.734 -0.4637 -1.9503  2.9416
  324MOL0     H42746   5.986   3.613   5.802 -0.8028 -0.2166  0.2132
  324MOL0     H42747   6.045   3.454   5.764 -2.8727  1.1216 -0.1521
  324MOL0     H42748   5.998   3.513   6.008 -0.3787 -0.0462  1.1039
  324MOL0     H42749   6.101   3.641   5.999 -1.6980 -0.3504  0.1285
  324MOL0     H42750   6.546   3.795   4.877  1.2536 -1.7389 -2.2382
  324MOL0     H42751   6.751   3.769   4.777  1.6844  3.8581 -0.4538
  324MOL0     H42752   7.258   3.719   4.920 -0.2049  2.1522 -0.8469
  324MOL0     H42753   7.486   3.664   4.841  0.4111  3.9600 -2.2075
  324MOL0     H42754   9.606   3.334   4.883 -3.3048  0.0106 -0.3915
  324MOL0     H42755   9.815   3.451   4.863 -1.0143  0.1147  1.2868
  324MOL0     H42756  10.129   3.590   4.579  0.1447 -0.8957  2.8639
  324MOL0     H42757  10.361   3.673   4.560  0.8561  1.6637 -2.1873
  324MOL0     H42758  10.514   3.846   4.478 -2.6830  1.5692  0.3992
  324MOL0     H42759  10.578   3.751   4.606 -2.1312 -0.4848 -0.9976
  324MOL0     H42760  10.658   4.039   4.558  1.8150  0.6845  1.0016
  324MOL0     H42761  10.694   3.971   4.702  0.8336  0.3862  0.2979
  324MOL0     H42762  10.793   3.870   4.433  0.0069  0.5865 -0.5866
  324MOL0     H42763  10.811   3.769   4.583 -0.4566  0.7394 -0.9111
  324MOL0     H42764  11.000   3.952   4.484  3.5353 -2.7446  2.5296
  324MOL0     H42765  10.911   4.059   4.592  1.6116  0.4892 -1.1933
  324MOL0     H42766  11.140   3.896   4.867 -0.5199  2.1074  0.9840
  324MOL0     H42767  10.258   4.022   4.783 -3.4536  2.1445 -2.3290
  324MOL0     H42768  10.035   3.949   4.809 -1.6222  1.5696 -3.1439
  325MOL0     O42769   8.540   8.560   4.821 -0.9273  0.1250  1.0440
  325MOL0     C42770   8.470   8.512   4.735 -0.0370  0.4440 -0.6598
  325MOL0     O42771   8.337   8.504   4.735  0.5010 -0.1666  0.2445
  325MOL0     C42772   8.275   8.539   4.853  0.4594 -0.7294 -0.5221
  325MOL0     C42773   8.278   8.452   4.964  0.3931  0.2324 -0.9557
  325MOL0     C42774   8.212   8.485   5.081  0.3064 -0.6377  0.6448
  325MOL0     C42775   8.135   8.604   5.089  0.1168 -0.2051 -0.7445
  325MOL0     O42776   8.060   8.637   5.203 -0.6542  0.5535 -0.0424
  325MOL0     C42777   8.077   8.550   5.318  0.3671 -0.5843  0.4010
  325MOL0     C42778   7.978   8.612   5.425  0.4253  0.0604  0.0126
  325MOL0     C42779   8.023   8.754   5.460  0.4730  0.0270 -0.4550
  325MOL0     C42780   7.921   8.846   5.532  0.0266 -0.1268 -1.1310
  325MOL0     C42781   7.907   8.806   5.673 -0.2194 -0.6794  0.5459
  325MOL0     C42782   7.828   8.909   5.753 -0.5187  0.3714  0.6003
  325MOL0     C42783   7.803   8.873   5.895  0.1206  0.1788 -0.2686
  325MOL0     C42784   7.729   8.985   5.966  0.7517 -0.1169 -0.0471
  325MOL0     N42785   7.716   8.933   6.102  0.0243 -0.6644  0.4446
  325MOL0     C42786   7.653   8.823   6.144 -0.3673 -1.0751 -0.4102
  325MOL0     C42787   7.652   8.820   6.280 -0.7691 -0.1936  1.1485
  325MOL0     C42788   7.595   8.713   6.364 -0.5893 -0.8902 -0.1413
  325MOL0     C42789   7.454   8.729   6.401  0.0370  0.8289 -0.6849
  325MOL0     C42790   7.419   8.831   6.522 -0.5967  0.3115 -0.1887
  325MOL0     C42791   7.276   8.837   6.556 -0.2715  0.3835 -1.1029
  325MOL0     O42792   7.258   8.907   6.681  0.1969  0.8304  0.2767
  325MOL0     C42793   7.238   9.047   6.687 -0.2594  0.1930 -0.6115
  325MOL0     C42794   7.280   9.136   6.589  0.1176 -0.6991 -0.1481
  325MOL0     C42795   7.254   9.276   6.603 -0.0837 -0.6783 -0.4480
  325MOL0     C42796   7.180   9.329   6.711 -0.4044  0.5931 -0.5256
  325MOL0     C42797   7.131   9.473   6.724 -0.5920  0.3863  0.2790
  325MOL0     O42798   7.078   9.514   6.843  0.0274 -0.0994 -0.5371
  325MOL0     C42799   6.977   9.612   6.851 -0.1570  1.5042 -0.7013
  325MOL0     C42800   6.894   9.592   6.966 -0.5441 -0.2626 -0.4847
  325MOL0     C42801   6.786   9.677   7.005 -0.3094 -0.8307  0.5059
  325MOL0     C42802   6.748   9.774   6.907 -0.5729 -0.2849 -0.4030
  325MOL0     O42803   6.640   9.851   6.940  0.0255 -0.5054  0.2792
  325MOL0     C42804   6.596   9.947   6.847 -0.1580 -0.3502  0.3980
  325MOL0     C42805   6.460  10.003   6.882  0.3149  0.1051  0.1402
  325MOL0     C42806   6.347   9.907   6.831 -0.3370 -0.6195 -0.2654
  325MOL0     C42807   6.209   9.957   6.867 -0.1945  0.2635 -0.3103
  325MOL0     C42808   6.081   9.874   6.853 -0.0779  0.2547 -0.8386
  325MOL0     C42809   6.040   9.853   6.710 -0.0049 -0.4730 -0.8554
  325MOL0     C42810   5.907   9.773   6.696  0.5785  0.1422  1.1468
  325MOL0     C42811   5.937   9.620   6.688 -0.0563  0.6636 -0.8079
  325MOL0    Cl42812   5.785   9.530   6.634  0.1811 -0.0800 -0.3275
  325MOL0     C42813   6.827   9.785   6.787  0.0375 -0.1104  0.7267
  325MOL0     C42814   6.941   9.709   6.759 -0.5865 -1.0747  0.3674
  325MOL0     O42815   7.135   9.544   6.623 -0.1555 -0.1264 -1.3527
  325MOL0     C42816   7.141   9.237   6.811  0.4579 -0.4058  0.2948
  325MOL0     C42817   7.163   9.101   6.791  0.1405  0.9216 -0.3572
  325MOL0     N42818   7.709   8.937   6.319 -0.2721 -0.1656  0.1438
  325MOL0     N42819   7.747   8.999   6.218 -1.1117 -0.5025  0.2723
  325MOL0     C42820   8.126   8.691   4.978  0.0083 -0.2208  0.1659
  325MOL0     C42821   8.202   8.663   4.871  0.4134  0.0809 -0.1040
  325MOL0     C42822   8.523   8.519   4.597  0.2363  0.5682 -0.7995
  325MOL0     C42823   8.449   8.485   4.485 -0.5728 -0.2111 -0.0821
  325MOL0     C42824   8.511   8.489   4.356 -0.2245 -0.2643 -0.2029
  325MOL0     C42825   8.648   8.505   4.348 -0.1203 -0.2446 -0.0843
  325MOL0     O42826   8.704   8.513   4.229 -0.2883 -0.0386 -0.8835
  325MOL0     C42827   8.742   8.645   4.194 -0.4423 -0.2264  0.1424
  325MOL0     C42828   8.784   8.658   4.041  0.2622 -0.3538  0.1287
  325MOL0     C42829   8.910   8.587   4.001  0.4959  0.2710 -0.2443
  325MOL0     C42830   8.951   8.600   3.858 -0.0575 -0.0015  0.0711
  325MOL0     C42831   9.083   8.545   3.838 -0.2725 -0.8627 -0.6060
  325MOL0     C42832   9.201   8.510   3.844 -0.3247 -0.4376 -0.5122
  325MOL0     C42833   8.720   8.533   4.463  0.2371  0.9316 -0.4121
  325MOL0     C42834   8.667   8.529   4.585 -0.0256 -0.8674 -0.2117
  325MOL0     H42835   8.335   8.359   4.958  0.6163  0.4475 -3.5053
  325MOL0     H42836   8.227   8.433   5.176  4.1843 -0.4778  0.3041
  325MOL0     H42837   8.176   8.549   5.364  1.0350  0.5054 -0.9545
  325MOL0     H42838   8.036   8.450   5.298 -1.9573  0.5298 -0.7974
  325MOL0     H42839   7.969   8.547   5.512 -0.4692 -1.4391 -1.1376
  325MOL0     H42840   7.873   8.623   5.396 -0.1029 -0.1606  1.7617
  325MOL0     H42841   8.040   8.807   5.366  2.9038  0.8005  0.3144
  325MOL0     H42842   8.117   8.753   5.517 -0.1946  0.5234  0.6887
  325MOL0     H42843   7.948   8.952   5.528 -0.7426  0.3538  2.6919
  325MOL0     H42844   7.827   8.846   5.476  1.6926 -1.6175 -4.1892
  325MOL0     H42845   7.998   8.798   5.732 -1.9099 -1.3170  3.2404
  325MOL0     H42846   7.862   8.707   5.683  0.4697 -0.8683  1.9466
  325MOL0     H42847   7.735   8.919   5.697  0.6793  2.9996 -1.0889
  325MOL0     H42848   7.886   9.002   5.749 -1.1462  0.7521 -3.3717
  325MOL0     H42849   7.736   8.788   5.884 -0.0060  0.4235 -1.6027
  325MOL0     H42850   7.901   8.859   5.941 -0.6292  0.6353  1.5292
  325MOL0     H42851   7.628   8.997   5.925 -0.2591  0.1962  2.3628
  325MOL0     H42852   7.784   9.079   5.958  0.4977 -0.0215 -0.6924
  325MOL0     H42853   7.615   8.740   6.086  1.3394 -2.3517  0.2000
  325MOL0     H42854   7.659   8.711   6.453  0.8599 -4.6058 -1.0794
  325MOL0     H42855   7.600   8.622   6.304  0.5154  0.0500 -1.5668
  325MOL0     H42856   7.421   8.630   6.435  1.8811  0.2821 -0.3838
  325MOL0     H42857   7.389   8.746   6.315 -1.5499 -0.0241  0.2986
  325MOL0     H42858   7.467   8.786   6.609 -1.5105  0.4568  0.3952
  325MOL0     H42859   7.458   8.933   6.511  0.6481 -0.2546 -1.3446
  325MOL0     H42860   7.224   8.740   6.559  0.4527  0.0043  2.0797
  325MOL0     H42861   7.227   8.885   6.470 -0.0340  0.1674 -1.3651
  325MOL0     H42862   7.343   9.103   6.508  1.2848  0.6256  0.1689
  325MOL0     H42863   7.285   9.356   6.537 -0.0743 -0.8362 -0.6353
  325MOL0     H42864   6.915   9.505   7.027 -1.8756  0.3600  0.9304
  325MOL0     H42865   6.715   9.658   7.085  0.9574  0.1601  1.9243
  325MOL0     H42866   6.588   9.897   6.750 -0.5642  1.1915 -0.3866
  325MOL0     H42867   6.675  10.021   6.835 -1.4221  0.5939 -3.5521
  325MOL0     H42868   6.447  10.107   6.849  2.2297 -0.0114 -1.1424
  325MOL0     H42869   6.461  10.014   6.991 -2.4641  0.7298  0.1924
  325MOL0     H42870   6.362   9.803   6.861  4.9706 -0.0331  0.0770
  325MOL0     H42871   6.358   9.897   6.722  2.6450  1.3047 -0.2570
  325MOL0     H42872   6.214   9.973   6.975 -1.9740 -1.1732  0.0417
  325MOL0     H42873   6.188  10.057   6.829  2.1843  0.9705  0.0913
  325MOL0     H42874   6.003   9.916   6.919  1.4214  1.0109  0.5363
  325MOL0     H42875   6.100   9.777   6.898  1.7629 -0.2274 -2.5272
  325MOL0     H42876   6.123   9.805   6.657 -0.4775 -2.7646  0.3887
  325MOL0     H42877   6.027   9.952   6.665  0.8853  1.3462  2.4817
  325MOL0     H42878   5.840   9.794   6.780 -0.2677  3.9508 -0.2853
  325MOL0     H42879   5.858   9.813   6.607  3.9086  1.1287 -0.3977
  325MOL0     H42880   5.967   9.589   6.788  0.8302  2.3051 -0.5279
  325MOL0     H42881   6.016   9.598   6.616  1.0900  2.3756 -0.1441
  325MOL0     H42882   6.794   9.857   6.713 -2.5474  0.3186  2.1618
  325MOL0     H42883   7.003   9.730   6.672  0.8470 -0.1248  1.5670
  325MOL0     H42884   7.075   9.273   6.889 -0.1887 -0.1373 -0.3601
  325MOL0     H42885   7.117   9.030   6.859 -0.3411  2.3407  0.8706
  325MOL0     H42886   8.058   8.775   4.974  1.2454  0.7874 -0.2877
  325MOL0     H42887   8.191   8.723   4.782  2.1814  1.7925  0.7530
  325MOL0     H42888   8.340   8.481   4.485 -0.6017 -3.7348  2.0880
  325MOL0     H42889   8.463   8.473   4.260  1.8425  2.1937 -1.7891
  325MOL0     H42890   8.830   8.683   4.248 -0.2227  2.2421 -1.7524
  325MOL0     H42891   8.659   8.708   4.229 -0.7927 -0.9039  0.5470
  325MOL0     H42892   8.710   8.596   3.989  0.6003 -0.6220 -0.0291
  325MOL0     H42893   8.790   8.760   4.002  1.0099 -1.4641 -2.8908
  325MOL0     H42894   8.889   8.483   4.024 -0.0921  0.2113 -1.0119
  325MOL0     H42895   8.981   8.630   4.073  1.4680  1.5100 -1.8888
  325MOL0     H42896   8.872   8.553   3.799  1.6717 -2.4042 -0.4798
  325MOL0     H42897   8.945   8.701   3.817 -1.1747 -0.8113 -1.9200
  325MOL0     H42898   9.303   8.483   3.861 -0.4253  0.1716  1.2529
  325MOL0     H42899   8.827   8.550   4.454  0.3630 -0.3795 -2.0201
  325MOL0     H42900   8.728   8.536   4.674 -0.0474 -2.2134 -0.0659
  326MOL0     O42901   6.873  10.035   0.982 -0.5245  0.0923 -0.2729
  326MOL0     C42902   6.930  10.101   1.071  0.3114  0.1028 -0.2824
  326MOL0     O42903   6.870  10.189   1.153  1.0528 -0.6211 -0.0001
  326MOL0     C42904   6.743  10.213   1.112  0.7261  1.2018 -0.0578
  326MOL0     C42905   6.711  10.338   1.052 -0.4902  0.9767  0.1918
  326MOL0     C42906   6.581  10.373   1.020  0.5898  0.0291 -0.0312
  326MOL0     C42907   6.470  10.280   1.049  0.5514  0.0524  0.4580
  326MOL0     O42908   6.335  10.310   1.033  0.0278  0.0692 -0.1025
  326MOL0     C42909   6.302  10.428   0.959 -1.1270  0.8108 -0.5933
  326MOL0     C42910   6.147  10.451   0.952 -0.1138 -0.7383 -0.3948
  326MOL0     C42911   6.063  10.331   0.889  0.6578  0.1362 -0.0352
  326MOL0     C42912   5.913  10.373   0.860  0.4458  0.3285  0.0975
  326MOL0     C42913   5.827  10.269   0.793 -0.7705  0.1597  0.0632
  326MOL0     C42914   5.694  10.327   0.751 -0.3561 -0.1445  0.6142
  326MOL0     C42915   5.605  10.217   0.681  0.0274 -0.1552 -0.1411
  326MOL0     C42916   5.463  10.278   0.649  0.7159 -0.1862  0.1468
  326MOL0     N42917   5.399  10.338   0.770 -0.2906  0.0722  0.7025
  326MOL0     C42918   5.366  10.269   0.886  0.7998 -1.0366 -0.5216
  326MOL0     C42919   5.303  10.363   0.967 -0.5232 -0.2203  0.1402
  326MOL0     C42920   5.239  10.348   1.109  0.9177  0.3786  0.5010
  326MOL0     C42921   5.104  10.416   1.134  0.0184 -0.4265  0.4487
  326MOL0     C42922   5.062  10.444   1.284  0.2617 -0.3910 -0.4222
  326MOL0     C42923   5.104  10.583   1.334  0.7010 -0.5831 -0.9617
  326MOL0     O42924   5.071  10.598   1.474 -0.4702 -0.6995  0.9185
  326MOL0     C42925   4.939  10.626   1.509 -1.2520 -0.1614 -0.4131
  326MOL0     C42926   4.846  10.687   1.416  0.1562 -0.6560 -0.4543
  326MOL0     C42927   4.724  10.742   1.463 -0.5627 -0.2512  0.8237
  326MOL0     C42928   4.685  10.727   1.599  0.2265 -0.6837 -1.0829
  326MOL0     C42929   4.549  10.759   1.654 -0.0954 -0.0918 -0.0828
  326MOL0     O42930   4.447  10.768   1.557 -0.3386  0.1140 -0.9091
  326MOL0     C42931   4.318  10.783   1.595 -0.3291  0.4690 -0.3782
  326MOL0     C42932   4.272  10.895   1.653  0.3347  0.1824 -0.0263
  326MOL0     C42933   4.133  10.908   1.694  0.3863  0.5307  0.0940
  326MOL0     C42934   4.048  10.803   1.671  0.2425  0.0358 -1.0618
  326MOL0     O42935   3.910  10.820   1.686  0.1734  0.6004 -0.1010
  326MOL0     C42936   3.863  10.895   1.794 -0.5667 -0.7605  0.5034
  326MOL0     C42937   3.717  10.859   1.837  0.6150 -1.2773 -0.3161
  326MOL0     C42938   3.613  10.879   1.722 -0.3014 -0.1659  0.3545
  326MOL0     C42939   3.471  10.849   1.778 -0.5262 -0.4545  0.6670
  326MOL0     C42940   3.437  10.696   1.801 -0.0719  0.0463 -0.4415
  326MOL0     C42941   3.291  10.680   1.841 -0.0423  0.5037  0.7178
  326MOL0     C42942   3.278  10.689   1.995  0.9766  0.6421  0.3373
  326MOL0     C42943   3.144  10.640   2.046  0.2167 -0.1848 -0.9180
  326MOL0    Cl42944   3.035  10.778   2.016 -0.1394  0.2797  0.0802
  326MOL0     C42945   4.099  10.685   1.620 -0.2386  0.1901  0.3188
  326MOL0     C42946   4.232  10.671   1.590 -0.6760 -0.4627  0.1118
  326MOL0     O42947   4.535  10.763   1.777  0.1431  0.1790 -0.5929
  326MOL0     C42948   4.786  10.681   1.686 -0.4917  0.1511 -0.5949
  326MOL0     C42949   4.905  10.631   1.645  0.2842  0.4511  0.6985
  326MOL0     N42950   5.287  10.475   0.890  0.2655  0.3421 -0.5504
  326MOL0     N42951   5.334  10.458   0.774 -0.1065  0.7185  0.0215
  326MOL0     C42952   6.510  10.146   1.082  1.4628  0.5501  0.1632
  326MOL0     C42953   6.637  10.114   1.115 -0.2678  0.3864  0.6977
  326MOL0     C42954   7.077  10.080   1.104 -0.1118  0.3080  0.3201
  326MOL0     C42955   7.121  10.090   1.233 -0.6122 -0.4252  0.0217
  326MOL0     C42956   7.247  10.055   1.271  0.0088  0.6325  0.8249
  326MOL0     C42957   7.336  10.007   1.170 -0.8655 -0.3687  0.1812
  326MOL0     O42958   7.457   9.951   1.189  0.3173 -0.0409 -0.1750
  326MOL0     C42959   7.465   9.856   1.303 -0.3308 -0.6029 -0.7194
  326MOL0     C42960   7.606   9.827   1.320  0.1180  1.4313 -0.3795
  326MOL0     C42961   7.623   9.711   1.428 -0.3159 -0.2204  1.0651
  326MOL0     C42962   7.757   9.724   1.505 -0.6933 -0.3596 -0.1177
  326MOL0     C42963   7.868   9.676   1.426  0.0882  0.2711 -0.7345
  326MOL0     C42964   7.960   9.625   1.366 -0.4447 -0.0036  0.2714
  326MOL0     C42965   7.298  10.006   1.035 -0.6489  0.8661  0.5078
  326MOL0     C42966   7.169  10.046   1.003  0.5152 -0.3777 -0.4835
  326MOL0     H42967   6.781  10.419   1.037 -0.6643  1.2508  0.8354
  326MOL0     H42968   6.571  10.476   0.990 -0.7989  0.3637  1.4638
  326MOL0     H42969   6.335  10.419   0.856  1.1192  2.0328 -0.0426
  326MOL0     H42970   6.348  10.517   1.001 -0.9339 -0.0073  1.0119
  326MOL0     H42971   6.132  10.537   0.886 -0.6241  0.2825  1.0094
  326MOL0     H42972   6.097  10.486   1.043 -0.2404  0.4847 -0.9142
  326MOL0     H42973   6.055  10.249   0.961 -1.5985  0.4467  0.1606
  326MOL0     H42974   6.107  10.304   0.793 -2.0836  2.2873 -2.0474
  326MOL0     H42975   5.865  10.417   0.949  0.0937  2.8980 -1.2441
  326MOL0     H42976   5.916  10.460   0.793  2.9885  0.6035  0.4640
  326MOL0     H42977   5.814  10.184   0.861  1.0415 -1.8264 -1.9207
  326MOL0     H42978   5.883  10.227   0.709 -0.3428  2.0828 -0.6825
  326MOL0     H42979   5.723  10.401   0.677  2.1449 -1.5869  0.0257
  326MOL0     H42980   5.651  10.371   0.842 -1.1834  1.6451 -0.5953
  326MOL0     H42981   5.640  10.187   0.582  0.5400 -0.6655  0.1859
  326MOL0     H42982   5.594  10.128   0.743 -1.8379 -0.0461 -0.2727
  326MOL0     H42983   5.398  10.198   0.612  2.0609 -0.7558 -1.0575
  326MOL0     H42984   5.473  10.349   0.566  0.1123 -1.2871 -0.9040
  326MOL0     H42985   5.393  10.169   0.916  1.2783 -0.0364  2.8665
  326MOL0     H42986   5.302  10.378   1.193 -3.5991  1.9506  3.6721
  326MOL0     H42987   5.225  10.240   1.123  0.9443  0.7520  4.5084
  326MOL0     H42988   5.023  10.355   1.094 -0.5973 -0.1767  1.3098
  326MOL0     H42989   5.102  10.513   1.082  0.5236 -0.0693  1.0791
  326MOL0     H42990   4.953  10.436   1.286  0.3051 -0.8838  0.4082
  326MOL0     H42991   5.104  10.370   1.353  0.9892 -1.3095 -1.8033
  326MOL0     H42992   5.060  10.668   1.281  1.4797  0.5123  0.1027
  326MOL0     H42993   5.211  10.588   1.313  0.6682  0.0550 -0.9935
  326MOL0     H42994   4.864  10.705   1.311  2.1683  0.9729  0.0968
  326MOL0     H42995   4.646  10.772   1.393  0.2544 -0.7008 -0.3088
  326MOL0     H42996   4.346  10.970   1.676  0.3757  0.2346 -0.3305
  326MOL0     H42997   4.101  11.004   1.734 -2.3847 -0.3276  0.1817
  326MOL0     H42998   3.876  10.999   1.762 -0.6860 -0.5591  1.0922
  326MOL0     H42999   3.920  10.881   1.886 -3.7079 -0.6725  2.6312
  326MOL0     H43000   3.698  10.926   1.921  1.5513 -2.5361  0.9547
  326MOL0     H43001   3.717  10.752   1.860  2.5891 -0.9207  1.7762
  326MOL0     H43002   3.634  10.807   1.642 -0.7869 -0.8537  0.8340
  326MOL0     H43003   3.619  10.980   1.682  2.6397 -0.7277 -0.9184
  326MOL0     H43004   3.459  10.903   1.873  2.3442  2.9612 -0.6723
  326MOL0     H43005   3.401  10.885   1.701  0.6100  0.0146 -0.1785
  326MOL0     H43006   3.504  10.655   1.876 -0.3490  0.3462 -0.0279
  326MOL0     H43007   3.449  10.643   1.705  1.3322  1.5208 -1.1162
  326MOL0     H43008   3.279  10.577   1.807  4.1021 -0.0827  0.4715
  326MOL0     H43009   3.220  10.745   1.789  0.4637  0.3511 -0.1870
  326MOL0     H43010   3.345  10.619   2.046 -0.4865 -0.7020  0.4967
  326MOL0     H43011   3.308  10.781   2.045 -1.1212  0.7537  1.4920
  326MOL0     H43012   3.158  10.626   2.153 -3.1910  1.3561 -0.1475
  326MOL0     H43013   3.099  10.553   1.997  1.3570 -0.3011 -1.8134
  326MOL0     H43014   4.031  10.601   1.619  0.2967 -0.2683  1.0658
  326MOL0     H43015   4.279  10.579   1.556  0.5460 -0.3566  1.4286
  326MOL0     H43016   4.777  10.692   1.794  0.5532  0.3803 -0.5232
  326MOL0     H43017   4.985  10.584   1.700 -0.1171  0.5088  1.3394
  326MOL0     H43018   6.431  10.073   1.095 -0.0822  2.2692  0.9854
  326MOL0     H43019   6.674  10.020   1.155  0.6578 -0.4387 -1.8593
  326MOL0     H43020   7.048  10.115   1.309  0.2024 -3.1197  1.8346
  326MOL0     H43021   7.288  10.056   1.372  1.6950  0.4198  0.1831
  326MOL0     H43022   7.397   9.772   1.291 -1.7846  0.5860 -1.1521
  326MOL0     H43023   7.436   9.906   1.396  2.0919 -0.9202  0.2745
  326MOL0     H43024   7.638   9.788   1.222 -0.6296  0.7752 -0.3805
  326MOL0     H43025   7.665   9.916   1.339  0.7720  0.7080  1.1493
  326MOL0     H43026   7.611   9.610   1.389 -0.7703 -0.8800  2.8272
  326MOL0     H43027   7.538   9.705   1.496  0.4542 -0.4583  2.0341
  326MOL0     H43028   7.789   9.825   1.530 -2.0123  0.4371 -1.4745
  326MOL0     H43029   7.760   9.669   1.600 -0.0928  1.7127  1.1330
  326MOL0     H43030   8.020   9.591   1.285  1.9243  3.7902  0.1812
  326MOL0     H43031   7.355   9.965   0.952 -4.7882  0.0647 -2.2520
  326MOL0     H43032   7.128  10.049   0.902 -2.0627 -0.9290  0.4700
  327MOL0     O43033   6.777   4.997   6.072 -0.6560 -0.0184 -0.0454
  327MOL0     C43034   6.821   4.896   6.017  0.0636 -0.4305 -0.5121
  327MOL0     O43035   6.904   4.798   6.074 -0.2304 -0.2132  0.6434
  327MOL0     C43036   6.934   4.807   6.209  0.2998 -0.2828 -0.6382
  327MOL0     C43037   7.013   4.919   6.252 -0.3696 -0.2840 -0.3370
  327MOL0     C43038   7.025   4.934   6.393 -0.0074 -0.0115  0.0662
  327MOL0     C43039   6.962   4.853   6.487 -0.0785  0.1929 -0.6274
  327MOL0     O43040   6.974   4.885   6.621 -0.3424 -0.4145  0.4253
  327MOL0     C43041   6.926   4.799   6.719  0.4206 -0.1252 -0.1347
  327MOL0     C43042   6.982   4.865   6.845 -1.2571 -0.2356 -0.2536
  327MOL0     C43043   7.128   4.841   6.874  0.5656  0.6091 -0.5633
  327MOL0     C43044   7.173   4.921   6.998  0.1867  0.5003 -0.0018
  327MOL0     C43045   7.320   4.904   7.024  0.5067  0.2284 -0.5384
  327MOL0     C43046   7.373   5.003   7.128  0.5105 -0.3590 -0.2496
  327MOL0     C43047   7.493   4.961   7.207 -0.4672  1.0131  0.1849
  327MOL0     C43048   7.551   5.060   7.313  1.0784  0.4390  0.1284
  327MOL0     N43049   7.671   5.012   7.362 -0.7436  0.0314  0.0716
  327MOL0     C43050   7.690   4.920   7.457 -0.1791 -0.3071 -0.0620
  327MOL0     C43051   7.821   4.906   7.467 -0.2915 -0.2460  0.1757
  327MOL0     C43052   7.882   4.796   7.547 -0.3099 -0.1686  1.5499
  327MOL0     C43053   7.970   4.846   7.666 -0.2874  0.2037 -0.3242
  327MOL0     C43054   7.883   4.902   7.780  0.3964 -0.7720 -0.0438
  327MOL0     C43055   7.774   4.808   7.829 -0.9682  0.0926  0.0652
  327MOL0     O43056   7.647   4.816   7.755 -0.2878 -0.4081  0.5720
  327MOL0     C43057   7.548   4.900   7.788  0.3827 -0.0688 -0.8891
  327MOL0     C43058   7.422   4.897   7.722 -0.3107  0.0739  0.7463
  327MOL0     C43059   7.317   4.989   7.749 -0.1999 -0.6533  0.9067
  327MOL0     C43060   7.336   5.088   7.849  0.5883  0.6745 -0.1468
  327MOL0     C43061   7.235   5.186   7.873 -0.2915 -0.9077  0.3147
  327MOL0     O43062   7.136   5.187   7.787  0.3704  0.4742  0.2193
  327MOL0     C43063   7.036   5.286   7.786 -0.2509  0.4603 -0.5189
  327MOL0     C43064   6.914   5.239   7.751  0.3627  0.1316  0.1936
  327MOL0     C43065   6.798   5.320   7.764 -0.3967 -0.6952 -0.3119
  327MOL0     C43066   6.807   5.457   7.797 -0.1054  0.3207 -0.3702
  327MOL0     O43067   6.694   5.526   7.815 -0.1793 -0.2479  0.3218
  327MOL0     C43068   6.679   5.651   7.742 -0.4736 -0.7661  0.1533
  327MOL0     C43069   6.542   5.720   7.773  0.2811  0.3543  0.7368
  327MOL0     C43070   6.424   5.642   7.722 -0.2763  0.0423 -0.2929
  327MOL0     C43071   6.292   5.693   7.751  0.1762  0.7460 -0.3847
  327MOL0     C43072   6.175   5.606   7.687  0.0374  0.0956  0.0056
  327MOL0     C43073   6.037   5.625   7.767  0.9605  0.4712  0.1803
  327MOL0     C43074   5.933   5.551   7.689 -0.7182  0.8822 -0.1314
  327MOL0     C43075   5.793   5.551   7.743  0.4665  0.3468 -0.5246
  327MOL0    Cl43076   5.682   5.441   7.653  0.3570 -0.2036 -0.1779
  327MOL0     C43077   6.940   5.510   7.811 -0.5761  0.0306  0.4879
  327MOL0     C43078   7.052   5.421   7.811  0.5073 -0.9811  0.0642
  327MOL0     O43079   7.244   5.265   7.959 -0.5864  0.6777  0.1361
  327MOL0     C43080   7.458   5.090   7.920  1.1961  0.1593 -0.9904
  327MOL0     C43081   7.555   5.000   7.888 -0.7131  0.1916 -0.1378
  327MOL0     N43082   7.882   4.975   7.373  0.7508 -0.5345 -0.4344
  327MOL0     N43083   7.793   5.047   7.313 -0.0056  0.4255 -0.8156
  327MOL0     C43084   6.892   4.740   6.440 -0.6214  0.1405  0.0098
  327MOL0     C43085   6.875   4.723   6.301 -0.2865 -0.0576  0.0757
  327MOL0     C43086   6.786   4.875   5.870  0.0603  0.4236 -0.2344
  327MOL0     C43087   6.804   4.755   5.804 -0.3473 -0.0055 -0.0621
  327MOL0     C43088   6.768   4.732   5.668 -0.6561 -0.6737 -0.3354
  327MOL0     C43089   6.720   4.839   5.592  0.4713  0.6460 -0.1861
  327MOL0     O43090   6.712   4.823   5.458  0.0131  0.5546 -0.2947
  327MOL0     C43091   6.625   4.915   5.377 -0.2214  0.4978  0.3374
  327MOL0     C43092   6.589   4.836   5.248 -0.3666 -0.1504  0.2297
  327MOL0     C43093   6.485   4.727   5.283  0.5276 -0.4457  0.5830
  327MOL0     C43094   6.442   4.648   5.156  0.2930 -0.3274 -0.4863
  327MOL0     C43095   6.558   4.588   5.090  0.4129 -0.0765  0.5278
  327MOL0     C43096   6.672   4.568   5.066 -0.0459 -0.7279  0.9570
  327MOL0     C43097   6.697   4.956   5.663  0.3777 -0.4978  0.0333
  327MOL0     C43098   6.731   4.980   5.792  1.1413  0.2229  0.1209
  327MOL0     H43099   7.051   4.995   6.185 -2.1677 -1.2846 -2.5960
  327MOL0     H43100   7.092   5.009   6.434  2.2064 -2.5825  1.5551
  327MOL0     H43101   6.971   4.700   6.725  0.3240 -0.0877  2.9330
  327MOL0     H43102   6.818   4.783   6.726  0.4799 -0.7088 -0.4872
  327MOL0     H43103   6.938   4.825   6.936  3.9143  2.1967  3.7907
  327MOL0     H43104   6.956   4.972   6.848  0.2453  0.1431  3.2217
  327MOL0     H43105   7.192   4.868   6.790  0.0737 -1.6320 -1.7459
  327MOL0     H43106   7.144   4.736   6.903 -0.9952  1.4777  4.3240
  327MOL0     H43107   7.126   5.020   6.993 -1.3953 -0.1026  1.6981
  327MOL0     H43108   7.111   4.889   7.082 -1.0169  0.1573 -0.9782
  327MOL0     H43109   7.373   4.911   6.929  1.8172  0.3537  0.1789
  327MOL0     H43110   7.327   4.803   7.067  0.5107  0.0029 -1.0535
  327MOL0     H43111   7.296   5.033   7.199  0.8624  0.0242 -0.0255
  327MOL0     H43112   7.406   5.096   7.081  2.5832 -0.4225  0.9480
  327MOL0     H43113   7.473   4.861   7.247  0.8563  1.2806  1.5894
  327MOL0     H43114   7.579   4.945   7.142 -0.1003  1.2579  0.6067
  327MOL0     H43115   7.479   5.073   7.394  0.9218 -1.1560  0.2752
  327MOL0     H43116   7.582   5.145   7.251 -0.0461  1.6050  1.1265
  327MOL0     H43117   7.610   4.867   7.506  0.2360 -1.6362 -0.7773
  327MOL0     H43118   7.952   4.745   7.479 -1.3592  1.7541 -1.1889
  327MOL0     H43119   7.810   4.721   7.579  0.7122 -1.9639 -0.0942
  327MOL0     H43120   8.051   4.916   7.642 -0.2717  0.7576  1.2252
  327MOL0     H43121   8.026   4.756   7.693 -1.1547 -0.8640 -1.9089
  327MOL0     H43122   7.934   4.940   7.868  1.9532  1.9427 -1.9708
  327MOL0     H43123   7.834   4.993   7.745  1.5946  0.3290  1.0412
  327MOL0     H43124   7.769   4.820   7.938 -2.0622  0.5180 -0.0254
  327MOL0     H43125   7.808   4.705   7.815 -3.2859 -0.9404  1.4761
  327MOL0     H43126   7.399   4.819   7.651 -0.2120  1.3393 -0.7347
  327MOL0     H43127   7.224   4.977   7.695 -1.8195 -2.1758  3.7748
  327MOL0     H43128   6.908   5.132   7.733  2.6972  0.3437 -2.6151
  327MOL0     H43129   6.696   5.287   7.745  0.1643 -2.2144 -0.8653
  327MOL0     H43130   6.704   5.632   7.637 -0.5929  1.2062 -0.2789
  327MOL0     H43131   6.760   5.719   7.770 -1.2629 -0.1111  0.9053
  327MOL0     H43132   6.543   5.818   7.724 -3.2089 -1.0197 -2.5178
  327MOL0     H43133   6.529   5.730   7.882  3.3497 -0.2367  1.2467
  327MOL0     H43134   6.441   5.540   7.759  3.5364  0.1274 -1.3852
  327MOL0     H43135   6.440   5.632   7.615  1.5084 -0.6912  0.0009
  327MOL0     H43136   6.279   5.692   7.859 -0.1703 -0.3562 -0.4227
  327MOL0     H43137   6.279   5.793   7.708 -2.0283 -0.4482 -2.8225
  327MOL0     H43138   6.200   5.500   7.681  0.1163  0.1688 -1.2434
  327MOL0     H43139   6.160   5.645   7.586 -1.2325  1.5841  0.7308
  327MOL0     H43140   6.007   5.730   7.768 -2.0495 -0.1274 -3.4759
  327MOL0     H43141   6.037   5.592   7.872  1.6727  1.9310  0.6686
  327MOL0     H43142   5.934   5.584   7.585 -2.3931 -1.0530 -0.8462
  327MOL0     H43143   5.972   5.448   7.685 -0.7213  0.8653  0.2177
  327MOL0     H43144   5.751   5.652   7.747  1.4336  0.7288  2.4727
  327MOL0     H43145   5.801   5.531   7.850  2.0668 -0.6538 -0.7972
  327MOL0     H43146   6.963   5.616   7.810  0.2784 -0.1457  0.7432
  327MOL0     H43147   7.151   5.461   7.832 -0.6580  4.0367 -2.5310
  327MOL0     H43148   7.480   5.151   8.006 -0.5573 -1.5102  0.7511
  327MOL0     H43149   7.642   5.000   7.954 -1.5639 -1.4621  1.0605
  327MOL0     H43150   6.849   4.662   6.501 -0.3970 -0.5780 -0.7326
  327MOL0     H43151   6.828   4.637   6.256  2.5983 -1.1586 -1.0762
  327MOL0     H43152   6.848   4.672   5.858  0.2857 -0.2962 -0.9916
  327MOL0     H43153   6.796   4.641   5.615 -1.7518 -2.2645  1.6799
  327MOL0     H43154   6.666   5.013   5.351 -1.6239  0.6170 -1.6513
  327MOL0     H43155   6.528   4.939   5.421 -1.2463  0.1681 -1.6278
  327MOL0     H43156   6.546   4.904   5.174 -0.3409  1.0259  1.2642
  327MOL0     H43157   6.685   4.801   5.210  0.3880  1.3608  0.6448
  327MOL0     H43158   6.404   4.770   5.343  0.2057  1.3241 -1.0329
  327MOL0     H43159   6.534   4.657   5.353  2.5880 -0.6219 -0.9335
  327MOL0     H43160   6.380   4.562   5.186  0.7074 -0.9847 -1.4519
  327MOL0     H43161   6.382   4.710   5.089 -0.2316  1.1690  1.2975
  327MOL0     H43162   6.776   4.564   5.040 -0.5470  0.4341 -1.5369
  327MOL0     H43163   6.665   5.043   5.606 -3.8157 -1.5547  0.4510
  327MOL0     H43164   6.697   5.073   5.837  0.2966  0.6843 -1.3935
  328MOL0     O43165   0.009   1.840   5.294  0.9618 -0.1184 -0.2862
  328MOL0     C43166   0.018   1.852   5.173  0.5135  0.1616  0.2187
  328MOL0     O43167  -0.079   1.866   5.083 -0.2103  0.1204 -0.0977
  328MOL0     C43168  -0.216   1.856   5.105  0.5060  0.2902 -0.7763
  328MOL0     C43169  -0.274   1.879   5.229  0.2225  0.2461 -0.0669
  328MOL0     C43170  -0.411   1.869   5.246 -0.2485 -0.0055  0.5602
  328MOL0     C43171  -0.490   1.848   5.133  0.6695  0.3577 -0.7746
  328MOL0     O43172  -0.626   1.853   5.161 -0.0411 -0.1779 -0.1314
  328MOL0     C43173  -0.694   1.789   5.272 -0.3075  0.0012  0.2059
  328MOL0     C43174  -0.797   1.686   5.249  0.4392 -0.1942  0.2748
  328MOL0     C43175  -0.928   1.745   5.188 -0.4639 -0.1769 -0.0237
  328MOL0     C43176  -1.030   1.640   5.169  0.7972 -0.4355 -0.2760
  328MOL0     C43177  -1.168   1.698   5.128 -0.7705  0.1724 -0.4070
  328MOL0     C43178  -1.189   1.700   4.970 -1.1626  0.2370 -0.2969
  328MOL0     C43179  -1.318   1.755   4.930  0.2918  0.3010  0.3600
  328MOL0     C43180  -1.438   1.668   4.953  0.0072  0.7537 -0.3213
  328MOL0     N43181  -1.447   1.559   4.847  0.0196 -0.1273 -0.4661
  328MOL0     C43182  -1.431   1.581   4.713 -0.2017  0.3298  0.0601
  328MOL0     C43183  -1.455   1.461   4.660  0.7338 -0.7040  0.1456
  328MOL0     C43184  -1.465   1.445   4.507 -0.3350  0.3480  0.1716
  328MOL0     C43185  -1.583   1.529   4.442  0.2647 -0.6071  0.2194
  328MOL0     C43186  -1.632   1.479   4.299 -0.1365 -0.0610 -0.1639
  328MOL0     C43187  -1.711   1.360   4.291 -0.3863 -0.1795  1.6569
  328MOL0     O43188  -1.832   1.376   4.369  0.4237  0.1386 -0.0688
  328MOL0     C43189  -1.929   1.455   4.319 -0.0533 -0.1224 -0.0236
  328MOL0     C43190  -1.982   1.436   4.188 -0.6354 -0.2608 -0.2254
  328MOL0     C43191  -2.083   1.514   4.134  0.0444  0.3990 -0.6932
  328MOL0     C43192  -2.144   1.609   4.213 -1.1349 -0.1033  0.3799
  328MOL0     C43193  -2.257   1.682   4.149 -0.3781  0.4119  0.2637
  328MOL0     O43194  -2.296   1.635   4.027 -0.4807  0.0194  0.1176
  328MOL0     C43195  -2.416   1.673   3.976  1.0026  0.3844 -0.4976
  328MOL0     C43196  -2.530   1.715   4.050 -0.3687 -0.0792 -0.1776
  328MOL0     C43197  -2.641   1.744   3.981  0.5192 -0.2079 -0.2176
  328MOL0     C43198  -2.651   1.734   3.842  0.6561 -0.0768  0.2295
  328MOL0     O43199  -2.774   1.750   3.792 -0.3463  0.1191 -1.0094
  328MOL0     C43200  -2.811   1.745   3.649 -0.8271  0.4276 -0.0635
  328MOL0     C43201  -2.954   1.755   3.645 -0.0857 -0.0311  0.3608
  328MOL0     C43202  -3.008   1.704   3.505  0.1204 -0.0186  0.1437
  328MOL0     C43203  -3.166   1.718   3.490 -0.3194 -0.9675 -0.3390
  328MOL0     C43204  -3.205   1.637   3.360  0.2685  0.3142  0.0178
  328MOL0     C43205  -3.356   1.614   3.364  0.6500  0.1982 -0.4293
  328MOL0     C43206  -3.434   1.751   3.352  0.1784 -0.2028  0.1423
  328MOL0     C43207  -3.583   1.739   3.318 -0.4981  0.8137  0.3514
  328MOL0    Cl43208  -3.671   1.666   3.453 -0.4380 -0.2203  0.1286
  328MOL0     C43209  -2.541   1.693   3.766 -0.0512 -0.0472 -0.3047
  328MOL0     C43210  -2.421   1.672   3.838  0.3599 -0.2276 -0.5429
  328MOL0     O43211  -2.306   1.780   4.206  0.4714 -0.0376  0.7286
  328MOL0     C43212  -2.096   1.641   4.343 -0.3131  0.6172 -0.7635
  328MOL0     C43213  -1.992   1.555   4.395  0.1152 -0.5053 -0.5239
  328MOL0     N43214  -1.484   1.371   4.761 -0.3908 -0.4958  0.2471
  328MOL0     N43215  -1.475   1.429   4.878  0.0650 -0.0250 -0.2877
  328MOL0     C43216  -0.431   1.833   5.007 -0.0175 -0.3635  0.4208
  328MOL0     C43217  -0.286   1.839   4.990  1.1502  0.9456  0.0175
  328MOL0     C43218   0.155   1.870   5.113  0.0774 -0.9359  0.5550
  328MOL0     C43219   0.262   1.859   5.202  0.1341 -0.3926  0.4152
  328MOL0     C43220   0.394   1.885   5.154  0.5921  0.0721 -0.1062
  328MOL0     C43221   0.419   1.894   5.015 -0.4389  0.6103  0.0152
  328MOL0     O43222   0.539   1.899   4.953  0.2629  0.2129  0.4805
  328MOL0     C43223   0.659   1.917   5.029  0.4325  0.0871 -0.1089
  328MOL0     C43224   0.728   1.782   5.088  0.1202  0.0438 -0.3595
  328MOL0     C43225   0.878   1.777   5.108  0.2750 -0.8319 -0.4164
  328MOL0     C43226   0.957   1.842   4.995 -0.0607  0.1905 -0.2449
  328MOL0     C43227   1.104   1.808   5.011  0.6210  0.4885  1.3864
  328MOL0     C43228   1.225   1.787   5.010  0.3454  0.2221  0.8073
  328MOL0     C43229   0.310   1.899   4.925 -0.3947  0.0885 -1.0985
  328MOL0     C43230   0.180   1.899   4.974  0.3041  1.0208 -0.4786
  328MOL0     H43231  -0.215   1.895   5.319  0.3163  2.5757 -0.4728
  328MOL0     H43232  -0.453   1.878   5.346 -2.1095  1.0748 -0.2640
  328MOL0     H43233  -0.723   1.870   5.340  3.8753  1.9794 -0.0803
  328MOL0     H43234  -0.618   1.732   5.327 -0.7979  0.8492  1.8369
  328MOL0     H43235  -0.825   1.639   5.344 -0.8620 -0.2557 -0.1165
  328MOL0     H43236  -0.755   1.606   5.186  0.8652  1.0662 -1.0945
  328MOL0     H43237  -0.906   1.791   5.091  0.1414  0.8090  0.5676
  328MOL0     H43238  -0.965   1.833   5.240 -1.7040  0.0760 -1.2562
  328MOL0     H43239  -1.001   1.576   5.086  1.5250  2.1069 -2.1050
  328MOL0     H43240  -1.048   1.590   5.265 -4.6822 -0.1960 -0.8889
  328MOL0     H43241  -1.187   1.793   5.177  0.0404 -0.5020  1.2989
  328MOL0     H43242  -1.246   1.631   5.164 -1.1911 -0.0196 -1.6158
  328MOL0     H43243  -1.181   1.595   4.940  0.7581  0.1220  0.4463
  328MOL0     H43244  -1.115   1.763   4.919 -0.1406  0.4853  1.4055
  328MOL0     H43245  -1.331   1.847   4.987 -0.3640  0.3920  0.0740
  328MOL0     H43246  -1.319   1.786   4.825 -0.6858 -0.3617  0.1607
  328MOL0     H43247  -1.532   1.722   4.942 -0.3534  0.0206 -0.9769
  328MOL0     H43248  -1.430   1.615   5.048 -1.2860  0.2455 -0.4749
  328MOL0     H43249  -1.411   1.674   4.661  1.3168  0.3402  0.6116
  328MOL0     H43250  -1.471   1.337   4.495 -0.1622  0.1172  1.9292
  328MOL0     H43251  -1.368   1.479   4.467  0.3739  0.5788  1.9992
  328MOL0     H43252  -1.544   1.630   4.429  1.3256 -0.8091  1.6384
  328MOL0     H43253  -1.658   1.548   4.519 -1.0155  1.2989 -1.3918
  328MOL0     H43254  -1.694   1.554   4.248 -0.0425 -0.8418 -1.4799
  328MOL0     H43255  -1.539   1.459   4.246 -0.6769 -0.8713 -0.8362
  328MOL0     H43256  -1.656   1.273   4.328  0.6800 -0.5326 -0.6054
  328MOL0     H43257  -1.735   1.355   4.185  3.0281  2.4808  0.6178
  328MOL0     H43258  -1.942   1.360   4.122  1.7271  0.0296  0.7761
  328MOL0     H43259  -2.116   1.491   4.034  1.8739 -0.0991 -1.2330
  328MOL0     H43260  -2.521   1.715   4.158  1.2320 -2.2788 -0.2412
  328MOL0     H43261  -2.725   1.784   4.036 -0.1253 -1.2795 -0.4073
  328MOL0     H43262  -2.791   1.649   3.601 -1.2812  1.6195 -2.8210
  328MOL0     H43263  -2.764   1.823   3.589 -1.1282  0.8674  0.2714
  328MOL0     H43264  -2.983   1.858   3.667 -1.5001 -0.2634 -0.3096
  328MOL0     H43265  -2.998   1.685   3.717 -1.5172 -3.1098 -3.1563
  328MOL0     H43266  -2.991   1.596   3.492 -1.9200 -0.5549  1.4994
  328MOL0     H43267  -2.952   1.761   3.431 -0.1738 -0.6307 -0.5611
  328MOL0     H43268  -3.202   1.677   3.584 -4.2107 -0.9326 -1.6451
  328MOL0     H43269  -3.202   1.822   3.483 -0.2275 -1.0363 -2.5226
  328MOL0     H43270  -3.137   1.552   3.353  1.3780  1.3122 -2.4159
  328MOL0     H43271  -3.177   1.702   3.276  2.2720  0.0513  0.4305
  328MOL0     H43272  -3.375   1.560   3.458  3.2256 -0.4289 -0.1861
  328MOL0     H43273  -3.388   1.552   3.279  1.2264 -3.6445  1.9080
  328MOL0     H43274  -3.420   1.817   3.438 -0.2528 -2.6909  2.2560
  328MOL0     H43275  -3.399   1.797   3.259 -0.1780  0.2317  0.2203
  328MOL0     H43276  -3.601   1.678   3.228  2.3124  1.8847 -1.0604
  328MOL0     H43277  -3.638   1.829   3.292 -4.9616 -1.8682 -0.6835
  328MOL0     H43278  -2.544   1.684   3.658 -1.1670  1.2108 -0.4106
  328MOL0     H43279  -2.327   1.640   3.794  0.8242  0.2021  0.1107
  328MOL0     H43280  -2.148   1.714   4.404 -0.5016  0.9826 -1.3442
  328MOL0     H43281  -1.952   1.564   4.495 -1.7077 -1.1762  0.2997
  328MOL0     H43282  -0.494   1.815   4.921  1.5538 -0.8126 -0.6842
  328MOL0     H43283  -0.251   1.835   4.887  0.4563  0.7292 -0.2208
  328MOL0     H43284   0.243   1.864   5.308 -2.0987  1.2554  0.0017
  328MOL0     H43285   0.472   1.889   5.230 -2.0015 -2.8748  3.0623
  328MOL0     H43286   0.644   1.988   5.112 -0.8880 -0.5871  0.2569
  328MOL0     H43287   0.721   1.965   4.952 -1.2410  0.3028 -1.3847
  328MOL0     H43288   0.676   1.770   5.183 -0.0953  0.6267 -0.3997
  328MOL0     H43289   0.702   1.700   5.020 -1.0453  2.0677 -2.4716
  328MOL0     H43290   0.911   1.674   5.123  1.3336 -0.4121  0.2824
  328MOL0     H43291   0.908   1.824   5.202 -0.1007 -3.5388  1.1558
  328MOL0     H43292   0.927   1.806   4.897  0.7111 -0.4438 -0.2631
  328MOL0     H43293   0.958   1.951   4.989  1.9771  0.1531 -1.4560
  328MOL0     H43294   1.331   1.774   5.014  0.1815 -2.4471 -1.0171
  328MOL0     H43295   0.336   1.916   4.821  2.3955  2.8980 -0.1014
  328MOL0     H43296   0.089   1.905   4.915 -0.4962  2.2662  0.8065
  329MOL0     O43297   0.978   7.169   0.438  0.0542 -0.0422 -0.1965
  329MOL0     C43298   0.881   7.114   0.488 -0.8696  0.7459  0.6956
  329MOL0     O43299   0.766   7.176   0.524  0.2377 -0.6724 -0.2343
  329MOL0     C43300   0.753   7.307   0.497 -0.3824 -0.5030 -0.0296
  329MOL0     C43301   0.798   7.404   0.592 -0.9294 -0.9685 -0.3877
  329MOL0     C43302   0.792   7.543   0.571 -0.1456 -0.8067 -0.8557
  329MOL0     C43303   0.746   7.580   0.441  0.5398 -0.5437 -0.6738
  329MOL0     O43304   0.760   7.702   0.387  0.5713 -0.1845  0.2061
  329MOL0     C43305   0.880   7.775   0.416  0.1643  0.1398 -0.4297
  329MOL0     C43306   0.870   7.909   0.344  0.4060 -0.6204  0.5730
  329MOL0     C43307   0.806   7.901   0.199  0.5175 -0.1820  0.1680
  329MOL0     C43308   0.874   7.806   0.103 -0.0676  0.3454 -0.0464
  329MOL0     C43309   0.797   7.797  -0.028 -0.5336 -0.3467 -0.6854
  329MOL0     C43310   0.682   7.693  -0.013 -1.1889  0.3653  0.1956
  329MOL0     C43311   0.589   7.713  -0.131  0.6980 -0.1926 -0.3086
  329MOL0     C43312   0.640   7.691  -0.280  0.4056  0.3739 -0.0467
  329MOL0     N43313   0.530   7.660  -0.378 -0.4070 -1.0134 -0.1224
  329MOL0     C43314   0.451   7.549  -0.378  0.2573  0.1921  0.1314
  329MOL0     C43315   0.373   7.564  -0.492  1.1256 -0.3506  0.2470
  329MOL0     C43316   0.273   7.466  -0.536  0.3410 -0.2134 -0.2862
  329MOL0     C43317   0.127   7.526  -0.553 -0.0857  0.5136 -0.0794
  329MOL0     C43318   0.088   7.636  -0.462  0.6938  0.1595 -0.6338
  329MOL0     C43319  -0.062   7.644  -0.444  0.2267 -0.2490 -0.1760
  329MOL0     O43320  -0.115   7.690  -0.566 -0.0696  0.5992 -0.2305
  329MOL0     C43321  -0.252   7.689  -0.582 -0.7167  0.5349 -0.0956
  329MOL0     C43322  -0.299   7.778  -0.679 -1.0518  0.5790 -0.2758
  329MOL0     C43323  -0.434   7.807  -0.698 -1.2365 -0.0248  0.0561
  329MOL0     C43324  -0.534   7.732  -0.640 -0.3492 -0.3996 -0.1836
  329MOL0     C43325  -0.675   7.746  -0.667  0.6781 -0.9154  0.2880
  329MOL0     O43326  -0.753   7.654  -0.610 -0.5393 -0.1111 -0.7698
  329MOL0     C43327  -0.887   7.658  -0.622  0.6291 -0.5616 -0.1774
  329MOL0     C43328  -0.968   7.747  -0.550  0.4278  0.0589 -0.0634
  329MOL0     C43329  -1.104   7.763  -0.584  0.1681  0.4291  0.2494
  329MOL0     C43330  -1.162   7.683  -0.681 -0.2939  0.0051 -0.0379
  329MOL0     O43331  -1.297   7.707  -0.713 -0.2693  0.7406 -0.0976
  329MOL0     C43332  -1.362   7.625  -0.809 -0.4371  0.6506  0.6015
  329MOL0     C43333  -1.508   7.646  -0.814 -0.2188 -0.3890  0.3064
  329MOL0     C43334  -1.561   7.776  -0.876 -0.4088  0.0970 -0.6222
  329MOL0     C43335  -1.710   7.806  -0.835  0.3474  0.5426  0.2851
  329MOL0     C43336  -1.813   7.711  -0.905  0.1766  0.1772  0.0696
  329MOL0     C43337  -1.959   7.737  -0.897 -0.5887  0.7931  0.0629
  329MOL0     C43338  -2.008   7.867  -0.955 -1.0231  0.4353  0.4083
  329MOL0     C43339  -2.155   7.860  -0.989  0.1409  0.2218 -0.3168
  329MOL0    Cl43340  -2.197   7.736  -1.115  0.5081 -0.2353 -0.2722
  329MOL0     C43341  -1.087   7.582  -0.741 -0.3974 -0.4910  0.2407
  329MOL0     C43342  -0.952   7.571  -0.704  0.1515 -0.2161  1.1746
  329MOL0     O43343  -0.716   7.820  -0.752  0.3697 -0.1106  0.0882
  329MOL0     C43344  -0.495   7.635  -0.543 -0.4851 -0.0427 -1.0159
  329MOL0     C43345  -0.356   7.626  -0.504 -0.2576  0.1908 -0.1353
  329MOL0     N43346   0.394   7.686  -0.544 -0.0325 -1.0023  0.9572
  329MOL0     N43347   0.483   7.745  -0.473  1.0370  0.0603 -0.0710
  329MOL0     C43348   0.703   7.485   0.349  0.3145  0.9481  0.5742
  329MOL0     C43349   0.701   7.351   0.376 -0.8560  1.0287  0.1196
  329MOL0     C43350   0.894   6.970   0.534 -0.7941 -0.0085 -0.9480
  329MOL0     C43351   0.775   6.899   0.563 -0.3055  0.0684 -0.3820
  329MOL0     C43352   0.782   6.763   0.604 -0.5636  0.1748  0.7026
  329MOL0     C43353   0.908   6.699   0.610  0.3693  1.0358  0.8732
  329MOL0     O43354   0.932   6.562   0.639 -0.5007 -0.1256  0.3097
  329MOL0     C43355   0.835   6.457   0.637 -0.2687 -0.1368  0.5755
  329MOL0     C43356   0.768   6.436   0.499  0.1953  0.3417  0.2701
  329MOL0     C43357   0.651   6.342   0.521 -0.0036 -0.6756  0.4145
  329MOL0     C43358   0.576   6.322   0.382  0.7369 -0.5093 -0.1109
  329MOL0     C43359   0.459   6.236   0.410 -1.4100  0.3867 -0.7066
  329MOL0     C43360   0.373   6.157   0.452 -0.5783  0.8780  0.1228
  329MOL0     C43361   1.020   6.769   0.592 -0.1032 -0.1862  0.1180
  329MOL0     C43362   1.019   6.904   0.547  0.2389  0.3329  0.8042
  329MOL0     H43363   0.839   7.360   0.682 -2.0986 -0.7439  0.2807
  329MOL0     H43364   0.820   7.617   0.646 -3.3169  0.2912 -0.6045
  329MOL0     H43365   0.960   7.715   0.374  0.7699 -0.1258  1.0275
  329MOL0     H43366   0.891   7.794   0.523  0.1605 -1.8147 -0.0463
  329MOL0     H43367   0.968   7.956   0.335 -1.2032  2.6728 -3.2553
  329MOL0     H43368   0.800   7.974   0.399  0.1089 -0.5265  0.0903
  329MOL0     H43369   0.820   8.001   0.155  0.7766 -0.6756 -0.9157
  329MOL0     H43370   0.698   7.886   0.205  0.4069  0.5585  0.0975
  329MOL0     H43371   0.972   7.846   0.077  0.4630  0.2848  1.6909
  329MOL0     H43372   0.883   7.706   0.146 -1.4684  0.5992  0.9181
  329MOL0     H43373   0.879   7.774  -0.096  0.2752 -1.4367  0.5988
  329MOL0     H43374   0.767   7.895  -0.067  0.7917 -0.4625 -2.0932
  329MOL0     H43375   0.619   7.718   0.073  0.4567  1.5223  1.1252
  329MOL0     H43376   0.713   7.588  -0.009  0.1887  0.6695 -1.5848
  329MOL0     H43377   0.503   7.647  -0.120 -0.7595  1.5257 -0.8260
  329MOL0     H43378   0.547   7.814  -0.119 -1.7280 -0.5600 -4.0194
  329MOL0     H43379   0.704   7.602  -0.284  1.0768  0.9009 -1.7717
  329MOL0     H43380   0.696   7.779  -0.312  0.9328 -0.8756 -2.8887
  329MOL0     H43381   0.474   7.467  -0.310  1.1302 -1.4504 -2.0194
  329MOL0     H43382   0.251   7.384  -0.467 -4.4569 -0.5606 -1.8888
  329MOL0     H43383   0.305   7.431  -0.634 -2.0552 -2.3314 -0.3929
  329MOL0     H43384   0.068   7.434  -0.537  1.2351  0.0940  2.9804
  329MOL0     H43385   0.121   7.558  -0.658 -0.1145  4.6336  1.0107
  329MOL0     H43386   0.143   7.633  -0.368  0.5607 -0.5876 -0.5775
  329MOL0     H43387   0.131   7.730  -0.499 -0.3723  1.4099  1.1792
  329MOL0     H43388  -0.089   7.702  -0.356 -1.8625 -1.6440  0.1816
  329MOL0     H43389  -0.099   7.546  -0.411 -1.0911  0.3832  0.3159
  329MOL0     H43390  -0.225   7.840  -0.728 -1.8038  1.0107 -0.8882
  329MOL0     H43391  -0.453   7.888  -0.767 -2.5537 -0.4894 -0.1551
  329MOL0     H43392  -0.919   7.804  -0.472 -0.1541  1.8907 -0.9779
  329MOL0     H43393  -1.166   7.839  -0.539 -0.4351 -0.0052  0.1653
  329MOL0     H43394  -1.350   7.522  -0.775  0.1122 -0.6269 -3.0427
  329MOL0     H43395  -1.316   7.650  -0.906 -1.7788  1.0653  0.0501
  329MOL0     H43396  -1.541   7.638  -0.710  0.6869  0.8269  0.7031
  329MOL0     H43397  -1.558   7.565  -0.868 -1.7634  0.4620  0.4038
  329MOL0     H43398  -1.556   7.765  -0.985  0.5348 -3.5420 -0.3557
  329MOL0     H43399  -1.497   7.857  -0.840  1.2800 -2.0617  1.5987
  329MOL0     H43400  -1.718   7.808  -0.726  0.3834 -0.1169  0.3065
  329MOL0     H43401  -1.734   7.909  -0.864 -2.1946 -0.0562  0.0762
  329MOL0     H43402  -1.805   7.609  -0.868 -3.2555 -0.2677 -0.0806
  329MOL0     H43403  -1.794   7.716  -1.012  1.3889  0.8917  0.3043
  329MOL0     H43404  -1.987   7.725  -0.792  0.1168  1.3454  0.3230
  329MOL0     H43405  -2.007   7.663  -0.962  2.0096  0.4323 -1.6251
  329MOL0     H43406  -1.985   7.959  -0.900 -0.3453  1.8921 -2.1425
  329MOL0     H43407  -1.956   7.881  -1.051  1.6372 -0.3426  1.6264
  329MOL0     H43408  -2.184   7.957  -1.030 -3.6822  0.4721  2.4292
  329MOL0     H43409  -2.200   7.836  -0.892 -0.1131  0.6838 -0.3192
  329MOL0     H43410  -1.124   7.511  -0.814  0.5427 -1.4556  0.6710
  329MOL0     H43411  -0.893   7.489  -0.743  2.0596  0.7909  1.8559
  329MOL0     H43412  -0.569   7.588  -0.480 -2.8088  4.4791  0.0982
  329MOL0     H43413  -0.344   7.557  -0.422  0.7308  3.4870  2.7597
  329MOL0     H43414   0.662   7.514   0.253 -0.3338 -2.2107 -0.2166
  329MOL0     H43415   0.656   7.271   0.317  1.5757 -0.5337  0.2472
  329MOL0     H43416   0.676   6.942   0.551 -1.8185 -1.7457  3.7182
  329MOL0     H43417   0.697   6.695   0.604  1.4002 -2.7555 -3.8195
  329MOL0     H43418   0.756   6.486   0.706 -2.7351  1.1903 -2.5359
  329MOL0     H43419   0.872   6.363   0.678  0.7577  0.4800  1.1156
  329MOL0     H43420   0.748   6.535   0.459  0.0504  0.0442 -0.4031
  329MOL0     H43421   0.832   6.385   0.427  0.0458 -1.1398  1.1352
  329MOL0     H43422   0.583   6.379   0.598  1.6546 -0.5738  1.9130
  329MOL0     H43423   0.677   6.239   0.550  2.1539 -0.6214 -1.1021
  329MOL0     H43424   0.543   6.415   0.335  3.4293 -0.0264 -1.2066
  329MOL0     H43425   0.642   6.275   0.309  0.9976  0.1393 -0.2947
  329MOL0     H43426   0.312   6.075   0.482  0.8135 -0.0725  0.4317
  329MOL0     H43427   1.117   6.725   0.611  0.0765 -0.2157 -0.8012
  329MOL0     H43428   1.109   6.963   0.531  0.5605  0.0670  1.6042
  330MOL0     O43429   1.210   2.490  10.995 -0.1377  0.0388  0.0683
  330MOL0     C43430   1.222   2.530  11.111 -0.0427  0.0969  0.5273
  330MOL0     O43431   1.119   2.575  11.191 -0.4255 -0.3092 -0.0313
  330MOL0     C43432   0.986   2.563  11.160  0.3472  0.7776  0.2208
  330MOL0     C43433   0.891   2.536  11.257  0.2967  0.7495  0.3050
  330MOL0     C43434   0.759   2.522  11.223 -0.3616  0.0601 -0.3240
  330MOL0     C43435   0.717   2.548  11.094 -0.2787  0.4190  0.3929
  330MOL0     O43436   0.580   2.568  11.068 -0.2368  0.0168  0.4418
  330MOL0     C43437   0.487   2.591  11.173 -0.4110 -0.7312 -0.3421
  330MOL0     C43438   0.354   2.633  11.110  0.1708 -0.4745  1.0946
  330MOL0     C43439   0.234   2.629  11.199  1.2296  0.6676  0.3678
  330MOL0     C43440   0.102   2.617  11.121  0.0840 -0.0015  0.1807
  330MOL0     C43441  -0.018   2.614  11.217  0.3575  0.1464  0.1182
  330MOL0     C43442  -0.150   2.589  11.143  0.6948 -0.1095 -0.5075
  330MOL0     C43443  -0.282   2.594  11.217  0.2371  0.2381 -0.5960
  330MOL0     C43444  -0.374   2.470  11.196 -0.5959 -0.4758  0.4636
  330MOL0     N43445  -0.306   2.336  11.204 -0.4703  0.4772  0.6431
  330MOL0     C43446  -0.239   2.281  11.314 -0.0310 -0.3776  0.9097
  330MOL0     C43447  -0.171   2.176  11.257  0.8338 -0.2618 -0.4589
  330MOL0     C43448  -0.077   2.080  11.325  0.2019  0.0837 -0.7514
  330MOL0     C43449   0.058   2.126  11.373  0.2007 -0.5757 -0.1426
  330MOL0     C43450   0.151   2.157  11.250 -0.3985 -0.4405 -0.0547
  330MOL0     C43451   0.285   2.226  11.302 -0.9500  0.2793 -0.5490
  330MOL0     O43452   0.348   2.149  11.404 -0.3882 -0.8202 -0.8076
  330MOL0     C43453   0.480   2.184  11.435  0.3593 -0.2797 -0.1123
  330MOL0     C43454   0.595   2.199  11.354 -0.0105  0.0718 -0.4310
  330MOL0     C43455   0.720   2.224  11.407  0.3824  1.0574  0.4320
  330MOL0     C43456   0.735   2.242  11.543 -0.0085 -0.1929  0.1907
  330MOL0     C43457   0.872   2.274  11.578 -0.0664 -0.1017 -0.4650
  330MOL0     O43458   0.959   2.327  11.490  0.4467  0.1663  0.0943
  330MOL0     C43459   1.089   2.328  11.518 -0.5166 -0.4402 -0.2303
  330MOL0     C43460   1.164   2.448  11.504 -0.3401 -0.4969  0.7242
  330MOL0     C43461   1.291   2.472  11.542 -0.3581  0.6721 -1.3837
  330MOL0     C43462   1.360   2.370  11.605  0.2324  0.3591 -0.9911
  330MOL0     O43463   1.485   2.394  11.640  0.1219  0.4757 -0.2811
  330MOL0     C43464   1.578   2.386  11.528  0.3079  0.5797 -0.3280
  330MOL0     C43465   1.714   2.367  11.592  0.4474  0.2274 -0.3317
  330MOL0     C43466   1.766   2.482  11.679  0.4179  0.9395  0.5626
  330MOL0     C43467   1.912   2.460  11.719 -0.6035 -0.6702  0.4818
  330MOL0     C43468   2.008   2.450  11.597  0.8056 -0.1373  0.1673
  330MOL0     C43469   2.158   2.455  11.623 -0.1153  0.2202  0.1838
  330MOL0     C43470   2.245   2.410  11.511  0.2165 -0.6590  0.1334
  330MOL0     C43471   2.390   2.435  11.527 -0.8424 -0.0767 -0.2195
  330MOL0    Cl43472   2.449   2.364  11.685  0.1597 -0.3051  0.0557
  330MOL0     C43473   1.303   2.243  11.607 -0.7432  0.7341 -0.3846
  330MOL0     C43474   1.176   2.219  11.569 -0.1419  0.0785  0.6092
  330MOL0     O43475   0.902   2.263  11.697  0.6321  0.1791  0.0559
  330MOL0     C43476   0.632   2.216  11.630 -0.8439 -0.2171 -0.2281
  330MOL0     C43477   0.506   2.186  11.575 -0.5370 -0.0157  0.1762
  330MOL0     N43478  -0.202   2.172  11.129 -0.1713  1.1756  0.0187
  330MOL0     N43479  -0.274   2.263  11.090  0.1914  0.2692  0.0660
  330MOL0     C43480   0.811   2.587  10.998 -0.8278  0.4899  0.7608
  330MOL0     C43481   0.947   2.582  11.024 -0.5491  0.0048  0.3253
  330MOL0     C43482   1.356   2.538  11.163  0.5727  0.0027 -0.1498
  330MOL0     C43483   1.389   2.624  11.272  0.9560 -0.3836  0.5829
  330MOL0     C43484   1.528   2.661  11.299  0.9457 -0.0563 -0.2724
  330MOL0     C43485   1.625   2.619  11.223 -0.3257 -0.3913 -0.4505
  330MOL0     O43486   1.744   2.655  11.275  0.1316  0.1782 -0.1523
  330MOL0     C43487   1.865   2.624  11.203  0.0726  0.2845  0.5825
  330MOL0     C43488   1.891   2.742  11.095 -0.4926 -1.2876  0.0206
  330MOL0     C43489   2.004   2.690  11.008 -0.2232  0.4055 -0.1467
  330MOL0     C43490   2.038   2.779  10.898 -0.3543 -0.0736 -0.2757
  330MOL0     C43491   2.142   2.875  10.926 -0.2373 -0.0846 -0.2059
  330MOL0     C43492   2.242   2.949  10.932  0.1777  0.0449  0.0052
  330MOL0     C43493   1.596   2.527  11.116 -1.1141 -1.3496  0.6974
  330MOL0     C43494   1.462   2.488  11.085 -0.7510 -0.7131 -0.5469
  330MOL0     H43495   0.936   2.513  11.354  0.2094  0.8788  0.3750
  330MOL0     H43496   0.691   2.494  11.303  2.2069 -0.3136  1.8492
  330MOL0     H43497   0.514   2.679  11.232 -2.2658  0.0686 -0.6259
  330MOL0     H43498   0.470   2.508  11.243 -2.1444  1.9989  2.7488
  330MOL0     H43499   0.334   2.560  11.031 -2.6394  0.6516  0.6390
  330MOL0     H43500   0.365   2.720  11.044 -2.7194 -1.3457 -0.7655
  330MOL0     H43501   0.215   2.717  11.262 -3.0851  0.2818 -0.0642
  330MOL0     H43502   0.237   2.540  11.262 -0.9783 -0.3526 -0.8710
  330MOL0     H43503   0.090   2.696  11.046  2.1271  0.2674  0.0858
  330MOL0     H43504   0.100   2.524  11.063  0.5619 -0.7368  1.3224
  330MOL0     H43505  -0.033   2.705  11.276 -1.3749 -0.0365 -0.0000
  330MOL0     H43506  -0.005   2.531  11.287  0.7809 -1.2625 -1.5362
  330MOL0     H43507  -0.144   2.493  11.091  1.4816 -0.7074  0.6366
  330MOL0     H43508  -0.167   2.673  11.075 -4.4546  0.7604  1.3960
  330MOL0     H43509  -0.265   2.602  11.325 -2.3431  0.0785 -0.0900
  330MOL0     H43510  -0.342   2.675  11.174 -0.5242 -0.9501 -1.8470
  330MOL0     H43511  -0.422   2.486  11.099  0.8000 -1.8754 -0.5040
  330MOL0     H43512  -0.465   2.466  11.257 -1.1362  1.8589 -0.0885
  330MOL0     H43513  -0.241   2.312  11.418 -1.2456  0.0564  0.7735
  330MOL0     H43514  -0.057   1.983  11.278  0.9213 -0.1232 -0.0315
  330MOL0     H43515  -0.133   2.063  11.417 -0.1380  1.4883 -0.6652
  330MOL0     H43516   0.111   2.061  11.443  1.5933 -0.2735 -0.8602
  330MOL0     H43517   0.031   2.218  11.425 -0.0408 -2.0065  2.4177
  330MOL0     H43518   0.175   2.067  11.193 -0.6234 -0.7372  0.3142
  330MOL0     H43519   0.108   2.225  11.176  1.0287  0.8129  0.2097
  330MOL0     H43520   0.264   2.331  11.324 -0.9521 -0.2424  2.3062
  330MOL0     H43521   0.351   2.227  11.215  1.4736  0.1915  1.1831
  330MOL0     H43522   0.581   2.187  11.247  1.1237 -2.4957 -0.3587
  330MOL0     H43523   0.791   2.239  11.325 -0.6869 -1.7393 -1.1555
  330MOL0     H43524   1.117   2.535  11.458 -1.3976 -1.9569 -1.1531
  330MOL0     H43525   1.339   2.569  11.535 -2.3708  1.8559  0.0411
  330MOL0     H43526   1.582   2.481  11.474  1.5236 -0.0763 -1.4402
  330MOL0     H43527   1.551   2.298  11.469 -0.8939 -1.5498  3.0756
  330MOL0     H43528   1.792   2.352  11.517  1.1633  2.9458 -0.2210
  330MOL0     H43529   1.712   2.272  11.646  0.3413 -0.4944 -1.5757
  330MOL0     H43530   1.701   2.481  11.767  1.2907  0.2213  1.2170
  330MOL0     H43531   1.759   2.576  11.623  1.6455 -0.7959 -2.7612
  330MOL0     H43532   1.943   2.550  11.773  0.8705 -1.2260  0.6212
  330MOL0     H43533   1.912   2.376  11.789  2.5599 -3.3684 -2.3774
  330MOL0     H43534   1.974   2.525  11.525  1.3441  2.1172  2.1420
  330MOL0     H43535   1.995   2.352  11.551  3.8972  0.1860 -1.6514
  330MOL0     H43536   2.165   2.392  11.713  1.0364 -1.1735 -0.8322
  330MOL0     H43537   2.188   2.556  11.651 -4.6799  2.0198 -0.5735
  330MOL0     H43538   2.235   2.302  11.496  3.5394 -1.0373 -0.0010
  330MOL0     H43539   2.216   2.446  11.412  0.7070 -1.9883 -0.5151
  330MOL0     H43540   2.417   2.541  11.525  1.7804 -0.6958 -1.0451
  330MOL0     H43541   2.442   2.386  11.444 -0.3107 -0.8092  0.5372
  330MOL0     H43542   1.379   2.170  11.634 -0.6190  1.4972  1.4674
  330MOL0     H43543   1.147   2.114  11.575  1.0593 -0.4702 -1.7395
  330MOL0     H43544   0.641   2.206  11.738 -0.6577 -2.1044 -0.3899
  330MOL0     H43545   0.429   2.156  11.645 -0.5977  0.0457  0.1349
  330MOL0     H43546   0.791   2.619  10.896 -0.0348 -3.0244 -0.6555
  330MOL0     H43547   1.020   2.610  10.949  0.3569  1.7212  1.7601
  330MOL0     H43548   1.313   2.684  11.320  1.1566  0.0924  0.3124
  330MOL0     H43549   1.540   2.729  11.384  2.0990  0.1949 -0.6194
  330MOL0     H43550   1.854   2.533  11.143  0.7968  1.3670 -1.2654
  330MOL0     H43551   1.952   2.609  11.268  0.2646 -0.2811  0.2099
  330MOL0     H43552   1.806   2.760  11.029 -1.4092  1.5523  1.8109
  330MOL0     H43553   1.914   2.834  11.148  0.9004 -2.1943  1.0823
  330MOL0     H43554   1.951   2.615  10.949 -1.0896  0.8815  0.0149
  330MOL0     H43555   2.086   2.639  11.060  0.4473  1.6555  0.0713
  330MOL0     H43556   2.078   2.716  10.818 -0.9470 -0.0508 -0.5997
  330MOL0     H43557   1.955   2.833  10.852 -1.7503 -1.4882  0.4631
  330MOL0     H43558   2.323   3.020  10.930 -0.3057  0.5989 -0.7251
  330MOL0     H43559   1.678   2.498  11.050 -0.5846 -1.2091  1.2756
  330MOL0     H43560   1.441   2.436  10.992 -1.0843  0.2431 -1.0224
  331MOL0     O43561   9.634   7.542   2.893 -0.2618 -0.2494 -0.3569
  331MOL0     C43562   9.700   7.630   2.954  0.1275  0.3217  0.4309
  331MOL0     O43563   9.651   7.756   2.994 -0.5383  0.0865  0.4692
  331MOL0     C43564   9.519   7.766   2.995 -0.2139  0.0857 -0.0921
  331MOL0     C43565   9.433   7.688   3.075  0.9697  0.9800 -0.1065
  331MOL0     C43566   9.293   7.718   3.093 -0.4896 -0.1146  0.2438
  331MOL0     C43567   9.237   7.826   3.026 -0.1670 -0.7231 -0.2344
  331MOL0     O43568   9.106   7.872   3.049  0.8984 -0.5145  0.4029
  331MOL0     C43569   9.048   7.984   2.977  0.3960 -0.1990 -0.1049
  331MOL0     C43570   8.895   7.979   3.003  0.1110  0.3749  0.2784
  331MOL0     C43571   8.863   7.995   3.149  0.0139  0.0275 -0.5079
  331MOL0     C43572   8.711   8.006   3.158  0.7630 -1.0373  0.1434
  331MOL0     C43573   8.668   7.999   3.298 -0.1956  0.4260 -0.7816
  331MOL0     C43574   8.514   8.020   3.312 -0.5300 -0.6744  0.3853
  331MOL0     C43575   8.426   7.980   3.432  0.1483 -0.5816 -0.7993
  331MOL0     C43576   8.278   8.024   3.428 -1.0967  0.2169 -0.2414
  331MOL0     N43577   8.211   7.982   3.550 -0.5088  0.8851  0.0385
  331MOL0     C43578   8.217   8.063   3.657 -0.5667  0.2326  0.7404
  331MOL0     C43579   8.164   7.978   3.750  0.1565 -0.4610 -0.2472
  331MOL0     C43580   8.156   8.009   3.892 -0.4888 -0.5978 -0.3113
  331MOL0     C43581   8.021   8.079   3.909  0.2030 -0.3002 -0.3204
  331MOL0     C43582   8.012   8.104   4.063 -0.0002 -0.6241  0.0469
  331MOL0     C43583   7.863   8.139   4.092 -0.4563 -0.4558  0.8991
  331MOL0     O43584   7.793   8.025   4.140  0.2947  0.1968  1.5121
  331MOL0     C43585   7.661   8.024   4.168  0.1303  0.7455 -0.0488
  331MOL0     C43586   7.584   8.145   4.155 -0.2121  0.3535  0.0209
  331MOL0     C43587   7.449   8.150   4.192  0.8219 -0.1807 -0.2083
  331MOL0     C43588   7.386   8.039   4.242  0.0970  0.1635 -0.1095
  331MOL0     C43589   7.248   8.034   4.281 -0.1741 -0.7206 -0.7460
  331MOL0     O43590   7.193   8.153   4.302  0.2341  0.2545 -0.6295
  331MOL0     C43591   7.059   8.149   4.327 -0.8391  1.0036 -0.7703
  331MOL0     C43592   7.006   8.166   4.456 -0.4698  0.4643 -0.2243
  331MOL0     C43593   6.866   8.175   4.475 -0.3404 -0.5491 -0.2141
  331MOL0     C43594   6.777   8.159   4.364 -0.1645 -0.6477 -0.1124
  331MOL0     O43595   6.649   8.173   4.399  0.1409  1.0837 -0.1698
  331MOL0     C43596   6.556   8.198   4.297 -0.2010  0.1818 -0.5402
  331MOL0     C43597   6.417   8.209   4.354 -0.9676  0.9260 -0.1465
  331MOL0     C43598   6.389   8.066   4.414 -1.0944 -0.0067  0.6278
  331MOL0     C43599   6.233   8.026   4.414 -0.5519 -0.7539  0.4584
  331MOL0     C43600   6.197   7.895   4.481 -0.1698  0.6145 -0.3675
  331MOL0     C43601   6.040   7.859   4.497 -0.0138  0.5954 -0.8784
  331MOL0     C43602   5.966   7.874   4.363  0.9196  0.6763  0.7815
  331MOL0     C43603   5.845   7.773   4.358 -0.3665 -0.3058 -0.6020
  331MOL0    Cl43604   5.705   7.827   4.461 -0.1880 -0.0329 -0.3706
  331MOL0     C43605   6.829   8.118   4.236 -0.1402 -0.1122  0.1197
  331MOL0     C43606   6.969   8.126   4.221 -0.1750  0.2327  0.5234
  331MOL0     O43607   7.188   7.923   4.289  0.5075  0.3192 -0.2664
  331MOL0     C43608   7.469   7.924   4.270  0.4680 -0.0264  0.5996
  331MOL0     C43609   7.603   7.912   4.230  0.4770 -0.4349 -0.7758
  331MOL0     N43610   8.120   7.860   3.695 -0.0014  0.3251 -0.4356
  331MOL0     N43611   8.153   7.860   3.571 -0.5905  0.3146 -0.1268
  331MOL0     C43612   9.326   7.899   2.935 -0.5858  0.0051  0.5308
  331MOL0     C43613   9.464   7.870   2.920 -0.7763  0.4749 -0.2790
  331MOL0     C43614   9.826   7.602   3.003  0.0870  1.1493  0.3855
  331MOL0     C43615   9.876   7.654   3.129 -0.7520  1.0998  0.0475
  331MOL0     C43616  10.013   7.632   3.156  0.5413  0.2289  0.5476
  331MOL0     C43617  10.095   7.545   3.073  0.1056 -0.6571 -0.3699
  331MOL0     O43618  10.215   7.497   3.105  0.2250  0.3959 -0.2697
  331MOL0     C43619  10.288   7.592   3.190  1.5475  0.6401  0.7180
  331MOL0     C43620  10.430   7.532   3.211  0.1525 -0.0572  1.1438
  331MOL0     C43621  10.509   7.614   3.317  0.0803  0.2815  0.3662
  331MOL0     C43622  10.637   7.533   3.346 -0.0915 -0.4064 -0.3801
  331MOL0     C43623  10.693   7.600   3.453  0.3832 -0.2446 -0.1469
  331MOL0     C43624  10.739   7.656   3.546  0.5173 -0.5089 -0.5789
  331MOL0     C43625  10.038   7.487   2.959  0.1576 -0.4529 -0.3497
  331MOL0     C43626   9.913   7.519   2.923  0.3703 -0.5643 -0.8260
  331MOL0     H43627   9.465   7.600   3.130  0.6306  1.8014  1.4695
  331MOL0     H43628   9.240   7.664   3.171 -0.6582 -0.3971 -0.0632
  331MOL0     H43629   9.071   7.990   2.870 -2.0583  0.1233 -0.6841
  331MOL0     H43630   9.090   8.076   3.018  1.9261  0.5012 -2.9945
  331MOL0     H43631   8.870   7.882   2.959 -2.4004  1.0114  0.1689
  331MOL0     H43632   8.846   8.050   2.935  1.2864 -0.5357 -1.5929
  331MOL0     H43633   8.902   8.083   3.200  2.3258 -0.7513 -0.8507
  331MOL0     H43634   8.893   7.905   3.204 -0.1219  0.6064  0.5510
  331MOL0     H43635   8.671   8.101   3.121  0.6114 -0.1685  2.3474
  331MOL0     H43636   8.672   7.918   3.107 -0.0002  0.1200 -1.3642
  331MOL0     H43637   8.730   8.072   3.351 -0.2327  0.3127 -0.5803
  331MOL0     H43638   8.684   7.898   3.338 -0.8786  1.5784  2.6575
  331MOL0     H43639   8.469   7.976   3.222  2.9009 -1.3599 -1.2079
  331MOL0     H43640   8.499   8.127   3.301  0.7328 -0.3429  1.5449
  331MOL0     H43641   8.430   7.871   3.441  2.9221 -0.4555  0.6123
  331MOL0     H43642   8.466   8.018   3.526 -0.4439 -0.7896 -0.4569
  331MOL0     H43643   8.229   7.983   3.339  0.0322  1.2041 -1.3748
  331MOL0     H43644   8.274   8.133   3.420  3.7559  0.5030 -2.2522
  331MOL0     H43645   8.264   8.160   3.671  1.9707 -1.0787  1.9650
  331MOL0     H43646   8.242   8.064   3.930 -0.8258  1.6121 -2.5166
  331MOL0     H43647   8.152   7.911   3.940  2.1267 -2.4381 -3.4671
  331MOL0     H43648   7.943   8.016   3.865 -0.1184 -0.4535  0.4663
  331MOL0     H43649   8.009   8.178   3.864 -0.1501  0.2595  0.9740
  331MOL0     H43650   8.045   8.019   4.123  2.0307 -0.9071 -1.3791
  331MOL0     H43651   8.082   8.187   4.075  2.5766 -2.2144 -2.5253
  331MOL0     H43652   7.827   8.182   3.999 -1.4208 -1.6363  0.7004
  331MOL0     H43653   7.849   8.213   4.171  1.4042  1.7606 -0.7214
  331MOL0     H43654   7.634   8.237   4.124  1.8486 -1.0185 -0.9777
  331MOL0     H43655   7.387   8.236   4.166 -1.6200 -2.2918 -1.8647
  331MOL0     H43656   7.077   8.203   4.529  0.7750  1.0885 -1.6911
  331MOL0     H43657   6.813   8.198   4.567 -1.3099 -2.2041 -0.3119
  331MOL0     H43658   6.561   8.116   4.224  0.2261  0.1124 -0.4404
  331MOL0     H43659   6.589   8.288   4.246  1.3935 -0.8323 -1.4072
  331MOL0     H43660   6.358   8.225   4.263  2.5634 -2.2260 -3.3442
  331MOL0     H43661   6.402   8.294   4.421 -2.8185  0.7056 -0.2297
  331MOL0     H43662   6.439   8.058   4.512  2.7156 -0.2716 -1.1553
  331MOL0     H43663   6.434   7.996   4.343 -2.5688 -1.5220  1.1136
  331MOL0     H43664   6.186   8.105   4.474 -0.1018 -1.4072  1.7052
  331MOL0     H43665   6.195   8.034   4.312 -1.1904 -2.7767  0.4993
  331MOL0     H43666   6.241   7.886   4.581  0.2762  0.5949 -0.5620
  331MOL0     H43667   6.245   7.819   4.419 -2.5558 -0.5791 -0.8666
  331MOL0     H43668   5.977   7.920   4.563 -2.5970 -2.5094 -0.2054
  331MOL0     H43669   6.027   7.755   4.528 -0.0806  0.2180 -2.0971
  331MOL0     H43670   5.935   7.975   4.335 -2.9857 -0.3085  0.9434
  331MOL0     H43671   6.032   7.833   4.287  0.6058 -0.9104  1.3262
  331MOL0     H43672   5.867   7.670   4.389  2.0733  0.1824 -0.5253
  331MOL0     H43673   5.818   7.761   4.253  1.9776 -2.3361 -1.0644
  331MOL0     H43674   6.775   8.082   4.149  0.6331  0.7061 -0.7257
  331MOL0     H43675   7.001   8.112   4.118  0.1867  2.5305  0.2839
  331MOL0     H43676   7.419   7.834   4.305 -2.3616  0.9776 -0.5972
  331MOL0     H43677   7.661   7.823   4.254  2.7849  1.7716  2.8931
  331MOL0     H43678   9.284   7.983   2.880 -0.2851 -0.5431 -0.5739
  331MOL0     H43679   9.528   7.930   2.856  3.1126  0.5166  3.2146
  331MOL0     H43680   9.812   7.715   3.190  0.4908  3.3312 -0.7684
  331MOL0     H43681  10.064   7.681   3.239  3.3874  0.9699 -1.5086
  331MOL0     H43682  10.236   7.610   3.285 -0.6295  0.8091 -0.4315
  331MOL0     H43683  10.288   7.686   3.135 -1.7062 -0.7099 -1.9477
  331MOL0     H43684  10.424   7.424   3.229 -0.6118  0.0585  1.6358
  331MOL0     H43685  10.493   7.534   3.122  0.2656 -0.5667  1.2097
  331MOL0     H43686  10.444   7.618   3.405 -1.0478  0.9783 -0.4639
  331MOL0     H43687  10.532   7.716   3.285 -1.3028  0.9390  1.3358
  331MOL0     H43688  10.603   7.433   3.374 -1.8283  0.3487  0.3982
  331MOL0     H43689  10.710   7.547   3.266 -0.1869  3.0001 -0.0352
  331MOL0     H43690  10.776   7.691   3.640 -1.2450 -0.9090  0.2977
  331MOL0     H43691  10.103   7.424   2.900  1.3063 -1.0422  1.4848
  331MOL0     H43692   9.869   7.470   2.837 -2.0426 -1.3672  0.7566
  332MOL0     O43693   9.996   0.983   6.258  0.4124  0.3335  0.2547
  332MOL0     C43694  10.001   1.084   6.323 -0.3585  0.9309  0.5012
  332MOL0     O43695   9.903   1.185   6.304 -0.4078 -0.5055 -0.3370
  332MOL0     C43696   9.784   1.165   6.241 -0.3542  0.4539  0.2032
  332MOL0     C43697   9.744   1.266   6.164 -0.3740 -0.6279  0.1543
  332MOL0     C43698   9.629   1.248   6.091 -0.0711 -0.2083  0.0159
  332MOL0     C43699   9.557   1.121   6.088 -0.9488  0.3239  0.0025
  332MOL0     O43700   9.440   1.120   6.014  0.6166 -0.1466  0.3410
  332MOL0     C43701   9.374   0.989   6.016 -0.5147 -0.0293 -0.6242
  332MOL0     C43702   9.250   0.990   5.936  0.8896 -0.4385  0.7858
  332MOL0     C43703   9.246   1.094   5.821  0.7674  0.2299 -0.2294
  332MOL0     C43704   9.095   1.115   5.784 -0.2116 -0.1100 -0.6682
  332MOL0     C43705   9.082   1.174   5.644 -0.0085  0.5256 -0.0424
  332MOL0     C43706   9.108   1.324   5.652  0.4368  0.8319  0.1119
  332MOL0     C43707   9.203   1.372   5.534  0.5522 -0.1196 -0.4037
  332MOL0     C43708   9.162   1.343   5.391  0.9645  0.2135  0.4400
  332MOL0     N43709   9.043   1.418   5.349 -0.6410  0.4629  0.2366
  332MOL0     C43710   8.918   1.396   5.372 -0.0512 -0.2796 -0.2118
  332MOL0     C43711   8.845   1.481   5.302 -0.2262 -0.3878  0.1896
  332MOL0     C43712   8.691   1.495   5.297  0.0006  0.5771 -0.7842
  332MOL0     C43713   8.640   1.604   5.395  0.2050  0.2945 -0.0210
  332MOL0     C43714   8.487   1.593   5.396 -1.2030  0.2982 -0.3185
  332MOL0     C43715   8.447   1.698   5.505 -0.4851 -0.1740 -0.2709
  332MOL0     O43716   8.310   1.676   5.539 -0.1463 -0.5256  0.3135
  332MOL0     C43717   8.235   1.773   5.603 -1.2631 -0.9992 -0.0622
  332MOL0     C43718   8.290   1.885   5.664 -0.8501  0.1410 -0.1085
  332MOL0     C43719   8.228   1.974   5.745 -0.0893 -0.5431 -0.7673
  332MOL0     C43720   8.091   1.946   5.776  0.9529  0.9450 -0.6148
  332MOL0     C43721   8.004   2.029   5.859  0.1349 -0.7254  0.8415
  332MOL0     O43722   7.872   1.995   5.883 -0.5638  0.1143  0.5382
  332MOL0     C43723   7.799   2.088   5.952  1.1388  0.5272  0.7939
  332MOL0     C43724   7.719   2.179   5.877 -0.6650 -1.0160  0.3198
  332MOL0     C43725   7.631   2.266   5.935  0.1200  0.0001  0.0629
  332MOL0     C43726   7.604   2.257   6.071 -0.4021 -0.5488 -0.5808
  332MOL0     O43727   7.525   2.357   6.115 -0.3554  0.1327 -0.5165
  332MOL0     C43728   7.436   2.318   6.225 -0.5295 -0.0402 -0.0292
  332MOL0     C43729   7.321   2.415   6.246  0.5186 -0.6112  0.3462
  332MOL0     C43730   7.199   2.397   6.151  0.2569 -0.2442 -0.2324
  332MOL0     C43731   7.116   2.266   6.176  0.7683 -0.3690 -0.0091
  332MOL0     C43732   6.969   2.286   6.124  0.6179 -0.5564 -1.1812
  332MOL0     C43733   6.953   2.233   5.983  0.3974 -0.6578  0.1552
  332MOL0     C43734   6.809   2.252   5.932 -0.5510 -0.6580 -0.5650
  332MOL0     C43735   6.767   2.137   5.843  0.3547 -0.2912 -0.7696
  332MOL0    Cl43736   6.746   1.990   5.938  0.1333  0.8440  0.0691
  332MOL0     C43737   7.672   2.151   6.148 -0.6066 -0.7092  0.0620
  332MOL0     C43738   7.774   2.076   6.086  0.3679 -0.1713 -0.0405
  332MOL0     O43739   8.046   2.144   5.888 -1.6265  0.1778  0.1254
  332MOL0     C43740   8.025   1.841   5.706  0.3983 -0.4215  0.6390
  332MOL0     C43741   8.096   1.760   5.614 -0.6832 -0.7929  0.3799
  332MOL0     N43742   8.927   1.568   5.238 -0.0863  0.4007 -0.0831
  332MOL0     N43743   9.045   1.520   5.258 -0.0929 -1.2264  0.3196
  332MOL0     C43744   9.602   1.017   6.171 -0.4211  0.0187 -0.4076
  332MOL0     C43745   9.719   1.041   6.249  0.0893  1.1461 -0.0598
  332MOL0     C43746  10.105   1.092   6.437  1.1450 -0.2428 -0.5177
  332MOL0     C43747  10.206   0.991   6.441 -0.1882  0.8411 -0.3369
  332MOL0     C43748  10.298   1.006   6.546 -0.3268  0.9200 -0.4408
  332MOL0     C43749  10.292   1.101   6.647  0.2877  0.2344  0.3246
  332MOL0     O43750  10.381   1.112   6.754 -0.0075 -0.1430  0.1138
  332MOL0     C43751  10.511   1.051   6.751 -0.0047 -0.1273  0.1154
  332MOL0     C43752  10.618   1.110   6.854  0.1835  0.0166 -0.5113
  332MOL0     C43753  10.749   1.045   6.817 -0.9536 -0.5075 -0.9645
  332MOL0     C43754  10.869   1.087   6.897 -0.9183  0.7940  0.2810
  332MOL0     C43755  10.998   1.073   6.819 -0.3105  0.6352 -0.1848
  332MOL0     C43756  11.102   1.056   6.756  0.8288  0.6036  0.6630
  332MOL0     C43757  10.181   1.177   6.644 -0.4942  0.1911 -0.5961
  332MOL0     C43758  10.084   1.175   6.548  0.7570  0.1989  0.4780
  332MOL0     H43759   9.808   1.354   6.167  0.0321 -0.8432 -1.2589
  332MOL0     H43760   9.584   1.326   6.030  1.3130  0.3018 -0.4013
  332MOL0     H43761   9.356   0.981   6.124  0.5542  2.3586 -0.1887
  332MOL0     H43762   9.443   0.909   5.986 -0.4202  0.3708 -1.4976
  332MOL0     H43763   9.162   1.007   5.998  1.2789 -1.8532  1.7590
  332MOL0     H43764   9.234   0.890   5.894 -1.1864  0.8042 -1.6894
  332MOL0     H43765   9.294   1.048   5.734  0.6916 -2.0535  0.8736
  332MOL0     H43766   9.295   1.189   5.846  0.2438  0.5318 -0.3194
  332MOL0     H43767   9.049   1.016   5.784 -1.7359  0.5493 -2.1589
  332MOL0     H43768   9.041   1.177   5.856  0.3833  0.1084 -0.4074
  332MOL0     H43769   8.983   1.158   5.602 -0.7902  1.0774  1.4898
  332MOL0     H43770   9.161   1.121   5.591 -1.0343 -1.0764 -0.0397
  332MOL0     H43771   9.156   1.353   5.746 -1.2361  0.4094  1.1293
  332MOL0     H43772   9.009   1.370   5.657  0.1117  0.0264  1.4097
  332MOL0     H43773   9.216   1.480   5.532  0.2262 -0.0961 -2.5532
  332MOL0     H43774   9.299   1.325   5.556  0.7459 -0.7452 -2.3747
  332MOL0     H43775   9.142   1.237   5.371 -0.5111  0.2857  1.3313
  332MOL0     H43776   9.242   1.370   5.322  0.5768 -2.9261 -1.4431
  332MOL0     H43777   8.881   1.324   5.444  2.4057 -1.3800  0.0659
  332MOL0     H43778   8.648   1.396   5.317  1.7711  0.0700  0.8849
  332MOL0     H43779   8.673   1.514   5.191  2.1887 -0.2040 -1.3593
  332MOL0     H43780   8.658   1.707   5.364  1.9581 -0.1840 -0.7186
  332MOL0     H43781   8.674   1.574   5.495 -0.4810 -2.4500 -0.5213
  332MOL0     H43782   8.442   1.602   5.297  0.1010 -1.8191 -1.1757
  332MOL0     H43783   8.469   1.499   5.449 -0.2564  1.4079  2.1106
  332MOL0     H43784   8.468   1.798   5.465  0.0224  1.0843  2.9187
  332MOL0     H43785   8.503   1.680   5.597 -0.8798 -0.0977 -0.0160
  332MOL0     H43786   8.392   1.918   5.653 -0.3134 -1.2558  0.4791
  332MOL0     H43787   8.265   2.071   5.777  0.0690 -1.4286  2.0156
  332MOL0     H43788   7.745   2.174   5.772  0.6423  0.7787  0.5192
  332MOL0     H43789   7.562   2.332   5.884  0.0436  0.0702  0.2567
  332MOL0     H43790   7.495   2.304   6.316  0.7370  0.3928 -0.7488
  332MOL0     H43791   7.389   2.222   6.204  2.9255 -1.8821 -0.1189
  332MOL0     H43792   7.366   2.512   6.225 -2.5744  0.3094 -2.9681
  332MOL0     H43793   7.294   2.402   6.351 -1.8373 -2.8396 -0.4266
  332MOL0     H43794   7.234   2.419   6.050  1.5677 -1.8231 -0.1527
  332MOL0     H43795   7.127   2.472   6.185  2.1073  0.2050  3.0717
  332MOL0     H43796   7.150   2.182   6.115 -0.4281 -1.0518  0.2465
  332MOL0     H43797   7.134   2.240   6.280  3.4555  0.0644 -0.2939
  332MOL0     H43798   6.939   2.391   6.133  1.8954 -0.2968  0.9948
  332MOL0     H43799   6.907   2.230   6.195  0.5248 -0.6570 -1.3430
  332MOL0     H43800   6.980   2.129   6.002 -1.2537 -0.7415  2.7136
  332MOL0     H43801   7.021   2.280   5.912  1.6880 -0.5751  1.4142
  332MOL0     H43802   6.734   2.257   6.012  1.1441  0.7430  1.0491
  332MOL0     H43803   6.808   2.344   5.874 -2.3107 -0.2631  0.0202
  332MOL0     H43804   6.835   2.125   5.758 -2.6772 -0.6186 -3.3441
  332MOL0     H43805   6.671   2.166   5.800 -1.8923 -0.5024  3.6043
  332MOL0     H43806   7.649   2.135   6.253  0.2212 -0.5207  0.2797
  332MOL0     H43807   7.834   2.006   6.143 -1.1312 -2.4551 -1.0974
  332MOL0     H43808   7.917   1.829   5.701  0.4326 -0.1665 -1.7899
  332MOL0     H43809   8.038   1.689   5.556 -5.4736  3.6385 -1.0064
  332MOL0     H43810   9.548   0.924   6.187 -0.0114  0.2964  3.3204
  332MOL0     H43811   9.746   0.968   6.325 -4.3001  0.4282  1.0895
  332MOL0     H43812  10.204   0.916   6.363 -3.0331  2.6880 -2.2315
  332MOL0     H43813  10.375   0.929   6.547  0.0327  1.2283 -2.0440
  332MOL0     H43814  10.548   1.070   6.650 -0.8270  0.5967 -0.0520
  332MOL0     H43815  10.501   0.942   6.762 -0.6584 -0.0555  0.2521
  332MOL0     H43816  10.624   1.219   6.845  1.7333 -0.1566 -2.0053
  332MOL0     H43817  10.581   1.092   6.955 -0.1232 -1.2473 -0.8359
  332MOL0     H43818  10.786   1.061   6.716  3.3539 -0.3490  0.4633
  332MOL0     H43819  10.738   0.938   6.833  2.3065 -0.7624  0.2145
  332MOL0     H43820  10.865   1.191   6.931 -2.2732  1.2883 -1.2625
  332MOL0     H43821  10.880   1.020   6.983 -0.0182  2.4362  1.4874
  332MOL0     H43822  11.193   1.024   6.708  0.7923 -0.1771  1.1049
  332MOL0     H43823  10.158   1.244   6.727  2.8481  1.8300 -0.8375
  332MOL0     H43824   9.995   1.237   6.548 -0.3205 -1.1442 -2.5463
  333MOL0     O43825   3.454   2.237   6.736 -0.4277  0.7948  0.5170
  333MOL0     C43826   3.511   2.278   6.841  0.3047  0.0251 -0.4123
  333MOL0     O43827   3.459   2.275   6.965 -0.4710 -0.3498  0.0280
  333MOL0     C43828   3.335   2.225   7.000  0.0654 -0.0821 -0.1619
  333MOL0     C43829   3.278   2.262   7.125 -0.0975 -0.2108  0.0496
  333MOL0     C43830   3.142   2.238   7.164 -0.4928 -0.0313 -0.0897
  333MOL0     C43831   3.071   2.153   7.086  0.9054  0.5707  0.3612
  333MOL0     O43832   2.958   2.086   7.134  0.1255  0.2934 -0.6570
  333MOL0     C43833   2.878   2.149   7.246  0.6573  0.6248 -0.3436
  333MOL0     C43834   2.884   2.054   7.375  0.4429 -0.1543 -1.2513
  333MOL0     C43835   2.783   2.110   7.472  0.7119 -0.1916 -0.2589
  333MOL0     C43836   2.760   2.017   7.590  0.0096 -0.1307 -1.0552
  333MOL0     C43837   2.652   2.066   7.683 -0.4468 -0.1079 -0.0059
  333MOL0     C43838   2.599   1.966   7.779  0.2914  0.0933  0.4549
  333MOL0     C43839   2.467   2.011   7.824  0.0317 -0.0770  0.5615
  333MOL0     C43840   2.403   1.912   7.926 -0.2903  0.2981  0.4258
  333MOL0     N43841   2.433   1.931   8.066  0.4337 -0.3645  0.0373
  333MOL0     C43842   2.352   1.883   8.171 -0.9175 -0.3064 -1.0542
  333MOL0     C43843   2.415   1.924   8.287  0.5212  0.1518  0.1476
  333MOL0     C43844   2.363   1.880   8.426 -0.3796 -0.1239 -0.2658
  333MOL0     C43845   2.279   1.987   8.492 -1.0487  0.0572  0.3376
  333MOL0     C43846   2.161   2.030   8.399 -1.0058 -0.1088 -0.4808
  333MOL0     C43847   2.067   2.131   8.469 -0.6942 -0.4549 -0.0444
  333MOL0     O43848   1.999   2.064   8.577  0.0175  0.2978  0.1403
  333MOL0     C43849   1.877   2.008   8.547 -0.6174 -0.2904 -0.7653
  333MOL0     C43850   1.793   1.976   8.655  0.3324 -0.4640 -0.3425
  333MOL0     C43851   1.664   1.924   8.643  0.5927  0.0144  0.1813
  333MOL0     C43852   1.604   1.900   8.517  0.1129 -0.2306 -0.1395
  333MOL0     C43853   1.463   1.880   8.492  0.2158  0.0337  0.4540
  333MOL0     O43854   1.419   1.868   8.367 -0.6473  0.1659  0.2836
  333MOL0     C43855   1.281   1.871   8.358  0.2589  0.3710 -0.0877
  333MOL0     C43856   1.205   1.758   8.347  0.0614  0.2457 -0.6547
  333MOL0     C43857   1.058   1.767   8.356  0.4204  0.7252  0.0339
  333MOL0     C43858   0.997   1.890   8.375 -0.2332 -0.0308 -0.3635
  333MOL0     O43859   0.855   1.883   8.364 -1.0052  0.1403 -0.3960
  333MOL0     C43860   0.797   1.932   8.487 -0.0230  0.5108 -0.1449
  333MOL0     C43861   0.642   1.923   8.482  0.5087  0.2222  0.4608
  333MOL0     C43862   0.589   1.781   8.459 -0.3950  0.2290  0.1613
  333MOL0     C43863   0.444   1.776   8.494 -0.1041 -0.4212  0.3618
  333MOL0     C43864   0.417   1.654   8.587 -0.3312 -0.1609  0.1332
  333MOL0     C43865   0.265   1.637   8.608  0.0641  0.0429 -0.0279
  333MOL0     C43866   0.203   1.736   8.707 -0.0415 -0.1020  0.4073
  333MOL0     C43867   0.055   1.716   8.716 -1.0135  0.0088  0.7165
  333MOL0    Cl43868  -0.017   1.737   8.558 -0.5333 -0.5528  0.1803
  333MOL0     C43869   1.076   2.002   8.377 -0.2246 -0.4444  0.0708
  333MOL0     C43870   1.219   1.996   8.375 -0.0367  0.6061 -0.0034
  333MOL0     O43871   1.386   1.886   8.590 -0.4510  0.3320 -0.0687
  333MOL0     C43872   1.695   1.929   8.409 -0.1901  0.0252 -0.6066
  333MOL0     C43873   1.823   1.983   8.426  0.0577 -0.4298 -0.1832
  333MOL0     N43874   2.516   2.013   8.251  0.6662  0.0045 -0.1243
  333MOL0     N43875   2.524   2.019   8.121 -0.1166  0.1471 -0.6100
  333MOL0     C43876   3.128   2.098   6.970  0.6406  0.3691  0.6860
  333MOL0     C43877   3.250   2.144   6.923 -0.8535 -0.0717  0.1254
  333MOL0     C43878   3.648   2.329   6.823  0.2317 -1.1647  0.2501
  333MOL0     C43879   3.716   2.344   6.694 -0.1771 -0.1670 -0.0480
  333MOL0     C43880   3.855   2.364   6.679  0.0740 -0.5406 -0.2055
  333MOL0     C43881   3.934   2.383   6.794  0.0183 -0.1129  0.0297
  333MOL0     O43882   4.070   2.401   6.795 -0.0118 -0.2388 -0.0971
  333MOL0     C43883   4.139   2.372   6.666  0.2586  0.6674 -0.2926
  333MOL0     C43884   4.277   2.427   6.657  0.4883  0.0858 -0.0107
  333MOL0     C43885   4.368   2.384   6.539  0.2695  0.0079  0.5023
  333MOL0     C43886   4.509   2.412   6.558 -0.8702  0.6388  0.5056
  333MOL0     C43887   4.580   2.375   6.426  0.5101  0.7644 -0.9353
  333MOL0     C43888   4.649   2.326   6.335 -0.3114 -0.1065  0.4182
  333MOL0     C43889   3.863   2.384   6.919 -0.5354 -0.3925  0.5173
  333MOL0     C43890   3.730   2.353   6.932  2.1104  1.3127 -0.0011
  333MOL0     H43891   3.328   2.322   7.201 -2.0934  0.5069  0.8914
  333MOL0     H43892   3.122   2.298   7.252  0.8856  1.8556 -0.9850
  333MOL0     H43893   2.776   2.152   7.207  0.5872  2.2584 -0.0858
  333MOL0     H43894   2.911   2.247   7.282 -0.8468  0.5636  1.3825
  333MOL0     H43895   2.982   2.039   7.423  0.2630 -0.4258 -0.9633
  333MOL0     H43896   2.849   1.959   7.333  1.8682 -0.7901 -1.0882
  333MOL0     H43897   2.683   2.121   7.430  0.8842  2.2779 -0.1367
  333MOL0     H43898   2.833   2.203   7.501  0.3580 -0.2214  0.4589
  333MOL0     H43899   2.735   1.920   7.545 -0.0802 -0.6835  0.1385
  333MOL0     H43900   2.851   2.007   7.650 -2.3959 -1.2526  2.7865
  333MOL0     H43901   2.569   2.097   7.618  1.1775 -1.8375 -3.1888
  333MOL0     H43902   2.677   2.158   7.735  0.7579  0.3413 -1.3132
  333MOL0     H43903   2.665   1.948   7.864  0.3568  0.7278  0.5427
  333MOL0     H43904   2.590   1.870   7.727 -0.8429  0.2581  0.3226
  333MOL0     H43905   2.475   2.110   7.870  1.9258  0.1121 -0.0878
  333MOL0     H43906   2.404   2.011   7.734 -1.9374 -3.2615  1.7415
  333MOL0     H43907   2.452   1.817   7.904  1.4293  1.6559 -1.9995
  333MOL0     H43908   2.295   1.902   7.907 -0.2051  1.2377 -0.6039
  333MOL0     H43909   2.267   1.815   8.167  1.3478 -3.5262  1.1747
  333MOL0     H43910   2.440   1.848   8.497 -1.7713 -0.8974  0.9400
  333MOL0     H43911   2.300   1.791   8.422 -1.8951  0.9079 -0.2072
  333MOL0     H43912   2.341   2.073   8.516  0.7483  0.1740 -3.8462
  333MOL0     H43913   2.243   1.936   8.582  0.8641  0.1311  1.1740
  333MOL0     H43914   2.204   2.082   8.313  1.3837  0.3346  0.9151
  333MOL0     H43915   2.111   1.940   8.362  0.6255 -1.5899  0.7947
  333MOL0     H43916   1.998   2.168   8.392 -1.1444  0.4933  0.7971
  333MOL0     H43917   2.120   2.218   8.507  1.1950 -2.5974  2.5909
  333MOL0     H43918   1.834   1.984   8.755 -2.9567  0.7991  1.0480
  333MOL0     H43919   1.599   1.910   8.728  0.6934 -0.2378  0.2173
  333MOL0     H43920   1.267   1.670   8.339  1.4745  1.0312  0.8869
  333MOL0     H43921   1.004   1.676   8.331  0.8896  1.4850 -4.8562
  333MOL0     H43922   0.827   2.037   8.491 -2.0644  1.1103  0.3789
  333MOL0     H43923   0.831   1.872   8.572 -3.2155 -3.5066 -1.4076
  333MOL0     H43924   0.607   1.995   8.408  1.9312  0.8291  0.3374
  333MOL0     H43925   0.610   1.962   8.579 -1.2342 -1.8118  0.7808
  333MOL0     H43926   0.648   1.700   8.504  0.1000  1.1748  1.2675
  333MOL0     H43927   0.594   1.780   8.350 -1.5912  0.9545  0.0906
  333MOL0     H43928   0.402   1.872   8.526 -1.5521 -1.1661  0.8081
  333MOL0     H43929   0.390   1.768   8.399  0.8118  4.7741 -0.9152
  333MOL0     H43930   0.459   1.674   8.686 -0.7941  0.3423  0.2321
  333MOL0     H43931   0.465   1.564   8.547  0.5490  0.0316  0.7305
  333MOL0     H43932   0.257   1.538   8.653  0.3871  1.8414  4.5077
  333MOL0     H43933   0.214   1.634   8.511 -3.4331 -2.1983  1.6659
  333MOL0     H43934   0.252   1.753   8.804  0.0734 -0.3710  0.3973
  333MOL0     H43935   0.222   1.836   8.668  1.0520  0.0612  1.3089
  333MOL0     H43936   0.009   1.782   8.790 -0.7298 -2.8426  3.6564
  333MOL0     H43937   0.032   1.615   8.750 -0.5285  0.0447  1.1645
  333MOL0     H43938   1.032   2.100   8.395  1.6825  0.1289  2.1342
  333MOL0     H43939   1.277   2.088   8.377  0.8411  0.1244 -1.5549
  333MOL0     H43940   1.666   1.892   8.311 -0.0302 -1.5575 -0.0677
  333MOL0     H43941   1.868   2.010   8.331 -1.7558 -1.0909 -1.2853
  333MOL0     H43942   3.070   2.025   6.914  2.5064  0.8550 -2.0819
  333MOL0     H43943   3.277   2.123   6.820 -1.3367  1.2446 -0.2919
  333MOL0     H43944   3.654   2.328   6.607 -1.2498  0.8697  0.5057
  333MOL0     H43945   3.898   2.360   6.580  0.4373 -2.6192 -0.0256
  333MOL0     H43946   4.083   2.426   6.589 -1.0206 -0.5401 -0.2325
  333MOL0     H43947   4.140   2.264   6.654 -2.9132  0.7246 -2.0434
  333MOL0     H43948   4.271   2.535   6.675 -1.3092 -0.0949  0.7500
  333MOL0     H43949   4.328   2.399   6.750  3.4314 -1.2047 -1.8681
  333MOL0     H43950   4.327   2.435   6.452  4.1889 -1.3781 -2.4737
  333MOL0     H43951   4.354   2.276   6.532  2.4038 -0.2472 -1.1272
  333MOL0     H43952   4.538   2.513   6.589  0.5451  0.9749 -1.6822
  333MOL0     H43953   4.537   2.349   6.642  2.4459 -1.2887 -1.7899
  333MOL0     H43954   4.706   2.298   6.249 -3.0938 -2.0008 -0.9724
  333MOL0     H43955   3.923   2.405   7.007  1.1948  2.9498 -1.2738
  333MOL0     H43956   3.679   2.348   7.028  1.7455  2.1164 -0.1476
  334MOL0     O43957   2.521  11.206   5.532 -0.4672  0.4471  0.2989
  334MOL0     C43958   2.477  11.300   5.461 -0.3948 -0.1010 -0.1606
  334MOL0     O43959   2.395  11.397   5.518 -0.1032 -0.4022  0.2775
  334MOL0     C43960   2.316  11.386   5.627  0.3936 -0.1236  0.6982
  334MOL0     C43961   2.289  11.499   5.696 -0.5956  1.3695  0.5036
  334MOL0     C43962   2.230  11.496   5.813 -0.2407 -0.1469  0.4281
  334MOL0     C43963   2.189  11.371   5.867 -0.3344 -0.4859 -0.8774
  334MOL0     O43964   2.125  11.363   5.992  0.2471 -0.2117  0.9665
  334MOL0     C43965   2.101  11.243   6.064 -0.6857 -0.5635 -0.3231
  334MOL0     C43966   2.028  11.259   6.198  0.6342  0.2388  0.4719
  334MOL0     C43967   1.881  11.242   6.198 -0.0051  0.6125  0.7468
  334MOL0     C43968   1.840  11.095   6.167 -0.0515 -0.2821 -1.0546
  334MOL0     C43969   1.680  11.073   6.187 -0.5412  0.0321 -0.9917
  334MOL0     C43970   1.628  11.127   6.329  0.6764 -0.3246  0.1816
  334MOL0     C43971   1.496  11.069   6.362  0.6750  0.9821 -0.4216
  334MOL0     C43972   1.401  11.190   6.397 -0.2519  0.2481 -0.3578
  334MOL0     N43973   1.266  11.138   6.439 -0.3219  0.1473  0.1131
  334MOL0     C43974   1.172  11.095   6.345  1.3349 -1.0237  0.8460
  334MOL0     C43975   1.062  11.056   6.409  0.6627 -0.0373 -0.8682
  334MOL0     C43976   0.927  11.011   6.345 -0.4779  0.2755 -0.1120
  334MOL0     C43977   0.819  11.121   6.339 -0.2305 -0.8975 -0.2705
  334MOL0     C43978   0.802  11.193   6.475  0.2262 -0.0793 -0.2779
  334MOL0     C43979   0.788  11.110   6.608  0.8696 -0.6871  0.1565
  334MOL0     O43980   0.683  11.008   6.594  0.8113 -0.3147  0.2482
  334MOL0     C43981   0.541  11.030   6.603 -1.4931 -0.3843  0.7687
  334MOL0     C43982   0.485  11.156   6.622 -0.1209  0.2045 -0.3584
  334MOL0     C43983   0.338  11.163   6.627 -0.6038  0.2050 -0.9720
  334MOL0     C43984   0.258  11.046   6.617  1.3369  0.3781  0.5208
  334MOL0     C43985   0.108  11.054   6.629 -0.5046 -0.8232 -0.2592
  334MOL0     O43986   0.047  11.172   6.673  0.4812  0.0221  0.2425
  334MOL0     C43987  -0.089  11.187   6.635 -0.1664 -0.4583 -0.0015
  334MOL0     C43988  -0.129  11.317   6.606  0.1665  0.0995  0.1059
  334MOL0     C43989  -0.253  11.348   6.555 -0.0779  0.6474 -0.7231
  334MOL0     C43990  -0.357  11.253   6.556 -0.2981 -0.1923  1.2878
  334MOL0     O43991  -0.477  11.293   6.499  0.2718 -0.0540  0.3393
  334MOL0     C43992  -0.593  11.206   6.496 -0.1022  0.5674  0.6653
  334MOL0     C43993  -0.710  11.284   6.433  1.0572  0.0646  0.1644
  334MOL0     C43994  -0.694  11.285   6.282 -0.7251  0.3861  0.5589
  334MOL0     C43995  -0.817  11.319   6.206  0.6137  0.6085  0.6046
  334MOL0     C43996  -0.804  11.274   6.060  0.3941  0.1125  0.4364
  334MOL0     C43997  -0.847  11.124   6.045  0.0052 -0.4421 -0.0172
  334MOL0     C43998  -0.830  11.066   5.901  0.0545  0.7953 -0.3921
  334MOL0     C43999  -0.826  10.908   5.902 -1.0167 -0.0807 -0.2570
  334MOL0    Cl44000  -0.796  10.871   5.734 -0.3865  0.2794  0.1365
  334MOL0     C44001  -0.326  11.124   6.602 -0.0762 -0.1930  0.3802
  334MOL0     C44002  -0.192  11.089   6.633  0.3610 -0.3693 -0.2718
  334MOL0     O44003   0.053  10.956   6.589 -0.5037 -0.2362  0.7650
  334MOL0     C44004   0.324  10.921   6.593  0.1169  0.5998  0.3634
  334MOL0     C44005   0.463  10.917   6.588 -0.2609  0.1697  0.3691
  334MOL0     N44006   1.087  11.085   6.544 -0.3304 -0.4266  0.4049
  334MOL0     N44007   1.207  11.133   6.563  0.2313  0.0684  0.3596
  334MOL0     C44008   2.213  11.248   5.796  0.1681 -0.8115 -0.0397
  334MOL0     C44009   2.276  11.259   5.670  0.0553  0.7863  0.1639
  334MOL0     C44010   2.514  11.311   5.325  0.4530  0.0033 -0.1209
  334MOL0     C44011   2.462  11.417   5.250  0.1829  0.1250 -0.5087
  334MOL0     C44012   2.498  11.444   5.117  0.4714  0.1904  0.1741
  334MOL0     C44013   2.602  11.355   5.055 -0.4618  0.2317 -0.1271
  334MOL0     O44014   2.639  11.386   4.928 -0.3621 -0.0417  0.0878
  334MOL0     C44015   2.762  11.331   4.869  1.2294  0.3677  0.5575
  334MOL0     C44016   2.814  11.424   4.762  0.2004 -0.7561 -0.0265
  334MOL0     C44017   2.941  11.374   4.701 -0.1430  0.1021 -0.4640
  334MOL0     C44018   3.071  11.376   4.790  0.4974  0.0780  0.3840
  334MOL0     C44019   3.104  11.509   4.842  0.6106  0.1449 -1.0780
  334MOL0     C44020   3.115  11.632   4.862 -1.1517  1.2974 -0.9681
  334MOL0     C44021   2.655  11.250   5.139  0.5017  0.2739 -0.0803
  334MOL0     C44022   2.610  11.231   5.275  0.3590  0.5326  0.8951
  334MOL0     H44023   2.317  11.591   5.645  0.1062  1.0018  0.2003
  334MOL0     H44024   2.207  11.584   5.872 -2.0126  0.2041 -0.7160
  334MOL0     H44025   2.198  11.197   6.087 -0.9853 -0.5324  1.0561
  334MOL0     H44026   2.051  11.180   5.990  1.0802  1.3840 -3.4362
  334MOL0     H44027   2.054  11.354   6.245 -1.6010  0.2798  1.7284
  334MOL0     H44028   2.071  11.179   6.259  3.0295  1.3825  0.4265
  334MOL0     H44029   1.838  11.302   6.117  1.8557  1.2016  0.1430
  334MOL0     H44030   1.844  11.274   6.295  0.3165 -1.4998  1.6195
  334MOL0     H44031   1.874  11.064   6.068  1.4208 -2.2111 -0.0304
  334MOL0     H44032   1.891  11.030   6.239 -1.7793 -0.1636  0.3373
  334MOL0     H44033   1.662  10.965   6.182  3.3625 -0.8205 -0.2509
  334MOL0     H44034   1.624  11.121   6.106 -2.8230  0.8645  0.9737
  334MOL0     H44035   1.624  11.236   6.330 -0.3726 -0.3250  2.6514
  334MOL0     H44036   1.687  11.098   6.416  2.2610  0.1541 -0.6981
  334MOL0     H44037   1.454  11.017   6.276 -2.5992  0.7020  1.1739
  334MOL0     H44038   1.505  10.992   6.440 -1.3497  1.4707  0.3565
  334MOL0     H44039   1.383  11.252   6.308 -0.3191 -1.9172 -1.9289
  334MOL0     H44040   1.445  11.246   6.480  0.9021 -2.3161  0.8458
  334MOL0     H44041   1.171  11.090   6.236  1.4941 -0.4153  0.8142
  334MOL0     H44042   0.885  10.934   6.411 -3.8958  1.1283 -1.1101
  334MOL0     H44043   0.941  10.976   6.242 -0.8750 -0.4294  0.0671
  334MOL0     H44044   0.727  11.076   6.301  0.0697 -0.3879 -1.6740
  334MOL0     H44045   0.849  11.201   6.271  0.1192  1.5291  2.5387
  334MOL0     H44046   0.885  11.261   6.491 -0.6200  1.0428 -0.5230
  334MOL0     H44047   0.711  11.253   6.468  0.2382  0.1191  1.0402
  334MOL0     H44048   0.755  11.168   6.695 -1.5952  0.2382 -1.2862
  334MOL0     H44049   0.872  11.054   6.650 -0.4812 -0.3468  3.6382
  334MOL0     H44050   0.540  11.248   6.639 -1.0525  1.2052 -2.4091
  334MOL0     H44051   0.301  11.262   6.650  0.8407  0.3133  1.2965
  334MOL0     H44052  -0.056  11.398   6.599 -0.7469  1.0265  0.9527
  334MOL0     H44053  -0.268  11.446   6.510  2.1921  0.6832 -1.5278
  334MOL0     H44054  -0.635  11.173   6.591 -0.2379 -1.2956  0.0143
  334MOL0     H44055  -0.570  11.125   6.426  0.5081  2.6499 -1.7142
  334MOL0     H44056  -0.693  11.387   6.466 -3.1409  0.3515  2.1253
  334MOL0     H44057  -0.804  11.243   6.471 -1.9107  2.2094 -3.9623
  334MOL0     H44058  -0.672  11.183   6.249  0.8989  0.5782  0.9708
  334MOL0     H44059  -0.613  11.355   6.258 -0.9269  0.9387  1.4521
  334MOL0     H44060  -0.908  11.278   6.251  0.6688 -0.7979 -0.4934
  334MOL0     H44061  -0.833  11.427   6.220 -2.3960 -0.0832  4.1926
  334MOL0     H44062  -0.700  11.290   6.030  0.1927  0.0075 -0.3388
  334MOL0     H44063  -0.867  11.333   5.993 -0.3463  0.0349  1.0502
  334MOL0     H44064  -0.954  11.113   6.064 -0.4814 -2.6204 -3.1765
  334MOL0     H44065  -0.791  11.047   6.099  0.0228 -2.0370 -2.1545
  334MOL0     H44066  -0.918  11.099   5.845 -0.4992  0.4877  0.2776
  334MOL0     H44067  -0.739  11.104   5.855 -2.0705  3.5997 -2.6578
  334MOL0     H44068  -0.921  10.858   5.924 -0.4135 -2.9468 -3.4561
  334MOL0     H44069  -0.749  10.864   5.965 -0.5414  1.9040  0.6428
  334MOL0     H44070  -0.401  11.046   6.598 -0.5697  0.1247  2.4672
  334MOL0     H44071  -0.175  10.990   6.674 -0.1147 -1.0621 -1.6645
  334MOL0     H44072   0.266  10.835   6.562  1.2489 -0.4379  1.0323
  334MOL0     H44073   0.507  10.818   6.582  1.9667  1.1295 -0.1194
  334MOL0     H44074   2.186  11.151   5.836  0.2910 -1.0537 -0.5319
  334MOL0     H44075   2.311  11.167   5.624 -0.7913  1.0419 -1.0302
  334MOL0     H44076   2.376  11.474   5.284 -1.6722 -3.6081  1.6863
  334MOL0     H44077   2.451  11.510   5.045 -0.8562 -0.5466  0.3347
  334MOL0     H44078   2.735  11.236   4.821  3.0535  1.0681 -2.0692
  334MOL0     H44079   2.843  11.311   4.940  1.2034 -1.7588  0.0608
  334MOL0     H44080   2.728  11.443   4.696  1.4582 -2.1878 -2.1947
  334MOL0     H44081   2.843  11.513   4.818 -0.0981  0.2244 -1.3774
  334MOL0     H44082   2.959  11.417   4.602  2.8703 -0.6625 -0.3437
  334MOL0     H44083   2.927  11.268   4.677 -0.2746 -0.0261  0.1740
  334MOL0     H44084   3.063  11.300   4.868 -1.4241  1.4899  1.6667
  334MOL0     H44085   3.151  11.345   4.723 -1.4409 -3.2422 -0.6181
  334MOL0     H44086   3.134  11.733   4.892 -0.2662  1.1769 -1.0869
  334MOL0     H44087   2.743  11.196   5.104  1.6860  1.2129  1.3116
  334MOL0     H44088   2.667  11.166   5.340  0.5973  0.6932  0.8466
  335MOL0     O44089   4.146  10.421   0.286  1.4039  0.5994 -0.4859
  335MOL0     C44090   4.123  10.419   0.160  0.2129  0.6432  0.6284
  335MOL0     O44091   4.001  10.412   0.098  0.2050  0.1209  0.1868
  335MOL0     C44092   3.883  10.404   0.162  0.0238 -0.7869 -0.2566
  335MOL0     C44093   3.860  10.465   0.284  0.1715  0.1762  0.4046
  335MOL0     C44094   3.733  10.453   0.337  0.6881 -0.4224 -0.2485
  335MOL0     C44095   3.625  10.383   0.280  0.1054  0.1425  0.9586
  335MOL0     O44096   3.507  10.402   0.351  0.7579 -0.1476 -0.3174
  335MOL0     C44097   3.402  10.318   0.304  0.2300  0.3967  0.0860
  335MOL0     C44098   3.281  10.399   0.319  1.1002  0.5593 -0.0063
  335MOL0     C44099   3.155  10.311   0.317  0.5410  0.8071  0.1845
  335MOL0     C44100   3.033  10.393   0.366  0.0415 -0.4043 -0.2569
  335MOL0     C44101   2.903  10.317   0.378  0.4178  0.3670  0.0009
  335MOL0     C44102   2.796  10.408   0.422  0.3882 -0.4898 -0.0428
  335MOL0     C44103   2.653  10.343   0.439  0.1639  0.3576  0.5630
  335MOL0     C44104   2.550  10.435   0.504  0.0939 -0.1888  0.3446
  335MOL0     N44105   2.417  10.369   0.516  0.5522  0.3691  0.0304
  335MOL0     C44106   2.359  10.298   0.623 -0.5453 -0.0867 -0.0967
  335MOL0     C44107   2.229  10.290   0.589  1.0041  0.2998  0.1877
  335MOL0     C44108   2.112  10.234   0.669  1.0901 -0.3307 -0.2211
  335MOL0     C44109   2.056  10.342   0.765 -0.7822  0.5179 -0.8968
  335MOL0     C44110   1.933  10.281   0.836  0.9512  0.4417  0.4607
  335MOL0     C44111   1.888  10.370   0.953  0.0947  0.4726 -0.6842
  335MOL0     O44112   1.830  10.284   1.053 -0.0925  0.0755  0.1522
  335MOL0     C44113   1.709  10.235   1.021 -0.8719 -0.3802  0.6622
  335MOL0     C44114   1.655  10.136   1.109 -0.5136 -0.2420 -0.0158
  335MOL0     C44115   1.525  10.088   1.088  0.4328 -0.0104 -0.5749
  335MOL0     C44116   1.450  10.137   0.982  0.4139  0.0225 -0.0233
  335MOL0     C44117   1.319  10.080   0.957 -0.1790 -0.3524 -0.2130
  335MOL0     O44118   1.283   9.964   1.024 -0.3692 -0.6791 -0.3941
  335MOL0     C44119   1.185   9.882   0.973 -0.9020 -0.0340 -0.3016
  335MOL0     C44120   1.142   9.787   1.072  0.2213 -0.1297  0.6673
  335MOL0     C44121   1.043   9.689   1.038 -0.3660  0.9202 -1.3023
  335MOL0     C44122   0.979   9.695   0.916  0.5113  0.1435  0.4879
  335MOL0     O44123   0.898   9.597   0.872  0.1323 -0.3153  0.2498
  335MOL0     C44124   0.789   9.557   0.962 -1.0118  0.1131 -0.4071
  335MOL0     C44125   0.671   9.649   0.967  0.5971  0.0237 -0.5676
  335MOL0     C44126   0.641   9.699   0.828  0.0159  0.1546  0.3055
  335MOL0     C44127   0.504   9.741   0.800  0.1310  0.1458 -0.6039
  335MOL0     C44128   0.479   9.801   0.668 -0.0180 -0.1993 -0.0908
  335MOL0     C44129   0.335   9.848   0.650 -0.9112  0.9871  0.2007
  335MOL0     C44130   0.329   9.898   0.509  0.3558  0.7813 -0.4929
  335MOL0     C44131   0.192   9.957   0.475  0.8827 -0.7489 -0.3265
  335MOL0    Cl44132   0.200  10.059   0.316 -0.3303 -0.1241  0.0847
  335MOL0     C44133   1.012   9.801   0.831 -0.3709 -0.5019  0.1145
  335MOL0     C44134   1.121   9.890   0.848 -0.2794 -0.3594  0.2355
  335MOL0     O44135   1.252  10.137   0.873  0.4164 -0.2761 -0.8802
  335MOL0     C44136   1.498  10.239   0.901  0.0826  0.1190  0.1771
  335MOL0     C44137   1.627  10.288   0.922 -0.5724 -0.3692 -0.3594
  335MOL0     N44138   2.206  10.353   0.465 -0.5472  0.3521  0.8082
  335MOL0     N44139   2.313  10.409   0.431 -0.6520  0.0331  0.2038
  335MOL0     C44140   3.654  10.309   0.163 -0.0438 -0.8378  0.3947
  335MOL0     C44141   3.785  10.315   0.110  0.6528 -0.9166  0.0591
  335MOL0     C44142   4.237  10.427   0.071 -0.1208 -0.3891 -0.6277
  335MOL0     C44143   4.234  10.490  -0.055  0.2219  0.5106  0.3417
  335MOL0     C44144   4.345  10.510  -0.128 -0.4825 -0.5485 -0.1341
  335MOL0     C44145   4.470  10.472  -0.078  0.5363  0.5617 -0.0728
  335MOL0     O44146   4.589  10.495  -0.147 -0.7608  0.0439  0.4737
  335MOL0     C44147   4.583  10.559  -0.278 -0.7410 -0.0200 -0.5596
  335MOL0     C44148   4.727  10.616  -0.303 -0.1063  0.0649  0.5422
  335MOL0     C44149   4.845  10.510  -0.333  0.1296  0.1118 -0.1750
  335MOL0     C44150   4.947  10.555  -0.442 -0.1242 -0.0096  0.6729
  335MOL0     C44151   5.034  10.660  -0.396 -0.3797 -0.4304  0.0050
  335MOL0     C44152   5.091  10.757  -0.349  0.1796  0.2481  0.1503
  335MOL0     C44153   4.480  10.416   0.040  0.1962  0.8214 -0.5082
  335MOL0     C44154   4.371  10.395   0.118 -0.2285 -0.0079  0.4260
  335MOL0     H44155   3.940  10.524   0.328 -0.5659  2.5128 -1.1876
  335MOL0     H44156   3.716  10.506   0.430 -1.3486 -0.0819 -0.7807
  335MOL0     H44157   3.407  10.228   0.366  0.9541  2.0184  2.5684
  335MOL0     H44158   3.409  10.292   0.198 -0.7941  1.9396 -0.3983
  335MOL0     H44159   3.277  10.480   0.246 -0.7852  2.4179  2.0496
  335MOL0     H44160   3.293  10.445   0.417 -0.3629  1.1808 -0.0998
  335MOL0     H44161   3.166  10.216   0.370  1.3229 -1.6843 -3.9972
  335MOL0     H44162   3.126  10.277   0.217 -2.9007  1.5248  0.7912
  335MOL0     H44163   3.061  10.425   0.467  1.3848  2.4874 -1.4339
  335MOL0     H44164   3.019  10.481   0.303  0.1737 -0.7083 -0.7109
  335MOL0     H44165   2.916  10.232   0.446 -1.9030 -0.5858 -0.6419
  335MOL0     H44166   2.877  10.274   0.281  0.6913 -2.0149  0.9040
  335MOL0     H44167   2.789  10.493   0.354 -0.3309 -0.2936  0.2641
  335MOL0     H44168   2.833  10.446   0.518  1.0625  0.7234 -0.7558
  335MOL0     H44169   2.629  10.307   0.338 -1.5196  0.2940  0.9594
  335MOL0     H44170   2.659  10.252   0.499  0.7317  0.1768  0.2410
  335MOL0     H44171   2.538  10.518   0.434  1.9909  0.5528  0.8540
  335MOL0     H44172   2.573  10.471   0.605 -1.2576  0.6056  0.3919
  335MOL0     H44173   2.408  10.266   0.715 -3.1228 -0.8312  1.1152
  335MOL0     H44174   2.143  10.142   0.721  0.6071 -0.1188  0.4607
  335MOL0     H44175   2.030  10.210   0.601  1.6918 -2.3055 -0.3317
  335MOL0     H44176   2.039  10.426   0.697  1.3383 -0.7733 -3.2105
  335MOL0     H44177   2.124  10.360   0.849  0.2815 -1.5131 -1.2525
  335MOL0     H44178   1.851  10.265   0.766  1.0550 -4.1990  1.0617
  335MOL0     H44179   1.959  10.181   0.874 -0.1641 -0.1360 -0.2210
  335MOL0     H44180   1.822  10.446   0.911 -1.4822 -1.2692 -1.5181
  335MOL0     H44181   1.970  10.414   1.011  0.2689 -0.4147 -0.2267
  335MOL0     H44182   1.711  10.117   1.201 -2.6034  0.7814  1.5617
  335MOL0     H44183   1.488  10.016   1.161  1.6910  1.0017  1.1262
  335MOL0     H44184   1.216   9.784   1.151  1.9238  2.0932 -0.7084
  335MOL0     H44185   1.035   9.599   1.098  1.5791  0.4438 -1.6639
  335MOL0     H44186   0.819   9.542   1.066 -0.5008 -1.0429 -0.7063
  335MOL0     H44187   0.753   9.459   0.928  0.4144 -0.8039  0.6090
  335MOL0     H44188   0.698   9.743   1.016  0.0548 -0.3431  0.4691
  335MOL0     H44189   0.585   9.606   1.019  0.7986  0.5844  0.2491
  335MOL0     H44190   0.662   9.615   0.761 -2.7277 -1.4338  1.2844
  335MOL0     H44191   0.718   9.772   0.799  0.5406 -1.0833 -1.6186
  335MOL0     H44192   0.446   9.648   0.792 -1.2225  0.7543  1.4272
  335MOL0     H44193   0.459   9.792   0.886 -0.1083 -0.0181 -0.6294
  335MOL0     H44194   0.511   9.732   0.589  1.9494  1.2744 -0.6595
  335MOL0     H44195   0.553   9.881   0.666  1.4568 -1.3316  3.1930
  335MOL0     H44196   0.320   9.922   0.729 -0.7108  0.8078  0.4080
  335MOL0     H44197   0.267   9.763   0.660  0.7670 -0.7125 -1.8725
  335MOL0     H44198   0.407   9.975   0.501  1.1438  0.2102  1.1526
  335MOL0     H44199   0.362   9.825   0.435  1.1100  2.6987 -2.1260
  335MOL0     H44200   0.172  10.042   0.541  2.2134 -0.3823 -0.3786
  335MOL0     H44201   0.108   9.887   0.480 -0.6808  0.7605 -2.9875
  335MOL0     H44202   0.969   9.813   0.732  2.8761  3.1219 -1.0917
  335MOL0     H44203   1.146   9.955   0.765 -0.1163 -2.1958 -1.2083
  335MOL0     H44204   1.442  10.282   0.819 -0.2452 -0.3076  0.1744
  335MOL0     H44205   1.664  10.369   0.859  2.2713 -2.2926 -1.3859
  335MOL0     H44206   3.580  10.243   0.119 -2.6563  0.4668  2.5732
  335MOL0     H44207   3.801  10.276   0.010 -0.7015  2.2807 -1.5690
  335MOL0     H44208   4.133  10.508  -0.090 -0.2868 -0.6442  1.1451
  335MOL0     H44209   4.326  10.537  -0.231 -0.7463  0.1912  0.1044
  335MOL0     H44210   4.508  10.638  -0.274  0.1820  0.8345  2.2476
  335MOL0     H44211   4.567  10.488  -0.360  2.1127  0.0264 -1.2489
  335MOL0     H44212   4.720  10.680  -0.391 -0.7639  0.5511  0.9429
  335MOL0     H44213   4.756  10.680  -0.219 -1.3826  0.1387  0.9441
  335MOL0     H44214   4.805  10.412  -0.363  0.5780 -0.0720 -0.1801
  335MOL0     H44215   4.900  10.489  -0.241 -1.5429  3.7412  1.8568
  335MOL0     H44216   5.010  10.472  -0.477 -0.1075  0.2053  0.2006
  335MOL0     H44217   4.902  10.596  -0.533  0.4500  4.1709  2.0629
  335MOL0     H44218   5.137  10.838  -0.295  0.3010  0.6049 -0.4775
  335MOL0     H44219   4.578  10.389   0.078  1.1298  1.1017 -2.6214
  335MOL0     H44220   4.383  10.352   0.217 -2.3931 -1.4905  0.1192
  336MOL0     O44221   1.197  11.221   6.054 -0.4071  0.5671  0.4831
  336MOL0     C44222   1.199  11.207   5.929 -0.3767 -0.0602  0.1238
  336MOL0     O44223   1.095  11.183   5.843  0.1338  0.1372  0.1757
  336MOL0     C44224   0.973  11.170   5.907 -0.5116 -0.6549 -0.7504
  336MOL0     C44225   0.921  11.045   5.936  0.3558  0.2633 -0.3655
  336MOL0     C44226   0.786  11.025   5.978  0.1353 -0.3799 -0.3955
  336MOL0     C44227   0.706  11.138   6.011 -0.0051 -0.0941  0.5085
  336MOL0     O44228   0.586  11.106   6.055 -0.6953 -0.6365 -0.6043
  336MOL0     C44229   0.523  11.210   6.134 -0.1329  1.4383 -0.1978
  336MOL0     C44230   0.407  11.149   6.211  0.2772  0.2367  0.4690
  336MOL0     C44231   0.313  11.053   6.132 -0.7959 -0.0507  0.6122
  336MOL0     C44232   0.194  11.011   6.216 -0.3846  0.1637  0.6851
  336MOL0     C44233   0.073  11.107   6.192 -0.4051 -0.3384  0.0971
  336MOL0     C44234  -0.048  11.026   6.235  0.5925  0.1714 -0.2038
  336MOL0     C44235  -0.174  11.119   6.246  0.3471 -0.2063  0.0541
  336MOL0     C44236  -0.303  11.032   6.256 -0.9907 -0.0158 -0.4715
  336MOL0     N44237  -0.347  11.002   6.125 -0.2958  0.3242  0.5396
  336MOL0     C44238  -0.315  10.878   6.068 -0.4078 -0.5747 -0.0498
  336MOL0     C44239  -0.404  10.859   5.961  0.0816 -0.3032 -0.0845
  336MOL0     C44240  -0.400  10.738   5.872  0.5963  0.4556 -0.4649
  336MOL0     C44241  -0.419  10.784   5.736  0.3248  0.6980  0.3008
  336MOL0     C44242  -0.430  10.667   5.642  0.3387 -0.1910  0.8249
  336MOL0     C44243  -0.448  10.719   5.503  0.2007 -0.0438  0.4584
  336MOL0     O44244  -0.482  10.609   5.406  0.6380  0.0901 -0.3415
  336MOL0     C44245  -0.610  10.597   5.359  0.0697 -0.1981  0.4107
  336MOL0     C44246  -0.726  10.640   5.431 -0.6264 -1.0623 -0.8169
  336MOL0     C44247  -0.851  10.629   5.371  0.3610 -0.0711 -0.0536
  336MOL0     C44248  -0.869  10.566   5.244 -0.4964 -0.6213 -0.2524
  336MOL0     C44249  -1.004  10.556   5.188  0.0370 -0.1544  0.4928
  336MOL0     O44250  -1.109  10.590   5.267  0.1441  0.1347 -0.1885
  336MOL0     C44251  -1.240  10.577   5.232 -0.4589 -0.3040 -0.3254
  336MOL0     C44252  -1.327  10.573   5.342  0.3040  0.7586  0.2733
  336MOL0     C44253  -1.468  10.570   5.315  0.4401  0.3493  0.4439
  336MOL0     C44254  -1.519  10.563   5.182  0.9248 -0.5613  0.7768
  336MOL0     O44255  -1.651  10.593   5.159  0.5900  0.0388 -0.1180
  336MOL0     C44256  -1.704  10.570   5.029  0.0998 -0.1678  0.4415
  336MOL0     C44257  -1.851  10.593   5.046  0.6735  0.7219  0.1338
  336MOL0     C44258  -1.920  10.489   5.143 -0.3431  0.0993  0.2546
  336MOL0     C44259  -2.072  10.509   5.158  0.1700  0.4397 -0.6875
  336MOL0     C44260  -2.166  10.450   5.051 -0.2907 -0.4955  0.1071
  336MOL0     C44261  -2.309  10.444   5.096 -0.1373 -0.2972  0.2545
  336MOL0     C44262  -2.393  10.365   4.990 -0.4767  0.4985 -0.4677
  336MOL0     C44263  -2.525  10.327   5.044  0.7400  0.8953  0.0635
  336MOL0    Cl44264  -2.617  10.468   5.087  0.0217 -0.0335  0.2052
  336MOL0     C44265  -1.420  10.559   5.077  0.1747 -0.4611  0.4796
  336MOL0     C44266  -1.283  10.578   5.102 -0.0609 -0.6918 -0.0747
  336MOL0     O44267  -1.010  10.487   5.086 -0.0771  0.0455  0.2326
  336MOL0     C44268  -0.754  10.518   5.176  0.2725  0.3311 -0.0874
  336MOL0     C44269  -0.623  10.529   5.233 -0.8551  0.4510 -0.0239
  336MOL0     N44270  -0.492  10.961   5.959  0.2362  0.1380  0.4690
  336MOL0     N44271  -0.449  11.055   6.053  1.0121  0.3520 -0.4946
  336MOL0     C44272   0.761  11.268   5.989  0.7619 -0.0172  0.3328
  336MOL0     C44273   0.894  11.280   5.944 -0.8219  0.5977  0.6418
  336MOL0     C44274   1.335  11.212   5.864 -0.5740  1.1025 -1.0042
  336MOL0     C44275   1.350  11.168   5.733 -0.2552  0.7510 -0.2908
  336MOL0     C44276   1.477  11.164   5.675  0.2523 -0.7300  0.3048
  336MOL0     C44277   1.588  11.205   5.743 -0.3723  0.7927 -0.6911
  336MOL0     O44278   1.724  11.190   5.695  0.5123 -0.3791 -0.2759
  336MOL0     C44279   1.746  11.181   5.555 -0.8678 -0.4523  1.5483
  336MOL0     C44280   1.885  11.235   5.530  0.1283  0.6723  0.0015
  336MOL0     C44281   1.926  11.214   5.387 -0.0084 -0.5830  0.0989
  336MOL0     C44282   2.079  11.269   5.384 -0.0664  0.8058 -0.1844
  336MOL0     C44283   2.128  11.268   5.245  0.7386  0.9092  0.0029
  336MOL0     C44284   2.170  11.266   5.130 -0.5084 -0.4925 -0.2381
  336MOL0     C44285   1.580  11.253   5.872 -0.2425  0.4343 -1.0256
  336MOL0     C44286   1.459  11.254   5.939  0.1063  0.3912  0.5686
  336MOL0     H44287   0.982  10.957   5.920 -0.3108 -0.3594  0.4164
  336MOL0     H44288   0.744  10.925   5.980 -1.5348  0.1613 -3.1696
  336MOL0     H44289   0.486  11.290   6.070  1.1056  1.2397 -1.2085
  336MOL0     H44290   0.597  11.247   6.206 -0.2378 -0.0405  0.7190
  336MOL0     H44291   0.351  11.236   6.247  3.8677  3.1157 -0.3383
  336MOL0     H44292   0.459  11.091   6.287  1.8770  0.1381 -0.6528
  336MOL0     H44293   0.371  10.966   6.101 -1.2828 -0.0331 -0.3939
  336MOL0     H44294   0.281  11.098   6.038 -0.4845 -1.1816 -0.0469
  336MOL0     H44295   0.164  10.911   6.185 -0.4855 -0.6462  3.2063
  336MOL0     H44296   0.227  11.002   6.320  1.8984 -0.4855 -0.0415
  336MOL0     H44297   0.058  11.130   6.086  1.4732 -2.0002 -0.5884
  336MOL0     H44298   0.085  11.202   6.246 -0.1684 -0.6901  0.6693
  336MOL0     H44299  -0.036  10.975   6.331 -1.3500  1.5641  0.8534
  336MOL0     H44300  -0.072  10.949   6.161  0.9225  0.2281 -0.3705
  336MOL0     H44301  -0.155  11.174   6.339  1.0802  0.0814 -0.2618
  336MOL0     H44302  -0.194  11.199   6.174  0.6579  1.0617  1.3158
  336MOL0     H44303  -0.380  11.100   6.295 -1.5747  0.1203 -1.7920
  336MOL0     H44304  -0.285  10.946   6.321  0.6748  1.5611  1.3205
  336MOL0     H44305  -0.244  10.802   6.097 -0.7450 -1.9572 -2.5665
  336MOL0     H44306  -0.481  10.672   5.906  0.9683 -0.4568 -1.3178
  336MOL0     H44307  -0.309  10.680   5.890 -0.0489  0.3465  3.2471
  336MOL0     H44308  -0.330  10.840   5.705  0.7296 -0.5074 -0.8553
  336MOL0     H44309  -0.497  10.858   5.718  0.4225  0.1496 -3.0443
  336MOL0     H44310  -0.346  10.598   5.646  2.0758  1.7554 -0.2630
  336MOL0     H44311  -0.521  10.611   5.665 -0.3883 -0.3042 -1.9424
  336MOL0     H44312  -0.357  10.772   5.474  0.1508 -0.2729 -0.1510
  336MOL0     H44313  -0.529  10.791   5.510 -0.6788 -0.7026 -1.8601
  336MOL0     H44314  -0.714  10.674   5.533 -2.0769 -0.8592 -0.6944
  336MOL0     H44315  -0.940  10.666   5.421  1.7016 -0.6742  3.0116
  336MOL0     H44316  -1.301  10.579   5.447  1.9850  0.6196 -0.1118
  336MOL0     H44317  -1.535  10.576   5.400  0.0554 -0.8606  0.2483
  336MOL0     H44318  -1.685  10.467   4.998  0.8754  0.1388 -0.1526
  336MOL0     H44319  -1.659  10.636   4.954 -3.1106 -1.1217 -2.6170
  336MOL0     H44320  -1.895  10.574   4.948  3.2454 -1.9602 -0.6523
  336MOL0     H44321  -1.863  10.698   5.075  0.3884  0.6267  0.3689
  336MOL0     H44322  -1.865  10.502   5.236  1.3957  3.5439 -1.0974
  336MOL0     H44323  -1.902  10.384   5.116 -0.1106  0.7464 -2.4249
  336MOL0     H44324  -2.115  10.480   5.254  0.1815  0.9376 -0.5252
  336MOL0     H44325  -2.087  10.617   5.150 -1.8228  0.3015  0.5498
  336MOL0     H44326  -2.126  10.352   5.026 -2.0400 -1.3815  0.6115
  336MOL0     H44327  -2.158  10.501   4.954  0.7669 -0.5983  0.1293
  336MOL0     H44328  -2.352  10.544   5.110 -0.3976 -0.5175  1.0539
  336MOL0     H44329  -2.316  10.389   5.190  0.7103 -2.4179 -0.8489
  336MOL0     H44330  -2.405  10.413   4.893  1.5294 -0.9005 -1.4775
  336MOL0     H44331  -2.341  10.277   4.950 -3.0280 -0.5608 -1.7627
  336MOL0     H44332  -2.500  10.267   5.132  0.1791  0.8512  0.1965
  336MOL0     H44333  -2.577  10.254   4.981  0.7751 -1.0502  2.1570
  336MOL0     H44334  -1.451  10.560   4.973 -2.2650 -1.6531  1.1242
  336MOL0     H44335  -1.213  10.588   5.020 -3.4031 -0.5229 -3.1634
  336MOL0     H44336  -0.754  10.471   5.078  1.2711 -0.0121  0.0726
  336MOL0     H44337  -0.541  10.486   5.176 -2.0286  0.4594 -1.7938
  336MOL0     H44338   0.707  11.357   6.020 -2.6450 -1.8517  0.1414
  336MOL0     H44339   0.936  11.379   5.929 -1.1576  0.3258 -3.0504
  336MOL0     H44340   1.269  11.112   5.686  1.0408 -3.0802  1.6714
  336MOL0     H44341   1.503  11.109   5.586 -3.7608 -2.8930  0.2244
  336MOL0     H44342   1.679  11.243   5.495  1.4987  0.0967 -0.7112
  336MOL0     H44343   1.746  11.076   5.524 -2.6871 -0.3625  1.1935
  336MOL0     H44344   1.889  11.338   5.567  0.0032 -0.4190  3.4361
  336MOL0     H44345   1.966  11.188   5.587 -0.7863 -2.1480 -0.8668
  336MOL0     H44346   1.858  11.276   5.328 -2.5254 -1.9545  1.4109
  336MOL0     H44347   1.913  11.110   5.356 -2.2580 -0.2155 -0.3348
  336MOL0     H44348   2.074  11.374   5.413  0.4613  0.3240  1.8069
  336MOL0     H44349   2.144  11.213   5.452  0.4756  1.2500 -0.3266
  336MOL0     H44350   2.216  11.294   5.037 -0.7399 -0.5076 -0.3583
  336MOL0     H44351   1.673  11.285   5.917 -1.4192  2.8466 -0.1258
  336MOL0     H44352   1.450  11.296   6.039  1.1790  0.9441  0.4449
  337MOL0     O44353   6.288   2.796   5.811  0.1688 -0.5118 -0.2500
  337MOL0     C44354   6.356   2.808   5.706  0.3379  0.6087  0.0618
  337MOL0     O44355   6.311   2.821   5.578  0.0454 -0.0049 -0.1392
  337MOL0     C44356   6.181   2.813   5.556  0.5247  0.2257  0.3940
  337MOL0     C44357   6.120   2.920   5.482 -0.3686  1.1905 -0.0829
  337MOL0     C44358   5.976   2.934   5.478  1.0347  0.2175  1.0123
  337MOL0     C44359   5.899   2.820   5.512 -0.5020  0.5002  0.2724
  337MOL0     O44360   5.767   2.799   5.483  0.6336  0.1461  0.2423
  337MOL0     C44361   5.678   2.911   5.462 -0.9520 -0.7557 -0.3385
  337MOL0     C44362   5.543   2.865   5.414  0.3286 -0.5937 -0.0386
  337MOL0     C44363   5.428   2.841   5.510 -0.1696  0.2209 -0.2806
  337MOL0     C44364   5.376   2.977   5.561 -0.7208 -0.3271 -0.5975
  337MOL0     C44365   5.267   2.951   5.670  0.1058  0.1699  0.7374
  337MOL0     C44366   5.226   3.071   5.742 -0.8787 -0.5462 -0.7185
  337MOL0     C44367   5.166   3.036   5.881 -0.3375  0.7711 -0.3414
  337MOL0     C44368   5.114   3.163   5.963 -0.2043 -1.0655 -0.1534
  337MOL0     N44369   5.030   3.130   6.082  0.1556 -0.3147  0.2772
  337MOL0     C44370   5.072   3.089   6.205  0.1103  0.2649 -0.1577
  337MOL0     C44371   4.963   3.084   6.280 -0.0105 -0.6066  0.8415
  337MOL0     C44372   4.954   3.031   6.411  0.1325 -1.0608 -0.4136
  337MOL0     C44373   4.972   3.139   6.514  0.0856 -0.5518 -0.1484
  337MOL0     C44374   4.988   3.074   6.654  0.2435 -0.5390  0.7093
  337MOL0     C44375   4.896   3.123   6.767 -0.6673 -0.6925  0.1172
  337MOL0     O44376   4.915   3.047   6.895  0.7832 -0.0719 -0.2568
  337MOL0     C44377   4.807   3.043   6.986 -0.1788  0.3258 -0.5866
  337MOL0     C44378   4.797   2.924   7.063  0.7107 -0.3967 -0.0887
  337MOL0     C44379   4.684   2.904   7.146  0.7140  0.3097 -0.1177
  337MOL0     C44380   4.584   3.004   7.153 -0.7701 -0.8590  0.4806
  337MOL0     C44381   4.461   2.984   7.214  1.2817 -0.1784  0.0023
  337MOL0     O44382   4.384   3.102   7.220 -0.3034 -0.1521  0.2026
  337MOL0     C44383   4.252   3.084   7.268 -0.6037  0.3413  0.4920
  337MOL0     C44384   4.145   3.120   7.191 -0.1323 -0.0964 -0.0276
  337MOL0     C44385   4.012   3.117   7.238  0.4585  0.8663  0.4634
  337MOL0     C44386   3.990   3.089   7.374 -0.0446  0.3941 -0.5650
  337MOL0     O44387   3.875   3.096   7.442  0.2520 -0.8658 -0.4341
  337MOL0     C44388   3.795   2.977   7.411 -0.8848  0.3040 -0.0295
  337MOL0     C44389   3.652   2.993   7.463  0.7361  0.3690  0.5283
  337MOL0     C44390   3.574   2.855   7.442  0.1372  0.0707  0.1670
  337MOL0     C44391   3.437   2.835   7.507  1.1689  0.1224 -0.1148
  337MOL0     C44392   3.334   2.747   7.437 -0.2789 -0.5375 -0.6796
  337MOL0     C44393   3.211   2.728   7.529  0.0111 -0.0028 -0.1330
  337MOL0     C44394   3.102   2.635   7.472  0.6327 -0.1855 -1.0618
  337MOL0     C44395   2.976   2.613   7.557 -0.4038  1.0301 -0.4013
  337MOL0    Cl44396   2.868   2.502   7.476 -0.1539  0.0858  0.1113
  337MOL0     C44397   4.098   3.057   7.451  0.1092  0.3515 -0.2221
  337MOL0     C44398   4.226   3.052   7.399 -0.3333  0.3619  0.4140
  337MOL0     O44399   4.436   2.879   7.269 -0.3992  0.8388  0.5401
  337MOL0     C44400   4.605   3.131   7.076  1.1352  0.4447  0.1422
  337MOL0     C44401   4.707   3.139   6.988  0.1080 -0.3148 -0.0296
  337MOL0     N44402   4.860   3.125   6.197 -0.4697  0.8625  0.1337
  337MOL0     N44403   4.895   3.142   6.076 -0.2079  0.2665 -0.2009
  337MOL0     C44404   5.961   2.707   5.574 -0.4477 -0.1059 -0.8318
  337MOL0     C44405   6.103   2.709   5.595  0.1141 -0.1766  0.3755
  337MOL0     C44406   6.498   2.787   5.715  0.1283  1.8527  0.1333
  337MOL0     C44407   6.578   2.750   5.608 -0.8048 -0.2837  0.7481
  337MOL0     C44408   6.707   2.712   5.627 -0.3657  0.3719  0.4390
  337MOL0     C44409   6.770   2.726   5.746  0.3038 -0.1803  0.4797
  337MOL0     O44410   6.898   2.690   5.746  0.4841 -0.2950  0.5615
  337MOL0     C44411   6.963   2.684   5.870  0.2591  0.9775 -0.0570
  337MOL0     C44412   7.107   2.612   5.873  0.5893 -0.5930 -0.1403
  337MOL0     C44413   7.204   2.679   5.785 -0.4103 -0.0050  0.1123
  337MOL0     C44414   7.343   2.670   5.827  0.3433  0.4450  0.8105
  337MOL0     C44415   7.430   2.760   5.739  0.1912 -0.0106 -0.0971
  337MOL0     C44416   7.498   2.829   5.666  0.7981 -0.6381  0.0076
  337MOL0     C44417   6.690   2.764   5.858 -0.3834 -0.7962  0.0925
  337MOL0     C44418   6.556   2.787   5.839  0.8977  0.1211  0.1304
  337MOL0     H44419   6.182   3.006   5.459 -0.6115  2.8173  4.3146
  337MOL0     H44420   5.933   3.022   5.431 -0.1567 -0.9184 -0.1444
  337MOL0     H44421   5.721   2.975   5.384 -2.9290 -0.3517 -1.1524
  337MOL0     H44422   5.659   2.971   5.551  0.1502 -0.2021 -0.4570
  337MOL0     H44423   5.555   2.773   5.355  0.0390  0.6137 -2.0898
  337MOL0     H44424   5.523   2.943   5.340  3.1005 -1.2944 -1.6818
  337MOL0     H44425   5.462   2.775   5.590  0.2304 -2.1991 -2.3589
  337MOL0     H44426   5.346   2.782   5.468  2.0409 -3.3363  0.0223
  337MOL0     H44427   5.458   3.028   5.613 -3.6098  1.1327  3.0097
  337MOL0     H44428   5.338   3.042   5.482  0.3662 -1.3216 -1.9791
  337MOL0     H44429   5.296   2.868   5.735 -1.1609 -0.3265  0.6934
  337MOL0     H44430   5.175   2.912   5.625 -0.8318  0.2535  2.5219
  337MOL0     H44431   5.162   3.137   5.683 -1.3107 -1.7171 -1.5918
  337MOL0     H44432   5.319   3.125   5.762 -0.3514 -1.7615  0.2328
  337MOL0     H44433   5.083   2.968   5.858  0.7355 -0.6144 -0.2833
  337MOL0     H44434   5.247   2.985   5.934  1.1854  2.1506 -1.2518
  337MOL0     H44435   5.050   3.224   5.899  2.6792  0.8679 -1.3923
  337MOL0     H44436   5.197   3.223   6.002 -1.6674  1.4205 -0.5854
  337MOL0     H44437   5.175   3.079   6.238  0.3667  3.1638  0.1444
  337MOL0     H44438   5.033   2.955   6.418  2.2961  1.1980  2.3895
  337MOL0     H44439   4.860   2.978   6.428  2.1451 -5.0569 -0.4452
  337MOL0     H44440   4.884   3.202   6.526  1.4551  1.0694  2.1651
  337MOL0     H44441   5.064   3.188   6.482 -0.5521  0.4965 -0.3963
  337MOL0     H44442   4.967   2.967   6.647 -0.5330 -0.2649 -2.6129
  337MOL0     H44443   5.096   3.088   6.671  0.7785 -0.8638 -2.0079
  337MOL0     H44444   4.798   3.104   6.722 -0.3793 -1.3591 -0.2512
  337MOL0     H44445   4.913   3.227   6.795  2.0334 -0.6375 -1.3450
  337MOL0     H44446   4.874   2.847   7.061 -1.1830 -2.3598  0.0200
  337MOL0     H44447   4.672   2.812   7.203  3.4896  0.6251  1.1604
  337MOL0     H44448   4.175   3.157   7.094 -0.3877  0.1533 -0.0133
  337MOL0     H44449   3.932   3.158   7.176 -2.0468 -1.9177  1.5859
  337MOL0     H44450   3.852   2.895   7.457 -2.1158  0.5912  2.1667
  337MOL0     H44451   3.784   2.953   7.305  0.4916  3.5162 -1.0313
  337MOL0     H44452   3.598   3.079   7.420  1.1849  0.7495  0.7159
  337MOL0     H44453   3.660   3.006   7.571  0.6610 -0.3109  0.6197
  337MOL0     H44454   3.643   2.784   7.489  0.9396 -0.4411 -1.7066
  337MOL0     H44455   3.552   2.852   7.335  2.1305  0.1064 -0.2898
  337MOL0     H44456   3.453   2.790   7.605  0.0613  1.1183  0.5491
  337MOL0     H44457   3.390   2.934   7.513 -1.8156 -1.2678  2.8132
  337MOL0     H44458   3.377   2.649   7.413  0.3451 -0.7079  0.9758
  337MOL0     H44459   3.301   2.802   7.349 -1.1064  0.9202  0.4942
  337MOL0     H44460   3.175   2.829   7.549 -0.8783  0.6142 -3.9810
  337MOL0     H44461   3.243   2.692   7.627  1.1375  0.5426 -0.2790
  337MOL0     H44462   3.069   2.679   7.378 -1.5573  0.2256 -0.1701
  337MOL0     H44463   3.144   2.534   7.463  1.9840  0.0332  1.5829
  337MOL0     H44464   2.925   2.706   7.582  0.9263  1.4363  0.9281
  337MOL0     H44465   2.991   2.589   7.662  1.5333  3.4998 -0.0363
  337MOL0     H44466   4.095   3.029   7.556  2.2450 -2.8916 -0.8766
  337MOL0     H44467   4.311   3.038   7.465 -2.0852  0.8495  2.9502
  337MOL0     H44468   4.526   3.205   7.071  0.0882 -0.5845  0.7390
  337MOL0     H44469   4.727   3.231   6.934  0.9009 -0.0809  0.6610
  337MOL0     H44470   5.894   2.628   5.606  0.2450 -1.0228 -1.6239
  337MOL0     H44471   6.152   2.623   5.640 -2.5517 -0.4718  3.0512
  337MOL0     H44472   6.541   2.766   5.507  2.9752  0.3851 -0.7124
  337MOL0     H44473   6.765   2.680   5.541  0.6578  0.2862  1.1370
  337MOL0     H44474   6.907   2.627   5.945  1.3575  0.9993  0.8094
  337MOL0     H44475   6.971   2.786   5.908 -0.3567  0.2709  2.1097
  337MOL0     H44476   7.150   2.614   5.974 -0.3746 -1.3789  0.2991
  337MOL0     H44477   7.100   2.504   5.854 -0.5099 -1.0564  2.4117
  337MOL0     H44478   7.185   2.787   5.784 -3.1574 -0.3537  2.0520
  337MOL0     H44479   7.191   2.642   5.683 -0.4658 -1.3846  0.6029
  337MOL0     H44480   7.356   2.688   5.934 -0.3554  0.7117  0.8507
  337MOL0     H44481   7.373   2.565   5.815 -2.2204 -0.2365 -0.1957
  337MOL0     H44482   7.561   2.882   5.598  1.0646 -0.2270  0.5682
  337MOL0     H44483   6.727   2.774   5.959 -0.0929  0.3915 -0.1194
  337MOL0     H44484   6.494   2.808   5.926  3.6913  0.0572  2.2840
  338MOL0     O44485   5.100   2.852   9.532 -0.2224 -0.1299 -0.3673
  338MOL0     C44486   5.213   2.794   9.526  0.3597 -0.7032 -0.2597
  338MOL0     O44487   5.224   2.657   9.502 -0.0028  0.0702  0.2223
  338MOL0     C44488   5.105   2.590   9.475  0.6507 -0.6927  0.0630
  338MOL0     C44489   5.025   2.537   9.580 -0.5458  0.3948 -0.0948
  338MOL0     C44490   4.912   2.461   9.552  0.0087 -0.2264 -1.0154
  338MOL0     C44491   4.873   2.443   9.417  0.4792 -1.0077  0.4453
  338MOL0     O44492   4.756   2.382   9.380  0.1776 -0.6837 -0.0067
  338MOL0     C44493   4.682   2.303   9.466  0.8222  0.0421 -0.3114
  338MOL0     C44494   4.538   2.343   9.470  0.4451 -0.9593 -0.5007
  338MOL0     C44495   4.439   2.258   9.562  1.4065 -0.4540  0.2972
  338MOL0     C44496   4.298   2.316   9.531 -0.3012 -0.7758 -0.0606
  338MOL0     C44497   4.191   2.277   9.637 -0.6674  0.0721  0.3519
  338MOL0     C44498   4.220   2.325   9.782  0.1214 -0.0482 -0.2622
  338MOL0     C44499   4.112   2.274   9.872 -0.2383  0.6951 -0.8538
  338MOL0     C44500   4.107   2.347  10.007  0.2921 -0.2261 -0.9181
  338MOL0     N44501   4.212   2.327  10.112 -0.1494  0.3966  0.2694
  338MOL0     C44502   4.292   2.419  10.171 -0.1959 -0.8053 -0.3227
  338MOL0     C44503   4.397   2.345  10.209  0.7818  0.2606  0.2951
  338MOL0     C44504   4.529   2.395  10.267  0.3822  0.3258  0.1857
  338MOL0     C44505   4.610   2.484  10.169  0.0194  0.0017  0.5386
  338MOL0     C44506   4.675   2.387  10.060  0.0372 -0.7609 -0.0135
  338MOL0     C44507   4.705   2.467   9.930  0.4058  0.0294 -0.4487
  338MOL0     O44508   4.785   2.586   9.941 -0.7294  0.2395  0.0446
  338MOL0     C44509   4.918   2.562   9.958  0.1676  0.4436 -0.1128
  338MOL0     C44510   5.002   2.678   9.963 -0.2171  0.1867  0.5139
  338MOL0     C44511   5.145   2.676   9.977  0.7317  0.2190 -1.0065
  338MOL0     C44512   5.207   2.556   9.987 -0.2018  1.1313 -0.2366
  338MOL0     C44513   5.356   2.544  10.000 -0.8527 -0.6265  0.3233
  338MOL0     O44514   5.422   2.651   9.950 -0.8776  0.2974 -0.4706
  338MOL0     C44515   5.563   2.636   9.944 -0.7421 -0.4033 -0.3462
  338MOL0     C44516   5.616   2.550   9.847 -0.0382 -0.3302  0.3631
  338MOL0     C44517   5.748   2.547   9.829 -0.3947 -0.5750 -0.9016
  338MOL0     C44518   5.840   2.600   9.918  0.4507  0.2490  0.8866
  338MOL0     O44519   5.973   2.570   9.892 -0.1254  0.6837  0.5863
  338MOL0     C44520   6.062   2.639   9.979  0.0408 -0.2583 -0.4716
  338MOL0     C44521   6.208   2.587   9.945  0.2449 -0.3098 -0.4786
  338MOL0     C44522   6.232   2.433   9.979 -0.5724  0.4335 -0.6052
  338MOL0     C44523   6.385   2.399   9.967 -0.1324 -0.6332 -0.2455
  338MOL0     C44524   6.457   2.450  10.093 -0.1429 -0.1928  0.2606
  338MOL0     C44525   6.597   2.391  10.093 -0.0180 -0.0616 -0.0264
  338MOL0     C44526   6.691   2.423   9.975  0.7319  0.6978 -0.4726
  338MOL0     C44527   6.834   2.405  10.025  0.4572 -1.0133 -0.5514
  338MOL0    Cl44528   6.898   2.534  10.129 -0.3510 -0.1531 -0.0952
  338MOL0     C44529   5.786   2.682  10.014  0.9622 -0.1160  0.7088
  338MOL0     C44530   5.651   2.694  10.039 -0.3834  0.0893 -0.1452
  338MOL0     O44531   5.408   2.438  10.054  0.3119 -0.2417 -0.0920
  338MOL0     C44532   5.128   2.443   9.983  0.6454  0.1272  0.1006
  338MOL0     C44533   4.992   2.442   9.955  0.1959  0.3283  0.3333
  338MOL0     N44534   4.384   2.207  10.169 -0.7139 -0.1920  0.1265
  338MOL0     N44535   4.270   2.198  10.109  0.1131  0.2380  0.5585
  338MOL0     C44536   4.957   2.498   9.315 -0.2566  0.5710  0.7094
  338MOL0     C44537   5.077   2.572   9.340  0.0651  0.3628  0.0926
  338MOL0     C44538   5.331   2.876   9.550 -0.9702  0.4824  0.0434
  338MOL0     C44539   5.446   2.823   9.621 -0.1811 -0.6476 -0.6005
  338MOL0     C44540   5.543   2.909   9.667  0.0736 -1.1782  0.1206
  338MOL0     C44541   5.539   3.050   9.641 -0.0293  1.0048  0.3735
  338MOL0     O44542   5.651   3.131   9.668 -0.1589 -0.2335  0.4257
  338MOL0     C44543   5.615   3.263   9.711  0.1085 -0.0708 -0.2419
  338MOL0     C44544   5.712   3.368   9.651 -0.1052 -0.2888 -0.2522
  338MOL0     C44545   5.858   3.335   9.683 -0.4012  0.2146  0.1599
  338MOL0     C44546   5.908   3.392   9.818  0.3517 -0.4905 -0.5856
  338MOL0     C44547   6.054   3.363   9.837  0.5122 -0.3286  0.4823
  338MOL0     C44548   6.158   3.317   9.874 -0.0014  0.2090 -0.3952
  338MOL0     C44549   5.432   3.096   9.564 -0.3949  0.0094  0.5182
  338MOL0     C44550   5.330   3.011   9.521  0.4624  0.2971 -0.5286
  338MOL0     H44551   5.065   2.560   9.678  0.1130 -1.2121  0.0385
  338MOL0     H44552   4.857   2.419   9.635  0.8235  0.7997  0.0675
  338MOL0     H44553   4.729   2.298   9.565  0.7538 -0.4249 -0.3026
  338MOL0     H44554   4.690   2.202   9.426  1.3078 -0.3507  0.7307
  338MOL0     H44555   4.501   2.338   9.368  1.7703 -0.4143 -1.0314
  338MOL0     H44556   4.538   2.443   9.515  4.7322 -1.6313  1.4849
  338MOL0     H44557   4.474   2.275   9.664  1.5701 -2.4360  0.6113
  338MOL0     H44558   4.448   2.153   9.529  2.4672 -0.6410  1.1226
  338MOL0     H44559   4.311   2.425   9.532 -0.4053 -0.7482 -1.0137
  338MOL0     H44560   4.266   2.278   9.434  1.3144 -3.0554  0.1991
  338MOL0     H44561   4.189   2.168   9.645  1.0857  0.0780  1.5212
  338MOL0     H44562   4.103   2.317   9.588  0.5289  1.1866 -0.9658
  338MOL0     H44563   4.229   2.434   9.787  0.4461  0.0277 -1.9589
  338MOL0     H44564   4.310   2.271   9.814 -0.8698 -1.1501  0.7851
  338MOL0     H44565   4.021   2.299   9.816  1.4076  0.4504 -3.8303
  338MOL0     H44566   4.123   2.167   9.893 -1.4285  1.1401  2.5913
  338MOL0     H44567   4.014   2.315  10.055  0.8042  0.1578  0.3672
  338MOL0     H44568   4.100   2.456   9.999 -1.5551 -0.1284  1.0595
  338MOL0     H44569   4.292   2.527  10.157 -1.0145 -0.8547 -0.7540
  338MOL0     H44570   4.586   2.304  10.286  0.2427  0.5160  1.6181
  338MOL0     H44571   4.514   2.444  10.364  3.1549 -1.4518  1.6194
  338MOL0     H44572   4.692   2.540  10.214  1.8230  0.2560 -2.7717
  338MOL0     H44573   4.550   2.565  10.128 -2.1520 -1.8163 -0.1188
  338MOL0     H44574   4.758   2.336  10.110 -0.6424  0.3164  2.3743
  338MOL0     H44575   4.609   2.315  10.010 -0.1317 -0.3633 -0.3708
  338MOL0     H44576   4.615   2.510   9.885  1.3457 -1.2024 -3.7758
  338MOL0     H44577   4.757   2.404   9.857  3.4866  0.7187  0.9750
  338MOL0     H44578   4.947   2.772   9.963 -2.1099 -0.8485 -0.9750
  338MOL0     H44579   5.189   2.775   9.970 -1.6690  1.4250 -0.3573
  338MOL0     H44580   5.556   2.489   9.780  1.0695  0.1580 -1.1465
  338MOL0     H44581   5.787   2.495   9.743  2.8561 -1.6955  1.0983
  338MOL0     H44582   6.038   2.625  10.085  1.5956 -0.4219 -0.1102
  338MOL0     H44583   6.059   2.746   9.956 -3.8292 -0.1236  0.0993
  338MOL0     H44584   6.286   2.654   9.984  0.5309 -1.2891  0.7016
  338MOL0     H44585   6.211   2.592   9.836  0.0654 -0.1277 -0.4765
  338MOL0     H44586   6.164   2.373   9.918 -1.8660  0.1470  1.0460
  338MOL0     H44587   6.209   2.407  10.082 -3.5131 -1.2892 -1.5985
  338MOL0     H44588   6.387   2.290   9.965  1.0940 -0.6264  0.2116
  338MOL0     H44589   6.429   2.435   9.874  2.6361  1.0826  1.5848
  338MOL0     H44590   6.408   2.419  10.186  2.1797 -0.0320  1.6269
  338MOL0     H44591   6.460   2.559  10.107 -1.3313  0.1238 -1.5826
  338MOL0     H44592   6.573   2.284  10.099 -2.0070  0.2478 -1.6543
  338MOL0     H44593   6.647   2.419  10.187  1.7023  1.7196 -1.3891
  338MOL0     H44594   6.668   2.354   9.893  1.6190 -1.3148  0.9052
  338MOL0     H44595   6.678   2.529   9.950  3.1172  1.7274  2.0571
  338MOL0     H44596   6.893   2.402   9.933 -1.3957  1.5724 -1.9533
  338MOL0     H44597   6.848   2.313  10.083  0.1840 -0.5264  0.2971
  338MOL0     H44598   5.847   2.741  10.081 -1.6442  1.0515  2.2121
  338MOL0     H44599   5.608   2.756  10.116  0.1631 -0.3981  0.5711
  338MOL0     H44600   5.177   2.347   9.973 -1.6985 -0.9270 -2.7008
  338MOL0     H44601   4.944   2.345   9.947 -0.7426  0.8821 -0.9781
  338MOL0     H44602   4.917   2.484   9.215 -0.7118 -2.4963  1.2257
  338MOL0     H44603   5.143   2.620   9.269  1.5483 -2.7588 -0.7963
  338MOL0     H44604   5.453   2.717   9.643 -0.3071 -0.6733 -0.6851
  338MOL0     H44605   5.628   2.875   9.725  0.4278  1.8406  1.5532
  338MOL0     H44606   5.619   3.264   9.821 -2.8462 -1.4464 -0.0422
  338MOL0     H44607   5.512   3.295   9.697  0.4317  0.6700 -0.9935
  338MOL0     H44608   5.707   3.371   9.542  2.6062 -1.7477 -0.4963
  338MOL0     H44609   5.690   3.469   9.685 -1.0688 -0.1774 -1.1600
  338MOL0     H44610   5.917   3.382   9.605 -1.2804  1.3188  0.1365
  338MOL0     H44611   5.879   3.228   9.672  0.3508  0.3529  0.2027
  338MOL0     H44612   5.892   3.500   9.827 -1.0161 -0.5621 -1.8197
  338MOL0     H44613   5.849   3.355   9.903  0.5088 -2.0358 -1.1245
  338MOL0     H44614   6.257   3.285   9.899  0.3189  2.4843  1.7355
  338MOL0     H44615   5.432   3.197   9.524 -0.1539 -0.6300 -1.1811
  338MOL0     H44616   5.240   3.061   9.488 -0.3777  0.5239  1.9484
  339MOL0     O44617   3.619   5.977   2.395 -0.3580  0.5204 -0.5686
  339MOL0     C44618   3.727   5.922   2.418 -0.7039  0.4722  0.2828
  339MOL0     O44619   3.745   5.830   2.518  0.4718  0.3259 -0.5541
  339MOL0     C44620   3.642   5.747   2.545  0.7573  0.2034 -1.1907
  339MOL0     C44621   3.584   5.658   2.449  0.7939 -0.0834 -0.9334
  339MOL0     C44622   3.474   5.582   2.486 -0.0354 -0.1372 -0.1124
  339MOL0     C44623   3.413   5.583   2.612  0.5222 -0.7759  1.0842
  339MOL0     O44624   3.302   5.497   2.638  0.1662 -0.8543 -0.3829
  339MOL0     C44625   3.199   5.545   2.731  0.2955  0.0751  0.3455
  339MOL0     C44626   3.090   5.438   2.740  1.4169  0.5915 -0.1733
  339MOL0     C44627   2.965   5.502   2.807 -0.0540  0.5206  0.6810
  339MOL0     C44628   2.861   5.384   2.841  0.3709  0.0503  0.4202
  339MOL0     C44629   2.717   5.428   2.818 -0.3273  0.1137  0.5302
  339MOL0     C44630   2.628   5.330   2.892 -0.3830 -0.5381 -0.5317
  339MOL0     C44631   2.478   5.361   2.857 -0.1937  0.6557  0.5152
  339MOL0     C44632   2.376   5.275   2.924 -0.0884  0.4428 -0.0478
  339MOL0     N44633   2.398   5.279   3.076  0.2941  0.0310  0.0686
  339MOL0     C44634   2.370   5.396   3.155  0.4195  0.8263 -0.3599
  339MOL0     C44635   2.397   5.355   3.286  0.3119 -0.5153 -0.2295
  339MOL0     C44636   2.392   5.443   3.412  0.4113 -0.4270  0.1370
  339MOL0     C44637   2.499   5.550   3.414  0.7615 -0.3298 -0.1240
  339MOL0     C44638   2.639   5.497   3.421 -0.3452 -0.1103 -0.0108
  339MOL0     C44639   2.732   5.602   3.462 -0.1353 -0.0397  0.4473
  339MOL0     O44640   2.784   5.663   3.341  0.4108  0.0316 -0.2741
  339MOL0     C44641   2.919   5.652   3.317  0.1072  0.6773  0.2105
  339MOL0     C44642   3.017   5.676   3.414  0.2505  0.3130 -0.8255
  339MOL0     C44643   3.150   5.688   3.375  0.2367  0.2127 -0.8903
  339MOL0     C44644   3.193   5.674   3.246  0.3970  0.3124 -0.0691
  339MOL0     C44645   3.340   5.690   3.222 -0.6762  0.0528 -0.6080
  339MOL0     O44646   3.392   5.624   3.117  0.3072  0.2799 -0.6223
  339MOL0     C44647   3.528   5.636   3.087  0.5730  0.6776 -0.6047
  339MOL0     C44648   3.584   5.760   3.055 -0.0341 -0.8073 -0.1275
  339MOL0     C44649   3.715   5.761   3.012 -0.3177  0.3006  0.1783
  339MOL0     C44650   3.792   5.643   3.008  0.8204  0.4756 -0.1094
  339MOL0     O44651   3.916   5.631   2.950 -0.2166 -1.0550  0.5876
  339MOL0     C44652   3.988   5.746   2.907  0.0938  0.1624 -0.0341
  339MOL0     C44653   4.103   5.709   2.824 -0.5212 -0.8801  0.3433
  339MOL0     C44654   4.192   5.836   2.781 -0.1676  0.6405  0.1219
  339MOL0     C44655   4.320   5.778   2.709 -0.5345  0.1531  0.7071
  339MOL0     C44656   4.418   5.892   2.671 -0.0433 -0.7297 -0.4337
  339MOL0     C44657   4.511   5.841   2.560 -0.4455  0.1383  0.1027
  339MOL0     C44658   4.618   5.945   2.527 -0.2665 -0.0139  0.8477
  339MOL0     C44659   4.714   5.889   2.422  0.1485  0.4859  0.0806
  339MOL0    Cl44660   4.832   6.013   2.390  0.2641  0.3541 -0.3490
  339MOL0     C44661   3.737   5.523   3.044  0.0233  0.3892 -0.4862
  339MOL0     C44662   3.605   5.522   3.087  0.4947 -0.4146  0.2512
  339MOL0     O44663   3.407   5.756   3.303 -0.4165  0.8358 -0.1162
  339MOL0     C44664   3.095   5.646   3.145  0.4399  0.0206  0.1174
  339MOL0     C44665   2.956   5.634   3.181  0.6780 -0.4792 -0.8968
  339MOL0     N44666   2.447   5.227   3.280  0.3483  0.8482  0.1630
  339MOL0     N44667   2.451   5.189   3.155 -0.2897  0.1482 -0.5499
  339MOL0     C44668   3.478   5.665   2.709  0.7594 -0.2821  0.3697
  339MOL0     C44669   3.592   5.742   2.676  0.4268 -0.2527  0.4977
  339MOL0     C44670   3.850   5.975   2.364  0.9079  0.2369 -0.1767
  339MOL0     C44671   3.977   5.945   2.425 -0.7906  0.8913  0.8393
  339MOL0     C44672   4.099   5.990   2.362  0.7017 -0.1359 -1.1412
  339MOL0     C44673   4.083   6.083   2.258 -0.4381  0.5471 -0.1459
  339MOL0     O44674   4.182   6.151   2.197  0.8463  0.0453  0.1706
  339MOL0     C44675   4.302   6.145   2.269 -0.5131 -0.3476  0.4592
  339MOL0     C44676   4.413   6.213   2.185 -0.0939  0.5955 -0.4111
  339MOL0     C44677   4.553   6.219   2.238  0.8810  0.0805  0.3007
  339MOL0     C44678   4.550   6.309   2.357  0.3705 -0.1842 -0.1710
  339MOL0     C44679   4.675   6.353   2.410 -0.1141  0.0094 -0.0242
  339MOL0     C44680   4.771   6.407   2.457 -0.6821  0.1388 -0.1446
  339MOL0     C44681   3.960   6.108   2.204  0.2231 -0.2133  0.5491
  339MOL0     C44682   3.846   6.060   2.260  0.6815 -0.2974 -0.1280
  339MOL0     H44683   3.623   5.632   2.351 -0.7773  1.3512 -2.0090
  339MOL0     H44684   3.456   5.506   2.410  1.1300  1.2333 -1.8423
  339MOL0     H44685   3.159   5.639   2.693  1.2882  0.8652  1.1960
  339MOL0     H44686   3.240   5.566   2.831 -0.4166 -1.0063  0.8813
  339MOL0     H44687   3.117   5.346   2.792  0.7022  0.5943  0.2119
  339MOL0     H44688   3.055   5.397   2.644  1.4151  2.4935 -1.0289
  339MOL0     H44689   2.913   5.560   2.730 -0.2832 -3.6033 -2.6923
  339MOL0     H44690   2.988   5.550   2.902  1.3868 -0.2883  0.7604
  339MOL0     H44691   2.875   5.291   2.784  1.4448  0.6919 -0.4154
  339MOL0     H44692   2.882   5.356   2.944  2.5734 -0.7374 -0.1723
  339MOL0     H44693   2.698   5.429   2.710  3.3276  0.5450 -0.2486
  339MOL0     H44694   2.695   5.531   2.849 -2.1448 -0.0024 -0.2775
  339MOL0     H44695   2.644   5.344   2.999 -0.5860  2.9813 -0.8614
  339MOL0     H44696   2.655   5.226   2.869  0.9297 -0.7589  1.7481
  339MOL0     H44697   2.447   5.464   2.881 -1.1077  0.3821  0.5335
  339MOL0     H44698   2.480   5.354   2.748  1.1551 -1.2484  0.6257
  339MOL0     H44699   2.385   5.169   2.898 -2.1323 -0.2816  1.8778
  339MOL0     H44700   2.275   5.310   2.902 -0.1482  0.8139  0.7717
  339MOL0     H44701   2.348   5.495   3.117  1.2536  0.5407 -1.6708
  339MOL0     H44702   2.404   5.386   3.505 -0.4728  1.7058  1.6344
  339MOL0     H44703   2.293   5.487   3.420  0.3480 -0.3691 -0.8418
  339MOL0     H44704   2.485   5.618   3.498  3.2616  2.0050 -1.4317
  339MOL0     H44705   2.486   5.625   3.335  0.4594 -0.4961 -0.2336
  339MOL0     H44706   2.637   5.426   3.505 -1.0519 -3.0881 -2.3706
  339MOL0     H44707   2.678   5.457   3.327 -0.6204 -0.0518 -0.1510
  339MOL0     H44708   2.810   5.550   3.518 -0.8601 -0.3882  1.1497
  339MOL0     H44709   2.694   5.687   3.521  0.7320 -0.4384  1.6255
  339MOL0     H44710   2.990   5.691   3.518 -3.6721 -0.7601 -1.5252
  339MOL0     H44711   3.215   5.716   3.457 -2.3786 -0.6286  1.6570
  339MOL0     H44712   3.518   5.846   3.060 -0.9588 -1.5901  1.9894
  339MOL0     H44713   3.760   5.858   2.990 -0.3177 -0.1202 -1.8046
  339MOL0     H44714   4.035   5.807   2.985  0.7954 -0.0240 -0.3016
  339MOL0     H44715   3.913   5.806   2.854  1.1601  2.4959  0.9332
  339MOL0     H44716   4.067   5.664   2.731  0.0188 -2.2644  0.7739
  339MOL0     H44717   4.170   5.637   2.873  1.9044  1.7557  1.1610
  339MOL0     H44718   4.221   5.890   2.871  1.4702  2.3201 -1.3354
  339MOL0     H44719   4.134   5.907   2.723 -3.1171 -1.5611  0.1379
  339MOL0     H44720   4.379   5.718   2.780  1.8277 -2.3202 -2.9533
  339MOL0     H44721   4.288   5.712   2.627  0.7608 -0.8712  0.9970
  339MOL0     H44722   4.486   5.928   2.749  0.2043  0.4304 -1.1651
  339MOL0     H44723   4.356   5.975   2.634  0.3376  0.2989  1.1422
  339MOL0     H44724   4.449   5.825   2.471  3.2907  2.6508 -3.3312
  339MOL0     H44725   4.557   5.753   2.607 -2.3094 -2.1881 -2.1054
  339MOL0     H44726   4.574   6.037   2.486  0.1033  0.8652  2.3557
  339MOL0     H44727   4.670   5.969   2.620 -0.9241  1.1124  0.9484
  339MOL0     H44728   4.654   5.869   2.332  1.8826 -0.9150 -0.8402
  339MOL0     H44729   4.770   5.800   2.451 -0.7268 -0.3575 -0.7512
  339MOL0     H44730   3.799   5.435   3.035 -1.3431 -0.4104 -3.1512
  339MOL0     H44731   3.560   5.424   3.097 -0.2607 -0.0876  0.1192
  339MOL0     H44732   3.131   5.618   3.047  3.1951 -1.2790  1.3855
  339MOL0     H44733   2.885   5.593   3.111 -1.4575 -3.2348  2.5188
  339MOL0     H44734   3.436   5.677   2.808 -0.1897 -1.0082  0.0719
  339MOL0     H44735   3.626   5.823   2.739  0.9338  0.6477 -0.8927
  339MOL0     H44736   3.980   5.870   2.503  0.6968  0.4008  0.3586
  339MOL0     H44737   4.187   5.957   2.415  0.1851  3.2999  2.3036
  339MOL0     H44738   4.329   6.040   2.284 -2.7033 -0.7413  2.0708
  339MOL0     H44739   4.278   6.195   2.363 -2.2196 -1.9243  0.9286
  339MOL0     H44740   4.419   6.158   2.091 -2.4434  1.3101 -1.0578
  339MOL0     H44741   4.382   6.315   2.158  1.3281  1.0585 -0.4095
  339MOL0     H44742   4.610   6.268   2.159  0.9265 -0.7528 -0.1948
  339MOL0     H44743   4.584   6.116   2.254  1.2015 -0.0781 -1.2507
  339MOL0     H44744   4.495   6.400   2.330  2.7239  0.7330 -2.2514
  339MOL0     H44745   4.492   6.263   2.438  0.2631  2.1434  1.1678
  339MOL0     H44746   4.859   6.452   2.499  0.7083 -0.9603 -1.7495
  339MOL0     H44747   3.944   6.183   2.127  1.4804  1.9617  2.2982
  339MOL0     H44748   3.744   6.084   2.231  0.9717 -2.2456 -3.2086
  340MOL0     O44749  10.053   0.596   2.039 -0.2427  0.2568  0.5345
  340MOL0     C44750  10.081   0.556   2.148  0.1920  0.5610  0.5856
  340MOL0     O44751  10.001   0.479   2.235 -0.1398 -0.4548  0.3396
  340MOL0     C44752   9.879   0.431   2.184  0.3886 -0.0937  0.9438
  340MOL0     C44753   9.762   0.456   2.250  0.1036 -0.2580 -0.1501
  340MOL0     C44754   9.633   0.413   2.203  0.3169 -0.3094  0.3216
  340MOL0     C44755   9.630   0.335   2.081 -0.0750 -0.0845  0.0301
  340MOL0     O44756   9.508   0.302   2.033  0.3384  0.0830  0.5012
  340MOL0     C44757   9.445   0.418   1.967  0.4634 -0.4025 -0.1374
  340MOL0     C44758   9.312   0.445   2.040 -0.0091  0.4881  0.0946
  340MOL0     C44759   9.248   0.558   1.968  1.0007 -0.6117  0.4800
  340MOL0     C44760   9.130   0.614   2.048  0.1741 -0.7141  0.3448
  340MOL0     C44761   9.036   0.714   1.967  0.4242 -0.2508  0.1268
  340MOL0     C44762   8.942   0.794   2.055  0.2728 -0.3353 -0.7352
  340MOL0     C44763   8.820   0.851   1.968  0.9035  0.3504  0.2040
  340MOL0     C44764   8.779   0.988   2.023 -0.2394  0.9288  0.3891
  340MOL0     N44765   8.672   1.054   1.942  0.0856  0.2469 -0.2195
  340MOL0     C44766   8.678   1.174   1.871 -0.4150 -0.6205 -0.6029
  340MOL0     C44767   8.555   1.185   1.811 -0.6178 -0.5954  0.5296
  340MOL0     C44768   8.496   1.300   1.721  0.9576  0.6461  0.2720
  340MOL0     C44769   8.552   1.433   1.777 -1.2586  0.3027 -0.5700
  340MOL0     C44770   8.483   1.477   1.914  0.1540  0.3136 -0.4743
  340MOL0     C44771   8.533   1.618   1.942  0.4783 -0.3954  0.2732
  340MOL0     O44772   8.465   1.711   1.854  0.2214  0.0775  0.8195
  340MOL0     C44773   8.353   1.763   1.908 -0.0302 -0.4424 -1.2675
  340MOL0     C44774   8.230   1.726   1.861 -0.1248 -0.1128 -0.2478
  340MOL0     C44775   8.113   1.788   1.896  0.5407  0.5289 -0.6184
  340MOL0     C44776   8.127   1.895   1.992  0.3369  0.2732  0.2879
  340MOL0     C44777   8.007   1.960   2.047  0.6357 -0.6985  0.1357
  340MOL0     O44778   7.880   1.926   1.980  1.0987  0.1919  0.3284
  340MOL0     C44779   7.766   1.979   2.029  0.3255 -0.0506  0.0001
  340MOL0     C44780   7.666   1.900   2.095  0.1214 -0.1983  0.0427
  340MOL0     C44781   7.547   1.960   2.145  0.1611  0.5815 -0.1997
  340MOL0     C44782   7.529   2.095   2.119 -0.8085 -0.0162  0.4036
  340MOL0     O44783   7.417   2.162   2.151  0.3526  0.5506 -0.1164
  340MOL0     C44784   7.319   2.092   2.229 -0.4714 -0.5817 -0.2263
  340MOL0     C44785   7.192   2.178   2.248 -0.1089 -0.3437 -0.1907
  340MOL0     C44786   7.084   2.182   2.137 -0.6707  0.5615 -0.1121
  340MOL0     C44787   6.968   2.266   2.180 -0.1567 -0.6485  0.5088
  340MOL0     C44788   6.842   2.254   2.084  0.6066 -0.3509  0.8974
  340MOL0     C44789   6.716   2.300   2.159 -0.1642 -0.6178  0.0775
  340MOL0     C44790   6.592   2.322   2.072 -0.2736 -0.5736 -0.1820
  340MOL0     C44791   6.487   2.385   2.152  0.8360  0.5054 -0.3043
  340MOL0    Cl44792   6.335   2.393   2.054 -0.3330  0.0146 -0.1325
  340MOL0     C44793   7.628   2.174   2.055  0.1506 -0.1203  0.7439
  340MOL0     C44794   7.749   2.121   2.010  0.1024  0.2570  0.1550
  340MOL0     O44795   8.028   2.045   2.135 -0.0865  0.1338 -0.2482
  340MOL0     C44796   8.251   1.926   2.057 -0.1174  0.1971  0.2802
  340MOL0     C44797   8.363   1.855   2.015  1.3182  0.0517  0.0972
  340MOL0     N44798   8.486   1.071   1.839  0.1810  0.0774 -0.0486
  340MOL0     N44799   8.556   0.994   1.915  0.4147 -0.1081 -0.1999
  340MOL0     C44800   9.754   0.309   2.021 -0.0250  0.4474  0.4475
  340MOL0     C44801   9.875   0.355   2.065 -0.4222 -0.7632  0.1200
  340MOL0     C44802  10.210   0.587   2.189 -0.7528 -0.1506 -0.8874
  340MOL0     C44803  10.300   0.649   2.105 -0.3176  0.4786  0.1131
  340MOL0     C44804  10.424   0.691   2.161 -0.3573 -0.6516  0.7384
  340MOL0     C44805  10.471   0.661   2.286 -0.0280  0.2554  0.4193
  340MOL0     O44806  10.585   0.713   2.340  0.3840 -0.3701 -0.2169
  340MOL0     C44807  10.702   0.735   2.258  0.4401  0.0204  0.5908
  340MOL0     C44808  10.804   0.818   2.331  0.6620 -0.2226  0.0366
  340MOL0     C44809  10.761   0.956   2.371 -0.4435 -0.2636 -0.3789
  340MOL0     C44810  10.881   1.027   2.431  0.4250 -0.3518 -0.0150
  340MOL0     C44811  10.885   1.012   2.575 -0.4169  0.2753  0.0273
  340MOL0     C44812  10.899   0.975   2.687 -0.1905  0.6159  1.1529
  340MOL0     C44813  10.375   0.605   2.369 -0.6648 -0.6228 -0.0923
  340MOL0     C44814  10.253   0.549   2.320  0.0907 -0.1860  0.0797
  340MOL0     H44815   9.758   0.499   2.349 -1.2121  1.1043 -0.7532
  340MOL0     H44816   9.542   0.441   2.255  0.8466  2.8454 -0.2540
  340MOL0     H44817   9.417   0.405   1.862 -2.5175  0.1581  0.4935
  340MOL0     H44818   9.501   0.509   1.989 -0.3697 -0.6942  4.1530
  340MOL0     H44819   9.326   0.473   2.145 -0.8898  1.1876  0.0336
  340MOL0     H44820   9.248   0.356   2.040 -1.0467  1.1525 -2.3463
  340MOL0     H44821   9.223   0.521   1.868  3.0678 -1.3360  0.1981
  340MOL0     H44822   9.329   0.629   1.949  0.5580 -1.2415 -5.6708
  340MOL0     H44823   9.072   0.527   2.080 -1.8343 -0.1882 -1.6080
  340MOL0     H44824   9.165   0.661   2.140 -2.2393 -0.3832  1.1440
  340MOL0     H44825   8.969   0.651   1.908 -1.6585  0.1457  1.9128
  340MOL0     H44826   9.095   0.779   1.901  2.3735 -2.3262 -0.2790
  340MOL0     H44827   8.998   0.872   2.107  2.6815 -2.6872  0.4839
  340MOL0     H44828   8.901   0.727   2.132 -0.0292  0.5379 -0.1177
  340MOL0     H44829   8.853   0.852   1.863  0.8507  2.1188  0.1811
  340MOL0     H44830   8.732   0.788   1.983 -1.8937  3.6444 -1.1373
  340MOL0     H44831   8.869   1.050   2.020  1.3574 -1.2839 -2.7172
  340MOL0     H44832   8.754   0.964   2.127 -0.3007 -1.7153 -0.1910
  340MOL0     H44833   8.763   1.242   1.877 -0.6059 -0.4925  0.9844
  340MOL0     H44834   8.387   1.299   1.729  0.6622 -5.1173 -0.5075
  340MOL0     H44835   8.521   1.271   1.619  0.0489 -1.1757  0.5347
  340MOL0     H44836   8.539   1.509   1.700  2.5339  0.3211 -1.3951
  340MOL0     H44837   8.660   1.418   1.790 -1.7260 -0.4314  5.2485
  340MOL0     H44838   8.374   1.477   1.902 -0.0885 -1.7032  1.1417
  340MOL0     H44839   8.506   1.414   2.000 -3.5687 -1.2956 -0.4785
  340MOL0     H44840   8.641   1.627   1.923  1.0346 -0.3431  3.0222
  340MOL0     H44841   8.517   1.643   2.047 -1.6948 -3.1173  0.6843
  340MOL0     H44842   8.218   1.652   1.783 -3.2366  1.0798 -1.0140
  340MOL0     H44843   8.016   1.763   1.856  0.3191 -0.2701  0.3580
  340MOL0     H44844   7.686   1.795   2.115  1.0975  0.3380  2.1999
  340MOL0     H44845   7.467   1.899   2.185  2.1557 -1.1535  1.3344
  340MOL0     H44846   7.364   2.070   2.326  0.2903 -1.0465 -0.6811
  340MOL0     H44847   7.287   1.996   2.189 -0.7598 -1.3612  1.7507
  340MOL0     H44848   7.229   2.277   2.278 -1.2476  1.1742 -3.2658
  340MOL0     H44849   7.147   2.137   2.338  1.8602  0.1370  1.0826
  340MOL0     H44850   7.045   2.083   2.109 -1.7062  0.2360  2.2536
  340MOL0     H44851   7.130   2.225   2.047  0.6120  1.0614  0.7528
  340MOL0     H44852   6.932   2.236   2.279  0.2846  0.2748  0.9650
  340MOL0     H44853   7.001   2.370   2.192 -3.9607  0.5691  2.3563
  340MOL0     H44854   6.824   2.150   2.056 -0.7701  0.4224 -1.4245
  340MOL0     H44855   6.851   2.313   1.992 -1.6227 -0.1178  0.7632
  340MOL0     H44856   6.731   2.384   2.228 -1.3793 -1.2827  1.2048
  340MOL0     H44857   6.683   2.221   2.227  0.5870 -0.9884  0.0242
  340MOL0     H44858   6.608   2.383   1.982  0.3204  0.4870  0.6128
  340MOL0     H44859   6.554   2.225   2.041 -2.4901 -0.7672  2.6883
  340MOL0     H44860   6.528   2.484   2.173  2.0903 -0.6532  3.6219
  340MOL0     H44861   6.470   2.334   2.247 -0.8697  1.7689  0.1166
  340MOL0     H44862   7.607   2.280   2.049  2.4398  0.5075  2.7209
  340MOL0     H44863   7.821   2.187   1.963  0.5794 -0.7213 -0.5160
  340MOL0     H44864   8.261   2.004   2.132 -3.2058  1.3598 -0.3738
  340MOL0     H44865   8.462   1.874   2.053  1.6939 -1.2734 -0.1487
  340MOL0     H44866   9.762   0.243   1.935  1.3778  2.9548 -1.4580
  340MOL0     H44867   9.974   0.339   2.023  0.6602  0.4064  2.1180
  340MOL0     H44868  10.267   0.670   2.004 -0.7960 -4.6324 -1.0339
  340MOL0     H44869  10.471   0.766   2.098 -0.5095 -0.8223  0.4224
  340MOL0     H44870  10.675   0.789   2.166 -0.9708 -0.5572  0.6347
  340MOL0     H44871  10.751   0.638   2.241  3.4518  0.8234  3.6332
  340MOL0     H44872  10.828   0.773   2.428 -1.3865 -0.7808  0.3371
  340MOL0     H44873  10.892   0.815   2.267  2.1312 -2.2954  1.9906
  340MOL0     H44874  10.668   0.960   2.428  0.0793 -3.8253  1.0158
  340MOL0     H44875  10.746   1.010   2.277  1.7002 -0.3939 -0.8477
  340MOL0     H44876  10.973   0.988   2.386 -1.6310 -4.3811 -1.2209
  340MOL0     H44877  10.876   1.132   2.402  0.9755 -0.4374 -0.4305
  340MOL0     H44878  10.922   0.942   2.786 -1.0337 -0.8933  0.8856
  340MOL0     H44879  10.413   0.575   2.466  1.5566 -0.8002 -0.9623
  340MOL0     H44880  10.191   0.492   2.389 -0.4225  0.8549  0.4989
  341MOL0     O44881   7.998  11.228   6.135 -0.2286  0.1151  0.1025
  341MOL0     C44882   8.064  11.278   6.046  0.5474  0.0349  0.0307
  341MOL0     O44883   8.015  11.334   5.933  0.0002  0.0931  0.3991
  341MOL0     C44884   7.880  11.334   5.906 -0.1636  0.4971  0.4282
  341MOL0     C44885   7.822  11.436   5.835 -0.1175  0.1134  0.0838
  341MOL0     C44886   7.687  11.443   5.819 -0.1620  0.1364  0.0014
  341MOL0     C44887   7.605  11.343   5.869  0.2693 -0.6681  0.2907
  341MOL0     O44888   7.474  11.380   5.850  0.5084 -0.8426  0.2391
  341MOL0     C44889   7.386  11.326   5.946  0.9191 -0.1802 -0.2966
  341MOL0     C44890   7.244  11.366   5.913 -0.1631 -0.6722 -0.2706
  341MOL0     C44891   7.215  11.387   5.761  0.3787 -0.0862  0.0539
  341MOL0     C44892   7.068  11.406   5.745  0.1995 -0.1482  0.3328
  341MOL0     C44893   7.007  11.539   5.795  0.0785  0.1637 -0.6467
  341MOL0     C44894   6.852  11.522   5.771  0.0566  0.3144  0.3637
  341MOL0     C44895   6.768  11.641   5.821 -0.5546 -0.5631  0.3380
  341MOL0     C44896   6.795  11.681   5.967  0.4938 -0.7672  0.8627
  341MOL0     N44897   6.698  11.778   6.018 -0.2474  0.2679  0.8623
  341MOL0     C44898   6.621  11.753   6.130  0.2680 -0.1585  0.6560
  341MOL0     C44899   6.551  11.864   6.158 -1.3063 -1.0770  0.0388
  341MOL0     C44900   6.457  11.885   6.274  0.1718  0.2072 -0.3272
  341MOL0     C44901   6.305  11.903   6.235  0.9015 -0.6739  0.7365
  341MOL0     C44902   6.271  12.013   6.136  0.4017 -1.0671 -0.3770
  341MOL0     C44903   6.126  12.059   6.136 -0.5516 -0.1483  0.7131
  341MOL0     O44904   6.047  11.939   6.119  0.7134 -0.5672  0.5222
  341MOL0     C44905   5.913  11.942   6.167 -0.2033 -0.5033  0.0349
  341MOL0     C44906   5.855  12.053   6.224  0.7726 -0.3689  0.4244
  341MOL0     C44907   5.728  12.038   6.281  0.0992 -0.3305 -0.0399
  341MOL0     C44908   5.657  11.915   6.278 -0.8355  0.1896 -0.9243
  341MOL0     C44909   5.524  11.901   6.337  0.3738 -0.2819  0.7944
  341MOL0     O44910   5.489  11.782   6.388  0.1871  0.2702 -0.0692
  341MOL0     C44911   5.368  11.761   6.441  0.0065  0.3356  0.3623
  341MOL0     C44912   5.281  11.667   6.382  0.2540  0.5391  1.0432
  341MOL0     C44913   5.150  11.651   6.434 -0.2746 -0.2900  0.1403
  341MOL0     C44914   5.116  11.707   6.554 -0.1662  0.6281 -0.0447
  341MOL0     O44915   5.002  11.682   6.621 -0.3688  0.0936  0.1875
  341MOL0     C44916   4.900  11.608   6.559 -0.1505 -0.4770 -0.2445
  341MOL0     C44917   4.785  11.598   6.661 -0.6289  0.2830  1.1226
  341MOL0     C44918   4.668  11.522   6.602  0.3078  0.9013  0.4441
  341MOL0     C44919   4.560  11.480   6.694  0.2002 -1.1958 -0.7723
  341MOL0     C44920   4.434  11.421   6.625 -0.8351 -0.0140  0.2183
  341MOL0     C44921   4.324  11.417   6.731  0.5142 -0.3052  0.4798
  341MOL0     C44922   4.194  11.340   6.677  0.2286  0.5249 -0.2312
  341MOL0     C44923   4.097  11.336   6.797 -0.2903 -0.0564  0.1216
  341MOL0    Cl44924   3.950  11.241   6.755  0.0841  0.2606 -0.4186
  341MOL0     C44925   5.202  11.788   6.617 -0.1654 -0.6773 -0.5098
  341MOL0     C44926   5.326  11.820   6.556 -0.0376  0.1337 -0.4982
  341MOL0     O44927   5.453  12.001   6.330  0.0671 -0.0413 -0.2874
  341MOL0     C44928   5.722  11.800   6.222 -0.7183 -1.1069 -0.3877
  341MOL0     C44929   5.851  11.817   6.166 -1.1111  0.7171  0.2404
  341MOL0     N44930   6.571  11.953   6.051 -0.0190  0.1136  0.8923
  341MOL0     N44931   6.667  11.906   5.968  0.4778 -0.2303  0.0583
  341MOL0     C44932   7.658  11.222   5.929 -0.1342 -0.0607  0.0739
  341MOL0     C44933   7.794  11.226   5.938  0.1296  0.2881 -0.2399
  341MOL0     C44934   8.204  11.290   6.073 -0.8329  0.3281 -0.3725
  341MOL0     C44935   8.290  11.313   5.962  0.1825 -0.1823 -1.1214
  341MOL0     C44936   8.432  11.318   5.971 -0.2293 -0.3721 -0.3626
  341MOL0     C44937   8.494  11.295   6.100 -0.7038 -0.1027 -0.1236
  341MOL0     O44938   8.629  11.296   6.133  0.2282 -0.5845 -0.1159
  341MOL0     C44939   8.718  11.317   6.025  0.1857 -0.1939  0.2599
  341MOL0     C44940   8.862  11.293   6.071  0.2269 -0.3860  0.0489
  341MOL0     C44941   8.969  11.305   5.962  0.2337 -0.5426  0.3389
  341MOL0     C44942   9.109  11.279   6.022  0.8093 -0.6758  0.1443
  341MOL0     C44943   9.212  11.307   5.929  0.0668  0.2946 -0.1849
  341MOL0     C44944   9.296  11.348   5.850 -0.2038  0.2084 -0.6962
  341MOL0     C44945   8.407  11.267   6.210 -1.5602 -0.2181 -0.5558
  341MOL0     C44946   8.269  11.264   6.195  0.0555 -0.1115 -0.1364
  341MOL0     H44947   7.880  11.517   5.792 -1.5402  0.7730 -0.6592
  341MOL0     H44948   7.636  11.522   5.765 -0.5971 -0.2949 -0.2245
  341MOL0     H44949   7.399  11.386   6.037 -1.2338 -1.2999  0.8221
  341MOL0     H44950   7.397  11.220   5.972 -0.1705  0.0170  1.0966
  341MOL0     H44951   7.227  11.468   5.948  1.6271 -0.2408 -0.5244
  341MOL0     H44952   7.167  11.303   5.957 -0.9942 -0.5686 -1.5205
  341MOL0     H44953   7.257  11.309   5.698  1.1886  0.0642  0.3891
  341MOL0     H44954   7.270  11.474   5.723  1.4814 -1.8173 -2.5904
  341MOL0     H44955   7.050  11.403   5.638 -2.5127  0.8829  0.6793
  341MOL0     H44956   7.015  11.322   5.790 -1.7912 -1.6408 -4.2791
  341MOL0     H44957   7.049  11.624   5.742  0.7717 -0.6271 -1.3988
  341MOL0     H44958   7.034  11.547   5.900  0.4357  1.1896 -0.8107
  341MOL0     H44959   6.818  11.434   5.827  4.5949 -1.7290  0.3598
  341MOL0     H44960   6.840  11.503   5.664  2.7819  1.0616 -0.1437
  341MOL0     H44961   6.791  11.726   5.756  0.7636  1.4511  3.2189
  341MOL0     H44962   6.663  11.612   5.810 -0.3987 -1.7804  1.7919
  341MOL0     H44963   6.896  11.722   5.983  0.6532 -0.1531 -1.3621
  341MOL0     H44964   6.780  11.590   6.025 -1.3475 -0.6459  0.6370
  341MOL0     H44965   6.614  11.660   6.185  0.4291 -0.7096 -0.2414
  341MOL0     H44966   6.501  11.971   6.327  0.0875 -1.8032  3.3113
  341MOL0     H44967   6.460  11.807   6.351 -0.9326  1.5406  1.1372
  341MOL0     H44968   6.252  11.935   6.325 -1.5838 -3.7065  0.5500
  341MOL0     H44969   6.264  11.804   6.210  2.3078 -1.4520  1.3936
  341MOL0     H44970   6.321  12.104   6.172 -1.1568  0.0867 -1.0270
  341MOL0     H44971   6.301  11.977   6.037 -1.3783  0.7776 -1.6566
  341MOL0     H44972   6.114  12.135   6.059  2.1077 -0.8289 -0.4792
  341MOL0     H44973   6.105  12.107   6.232 -0.2021  0.3245  0.5583
  341MOL0     H44974   5.896  12.153   6.223 -2.9993  1.3448  0.3916
  341MOL0     H44975   5.691  12.128   6.327  1.7705  0.6875 -0.5952
  341MOL0     H44976   5.309  11.603   6.299 -1.4792 -0.8647  1.4699
  341MOL0     H44977   5.089  11.575   6.387 -1.9430  0.1893  1.4312
  341MOL0     H44978   4.935  11.512   6.521  0.3872 -0.1576 -0.5743
  341MOL0     H44979   4.868  11.666   6.472  1.3141 -1.0026 -1.1657
  341MOL0     H44980   4.756  11.699   6.692 -0.7643  0.5161  0.2702
  341MOL0     H44981   4.827  11.535   6.740  1.7592  0.4362  0.0785
  341MOL0     H44982   4.702  11.431   6.551 -0.1806  1.2398 -0.5191
  341MOL0     H44983   4.623  11.583   6.522  0.0932  1.4759  0.9934
  341MOL0     H44984   4.603  11.405   6.762  1.8870  2.3419  2.4505
  341MOL0     H44985   4.536  11.568   6.753  0.0816 -0.1068 -2.3769
  341MOL0     H44986   4.454  11.325   6.576 -2.0308  1.1704 -2.8220
  341MOL0     H44987   4.401  11.487   6.544  0.6877 -1.0456 -1.3120
  341MOL0     H44988   4.291  11.514   6.769 -2.6846 -1.6875  1.5612
  341MOL0     H44989   4.362  11.365   6.820  3.7433 -0.5663 -0.8957
  341MOL0     H44990   4.149  11.394   6.592 -0.1965 -1.4181 -1.3127
  341MOL0     H44991   4.209  11.244   6.626  2.2455  1.4041 -1.3736
  341MOL0     H44992   4.057  11.436   6.814 -1.5142 -0.4370 -0.3604
  341MOL0     H44993   4.154  11.308   6.886  0.7412  1.9618  0.1519
  341MOL0     H44994   5.188  11.826   6.717  2.3578 -0.2171 -0.2606
  341MOL0     H44995   5.399  11.883   6.607  0.6874  1.1210 -2.6285
  341MOL0     H44996   5.679  11.701   6.223  0.0403 -1.5490  3.3726
  341MOL0     H44997   5.912  11.729   6.146 -0.7238  1.3684 -1.6476
  341MOL0     H44998   7.595  11.137   5.953 -0.0591 -0.3243 -0.6419
  341MOL0     H44999   7.832  11.136   5.986  2.1419  0.0179 -2.1743
  341MOL0     H45000   8.250  11.328   5.862 -0.0275 -3.8415 -1.7331
  341MOL0     H45001   8.484  11.340   5.878 -1.6751  0.3464 -1.0347
  341MOL0     H45002   8.700  11.409   5.969 -0.1273 -1.5046 -1.9028
  341MOL0     H45003   8.694  11.244   5.947 -0.4783  0.6430 -0.3474
  341MOL0     H45004   8.880  11.371   6.146 -2.2422  1.1007 -0.8102
  341MOL0     H45005   8.861  11.200   6.130  0.6128 -0.2633  0.2526
  341MOL0     H45006   8.958  11.404   5.917  2.0214 -1.0987 -1.4448
  341MOL0     H45007   8.957  11.227   5.886 -0.1286 -1.2915  1.1457
  341MOL0     H45008   9.128  11.336   6.114  2.6159 -0.2087 -0.4803
  341MOL0     H45009   9.124  11.173   6.046 -2.2634 -1.6996 -1.8583
  341MOL0     H45010   9.359  11.385   5.772 -0.4147  3.5266  0.5473
  341MOL0     H45011   8.456  11.262   6.307 -0.0196  2.7518 -1.0528
  341MOL0     H45012   8.203  11.243   6.279  0.2383 -2.3404 -0.4837
  342MOL0     O45013   6.083   1.998  10.025  0.4985  0.7213  0.3613
  342MOL0     C45014   6.141   2.024   9.921 -0.0756 -0.8334 -0.0044
  342MOL0     O45015   6.077   2.051   9.808 -0.2101  0.0914 -0.4026
  342MOL0     C45016   5.940   2.076   9.810  0.2043  0.2439 -0.3949
  342MOL0     C45017   5.868   2.028   9.707  0.8280  0.3873  0.5928
  342MOL0     C45018   5.731   2.027   9.713 -0.3614 -0.6118 -0.1082
  342MOL0     C45019   5.659   2.068   9.822  0.7185  0.0647 -0.5893
  342MOL0     O45020   5.519   2.058   9.811 -0.5972  0.3974 -0.5869
  342MOL0     C45021   5.433   2.095   9.920  0.2839 -0.1072  0.0370
  342MOL0     C45022   5.437   1.997  10.034 -0.0575 -0.3348 -0.2397
  342MOL0     C45023   5.330   1.885  10.026 -0.5719 -0.5206  0.2796
  342MOL0     C45024   5.186   1.916  10.027  0.9706 -0.1298 -0.2648
  342MOL0     C45025   5.102   1.787   9.985 -0.6117 -0.5959 -0.1473
  342MOL0     C45026   4.956   1.829   9.969  0.2137  0.0488 -0.1914
  342MOL0     C45027   4.861   1.705   9.965 -0.3914  0.0523 -0.1154
  342MOL0     C45028   4.872   1.631   9.831  0.4136  0.0449  0.5596
  342MOL0     N45029   4.760   1.550   9.780 -0.3760 -0.2451 -0.1059
  342MOL0     C45030   4.735   1.420   9.819 -0.2904 -0.2110 -0.4468
  342MOL0     C45031   4.615   1.381   9.777 -0.6912  0.0494 -0.0187
  342MOL0     C45032   4.534   1.257   9.810 -0.4637 -0.7244  0.2125
  342MOL0     C45033   4.381   1.291   9.820  0.4491 -0.0375 -0.4358
  342MOL0     C45034   4.313   1.156   9.847  0.3423  0.1739 -0.2670
  342MOL0     C45035   4.168   1.160   9.828  0.3658 -0.2710 -0.2769
  342MOL0     O45036   4.129   1.033   9.887 -0.0373  0.4275 -0.5949
  342MOL0     C45037   3.994   1.008   9.902 -0.2072  0.2911  0.3771
  342MOL0     C45038   3.962   0.876   9.942  0.2522 -0.1423 -0.0407
  342MOL0     C45039   3.829   0.841   9.949 -0.2734  0.1821  0.6157
  342MOL0     C45040   3.723   0.933   9.906  0.0094 -0.3909 -0.4219
  342MOL0     C45041   3.577   0.897   9.917 -0.5760 -0.1527 -0.6841
  342MOL0     O45042   3.491   0.991   9.886  0.3550 -0.1698  0.3046
  342MOL0     C45043   3.358   0.960   9.857  0.5455  0.0129 -0.1013
  342MOL0     C45044   3.279   0.866   9.917  0.0788 -0.2463 -0.4342
  342MOL0     C45045   3.158   0.826   9.853  0.1644  0.5961  0.6801
  342MOL0     C45046   3.096   0.902   9.760  0.8435  0.3098 -0.2137
  342MOL0     O45047   2.974   0.874   9.707  0.2863 -0.1149 -0.2703
  342MOL0     C45048   2.907   0.762   9.747  0.0146  0.6385 -0.1189
  342MOL0     C45049   2.773   0.756   9.673  0.0678 -0.5688  0.0495
  342MOL0     C45050   2.669   0.865   9.707  0.6065  0.0246 -0.9601
  342MOL0     C45051   2.563   0.870   9.597  0.4230  0.6994  0.9852
  342MOL0     C45052   2.458   0.981   9.631  0.7470  0.5436 -0.5884
  342MOL0     C45053   2.315   0.965   9.558 -0.1401 -0.2979 -1.1468
  342MOL0     C45054   2.329   0.973   9.405 -0.4718  0.2967 -0.0057
  342MOL0     C45055   2.282   1.108   9.355 -0.7359 -0.4467  0.1532
  342MOL0    Cl45056   2.102   1.126   9.348  0.7931 -0.5770  0.0707
  342MOL0     C45057   3.169   1.015   9.714  0.6360 -0.5507  0.2528
  342MOL0     C45058   3.303   1.035   9.757  0.1324 -0.7535 -0.1103
  342MOL0     O45059   3.545   0.783   9.946 -0.6227 -0.0724  0.0837
  342MOL0     C45060   3.763   1.061   9.857 -0.6123  0.2675 -0.4678
  342MOL0     C45061   3.896   1.096   9.856 -0.0980  0.1802 -0.0764
  342MOL0     N45062   4.559   1.498   9.728  0.3479  0.1455  1.2641
  342MOL0     N45063   4.646   1.597   9.724 -0.3263 -0.5763  0.0970
  342MOL0     C45064   5.728   2.140   9.919 -0.1788  0.0068 -0.2745
  342MOL0     C45065   5.868   2.140   9.913 -0.2168  0.1653 -0.0370
  342MOL0     C45066   6.286   2.031   9.919 -0.0349  0.0245  0.9076
  342MOL0     C45067   6.347   2.055   9.799 -0.2276  0.6294  0.0263
  342MOL0     C45068   6.488   2.060   9.796  0.3541  0.1013  0.2374
  342MOL0     C45069   6.565   2.018   9.899  0.1538 -0.9974 -0.2701
  342MOL0     O45070   6.705   2.006   9.894  0.0023  0.7911 -0.7806
  342MOL0     C45071   6.761   2.008   9.764  0.2209  0.4182  0.2982
  342MOL0     C45072   6.913   2.008   9.759 -0.1271 -1.0699 -0.6987
  342MOL0     C45073   6.971   2.129   9.821 -0.2983 -1.3376  0.1997
  342MOL0     C45074   7.120   2.151   9.792  0.3684 -0.1990  0.5001
  342MOL0     C45075   7.211   2.038   9.807  0.2957  0.8809  0.0150
  342MOL0     C45076   7.289   1.939   9.815  0.4177 -0.0781  0.5331
  342MOL0     C45077   6.503   1.991  10.014 -0.7248  0.5583 -1.0928
  342MOL0     C45078   6.368   2.009  10.027 -0.0970  0.6457  0.3473
  342MOL0     H45079   5.914   2.002   9.613  3.0653  1.1218  1.4117
  342MOL0     H45080   5.659   1.976   9.648 -2.0623 -0.0187  1.2225
  342MOL0     H45081   5.330   2.091   9.884 -0.2263  1.6094  1.2052
  342MOL0     H45082   5.455   2.198   9.948 -0.6199  0.6563 -1.8981
  342MOL0     H45083   5.413   2.054  10.124 -0.3099 -0.0760 -0.4719
  342MOL0     H45084   5.541   1.962  10.043 -0.0542 -0.2287  0.1981
  342MOL0     H45085   5.360   1.801  10.090 -0.7719  0.0249  1.1034
  342MOL0     H45086   5.344   1.859   9.920  0.5805  1.2520 -0.0418
  342MOL0     H45087   5.166   1.937  10.133  2.2617  0.2714 -0.0878
  342MOL0     H45088   5.156   1.989   9.952  0.6388 -0.5978 -0.5922
  342MOL0     H45089   5.115   1.713  10.064  1.9993 -0.5978 -0.4927
  342MOL0     H45090   5.150   1.757   9.892 -1.3041  0.3482 -0.8391
  342MOL0     H45091   4.938   1.896   9.885 -2.1079  1.4683  1.3339
  342MOL0     H45092   4.932   1.882  10.062 -2.4146 -1.7051  0.2400
  342MOL0     H45093   4.879   1.635  10.047 -2.8711 -0.6304 -0.0760
  342MOL0     H45094   4.758   1.737   9.981 -0.2381  0.6613 -0.3167
  342MOL0     H45095   4.962   1.570   9.819  1.1104  1.3109 -1.0200
  342MOL0     H45096   4.885   1.711   9.758  2.4012 -0.7914 -0.0975
  342MOL0     H45097   4.806   1.371   9.885 -1.5762 -1.3770  0.1427
  342MOL0     H45098   4.569   1.221   9.907 -3.0514  1.7703  2.2267
  342MOL0     H45099   4.544   1.178   9.735  0.1556 -0.7274  0.2947
  342MOL0     H45100   4.356   1.345   9.728  2.2582  2.2494  0.3244
  342MOL0     H45101   4.357   1.357   9.904  0.1849  0.1431 -0.6544
  342MOL0     H45102   4.348   1.080   9.776  1.6667  1.2453 -0.8016
  342MOL0     H45103   4.322   1.124   9.951  2.8700  4.2262  0.9889
  342MOL0     H45104   4.146   1.175   9.722  1.0631  2.4254 -0.1139
  342MOL0     H45105   4.130   1.240   9.892  1.1506  1.0569 -1.4101
  342MOL0     H45106   4.041   0.803   9.958  0.0136 -0.1656  1.1368
  342MOL0     H45107   3.807   0.742   9.986 -3.5889  1.3998  2.3080
  342MOL0     H45108   3.294   0.797   9.998 -0.0368 -1.9905 -1.8375
  342MOL0     H45109   3.117   0.731   9.883  0.1112  0.1505 -0.7526
  342MOL0     H45110   2.902   0.768   9.856  1.8854 -1.0765  0.1191
  342MOL0     H45111   2.962   0.671   9.722 -3.3916 -0.9562 -2.6982
  342MOL0     H45112   2.732   0.656   9.691  2.6814 -1.9686 -1.1666
  342MOL0     H45113   2.797   0.758   9.567  0.4153  0.8452  0.1459
  342MOL0     H45114   2.729   0.956   9.716  1.6658 -0.8556  1.9608
  342MOL0     H45115   2.624   0.836   9.803  1.9077 -1.8662 -0.8632
  342MOL0     H45116   2.613   0.878   9.501  0.5387  0.1097  0.9929
  342MOL0     H45117   2.502   0.781   9.584  2.0540 -0.4271  0.7901
  342MOL0     H45118   2.490   1.083   9.611 -3.7791  1.8504 -2.5685
  342MOL0     H45119   2.437   0.963   9.737 -0.2793  0.1923 -0.8352
  342MOL0     H45120   2.253   1.044   9.600  0.7176 -0.8444  1.3244
  342MOL0     H45121   2.269   0.870   9.588  1.4631 -0.4043  1.2662
  342MOL0     H45122   2.428   0.963   9.359  0.3683 -2.5131  2.1751
  342MOL0     H45123   2.276   0.886   9.367  0.3731 -1.1295  1.9385
  342MOL0     H45124   2.320   1.132   9.255 -2.0443  0.5276 -0.1328
  342MOL0     H45125   2.317   1.188   9.422 -1.9211 -0.8382  1.2840
  342MOL0     H45126   3.129   1.079   9.635  1.6111  0.1924  0.3377
  342MOL0     H45127   3.368   1.105   9.706 -2.1248  0.5873 -1.2629
  342MOL0     H45128   3.685   1.127   9.821 -1.3966 -0.6399 -0.4921
  342MOL0     H45129   3.918   1.196   9.820  1.0448  0.1299  0.4491
  342MOL0     H45130   5.680   2.203   9.993 -1.3533 -1.7088  0.4914
  342MOL0     H45131   5.923   2.200   9.984 -2.4254  3.5418 -0.9542
  342MOL0     H45132   6.293   2.081   9.709 -1.2709 -1.8297 -0.1239
  342MOL0     H45133   6.529   2.094   9.702 -0.7596 -2.6354 -1.3623
  342MOL0     H45134   6.731   2.094   9.703 -2.3460 -0.0860  0.7396
  342MOL0     H45135   6.721   1.916   9.721  2.3142 -2.1566  3.4123
  342MOL0     H45136   6.952   1.930   9.826  1.1042  0.0291 -0.0877
  342MOL0     H45137   6.943   2.001   9.654 -0.9908  2.0033 -1.2569
  342MOL0     H45138   6.957   2.131   9.929  1.0933 -0.2503  0.3971
  342MOL0     H45139   6.919   2.220   9.791  0.1837  0.2740  3.7549
  342MOL0     H45140   7.132   2.178   9.687 -0.8781  0.6181  0.5322
  342MOL0     H45141   7.155   2.232   9.858  0.0836  0.0653  0.3320
  342MOL0     H45142   7.365   1.863   9.818  1.4720  0.8972 -0.4799
  342MOL0     H45143   6.568   1.958  10.094 -1.2488  1.3987 -0.3033
  342MOL0     H45144   6.325   1.980  10.122  2.6318 -3.2758  0.6198
  343MOL0     O45145   6.674   6.329   8.531 -0.5716 -0.0368 -0.3375
  343MOL0     C45146   6.729   6.223   8.562  0.3912 -0.6566  1.3403
  343MOL0     O45147   6.673   6.126   8.628 -0.1727  0.0362 -0.7031
  343MOL0     C45148   6.565   6.131   8.706  0.5286  0.4374  0.1456
  343MOL0     C45149   6.487   6.015   8.706 -0.4247  0.8205 -0.1424
  343MOL0     C45150   6.384   6.001   8.807  0.2937  0.6182  0.2426
  343MOL0     C45151   6.353   6.120   8.886 -0.2772  0.7689 -0.4652
  343MOL0     O45152   6.245   6.125   8.974  0.3853  0.3037  0.3145
  343MOL0     C45153   6.162   6.010   8.976 -0.0240  0.0481  0.3182
  343MOL0     C45154   6.061   6.007   9.095  0.2244  0.4552 -0.3683
  343MOL0     C45155   5.954   6.112   9.063  0.0002  0.1141 -0.7207
  343MOL0     C45156   5.829   6.093   9.157 -0.5547  0.8262 -0.0899
  343MOL0     C45157   5.858   6.061   9.302  0.0569  0.2965  0.2477
  343MOL0     C45158   5.736   6.104   9.381 -0.5454 -0.4277  0.1049
  343MOL0     C45159   5.747   6.050   9.524  0.2522  0.2021  0.0612
  343MOL0     C45160   5.640   6.110   9.612  0.4845 -0.0158 -0.7225
  343MOL0     N45161   5.632   6.045   9.745  0.2870  0.6465  0.4180
  343MOL0     C45162   5.536   5.961   9.789  0.7119  0.0328 -0.3708
  343MOL0     C45163   5.568   5.943   9.921 -0.5407 -0.2122  0.1675
  343MOL0     C45164   5.510   5.844  10.009  0.3462  0.0068  0.4035
  343MOL0     C45165   5.360   5.847  10.025  0.2154 -0.2121 -0.8463
  343MOL0     C45166   5.299   5.751  10.131 -0.2008 -0.1272 -0.1135
  343MOL0     C45167   5.146   5.733  10.116 -0.6135 -0.2000 -0.0338
  343MOL0     O45168   5.099   5.869  10.124  0.1013 -0.0760  0.2563
  343MOL0     C45169   4.968   5.865  10.162 -0.1212 -0.6671 -0.3578
  343MOL0     C45170   4.867   5.824  10.073 -0.4188 -0.1262  0.0603
  343MOL0     C45171   4.733   5.826  10.109 -0.8729  0.1291  0.9614
  343MOL0     C45172   4.699   5.870  10.240 -0.5898 -0.1590  0.2375
  343MOL0     C45173   4.560   5.868  10.282 -1.0585 -0.1655 -0.1679
  343MOL0     O45174   4.537   5.923  10.406 -0.5843 -0.3223 -0.4307
  343MOL0     C45175   4.413   5.915  10.455 -0.2573  0.0892 -0.1479
  343MOL0     C45176   4.295   5.948  10.387 -0.5720 -0.5175  0.3223
  343MOL0     C45177   4.177   5.949  10.456 -0.6934  0.0044 -0.1453
  343MOL0     C45178   4.173   5.888  10.589 -0.3224 -0.3160 -0.1726
  343MOL0     O45179   4.055   5.898  10.657 -0.0999  0.4536 -0.8126
  343MOL0     C45180   3.921   5.925  10.611 -0.0103  0.0003  0.1970
  343MOL0     C45181   3.831   5.922  10.732 -0.1937  0.0624  0.3510
  343MOL0     C45182   3.684   5.939  10.699 -0.3214 -0.4173 -0.0935
  343MOL0     C45183   3.581   5.918  10.817 -0.1438  0.1023 -0.2156
  343MOL0     C45184   3.621   6.007  10.937  0.3382 -0.0426 -0.2975
  343MOL0     C45185   3.518   5.987  11.055 -0.0449  0.4358  0.0647
  343MOL0     C45186   3.582   6.035  11.181  0.6266  0.1746  0.1807
  343MOL0     C45187   3.482   6.070  11.295  0.6699  0.1178  0.5189
  343MOL0    Cl45188   3.368   5.940  11.313  0.1421  0.2857 -0.0489
  343MOL0     C45189   4.289   5.850  10.655  0.2485 -0.1934 -0.0864
  343MOL0     C45190   4.405   5.868  10.586  0.0050  0.4432 -0.3192
  343MOL0     O45191   4.477   5.810  10.207 -0.2291  0.8813 -0.1924
  343MOL0     C45192   4.803   5.909  10.334 -0.4540  0.1457  0.4491
  343MOL0     C45193   4.941   5.905  10.288 -0.7212 -0.5466 -0.0626
  343MOL0     N45194   5.696   5.998   9.931 -0.5218  0.2615 -0.6757
  343MOL0     N45195   5.733   6.058   9.827  0.0561 -0.3859 -0.2586
  343MOL0     C45196   6.425   6.239   8.865  0.6645  0.3349 -0.2480
  343MOL0     C45197   6.530   6.239   8.780 -0.0629 -0.4624 -0.9556
  343MOL0     C45198   6.857   6.192   8.494  0.6095  0.0733  0.4278
  343MOL0     C45199   6.942   6.297   8.442  0.7222 -0.1378  0.7066
  343MOL0     C45200   7.052   6.263   8.361  0.3638  0.4090  0.2433
  343MOL0     C45201   7.076   6.124   8.335  0.0250  0.4779  0.6777
  343MOL0     O45202   7.190   6.100   8.259 -0.2853  0.1163 -0.3612
  343MOL0     C45203   7.175   6.004   8.151 -0.0738 -0.2687  0.2730
  343MOL0     C45204   7.225   6.053   8.016  0.2329 -0.0949  0.6494
  343MOL0     C45205   7.180   6.194   7.976  0.1108  0.1303  0.1247
  343MOL0     C45206   7.227   6.238   7.835  0.7803 -0.3164  0.4661
  343MOL0     C45207   7.126   6.192   7.737 -1.0941  0.4038 -1.2028
  343MOL0     C45208   7.052   6.141   7.660 -0.2500  0.4380 -0.4147
  343MOL0     C45209   7.002   6.019   8.391  0.3779 -0.1989 -0.1098
  343MOL0     C45210   6.884   6.055   8.463  0.5773 -0.4508 -0.2245
  343MOL0     H45211   6.512   5.927   8.648  0.2495 -0.1774  1.5731
  343MOL0     H45212   6.312   5.920   8.803  1.3095 -0.2792 -0.2863
  343MOL0     H45213   6.228   5.924   8.990 -0.1223 -0.4951 -2.0723
  343MOL0     H45214   6.109   6.002   8.880  0.2757  1.2006  0.0419
  343MOL0     H45215   6.112   6.016   9.191  0.8253  0.4491 -0.6819
  343MOL0     H45216   6.032   5.901   9.094  1.1945  0.0794  2.3692
  343MOL0     H45217   5.916   6.106   8.961 -4.1098  2.7289  0.4160
  343MOL0     H45218   5.999   6.210   9.080 -2.2894  1.0145  0.6341
  343MOL0     H45219   5.759   6.176   9.144 -1.8139 -0.0581  0.7801
  343MOL0     H45220   5.776   6.010   9.109  0.9729  0.1974 -0.7356
  343MOL0     H45221   5.953   6.108   9.331  1.3335  0.7776 -4.0424
  343MOL0     H45222   5.875   5.954   9.311  0.1805  0.1718 -1.2545
  343MOL0     H45223   5.637   6.073   9.345 -0.8381 -2.2005  2.2257
  343MOL0     H45224   5.729   6.212   9.389  0.2568 -0.5158  2.8812
  343MOL0     H45225   5.741   5.941   9.515 -1.7596  0.3540 -0.8282
  343MOL0     H45226   5.843   6.087   9.563  0.4371  1.6901 -1.6871
  343MOL0     H45227   5.543   6.088   9.567  1.0404 -0.8361 -1.5637
  343MOL0     H45228   5.665   6.217   9.616 -1.5815  0.6762 -3.3494
  343MOL0     H45229   5.452   5.928   9.728  0.8329 -3.6328  1.1689
  343MOL0     H45230   5.553   5.860  10.109  3.2905  0.8359 -0.8854
  343MOL0     H45231   5.542   5.741   9.991  3.3246  0.4242  2.4732
  343MOL0     H45232   5.313   5.817   9.931 -0.3949  1.1440 -0.9925
  343MOL0     H45233   5.326   5.947  10.054  1.3313 -0.8891  3.5963
  343MOL0     H45234   5.343   5.651  10.121  0.3107 -0.0697  1.3786
  343MOL0     H45235   5.325   5.781  10.232  0.4432 -0.7082 -0.0978
  343MOL0     H45236   5.095   5.675  10.194 -2.3662  2.5016  0.9634
  343MOL0     H45237   5.125   5.686  10.020 -2.1992 -0.7025  0.5346
  343MOL0     H45238   4.887   5.796   9.970  1.5959 -2.8732  1.0526
  343MOL0     H45239   4.659   5.804  10.033  0.0041  0.0022  0.1250
  343MOL0     H45240   4.299   5.985  10.285 -2.3625  1.5668  0.9378
  343MOL0     H45241   4.095   5.978  10.391 -1.2494  0.6054  0.8003
  343MOL0     H45242   3.901   5.840  10.545 -1.3747  1.9559 -2.0738
  343MOL0     H45243   3.921   6.025  10.565 -0.7728  0.7220  1.7100
  343MOL0     H45244   3.875   5.996  10.799  3.3211 -1.6311  0.1408
  343MOL0     H45245   3.859   5.831  10.787  2.5025  1.7350  2.0173
  343MOL0     H45246   3.649   5.879  10.614  0.5645 -1.4808  0.2592
  343MOL0     H45247   3.674   6.041  10.662  2.2054  0.3554  1.1461
  343MOL0     H45248   3.478   5.944  10.790 -1.1871 -2.4225  1.0003
  343MOL0     H45249   3.592   5.812  10.845  2.4810  0.2163 -0.5855
  343MOL0     H45250   3.608   6.108  10.898 -2.3602 -0.4826 -0.7439
  343MOL0     H45251   3.723   5.980  10.967  0.3725 -0.7921 -1.0272
  343MOL0     H45252   3.498   5.881  11.071 -0.2655  0.5266  0.4007
  343MOL0     H45253   3.421   6.031  11.030 -1.3739 -2.5857 -0.4916
  343MOL0     H45254   3.655   5.957  11.207  0.1754 -0.6927 -1.0241
  343MOL0     H45255   3.642   6.124  11.165  0.3497  0.5961  1.3922
  343MOL0     H45256   3.429   6.163  11.270 -1.6353 -1.5691 -1.3584
  343MOL0     H45257   3.537   6.092  11.387  0.3856 -2.3561  1.3523
  343MOL0     H45258   4.270   5.821  10.758  1.3287 -0.3068  0.0987
  343MOL0     H45259   4.494   5.839  10.642 -0.6081  1.8409  1.4532
  343MOL0     H45260   4.771   5.938  10.433 -1.0450  2.0369 -0.2635
  343MOL0     H45261   5.021   5.934  10.356 -0.8295  0.8778 -0.4925
  343MOL0     H45262   6.398   6.329   8.920 -1.3465 -0.0667 -0.4808
  343MOL0     H45263   6.592   6.328   8.784 -1.9288  0.8887 -0.7652
  343MOL0     H45264   6.936   6.403   8.461 -1.3978  0.5908 -3.0608
  343MOL0     H45265   7.123   6.338   8.329  0.0750  0.3649 -0.5315
  343MOL0     H45266   7.070   5.982   8.129  0.1408 -0.4969 -0.5556
  343MOL0     H45267   7.232   5.913   8.172 -0.1971 -0.6129 -0.7907
  343MOL0     H45268   7.333   6.047   8.026  0.2821 -1.7349 -0.5782
  343MOL0     H45269   7.188   5.981   7.943 -0.2652  0.3842  0.4173
  343MOL0     H45270   7.233   6.255   8.051  0.6825 -0.5022  0.2410
  343MOL0     H45271   7.072   6.202   7.983  0.0005  1.3760 -2.1858
  343MOL0     H45272   7.239   6.345   7.819 -1.6054  0.3018  2.2675
  343MOL0     H45273   7.325   6.195   7.815  0.0242 -1.4677 -0.9904
  343MOL0     H45274   6.985   6.099   7.587 -0.5123  0.4981 -0.2124
  343MOL0     H45275   7.039   5.920   8.367  1.5656 -0.0184  0.9008
  343MOL0     H45276   6.826   5.971   8.498  1.1443 -0.8850 -0.3252
  344MOL0     O45277   6.170   1.505   4.899  0.1383 -0.5535 -0.4839
  344MOL0     C45278   6.242   1.488   5.001  0.1510  0.4879 -0.0274
  344MOL0     O45279   6.194   1.446   5.122 -0.5853 -0.3394  0.0004
  344MOL0     C45280   6.060   1.450   5.147 -0.0169  0.3077  0.0885
  344MOL0     C45281   6.006   1.342   5.220  1.0010  0.7182 -0.9116
  344MOL0     C45282   5.866   1.343   5.262 -0.2320 -0.4244 -0.3681
  344MOL0     C45283   5.790   1.460   5.226 -0.4567 -0.2817  0.0413
  344MOL0     O45284   5.652   1.482   5.259  0.2132  0.5949 -0.1210
  344MOL0     C45285   5.568   1.398   5.181 -0.6539  0.7658 -0.2546
  344MOL0     C45286   5.487   1.482   5.074  0.5269  0.6976 -0.3041
  344MOL0     C45287   5.365   1.404   5.043 -0.2891 -0.4065  0.9196
  344MOL0     C45288   5.281   1.484   4.935  0.2539  0.0742 -0.7273
  344MOL0     C45289   5.142   1.415   4.919  0.3641  0.0696 -0.4521
  344MOL0     C45290   5.058   1.510   4.841 -0.2583  0.6589  0.3853
  344MOL0     C45291   5.086   1.496   4.690 -2.0774  0.3141 -0.3883
  344MOL0     C45292   4.977   1.568   4.621  0.7109 -0.4287  0.3706
  344MOL0     N45293   4.969   1.712   4.656 -0.0457 -0.1383  0.4188
  344MOL0     C45294   5.079   1.794   4.665  0.1516 -0.2071 -0.7324
  344MOL0     C45295   5.025   1.919   4.693 -0.3526 -1.0058 -0.1726
  344MOL0     C45296   5.103   2.046   4.727 -0.2676  0.8878 -0.1158
  344MOL0     C45297   5.019   2.159   4.779 -0.2085  0.3638 -1.1331
  344MOL0     C45298   5.110   2.279   4.820 -0.8318 -0.2368  0.0915
  344MOL0     C45299   5.039   2.362   4.927 -0.5421 -0.1679 -0.2596
  344MOL0     O45300   4.922   2.427   4.869  0.1567 -0.3368 -0.5410
  344MOL0     C45301   4.823   2.469   4.957  0.0670  0.5368  0.2098
  344MOL0     C45302   4.838   2.455   5.100  0.1845 -0.2722 -0.8032
  344MOL0     C45303   4.725   2.492   5.173 -0.5179 -0.1234 -0.0598
  344MOL0     C45304   4.608   2.545   5.113 -0.2672 -0.2308  0.1701
  344MOL0     C45305   4.496   2.571   5.211  0.4130  0.0883  0.3351
  344MOL0     O45306   4.529   2.568   5.341 -0.8446 -0.2019 -0.0170
  344MOL0     C45307   4.429   2.582   5.435 -0.3752  0.0573 -0.1641
  344MOL0     C45308   4.417   2.501   5.542  0.3440  0.5421  0.0324
  344MOL0     C45309   4.313   2.507   5.638 -0.1200 -1.1262  0.0843
  344MOL0     C45310   4.216   2.607   5.629  0.0962  0.5594  0.4906
  344MOL0     O45311   4.115   2.631   5.715  0.5541  0.7222 -0.2692
  344MOL0     C45312   4.108   2.543   5.827 -0.7763  0.4427  0.0023
  344MOL0     C45313   4.002   2.600   5.923 -0.7753 -0.3475 -0.4717
  344MOL0     C45314   4.018   2.754   5.955 -0.4528 -0.0744 -0.2394
  344MOL0     C45315   3.900   2.811   6.035 -0.1306  0.2666  0.2702
  344MOL0     C45316   3.893   2.954   6.081 -0.1197 -0.2485  0.3228
  344MOL0     C45317   3.999   2.987   6.172 -0.3657  0.2413 -0.4882
  344MOL0     C45318   3.983   3.130   6.220 -0.7398 -0.5574 -0.6818
  344MOL0     C45319   4.063   3.137   6.355  0.3789 -0.1119  0.7541
  344MOL0    Cl45320   4.237   3.082   6.328 -0.0638  0.3012 -0.3104
  344MOL0     C45321   4.233   2.695   5.526  0.4694 -0.1246 -0.2887
  344MOL0     C45322   4.329   2.686   5.425  0.2746 -0.1090 -0.5137
  344MOL0     O45323   4.388   2.583   5.161  0.8049  0.2546 -0.6442
  344MOL0     C45324   4.597   2.553   4.975  0.8584  0.3502  0.1411
  344MOL0     C45325   4.705   2.514   4.896  0.4327  0.4488  0.1451
  344MOL0     N45326   4.885   1.899   4.701  0.6110  0.2498  0.3116
  344MOL0     N45327   4.855   1.776   4.665  0.1497 -0.5457  0.3199
  344MOL0     C45328   5.846   1.554   5.145 -0.1854 -1.0195 -0.2490
  344MOL0     C45329   5.977   1.550   5.108  0.3301  0.0688  0.6601
  344MOL0     C45330   6.382   1.529   4.978  0.1316  0.4001  0.1074
  344MOL0     C45331   6.422   1.594   4.862  0.2217  0.7313  0.5742
  344MOL0     C45332   6.556   1.603   4.840  0.4298  0.3046  0.4922
  344MOL0     C45333   6.654   1.561   4.925 -0.2594  0.1573  0.5212
  344MOL0     O45334   6.786   1.575   4.882 -0.1059  0.5921 -0.4174
  344MOL0     C45335   6.880   1.475   4.925  0.1418  0.1645  0.0844
  344MOL0     C45336   7.015   1.455   4.853 -0.3468 -0.1212 -0.6623
  344MOL0     C45337   7.109   1.358   4.921  0.3339  0.0292  0.9233
  344MOL0     C45338   7.219   1.320   4.820  0.2688 -0.3096  0.1792
  344MOL0     C45339   7.301   1.219   4.876  0.6716 -0.5297 -0.3140
  344MOL0     C45340   7.370   1.129   4.918 -0.2592 -0.0179  0.3397
  344MOL0     C45341   6.617   1.509   5.046 -0.2262 -0.2809 -0.5296
  344MOL0     C45342   6.477   1.507   5.084 -0.4088 -0.2117  0.7830
  344MOL0     H45343   6.067   1.259   5.256 -2.2213 -0.9006  1.3495
  344MOL0     H45344   5.809   1.268   5.316  0.0206  0.5709  1.3731
  344MOL0     H45345   5.505   1.348   5.254 -1.3923  0.3840 -1.1283
  344MOL0     H45346   5.623   1.317   5.131 -0.8874  0.7670 -0.5178
  344MOL0     H45347   5.544   1.513   4.986 -0.8726  3.0546 -0.4685
  344MOL0     H45348   5.460   1.582   5.110  2.2666  1.2689 -0.4635
  344MOL0     H45349   5.306   1.389   5.133 -0.8594  3.6928  1.4253
  344MOL0     H45350   5.392   1.307   4.999  0.1315  0.2096 -0.2275
  344MOL0     H45351   5.277   1.584   4.979 -0.6101 -0.3709  0.2286
  344MOL0     H45352   5.328   1.503   4.838  0.0136 -0.9766 -1.0684
  344MOL0     H45353   5.090   1.392   5.012 -1.3682  1.1642 -1.0903
  344MOL0     H45354   5.142   1.323   4.860 -1.4713 -0.9256  0.9999
  344MOL0     H45355   5.073   1.610   4.884  0.4863  0.3257  0.9318
  344MOL0     H45356   4.954   1.480   4.852 -0.3675  1.2916  1.1572
  344MOL0     H45357   5.179   1.542   4.657 -0.0467 -0.7730  3.2581
  344MOL0     H45358   5.082   1.392   4.656 -0.1501  0.0305  0.1427
  344MOL0     H45359   4.875   1.534   4.640  0.6109 -0.0480  0.5220
  344MOL0     H45360   4.992   1.552   4.514 -3.2286 -1.0068 -0.2375
  344MOL0     H45361   5.183   1.765   4.666 -0.2653 -1.8723  1.4917
  344MOL0     H45362   5.156   2.081   4.638 -2.3578  2.3227 -0.8608
  344MOL0     H45363   5.176   2.024   4.805 -1.5522  1.3256  1.2673
  344MOL0     H45364   4.968   2.121   4.868 -0.1579 -0.6590 -1.5251
  344MOL0     H45365   4.954   2.185   4.695 -0.7921 -0.5287 -0.9640
  344MOL0     H45366   5.191   2.234   4.878 -0.9882 -0.6098  0.0236
  344MOL0     H45367   5.134   2.341   4.733 -3.5401  2.7142  1.2736
  344MOL0     H45368   5.101   2.438   4.976 -0.6819 -1.3086  1.8237
  344MOL0     H45369   5.014   2.287   5.002  0.4926 -1.7341 -1.4141
  344MOL0     H45370   4.930   2.413   5.140  1.1616  0.2426 -2.3841
  344MOL0     H45371   4.738   2.478   5.280  2.7788 -2.2276 -0.5972
  344MOL0     H45372   4.480   2.412   5.547  0.4648  0.4897 -1.7113
  344MOL0     H45373   4.308   2.440   5.723  0.7263 -0.4346  0.7048
  344MOL0     H45374   4.198   2.526   5.887 -0.1300 -0.5999 -1.2138
  344MOL0     H45375   4.079   2.448   5.782 -1.9964  0.2987  1.0340
  344MOL0     H45376   4.009   2.541   6.015 -1.4078 -0.0779 -0.2424
  344MOL0     H45377   3.897   2.591   5.893 -1.5916  2.8784  1.0174
  344MOL0     H45378   4.027   2.806   5.859  1.0078  1.2871  0.5712
  344MOL0     H45379   4.109   2.770   6.014 -1.1713 -1.6959  1.4190
  344MOL0     H45380   3.811   2.797   5.972 -0.2093 -1.3526  0.6923
  344MOL0     H45381   3.892   2.751   6.126 -0.0410 -0.8255 -0.4323
  344MOL0     H45382   3.802   2.980   6.136 -0.8510  0.8051 -1.2804
  344MOL0     H45383   3.892   3.018   5.992 -3.0498  1.2750  1.3172
  344MOL0     H45384   4.095   2.970   6.122 -0.1654  0.4352 -0.1783
  344MOL0     H45385   3.997   2.907   6.248  2.0231 -0.9472 -1.5489
  344MOL0     H45386   4.027   3.201   6.149 -0.2682 -1.1940 -1.0321
  344MOL0     H45387   3.881   3.166   6.238  0.1824  0.9393  2.3386
  344MOL0     H45388   4.012   3.078   6.431  0.9602  1.3678  2.3783
  344MOL0     H45389   4.072   3.241   6.389  1.4070 -0.7200  2.5369
  344MOL0     H45390   4.153   2.766   5.517  0.1698 -0.4157  0.0299
  344MOL0     H45391   4.342   2.756   5.343  4.0928  1.4353  1.1420
  344MOL0     H45392   4.505   2.594   4.933 -1.2384  0.2183  4.1133
  344MOL0     H45393   4.701   2.521   4.788 -1.2978  0.3399  0.1738
  344MOL0     H45394   5.801   1.651   5.128  4.4312  1.2330 -1.2849
  344MOL0     H45395   6.008   1.636   5.049  1.7130  0.2711  1.6158
  344MOL0     H45396   6.357   1.633   4.784  1.3622  0.1346 -0.7089
  344MOL0     H45397   6.590   1.641   4.744 -2.4801 -0.8689 -1.0883
  344MOL0     H45398   6.835   1.375   4.917  2.2612 -0.8020 -0.4193
  344MOL0     H45399   6.901   1.478   5.033 -1.5568 -0.2043  0.4669
  344MOL0     H45400   7.005   1.432   4.746  0.3201 -0.8758 -0.5762
  344MOL0     H45401   7.061   1.554   4.863  1.6356 -1.1500  1.2162
  344MOL0     H45402   7.063   1.266   4.957  0.4864 -0.4214 -0.0104
  344MOL0     H45403   7.147   1.416   5.006  0.8604  0.1894  0.5788
  344MOL0     H45404   7.160   1.280   4.737 -2.0180 -1.6410  2.3067
  344MOL0     H45405   7.265   1.411   4.779  1.1350  0.0482  1.8812
  344MOL0     H45406   7.426   1.043   4.949  0.0618  0.4491  1.1059
  344MOL0     H45407   6.690   1.474   5.118 -1.2507 -2.5522 -0.5232
  344MOL0     H45408   6.449   1.493   5.187  2.2274 -3.3712  1.2229
  345MOL0     O45409   6.024  10.273   6.429 -0.2493  0.2447  0.1489
  345MOL0     C45410   6.011  10.291   6.310 -0.1023  0.0643  0.7961
  345MOL0     O45411   5.927  10.224   6.226  0.1893 -0.4424 -0.4043
  345MOL0     C45412   5.837  10.125   6.263 -0.4192  0.1568 -0.2650
  345MOL0     C45413   5.778  10.126   6.390  0.6165 -0.3624  0.5370
  345MOL0     C45414   5.698  10.015   6.430  0.0212 -0.6059  0.2308
  345MOL0     C45415   5.674   9.911   6.342  0.5703  0.2935 -0.3565
  345MOL0     O45416   5.612   9.801   6.401 -0.2479  0.9021 -0.7084
  345MOL0     C45417   5.582   9.680   6.334 -0.5799 -0.1509 -0.6936
  345MOL0     C45418   5.461   9.606   6.394 -1.0280 -0.8021  0.2916
  345MOL0     C45419   5.342   9.698   6.419  0.4284  0.1626  0.0302
  345MOL0     C45420   5.225   9.620   6.477  0.2226 -0.3824  0.1890
  345MOL0     C45421   5.123   9.705   6.547 -0.2829 -0.7757  0.6083
  345MOL0     C45422   4.999   9.624   6.606  0.0940 -0.3183  0.3384
  345MOL0     C45423   5.045   9.565   6.739 -0.2750 -0.0504 -0.4470
  345MOL0     C45424   5.074   9.413   6.732  0.4203 -0.3149 -0.0699
  345MOL0     N45425   5.072   9.345   6.858 -0.6471 -0.3139 -0.3210
  345MOL0     C45426   5.151   9.386   6.969  1.5054 -0.0350 -0.4144
  345MOL0     C45427   5.131   9.288   7.060 -0.8327 -0.9462  0.6304
  345MOL0     C45428   5.219   9.287   7.186 -0.6712 -0.6642 -0.1215
  345MOL0     C45429   5.308   9.167   7.186 -0.0748 -0.2109  0.2133
  345MOL0     C45430   5.413   9.192   7.303  0.5609  0.2467  0.2340
  345MOL0     C45431   5.549   9.113   7.294 -0.2668 -0.5571  0.7919
  345MOL0     O45432   5.643   9.161   7.387  0.2173  0.2757 -0.6686
  345MOL0     C45433   5.775   9.139   7.352  0.1679 -0.1754  0.5880
  345MOL0     C45434   5.823   9.012   7.310  0.6697 -0.1898  0.5914
  345MOL0     C45435   5.952   8.987   7.277  0.0378  0.5157 -0.0530
  345MOL0     C45436   6.049   9.092   7.285 -0.3060  0.1591  0.2991
  345MOL0     C45437   6.190   9.066   7.242  0.1843  0.7636  0.0248
  345MOL0     O45438   6.275   9.168   7.249 -0.3214 -1.1368 -0.1274
  345MOL0     C45439   6.406   9.151   7.226  1.1422  0.1073 -0.5887
  345MOL0     C45440   6.483   9.239   7.149  0.3112  0.0386  0.2849
  345MOL0     C45441   6.610   9.199   7.106 -0.6314  0.0925 -0.3365
  345MOL0     C45442   6.680   9.087   7.163 -0.5786 -0.5935 -0.1257
  345MOL0     O45443   6.809   9.069   7.118  0.4205 -0.8361  0.9117
  345MOL0     C45444   6.888   8.989   7.208  0.5921 -0.3955  0.2370
  345MOL0     C45445   7.025   8.972   7.133  0.1492  0.4254  0.0671
  345MOL0     C45446   7.092   8.846   7.184 -0.8930 -0.5395  0.4553
  345MOL0     C45447   7.228   8.824   7.113  0.3693 -0.2977 -0.6360
  345MOL0     C45448   7.305   8.696   7.155  0.5488 -0.0658  0.5191
  345MOL0     C45449   7.452   8.712   7.103 -0.0222  0.3457 -0.3046
  345MOL0     C45450   7.559   8.618   7.157 -0.0763 -0.1457 -0.4197
  345MOL0     C45451   7.513   8.471   7.145  0.0256  1.0904 -0.1733
  345MOL0    Cl45452   7.618   8.378   7.246  0.2188  0.0661 -0.0790
  345MOL0     C45453   6.605   9.008   7.248 -1.0150 -0.1347  0.4243
  345MOL0     C45454   6.471   9.041   7.283 -0.7749 -0.5759 -0.2416
  345MOL0     O45455   6.223   8.953   7.199 -0.0652 -0.2101 -0.2795
  345MOL0     C45456   5.997   9.215   7.321  0.1375  0.9551 -0.2171
  345MOL0     C45457   5.867   9.242   7.351  0.0233  0.2422 -0.0369
  345MOL0     N45458   5.029   9.205   7.022 -0.5715 -0.8811  0.3159
  345MOL0     N45459   4.989   9.238   6.902  0.1110  0.2710  0.8006
  345MOL0     C45460   5.742   9.909   6.213  0.6207  0.9177 -0.5383
  345MOL0     C45461   5.814  10.020   6.174 -0.2264 -0.2811  0.6108
  345MOL0     C45462   6.114  10.391   6.251  0.9426  0.5488  0.5643
  345MOL0     C45463   6.234  10.417   6.320 -0.4220 -0.3625  0.3597
  345MOL0     C45464   6.324  10.512   6.266  0.2645 -0.4454  0.3048
  345MOL0     C45465   6.292  10.586   6.155 -0.1291 -0.0746  0.5917
  345MOL0     O45466   6.398  10.672   6.117  0.1924  0.5435  0.1791
  345MOL0     C45467   6.367  10.801   6.065 -0.5937 -0.0880 -0.3996
  345MOL0     C45468   6.372  10.803   5.914  0.1598 -0.8225 -1.2363
  345MOL0     C45469   6.395  10.937   5.852  0.5445 -0.2157 -0.4237
  345MOL0     C45470   6.293  11.046   5.889 -0.0238 -0.4562 -0.3822
  345MOL0     C45471   6.163  10.998   5.849 -0.2926 -0.7065 -0.7722
  345MOL0     C45472   6.046  10.981   5.815 -0.3541  0.6948 -0.3856
  345MOL0     C45473   6.176  10.555   6.080  0.2242 -0.0700 -0.8325
  345MOL0     C45474   6.083  10.462   6.129  0.7058  0.9555  0.0752
  345MOL0     H45475   5.795  10.215   6.450 -0.3206 -0.4338  0.9225
  345MOL0     H45476   5.652  10.004   6.528  1.9799 -3.5464  0.9453
  345MOL0     H45477   5.669   9.614   6.334  0.4555  1.1620 -0.9289
  345MOL0     H45478   5.560   9.702   6.229 -0.6722 -1.4369 -0.9573
  345MOL0     H45479   5.489   9.568   6.493 -0.7241  0.6263  0.7814
  345MOL0     H45480   5.420   9.529   6.329 -0.7989 -0.1604 -0.6410
  345MOL0     H45481   5.316   9.744   6.323 -1.2153  0.5053  0.5938
  345MOL0     H45482   5.379   9.776   6.486  0.3978  0.0053  0.2324
  345MOL0     H45483   5.174   9.575   6.392  0.0395  0.1817 -0.0015
  345MOL0     H45484   5.260   9.538   6.541  0.5963 -0.9817 -0.7651
  345MOL0     H45485   5.074   9.774   6.478  1.0908  0.9909  1.3100
  345MOL0     H45486   5.169   9.769   6.624 -0.1317  0.2636 -0.3159
  345MOL0     H45487   4.941   9.553   6.545 -0.0041  0.0019  0.0566
  345MOL0     H45488   4.924   9.702   6.623  0.6747  0.7196 -1.5407
  345MOL0     H45489   5.130   9.617   6.784 -1.0143  2.2440 -1.5061
  345MOL0     H45490   4.968   9.585   6.814  0.8845  0.5132  0.6387
  345MOL0     H45491   5.174   9.396   6.691 -1.2327 -3.5151 -3.3737
  345MOL0     H45492   4.999   9.367   6.667  0.7063 -1.8926  0.6679
  345MOL0     H45493   5.215   9.473   6.976 -0.0791  1.2584 -1.4078
  345MOL0     H45494   5.147   9.285   7.269 -0.1997 -2.0673  0.2799
  345MOL0     H45495   5.280   9.378   7.189 -0.3125 -0.8849  2.5989
  345MOL0     H45496   5.347   9.159   7.084 -1.2705 -0.8667 -0.2134
  345MOL0     H45497   5.251   9.076   7.204 -1.2827  0.0722 -1.9131
  345MOL0     H45498   5.442   9.296   7.292  1.5054 -0.2809 -4.6341
  345MOL0     H45499   5.369   9.159   7.397  1.5608  1.1475  1.0381
  345MOL0     H45500   5.591   9.128   7.194 -0.6702  1.8095  0.9308
  345MOL0     H45501   5.529   9.005   7.297 -2.0846 -0.2507  0.9460
  345MOL0     H45502   5.749   8.933   7.317  0.4877 -0.0681  0.0894
  345MOL0     H45503   5.973   8.884   7.248 -3.2955 -0.3683  0.2377
  345MOL0     H45504   6.440   9.333   7.116  2.1314  0.9228  0.2874
  345MOL0     H45505   6.661   9.256   7.028 -2.5973 -1.0730 -2.5937
  345MOL0     H45506   6.835   8.894   7.221  0.7499 -0.3652  1.1574
  345MOL0     H45507   6.902   9.039   7.304 -1.9070  2.1721 -0.5956
  345MOL0     H45508   7.086   9.060   7.154 -0.1438  1.3394 -2.5428
  345MOL0     H45509   7.006   8.967   7.026 -0.6375 -2.6999  0.2547
  345MOL0     H45510   7.034   8.757   7.158  0.3794 -1.7300  1.5170
  345MOL0     H45511   7.116   8.858   7.290  1.5293 -0.6230 -0.0067
  345MOL0     H45512   7.210   8.828   7.005  0.6816  1.5350 -0.6590
  345MOL0     H45513   7.283   8.914   7.143  1.4943 -1.1527 -0.0635
  345MOL0     H45514   7.245   8.617   7.109 -2.2891  2.1505  0.1084
  345MOL0     H45515   7.313   8.689   7.264  2.9617 -0.5558  0.3703
  345MOL0     H45516   7.483   8.808   7.144 -0.9583 -0.1064  1.5774
  345MOL0     H45517   7.452   8.716   6.993 -2.8095  1.2517 -0.3663
  345MOL0     H45518   7.650   8.632   7.098 -0.0681 -0.2166 -0.4229
  345MOL0     H45519   7.585   8.645   7.260  0.8992  1.4308 -1.0420
  345MOL0     H45520   7.508   8.442   7.040 -1.2983  0.8835 -0.0673
  345MOL0     H45521   7.411   8.466   7.182  0.2567 -0.5765  0.3291
  345MOL0     H45522   6.639   8.917   7.296  2.9092  1.0512  0.3115
  345MOL0     H45523   6.421   8.975   7.353 -0.0473 -0.1910  0.6665
  345MOL0     H45524   6.071   9.292   7.336  2.2029 -0.9717  0.0411
  345MOL0     H45525   5.835   9.343   7.379  0.4216 -0.2412  2.4413
  345MOL0     H45526   5.727   9.817   6.157 -2.8256  0.6629  0.5938
  345MOL0     H45527   5.849  10.019   6.071  0.1423 -0.4300  0.7349
  345MOL0     H45528   6.259  10.360   6.409 -4.2168 -2.9306  0.0519
  345MOL0     H45529   6.419  10.528   6.317  0.1354 -1.1532  0.7846
  345MOL0     H45530   6.441  10.868   6.109  0.6774 -1.1687 -0.8375
  345MOL0     H45531   6.268  10.839   6.093 -0.3430 -0.4926  1.0935
  345MOL0     H45532   6.459  10.744   5.885  2.6956  0.6752  2.5489
  345MOL0     H45533   6.279  10.762   5.874 -0.4915  1.5061 -2.3172
  345MOL0     H45534   6.386  10.922   5.744 -1.2149 -0.5228 -0.2482
  345MOL0     H45535   6.494  10.967   5.887 -0.2949  0.9358  1.0512
  345MOL0     H45536   6.288  11.067   5.997  1.4195 -0.3336 -0.3283
  345MOL0     H45537   6.312  11.136   5.830 -2.0613  1.0249  1.0436
  345MOL0     H45538   5.942  10.978   5.786 -1.7659  2.5271  3.8048
  345MOL0     H45539   6.147  10.612   5.992 -0.0728  1.7350  0.3730
  345MOL0     H45540   5.993  10.445   6.070  1.3976 -0.3392 -0.6455
  346MOL0     O45541   4.596   9.581   4.136  0.0110 -0.1248 -0.2963
  346MOL0     C45542   4.590   9.663   4.229  0.5274  0.3140 -1.4186
  346MOL0     O45543   4.472   9.679   4.301  0.0116  0.0729  0.0527
  346MOL0     C45544   4.354   9.618   4.258  0.1456  0.6272  0.5685
  346MOL0     C45545   4.286   9.650   4.141 -0.1414 -0.7293 -0.0478
  346MOL0     C45546   4.169   9.574   4.105 -0.1931 -0.1206  0.4738
  346MOL0     C45547   4.113   9.479   4.188 -0.8741 -1.1268  0.3668
  346MOL0     O45548   3.996   9.420   4.149  0.0352 -0.7694 -0.4630
  346MOL0     C45549   3.923   9.350   4.255 -0.0616 -0.3813  0.1971
  346MOL0     C45550   3.787   9.331   4.205 -0.0971 -0.1811  0.0501
  346MOL0     C45551   3.692   9.263   4.310  0.5060 -1.5097  0.6703
  346MOL0     C45552   3.548   9.262   4.254  1.2189 -1.0130 -0.4409
  346MOL0     C45553   3.456   9.203   4.362  0.6031  0.7547  0.2014
  346MOL0     C45554   3.319   9.252   4.338  0.6535 -0.7301  0.1187
  346MOL0     C45555   3.222   9.201   4.441  0.1386  0.4923  0.5010
  346MOL0     C45556   3.149   9.064   4.413 -0.7404  0.4453  0.2378
  346MOL0     N45557   3.061   9.041   4.520 -0.1506  0.2501 -0.5356
  346MOL0     C45558   3.074   8.959   4.624 -0.1401 -0.5508  0.4755
  346MOL0     C45559   2.944   8.943   4.676 -0.2101 -0.5309 -0.0024
  346MOL0     C45560   2.907   8.853   4.791  0.2376 -0.5238 -0.8162
  346MOL0     C45561   2.767   8.803   4.812 -0.0022 -0.5473 -1.1640
  346MOL0     C45562   2.652   8.901   4.847 -0.6402  0.6680  0.1045
  346MOL0     C45563   2.522   8.824   4.867 -0.5608  0.2783  0.4586
  346MOL0     O45564   2.410   8.917   4.871 -0.2309 -0.5884 -0.1218
  346MOL0     C45565   2.279   8.886   4.851  0.2393 -0.3986  0.2508
  346MOL0     C45566   2.170   8.976   4.842 -0.7412 -0.3605  0.4375
  346MOL0     C45567   2.036   8.939   4.827 -0.1028 -0.4167  0.0202
  346MOL0     C45568   2.005   8.811   4.803 -0.6197  0.2627  0.2511
  346MOL0     C45569   1.858   8.784   4.789 -0.0889  0.7384 -0.7073
  346MOL0     O45570   1.777   8.887   4.814  0.3751 -0.0980  0.1363
  346MOL0     C45571   1.640   8.874   4.787  1.0753  0.7955  0.7027
  346MOL0     C45572   1.596   8.811   4.675 -0.0510  1.1109 -0.0941
  346MOL0     C45573   1.464   8.793   4.640 -0.5763 -0.2274  0.4685
  346MOL0     C45574   1.367   8.854   4.715 -0.1651 -0.4731 -0.0924
  346MOL0     O45575   1.232   8.843   4.678 -0.0423  0.7997 -0.7697
  346MOL0     C45576   1.128   8.926   4.746 -0.2654 -0.4782  0.7084
  346MOL0     C45577   1.007   8.923   4.657  0.6731 -0.1487  0.3817
  346MOL0     C45578   0.929   9.058   4.654 -0.5489  0.1144  0.2490
  346MOL0     C45579   0.795   9.019   4.586 -0.2845 -0.4784  0.3328
  346MOL0     C45580   0.712   9.144   4.544 -0.5832  0.0943 -0.5923
  346MOL0     C45581   0.619   9.111   4.431 -0.3881  0.1056  0.3008
  346MOL0     C45582   0.525   9.229   4.409  0.8345 -0.1158 -0.4589
  346MOL0     C45583   0.421   9.195   4.305  0.3567  0.3976  0.6525
  346MOL0    Cl45584   0.322   9.349   4.292 -0.2042  0.6226  0.2521
  346MOL0     C45585   1.409   8.931   4.836  0.7939  0.4699  0.3334
  346MOL0     C45586   1.545   8.935   4.868  0.5795  0.0632 -0.0913
  346MOL0     O45587   1.834   8.669   4.778 -0.1460  0.7244 -0.8211
  346MOL0     C45588   2.112   8.714   4.794 -0.1091 -0.2108  0.1205
  346MOL0     C45589   2.245   8.753   4.822  0.0628 -0.5181 -0.3577
  346MOL0     N45590   2.860   9.033   4.619 -0.3894  0.2686  0.9155
  346MOL0     N45591   2.932   9.087   4.520  0.3050 -0.1167  0.7451
  346MOL0     C45592   4.179   9.445   4.301 -0.0609 -0.1295 -0.2970
  346MOL0     C45593   4.304   9.506   4.329 -0.9226 -0.3700 -0.0786
  346MOL0     C45594   4.721   9.722   4.286  0.6103  0.1532  0.6312
  346MOL0     C45595   4.841   9.688   4.232 -0.4123 -0.1836 -0.2370
  346MOL0     C45596   4.964   9.748   4.287 -0.0472  0.1714 -0.1458
  346MOL0     C45597   4.961   9.832   4.398  0.1965 -0.8707  0.0333
  346MOL0     O45598   5.076   9.882   4.449  0.3706  0.1988  0.6415
  346MOL0     C45599   5.067  10.019   4.503 -0.2165  0.7504  0.3833
  346MOL0     C45600   5.206  10.079   4.534 -0.7572 -0.9444 -0.7976
  346MOL0     C45601   5.206  10.212   4.611  0.7905 -0.1675  0.2840
  346MOL0     C45602   5.137  10.317   4.528  0.8742 -0.3347 -0.4860
  346MOL0     C45603   5.164  10.444   4.604 -0.2354 -0.5547 -0.2092
  346MOL0     C45604   5.192  10.538   4.675  0.2331  0.2347 -0.1633
  346MOL0     C45605   4.834   9.866   4.450 -0.2176 -0.7026  1.1033
  346MOL0     C45606   4.720   9.809   4.395  0.2355 -0.1145  0.2934
  346MOL0     H45607   4.320   9.731   4.078  2.6239 -1.2675  0.6351
  346MOL0     H45608   4.111   9.586   4.014 -0.0705 -1.1712  0.2484
  346MOL0     H45609   3.914   9.414   4.343  1.0852 -1.2808  0.9925
  346MOL0     H45610   3.963   9.253   4.284 -2.5649 -0.9992  1.9013
  346MOL0     H45611   3.791   9.277   4.109  3.4302 -0.9581  0.5139
  346MOL0     H45612   3.743   9.428   4.183 -3.5272 -1.2052  1.6321
  346MOL0     H45613   3.685   9.310   4.409  1.5049  1.4504 -0.5336
  346MOL0     H45614   3.716   9.157   4.313  3.0637 -1.2108 -3.1241
  346MOL0     H45615   3.522   9.366   4.231  2.4191  0.0446  2.5090
  346MOL0     H45616   3.547   9.197   4.166  1.8972 -1.9724  0.2477
  346MOL0     H45617   3.487   9.241   4.460  1.6230  2.7065 -0.8201
  346MOL0     H45618   3.460   9.094   4.361  0.0320  0.7354 -0.0552
  346MOL0     H45619   3.290   9.213   4.239  0.7439  0.0592 -0.2261
  346MOL0     H45620   3.333   9.360   4.334  2.2486 -0.9387 -0.3229
  346MOL0     H45621   3.260   9.208   4.543  1.7306  1.2470 -0.1216
  346MOL0     H45622   3.141   9.273   4.429 -0.4775  0.2004  2.4645
  346MOL0     H45623   3.222   8.983   4.401  0.7527  1.7237  0.4129
  346MOL0     H45624   3.099   9.070   4.316 -0.7818 -3.6558 -0.1839
  346MOL0     H45625   3.161   8.899   4.648  1.4613 -0.6493 -4.5492
  346MOL0     H45626   2.939   8.907   4.881  0.9284 -1.2021 -0.6333
  346MOL0     H45627   2.967   8.762   4.776 -0.0778 -0.4414 -2.9015
  346MOL0     H45628   2.770   8.723   4.887 -0.7336  1.5235  1.2166
  346MOL0     H45629   2.733   8.757   4.719 -3.1093  1.9639 -1.4219
  346MOL0     H45630   2.687   8.965   4.928  3.2582 -1.3868  0.2599
  346MOL0     H45631   2.641   8.967   4.761  0.3505 -1.0202 -1.4090
  346MOL0     H45632   2.517   8.764   4.958 -0.0012  2.1760  1.8102
  346MOL0     H45633   2.507   8.763   4.777 -2.7952 -0.2091  1.0963
  346MOL0     H45634   2.201   9.078   4.858  0.1505 -0.3468 -1.1595
  346MOL0     H45635   1.971   9.026   4.831  2.0093  1.2344  0.1761
  346MOL0     H45636   1.664   8.755   4.611 -2.9362 -3.9988  0.7471
  346MOL0     H45637   1.439   8.742   4.547  1.7696  0.5632 -0.6563
  346MOL0     H45638   1.167   9.028   4.743  0.2667 -0.6617 -2.7022
  346MOL0     H45639   1.103   8.884   4.844 -0.1388 -0.7165  0.6387
  346MOL0     H45640   0.934   8.849   4.691 -0.5290  0.8599  0.1060
  346MOL0     H45641   1.034   8.894   4.556 -0.6397  0.5727 -0.2132
  346MOL0     H45642   0.985   9.134   4.598 -1.7264  0.0997 -0.9870
  346MOL0     H45643   0.901   9.093   4.754 -2.5216  1.9291 -0.8661
  346MOL0     H45644   0.818   8.975   4.489  1.6214  2.0732 -0.4726
  346MOL0     H45645   0.732   8.957   4.651 -0.0573 -1.0511  0.0196
  346MOL0     H45646   0.778   9.224   4.508 -0.5513  0.7500  0.8755
  346MOL0     H45647   0.654   9.177   4.631 -0.8110 -0.9829 -0.3295
  346MOL0     H45648   0.554   9.023   4.442  1.0490 -0.8601  1.4687
  346MOL0     H45649   0.678   9.080   4.344  0.1959  2.4378 -0.1907
  346MOL0     H45650   0.459   9.250   4.493 -1.0868 -2.6672 -1.2230
  346MOL0     H45651   0.583   9.313   4.369  1.3697  0.7700  2.0100
  346MOL0     H45652   0.354   9.112   4.330 -2.1058  1.9234 -0.4607
  346MOL0     H45653   0.463   9.174   4.206  1.3152  2.9079  0.4551
  346MOL0     H45654   1.328   8.977   4.892 -0.3982  1.0626 -1.7650
  346MOL0     H45655   1.574   8.990   4.956 -0.9266 -0.8870  1.0310
  346MOL0     H45656   2.092   8.611   4.768 -2.4561  0.6280 -1.6788
  346MOL0     H45657   2.323   8.678   4.834 -0.6418 -1.2676 -0.3692
  346MOL0     H45658   4.150   9.364   4.366  1.5711  0.3214  1.0614
  346MOL0     H45659   4.357   9.463   4.413 -1.5067  0.1591  0.5663
  346MOL0     H45660   4.847   9.615   4.152 -2.1691  1.8672 -2.3831
  346MOL0     H45661   5.058   9.715   4.243 -0.2357  0.0506 -0.4622
  346MOL0     H45662   5.012  10.009   4.597 -2.1270 -1.7345 -0.8973
  346MOL0     H45663   5.019  10.090   4.435  3.0063  2.1164 -0.6346
  346MOL0     H45664   5.265  10.015   4.600 -1.1730  1.5078  2.1383
  346MOL0     H45665   5.256  10.093   4.437 -2.4167 -0.8458 -1.6773
  346MOL0     H45666   5.308  10.242   4.635  1.2397 -2.7365  2.0615
  346MOL0     H45667   5.143  10.199   4.700 -0.0059  0.4111 -0.1874
  346MOL0     H45668   5.186  10.309   4.430 -0.5440 -1.2295 -1.1570
  346MOL0     H45669   5.028  10.308   4.531  0.8695 -0.0443  2.0671
  346MOL0     H45670   5.213  10.626   4.732 -0.8347  0.5071 -0.1720
  346MOL0     H45671   4.819   9.945   4.522  0.7650  2.2700 -1.7400
  346MOL0     H45672   4.625   9.840   4.435  0.4180 -0.2204  0.8246
  347MOL0     O45673   3.409   9.211   9.708 -0.0341 -0.5267 -0.0467
  347MOL0     C45674   3.420   9.243   9.593  0.6562  0.3511  0.2523
  347MOL0     O45675   3.530   9.276   9.531 -0.6518 -0.2826 -0.9937
  347MOL0     C45676   3.626   9.340   9.601 -0.3073  0.0572 -0.8173
  347MOL0     C45677   3.754   9.321   9.558 -0.3770  0.9941  0.2566
  347MOL0     C45678   3.861   9.377   9.622 -0.4681  0.2314  0.0972
  347MOL0     C45679   3.850   9.441   9.740  0.8935  0.4416 -0.3110
  347MOL0     O45680   3.961   9.499   9.801  0.2929  0.0306  0.5189
  347MOL0     C45681   4.096   9.475   9.748 -0.0740 -0.0675 -0.1652
  347MOL0     C45682   4.191   9.532   9.855  0.1553  0.2084  0.0108
  347MOL0     C45683   4.181   9.681   9.881  0.3975  0.5156  0.0592
  347MOL0     C45684   4.286   9.728   9.965 -1.0189 -0.1319 -1.0642
  347MOL0     C45685   4.428   9.727   9.913 -0.1187 -0.7457  0.5697
  347MOL0     C45686   4.443   9.835   9.797  0.1507 -0.2260 -0.2088
  347MOL0     C45687   4.588   9.879   9.786  0.0635 -0.8434  0.5868
  347MOL0     C45688   4.606  10.005   9.700 -0.4935  0.0329 -0.0692
  347MOL0     N45689   4.568   9.985   9.561 -0.2805  0.9266  0.0629
  347MOL0     C45690   4.634   9.905   9.469 -0.3805  0.0956 -0.0549
  347MOL0     C45691   4.549   9.892   9.360  0.0427  0.6200 -0.8527
  347MOL0     C45692   4.583   9.818   9.234 -0.2896 -0.2318  0.4951
  347MOL0     C45693   4.453   9.777   9.152 -0.1835  0.0582  0.1343
  347MOL0     C45694   4.490   9.729   9.016 -0.5890  0.9801  0.9850
  347MOL0     C45695   4.366   9.698   8.924 -0.0657  0.3983 -0.9893
  347MOL0     O45696   4.272   9.814   8.917 -0.3718  0.4293  0.0390
  347MOL0     C45697   4.143   9.781   8.901  0.4357  0.5756  0.3343
  347MOL0     C45698   4.050   9.846   8.988  0.7032 -0.2941  0.4098
  347MOL0     C45699   3.910   9.796   8.976  0.9001 -1.4232  0.3313
  347MOL0     C45700   3.866   9.714   8.877  0.1166 -0.0469 -0.2608
  347MOL0     C45701   3.718   9.681   8.858 -0.5749  0.5811 -0.1774
  347MOL0     O45702   3.632   9.741   8.952 -0.2320  0.6471  0.1574
  347MOL0     C45703   3.502   9.697   8.947  0.1876  0.5065 -0.1307
  347MOL0     C45704   3.408   9.707   8.841  0.0627  0.7322 -1.0043
  347MOL0     C45705   3.278   9.653   8.850 -0.4201  0.1615  0.6185
  347MOL0     C45706   3.226   9.593   8.960 -0.6524 -0.2294 -0.8972
  347MOL0     O45707   3.108   9.525   8.973 -0.3231  0.3841  0.3962
  347MOL0     C45708   3.007   9.573   8.887  0.3808  0.7596  0.0522
  347MOL0     C45709   2.872   9.566   8.954  0.1856 -0.1922 -0.0950
  347MOL0     C45710   2.772   9.639   8.867 -0.3660 -0.1615 -0.5752
  347MOL0     C45711   2.623   9.571   8.875 -0.8323 -0.3041 -0.5189
  347MOL0     C45712   2.527   9.684   8.837  0.6179  0.0752 -0.3699
  347MOL0     C45713   2.389   9.626   8.813  0.6893  0.6929  0.7766
  347MOL0     C45714   2.398   9.535   8.691 -0.3677 -0.1062  0.2503
  347MOL0     C45715   2.284   9.554   8.592 -1.3025  0.2333  0.6772
  347MOL0    Cl45716   2.131   9.536   8.687  0.4000  0.6277 -0.2619
  347MOL0     C45717   3.315   9.586   9.071  0.5989 -0.0470 -0.4286
  347MOL0     C45718   3.443   9.642   9.068 -0.3777 -0.7540 -1.1140
  347MOL0     O45719   3.692   9.605   8.768  0.4031  0.0775 -1.1188
  347MOL0     C45720   3.959   9.658   8.794 -0.0432 -0.1665  0.2807
  347MOL0     C45721   4.100   9.691   8.805 -0.4890  0.4282 -0.0547
  347MOL0     N45722   4.438   9.963   9.390 -0.7746 -0.5493  0.7598
  347MOL0     N45723   4.453  10.023   9.505 -0.4271  0.3875 -0.0345
  347MOL0     C45724   3.719   9.465   9.786  0.2420 -0.4913  0.4318
  347MOL0     C45725   3.600   9.421   9.713 -0.9315 -0.1497 -0.6133
  347MOL0     C45726   3.302   9.247   9.505  0.2284  0.3727 -0.4781
  347MOL0     C45727   3.174   9.229   9.562  0.5494  0.5148  0.4595
  347MOL0     C45728   3.068   9.208   9.474 -0.9887  0.1546 -0.1064
  347MOL0     C45729   3.084   9.200   9.335  0.3681 -0.8625 -0.4657
  347MOL0     O45730   2.979   9.191   9.250  0.3234  0.2963  0.4408
  347MOL0     C45731   2.850   9.157   9.303 -1.2993 -0.1587 -0.4899
  347MOL0     C45732   2.753   9.101   9.206  0.0787  0.4101 -0.8752
  347MOL0     C45733   2.683   9.208   9.123 -0.1941  0.1821 -0.2919
  347MOL0     C45734   2.530   9.185   9.089  0.2281 -0.2637 -0.3518
  347MOL0     C45735   2.491   9.049   9.035 -0.6701 -0.7451 -0.1948
  347MOL0     C45736   2.464   8.931   9.017 -0.1422 -0.6938 -0.4468
  347MOL0     C45737   3.211   9.214   9.284  0.3719 -0.0451 -0.4396
  347MOL0     C45738   3.318   9.235   9.366 -0.8732 -0.1257  0.2083
  347MOL0     H45739   3.768   9.261   9.468 -1.9207 -0.5514  0.9905
  347MOL0     H45740   3.959   9.369   9.575 -0.5009  1.3237 -0.2021
  347MOL0     H45741   4.106   9.517   9.648 -1.1748  0.1446 -0.1963
  347MOL0     H45742   4.111   9.367   9.742  1.3173  0.1912 -3.5642
  347MOL0     H45743   4.290   9.527   9.809 -0.3725  1.5501 -1.3748
  347MOL0     H45744   4.195   9.478   9.949 -2.5801 -0.2606 -0.0682
  347MOL0     H45745   4.085   9.697   9.932  0.8852 -1.6387  1.8315
  347MOL0     H45746   4.180   9.747   9.794 -2.9737  0.9452  0.2797
  347MOL0     H45747   4.257   9.829   9.995 -1.5992 -0.6229  0.0846
  347MOL0     H45748   4.286   9.665  10.055  1.1594 -0.2816 -1.1097
  347MOL0     H45749   4.446   9.625   9.876 -2.8468 -0.1694 -2.8349
  347MOL0     H45750   4.496   9.744   9.997  2.9987 -0.9961 -1.7306
  347MOL0     H45751   4.381   9.919   9.830 -0.0695 -0.3535 -0.2985
  347MOL0     H45752   4.406   9.804   9.699 -0.8095 -3.2054  0.9773
  347MOL0     H45753   4.614   9.910   9.887 -2.0779  2.0879  0.3750
  347MOL0     H45754   4.641   9.791   9.749 -1.3211 -1.1728 -0.7293
  347MOL0     H45755   4.706  10.049   9.696 -0.5104  0.0967  0.2093
  347MOL0     H45756   4.548  10.084   9.750  0.7085  0.6000  0.4652
  347MOL0     H45757   4.736   9.872   9.488 -1.1391 -1.1046  2.2310
  347MOL0     H45758   4.645   9.729   9.247  0.9573  0.2712 -1.5199
  347MOL0     H45759   4.644   9.895   9.186 -0.2299 -0.1010  0.7840
  347MOL0     H45760   4.394   9.868   9.141 -1.4902 -0.6842  0.8058
  347MOL0     H45761   4.400   9.705   9.216 -4.5575  1.3507 -1.7089
  347MOL0     H45762   4.556   9.803   8.969 -0.5865  1.6371  2.0151
  347MOL0     H45763   4.551   9.638   9.020  3.8878  3.6047 -0.1021
  347MOL0     H45764   4.312   9.612   8.965 -1.3678  1.0703 -1.2141
  347MOL0     H45765   4.402   9.651   8.833 -0.0779 -4.3329  1.1749
  347MOL0     H45766   4.092   9.920   9.056  1.4333  0.9809 -1.3679
  347MOL0     H45767   3.836   9.845   9.038 -0.6734  2.7761 -4.1568
  347MOL0     H45768   3.429   9.766   8.753  1.4302  0.5200 -0.8417
  347MOL0     H45769   3.221   9.652   8.757  0.2116 -0.5180  0.2322
  347MOL0     H45770   3.001   9.515   8.794 -0.1361  0.8629  0.0168
  347MOL0     H45771   3.016   9.680   8.867 -2.0912  1.2298  1.0725
  347MOL0     H45772   2.876   9.612   9.053  1.2906 -1.4249  0.4565
  347MOL0     H45773   2.853   9.460   8.971  0.2993 -0.1545  0.2814
  347MOL0     H45774   2.807   9.627   8.764 -0.9550  3.4238 -1.3189
  347MOL0     H45775   2.769   9.746   8.891 -1.5034 -0.2960 -0.0818
  347MOL0     H45776   2.618   9.486   8.807 -3.6411  0.1909 -1.0584
  347MOL0     H45777   2.602   9.540   8.978  0.2977  3.7364  1.1518
  347MOL0     H45778   2.567   9.731   8.747  0.9929  2.1397  0.8194
  347MOL0     H45779   2.527   9.754   8.921 -0.0276  0.5671 -0.7693
  347MOL0     H45780   2.322   9.709   8.789 -0.2738 -0.5889 -1.2200
  347MOL0     H45781   2.356   9.566   8.898  0.7724  0.2913  0.5313
  347MOL0     H45782   2.493   9.549   8.640 -0.9155 -1.8867 -1.3974
  347MOL0     H45783   2.394   9.436   8.737  0.2652 -0.2199  0.0598
  347MOL0     H45784   2.289   9.480   8.513  2.8653  0.1212  0.7924
  347MOL0     H45785   2.306   9.655   8.556 -2.3247  0.0447 -0.5412
  347MOL0     H45786   3.284   9.537   9.162  0.0262  0.2342 -0.4707
  347MOL0     H45787   3.503   9.646   9.158 -2.0180 -1.3037  0.0468
  347MOL0     H45788   3.928   9.597   8.710  2.0385  1.6337 -1.9140
  347MOL0     H45789   4.160   9.650   8.725  1.9669  3.8714 -0.1566
  347MOL0     H45790   3.718   9.527   9.876 -1.1120 -0.0814  0.1430
  347MOL0     H45791   3.504   9.450   9.756 -0.0352  1.4705  0.4156
  347MOL0     H45792   3.162   9.222   9.670  1.0365  1.5890  0.5960
  347MOL0     H45793   2.969   9.213   9.520 -0.6223 -1.2222  0.8974
  347MOL0     H45794   2.799   9.232   9.364 -4.6531 -1.9728 -0.8290
  347MOL0     H45795   2.868   9.072   9.370 -0.2673 -0.3555 -0.9991
  347MOL0     H45796   2.800   9.019   9.150  3.3208 -0.0352  2.1574
  347MOL0     H45797   2.683   9.052   9.274  1.7118 -1.1621 -0.2348
  347MOL0     H45798   2.745   9.232   9.037 -0.0092  3.1579  0.5590
  347MOL0     H45799   2.682   9.294   9.191 -0.2712 -0.8368  1.0510
  347MOL0     H45800   2.471   9.202   9.180  0.0504 -1.4425 -0.2342
  347MOL0     H45801   2.501   9.272   9.029 -0.2997  0.1448  0.4772
  347MOL0     H45802   2.425   8.831   9.005 -3.1036  0.5955 -3.0461
  347MOL0     H45803   3.218   9.231   9.177 -1.9029 -0.6985 -0.7598
  347MOL0     H45804   3.419   9.242   9.327 -0.4658 -0.8514  1.0762
  348MOL0     O45805  11.161   8.874   0.848 -0.0636 -0.3403 -0.5835
  348MOL0     C45806  11.175   8.941   0.948 -0.0280  0.0682  1.0270
  348MOL0     O45807  11.082   8.952   1.049  0.1481 -0.6080  0.0623
  348MOL0     C45808  10.957   8.896   1.030  0.4500 -0.1560  0.6825
  348MOL0     C45809  10.839   8.966   1.010 -0.1379 -0.4884 -0.2163
  348MOL0     C45810  10.713   8.896   0.988 -0.4911 -0.2401 -0.0854
  348MOL0     C45811  10.713   8.754   0.987  0.2307 -0.5127  0.2848
  348MOL0     O45812  10.611   8.674   0.952  0.1944  0.0649  0.0891
  348MOL0     C45813  10.481   8.733   0.958 -0.9257  0.5301  0.4491
  348MOL0     C45814  10.371   8.635   0.946  0.1181 -0.6483  0.1658
  348MOL0     C45815  10.232   8.695   0.947 -0.5903  0.0135 -0.5404
  348MOL0     C45816  10.137   8.572   0.940  0.6958 -0.7327  0.1311
  348MOL0     C45817   9.997   8.616   0.899 -0.3031  0.0371  0.2103
  348MOL0     C45818   9.885   8.517   0.940  0.3293  0.1161  0.3176
  348MOL0     C45819   9.857   8.512   1.087 -0.0044 -0.0828 -0.2567
  348MOL0     C45820   9.788   8.384   1.121  0.1140 -0.3951 -0.0909
  348MOL0     N45821   9.729   8.392   1.257 -0.2101  0.9894 -0.0711
  348MOL0     C45822   9.618   8.462   1.291  0.1749  0.4098 -0.1346
  348MOL0     C45823   9.614   8.450   1.431  0.3324 -0.7839  0.3388
  348MOL0     C45824   9.506   8.504   1.521  0.5307  0.6408 -0.0966
  348MOL0     C45825   9.553   8.652   1.555  0.5261 -0.1263 -0.1666
  348MOL0     C45826   9.433   8.737   1.585  0.2644  0.2683  0.0278
  348MOL0     C45827   9.355   8.684   1.711 -0.3137 -0.3647 -0.2328
  348MOL0     O45828   9.233   8.764   1.742 -0.2329 -0.0921  0.4051
  348MOL0     C45829   9.131   8.748   1.655 -0.1494 -0.5741  0.7910
  348MOL0     C45830   9.047   8.634   1.653  0.0265 -0.7333  0.0524
  348MOL0     C45831   8.911   8.631   1.587 -0.9017  1.5460  0.0395
  348MOL0     C45832   8.878   8.739   1.502  0.4432 -0.1038  0.2488
  348MOL0     C45833   8.760   8.739   1.414  0.1593 -0.6675 -0.2802
  348MOL0     O45834   8.695   8.615   1.390 -0.0727  0.1303  0.2244
  348MOL0     C45835   8.591   8.615   1.301 -0.4303  0.0650 -0.3585
  348MOL0     C45836   8.480   8.701   1.305  0.3184  0.5313  0.2332
  348MOL0     C45837   8.377   8.675   1.215  0.2265  0.4011 -0.9735
  348MOL0     C45838   8.383   8.571   1.115 -0.3482 -0.6184 -0.6516
  348MOL0     O45839   8.287   8.538   1.033  0.2791 -0.1288  0.5796
  348MOL0     C45840   8.185   8.636   1.009  0.5570 -0.0011  0.0853
  348MOL0     C45841   8.089   8.589   0.897 -0.2295 -0.0883 -0.6020
  348MOL0     C45842   7.979   8.694   0.876  0.4166 -0.3189  0.7936
  348MOL0     C45843   7.870   8.640   0.785  0.6538  0.2995  0.5160
  348MOL0     C45844   7.747   8.733   0.764 -0.2167  0.3988 -0.1180
  348MOL0     C45845   7.636   8.681   0.665 -0.2339  0.2292 -0.4194
  348MOL0     C45846   7.511   8.763   0.675  0.0662 -0.1813 -0.1315
  348MOL0     C45847   7.405   8.738   0.575  0.0812  0.1068 -0.1404
  348MOL0    Cl45848   7.346   8.560   0.587  0.0518  0.0967  0.1172
  348MOL0     C45849   8.493   8.494   1.107  0.1425 -0.2362  0.3597
  348MOL0     C45850   8.596   8.516   1.202  0.2527 -0.3710 -0.2939
  348MOL0     O45851   8.727   8.849   1.359  0.3003 -0.1220 -0.6231
  348MOL0     C45852   8.966   8.852   1.499 -0.5068  0.5234 -0.4788
  348MOL0     C45853   9.079   8.862   1.581 -0.0349  0.6271  0.8695
  348MOL0     N45854   9.720   8.380   1.470 -0.7404  0.9656 -0.4642
  348MOL0     N45855   9.792   8.346   1.367  0.4829 -0.0597 -0.6191
  348MOL0     C45856  10.827   8.685   1.013  0.0241 -0.1711 -0.5250
  348MOL0     C45857  10.951   8.751   1.028  0.7018 -0.4040  0.4174
  348MOL0     C45858  11.293   9.025   0.955 -0.2794  0.1322  0.6324
  348MOL0     C45859  11.325   9.080   1.077  0.0105 -0.1972 -0.6170
  348MOL0     C45860  11.437   9.160   1.097 -0.6136  0.5401 -0.3874
  348MOL0     C45861  11.521   9.188   0.990 -0.4404 -0.5413 -0.3936
  348MOL0     O45862  11.624   9.268   1.034  0.1085 -0.1292  0.6064
  348MOL0     C45863  11.722   9.306   0.940 -1.3047  0.5384  1.4515
  348MOL0     C45864  11.833   9.213   0.950  0.7268 -0.3472  0.0604
  348MOL0     C45865  11.890   9.224   1.100 -0.2564 -0.0269 -0.5312
  348MOL0     C45866  12.033   9.157   1.121 -0.2220 -0.1499  0.4493
  348MOL0     C45867  12.129   9.233   1.040  1.0001  0.7046  0.5445
  348MOL0     C45868  12.215   9.289   0.974  0.7718 -0.5584  0.2625
  348MOL0     C45869  11.497   9.134   0.857  0.5687  0.9094  0.0951
  348MOL0     C45870  11.387   9.047   0.840 -0.0251  0.0933 -0.7275
  348MOL0     H45871  10.833   9.073   1.025  3.4885 -0.2036 -0.0247
  348MOL0     H45872  10.615   8.941   0.998 -0.7371 -1.1302  1.9553
  348MOL0     H45873  10.477   8.809   0.880  0.5849  1.3878  1.1458
  348MOL0     H45874  10.477   8.781   1.057  0.4213 -3.2323  2.5347
  348MOL0     H45875  10.374   8.576   1.038  0.3578  2.3986  2.2629
  348MOL0     H45876  10.394   8.573   0.859  0.3337 -1.0993  0.5348
  348MOL0     H45877  10.219   8.747   0.852  1.9594  0.6205 -0.6309
  348MOL0     H45878  10.209   8.763   1.030 -1.1599 -0.3592 -0.3898
  348MOL0     H45879  10.181   8.497   0.874 -0.1141 -2.2437  1.2408
  348MOL0     H45880  10.150   8.526   1.038  4.2774 -0.0745  0.0919
  348MOL0     H45881  10.006   8.641   0.793  4.7327  0.7574  0.5898
  348MOL0     H45882   9.975   8.711   0.949  1.0678  1.3823 -1.6149
  348MOL0     H45883   9.911   8.419   0.901  0.5363  0.4772 -0.4760
  348MOL0     H45884   9.806   8.561   0.878  1.1000  0.0685 -0.7277
  348MOL0     H45885   9.952   8.515   1.142  0.4159  2.2689 -1.0051
  348MOL0     H45886   9.796   8.593   1.128  0.0809  0.2831 -0.8479
  348MOL0     H45887   9.870   8.313   1.111  0.3250  0.0044 -1.3561
  348MOL0     H45888   9.706   8.366   1.050 -0.0008 -0.2099 -0.0065
  348MOL0     H45889   9.537   8.504   1.233 -1.0916  1.0567  1.9800
  348MOL0     H45890   9.512   8.436   1.607 -1.9801 -0.0725 -0.4000
  348MOL0     H45891   9.405   8.496   1.480 -0.1926  1.0635  1.5436
  348MOL0     H45892   9.601   8.696   1.468 -0.0939  0.9223  0.0063
  348MOL0     H45893   9.628   8.660   1.634  1.0437  0.4836 -0.7130
  348MOL0     H45894   9.472   8.831   1.624  0.1119 -0.0779  1.0492
  348MOL0     H45895   9.369   8.749   1.497 -1.1866  0.7944  1.1144
  348MOL0     H45896   9.416   8.695   1.801  0.3879 -2.3225 -0.4286
  348MOL0     H45897   9.332   8.577   1.703  0.8342 -0.7008  0.6256
  348MOL0     H45898   9.084   8.547   1.707  2.7221  0.8866  1.0167
  348MOL0     H45899   8.852   8.540   1.595 -0.3657  1.1426 -0.4841
  348MOL0     H45900   8.472   8.793   1.362 -0.3350  0.1862  0.7124
  348MOL0     H45901   8.283   8.729   1.226  0.5449  0.4739  2.2603
  348MOL0     H45902   8.235   8.729   0.978 -0.5249  0.2327 -1.0101
  348MOL0     H45903   8.121   8.652   1.097 -1.8171  0.1606 -1.5938
  348MOL0     H45904   8.055   8.487   0.919 -0.1710 -0.0880 -0.5103
  348MOL0     H45905   8.145   8.586   0.803 -0.9056  0.8637 -1.0604
  348MOL0     H45906   8.022   8.784   0.831  0.7658 -0.6263  0.5092
  348MOL0     H45907   7.939   8.724   0.973  1.7137 -0.8509  1.5238
  348MOL0     H45908   7.921   8.617   0.692 -2.4368  0.0425 -1.2470
  348MOL0     H45909   7.822   8.554   0.832 -2.2509  1.5458  0.0288
  348MOL0     H45910   7.786   8.831   0.736  1.1385  0.0047  0.3210
  348MOL0     H45911   7.703   8.753   0.862  2.0013  1.1807  0.7868
  348MOL0     H45912   7.622   8.576   0.692 -1.2579  0.2383 -0.8724
  348MOL0     H45913   7.664   8.678   0.559 -1.5676 -1.4753 -0.7629
  348MOL0     H45914   7.463   8.735   0.769  0.4050  1.0914  0.4487
  348MOL0     H45915   7.542   8.868   0.675 -2.8110  0.7855 -0.8276
  348MOL0     H45916   7.447   8.762   0.477  0.0072 -0.2939 -0.2706
  348MOL0     H45917   7.329   8.816   0.588  1.8731  2.3040 -2.0238
  348MOL0     H45918   8.506   8.423   1.026  2.3442  2.4221 -1.7948
  348MOL0     H45919   8.691   8.463   1.201  1.5953  1.7505  2.4753
  348MOL0     H45920   8.943   8.941   1.440  0.4874  0.4278 -1.0239
  348MOL0     H45921   9.133   8.954   1.564 -0.2170  0.4011 -1.3156
  348MOL0     H45922  10.834   8.578   0.995 -0.3859 -0.8548  2.7107
  348MOL0     H45923  11.045   8.698   1.022  0.9998  0.2858 -2.4859
  348MOL0     H45924  11.261   9.062   1.163  1.0262  3.1178  1.0046
  348MOL0     H45925  11.451   9.191   1.200  0.4916 -0.8965 -0.0680
  348MOL0     H45926  11.766   9.403   0.968  0.7547 -0.0164  0.3859
  348MOL0     H45927  11.695   9.322   0.836  1.0953 -2.0320  0.3057
  348MOL0     H45928  11.807   9.110   0.926  1.8064 -0.0261 -2.8729
  348MOL0     H45929  11.900   9.248   0.871 -3.2713  1.4230 -2.8550
  348MOL0     H45930  11.813   9.176   1.162 -1.1841  1.2698 -0.6520
  348MOL0     H45931  11.891   9.326   1.138  0.6366 -0.1334 -0.2457
  348MOL0     H45932  12.068   9.162   1.225  2.9749 -0.3662 -0.5081
  348MOL0     H45933  12.025   9.050   1.099  0.8786 -1.2410  4.5457
  348MOL0     H45934  12.301   9.336   0.930 -0.7126  0.0244 -2.2717
  348MOL0     H45935  11.559   9.147   0.769  1.5221  0.0569  0.6170
  348MOL0     H45936  11.369   9.013   0.739  0.7912  0.7947 -1.1296
  349MOL0     O45937   9.350   5.370   7.224 -0.5740 -0.4085  0.3309
  349MOL0     C45938   9.306   5.259   7.201  0.3430  0.2122 -0.0274
  349MOL0     O45939   9.227   5.221   7.088 -0.0931  0.1236  0.0628
  349MOL0     C45940   9.173   5.308   6.996  0.5768  0.6825 -0.0228
  349MOL0     C45941   9.183   5.447   6.986  0.0747  0.0183  0.0015
  349MOL0     C45942   9.104   5.521   6.892 -1.2725  0.8658 -0.6439
  349MOL0     C45943   9.026   5.461   6.798  0.0281  0.5214 -1.2048
  349MOL0     O45944   8.972   5.538   6.703  0.6075  1.2181 -0.0908
  349MOL0     C45945   8.846   5.483   6.652  0.1574  0.5115 -0.4933
  349MOL0     C45946   8.740   5.597   6.654 -0.4856 -0.6110  0.1256
  349MOL0     C45947   8.601   5.546   6.608  0.2413  0.1228 -0.1815
  349MOL0     C45948   8.593   5.542   6.453  0.5127  0.1958 -0.0203
  349MOL0     C45949   8.444   5.510   6.419  0.2601  0.1193  0.0236
  349MOL0     C45950   8.410   5.528   6.266 -0.3776 -0.3816  0.6342
  349MOL0     C45951   8.256   5.511   6.239  0.3118  0.4334 -0.6282
  349MOL0     C45952   8.224   5.545   6.098 -0.5711 -0.3112  0.3893
  349MOL0     N45953   8.072   5.568   6.097  0.5988 -0.5083 -0.0619
  349MOL0     C45954   7.999   5.672   6.157  0.0385 -0.1971  0.1534
  349MOL0     C45955   7.870   5.622   6.173  0.6978 -0.1888  0.1488
  349MOL0     C45956   7.760   5.714   6.222 -0.3947  0.0794  0.4498
  349MOL0     C45957   7.615   5.660   6.189 -0.3351 -0.2865  0.2422
  349MOL0     C45958   7.518   5.744   6.265  0.0392 -0.4556 -0.1687
  349MOL0     C45959   7.371   5.709   6.259 -0.2559  0.5828 -0.8727
  349MOL0     O45960   7.304   5.749   6.141  0.1214  0.7835  0.5759
  349MOL0     C45961   7.181   5.703   6.112  0.0995  0.0433  0.2082
  349MOL0     C45962   7.101   5.622   6.186 -0.1428  0.5782  0.5865
  349MOL0     C45963   6.975   5.584   6.139  0.8017  0.6045  0.7961
  349MOL0     C45964   6.918   5.636   6.023  0.5267 -0.6976  0.0038
  349MOL0     C45965   6.782   5.607   5.976  0.0043 -0.1531  0.2873
  349MOL0     O45966   6.717   5.512   6.050  0.6142  0.0457 -0.3471
  349MOL0     C45967   6.603   5.451   6.009 -0.0357 -0.2930 -0.1041
  349MOL0     C45968   6.486   5.514   5.955  0.4515 -0.0267 -0.5984
  349MOL0     C45969   6.374   5.429   5.936  0.0169 -0.1636 -0.1516
  349MOL0     C45970   6.388   5.292   5.953  0.4592 -0.8954  0.0273
  349MOL0     O45971   6.277   5.210   5.945 -0.1616 -0.2006  0.0772
  349MOL0     C45972   6.241   5.134   6.067 -0.8574 -0.6539 -1.1856
  349MOL0     C45973   6.143   5.017   6.053 -0.9292  0.1613 -0.0605
  349MOL0     C45974   6.039   5.040   5.947 -0.3681  0.3346 -0.2448
  349MOL0     C45975   5.932   4.933   5.969 -0.0938  0.1303 -0.4219
  349MOL0     C45976   5.809   4.965   5.893  0.4048  0.3893  0.4242
  349MOL0     C45977   5.835   4.955   5.740 -0.5620 -0.6930  0.2678
  349MOL0     C45978   5.700   4.972   5.663 -0.3972  0.4881 -0.4038
  349MOL0     C45979   5.629   4.840   5.641  0.1762  0.3685 -0.3175
  349MOL0    Cl45980   5.699   4.766   5.493  0.4981 -0.0884 -0.5144
  349MOL0     C45981   6.503   5.235   5.986 -0.4261  0.3956  0.6167
  349MOL0     C45982   6.607   5.315   6.017 -0.4808  0.0877 -0.2313
  349MOL0     O45983   6.740   5.657   5.875  0.0470  0.1116 -0.1294
  349MOL0     C45984   6.995   5.727   5.940 -0.1186 -0.3348 -0.3562
  349MOL0     C45985   7.127   5.745   5.992 -0.0416 -0.1610 -0.0921
  349MOL0     N45986   7.869   5.491   6.149 -0.7889  0.0460 -0.0533
  349MOL0     N45987   7.982   5.466   6.091  0.0049 -0.5803 -1.0866
  349MOL0     C45988   9.028   5.320   6.807 -0.7075 -0.2304  0.8098
  349MOL0     C45989   9.097   5.241   6.902 -0.4731  0.2437  0.2303
  349MOL0     C45990   9.355   5.137   7.283 -0.2652  0.7483  0.3355
  349MOL0     C45991   9.328   5.002   7.265 -0.0728  0.2390 -0.7080
  349MOL0     C45992   9.391   4.893   7.329 -0.1395  0.3735 -0.2063
  349MOL0     C45993   9.494   4.924   7.417  0.1564  0.2296 -0.5617
  349MOL0     O45994   9.545   4.824   7.501  0.0307  0.3010  0.2545
  349MOL0     C45995   9.478   4.705   7.523  0.0419 -0.0561  0.2373
  349MOL0     C45996   9.551   4.635   7.624  0.1505  0.6734 -2.2603
  349MOL0     C45997   9.520   4.693   7.768  0.2624  0.1108 -0.0750
  349MOL0     C45998   9.580   4.611   7.885  0.1975  0.9005 -0.0040
  349MOL0     C45999   9.530   4.479   7.890  1.5573  1.2727  0.8574
  349MOL0     C46000   9.484   4.366   7.924 -0.8919  0.5272  0.4564
  349MOL0     C46001   9.531   5.058   7.438  0.3750  0.2917 -0.1552
  349MOL0     C46002   9.455   5.160   7.376 -0.0634  0.1606  0.6169
  349MOL0     H46003   9.240   5.503   7.060 -0.5912  0.7442 -0.0142
  349MOL0     H46004   9.129   5.627   6.894  1.5561  0.2639  1.4228
  349MOL0     H46005   8.809   5.402   6.716  2.9412 -0.4019  0.1350
  349MOL0     H46006   8.855   5.447   6.549 -1.4780  0.6724 -0.7139
  349MOL0     H46007   8.771   5.682   6.593  1.8036 -0.9358  0.7569
  349MOL0     H46008   8.730   5.630   6.757 -0.3304  1.5533 -0.4988
  349MOL0     H46009   8.513   5.608   6.631 -1.1612 -1.3596 -1.3245
  349MOL0     H46010   8.589   5.445   6.648 -0.6878  0.2981  0.0058
  349MOL0     H46011   8.617   5.638   6.407  0.5074 -0.2087 -0.8882
  349MOL0     H46012   8.665   5.477   6.402 -0.1577  0.4947 -1.4081
  349MOL0     H46013   8.387   5.577   6.485  0.9546  0.2717  0.4690
  349MOL0     H46014   8.419   5.410   6.455  2.1282 -0.1012  0.8279
  349MOL0     H46015   8.468   5.454   6.210  0.6414  0.8456  0.0159
  349MOL0     H46016   8.440   5.630   6.239 -0.0695 -0.3304  1.1487
  349MOL0     H46017   8.220   5.415   6.277  0.3178  0.0271 -1.6116
  349MOL0     H46018   8.207   5.586   6.301  0.9160 -0.4035  0.9287
  349MOL0     H46019   8.261   5.475   6.022 -2.2169 -0.2309 -0.5309
  349MOL0     H46020   8.277   5.638   6.074  2.1707 -1.7791  0.3537
  349MOL0     H46021   8.037   5.768   6.190  3.6976 -1.9521  1.4812
  349MOL0     H46022   7.774   5.814   6.179  0.1096 -0.9136 -1.8030
  349MOL0     H46023   7.773   5.724   6.330 -1.1065 -4.4027  1.1294
  349MOL0     H46024   7.606   5.553   6.208 -1.2203  0.2833  4.0439
  349MOL0     H46025   7.597   5.688   6.085  0.6562  0.6459  0.3036
  349MOL0     H46026   7.547   5.728   6.369 -2.5405 -0.5571  0.6069
  349MOL0     H46027   7.532   5.848   6.233  1.5118 -0.1394  1.4015
  349MOL0     H46028   7.320   5.757   6.343 -0.0472  1.1485 -1.0690
  349MOL0     H46029   7.366   5.599   6.266  0.4466  0.6119  0.3151
  349MOL0     H46030   7.133   5.590   6.285  1.2115  3.2453  1.1028
  349MOL0     H46031   6.932   5.502   6.195  2.9297 -2.1101 -1.2799
  349MOL0     H46032   6.478   5.623   5.950 -2.0585  0.0799  2.6399
  349MOL0     H46033   6.288   5.468   5.883  1.0147  0.7407 -1.1505
  349MOL0     H46034   6.198   5.215   6.127  0.5751 -0.4039 -0.4493
  349MOL0     H46035   6.322   5.090   6.125  0.4969 -0.6196 -2.9657
  349MOL0     H46036   6.093   4.995   6.147 -1.5381 -1.1563 -0.6682
  349MOL0     H46037   6.197   4.926   6.023 -0.4897  0.3678  0.0943
  349MOL0     H46038   6.082   5.025   5.848 -0.1632 -2.6650  0.1878
  349MOL0     H46039   5.995   5.140   5.959  0.9298  0.8528  0.3516
  349MOL0     H46040   5.969   4.832   5.948  0.1937 -0.3662  2.1693
  349MOL0     H46041   5.897   4.936   6.072 -1.0413 -3.1276 -0.5429
  349MOL0     H46042   5.782   5.070   5.909  0.8899  0.8980 -1.7828
  349MOL0     H46043   5.732   4.891   5.920 -0.2976  0.9788  0.0692
  349MOL0     H46044   5.890   4.863   5.719  3.1338  1.0600  1.4684
  349MOL0     H46045   5.897   5.038   5.705 -2.0635  0.3633  0.0066
  349MOL0     H46046   5.638   5.035   5.728  0.5666  2.3599 -1.2284
  349MOL0     H46047   5.711   5.032   5.573 -2.7082  1.0101 -0.4079
  349MOL0     H46048   5.520   4.855   5.635  0.4297  2.3600 -0.7923
  349MOL0     H46049   5.651   4.766   5.718 -2.4299  0.4760  0.6482
  349MOL0     H46050   6.507   5.127   6.003  0.4986  0.5197  1.3014
  349MOL0     H46051   6.698   5.262   6.042 -1.1391 -1.4476 -0.9375
  349MOL0     H46052   6.947   5.760   5.848  2.5911 -0.4776 -1.9302
  349MOL0     H46053   7.197   5.804   5.933 -0.1977  0.3886  0.2617
  349MOL0     H46054   8.985   5.269   6.722 -2.2741  0.6491  1.0478
  349MOL0     H46055   9.103   5.134   6.890  1.8939  0.2784  0.5724
  349MOL0     H46056   9.245   4.977   7.200 -0.4509  1.5555 -0.7638
  349MOL0     H46057   9.365   4.790   7.307  2.0636 -0.5492  1.1237
  349MOL0     H46058   9.488   4.642   7.434 -2.6006  1.5484 -1.2974
  349MOL0     H46059   9.374   4.720   7.553 -0.4182 -2.5323  0.1296
  349MOL0     H46060   9.529   4.528   7.625  1.1634  0.4477 -0.6700
  349MOL0     H46061   9.657   4.647   7.599  1.6024 -0.0851  2.5617
  349MOL0     H46062   9.413   4.714   7.782 -0.1851 -1.1512 -1.3544
  349MOL0     H46063   9.559   4.795   7.775  2.0426 -0.6285  1.5983
  349MOL0     H46064   9.688   4.608   7.864 -0.2281 -0.1941 -2.3335
  349MOL0     H46065   9.560   4.655   7.983  2.3401 -0.5708  1.1885
  349MOL0     H46066   9.461   4.268   7.960  0.3131 -0.5042 -1.4524
  349MOL0     H46067   9.608   5.089   7.508 -1.1910 -0.3754  1.9899
  349MOL0     H46068   9.493   5.261   7.386  1.0264 -0.2710  1.0216
  350MOL0     O46069   5.746   5.848   1.198 -0.2151 -0.3045  0.0823
  350MOL0     C46070   5.785   5.870   1.085 -0.4707  0.6562  0.3498
  350MOL0     O46071   5.753   5.793   0.980 -0.5561 -0.1801  0.0740
  350MOL0     C46072   5.679   5.677   0.995  0.1096 -0.1465  0.8121
  350MOL0     C46073   5.616   5.643   0.871  0.3816 -0.1929 -0.6601
  350MOL0     C46074   5.518   5.542   0.870  0.0580  0.5801 -0.2954
  350MOL0     C46075   5.496   5.461   0.975 -0.0450 -0.3277  0.3400
  350MOL0     O46076   5.404   5.358   0.968  0.5159 -0.8312  0.8702
  350MOL0     C46077   5.395   5.273   1.082 -1.0514  0.1267  0.5442
  350MOL0     C46078   5.304   5.165   1.018 -0.2569  0.3681 -1.0554
  350MOL0     C46079   5.159   5.218   1.011 -0.0373  0.4859  0.0683
  350MOL0     C46080   5.065   5.099   0.967 -0.1487 -0.6811  0.1178
  350MOL0     C46081   4.917   5.136   0.951  1.1539  0.1517 -0.3738
  350MOL0     C46082   4.832   5.003   0.917 -1.2333 -0.9676 -0.3134
  350MOL0     C46083   4.692   5.043   0.876  0.5280 -0.5941 -0.0205
  350MOL0     C46084   4.600   5.054   0.995 -0.4456  1.1567 -0.1252
  350MOL0     N46085   4.600   4.934   1.076 -0.1434  0.1205  0.3818
  350MOL0     C46086   4.616   4.936   1.216  0.5883  0.6131  0.4714
  350MOL0     C46087   4.576   4.818   1.263 -0.8956  0.4408  0.0921
  350MOL0     C46088   4.593   4.758   1.404 -0.6425 -0.7529  0.5518
  350MOL0     C46089   4.484   4.789   1.500  0.6765  0.2356 -0.3380
  350MOL0     C46090   4.467   4.937   1.541 -0.1681  0.0508 -0.3739
  350MOL0     C46091   4.345   4.947   1.624  0.4939 -0.2402 -0.7447
  350MOL0     O46092   4.234   4.944   1.532 -0.0702  0.0619 -0.1722
  350MOL0     C46093   4.126   4.877   1.582  0.0976  0.8952 -0.4014
  350MOL0     C46094   4.105   4.735   1.556  0.4224 -0.6444 -0.6068
  350MOL0     C46095   3.990   4.676   1.604 -0.5355 -0.1729 -0.2149
  350MOL0     C46096   3.900   4.746   1.679 -0.3682  0.2593 -1.0511
  350MOL0     C46097   3.776   4.680   1.725 -0.2636 -0.2811 -0.0062
  350MOL0     O46098   3.680   4.758   1.788 -0.1418 -0.3152 -0.0974
  350MOL0     C46099   3.561   4.690   1.822 -0.5565 -0.1255 -0.1001
  350MOL0     C46100   3.462   4.657   1.739  0.0849  0.8158 -0.0413
  350MOL0     C46101   3.340   4.593   1.780 -0.2861  0.5569  0.4362
  350MOL0     C46102   3.327   4.562   1.912 -0.1383  0.4423 -0.6524
  350MOL0     O46103   3.211   4.498   1.945  0.2021  0.4943  0.0934
  350MOL0     C46104   3.173   4.478   2.087 -0.1721 -0.7898  0.0054
  350MOL0     C46105   3.041   4.399   2.083  1.0294 -0.2884  1.1087
  350MOL0     C46106   2.972   4.406   2.224  0.4307  0.1706  0.5086
  350MOL0     C46107   3.050   4.312   2.323  0.2142  0.3470 -0.7396
  350MOL0     C46108   3.077   4.376   2.457  0.4301 -0.4347 -0.0966
  350MOL0     C46109   2.952   4.399   2.553  1.0172 -0.1610  0.7387
  350MOL0     C46110   2.982   4.432   2.695  0.2548 -0.5273  0.6202
  350MOL0     C46111   2.844   4.463   2.760 -0.0978  0.0255 -0.4835
  350MOL0    Cl46112   2.770   4.294   2.783  0.0242  0.1451  0.0626
  350MOL0     C46113   3.424   4.597   2.007  0.3832 -0.5992  0.2750
  350MOL0     C46114   3.548   4.664   1.966  0.8309 -0.3919  0.4971
  350MOL0     O46115   3.761   4.562   1.701  0.1884 -0.1709 -0.1701
  350MOL0     C46116   3.916   4.883   1.705 -0.2700  0.5041 -0.3616
  350MOL0     C46117   4.035   4.944   1.654 -0.5356  0.3626 -0.6185
  350MOL0     N46118   4.527   4.748   1.149 -0.0604 -0.5041 -0.5936
  350MOL0     N46119   4.547   4.811   1.043 -0.1838 -0.6696  0.3244
  350MOL0     C46120   5.565   5.490   1.096  0.2407 -0.2839  0.5663
  350MOL0     C46121   5.647   5.602   1.104 -0.7061 -0.3078  0.1196
  350MOL0     C46122   5.859   5.994   1.057 -0.5403 -0.2305  0.4514
  350MOL0     C46123   5.913   6.014   0.930  0.3937  0.0021  0.0287
  350MOL0     C46124   5.982   6.138   0.907 -0.1410  0.8994 -0.4252
  350MOL0     C46125   5.992   6.238   1.004 -0.2800 -0.0489 -0.2629
  350MOL0     O46126   6.061   6.356   0.992  0.9549  0.2989 -0.2320
  350MOL0     C46127   6.105   6.400   0.863  1.3663 -0.1812  1.0452
  350MOL0     C46128   6.243   6.354   0.830  0.6719 -0.4074  0.0994
  350MOL0     C46129   6.278   6.414   0.692  0.1107 -0.8887  0.2499
  350MOL0     C46130   6.415   6.371   0.624  0.6818 -0.8544  1.2095
  350MOL0     C46131   6.426   6.452   0.500  0.0708 -0.5547 -0.8790
  350MOL0     C46132   6.463   6.526   0.412 -0.6205 -0.6411  0.5898
  350MOL0     C46133   5.944   6.210   1.130  0.2935  1.2054  0.7981
  350MOL0     C46134   5.880   6.093   1.158  0.2026 -0.0105 -0.2102
  350MOL0     H46135   5.632   5.712   0.789 -0.7702  1.7925  0.6844
  350MOL0     H46136   5.463   5.524   0.778  1.7774 -1.4418 -1.0058
  350MOL0     H46137   5.348   5.322   1.167 -1.6454  0.1854  0.1917
  350MOL0     H46138   5.493   5.228   1.098 -1.3297 -0.8621 -0.3791
  350MOL0     H46139   5.301   5.077   1.083  2.5238 -0.0357 -1.3506
  350MOL0     H46140   5.341   5.134   0.920  3.6124 -1.1461  0.6949
  350MOL0     H46141   5.167   5.286   0.926  0.3688  1.3084  0.7466
  350MOL0     H46142   5.119   5.270   1.098 -2.2090  2.8964 -2.2087
  350MOL0     H46143   5.101   5.078   0.866 -0.7475  2.5238 -0.8759
  350MOL0     H46144   5.075   5.017   1.038 -2.0840 -1.7230 -0.7412
  350MOL0     H46145   4.930   5.212   0.873  0.2962 -0.5516 -1.2199
  350MOL0     H46146   4.884   5.192   1.039  1.4359 -3.2738  2.1188
  350MOL0     H46147   4.840   4.933   1.002 -1.1548  0.9142  1.3015
  350MOL0     H46148   4.869   4.967   0.821 -2.5003  0.0304 -1.2048
  350MOL0     H46149   4.696   5.140   0.824 -1.7190  0.6592  1.9515
  350MOL0     H46150   4.660   4.970   0.801 -1.7324  1.2067 -0.9301
  350MOL0     H46151   4.495   5.067   0.967 -1.4597  0.0937  2.8514
  350MOL0     H46152   4.629   5.139   1.058 -1.5706 -0.0575  2.1360
  350MOL0     H46153   4.671   5.011   1.273  1.4972 -1.0875  1.9369
  350MOL0     H46154   4.689   4.783   1.450 -1.3968  1.7816  0.8826
  350MOL0     H46155   4.597   4.649   1.396 -0.0730 -0.7548  0.8440
  350MOL0     H46156   4.507   4.726   1.586  2.1254 -1.9949 -2.2355
  350MOL0     H46157   4.391   4.750   1.458  0.5135 -1.8028  1.7019
  350MOL0     H46158   4.541   4.980   1.609 -2.6386  0.8643  1.9328
  350MOL0     H46159   4.451   5.010   1.462 -3.1982  0.4434  0.4937
  350MOL0     H46160   4.347   5.042   1.680  1.4029 -2.8758  4.3226
  350MOL0     H46161   4.346   4.863   1.694  2.1165 -2.5813 -3.3567
  350MOL0     H46162   4.182   4.671   1.513  0.5945 -0.8676  0.0233
  350MOL0     H46163   3.979   4.568   1.604 -4.8888  0.0883 -0.3647
  350MOL0     H46164   3.460   4.694   1.637  0.4141 -0.3053 -0.4581
  350MOL0     H46165   3.254   4.564   1.721  0.3513  0.0498 -0.2639
  350MOL0     H46166   3.172   4.574   2.139  2.5702 -0.4504 -0.4361
  350MOL0     H46167   3.248   4.418   2.139  1.4720  0.3666 -0.9645
  350MOL0     H46168   3.050   4.294   2.053  0.7741  0.2367 -0.9266
  350MOL0     H46169   2.972   4.449   2.014  0.3334 -1.0758  1.2184
  350MOL0     H46170   2.872   4.363   2.220  1.3144 -2.3894  2.5703
  350MOL0     H46171   2.967   4.510   2.258 -1.0140 -0.0585  1.0601
  350MOL0     H46172   3.006   4.212   2.329  0.0638  0.3748 -1.3888
  350MOL0     H46173   3.147   4.292   2.277 -0.0763  3.3062 -2.9111
  350MOL0     H46174   3.141   4.464   2.452  0.1330 -0.2647 -1.1132
  350MOL0     H46175   3.135   4.301   2.512 -0.6673 -0.1331  1.5308
  350MOL0     H46176   2.890   4.310   2.549  0.8630 -0.0656 -2.6472
  350MOL0     H46177   2.892   4.482   2.513 -0.0729 -0.0069  2.6309
  350MOL0     H46178   3.044   4.361   2.751  1.4425 -0.8461 -1.0171
  350MOL0     H46179   3.034   4.528   2.700 -2.7559  1.1882  1.4557
  350MOL0     H46180   2.776   4.519   2.695 -1.1400 -0.0853  0.4834
  350MOL0     H46181   2.856   4.517   2.854 -1.6733  1.6876 -1.1801
  350MOL0     H46182   3.396   4.582   2.111 -1.9205 -0.1253 -0.2215
  350MOL0     H46183   3.621   4.687   2.043 -0.2318 -2.9781  2.4090
  350MOL0     H46184   3.841   4.940   1.760 -0.0894  0.6374 -0.2521
  350MOL0     H46185   4.032   5.051   1.675 -0.3240 -0.2972  3.4674
  350MOL0     H46186   5.545   5.436   1.188  0.0659  1.1256  1.3823
  350MOL0     H46187   5.688   5.619   1.203  1.7812  1.8512 -1.1389
  350MOL0     H46188   5.909   5.951   0.842 -1.6505 -2.0842  1.4941
  350MOL0     H46189   6.031   6.149   0.811 -2.3677  0.5065 -1.6713
  350MOL0     H46190   6.089   6.508   0.871 -1.5769 -0.6542  3.8686
  350MOL0     H46191   6.038   6.362   0.786  0.9973 -1.3514  1.9223
  350MOL0     H46192   6.318   6.397   0.897  0.5803  1.8844 -1.1525
  350MOL0     H46193   6.243   6.245   0.825 -0.5802 -0.4905  1.2664
  350MOL0     H46194   6.282   6.521   0.712 -1.7670 -0.9333  1.1178
  350MOL0     H46195   6.192   6.401   0.624  1.4914 -1.0246 -1.5406
  350MOL0     H46196   6.503   6.392   0.686  2.0818 -1.1422 -0.6155
  350MOL0     H46197   6.411   6.265   0.598  0.6287  0.1320 -3.9002
  350MOL0     H46198   6.493   6.584   0.328  0.2027 -0.4608  1.0059
  350MOL0     H46199   5.952   6.271   1.219 -0.8213  0.3330  1.5287
  350MOL0     H46200   5.848   6.071   1.259  1.2111 -1.6022 -0.2100
  351MOL0     O46201   0.945  10.326   7.103 -0.1154 -0.4842 -0.1493
  351MOL0     C46202   0.982  10.368   7.213  0.9554  0.2244  0.3479
  351MOL0     O46203   1.091  10.442   7.239 -0.4419  0.7834 -0.2484
  351MOL0     C46204   1.173  10.500   7.147  0.4991  0.2786  0.2829
  351MOL0     C46205   1.128  10.587   7.046 -0.3575 -0.2763 -0.4842
  351MOL0     C46206   1.215  10.641   6.950  0.9738 -0.7755  0.2552
  351MOL0     C46207   1.354  10.630   6.965 -0.0403 -0.2104 -0.0419
  351MOL0     O46208   1.427  10.711   6.885  0.0790  0.3084 -0.6264
  351MOL0     C46209   1.560  10.755   6.919 -0.1468 -0.4614 -0.5455
  351MOL0     C46210   1.604  10.851   6.811 -0.4439  0.2506  0.7116
  351MOL0     C46211   1.746  10.899   6.842 -0.2767  0.6187  0.1237
  351MOL0     C46212   1.805  10.985   6.733  0.5399  0.3916  0.1997
  351MOL0     C46213   1.954  10.999   6.730  0.2393 -0.1227  0.0630
  351MOL0     C46214   2.009  11.116   6.639 -0.8030  0.2455 -0.8354
  351MOL0     C46215   2.159  11.092   6.635  0.2412  0.1713  0.6999
  351MOL0     C46216   2.260  11.198   6.578 -0.3556 -0.7428 -0.4639
  351MOL0     N46217   2.292  11.290   6.692  0.6195 -0.3164  0.0591
  351MOL0     C46218   2.218  11.393   6.741 -0.0389 -1.4116  0.2048
  351MOL0     C46219   2.303  11.458   6.825 -0.2640 -0.0583  0.6582
  351MOL0     C46220   2.271  11.589   6.893 -0.5282 -0.5120 -0.5307
  351MOL0     C46221   2.310  11.590   7.044 -0.7035 -0.9256 -0.0543
  351MOL0     C46222   2.229  11.511   7.142  0.1385  0.5719 -0.4908
  351MOL0     C46223   2.276  11.507   7.288  0.3495 -0.1201 -0.1054
  351MOL0     O46224   2.253  11.634   7.355 -0.2057  0.1746 -0.1184
  351MOL0     C46225   2.139  11.671   7.424  0.4494  0.0204  0.7182
  351MOL0     C46226   2.147  11.788   7.498 -0.5049  0.5680 -0.7712
  351MOL0     C46227   2.044  11.819   7.584 -0.2669  0.5687 -0.9251
  351MOL0     C46228   1.927  11.738   7.601 -0.6090 -0.4274 -0.0688
  351MOL0     C46229   1.812  11.762   7.692 -0.1650 -0.0710  0.0194
  351MOL0     O46230   1.694  11.686   7.659  0.2014 -0.0367 -0.7359
  351MOL0     C46231   1.566  11.719   7.696 -0.8335  1.3932  0.0190
  351MOL0     C46232   1.524  11.847   7.739 -0.3376  1.1292  0.4724
  351MOL0     C46233   1.387  11.861   7.766 -0.1247  0.7341  0.3437
  351MOL0     C46234   1.291  11.754   7.747 -0.1563 -0.5346  0.5050
  351MOL0     O46235   1.156  11.776   7.781  0.3518 -0.1457  0.4669
  351MOL0     C46236   1.075  11.655   7.803 -0.1532 -0.5301  0.1179
  351MOL0     C46237   0.929  11.691   7.840  0.5363 -0.2981  0.0176
  351MOL0     C46238   0.832  11.716   7.713  0.3201  0.5254 -0.0280
  351MOL0     C46239   0.685  11.754   7.743 -0.0669 -0.6820  0.4009
  351MOL0     C46240   0.613  11.764   7.604 -0.8232  0.7427 -0.2137
  351MOL0     C46241   0.478  11.837   7.607  0.8844 -0.5921  0.1460
  351MOL0     C46242   0.478  11.956   7.518  0.7195 -0.3595 -0.3285
  351MOL0     C46243   0.344  12.020   7.516  0.5125 -0.7609 -0.5786
  351MOL0    Cl46244   0.316  12.106   7.668  0.1627  0.0541  0.6047
  351MOL0     C46245   1.342  11.629   7.703 -0.6748  0.3209  0.1903
  351MOL0     C46246   1.478  11.615   7.673 -0.2102 -1.1654  0.5091
  351MOL0     O46247   1.821  11.853   7.777  0.0806  0.0666 -0.6423
  351MOL0     C46248   1.926  11.626   7.529  0.0614  0.7497 -0.7721
  351MOL0     C46249   2.026  11.593   7.439  0.5146  0.4843  0.4571
  351MOL0     N46250   2.417  11.384   6.833  0.1948  0.3224 -0.0247
  351MOL0     N46251   2.409  11.281   6.758  0.0613 -0.3053 -0.2188
  351MOL0     C46252   1.405  10.553   7.070 -0.5381 -0.2517  0.1980
  351MOL0     C46253   1.313  10.481   7.153 -0.2365  1.1272 -0.3284
  351MOL0     C46254   0.882  10.344   7.332  0.4812  0.5140  0.1494
  351MOL0     C46255   0.918  10.368   7.467 -0.4652  1.5284  0.5433
  351MOL0     C46256   0.823  10.351   7.566  0.7277  0.6831 -0.6764
  351MOL0     C46257   0.691  10.305   7.543  0.7820  0.0168  0.3528
  351MOL0     O46258   0.593  10.287   7.631  0.0886  0.0570 -0.5460
  351MOL0     C46259   0.604  10.351   7.761  0.1069  0.1894 -0.6783
  351MOL0     C46260   0.496  10.308   7.859  0.0682 -0.3502  0.3601
  351MOL0     C46261   0.361  10.344   7.802 -0.1291 -0.2877  0.2222
  351MOL0     C46262   0.237  10.335   7.894  0.2284 -0.4462 -0.5161
  351MOL0     C46263   0.122  10.385   7.816  0.6094 -0.3200 -0.2401
  351MOL0     C46264   0.028  10.428   7.754 -0.4344 -0.5322 -0.0783
  351MOL0     C46265   0.650  10.285   7.409 -0.1122 -0.2840 -0.2321
  351MOL0     C46266   0.744  10.299   7.308 -0.0285  0.2909  0.0366
  351MOL0     H46267   1.021  10.599   7.037 -0.1247  0.5775 -2.8605
  351MOL0     H46268   1.176  10.716   6.883 -0.7749  0.9714  3.0308
  351MOL0     H46269   1.624  10.667   6.925 -0.5467 -0.7039  0.2664
  351MOL0     H46270   1.566  10.792   7.022 -0.8344  1.6025 -1.1850
  351MOL0     H46271   1.534  10.935   6.811 -0.1713  0.5897 -2.1368
  351MOL0     H46272   1.607  10.797   6.716 -0.5531  1.1907  0.1563
  351MOL0     H46273   1.803  10.806   6.853 -1.1868 -0.3273 -2.4123
  351MOL0     H46274   1.736  10.956   6.935  1.6394  3.4042 -1.2757
  351MOL0     H46275   1.779  10.942   6.636  2.7532 -1.2408  0.2502
  351MOL0     H46276   1.765  11.087   6.730  0.9715  0.6137  1.3863
  351MOL0     H46277   2.004  10.905   6.705  0.0742  0.2975 -2.0267
  351MOL0     H46278   1.983  11.023   6.832 -2.2448 -1.0382  1.0720
  351MOL0     H46279   1.984  11.213   6.685 -1.2758 -1.0672  1.8993
  351MOL0     H46280   1.955  11.116   6.544  0.0215  1.4730 -1.3437
  351MOL0     H46281   2.187  11.060   6.736 -2.8677 -0.9338  1.3073
  351MOL0     H46282   2.186  11.005   6.575 -2.0130  0.8254 -1.3828
  351MOL0     H46283   2.225  11.259   6.494  2.4255  2.5864  0.5630
  351MOL0     H46284   2.349  11.149   6.538  1.0465  1.6933 -0.5550
  351MOL0     H46285   2.115  11.423   6.732  0.2320 -0.9571 -1.7733
  351MOL0     H46286   2.167  11.622   6.882 -0.1443  1.1111  0.4543
  351MOL0     H46287   2.328  11.667   6.841 -0.0053 -0.3021  0.3400
  351MOL0     H46288   2.313  11.696   7.071  0.5137 -0.6129 -1.3002
  351MOL0     H46289   2.416  11.567   7.058 -1.3837 -3.8549  1.1163
  351MOL0     H46290   2.125  11.545   7.154  0.5211  1.6366 -0.0788
  351MOL0     H46291   2.232  11.408   7.105  0.0191 -0.4361  2.0770
  351MOL0     H46292   2.384  11.492   7.279  0.4102  1.0849 -1.6981
  351MOL0     H46293   2.220  11.434   7.346 -1.7590  2.1471  0.9110
  351MOL0     H46294   2.241  11.836   7.470 -0.1877 -0.8561 -2.2918
  351MOL0     H46295   2.053  11.920   7.623  1.5703 -0.1903  0.7521
  351MOL0     H46296   1.604  11.920   7.750  0.7130 -0.0448  0.8490
  351MOL0     H46297   1.352  11.954   7.808 -0.2615  2.0404 -2.4318
  351MOL0     H46298   1.126  11.598   7.881  2.8438  1.0711 -0.4936
  351MOL0     H46299   1.080  11.595   7.711  1.9339  1.8079 -1.4480
  351MOL0     H46300   0.932  11.780   7.904  0.0265 -0.9769  1.0130
  351MOL0     H46301   0.876  11.620   7.905 -0.5557  1.5264  1.2269
  351MOL0     H46302   0.835  11.630   7.647  0.1993  0.5208 -0.0277
  351MOL0     H46303   0.886  11.788   7.650 -2.4758  1.9753 -0.9023
  351MOL0     H46304   0.648  11.669   7.802  1.0407 -0.1879  1.8562
  351MOL0     H46305   0.678  11.843   7.806 -0.7173 -1.6842  1.8235
  351MOL0     H46306   0.598  11.662   7.567  1.0633  0.8208 -1.2680
  351MOL0     H46307   0.686  11.797   7.530 -0.4873 -0.3895 -0.4052
  351MOL0     H46308   0.446  11.848   7.711  1.3829 -1.7768  0.4457
  351MOL0     H46309   0.399  11.770   7.571 -0.2997  0.9581 -0.2637
  351MOL0     H46310   0.559  12.024   7.546  2.9822 -2.3468 -1.6672
  351MOL0     H46311   0.486  11.930   7.412 -0.7914  2.8702 -1.3584
  351MOL0     H46312   0.268  11.941   7.512  2.3217 -2.6336  0.3447
  351MOL0     H46313   0.341  12.088   7.430 -5.2142  1.5651  1.0170
  351MOL0     H46314   1.275  11.544   7.700  0.8000 -0.9123  0.8328
  351MOL0     H46315   1.515  11.519   7.638 -1.8460 -0.8661 -2.3361
  351MOL0     H46316   1.856  11.543   7.541  1.3064 -0.2084  0.2895
  351MOL0     H46317   2.024  11.503   7.379  0.3633  0.2418  0.8201
  351MOL0     H46318   1.510  10.540   7.092 -0.6492  0.4863  1.2773
  351MOL0     H46319   1.352  10.418   7.232  0.9220 -0.2467 -1.9226
  351MOL0     H46320   1.022  10.382   7.492 -0.2449  0.3942  0.3148
  351MOL0     H46321   0.853  10.363   7.670  0.7494  0.9784 -0.7142
  351MOL0     H46322   0.617  10.459   7.747  1.8600  0.2927  1.2122
  351MOL0     H46323   0.701  10.327   7.806  1.8285  1.1849 -3.6003
  351MOL0     H46324   0.507  10.203   7.887  2.1804 -0.8562 -1.9808
  351MOL0     H46325   0.504  10.359   7.955 -0.4208  1.9982 -0.7642
  351MOL0     H46326   0.349  10.276   7.717  2.8593 -1.1104  0.3678
  351MOL0     H46327   0.374  10.447   7.769 -1.8854  0.3531  1.4304
  351MOL0     H46328   0.233  10.235   7.937  0.2071 -0.3689 -0.3392
  351MOL0     H46329   0.250  10.400   7.981 -2.8218 -0.7747  0.3035
  351MOL0     H46330  -0.054  10.467   7.698  0.9690 -0.9265 -2.5603
  351MOL0     H46331   0.556  10.244   7.372  0.1809  0.0864 -1.4304
  351MOL0     H46332   0.719  10.270   7.206  0.3410  0.1492 -0.0145
  352MOL0     O46333  11.149   6.562   4.109  0.3317 -0.0649  0.2017
  352MOL0     C46334  11.100   6.489   4.189 -0.0459 -0.2386 -0.2939
  352MOL0     O46335  11.166   6.410   4.279  0.1744  0.1023  0.3672
  352MOL0     C46336  11.306   6.413   4.281  0.7071  0.0008 -0.0973
  352MOL0     C46337  11.371   6.292   4.289 -0.2951  0.9380  0.4987
  352MOL0     C46338  11.516   6.288   4.286 -0.8101 -0.9928 -0.6662
  352MOL0     C46339  11.585   6.405   4.294  0.4029 -0.6469  0.3919
  352MOL0     O46340  11.722   6.414   4.314  0.8004  0.1052  0.2376
  352MOL0     C46341  11.799   6.292   4.345  0.9454 -0.5966 -0.2016
  352MOL0     C46342  11.929   6.350   4.388  0.0006 -0.1549 -0.4023
  352MOL0     C46343  12.007   6.394   4.266  0.6324 -0.9665  0.4936
  352MOL0     C46344  12.126   6.479   4.319 -0.1870  0.0195 -0.1695
  352MOL0     C46345  12.202   6.553   4.206 -0.0914  1.6660  0.3878
  352MOL0     C46346  12.252   6.456   4.094 -0.6226  0.0504 -0.8149
  352MOL0     C46347  12.339   6.338   4.157  0.2855 -0.4648  0.7534
  352MOL0     C46348  12.464   6.368   4.248 -0.5703 -0.0400 -0.3206
  352MOL0     N46349  12.595   6.379   4.179  0.2407 -0.5434 -0.4688
  352MOL0     C46350  12.699   6.437   4.247 -0.1126 -0.3793  0.1346
  352MOL0     C46351  12.786   6.474   4.148 -0.4900  0.2902  0.0653
  352MOL0     C46352  12.902   6.573   4.178  0.3230 -0.8220  0.7032
  352MOL0     C46353  12.855   6.718   4.150  0.3924 -0.4753 -0.0315
  352MOL0     C46354  12.971   6.811   4.192  0.1179 -0.3551 -0.2490
  352MOL0     C46355  12.985   6.838   4.343  0.5667 -0.0472 -0.6222
  352MOL0     O46356  12.865   6.885   4.400 -0.6085  0.7295 -0.3093
  352MOL0     C46357  12.765   6.800   4.443 -0.1764  1.0347  0.0373
  352MOL0     C46358  12.634   6.836   4.420  0.3635  0.0303 -0.1666
  352MOL0     C46359  12.533   6.760   4.474  1.1306  0.0855 -0.2234
  352MOL0     C46360  12.555   6.637   4.550 -0.0005 -0.4227 -0.0240
  352MOL0     C46361  12.445   6.558   4.601  0.5550  0.1869  0.3471
  352MOL0     O46362  12.351   6.626   4.678  0.4271 -0.0461 -0.7325
  352MOL0     C46363  12.240   6.567   4.741  0.1790  0.8196 -0.2165
  352MOL0     C46364  12.120   6.648   4.752  0.4962 -0.2460 -0.4025
  352MOL0     C46365  12.008   6.596   4.819  0.1689 -0.4977  0.7132
  352MOL0     C46366  12.010   6.460   4.860  0.0675 -0.6294  0.2056
  352MOL0     O46367  11.903   6.420   4.929  0.5939 -0.4879  0.1710
  352MOL0     C46368  11.894   6.298   5.007  0.4447  0.7542  0.0208
  352MOL0     C46369  11.759   6.297   5.089 -0.3886  0.6218  0.8453
  352MOL0     C46370  11.763   6.380   5.219  1.7294 -0.0952 -0.0711
  352MOL0     C46371  11.647   6.354   5.321  0.2356  0.2883  0.0577
  352MOL0     C46372  11.508   6.407   5.278  0.5107 -0.2247  0.6636
  352MOL0     C46373  11.427   6.309   5.208  0.0094  0.1100  0.3233
  352MOL0     C46374  11.282   6.357   5.194 -0.5172 -0.2436  0.2458
  352MOL0     C46375  11.185   6.241   5.165 -0.3766 -0.5214  0.0415
  352MOL0    Cl46376  11.227   6.162   5.013  0.1037  0.0896  0.0804
  352MOL0     C46377  12.131   6.395   4.860  0.1496  0.0539  0.1630
  352MOL0     C46378  12.240   6.441   4.798 -0.1954 -0.4241 -0.2046
  352MOL0     O46379  12.443   6.440   4.576  0.5697  0.4805 -0.1260
  352MOL0     C46380  12.691   6.611   4.582 -0.1945  0.0902  0.1229
  352MOL0     C46381  12.797   6.690   4.527  0.1954  0.1098  0.3604
  352MOL0     N46382  12.730   6.444   4.028 -0.2784 -0.7208  0.0459
  352MOL0     N46383  12.618   6.376   4.045 -0.2951 -0.3765  0.0485
  352MOL0     C46384  11.519   6.527   4.287 -0.4042 -0.0446 -0.8769
  352MOL0     C46385  11.383   6.531   4.283 -1.3858 -0.0065 -0.2495
  352MOL0     C46386  10.953   6.511   4.198  0.5012  0.6516 -0.4379
  352MOL0     C46387  10.886   6.597   4.109  0.2784 -0.3093 -0.8867
  352MOL0     C46388  10.746   6.604   4.105  0.5021  0.4836 -0.4704
  352MOL0     C46389  10.674   6.517   4.190 -0.1571  0.0198  0.3318
  352MOL0     O46390  10.537   6.505   4.189 -0.0491 -0.1523 -0.2483
  352MOL0     C46391  10.454   6.566   4.094  0.0359  0.6806  0.2230
  352MOL0     C46392  10.310   6.518   4.106  0.7140  0.7122  0.1360
  352MOL0     C46393  10.226   6.561   3.984  0.2666  0.2100 -1.4812
  352MOL0     C46394  10.081   6.541   3.994  1.1833 -0.4071 -0.0064
  352MOL0     C46395  10.012   6.635   4.088 -0.8028 -0.1267 -0.1390
  352MOL0     C46396   9.951   6.690   4.175  0.0192  0.1521 -0.1428
  352MOL0     C46397  10.738   6.448   4.296 -0.0570  0.2887  0.3698
  352MOL0     C46398  10.873   6.439   4.294  0.0955 -1.1946 -0.1081
  352MOL0     H46399  11.313   6.201   4.280  2.0874 -0.5522 -0.7280
  352MOL0     H46400  11.577   6.198   4.284  0.4446 -0.2215  0.8688
  352MOL0     H46401  11.813   6.215   4.269 -0.6458 -2.1828  1.0272
  352MOL0     H46402  11.757   6.245   4.435  2.7185 -1.8176  0.0196
  352MOL0     H46403  11.987   6.268   4.431  0.7473  0.1636 -0.7730
  352MOL0     H46404  11.919   6.424   4.468  2.3466 -0.4019  0.1971
  352MOL0     H46405  11.936   6.441   4.197  1.3737 -1.2132 -0.4595
  352MOL0     H46406  12.042   6.305   4.213  2.8177 -0.9311  1.7557
  352MOL0     H46407  12.086   6.548   4.394 -1.0377 -0.8376  0.1838
  352MOL0     H46408  12.199   6.420   4.375 -0.6892  0.0062  0.4904
  352MOL0     H46409  12.279   6.619   4.246 -0.0407  0.3968  2.5586
  352MOL0     H46410  12.124   6.618   4.167  0.4027  1.4649 -0.9782
  352MOL0     H46411  12.326   6.506   4.031  1.1828 -2.7075 -1.0765
  352MOL0     H46412  12.174   6.421   4.026 -1.7941  1.4370 -0.2371
  352MOL0     H46413  12.268   6.273   4.209  1.8944 -0.8047  2.6399
  352MOL0     H46414  12.367   6.285   4.065  1.4422  3.3911 -1.3526
  352MOL0     H46415  12.484   6.288   4.319 -1.7427 -1.4638 -1.5355
  352MOL0     H46416  12.440   6.454   4.312 -3.2043 -1.3057  0.5482
  352MOL0     H46417  12.701   6.464   4.352 -3.9587 -1.2993  0.6096
  352MOL0     H46418  12.991   6.553   4.117 -0.1600  0.9499 -0.6682
  352MOL0     H46419  12.937   6.558   4.280 -1.9452 -0.0595  1.6407
  352MOL0     H46420  12.758   6.757   4.182  0.8586  1.1731 -0.5237
  352MOL0     H46421  12.845   6.727   4.041 -0.1174  0.9103  0.0992
  352MOL0     H46422  13.067   6.767   4.163 -0.2367 -1.6228  0.4249
  352MOL0     H46423  12.952   6.908   4.145 -0.1594 -0.9034 -1.3063
  352MOL0     H46424  13.051   6.922   4.364 -0.9090  0.6404  1.5700
  352MOL0     H46425  13.011   6.744   4.393 -0.9980 -0.0645  0.1958
  352MOL0     H46426  12.610   6.926   4.365  1.9482  0.9867  0.6261
  352MOL0     H46427  12.429   6.786   4.456  0.8286  0.4499  1.8630
  352MOL0     H46428  12.102   6.746   4.708 -1.3461 -0.5991 -0.5080
  352MOL0     H46429  11.920   6.659   4.828 -0.9312 -1.8652 -0.0321
  352MOL0     H46430  11.978   6.288   5.077  0.1536  0.6876  0.3672
  352MOL0     H46431  11.891   6.218   4.932 -2.3534  0.3139  0.4630
  352MOL0     H46432  11.735   6.193   5.112 -1.2188  0.5719 -0.1699
  352MOL0     H46433  11.685   6.336   5.018  0.3880 -1.8410 -1.4562
  352MOL0     H46434  11.762   6.480   5.177 -1.3813 -0.2340 -0.5092
  352MOL0     H46435  11.853   6.352   5.276  0.4987 -0.9437  1.5553
  352MOL0     H46436  11.647   6.254   5.365  2.6941  0.6528  1.0647
  352MOL0     H46437  11.675   6.423   5.402 -0.3187  1.1565 -0.4792
  352MOL0     H46438  11.518   6.490   5.208 -4.0380  0.5955  0.6646
  352MOL0     H46439  11.454   6.432   5.370 -2.2772 -2.9808 -0.0357
  352MOL0     H46440  11.426   6.218   5.269  0.1688 -1.5457 -1.9716
  352MOL0     H46441  11.473   6.289   5.110 -1.2523 -1.0706 -0.0698
  352MOL0     H46442  11.259   6.407   5.289  0.3004  0.2349  0.2057
  352MOL0     H46443  11.279   6.428   5.110  0.8472 -1.0390 -0.4925
  352MOL0     H46444  11.092   6.296   5.147  1.2573  3.4994  2.5795
  352MOL0     H46445  11.181   6.170   5.249  3.7617  0.9479  1.6885
  352MOL0     H46446  12.132   6.294   4.901 -2.1678 -0.1877 -0.2569
  352MOL0     H46447  12.331   6.381   4.793  0.9912  1.3507 -1.3174
  352MOL0     H46448  12.713   6.524   4.644 -1.3459 -0.5036 -0.2741
  352MOL0     H46449  12.893   6.659   4.566 -0.3520 -0.9610  0.9005
  352MOL0     H46450  11.562   6.626   4.295 -1.2211  0.2271  0.2740
  352MOL0     H46451  11.332   6.626   4.295  1.4348  1.6657 -0.7101
  352MOL0     H46452  10.935   6.669   4.044  0.0772 -0.7177 -1.5000
  352MOL0     H46453  10.692   6.665   4.033  1.0836  1.9342  0.2656
  352MOL0     H46454  10.492   6.536   3.996  0.3677 -1.5332  0.9901
  352MOL0     H46455  10.455   6.674   4.113  0.1397  0.5565  0.9692
  352MOL0     H46456  10.304   6.409   4.118  1.7892  0.5998 -0.1726
  352MOL0     H46457  10.281   6.560   4.202  2.2842  1.4949  0.3021
  352MOL0     H46458  10.253   6.506   3.893  1.0261 -1.6628 -0.1869
  352MOL0     H46459  10.252   6.665   3.965  1.3596  0.3912  0.6937
  352MOL0     H46460  10.035   6.540   3.895 -2.2457 -1.4639  1.4426
  352MOL0     H46461  10.049   6.438   4.012  0.3444 -0.2863 -0.7269
  352MOL0     H46462   9.915   6.739   4.264 -0.4513  1.2152 -0.8979
  352MOL0     H46463  10.681   6.395   4.371  0.5538  0.6264  1.0812
  352MOL0     H46464  10.931   6.374   4.358  0.9658  1.4422  1.9411
  353MOL0     O46465   6.537   8.689   8.226 -0.2648 -0.1797 -0.3377
  353MOL0     C46466   6.529   8.676   8.351 -0.5726  0.2342 -0.1550
  353MOL0     O46467   6.417   8.643   8.423 -0.1112 -0.2363  0.1684
  353MOL0     C46468   6.322   8.556   8.378 -0.9337  0.6266 -0.4342
  353MOL0     C46469   6.327   8.478   8.258 -0.7019  0.5611 -0.2683
  353MOL0     C46470   6.213   8.401   8.223 -1.0173  0.4882 -0.0017
  353MOL0     C46471   6.101   8.395   8.312 -0.0655  0.4729  0.0348
  353MOL0     O46472   5.987   8.321   8.288  0.1270 -0.7614 -0.0783
  353MOL0     C46473   5.964   8.250   8.167  0.1575 -0.1205 -0.3894
  353MOL0     C46474   5.848   8.157   8.196  0.8332 -0.3781  0.1935
  353MOL0     C46475   5.723   8.239   8.243 -0.0994  0.4005  0.5789
  353MOL0     C46476   5.617   8.139   8.268 -0.0428  0.0005  1.1119
  353MOL0     C46477   5.500   8.198   8.338 -0.3000  0.0696  0.3181
  353MOL0     C46478   5.402   8.082   8.374 -0.6088 -0.9623 -0.2571
  353MOL0     C46479   5.290   8.125   8.468  1.3390  0.1661  0.2518
  353MOL0     C46480   5.247   7.999   8.541  0.1847  0.4918 -0.6806
  353MOL0     N46481   5.127   8.026   8.622 -0.5671  0.1848  0.0853
  353MOL0     C46482   5.013   7.954   8.632  0.8836  0.2892  0.8603
  353MOL0     C46483   4.939   8.001   8.738  0.7482 -0.0444  1.0684
  353MOL0     C46484   4.813   7.933   8.790  0.1393 -0.1675  0.1059
  353MOL0     C46485   4.722   8.035   8.856 -0.2149  0.4640  0.1887
  353MOL0     C46486   4.585   7.954   8.860  0.7374  0.5713 -0.5496
  353MOL0     C46487   4.471   8.034   8.936  0.6967  0.5488  0.3236
  353MOL0     O46488   4.356   7.957   8.890 -0.8227 -0.9258 -1.2019
  353MOL0     C46489   4.234   7.988   8.939 -0.2926 -0.6822 -0.0385
  353MOL0     C46490   4.133   7.918   8.884  0.3149  0.0920  0.0894
  353MOL0     C46491   4.005   7.949   8.923 -0.9026 -0.8904 -0.1233
  353MOL0     C46492   3.980   8.043   9.028  0.8835 -0.1874  0.1113
  353MOL0     C46493   3.840   8.073   9.078 -0.3458  0.1048  0.0881
  353MOL0     O46494   3.742   8.033   8.986  0.7239  0.3701  0.1870
  353MOL0     C46495   3.604   8.028   9.024 -0.4418 -0.0811  0.6032
  353MOL0     C46496   3.503   8.011   8.926  0.6253 -0.4967 -0.2600
  353MOL0     C46497   3.370   7.992   8.955 -0.3696  0.3268 -0.3819
  353MOL0     C46498   3.329   7.994   9.091 -0.2075 -0.2966  0.3611
  353MOL0     O46499   3.204   7.964   9.139  0.5663 -0.0924  0.3334
  353MOL0     C46500   3.097   7.927   9.052  0.1033  0.7947  0.2384
  353MOL0     C46501   2.987   7.859   9.131 -0.8324 -0.4612  0.5596
  353MOL0     C46502   3.032   7.721   9.189  0.0239  0.4201  0.5323
  353MOL0     C46503   2.915   7.679   9.276  1.5756 -0.4059 -0.8252
  353MOL0     C46504   2.955   7.565   9.369  0.7583 -0.4256  0.5219
  353MOL0     C46505   2.949   7.424   9.312 -0.0324 -0.9077  0.3043
  353MOL0     C46506   2.821   7.399   9.220 -0.2923  0.5560 -0.0899
  353MOL0     C46507   2.818   7.246   9.215  0.2407 -0.3935 -0.1357
  353MOL0    Cl46508   2.696   7.203   9.089 -0.2016 -0.3975 -0.1753
  353MOL0     C46509   3.423   8.030   9.187 -0.4009 -0.1809 -0.1865
  353MOL0     C46510   3.561   8.038   9.158 -0.1139 -0.5596 -0.0870
  353MOL0     O46511   3.819   8.133   9.181 -0.4338 -1.2842 -0.7950
  353MOL0     C46512   4.087   8.117   9.077 -0.3196  0.2192 -0.6922
  353MOL0     C46513   4.216   8.077   9.049  0.3861  0.3009 -0.4201
  353MOL0     N46514   5.013   8.095   8.799 -0.4334 -0.6860 -1.2131
  353MOL0     N46515   5.126   8.108   8.736  0.2471  0.4414  0.9852
  353MOL0     C46516   6.095   8.471   8.426 -0.5743 -0.0192 -0.0924
  353MOL0     C46517   6.205   8.555   8.452  0.4367 -0.2442  1.4015
  353MOL0     C46518   6.654   8.700   8.434  0.1193 -0.3439  0.1196
  353MOL0     C46519   6.785   8.706   8.376  0.2583 -0.3916 -0.4060
  353MOL0     C46520   6.895   8.750   8.447 -0.8271 -0.1011 -0.2657
  353MOL0     C46521   6.887   8.765   8.585  0.3305  0.0861  0.9933
  353MOL0     O46522   7.006   8.789   8.646 -0.6649  0.0854  0.1388
  353MOL0     C46523   7.039   8.934   8.650 -0.2963 -0.4326  0.1859
  353MOL0     C46524   7.124   8.993   8.545 -0.3991 -0.4842 -0.4914
  353MOL0     C46525   7.269   8.949   8.574 -0.4241 -0.5231 -0.5642
  353MOL0     C46526   7.353   8.957   8.452 -0.7870 -0.1707  0.9667
  353MOL0     C46527   7.491   8.914   8.469  0.4236 -0.0615 -0.5444
  353MOL0     C46528   7.605   8.883   8.497 -0.0016  0.0012  0.6293
  353MOL0     C46529   6.759   8.752   8.648  0.3581 -0.3368 -0.1648
  353MOL0     C46530   6.641   8.723   8.573 -0.1923 -1.2351  0.3580
  353MOL0     H46531   6.420   8.480   8.203  0.6542  2.7532  1.8930
  353MOL0     H46532   6.224   8.332   8.140  1.3393  0.6169  0.1169
  353MOL0     H46533   6.053   8.203   8.124 -0.1063  0.1637 -1.2699
  353MOL0     H46534   5.925   8.326   8.099 -1.0464  1.2691  1.7285
  353MOL0     H46535   5.881   8.082   8.269 -0.1435 -0.3085  0.7327
  353MOL0     H46536   5.818   8.093   8.113 -1.0965 -0.9829  1.2769
  353MOL0     H46537   5.694   8.316   8.171 -1.2977  1.7800  2.4540
  353MOL0     H46538   5.759   8.294   8.331  0.2359  2.8277 -0.9752
  353MOL0     H46539   5.578   8.099   8.174 -1.9228 -1.4046  2.4293
  353MOL0     H46540   5.653   8.047   8.315  0.3937 -1.0493 -1.1160
  353MOL0     H46541   5.446   8.269   8.274 -0.2987  0.5868  0.8862
  353MOL0     H46542   5.543   8.249   8.424 -1.6781  0.6016  0.7095
  353MOL0     H46543   5.459   7.997   8.411  1.3694  0.1585 -0.6026
  353MOL0     H46544   5.342   8.054   8.287  1.3358 -0.1030 -1.9652
  353MOL0     H46545   5.331   8.187   8.548  2.1957 -1.8163  1.4122
  353MOL0     H46546   5.201   8.168   8.421  0.1191 -1.5808  0.8778
  353MOL0     H46547   5.332   7.969   8.603  0.2869 -0.1246 -1.1013
  353MOL0     H46548   5.215   7.918   8.475 -5.0630 -1.1090  3.1689
  353MOL0     H46549   4.990   7.866   8.573  1.0772 -0.1261  1.3946
  353MOL0     H46550   4.840   7.863   8.869  0.3988 -0.3441 -0.1364
  353MOL0     H46551   4.762   7.890   8.703  1.5970  3.7161 -3.0229
  353MOL0     H46552   4.714   8.134   8.812  2.6381  1.6197  1.9641
  353MOL0     H46553   4.754   8.053   8.959 -1.9631 -0.5068  0.9439
  353MOL0     H46554   4.557   7.924   8.758  0.1441  3.7545 -1.4188
  353MOL0     H46555   4.607   7.871   8.928  0.0076  1.2822  0.5771
  353MOL0     H46556   4.472   8.137   8.898 -1.1743  0.1203 -1.0199
  353MOL0     H46557   4.486   8.034   9.045 -2.0774 -0.1937  0.7932
  353MOL0     H46558   4.149   7.838   8.813  1.3068  0.8002 -0.5103
  353MOL0     H46559   3.923   7.902   8.870  1.3024 -1.3144 -3.4208
  353MOL0     H46560   3.548   7.992   8.829  3.6669  1.3096  0.6661
  353MOL0     H46561   3.302   7.952   8.881  0.1150 -0.5100 -0.3867
  353MOL0     H46562   3.135   7.861   8.974 -0.7184  0.8040 -0.1874
  353MOL0     H46563   3.055   8.018   9.007 -0.2065 -0.4688 -2.1901
  353MOL0     H46564   2.892   7.856   9.076 -0.8104  1.7516  0.3287
  353MOL0     H46565   2.972   7.928   9.214  0.1725  2.9296 -1.8714
  353MOL0     H46566   3.128   7.740   9.237  0.5580  2.4216 -1.1836
  353MOL0     H46567   3.040   7.662   9.097  1.5568  0.6503  0.4954
  353MOL0     H46568   2.877   7.756   9.343 -2.9463 -0.6153 -2.7694
  353MOL0     H46569   2.822   7.669   9.220  0.3863  2.9563  0.2987
  353MOL0     H46570   2.873   7.563   9.441  0.0639  2.3331 -0.0982
  353MOL0     H46571   3.046   7.586   9.426  0.1840  2.9879  0.3950
  353MOL0     H46572   2.965   7.354   9.394  0.1238 -0.4754  0.6487
  353MOL0     H46573   3.043   7.414   9.255  0.2803 -0.1049  0.6684
  353MOL0     H46574   2.725   7.432   9.261 -0.6631 -0.8795  0.2727
  353MOL0     H46575   2.843   7.450   9.126  0.4305 -0.1187 -0.2967
  353MOL0     H46576   2.793   7.199   9.310 -1.1266  0.0318 -0.2601
  353MOL0     H46577   2.910   7.199   9.179 -0.5412 -1.3974 -0.8790
  353MOL0     H46578   3.403   8.061   9.289  0.1949  1.3427 -0.5082
  353MOL0     H46579   3.624   8.054   9.245  1.3905 -0.1336 -1.2370
  353MOL0     H46580   4.064   8.189   9.154 -1.9477 -0.8181 -0.1594
  353MOL0     H46581   4.301   8.120   9.100 -1.3112 -1.0396  4.0431
  353MOL0     H46582   6.003   8.470   8.484 -0.3700 -0.1227  0.2354
  353MOL0     H46583   6.199   8.617   8.541  2.0946  0.9294  0.7386
  353MOL0     H46584   6.805   8.695   8.270 -0.5181  0.9012 -0.7204
  353MOL0     H46585   6.991   8.762   8.398 -0.5217 -1.9714 -0.1875
  353MOL0     H46586   7.077   8.964   8.748 -4.0496  2.3739  0.9823
  353MOL0     H46587   6.948   8.994   8.645  0.6616  1.0907  0.5175
  353MOL0     H46588   7.094   8.949   8.450 -0.2474  0.7269 -1.1170
  353MOL0     H46589   7.119   9.102   8.531 -0.1271 -0.2247  1.2274
  353MOL0     H46590   7.268   8.845   8.606 -3.0940 -0.2975  0.2907
  353MOL0     H46591   7.315   9.004   8.656 -3.2779 -0.6112  1.2199
  353MOL0     H46592   7.304   8.901   8.372 -0.5562  2.7581 -1.3973
  353MOL0     H46593   7.365   9.060   8.416  1.6230 -0.8970 -0.5538
  353MOL0     H46594   7.703   8.854   8.529  0.2902  0.4020  0.1095
  353MOL0     H46595   6.756   8.766   8.755 -1.8897 -3.2522  0.2752
  353MOL0     H46596   6.550   8.732   8.632  0.2686  0.1209  0.8903
  354MOL0     O46597   2.455   7.963   4.459 -0.0915  0.4428  0.1969
  354MOL0     C46598   2.497   7.981   4.343  0.4260 -0.6538  0.3576
  354MOL0     O46599   2.425   7.967   4.226  0.0512  0.0510  0.7856
  354MOL0     C46600   2.294   7.922   4.228 -1.0372  0.5703  0.5468
  354MOL0     C46601   2.197   7.964   4.314  0.3459 -0.0327 -0.1486
  354MOL0     C46602   2.063   7.919   4.302 -0.3332  0.0249  0.3518
  354MOL0     C46603   2.041   7.805   4.219 -0.2071 -0.2198  0.6135
  354MOL0     O46604   1.914   7.757   4.189  0.0789  0.0182  0.2946
  354MOL0     C46605   1.805   7.765   4.289  0.4851  0.1682 -0.1013
  354MOL0     C46606   1.722   7.641   4.302  1.0426  0.8485  0.3001
  354MOL0     C46607   1.625   7.641   4.423  0.0115 -0.5737  0.5038
  354MOL0     C46608   1.559   7.499   4.446 -0.7806 -0.7095 -1.1546
  354MOL0     C46609   1.431   7.521   4.533 -0.3660  0.8079 -0.0300
  354MOL0     C46610   1.458   7.585   4.675  0.1064 -1.1781 -0.5573
  354MOL0     C46611   1.537   7.494   4.772 -0.4621  0.1822  0.7006
  354MOL0     C46612   1.449   7.374   4.813  0.3632  0.2637 -0.5974
  354MOL0     N46613   1.320   7.421   4.866 -0.4869 -0.2393  0.1509
  354MOL0     C46614   1.299   7.494   4.983 -0.7328 -0.1190 -0.2311
  354MOL0     C46615   1.169   7.504   5.001  0.3139 -1.0156  0.6104
  354MOL0     C46616   1.092   7.573   5.109 -0.2796  0.2372 -0.2894
  354MOL0     C46617   1.110   7.508   5.248  0.3394  0.2450 -0.0021
  354MOL0     C46618   1.018   7.571   5.355 -0.2264 -0.1424 -0.2273
  354MOL0     C46619   0.870   7.538   5.324 -0.0025 -2.1525 -0.3150
  354MOL0     O46620   0.846   7.402   5.299 -0.4984  0.0070 -0.2541
  354MOL0     C46621   0.720   7.362   5.259  1.3440 -0.5714 -0.2030
  354MOL0     C46622   0.606   7.441   5.267  0.1029 -0.3923 -0.7761
  354MOL0     C46623   0.488   7.412   5.203  1.4309 -0.1883  0.5163
  354MOL0     C46624   0.469   7.285   5.155 -0.3314 -0.3578  0.2818
  354MOL0     C46625   0.340   7.251   5.087 -0.8355  0.1143  0.6499
  354MOL0     O46626   0.275   7.364   5.038  0.4564 -0.4389 -0.0953
  354MOL0     C46627   0.144   7.347   4.987 -0.5409 -0.5125 -0.1784
  354MOL0     C46628   0.052   7.292   5.069 -0.5444 -0.0642 -0.1282
  354MOL0     C46629  -0.072   7.263   5.025  0.4957  0.4135  0.8340
  354MOL0     C46630  -0.117   7.297   4.899 -0.5147 -0.0369 -0.3091
  354MOL0     O46631  -0.243   7.253   4.865 -0.3989 -0.4668  0.2413
  354MOL0     C46632  -0.300   7.286   4.733 -0.8971 -0.1056 -0.2745
  354MOL0     C46633  -0.445   7.307   4.746 -0.2724  0.8375 -0.1857
  354MOL0     C46634  -0.510   7.342   4.612  0.9873 -0.6162  0.4442
  354MOL0     C46635  -0.664   7.393   4.632 -0.3740 -0.1498 -0.0433
  354MOL0     C46636  -0.756   7.278   4.695  0.4166 -0.3276  0.4732
  354MOL0     C46637  -0.905   7.320   4.707 -0.6054 -0.7874  0.2071
  354MOL0     C46638  -0.995   7.195   4.747 -0.3884 -0.3432  0.7977
  354MOL0     C46639  -1.123   7.192   4.673 -0.0498  0.5111 -0.3020
  354MOL0    Cl46640  -1.198   7.354   4.702 -0.2964 -0.0141 -0.1501
  354MOL0     C46641  -0.023   7.347   4.807  1.0652 -0.0375 -0.1416
  354MOL0     C46642   0.110   7.373   4.855 -0.7386 -0.2355  0.5513
  354MOL0     O46643   0.313   7.133   5.077  1.7133  0.2301  0.5491
  354MOL0     C46644   0.575   7.195   5.160 -0.2977  0.9973 -0.3322
  354MOL0     C46645   0.698   7.228   5.217 -0.4655 -0.3690  0.7386
  354MOL0     N46646   1.107   7.444   4.885  0.0668 -0.2102 -0.1219
  354MOL0     N46647   1.195   7.391   4.809 -0.2132 -0.0937  0.4851
  354MOL0     C46648   2.146   7.740   4.159  0.5855  0.4442  0.6466
  354MOL0     C46649   2.271   7.810   4.151  0.2117  0.3526  0.6378
  354MOL0     C46650   2.638   8.031   4.341  0.6986 -0.1371 -0.3845
  354MOL0     C46651   2.705   8.061   4.457 -0.4293  0.1759  0.2935
  354MOL0     C46652   2.835   8.107   4.448 -0.4372  0.1513  0.1222
  354MOL0     C46653   2.903   8.120   4.328  1.0440  0.7171  0.6725
  354MOL0     O46654   3.025   8.181   4.326  0.2258  0.3282 -0.8104
  354MOL0     C46655   3.127   8.140   4.423 -0.3705 -0.6821 -0.4811
  354MOL0     C46656   3.262   8.170   4.344 -0.1987  0.4355 -0.1589
  354MOL0     C46657   3.296   8.064   4.239  0.4799 -0.6012  0.5327
  354MOL0     C46658   3.311   7.923   4.290  0.1172 -0.1989 -0.3467
  354MOL0     C46659   3.398   7.910   4.412  0.2160  0.7801  0.3868
  354MOL0     C46660   3.481   7.896   4.496 -0.2119  0.0371 -0.0431
  354MOL0     C46661   2.834   8.092   4.207  0.3193 -1.0470  0.9230
  354MOL0     C46662   2.702   8.045   4.214  0.0092 -0.0423 -0.1875
  354MOL0     H46663   2.230   8.045   4.377  0.2469 -0.6162  0.6661
  354MOL0     H46664   1.984   7.962   4.363  2.3778  0.0538  4.2485
  354MOL0     H46665   1.734   7.848   4.281 -0.8526 -1.0261 -0.8597
  354MOL0     H46666   1.855   7.781   4.385  2.5117 -2.1394 -0.6568
  354MOL0     H46667   1.793   7.558   4.308 -0.2667 -0.3474 -0.0344
  354MOL0     H46668   1.673   7.626   4.205  2.8298  2.3469 -0.9061
  354MOL0     H46669   1.548   7.715   4.398  1.0897 -0.0279 -1.3831
  354MOL0     H46670   1.687   7.662   4.511  1.2774 -1.7764 -0.0645
  354MOL0     H46671   1.522   7.459   4.350  0.3168 -1.9770 -1.0785
  354MOL0     H46672   1.624   7.423   4.491 -1.8583 -0.5937  0.6902
  354MOL0     H46673   1.389   7.420   4.545 -2.7058  1.6640 -0.4740
  354MOL0     H46674   1.354   7.575   4.476  0.1565  3.6022  1.7393
  354MOL0     H46675   1.367   7.609   4.730  2.2153 -0.6021  3.0332
  354MOL0     H46676   1.520   7.675   4.662 -1.0076 -0.1657  0.8127
  354MOL0     H46677   1.633   7.467   4.728 -2.2450 -0.2943 -3.3579
  354MOL0     H46678   1.559   7.553   4.862 -4.1736  1.7455  0.7910
  354MOL0     H46679   1.493   7.302   4.883  0.1865 -0.8444 -1.5780
  354MOL0     H46680   1.421   7.305   4.733  2.6075  1.3631 -2.4162
  354MOL0     H46681   1.374   7.517   5.059  0.1597 -1.4146 -0.6712
  354MOL0     H46682   0.985   7.559   5.091 -0.4528  0.1084  0.7816
  354MOL0     H46683   1.115   7.680   5.116  0.6228 -0.0613  2.1651
  354MOL0     H46684   1.210   7.521   5.291  0.8138  0.2140 -1.0713
  354MOL0     H46685   1.091   7.401   5.242  1.5279 -0.0509  1.1182
  354MOL0     H46686   1.041   7.518   5.448 -0.3527 -2.7555 -1.5746
  354MOL0     H46687   1.047   7.675   5.368 -0.6237 -0.3824  4.3380
  354MOL0     H46688   0.833   7.609   5.250 -1.1521 -1.5152  0.8109
  354MOL0     H46689   0.820   7.563   5.418  1.3246  2.9155 -0.7005
  354MOL0     H46690   0.615   7.540   5.311 -0.3942  0.1451 -1.8581
  354MOL0     H46691   0.411   7.488   5.206  2.7470  1.1947  2.4316
  354MOL0     H46692   0.077   7.283   5.174  1.8570  3.7539 -0.1831
  354MOL0     H46693  -0.135   7.219   5.102 -0.8564  0.6198 -0.1204
  354MOL0     H46694  -0.284   7.200   4.667  2.7114 -0.0886  0.3767
  354MOL0     H46695  -0.262   7.376   4.685  0.1882 -1.2124 -1.5789
  354MOL0     H46696  -0.466   7.382   4.822  0.8944 -1.4758  2.5696
  354MOL0     H46697  -0.498   7.228   4.800  1.9841  0.8237  2.1969
  354MOL0     H46698  -0.501   7.261   4.539  1.2267  0.3670 -0.6320
  354MOL0     H46699  -0.452   7.430   4.583 -0.1951  0.4631  1.2226
  354MOL0     H46700  -0.667   7.483   4.694  3.1824  0.0590 -0.0016
  354MOL0     H46701  -0.701   7.431   4.537  2.0517  1.5550 -0.3914
  354MOL0     H46702  -0.718   7.254   4.795  0.9831  0.5661  0.4832
  354MOL0     H46703  -0.745   7.182   4.644 -0.2746 -1.1894  1.8757
  354MOL0     H46704  -0.929   7.361   4.609 -1.7239 -0.8905  0.4229
  354MOL0     H46705  -0.913   7.400   4.782  0.6035 -2.5776  2.3821
  354MOL0     H46706  -0.946   7.099   4.731  1.0922  0.4774  0.2529
  354MOL0     H46707  -1.019   7.197   4.853  1.0261  0.8505  1.1190
  354MOL0     H46708  -1.187   7.112   4.713  1.0297 -1.5644 -2.4413
  354MOL0     H46709  -1.113   7.171   4.566  0.4272  0.3490 -0.2268
  354MOL0     H46710  -0.044   7.352   4.701  0.0597 -1.8123 -0.0580
  354MOL0     H46711   0.184   7.401   4.782 -1.9263  0.8307 -0.2802
  354MOL0     H46712   0.557   7.102   5.108 -0.4218  1.3736 -0.9706
  354MOL0     H46713   0.778   7.155   5.207 -2.7078 -2.7439 -1.3293
  354MOL0     H46714   2.141   7.653   4.094 -1.1605  0.2914  0.9504
  354MOL0     H46715   2.346   7.763   4.088  0.3581  1.3232  0.0738
  354MOL0     H46716   2.669   8.038   4.556  1.1261  0.7868  1.0206
  354MOL0     H46717   2.875   8.126   4.547 -0.8033 -1.1243  0.5437
  354MOL0     H46718   3.120   8.039   4.464 -4.0179  0.8132  3.2222
  354MOL0     H46719   3.121   8.202   4.512  3.3702  0.4289 -0.8295
  354MOL0     H46720   3.255   8.268   4.295 -3.1508  1.4612  2.0322
  354MOL0     H46721   3.351   8.175   4.407  0.3834 -0.5371 -0.8866
  354MOL0     H46722   3.392   8.099   4.200 -0.2496 -1.4292 -2.1768
  354MOL0     H46723   3.227   8.059   4.154 -0.0909  0.4042  0.9182
  354MOL0     H46724   3.209   7.892   4.313 -1.7663  4.2689 -1.6269
  354MOL0     H46725   3.354   7.855   4.215  1.6197  0.4789 -0.1291
  354MOL0     H46726   3.552   7.887   4.576 -1.2546 -0.7803  0.8092
  354MOL0     H46727   2.879   8.106   4.109 -2.0531  0.5753 -0.0154
  354MOL0     H46728   2.650   8.030   4.120 -1.7593  1.5966  0.4693
  355MOL0     O46729   2.728   4.852   0.996 -0.2085 -0.6323  0.3737
  355MOL0     C46730   2.802   4.760   1.025  0.1675  1.0119 -0.9027
  355MOL0     O46731   2.768   4.636   1.053  0.9071  0.3299  0.7290
  355MOL0     C46732   2.641   4.597   1.079 -0.1148  1.1202  0.6197
  355MOL0     C46733   2.620   4.466   1.040 -0.0833  0.1696 -0.0615
  355MOL0     C46734   2.493   4.416   1.056  0.3681 -0.3302 -0.1309
  355MOL0     C46735   2.379   4.497   1.104 -0.2821  0.6171 -0.8459
  355MOL0     O46736   2.250   4.457   1.110  0.1877 -0.4416 -0.3338
  355MOL0     C46737   2.195   4.396   0.992  0.2884 -0.4473 -0.2788
  355MOL0     C46738   2.052   4.368   1.023 -0.1108  0.0226 -1.1424
  355MOL0     C46739   1.978   4.304   0.903 -0.1744  0.2577  0.0721
  355MOL0     C46740   1.835   4.275   0.933  0.1540 -0.4551  0.0492
  355MOL0     C46741   1.759   4.196   0.817 -0.6747 -0.0627  0.5068
  355MOL0     C46742   1.609   4.206   0.832 -0.4299 -0.1111 -0.1049
  355MOL0     C46743   1.530   4.159   0.702  0.1583 -0.3241 -1.0222
  355MOL0     C46744   1.582   4.022   0.657  0.4157 -0.1630 -0.2966
  355MOL0     N46745   1.465   3.954   0.598  0.5305 -0.1582  0.6370
  355MOL0     C46746   1.377   4.001   0.502  0.2247 -0.5889  0.3334
  355MOL0     C46747   1.273   3.921   0.514  0.0124 -0.3571  0.5168
  355MOL0     C46748   1.147   3.931   0.434  0.4497  1.4813 -0.6125
  355MOL0     C46749   1.041   4.002   0.519 -1.0022  0.5025  0.8455
  355MOL0     C46750   0.898   3.966   0.475 -0.7212  0.5359 -0.0161
  355MOL0     C46751   0.793   4.060   0.545  1.1030  0.4846 -0.4767
  355MOL0     O46752   0.792   4.191   0.498 -0.3738 -0.0713  0.5914
  355MOL0     C46753   0.677   4.267   0.518 -1.3025 -0.1033  0.6060
  355MOL0     C46754   0.679   4.383   0.442 -0.2977 -0.7743  0.3439
  355MOL0     C46755   0.583   4.481   0.456 -0.3781 -0.1395 -0.1527
  355MOL0     C46756   0.474   4.455   0.554  0.2744 -0.6945 -0.1804
  355MOL0     C46757   0.351   4.544   0.545  0.2974  0.4886 -0.0730
  355MOL0     O46758   0.258   4.509   0.636 -0.2940  0.4565  0.2339
  355MOL0     C46759   0.131   4.538   0.617 -0.5821 -0.5209 -0.2450
  355MOL0     C46760   0.082   4.659   0.551  0.7525 -0.2562 -0.8638
  355MOL0     C46761  -0.053   4.683   0.539  0.5163  0.0121 -0.3239
  355MOL0     C46762  -0.146   4.600   0.595  0.2141  0.3651  0.2656
  355MOL0     O46763  -0.280   4.626   0.588  0.5970 -0.1669 -0.6279
  355MOL0     C46764  -0.375   4.522   0.564 -0.4936  0.5266 -0.5149
  355MOL0     C46765  -0.512   4.574   0.524 -1.0348  0.8902  0.1120
  355MOL0     C46766  -0.533   4.676   0.415  0.2462  0.3822 -0.0074
  355MOL0     C46767  -0.516   4.608   0.279 -0.2571 -1.1387 -0.0009
  355MOL0     C46768  -0.586   4.672   0.152 -0.4022 -0.2384 -0.4766
  355MOL0     C46769  -0.717   4.743   0.183 -0.2550  0.2059 -1.1569
  355MOL0     C46770  -0.796   4.774   0.052 -0.4424  0.0273  0.0779
  355MOL0     C46771  -0.889   4.886   0.084  0.4727 -0.4668 -0.0716
  355MOL0    Cl46772  -1.043   4.849  -0.004 -0.0630  0.2843  0.1866
  355MOL0     C46773  -0.104   4.478   0.649 -0.1643 -0.1487  0.4392
  355MOL0     C46774   0.032   4.452   0.665 -0.0871  0.0106 -0.9370
  355MOL0     O46775   0.348   4.636   0.467 -0.0632  0.3098  0.8815
  355MOL0     C46776   0.478   4.342   0.636  0.3782 -0.7073  0.3591
  355MOL0     C46777   0.583   4.254   0.625  1.2209  0.5755 -0.5541
  355MOL0     N46778   1.288   3.826   0.610 -0.3819  0.1115  0.0169
  355MOL0     N46779   1.401   3.851   0.662  0.1910 -0.4681  0.1713
  355MOL0     C46780   2.403   4.630   1.142  0.4541 -0.4097  0.8341
  355MOL0     C46781   2.539   4.676   1.131  0.3320  0.5390 -0.5770
  355MOL0     C46782   2.938   4.793   1.039 -0.4094 -0.6551 -0.1954
  355MOL0     C46783   3.032   4.687   1.078  0.5917  0.0926  0.1284
  355MOL0     C46784   3.168   4.708   1.078  0.3349 -0.6065  0.7583
  355MOL0     C46785   3.224   4.840   1.038  0.1625  0.2023  0.1819
  355MOL0     O46786   3.357   4.853   1.034  0.9052 -0.1104  0.1342
  355MOL0     C46787   3.418   4.988   1.040 -0.1290 -0.1841  0.6623
  355MOL0     C46788   3.566   4.975   1.006 -0.7654 -0.3987 -0.0007
  355MOL0     C46789   3.624   5.114   1.013  0.9686  0.1108  0.0927
  355MOL0     C46790   3.751   5.119   0.931  0.4793  0.2371  0.7793
  355MOL0     C46791   3.816   5.241   0.959  0.2853 -0.0608 -0.3760
  355MOL0     C46792   3.878   5.339   0.996  0.5222 -0.8831 -0.1799
  355MOL0     C46793   3.130   4.945   1.012  0.4207  0.0893 -0.5367
  355MOL0     C46794   2.996   4.924   1.020  0.4296 -0.0765  0.4116
  355MOL0     H46795   2.693   4.403   0.990  0.8611  0.6866  0.6373
  355MOL0     H46796   2.459   4.314   1.040 -0.2129 -0.9684  3.9321
  355MOL0     H46797   2.250   4.303   0.975 -1.2290 -1.8376  1.8140
  355MOL0     H46798   2.198   4.467   0.909 -0.0418  1.0916  0.9850
  355MOL0     H46799   2.005   4.465   1.042  3.0117  2.0751 -3.0006
  355MOL0     H46800   2.038   4.302   1.109 -2.2161 -0.5876 -1.8880
  355MOL0     H46801   2.028   4.210   0.875  0.3597  0.4954  0.2055
  355MOL0     H46802   1.999   4.376   0.824 -1.1707 -0.6659 -1.0615
  355MOL0     H46803   1.843   4.198   1.011 -1.9558 -1.3489 -0.5332
  355MOL0     H46804   1.787   4.363   0.976  1.4438  0.8866 -1.1560
  355MOL0     H46805   1.792   4.092   0.823  2.3530  0.8207  0.4941
  355MOL0     H46806   1.791   4.239   0.721 -2.5554  0.5863  0.1108
  355MOL0     H46807   1.579   4.310   0.846 -1.2215 -0.0598 -1.9435
  355MOL0     H46808   1.582   4.150   0.922  1.3055 -1.4669 -0.3613
  355MOL0     H46809   1.425   4.154   0.733  0.2217  0.5082 -0.6444
  355MOL0     H46810   1.530   4.234   0.622 -3.7734  1.1569  0.1469
  355MOL0     H46811   1.611   3.967   0.747 -0.1355 -1.0188 -0.6292
  355MOL0     H46812   1.666   4.027   0.588  1.7333 -1.0259  1.1801
  355MOL0     H46813   1.388   4.087   0.436  0.6173  0.5574  1.8506
  355MOL0     H46814   1.113   3.827   0.421 -1.0790  1.9386 -0.4808
  355MOL0     H46815   1.176   3.972   0.337  2.1036  3.8056  0.7906
  355MOL0     H46816   1.067   4.108   0.507  0.9938 -0.0107  0.2194
  355MOL0     H46817   1.047   3.962   0.621 -1.0408 -4.4888 -0.8334
  355MOL0     H46818   0.882   3.968   0.367  0.9574 -2.1152 -0.4121
  355MOL0     H46819   0.891   3.862   0.509 -0.4480  0.2660 -0.7717
  355MOL0     H46820   0.808   4.063   0.654  1.6273 -1.9232 -0.4152
  355MOL0     H46821   0.693   4.020   0.523  2.2301 -1.6596 -1.9956
  355MOL0     H46822   0.756   4.394   0.367  0.9541 -1.4863  1.4830
  355MOL0     H46823   0.582   4.568   0.390 -2.1441  0.4155  0.5732
  355MOL0     H46824   0.147   4.737   0.512  0.2108  0.1231 -1.0306
  355MOL0     H46825  -0.076   4.784   0.506  0.5870  0.7137  1.6067
  355MOL0     H46826  -0.380   4.464   0.656  0.7880  0.9118 -0.1805
  355MOL0     H46827  -0.337   4.462   0.481  2.3225  0.1838  0.9090
  355MOL0     H46828  -0.548   4.619   0.617 -1.9275 -0.3191  0.3773
  355MOL0     H46829  -0.580   4.490   0.504  1.0753 -0.6918 -0.9060
  355MOL0     H46830  -0.458   4.756   0.414  0.3017  0.3459 -1.6655
  355MOL0     H46831  -0.635   4.717   0.413 -0.5526 -1.5271 -1.9480
  355MOL0     H46832  -0.413   4.594   0.247 -1.1433 -2.4483 -2.5626
  355MOL0     H46833  -0.552   4.505   0.288  0.2505 -1.3049  0.1835
  355MOL0     H46834  -0.602   4.597   0.075 -0.5327  2.7259 -3.5440
  355MOL0     H46835  -0.512   4.742   0.113  0.9457  0.8893  3.5495
  355MOL0     H46836  -0.704   4.841   0.230  2.1603  1.5686 -4.2734
  355MOL0     H46837  -0.780   4.682   0.247  0.2138 -0.7090 -1.5523
  355MOL0     H46838  -0.718   4.806  -0.018 -0.3580  1.6851  0.8843
  355MOL0     H46839  -0.852   4.689   0.013 -1.4089 -0.9811  3.3025
  355MOL0     H46840  -0.849   4.981   0.046 -1.4070  0.9608  1.3137
  355MOL0     H46841  -0.916   4.895   0.190 -0.1322  0.5821 -0.3015
  355MOL0     H46842  -0.178   4.412   0.693 -0.6367  0.0230 -0.0761
  355MOL0     H46843   0.041   4.354   0.709 -2.1103  0.3575  0.3956
  355MOL0     H46844   0.409   4.316   0.716  1.4110  0.5268  1.7119
  355MOL0     H46845   0.589   4.162   0.682  0.0498 -1.4682 -3.4693
  355MOL0     H46846   2.317   4.695   1.154  0.2774 -0.3110 -0.7538
  355MOL0     H46847   2.556   4.776   1.168  3.0718 -1.2042  3.6405
  355MOL0     H46848   3.004   4.586   1.104 -0.4874  0.7431  1.6051
  355MOL0     H46849   3.240   4.627   1.084 -0.1872 -1.0565  1.0306
  355MOL0     H46850   3.404   5.022   1.143 -2.0695 -1.0660  0.7415
  355MOL0     H46851   3.367   5.066   0.983  0.8206 -0.9709 -1.3392
  355MOL0     H46852   3.614   4.911   1.080 -0.8931 -1.0906 -0.5090
  355MOL0     H46853   3.587   4.936   0.906  3.8681 -0.9016  0.9494
  355MOL0     H46854   3.646   5.144   1.116 -2.3745  0.6567  0.7578
  355MOL0     H46855   3.554   5.184   0.966  0.4404 -0.5769 -0.1621
  355MOL0     H46856   3.818   5.033   0.949  0.3055 -0.5023 -1.6626
  355MOL0     H46857   3.725   5.120   0.825  3.6355  0.9452 -0.1176
  355MOL0     H46858   3.930   5.423   1.040  0.9374 -0.6289 -1.1132
  355MOL0     H46859   3.172   5.044   0.994  3.9144 -0.8378  1.4738
  355MOL0     H46860   2.936   5.013   1.008  0.2993 -0.5062 -3.7265
  356MOL0     O46861   7.240   8.578  10.975 -0.0871 -0.0010 -0.1128
  356MOL0     C46862   7.288   8.600  10.864  0.1107  0.1742 -1.3629
  356MOL0     O46863   7.220   8.609  10.748 -0.0292 -0.5854  0.4489
  356MOL0     C46864   7.089   8.614  10.736  0.7445  0.5525  0.1636
  356MOL0     C46865   7.003   8.667  10.837 -0.4518 -0.0129  0.3033
  356MOL0     C46866   6.868   8.670  10.812 -0.4820 -0.8214  0.6470
  356MOL0     C46867   6.814   8.636  10.687 -1.0809 -0.1442  0.2391
  356MOL0     O46868   6.683   8.636  10.652  0.4234  0.4602 -0.5045
  356MOL0     C46869   6.579   8.673  10.755 -0.0634  0.1613  0.1487
  356MOL0     C46870   6.434   8.644  10.701  0.0391 -0.0385 -0.3329
  356MOL0     C46871   6.324   8.687  10.801  0.5538 -0.2936 -0.4471
  356MOL0     C46872   6.188   8.640  10.743  0.3204 -0.3365 -0.0211
  356MOL0     C46873   6.082   8.689  10.838  0.1083  0.6274 -0.5049
  356MOL0     C46874   5.954   8.613  10.805 -0.0382 -0.4929  0.4662
  356MOL0     C46875   5.821   8.674  10.854 -0.2398  0.0327 -0.1727
  356MOL0     C46876   5.704   8.577  10.828 -0.3641 -0.6739  0.0744
  356MOL0     N46877   5.587   8.626  10.909  0.0908 -0.7466 -0.7294
  356MOL0     C46878   5.561   8.630  11.045  0.2361 -0.2424 -0.1145
  356MOL0     C46879   5.433   8.659  11.064  0.6051 -0.4637  0.6055
  356MOL0     C46880   5.351   8.650  11.192 -0.8124  1.3298 -0.3845
  356MOL0     C46881   5.226   8.732  11.185 -0.4224  0.5977  0.0497
  356MOL0     C46882   5.163   8.715  11.323 -0.0001 -0.3495 -0.1510
  356MOL0     C46883   5.020   8.769  11.325  0.9410  0.9295 -0.3453
  356MOL0     O46884   4.969   8.781  11.458  0.5208 -0.1598 -0.0433
  356MOL0     C46885   4.840   8.809  11.498  0.4488 -0.1184 -0.3838
  356MOL0     C46886   4.732   8.791  11.414 -0.2562  0.8433  0.5693
  356MOL0     C46887   4.599   8.801  11.458 -0.3067  0.3047 -0.0124
  356MOL0     C46888   4.571   8.807  11.600  0.1362 -0.2257  0.1550
  356MOL0     C46889   4.435   8.801  11.645 -0.8405 -0.5285 -0.2054
  356MOL0     O46890   4.337   8.815  11.545  0.7765 -0.3448  0.5978
  356MOL0     C46891   4.204   8.826  11.586  0.5958  0.0819 -1.2029
  356MOL0     C46892   4.130   8.928  11.533 -0.3366 -0.4719 -0.0624
  356MOL0     C46893   3.996   8.943  11.564 -0.3857  0.1417 -0.6184
  356MOL0     C46894   3.927   8.845  11.646 -0.0139 -0.5083 -0.3199
  356MOL0     O46895   3.796   8.839  11.693 -0.0292  0.6800 -0.3266
  356MOL0     C46896   3.710   8.927  11.624 -0.2913  0.3331  1.0118
  356MOL0     C46897   3.570   8.868  11.619  0.3802  0.7560 -0.9581
  356MOL0     C46898   3.555   8.719  11.575 -0.3544 -0.2156 -0.0818
  356MOL0     C46899   3.414   8.693  11.523  0.7383 -0.1213 -0.5212
  356MOL0     C46900   3.401   8.567  11.441  0.4085 -0.0338  0.3700
  356MOL0     C46901   3.265   8.492  11.454  0.4670  0.6084  0.3576
  356MOL0     C46902   3.256   8.405  11.581 -1.1284 -0.0643 -0.0424
  356MOL0     C46903   3.179   8.273  11.559 -0.0225 -0.8981  0.2533
  356MOL0    Cl46904   3.024   8.292  11.483 -0.0640 -0.1972  0.3743
  356MOL0     C46905   3.996   8.734  11.694 -0.2411 -0.5268 -0.1168
  356MOL0     C46906   4.136   8.731  11.669 -0.1646  0.2193  0.3590
  356MOL0     O46907   4.421   8.788  11.770  0.7846 -0.1173  0.4850
  356MOL0     C46908   4.681   8.828  11.687 -0.5479  0.0526  0.4311
  356MOL0     C46909   4.810   8.838  11.630  0.0223 -0.1817 -1.0011
  356MOL0     N46910   5.375   8.687  10.937  0.4689  0.2092 -0.0967
  356MOL0     N46911   5.470   8.659  10.854 -0.1861  0.6191 -0.2275
  356MOL0     C46912   6.898   8.572  10.592  0.5152  0.1813 -0.9207
  356MOL0     C46913   7.033   8.560  10.619 -0.3173  0.5926 -0.7263
  356MOL0     C46914   7.440   8.620  10.873 -1.1319 -0.6561  0.7781
  356MOL0     C46915   7.511   8.619  10.992 -0.1187  0.3262  0.2425
  356MOL0     C46916   7.651   8.636  10.997 -0.4875 -0.3649  0.8318
  356MOL0     C46917   7.727   8.670  10.882  0.2166 -0.1716  0.1315
  356MOL0     O46918   7.853   8.707  10.880 -0.7344 -0.5001 -0.3551
  356MOL0     C46919   7.940   8.665  10.988  0.3412  0.0609  0.1060
  356MOL0     C46920   8.090   8.681  10.965 -0.3203 -0.2039  0.4262
  356MOL0     C46921   8.167   8.644  11.097  0.2121 -0.6897 -0.0256
  356MOL0     C46922   8.312   8.622  11.054  0.1655 -0.3800 -0.1057
  356MOL0     C46923   8.418   8.613  11.158 -0.2008  0.1785  0.1806
  356MOL0     C46924   8.494   8.594  11.247  0.4905  0.7489  0.6230
  356MOL0     C46925   7.657   8.667  10.759  0.0619  0.4669 -0.6511
  356MOL0     C46926   7.519   8.641  10.753 -0.6564  0.4789 -0.1332
  356MOL0     H46927   7.036   8.688  10.938 -0.9802 -1.5307  0.8240
  356MOL0     H46928   6.797   8.706  10.885 -0.1619  2.0018 -0.3012
  356MOL0     H46929   6.591   8.780  10.772  0.8504  0.3194 -1.3280
  356MOL0     H46930   6.597   8.612  10.845  0.9510 -1.5411 -1.1418
  356MOL0     H46931   6.422   8.539  10.672 -0.1326  0.8608 -4.0612
  356MOL0     H46932   6.426   8.702  10.608  1.0468 -1.8161 -1.5893
  356MOL0     H46933   6.321   8.796  10.803  0.9970 -0.2808 -0.2403
  356MOL0     H46934   6.345   8.648  10.902  0.2376 -0.6817 -0.5283
  356MOL0     H46935   6.186   8.686  10.644 -0.2237 -2.3134 -0.9876
  356MOL0     H46936   6.181   8.533  10.721 -0.4428 -0.5706  1.2324
  356MOL0     H46937   6.080   8.798  10.828  0.8495  0.8043  1.0421
  356MOL0     H46938   6.097   8.676  10.945  2.0212  0.6112 -0.7532
  356MOL0     H46939   5.962   8.513  10.848  0.9115 -1.2133 -1.2970
  356MOL0     H46940   5.946   8.606  10.696  1.9614  1.8343  0.0704
  356MOL0     H46941   5.830   8.686  10.962 -0.2470  1.5921 -0.3306
  356MOL0     H46942   5.797   8.771  10.810  0.2814  1.0006  1.5596
  356MOL0     H46943   5.741   8.478  10.855 -0.9152 -0.4809  1.6860
  356MOL0     H46944   5.677   8.584  10.723  2.9524 -1.0834 -0.9121
  356MOL0     H46945   5.626   8.594  11.124 -2.3749 -0.3859  2.1090
  356MOL0     H46946   5.418   8.684  11.272 -0.7636  0.7481 -0.1718
  356MOL0     H46947   5.313   8.551  11.217 -2.1734  2.1945  1.2020
  356MOL0     H46948   5.156   8.689  11.113 -0.4006 -1.5200  1.2296
  356MOL0     H46949   5.248   8.838  11.167  0.6471  0.8982  2.7593
  356MOL0     H46950   5.179   8.619  11.372  3.4958  0.7312  1.1967
  356MOL0     H46951   5.214   8.780  11.395 -1.0437 -1.2846  1.4931
  356MOL0     H46952   4.955   8.696  11.276  0.7094  0.9913 -0.1331
  356MOL0     H46953   5.001   8.858  11.264  0.7492  0.0709 -1.5724
  356MOL0     H46954   4.743   8.772  11.307  2.2653  2.5362  0.4443
  356MOL0     H46955   4.518   8.774  11.392 -1.1154  2.8185 -0.1446
  356MOL0     H46956   4.190   9.002  11.481 -2.6051  0.9632 -0.7803
  356MOL0     H46957   3.935   9.022  11.521 -0.2283  0.7583  0.2765
  356MOL0     H46958   3.744   8.959  11.525 -1.7915 -2.0366 -0.3679
  356MOL0     H46959   3.689   9.017  11.682  0.4190  0.5751  0.8962
  356MOL0     H46960   3.507   8.929  11.555 -1.6043 -0.3842 -0.1833
  356MOL0     H46961   3.527   8.878  11.720  0.7050  2.1037 -0.9364
  356MOL0     H46962   3.581   8.657  11.662 -1.0780 -3.6972 -2.1587
  356MOL0     H46963   3.620   8.705  11.489 -1.7361  0.6782 -1.3340
  356MOL0     H46964   3.356   8.673  11.613 -3.3613  1.4001 -2.5777
  356MOL0     H46965   3.374   8.781  11.473  1.9788  0.8121  0.0678
  356MOL0     H46966   3.481   8.496  11.466 -0.4001 -0.6919  1.1455
  356MOL0     H46967   3.421   8.597  11.338  2.9244 -1.1412  0.4411
  356MOL0     H46968   3.256   8.421  11.371  0.3265 -2.4442  2.7861
  356MOL0     H46969   3.178   8.556  11.443 -0.0219 -0.1665 -0.3826
  356MOL0     H46970   3.360   8.393  11.614 -0.8297  3.1123  0.4700
  356MOL0     H46971   3.215   8.465  11.663 -0.2019 -0.9554  1.1149
  356MOL0     H46972   3.168   8.218  11.653 -1.3547 -2.9608 -1.0192
  356MOL0     H46973   3.240   8.218  11.487  0.2424  1.6406 -1.5864
  356MOL0     H46974   3.945   8.662  11.757  0.2330 -1.1961 -0.4965
  356MOL0     H46975   4.192   8.648  11.711  1.1284 -0.8351 -3.1355
  356MOL0     H46976   4.657   8.842  11.792  1.1659 -0.7351  0.9637
  356MOL0     H46977   4.894   8.857  11.696  0.6508  0.2449 -1.9179
  356MOL0     H46978   6.848   8.510  10.519 -1.8735 -0.3888  1.0611
  356MOL0     H46979   7.105   8.508  10.557  0.6850 -3.2833  3.1700
  356MOL0     H46980   7.470   8.614  11.092  1.2567 -0.5199  0.7959
  356MOL0     H46981   7.700   8.649  11.093 -1.0824 -0.4360  1.1517
  356MOL0     H46982   7.928   8.560  11.016  0.8004  0.3295  1.3732
  356MOL0     H46983   7.921   8.723  11.078  1.1841 -0.2360  0.4854
  356MOL0     H46984   8.116   8.624  10.876  1.5776  0.3955  0.5594
  356MOL0     H46985   8.105   8.789  10.954  1.2504 -0.2328  1.9451
  356MOL0     H46986   8.142   8.548  11.143  0.6857  0.1589  2.0811
  356MOL0     H46987   8.156   8.728  11.166  0.1143  2.4871 -3.6007
  356MOL0     H46988   8.329   8.547  10.976  0.6664  1.0924 -1.4522
  356MOL0     H46989   8.343   8.710  10.998  0.5009 -1.1206 -1.1141
  356MOL0     H46990   8.560   8.568  11.327  1.2576  0.8489  0.0395
  356MOL0     H46991   7.706   8.680  10.663  4.1044  0.7615  1.2761
  356MOL0     H46992   7.472   8.636  10.655  1.0149  1.3544 -1.0205
  357MOL0     O46993   9.493   4.741   9.198  0.4196  0.3603  0.9515
  357MOL0     C46994   9.504   4.616   9.194  0.2367  0.0716  0.0488
  357MOL0     O46995   9.403   4.528   9.226  0.1433  0.7601  1.0553
  357MOL0     C46996   9.279   4.576   9.270 -0.0799 -0.3187 -0.1454
  357MOL0     C46997   9.178   4.594   9.171 -0.3302 -0.5833 -0.3107
  357MOL0     C46998   9.048   4.614   9.215 -0.3062 -0.3748 -0.1068
  357MOL0     C46999   9.016   4.648   9.345  0.0891  0.5833  0.2035
  357MOL0     O47000   8.885   4.653   9.369  0.3948  0.3232 -0.0081
  357MOL0     C47001   8.852   4.749   9.470  0.0272  0.7195 -0.0101
  357MOL0     C47002   8.704   4.726   9.512  0.0335  0.4328  0.2451
  357MOL0     C47003   8.679   4.583   9.562 -0.6638 -0.2519 -0.9773
  357MOL0     C47004   8.535   4.558   9.531 -0.8206  0.0163  0.2148
  357MOL0     C47005   8.472   4.425   9.590  0.4262 -0.6028 -0.3802
  357MOL0     C47006   8.474   4.428   9.743  0.2216 -0.5045  0.1308
  357MOL0     C47007   8.335   4.371   9.787  0.4775  0.2523 -0.8123
  357MOL0     C47008   8.289   4.425   9.920 -0.2303  0.0153  0.4419
  357MOL0     N47009   8.157   4.363   9.963  0.8889 -0.2525 -0.1694
  357MOL0     C47010   8.086   4.390  10.079  0.5919  0.3671 -1.0141
  357MOL0     C47011   7.966   4.334  10.064 -0.3224 -0.3032  0.0157
  357MOL0     C47012   7.841   4.320  10.154 -0.0642  0.4639 -0.4647
  357MOL0     C47013   7.859   4.281  10.300 -0.7482  0.3623 -0.0520
  357MOL0     C47014   7.730   4.296  10.381 -0.0660  0.3360 -0.1581
  357MOL0     C47015   7.723   4.195  10.497 -0.6366 -0.1322  0.4694
  357MOL0     O47016   7.714   4.058  10.466  0.1961 -0.7393 -0.3580
  357MOL0     C47017   7.592   3.991  10.437 -0.1088  0.6776 -0.5101
  357MOL0     C47018   7.608   3.867  10.373 -0.5063 -0.1229 -0.9779
  357MOL0     C47019   7.497   3.789  10.339 -0.0679  0.0103  0.0880
  357MOL0     C47020   7.370   3.831  10.381 -0.3390 -1.0557 -0.8637
  357MOL0     C47021   7.251   3.744  10.370 -0.0429  0.1419  0.1721
  357MOL0     O47022   7.144   3.771  10.451  0.7894  0.3202  0.5647
  357MOL0     C47023   7.042   3.675  10.462 -0.6238 -0.1235  0.4881
  357MOL0     C47024   6.924   3.690  10.398  1.2877 -0.3623 -0.2780
  357MOL0     C47025   6.836   3.583  10.392 -0.7270 -0.2039 -0.1403
  357MOL0     C47026   6.846   3.477  10.481  0.1259 -0.0149 -0.0965
  357MOL0     O47027   6.753   3.369  10.474  0.0211 -0.2267  0.4352
  357MOL0     C47028   6.628   3.394  10.406  0.0086  0.0750  0.0379
  357MOL0     C47029   6.547   3.269  10.433  0.7745  0.2547  0.2157
  357MOL0     C47030   6.409   3.282  10.370 -1.3519 -0.1931  0.8310
  357MOL0     C47031   6.325   3.158  10.407 -0.9035  0.3874 -0.3729
  357MOL0     C47032   6.191   3.176  10.340 -0.5603 -0.5553 -1.1510
  357MOL0     C47033   6.089   3.061  10.352 -0.4159 -0.3317 -0.1811
  357MOL0     C47034   5.978   3.075  10.253  0.4749  0.3631  0.7896
  357MOL0     C47035   5.885   3.198  10.275 -0.3611 -0.1138  0.4183
  357MOL0    Cl47036   5.740   3.193  10.166  0.3013 -0.0948 -0.3034
  357MOL0     C47037   6.969   3.460  10.555  0.0440 -0.5664  0.0878
  357MOL0     C47038   7.062   3.567  10.543  0.9655 -1.1572 -0.1655
  357MOL0     O47039   7.261   3.643  10.304  0.1354  0.4065 -0.1083
  357MOL0     C47040   7.352   3.962  10.441 -0.2969  0.0302  0.4247
  357MOL0     C47041   7.463   4.040  10.459 -0.1423  0.2161 -0.6401
  357MOL0     N47042   7.966   4.269   9.942  0.4937 -0.2951 -0.5650
  357MOL0     N47043   8.076   4.278   9.888  0.8476 -0.2043 -0.0923
  357MOL0     C47044   9.122   4.637   9.449 -0.0119 -0.6978 -0.7055
  357MOL0     C47045   9.251   4.593   9.408 -0.0333 -1.1231 -0.2184
  357MOL0     C47046   9.635   4.569   9.169 -0.0455  0.4455  0.0466
  357MOL0     C47047   9.659   4.426   9.166  0.1120  0.2852 -0.3344
  357MOL0     C47048   9.788   4.371   9.161 -1.1085 -0.5404 -0.3426
  357MOL0     C47049   9.899   4.461   9.170  1.3323 -1.0153 -0.7306
  357MOL0     O47050  10.027   4.419   9.178  0.5245 -0.0234 -0.4154
  357MOL0     C47051  10.057   4.281   9.161 -0.9753  0.1704  0.8676
  357MOL0     C47052  10.214   4.263   9.173 -0.0286 -0.0885 -0.7050
  357MOL0     C47053  10.248   4.307   9.314  0.3397 -0.6967 -0.1610
  357MOL0     C47054  10.379   4.269   9.366 -0.0460  0.0044 -0.1124
  357MOL0     C47055  10.475   4.336   9.289 -1.2485 -0.6119 -0.6967
  357MOL0     C47056  10.565   4.403   9.241 -0.3067  0.7049  1.3022
  357MOL0     C47057   9.874   4.603   9.164 -0.2360  0.4516  0.4465
  357MOL0     C47058   9.743   4.661   9.156 -0.5198 -0.0931 -0.3619
  357MOL0     H47059   9.205   4.584   9.067 -1.5309  0.4241 -0.7526
  357MOL0     H47060   8.972   4.625   9.139  0.8833 -0.4352 -1.3499
  357MOL0     H47061   8.848   4.850   9.429 -1.2747  0.2755 -1.0444
  357MOL0     H47062   8.917   4.743   9.558 -1.4524  1.2501  1.1793
  357MOL0     H47063   8.632   4.746   9.432 -0.8950  1.2909  1.2606
  357MOL0     H47064   8.692   4.801   9.590  1.9794 -0.8786  1.8997
  357MOL0     H47065   8.695   4.585   9.670  1.2423 -0.8177 -1.2175
  357MOL0     H47066   8.745   4.508   9.518  0.6932  0.5863 -0.4310
  357MOL0     H47067   8.477   4.644   9.564  1.2267  1.6064 -0.0798
  357MOL0     H47068   8.521   4.545   9.424  0.7047 -1.0582  0.1108
  357MOL0     H47069   8.522   4.337   9.550 -0.7095  0.4452 -4.7809
  357MOL0     H47070   8.369   4.418   9.552  0.0448 -0.6703  0.6559
  357MOL0     H47071   8.487   4.528   9.786 -0.4266 -0.8666  1.2306
  357MOL0     H47072   8.563   4.374   9.776  0.9668 -1.0207 -2.4982
  357MOL0     H47073   8.256   4.401   9.718  1.4150  0.8939 -1.6316
  357MOL0     H47074   8.338   4.261   9.791 -1.3737  0.1950  0.9047
  357MOL0     H47075   8.272   4.532   9.906 -2.3841 -0.1436  1.3481
  357MOL0     H47076   8.368   4.419   9.996  1.6259 -2.7785 -1.5176
  357MOL0     H47077   8.119   4.462  10.153 -0.8541  0.7163 -0.6804
  357MOL0     H47078   7.775   4.241  10.116  1.3769 -0.2261 -1.6131
  357MOL0     H47079   7.788   4.416  10.144  3.2272  2.2900 -1.9897
  357MOL0     H47080   7.934   4.343  10.350 -2.8170  1.4210  1.9350
  357MOL0     H47081   7.892   4.177  10.303  1.8733  1.0979 -0.2584
  357MOL0     H47082   7.726   4.399  10.418  1.0010 -0.3242  1.9569
  357MOL0     H47083   7.635   4.286  10.327 -0.2689  0.9336  0.0805
  357MOL0     H47084   7.643   4.229  10.563 -2.8686  0.8729 -2.5178
  357MOL0     H47085   7.821   4.197  10.545 -0.8938 -0.0566  0.9989
  357MOL0     H47086   7.709   3.829  10.359  0.1486  1.1057  0.2057
  357MOL0     H47087   7.508   3.688  10.301  0.3612  0.4722 -1.0578
  357MOL0     H47088   6.910   3.778  10.336  1.2026  1.1319  1.7782
  357MOL0     H47089   6.746   3.600  10.334  0.0482  0.7784 -1.1035
  357MOL0     H47090   6.629   3.400  10.296  0.5026  1.4493  0.0974
  357MOL0     H47091   6.580   3.486  10.438 -0.6225 -0.0305 -0.5787
  357MOL0     H47092   6.547   3.261  10.542  0.6471  0.4358  0.2292
  357MOL0     H47093   6.600   3.181  10.394  1.8641  0.7947  0.4485
  357MOL0     H47094   6.405   3.291  10.261  0.8065 -1.1567  0.6083
  357MOL0     H47095   6.367   3.373  10.412  2.8969  1.0695  2.9524
  357MOL0     H47096   6.376   3.073  10.361 -1.4837  0.1331 -0.5432
  357MOL0     H47097   6.328   3.153  10.516  3.1376  0.9536 -0.3041
  357MOL0     H47098   6.191   3.200  10.234 -0.9206  0.9612 -0.8304
  357MOL0     H47099   6.150   3.262  10.393 -0.1544 -1.2689  0.3947
  357MOL0     H47100   6.065   3.045  10.458  0.1692 -2.3740 -0.3067
  357MOL0     H47101   6.145   2.970  10.326  1.4298  0.7107 -0.0731
  357MOL0     H47102   6.011   3.084  10.149 -0.5842  5.3400  0.6754
  357MOL0     H47103   5.919   2.984  10.270  1.0433  0.0641  1.2042
  357MOL0     H47104   5.934   3.295  10.267  1.0964 -0.8206  0.4922
  357MOL0     H47105   5.863   3.192  10.382 -0.1964  2.1246  0.6271
  357MOL0     H47106   6.981   3.369  10.613 -0.9066 -0.3634  0.6300
  357MOL0     H47107   7.160   3.554  10.587  0.3951  3.1762  2.9614
  357MOL0     H47108   7.255   4.002  10.468 -1.5225 -1.3455 -1.7092
  357MOL0     H47109   7.449   4.139  10.501  2.2740  1.3432 -2.2744
  357MOL0     H47110   9.115   4.664   9.554  1.4068 -0.8013 -0.5649
  357MOL0     H47111   9.332   4.587   9.479  0.3147 -0.0124 -0.5147
  357MOL0     H47112   9.575   4.360   9.184  1.0796 -1.7693 -2.6939
  357MOL0     H47113   9.789   4.263   9.158 -2.2613 -0.6196  1.1103
  357MOL0     H47114  10.031   4.240   9.063  0.8243 -2.6408  1.4441
  357MOL0     H47115  10.010   4.218   9.236 -3.0429  1.0768  0.3828
  357MOL0     H47116  10.244   4.163   9.142  0.8373 -0.1758  0.3514
  357MOL0     H47117  10.268   4.317   9.095  0.1068 -1.8945 -1.9080
  357MOL0     H47118  10.176   4.267   9.386 -0.0632 -2.9034 -1.6798
  357MOL0     H47119  10.248   4.417   9.315 -3.7724 -0.5262 -0.1910
  357MOL0     H47120  10.376   4.284   9.474 -3.0738 -2.2818  0.2626
  357MOL0     H47121  10.391   4.160   9.364  1.6578  0.1587  0.0515
  357MOL0     H47122  10.629   4.475   9.195 -1.0135 -0.6605 -2.1234
  357MOL0     H47123   9.957   4.673   9.155  2.5602 -2.2748  2.7822
  357MOL0     H47124   9.733   4.769   9.147  0.8913 -0.0288 -1.2909
  358MOL0     O47125   5.542   4.080   1.961 -0.4343  0.4435 -0.7899
  358MOL0     C47126   5.636   4.010   1.926 -0.0555  0.2663 -0.1918
  358MOL0     O47127   5.623   3.881   1.895 -1.0661  0.2052 -0.1963
  358MOL0     C47128   5.500   3.818   1.902  0.4083 -0.1341 -0.2317
  358MOL0     C47129   5.496   3.682   1.940 -0.6677 -0.0796  0.3934
  358MOL0     C47130   5.379   3.602   1.933  0.1638 -0.4566  0.1959
  358MOL0     C47131   5.263   3.670   1.897  0.2627 -0.4350  0.5781
  358MOL0     O47132   5.144   3.605   1.884 -0.6744 -0.2675  0.2482
  358MOL0     C47133   5.098   3.520   1.993 -0.6281 -0.6986 -0.2217
  358MOL0     C47134   4.944   3.504   1.981 -0.0318 -0.4581 -0.4616
  358MOL0     C47135   4.875   3.457   2.106 -0.3379  0.8613 -0.5206
  358MOL0     C47136   4.724   3.426   2.084 -0.5489  0.3395  0.3642
  358MOL0     C47137   4.645   3.391   2.216 -0.1503 -0.3756 -0.6903
  358MOL0     C47138   4.491   3.396   2.212 -0.2974 -0.3575  0.2009
  358MOL0     C47139   4.420   3.319   2.322 -0.5483 -0.1590  0.1107
  358MOL0     C47140   4.273   3.338   2.325 -0.9808  0.6914  0.6464
  358MOL0     N47141   4.200   3.282   2.205 -0.6645  0.6608 -0.4462
  358MOL0     C47142   4.183   3.342   2.077 -0.3635 -0.3818  0.6705
  358MOL0     C47143   4.090   3.255   2.014 -0.0848 -0.5982 -0.6150
  358MOL0     C47144   4.046   3.257   1.881 -0.2456 -0.1269  0.1516
  358MOL0     C47145   4.008   3.401   1.841  0.5739 -0.2806 -0.3461
  358MOL0     C47146   3.870   3.449   1.892  0.0861 -0.2002 -0.5655
  358MOL0     C47147   3.829   3.587   1.847 -0.5230  0.1584 -0.6168
  358MOL0     O47148   3.695   3.611   1.898  0.7301  0.4104 -0.4277
  358MOL0     C47149   3.584   3.624   1.824  0.4206 -0.0230  0.1516
  358MOL0     C47150   3.479   3.686   1.888  0.5533  0.8894 -0.0826
  358MOL0     C47151   3.357   3.708   1.826  0.5758 -0.7049  0.1855
  358MOL0     C47152   3.334   3.675   1.688  0.1041  0.0484 -0.3468
  358MOL0     C47153   3.216   3.721   1.615  0.7691  0.3069 -0.3801
  358MOL0     O47154   3.201   3.662   1.488  0.2655  0.2874  0.3530
  358MOL0     C47155   3.076   3.675   1.440 -0.6061  0.5083 -0.6205
  358MOL0     C47156   3.022   3.796   1.404 -0.6036  0.1414 -0.3011
  358MOL0     C47157   2.895   3.808   1.342  0.4144  0.0341  0.2551
  358MOL0     C47158   2.809   3.696   1.335 -0.2018 -0.7202  1.1569
  358MOL0     O47159   2.683   3.721   1.283 -0.4139 -0.5504 -0.2676
  358MOL0     C47160   2.584   3.615   1.325  0.0881 -0.2654  0.5029
  358MOL0     C47161   2.436   3.661   1.309 -0.7230 -1.2102 -0.1487
  358MOL0     C47162   2.350   3.549   1.380  0.1534  0.4949 -1.0479
  358MOL0     C47163   2.207   3.577   1.353  0.4424  0.4003 -0.4011
  358MOL0     C47164   2.117   3.470   1.414 -0.3625 -0.3393  0.0972
  358MOL0     C47165   2.078   3.489   1.562 -0.7081  0.9734 -0.6584
  358MOL0     C47166   1.958   3.578   1.591 -0.6152 -0.5997  0.0148
  358MOL0     C47167   1.920   3.580   1.748  0.3453  0.2644  0.1302
  358MOL0    Cl47168   1.919   3.415   1.829 -0.1833 -0.2835  0.1790
  358MOL0     C47169   2.867   3.570   1.375 -0.2988 -0.3754 -0.3965
  358MOL0     C47170   2.998   3.557   1.433 -0.0998 -0.5521 -0.6544
  358MOL0     O47171   3.136   3.794   1.671 -0.1107  0.0236 -0.0622
  358MOL0     C47172   3.443   3.608   1.622  0.3457  0.2418 -0.3598
  358MOL0     C47173   3.563   3.590   1.684 -0.2432  0.7154 -0.5490
  358MOL0     N47174   4.044   3.165   2.117 -0.2592 -0.6178  0.1308
  358MOL0     N47175   4.113   3.181   2.228  0.1175 -0.1391  0.0334
  358MOL0     C47176   5.262   3.806   1.860 -0.0002  1.1577 -0.5341
  358MOL0     C47177   5.374   3.876   1.865 -1.0461 -0.0303  0.3827
  358MOL0     C47178   5.766   4.068   1.906 -0.3366  0.0836  0.5448
  358MOL0     C47179   5.871   3.987   1.859  0.0274 -0.5325 -1.3695
  358MOL0     C47180   5.996   4.049   1.822 -0.0110 -0.4747 -0.0603
  358MOL0     C47181   6.017   4.187   1.831 -0.6430  0.3743 -0.9814
  358MOL0     O47182   6.136   4.248   1.798 -0.0364  0.3986  0.1005
  358MOL0     C47183   6.253   4.166   1.770  0.2979  0.1296  1.0083
  358MOL0     C47184   6.366   4.264   1.748 -1.3382  0.3027 -0.3641
  358MOL0     C47185   6.486   4.206   1.674 -0.3907  0.6946  0.0078
  358MOL0     C47186   6.552   4.301   1.574 -0.1719  0.2800 -1.0410
  358MOL0     C47187   6.687   4.268   1.538 -0.2627  0.2250  0.0668
  358MOL0     C47188   6.798   4.224   1.514 -0.8285  0.9790  0.4236
  358MOL0     C47189   5.912   4.254   1.880  0.3493  0.0434  0.5289
  358MOL0     C47190   5.792   4.202   1.931 -0.5285  0.8111  0.4440
  358MOL0     H47191   5.593   3.639   1.965 -0.6184 -0.4064 -0.3267
  358MOL0     H47192   5.381   3.496   1.954  0.2334 -0.5079 -0.0652
  358MOL0     H47193   5.124   3.574   2.084 -0.6790  0.6650 -0.9955
  358MOL0     H47194   5.156   3.427   1.999  0.7408  0.2293  1.7881
  358MOL0     H47195   4.932   3.423   1.908 -1.6888 -0.2696 -0.4391
  358MOL0     H47196   4.892   3.592   1.942 -1.2276 -0.8162  0.2944
  358MOL0     H47197   4.891   3.529   2.187 -1.3225  0.0065  0.4617
  358MOL0     H47198   4.934   3.368   2.131 -0.2414  1.5026  1.7333
  358MOL0     H47199   4.671   3.515   2.047 -4.2862 -1.8120  0.0902
  358MOL0     H47200   4.715   3.346   2.011 -1.0035 -0.3788  1.1904
  358MOL0     H47201   4.682   3.453   2.299  1.6476 -0.6813 -1.2323
  358MOL0     H47202   4.660   3.289   2.253 -0.9452  0.3169  1.7316
  358MOL0     H47203   4.469   3.358   2.112  2.2560  2.8645 -1.8171
  358MOL0     H47204   4.455   3.499   2.202 -0.6665 -0.5545 -0.5831
  358MOL0     H47205   4.446   3.213   2.318 -1.4481 -0.4043  0.6325
  358MOL0     H47206   4.460   3.368   2.412 -0.1831  3.0251 -1.6626
  358MOL0     H47207   4.242   3.442   2.331  0.2027  1.1200 -0.2709
  358MOL0     H47208   4.244   3.288   2.418 -0.1612 -3.3737 -1.0383
  358MOL0     H47209   4.225   3.432   2.034  0.3939 -1.6634 -1.4076
  358MOL0     H47210   3.968   3.183   1.860 -2.4189  2.3478 -0.9798
  358MOL0     H47211   4.137   3.228   1.827  1.5287  0.7603  2.4596
  358MOL0     H47212   4.017   3.396   1.732  3.1734 -2.0939 -0.1600
  358MOL0     H47213   4.092   3.464   1.871  1.3722 -1.5981  0.2916
  358MOL0     H47214   3.794   3.376   1.861 -1.1398 -0.0892  1.9170
  358MOL0     H47215   3.873   3.439   2.001  1.9146 -3.0258 -0.7696
  358MOL0     H47216   3.830   3.612   1.741 -0.0122  2.2976 -0.1518
  358MOL0     H47217   3.896   3.657   1.896 -1.7032  0.6074  0.4354
  358MOL0     H47218   3.478   3.714   1.993 -1.9680 -0.5526  0.3685
  358MOL0     H47219   3.280   3.767   1.876 -0.9577 -2.5101  0.0741
  358MOL0     H47220   3.089   3.882   1.409  0.7261 -0.8311 -0.8113
  358MOL0     H47221   2.876   3.910   1.314  0.2259  1.0987  3.7628
  358MOL0     H47222   2.602   3.580   1.427 -4.7610 -2.2186  0.9672
  358MOL0     H47223   2.613   3.535   1.255  0.0589  0.1559  0.0034
  358MOL0     H47224   2.414   3.681   1.204  0.4664  0.3418 -0.1306
  358MOL0     H47225   2.422   3.761   1.350  1.0528  0.2126 -2.7483
  358MOL0     H47226   2.369   3.551   1.487 -1.3250  0.2369 -0.7484
  358MOL0     H47227   2.387   3.450   1.350  2.1296  1.0133 -0.4449
  358MOL0     H47228   2.182   3.675   1.395 -0.7553  0.3703 -1.0270
  358MOL0     H47229   2.206   3.580   1.244  2.6218 -0.0314 -0.4797
  358MOL0     H47230   2.173   3.376   1.415 -0.4067 -0.3620  0.6525
  358MOL0     H47231   2.021   3.459   1.362  0.2423 -2.4209 -0.6873
  358MOL0     H47232   2.159   3.525   1.627 -1.1081  0.6557  0.0241
  358MOL0     H47233   2.055   3.390   1.602  1.2704  0.4146 -0.7880
  358MOL0     H47234   1.983   3.675   1.549  2.3392 -2.4398 -2.9543
  358MOL0     H47235   1.876   3.522   1.543  1.5851 -0.6076 -4.1504
  358MOL0     H47236   1.827   3.636   1.762  1.2898  1.6886  1.0407
  358MOL0     H47237   1.998   3.640   1.796 -0.8580  2.4291 -0.4564
  358MOL0     H47238   2.812   3.476   1.365 -1.5642 -0.0214  2.2337
  358MOL0     H47239   3.028   3.469   1.489 -2.1719 -0.3887  0.8497
  358MOL0     H47240   3.425   3.571   1.522  1.8916 -1.3632 -0.0933
  358MOL0     H47241   3.639   3.538   1.626 -0.9779 -0.9580 -0.0835
  358MOL0     H47242   5.169   3.857   1.835 -0.5990  2.4091  3.5011
  358MOL0     H47243   5.363   3.982   1.844 -1.8020 -0.3387 -0.8952
  358MOL0     H47244   5.869   3.881   1.838  4.2766 -0.5054 -2.9486
  358MOL0     H47245   6.077   3.988   1.784  1.5019  1.4177 -0.0603
  358MOL0     H47246   6.232   4.117   1.675  1.2958 -0.0257  0.8549
  358MOL0     H47247   6.277   4.092   1.847  0.0091 -2.0854 -0.9298
  358MOL0     H47248   6.339   4.351   1.687  1.8747  1.0428 -0.8853
  358MOL0     H47249   6.393   4.294   1.850 -0.4273 -1.3851 -0.0726
  358MOL0     H47250   6.465   4.112   1.622  1.4868  0.5617 -0.6131
  358MOL0     H47251   6.561   4.189   1.753  0.5226  0.5998 -0.8612
  358MOL0     H47252   6.489   4.300   1.484  0.7470 -1.2776 -1.7038
  358MOL0     H47253   6.548   4.402   1.615  0.7984 -0.5174  1.1432
  358MOL0     H47254   6.899   4.198   1.488 -1.6973 -4.0938  1.1302
  358MOL0     H47255   5.929   4.361   1.893  1.1894  0.2148 -1.5339
  358MOL0     H47256   5.725   4.269   1.983 -1.4195  0.7851 -0.6283
  359MOL0     O47257   0.768   5.288   9.822 -0.0366 -0.0392  0.9187
  359MOL0     C47258   0.834   5.395   9.835  0.9942  0.1256 -0.2086
  359MOL0     O47259   0.785   5.525   9.820 -0.1163  0.2048 -0.0927
  359MOL0     C47260   0.667   5.553   9.751 -0.3482 -0.2211  0.0927
  359MOL0     C47261   0.666   5.553   9.606  0.0560 -0.0427 -0.5605
  359MOL0     C47262   0.547   5.586   9.536  0.2388  0.1742 -0.0970
  359MOL0     C47263   0.427   5.617   9.605 -0.6236 -0.3017 -0.0577
  359MOL0     O47264   0.307   5.656   9.552 -0.1177 -0.3963 -0.1244
  359MOL0     C47265   0.301   5.644   9.410  0.3962 -0.4199 -0.1909
  359MOL0     C47266   0.153   5.639   9.364 -0.4076 -0.8362 -0.0139
  359MOL0     C47267   0.087   5.510   9.418 -0.2522 -0.2018  0.6919
  359MOL0     C47268  -0.038   5.468   9.362  0.0819 -0.1942  0.5410
  359MOL0     C47269  -0.030   5.440   9.208 -0.2785  0.4349  0.7172
  359MOL0     C47270   0.071   5.331   9.165 -0.2577 -0.4453 -0.2616
  359MOL0     C47271   0.079   5.286   9.019  0.3326  0.5057  0.1868
  359MOL0     C47272  -0.052   5.307   8.949 -0.0755 -0.7189 -0.3038
  359MOL0     N47273  -0.050   5.241   8.815  0.0225 -0.6242 -0.5746
  359MOL0     C47274  -0.043   5.304   8.695  1.1260 -0.5935  0.2759
  359MOL0     C47275  -0.061   5.204   8.602  0.5940 -0.2344 -0.3536
  359MOL0     C47276  -0.075   5.215   8.456 -0.3733 -0.3575 -0.9982
  359MOL0     C47277  -0.222   5.252   8.419 -0.8792  0.2935 -0.0559
  359MOL0     C47278  -0.269   5.202   8.276  0.2851  0.7706 -0.3168
  359MOL0     C47279  -0.411   5.241   8.251  0.5350  1.0168 -0.1052
  359MOL0     O47280  -0.512   5.169   8.331 -0.0653  0.2925  0.2361
  359MOL0     C47281  -0.639   5.204   8.308  0.6664  0.2136 -0.2109
  359MOL0     C47282  -0.718   5.194   8.190 -0.6530 -0.0971  0.1742
  359MOL0     C47283  -0.846   5.249   8.180 -0.0190  1.2340 -0.2877
  359MOL0     C47284  -0.903   5.322   8.287  0.2398 -0.2553  0.2676
  359MOL0     C47285  -1.020   5.403   8.261 -0.3924 -0.8297  0.3181
  359MOL0     O47286  -1.057   5.505   8.341  0.1206  0.5300 -0.2615
  359MOL0     C47287  -1.162   5.597   8.328 -0.1107 -0.8153  0.2791
  359MOL0     C47288  -1.175   5.675   8.442 -0.4908  0.4090  0.7796
  359MOL0     C47289  -1.278   5.762   8.459 -0.0106 -0.3726 -0.2513
  359MOL0     C47290  -1.376   5.779   8.364  0.1579 -0.3186  0.5719
  359MOL0     O47291  -1.481   5.871   8.359 -0.0360  0.5764  0.1261
  359MOL0     C47292  -1.529   5.908   8.490 -0.3029  0.4496 -0.4175
  359MOL0     C47293  -1.648   5.991   8.472  0.0355  0.8235  0.1513
  359MOL0     C47294  -1.612   6.139   8.436  0.4093  0.3483 -0.0223
  359MOL0     C47295  -1.577   6.162   8.284 -0.3083  0.3685  0.4216
  359MOL0     C47296  -1.536   6.302   8.258 -0.3717 -0.3842  0.5534
  359MOL0     C47297  -1.391   6.333   8.299  0.2081  0.8601  0.2302
  359MOL0     C47298  -1.329   6.461   8.234  0.4609  0.8451  0.4349
  359MOL0     C47299  -1.294   6.552   8.351 -0.0891  0.2489  0.3027
  359MOL0    Cl47300  -1.211   6.703   8.292 -0.1696  0.3097  0.1021
  359MOL0     C47301  -1.358   5.716   8.239 -1.1299  0.3285  0.3397
  359MOL0     C47302  -1.251   5.626   8.217  0.1194  0.3717  0.3517
  359MOL0     O47303  -1.085   5.378   8.159 -0.0477  0.3842  0.2215
  359MOL0     C47304  -0.828   5.336   8.405 -0.4085  0.8680  0.4340
  359MOL0     C47305  -0.698   5.281   8.419  0.2028  0.1696  0.6727
  359MOL0     N47306  -0.083   5.091   8.666 -0.4818 -0.5486 -0.7875
  359MOL0     N47307  -0.082   5.107   8.795 -0.0808 -0.6474  0.8274
  359MOL0     C47308   0.437   5.613   9.744 -0.1918 -0.1510 -0.1895
  359MOL0     C47309   0.547   5.579   9.816  0.4769  0.2075  0.2535
  359MOL0     C47310   0.978   5.383   9.870 -0.1949 -0.0444  0.4061
  359MOL0     C47311   1.043   5.499   9.920 -0.7612 -0.2562 -0.1445
  359MOL0     C47312   1.185   5.493   9.942  0.1675 -0.4333 -0.8778
  359MOL0     C47313   1.254   5.375   9.915 -0.2262  0.4109 -0.0558
  359MOL0     O47314   1.384   5.338   9.939  0.2428  0.1406  0.3884
  359MOL0     C47315   1.469   5.425  10.021  0.8528 -0.4319 -0.1289
  359MOL0     C47316   1.537   5.532   9.942 -1.2039  0.2720  0.3690
  359MOL0     C47317   1.621   5.463   9.833 -0.5829  0.5110 -0.0117
  359MOL0     C47318   1.745   5.542   9.771  0.4537  0.3387 -0.1607
  359MOL0     C47319   1.862   5.520   9.857 -0.4371  0.2279 -0.0732
  359MOL0     C47320   1.962   5.496   9.922 -0.7617 -0.3638  0.2724
  359MOL0     C47321   1.188   5.264   9.863  0.3681  0.0516 -0.0466
  359MOL0     C47322   1.047   5.269   9.845  0.6230  0.4102  0.6244
  359MOL0     H47323   0.757   5.537   9.549 -0.2461 -1.8932 -0.5661
  359MOL0     H47324   0.570   5.583   9.430  5.7044 -0.1945  0.8389
  359MOL0     H47325   0.345   5.554   9.366 -0.7589 -0.7110 -0.7986
  359MOL0     H47326   0.354   5.721   9.353  0.5407 -1.3396 -1.3413
  359MOL0     H47327   0.157   5.641   9.255  2.7323 -1.5789 -0.0213
  359MOL0     H47328   0.097   5.721   9.410  0.5350  0.2043 -0.6885
  359MOL0     H47329   0.067   5.521   9.525  2.5013  2.7206  1.0793
  359MOL0     H47330   0.143   5.416   9.422 -1.9474 -1.3520 -0.8572
  359MOL0     H47331  -0.096   5.388   9.409 -2.0037  0.7938 -0.2340
  359MOL0     H47332  -0.102   5.556   9.376 -0.3848 -0.3265 -0.6921
  359MOL0     H47333  -0.012   5.535   9.156 -0.2663 -0.1054 -0.2805
  359MOL0     H47334  -0.130   5.411   9.173  0.5051  2.1672 -3.6083
  359MOL0     H47335   0.048   5.242   9.226  1.6973 -0.6022  0.3227
  359MOL0     H47336   0.170   5.366   9.198 -0.7938  0.8721 -0.0133
  359MOL0     H47337   0.164   5.339   8.974  1.9812 -1.3686  0.9714
  359MOL0     H47338   0.106   5.181   9.015 -1.8551 -0.2316  2.4433
  359MOL0     H47339  -0.063   5.415   8.945  0.1493 -0.6132  1.2233
  359MOL0     H47340  -0.143   5.267   8.995 -1.3572  0.8501 -1.3891
  359MOL0     H47341  -0.026   5.409   8.674  1.7555 -0.2185  2.4115
  359MOL0     H47342  -0.048   5.119   8.409  1.7067  0.2966 -1.2267
  359MOL0     H47343  -0.008   5.294   8.423 -1.5700  0.3745 -1.7797
  359MOL0     H47344  -0.217   5.361   8.420 -0.5725  0.2827 -0.1702
  359MOL0     H47345  -0.294   5.223   8.496 -0.7154 -2.0704 -0.7173
  359MOL0     H47346  -0.202   5.248   8.202  2.4486 -1.0501  0.3974
  359MOL0     H47347  -0.256   5.094   8.270  2.1240  0.7855  1.9738
  359MOL0     H47348  -0.430   5.222   8.145 -1.8654 -0.0440  0.4291
  359MOL0     H47349  -0.408   5.348   8.273  1.1858  1.2812 -1.3608
  359MOL0     H47350  -0.667   5.141   8.110 -1.1839 -0.4452  0.0609
  359MOL0     H47351  -0.898   5.229   8.086 -2.3938 -1.2956  1.4257
  359MOL0     H47352  -1.109   5.658   8.526  0.7285  0.3242 -0.1815
  359MOL0     H47353  -1.292   5.813   8.554 -2.8974 -1.6655  0.1151
  359MOL0     H47354  -1.456   5.963   8.549  0.1854  3.0501 -3.1652
  359MOL0     H47355  -1.557   5.815   8.540  0.9845  0.3233  0.1135
  359MOL0     H47356  -1.711   5.989   8.562 -0.2322  0.0078 -0.0500
  359MOL0     H47357  -1.718   5.950   8.399 -0.6086 -1.1835  1.8084
  359MOL0     H47358  -1.522   6.161   8.495  0.4483  2.8184 -0.8939
  359MOL0     H47359  -1.696   6.203   8.464  0.0453 -0.9301  2.0703
  359MOL0     H47360  -1.491   6.098   8.260 -1.6495 -1.1489 -0.5158
  359MOL0     H47361  -1.654   6.120   8.218  0.6480 -0.5445 -0.1493
  359MOL0     H47362  -1.597   6.375   8.313  1.7751  1.6103  0.4610
  359MOL0     H47363  -1.553   6.324   8.152 -1.3098 -0.9217  0.5807
  359MOL0     H47364  -1.332   6.250   8.261  0.1741  0.9992 -0.1331
  359MOL0     H47365  -1.378   6.327   8.407 -0.4444  0.5606  0.2979
  359MOL0     H47366  -1.233   6.452   8.182  0.0819  1.0844 -0.3233
  359MOL0     H47367  -1.401   6.494   8.159 -1.0419  2.0054  2.2812
  359MOL0     H47368  -1.230   6.502   8.425 -1.6362  0.4036  1.8212
  359MOL0     H47369  -1.391   6.571   8.399  0.4724  0.9419  1.1776
  359MOL0     H47370  -1.432   5.731   8.162 -1.7111  1.7392  1.1463
  359MOL0     H47371  -1.251   5.565   8.127  0.5539  0.1483  0.4999
  359MOL0     H47372  -0.874   5.372   8.497  1.4762 -0.9031  2.1663
  359MOL0     H47373  -0.652   5.310   8.513  0.4178  2.5910 -0.1193
  359MOL0     H47374   0.350   5.637   9.803 -0.9225  1.7931 -1.9358
  359MOL0     H47375   0.544   5.575   9.925 -0.0333 -0.1508  0.2333
  359MOL0     H47376   0.986   5.587   9.948  1.7443  1.7020 -0.7996
  359MOL0     H47377   1.235   5.577   9.990 -0.1453  0.7532 -2.5400
  359MOL0     H47378   1.547   5.368  10.073  1.7408  1.8231  1.1666
  359MOL0     H47379   1.411   5.477  10.099 -0.1284 -0.4815 -0.8100
  359MOL0     H47380   1.464   5.599   9.896  0.3188  3.4742  2.2932
  359MOL0     H47381   1.604   5.595  10.000  0.2398 -1.1587  0.3286
  359MOL0     H47382   1.564   5.453   9.740  2.6251 -3.0299 -1.8980
  359MOL0     H47383   1.640   5.358   9.859 -2.2122  0.2377  0.1760
  359MOL0     H47384   1.751   5.515   9.665  0.9561 -0.5503  0.0799
  359MOL0     H47385   1.712   5.646   9.768 -1.7442 -0.3159 -1.8287
  359MOL0     H47386   2.062   5.466   9.947  0.2943  0.4917 -2.4768
  359MOL0     H47387   1.242   5.171   9.850  0.9886  0.3397  0.4091
  359MOL0     H47388   0.999   5.175   9.823  1.2907  0.4035 -0.9576
  360MOL0     O47389   9.999   6.192   3.786  0.2267  0.1080  0.1048
  360MOL0     C47390  10.094   6.224   3.713  0.6574  0.0630 -0.2638
  360MOL0     O47391  10.088   6.248   3.580 -0.5786  0.5909 -0.2254
  360MOL0     C47392   9.964   6.260   3.527  0.5317  0.3205  1.2970
  360MOL0     C47393   9.913   6.148   3.454  0.7293  0.8708 -0.3813
  360MOL0     C47394   9.797   6.160   3.387  0.5252  0.4222  0.6186
  360MOL0     C47395   9.718   6.272   3.388  0.0642  0.0397 -0.2676
  360MOL0     O47396   9.588   6.279   3.342 -0.3990  0.6537 -1.1401
  360MOL0     C47397   9.580   6.267   3.203  0.0655 -0.4968 -0.8015
  360MOL0     C47398   9.469   6.345   3.135 -0.6847  0.1403  0.0494
  360MOL0     C47399   9.324   6.279   3.154 -0.2804 -0.3105  0.1005
  360MOL0     C47400   9.220   6.384   3.135  1.0672 -0.2554  0.3208
  360MOL0     C47401   9.081   6.332   3.180  0.1574 -0.0399  0.1025
  360MOL0     C47402   8.965   6.430   3.155  0.0602 -0.2373  0.3858
  360MOL0     C47403   8.832   6.363   3.161  0.0531 -0.0345 -0.1329
  360MOL0     C47404   8.725   6.456   3.116  0.3578 -0.9656  0.2689
  360MOL0     N47405   8.591   6.395   3.131  0.4087 -0.1474  0.3594
  360MOL0     C47406   8.536   6.372   3.256 -0.0550 -0.8037 -1.1597
  360MOL0     C47407   8.416   6.313   3.230 -0.4994  0.6509  0.0274
  360MOL0     C47408   8.321   6.258   3.342  0.1279  0.3970  0.1256
  360MOL0     C47409   8.192   6.338   3.340  0.2602 -0.1804  0.9852
  360MOL0     C47410   8.097   6.312   3.456  0.8441 -0.0725 -0.9115
  360MOL0     C47411   7.952   6.340   3.416 -0.4430 -0.2067 -0.3336
  360MOL0     O47412   7.852   6.313   3.519  0.0290 -0.3247  0.2433
  360MOL0     C47413   7.722   6.318   3.477  0.0565 -0.1239  0.3408
  360MOL0     C47414   7.674   6.348   3.345  0.2254  0.0470 -0.3071
  360MOL0     C47415   7.531   6.366   3.330 -0.5864 -0.1327  0.2769
  360MOL0     C47416   7.438   6.373   3.431 -0.1403 -0.5043 -0.7079
  360MOL0     C47417   7.295   6.404   3.402 -0.0796  0.1884 -0.6740
  360MOL0     O47418   7.221   6.422   3.513  0.4086  0.5345  0.6918
  360MOL0     C47419   7.085   6.423   3.493 -0.8622 -0.1960 -0.5051
  360MOL0     C47420   7.008   6.346   3.576  0.0295 -0.2376 -0.3225
  360MOL0     C47421   6.867   6.359   3.575  0.1470  0.1136  0.1262
  360MOL0     C47422   6.806   6.432   3.483 -0.8569 -0.2486  0.2596
  360MOL0     O47423   6.662   6.428   3.494 -0.4607  0.1116 -0.7387
  360MOL0     C47424   6.599   6.543   3.435  1.0176  0.7367  0.5348
  360MOL0     C47425   6.443   6.523   3.409 -0.3396  0.2752  0.5993
  360MOL0     C47426   6.367   6.507   3.537  0.1742  0.6304  0.3321
  360MOL0     C47427   6.225   6.465   3.507 -0.9770  0.2964  0.1916
  360MOL0     C47428   6.151   6.401   3.624 -0.5378 -0.2274 -0.0327
  360MOL0     C47429   6.004   6.421   3.602  0.4246 -0.2637  0.3347
  360MOL0     C47430   5.924   6.376   3.715 -0.7036  0.7243  0.5029
  360MOL0     C47431   5.892   6.227   3.676  0.4872  0.0385 -0.1278
  360MOL0    Cl47432   5.775   6.173   3.808 -0.2128  0.2198 -0.4652
  360MOL0     C47433   6.889   6.517   3.407  0.9775  0.2108  0.0785
  360MOL0     C47434   7.021   6.508   3.410  0.4660  0.1239  0.1780
  360MOL0     O47435   7.255   6.391   3.285  0.2225  0.3619  0.0431
  360MOL0     C47436   7.486   6.349   3.558  0.1581 -0.3527  0.8470
  360MOL0     C47437   7.618   6.307   3.577 -0.1641 -0.5384 -0.2236
  360MOL0     N47438   8.406   6.287   3.095 -0.1767 -0.4465 -0.2879
  360MOL0     N47439   8.513   6.329   3.032  0.5537  0.4900 -0.2036
  360MOL0     C47440   9.762   6.379   3.470  0.1183 -0.5725  0.4599
  360MOL0     C47441   9.882   6.375   3.545  0.4145 -0.0509  0.0591
  360MOL0     C47442  10.224   6.225   3.770  0.4606  0.2518 -0.3245
  360MOL0     C47443  10.245   6.199   3.906 -0.1581 -0.3796  0.2306
  360MOL0     C47444  10.375   6.180   3.962  1.2590 -0.1780 -0.4315
  360MOL0     C47445  10.482   6.185   3.886  0.6236 -0.5207  0.1441
  360MOL0     O47446  10.615   6.164   3.921 -0.5480  0.2598  0.4522
  360MOL0     C47447  10.637   6.165   4.065  0.7020 -0.4213  0.2709
  360MOL0     C47448  10.777   6.138   4.105 -0.0205  1.1045  0.1062
  360MOL0     C47449  10.809   5.986   4.094 -0.0016  0.2294 -0.3116
  360MOL0     C47450  10.950   5.945   4.122  0.1791 -0.3546  0.3336
  360MOL0     C47451  10.992   5.988   4.252  0.8133  0.9818 -0.0547
  360MOL0     C47452  11.044   6.028   4.358 -0.8041 -0.2195 -0.4184
  360MOL0     C47453  10.463   6.216   3.749  0.0874 -0.3845  0.3281
  360MOL0     C47454  10.336   6.246   3.697 -0.0696 -0.6639  0.3528
  360MOL0     H47455   9.977   6.061   3.445  0.8732  0.8133  1.0002
  360MOL0     H47456   9.748   6.079   3.334  1.5672  0.0411  0.2307
  360MOL0     H47457   9.563   6.165   3.167 -3.2698  0.1970 -1.4788
  360MOL0     H47458   9.677   6.296   3.162 -0.4810  1.0379 -1.0853
  360MOL0     H47459   9.493   6.351   3.028 -0.7935  0.5234  0.0441
  360MOL0     H47460   9.472   6.448   3.172 -2.3268  0.0021  0.6250
  360MOL0     H47461   9.318   6.239   3.256 -4.4454  0.8586  0.5062
  360MOL0     H47462   9.309   6.204   3.076 -0.6818  1.4943 -1.6278
  360MOL0     H47463   9.245   6.466   3.202  1.0191  1.1064 -1.2647
  360MOL0     H47464   9.213   6.412   3.029 -3.9696 -1.4729  0.0649
  360MOL0     H47465   9.081   6.310   3.287 -2.4416  3.9922  1.1573
  360MOL0     H47466   9.051   6.236   3.136 -0.9623  0.1930  0.3201
  360MOL0     H47467   8.967   6.484   3.059  1.3868 -1.9809 -0.6346
  360MOL0     H47468   8.964   6.513   3.225  0.5925 -0.1630  0.3092
  360MOL0     H47469   8.826   6.269   3.107 -0.2693  0.5252 -1.0955
  360MOL0     H47470   8.813   6.342   3.266 -1.6988 -0.1815 -0.4517
  360MOL0     H47471   8.739   6.496   3.015 -0.9501  1.5639  0.9999
  360MOL0     H47472   8.716   6.546   3.177 -1.6869 -0.7832 -0.2326
  360MOL0     H47473   8.572   6.416   3.349 -1.4641  1.1515 -1.4726
  360MOL0     H47474   8.365   6.269   3.442 -3.0087 -0.2905  1.6954
  360MOL0     H47475   8.294   6.155   3.319 -1.4373  1.3417 -2.8009
  360MOL0     H47476   8.143   6.321   3.243  2.0505 -0.7722  0.1455
  360MOL0     H47477   8.191   6.448   3.338 -0.2132 -0.1810 -0.4186
  360MOL0     H47478   8.100   6.209   3.492 -1.8935  0.4383  1.1707
  360MOL0     H47479   8.121   6.385   3.534 -0.5286 -1.5450  0.9894
  360MOL0     H47480   7.939   6.278   3.327  1.7829 -0.2246 -0.7067
  360MOL0     H47481   7.947   6.447   3.390  1.8661  0.3406  1.1791
  360MOL0     H47482   7.743   6.360   3.262 -0.2317 -2.0995 -1.0552
  360MOL0     H47483   7.501   6.371   3.226  1.9619 -0.1550 -0.5315
  360MOL0     H47484   7.060   6.304   3.661  0.6735  0.0747 -0.5567
  360MOL0     H47485   6.805   6.297   3.639 -1.3471 -1.6321 -2.7726
  360MOL0     H47486   6.639   6.545   3.333 -2.5664 -2.0874 -1.1737
  360MOL0     H47487   6.616   6.631   3.498  0.8583  1.6520 -0.6561
  360MOL0     H47488   6.427   6.426   3.361 -2.4382 -0.1101  1.9540
  360MOL0     H47489   6.404   6.604   3.346  3.2815  1.7540 -0.0035
  360MOL0     H47490   6.361   6.608   3.577  1.8527  0.6159  0.7021
  360MOL0     H47491   6.415   6.444   3.612 -0.1654  1.7440  1.5129
  360MOL0     H47492   6.174   6.559   3.486  0.5749  1.0709 -0.2101
  360MOL0     H47493   6.224   6.396   3.421  0.1995  0.7361 -0.1931
  360MOL0     H47494   6.180   6.462   3.710 -2.0490 -0.2730  0.5547
  360MOL0     H47495   6.178   6.296   3.628 -3.5480 -1.0628  2.5029
  360MOL0     H47496   5.974   6.377   3.506 -1.6763 -2.0870  1.7146
  360MOL0     H47497   5.984   6.527   3.585 -0.9046 -1.0297 -4.3388
  360MOL0     H47498   5.980   6.386   3.809  0.0937  1.3699 -0.0174
  360MOL0     H47499   5.834   6.437   3.727 -0.4378  1.1842  0.2337
  360MOL0     H47500   5.981   6.162   3.683 -0.0603 -0.5447  3.4214
  360MOL0     H47501   5.844   6.211   3.579  0.6421 -1.9132  0.0725
  360MOL0     H47502   6.846   6.579   3.329  3.5818  0.9474 -0.8814
  360MOL0     H47503   7.076   6.574   3.344 -0.9564  0.6724 -0.4945
  360MOL0     H47504   7.418   6.349   3.642 -0.0139  2.3932  0.8108
  360MOL0     H47505   7.658   6.281   3.675 -0.6243 -0.9450 -0.1396
  360MOL0     H47506   9.701   6.468   3.466 -0.9394 -1.2829 -4.0283
  360MOL0     H47507   9.915   6.456   3.610 -1.7453  1.2821 -0.4004
  360MOL0     H47508  10.166   6.215   3.979 -0.9725  0.4766 -0.8108
  360MOL0     H47509  10.363   6.155   4.067 -3.2398  3.3139  0.1891
  360MOL0     H47510  10.571   6.088   4.105  0.7071 -0.6970 -0.2415
  360MOL0     H47511  10.616   6.260   4.114 -2.4226  0.4365 -2.3340
  360MOL0     H47512  10.843   6.199   4.042  1.5713  0.3569  0.9824
  360MOL0     H47513  10.800   6.169   4.208  1.0760  3.3577 -0.7494
  360MOL0     H47514  10.782   5.957   3.992 -0.9415 -1.7475  0.4353
  360MOL0     H47515  10.753   5.932   4.171  0.2184  0.7460  0.2099
  360MOL0     H47516  10.957   5.837   4.106 -4.9803 -0.7277 -1.2749
  360MOL0     H47517  11.020   5.992   4.053  0.4639 -0.8900  0.2490
  360MOL0     H47518  11.092   6.063   4.447 -0.1377  0.1834 -0.9317
  360MOL0     H47519  10.544   6.217   3.678 -0.3993 -0.6218 -0.2417
  360MOL0     H47520  10.336   6.270   3.591  6.1265  1.5018  0.4576
  361MOL0     O47521   7.063   9.490   2.525  0.4858  0.0101 -0.2103
  361MOL0     C47522   7.102   9.588   2.457 -0.4932 -0.0115 -1.4370
  361MOL0     O47523   7.029   9.643   2.347 -0.1406 -0.5781 -0.2111
  361MOL0     C47524   6.928   9.571   2.291 -1.0012 -0.1592  0.6267
  361MOL0     C47525   6.964   9.449   2.241 -0.5496  0.4872 -0.0710
  361MOL0     C47526   6.870   9.372   2.170  0.0873 -0.1539  0.9459
  361MOL0     C47527   6.745   9.417   2.155  0.3939 -0.0911 -0.5524
  361MOL0     O47528   6.660   9.329   2.093 -0.5102 -0.3735 -0.0887
  361MOL0     C47529   6.546   9.388   2.035  0.7546 -0.5582 -0.0095
  361MOL0     C47530   6.496   9.290   1.930  0.5189  0.3320  0.1586
  361MOL0     C47531   6.425   9.167   1.985  0.2603 -0.0298 -0.0023
  361MOL0     C47532   6.375   9.074   1.878  0.0205  0.1345  1.0072
  361MOL0     C47533   6.240   9.001   1.916 -0.4919  0.0814 -1.0178
  361MOL0     C47534   6.205   8.873   1.837  0.1816 -0.2842 -0.0331
  361MOL0     C47535   6.167   8.909   1.692 -0.0677 -0.6773 -1.1541
  361MOL0     C47536   6.096   8.796   1.624  0.9020 -0.1034  1.0447
  361MOL0     N47537   5.953   8.794   1.655  0.4159 -0.2645 -0.5517
  361MOL0     C47538   5.894   8.689   1.720  0.7663 -0.0846 -0.4217
  361MOL0     C47539   5.760   8.722   1.722  0.4334 -0.3845  0.3823
  361MOL0     C47540   5.647   8.632   1.771  0.4933  0.4635 -0.7293
  361MOL0     C47541   5.572   8.712   1.880  0.5668  0.8244  0.9898
  361MOL0     C47542   5.430   8.649   1.882 -0.6420  0.1628  0.0435
  361MOL0     C47543   5.337   8.723   1.974 -0.4529  0.1302 -0.5392
  361MOL0     O47544   5.337   8.866   1.940 -0.1756 -0.0953  0.4108
  361MOL0     C47545   5.219   8.910   1.885  0.7841 -0.4553 -0.6873
  361MOL0     C47546   5.158   8.859   1.767 -0.0850  0.3980 -0.2523
  361MOL0     C47547   5.030   8.891   1.725  0.0473 -0.2031  0.2477
  361MOL0     C47548   4.949   8.972   1.812  0.2002 -0.8440  0.2383
  361MOL0     C47549   4.805   8.996   1.791 -0.0558 -0.4428  0.1551
  361MOL0     O47550   4.733   9.068   1.880 -0.6784 -0.3840  0.5244
  361MOL0     C47551   4.599   9.092   1.863 -0.4438  0.3643  0.5738
  361MOL0     C47552   4.555   9.216   1.875  0.1523 -0.5532 -0.2593
  361MOL0     C47553   4.415   9.238   1.872 -0.4122 -0.0128 -0.0769
  361MOL0     C47554   4.318   9.136   1.857  0.8807 -0.5026  0.2589
  361MOL0     O47555   4.183   9.152   1.843  0.4150  0.4737  0.6720
  361MOL0     C47556   4.122   9.290   1.834  0.6191 -0.1253 -0.1919
  361MOL0     C47557   3.990   9.278   1.895 -0.5906  0.3010  0.1123
  361MOL0     C47558   3.889   9.394   1.880  0.3808  0.3716  0.1231
  361MOL0     C47559   3.826   9.384   1.742 -0.1330 -0.4313  0.8701
  361MOL0     C47560   3.670   9.384   1.748  0.4951  0.8278 -0.4399
  361MOL0     C47561   3.598   9.500   1.822  0.0444 -0.3180  0.4523
  361MOL0     C47562   3.447   9.504   1.777 -0.2402  0.6214 -0.1677
  361MOL0     C47563   3.380   9.631   1.829 -0.3509 -0.7329  0.1242
  361MOL0    Cl47564   3.386   9.636   2.013 -0.6400  0.3613  0.1182
  361MOL0     C47565   4.371   9.007   1.841  0.5260  0.6689 -0.4502
  361MOL0     C47566   4.511   8.987   1.846  0.3453  0.0681 -0.0340
  361MOL0     O47567   4.762   8.958   1.683 -0.0894  0.2658 -0.0842
  361MOL0     C47568   5.014   9.030   1.928  0.3429  0.7194  0.3986
  361MOL0     C47569   5.143   9.005   1.966 -0.4883  0.7564 -0.6112
  361MOL0     N47570   5.744   8.844   1.652  0.4451 -0.2771  0.0584
  361MOL0     N47571   5.855   8.884   1.617 -0.8304 -0.3037  0.0026
  361MOL0     C47572   6.700   9.534   2.225 -0.1532  0.3222 -0.4699
  361MOL0     C47573   6.799   9.608   2.293  0.8405  1.0600 -0.1572
  361MOL0     C47574   7.238   9.642   2.491  0.6232 -0.8505 -0.8244
  361MOL0     C47575   7.291   9.750   2.419  0.5872 -0.5459  1.2738
  361MOL0     C47576   7.424   9.797   2.435 -0.8117 -0.4413 -0.4503
  361MOL0     C47577   7.507   9.744   2.539  0.8105  0.1822 -0.2449
  361MOL0     O47578   7.630   9.780   2.573 -0.2713 -0.5661 -0.4686
  361MOL0     C47579   7.666   9.917   2.550 -0.2734 -0.5563  0.4227
  361MOL0     C47580   7.722   9.970   2.680 -0.9134 -0.7357  0.0615
  361MOL0     C47581   7.765  10.127   2.689 -0.3541  0.2861 -0.5502
  361MOL0     C47582   7.641  10.205   2.672  1.3832  0.1301 -1.0091
  361MOL0     C47583   7.659  10.347   2.695 -0.3090  0.7336 -0.4437
  361MOL0     C47584   7.682  10.464   2.723  0.7570 -0.6153 -0.4130
  361MOL0     C47585   7.446   9.645   2.618 -0.4772  0.5487 -0.3457
  361MOL0     C47586   7.319   9.593   2.595 -0.2753 -0.3592 -0.0000
  361MOL0     H47587   7.065   9.411   2.248 -0.3264  1.0650 -0.1119
  361MOL0     H47588   6.905   9.274   2.139  0.8940  0.4306 -0.0659
  361MOL0     H47589   6.562   9.487   1.992 -1.4677  1.1446  2.6957
  361MOL0     H47590   6.466   9.402   2.109  0.4282 -1.2300 -0.2307
  361MOL0     H47591   6.579   9.247   1.872 -1.5542 -1.8848 -1.3388
  361MOL0     H47592   6.421   9.344   1.872  0.6879 -0.2255 -0.5984
  361MOL0     H47593   6.342   9.202   2.047  1.1228 -0.9173  1.7183
  361MOL0     H47594   6.501   9.119   2.047 -0.0220 -0.3655  0.0849
  361MOL0     H47595   6.351   9.122   1.783 -0.3385 -1.0263  0.4922
  361MOL0     H47596   6.448   8.998   1.848 -1.3866 -0.6140 -0.6717
  361MOL0     H47597   6.157   9.073   1.916 -0.6763 -0.0771  0.6949
  361MOL0     H47598   6.255   8.960   2.016  1.9389  2.5951 -0.2457
  361MOL0     H47599   6.113   8.828   1.876  0.1433 -1.2213 -1.1263
  361MOL0     H47600   6.284   8.798   1.838 -1.4401 -2.0927  0.0789
  361MOL0     H47601   6.106   9.000   1.690  2.3835  1.1690  1.6273
  361MOL0     H47602   6.255   8.923   1.629  0.7292 -2.4113 -0.4918
  361MOL0     H47603   6.131   8.695   1.649 -0.2738 -0.7016  0.3866
  361MOL0     H47604   6.102   8.800   1.515 -0.0726 -0.9822  0.9303
  361MOL0     H47605   5.933   8.600   1.767 -4.2224 -1.2765  2.0140
  361MOL0     H47606   5.676   8.535   1.813  0.5102  0.8633  0.2101
  361MOL0     H47607   5.583   8.611   1.685  0.3088 -1.3116 -0.2023
  361MOL0     H47608   5.559   8.818   1.856  2.5207  1.0710  0.9206
  361MOL0     H47609   5.618   8.691   1.977 -0.5759 -5.0292  0.6597
  361MOL0     H47610   5.392   8.648   1.779 -1.5986 -0.8001  0.3818
  361MOL0     H47611   5.442   8.547   1.920 -2.0718  0.3922  1.2024
  361MOL0     H47612   5.375   8.702   2.074 -0.1307 -3.1423 -1.2302
  361MOL0     H47613   5.239   8.677   1.965 -0.1775 -1.1644  2.1841
  361MOL0     H47614   5.217   8.806   1.693 -1.1008 -1.8983  0.4647
  361MOL0     H47615   4.990   8.853   1.632  0.4209  2.6811 -1.2004
  361MOL0     H47616   4.621   9.302   1.883 -0.9170  0.1297  1.6649
  361MOL0     H47617   4.392   9.344   1.878 -0.3240 -0.0446  1.1032
  361MOL0     H47618   4.125   9.325   1.730  2.1378 -1.0432 -0.4822
  361MOL0     H47619   4.167   9.360   1.906 -1.4799 -1.8642  3.0529
  361MOL0     H47620   3.996   9.260   2.003 -0.6914  2.8529  0.5978
  361MOL0     H47621   3.945   9.187   1.855  1.0888 -1.3680  1.7569
  361MOL0     H47622   3.918   9.497   1.903  2.2666  0.2156 -1.3303
  361MOL0     H47623   3.807   9.366   1.948  1.3376 -4.1096 -0.2350
  361MOL0     H47624   3.853   9.483   1.704 -0.4533 -0.8509 -0.4898
  361MOL0     H47625   3.868   9.313   1.671 -1.9603 -0.0657 -0.6472
  361MOL0     H47626   3.637   9.289   1.790 -0.3771  0.3410 -2.1384
  361MOL0     H47627   3.624   9.387   1.649 -1.0753 -2.7764  0.0504
  361MOL0     H47628   3.641   9.594   1.787 -2.3731  0.7580  0.1984
  361MOL0     H47629   3.610   9.491   1.930  2.2412  2.7012  0.6002
  361MOL0     H47630   3.440   9.503   1.668  0.4855  5.3428 -0.4478
  361MOL0     H47631   3.401   9.416   1.823  1.0576  0.6742  1.3246
  361MOL0     H47632   3.278   9.633   1.789 -0.3735 -0.6692  0.1843
  361MOL0     H47633   3.420   9.724   1.787  0.8009 -0.7927  1.0418
  361MOL0     H47634   4.299   8.926   1.837  1.0677  0.2176 -1.4600
  361MOL0     H47635   4.539   8.882   1.846 -3.6526 -1.1759  1.3536
  361MOL0     H47636   4.971   9.095   2.004 -0.0631  1.3300 -0.3429
  361MOL0     H47637   5.173   9.036   2.066 -1.6565 -1.7795  0.6293
  361MOL0     H47638   6.597   9.567   2.227 -0.2567 -0.0091  0.8259
  361MOL0     H47639   6.757   9.702   2.328 -3.9151 -1.2463  1.2791
  361MOL0     H47640   7.231   9.799   2.343  1.3476 -0.5972  0.6244
  361MOL0     H47641   7.471   9.862   2.361  0.3108 -0.6284  0.0711
  361MOL0     H47642   7.572   9.969   2.530  1.0018  1.8939  0.4950
  361MOL0     H47643   7.726   9.932   2.460 -0.6518 -0.0636  0.2471
  361MOL0     H47644   7.646   9.959   2.757 -0.7641  0.0787  0.3261
  361MOL0     H47645   7.814   9.914   2.701 -0.9220 -0.2836  1.3259
  361MOL0     H47646   7.840  10.153   2.613  2.7805  1.3119  2.6234
  361MOL0     H47647   7.813  10.145   2.786 -0.4319 -0.8984 -0.2770
  361MOL0     H47648   7.608  10.184   2.570  2.4222 -0.1363 -1.3057
  361MOL0     H47649   7.560  10.170   2.736  0.8258 -2.9029 -3.1303
  361MOL0     H47650   7.693  10.566   2.754 -3.0951 -0.7366  2.0886
  361MOL0     H47651   7.491   9.601   2.705 -2.7061  0.7783  1.0088
  361MOL0     H47652   7.275   9.511   2.651  0.2445  0.1663  1.2067
  362MOL0     O47653   2.702   3.860   7.318 -0.0028  0.0669 -0.4192
  362MOL0     C47654   2.776   3.890   7.410 -0.1272  0.2472 -0.2230
  362MOL0     O47655   2.751   3.883   7.540 -0.7147  0.7052 -0.2457
  362MOL0     C47656   2.632   3.843   7.589 -0.0496  0.4101 -0.7056
  362MOL0     C47657   2.614   3.753   7.693 -0.4111  0.3827 -1.0544
  362MOL0     C47658   2.484   3.708   7.728 -0.2616  0.6573 -0.3509
  362MOL0     C47659   2.378   3.762   7.660  0.8116 -0.2104 -0.4704
  362MOL0     O47660   2.253   3.712   7.677  0.0574  0.6366  0.6040
  362MOL0     C47661   2.134   3.800   7.674 -0.0038  0.5315 -0.1748
  362MOL0     C47662   2.015   3.710   7.702 -0.2224 -0.4964  0.7656
  362MOL0     C47663   1.940   3.737   7.832  1.2799  0.1746  0.5557
  362MOL0     C47664   1.802   3.676   7.815  0.3128  0.0670 -0.2095
  362MOL0     C47665   1.710   3.672   7.932  0.6625 -0.3528 -0.2705
  362MOL0     C47666   1.653   3.800   7.973  0.2384  0.5423  0.8512
  362MOL0     C47667   1.536   3.793   8.072 -0.5210  0.4079  0.4566
  362MOL0     C47668   1.453   3.918   8.084  0.2528 -0.5515  0.2077
  362MOL0     N47669   1.335   3.906   7.989  0.0319  0.3076 -0.4931
  362MOL0     C47670   1.341   3.927   7.848  0.0857  0.3695  0.1578
  362MOL0     C47671   1.212   3.932   7.804 -0.0764  0.0699 -0.7793
  362MOL0     C47672   1.177   3.923   7.657 -0.5270 -0.2794  0.0558
  362MOL0     C47673   1.045   3.861   7.619  0.2198 -0.3583  0.0284
  362MOL0     C47674   0.920   3.933   7.662  0.2210 -0.3791 -0.1633
  362MOL0     C47675   0.798   3.869   7.599  0.4911  0.2218  1.1963
  362MOL0     O47676   0.819   3.846   7.455 -0.2246 -0.4994 -0.1972
  362MOL0     C47677   0.724   3.778   7.384 -0.2709 -1.2336 -0.5810
  362MOL0     C47678   0.617   3.719   7.449  0.0558  1.0654  0.7383
  362MOL0     C47679   0.520   3.662   7.359  0.6044  0.1599  0.6198
  362MOL0     C47680   0.539   3.645   7.219  0.1385  0.0770  0.6043
  362MOL0     C47681   0.435   3.599   7.134 -0.4732 -0.6870  0.1513
  362MOL0     O47682   0.315   3.560   7.192 -0.1687  0.0531 -0.2340
  362MOL0     C47683   0.203   3.518   7.116 -0.4922  0.1543 -0.6559
  362MOL0     C47684   0.072   3.576   7.141 -0.2039  0.7500 -0.1940
  362MOL0     C47685  -0.047   3.522   7.073 -0.1314 -1.4169  0.4079
  362MOL0     C47686  -0.031   3.431   6.973  0.1618 -0.7974 -0.1287
  362MOL0     O47687  -0.138   3.392   6.896 -0.4761 -0.3279 -0.2464
  362MOL0     C47688  -0.269   3.434   6.938  0.1390 -0.1002 -0.7758
  362MOL0     C47689  -0.376   3.365   6.848 -0.0023  0.1324 -0.3356
  362MOL0     C47690  -0.397   3.217   6.879 -0.0053  0.0627  0.0419
  362MOL0     C47691  -0.500   3.143   6.787 -0.5808  0.7855 -0.7986
  362MOL0     C47692  -0.639   3.192   6.824 -1.1054  0.2357  0.1166
  362MOL0     C47693  -0.730   3.131   6.729  0.0247 -0.1538  0.1776
  362MOL0     C47694  -0.880   3.185   6.746 -0.7980 -0.8158  0.7222
  362MOL0     C47695  -0.948   3.129   6.626  0.4190 -0.2804 -0.5287
  362MOL0    Cl47696  -0.999   2.957   6.644 -0.3875 -0.3438 -0.0883
  362MOL0     C47697   0.093   3.375   6.950  0.1318  0.1076  0.9785
  362MOL0     C47698   0.205   3.413   7.021 -0.7182 -0.6788 -1.1441
  362MOL0     O47699   0.456   3.606   7.017 -0.5795  0.4068  0.2903
  362MOL0     C47700   0.649   3.711   7.159 -0.8816 -0.0593  0.3692
  362MOL0     C47701   0.741   3.775   7.244 -0.3305  0.1757 -0.1971
  362MOL0     N47702   1.131   3.922   7.923  0.1896  0.1167 -0.1553
  362MOL0     N47703   1.206   3.918   8.026 -0.0208 -0.1484  0.6007
  362MOL0     C47704   2.392   3.868   7.567  0.5024  0.1992 -0.3878
  362MOL0     C47705   2.517   3.910   7.538  0.3181  0.2955 -0.5289
  362MOL0     C47706   2.913   3.945   7.382  0.1755 -0.5217  0.3181
  362MOL0     C47707   2.995   3.993   7.483 -0.5757 -0.1318 -0.7797
  362MOL0     C47708   3.121   4.040   7.452  0.1142 -0.4520  0.1636
  362MOL0     C47709   3.170   4.039   7.322  0.2130  0.8026  0.4380
  362MOL0     O47710   3.290   4.088   7.276 -0.6919  0.1934 -0.2938
  362MOL0     C47711   3.367   4.166   7.368 -0.3410 -0.4712  0.1208
  362MOL0     C47712   3.504   4.201   7.293 -0.2014  0.2085 -0.5667
  362MOL0     C47713   3.609   4.246   7.400 -0.5823  0.3648  1.2653
  362MOL0     C47714   3.742   4.280   7.327 -0.2669  0.6314  0.5182
  362MOL0     C47715   3.810   4.157   7.273 -0.0405 -0.4601 -0.5645
  362MOL0     C47716   3.853   4.045   7.233  0.0468 -0.4138 -0.6628
  362MOL0     C47717   3.086   3.984   7.222 -0.4472 -0.5905 -0.2420
  362MOL0     C47718   2.958   3.934   7.250 -0.3755 -0.0979 -0.8228
  362MOL0     H47719   2.699   3.714   7.748  0.0080  2.0125 -0.5061
  362MOL0     H47720   2.451   3.637   7.803 -0.5963 -0.1686 -1.2560
  362MOL0     H47721   2.123   3.856   7.581  0.2061 -1.8493 -1.7109
  362MOL0     H47722   2.130   3.874   7.755  0.3043 -0.2706  0.5956
  362MOL0     H47723   2.032   3.606   7.674 -0.9910 -0.1571 -1.0920
  362MOL0     H47724   1.947   3.743   7.623 -0.1114 -1.2293  0.3593
  362MOL0     H47725   1.935   3.845   7.843  2.4025  0.5356 -1.7862
  362MOL0     H47726   2.000   3.692   7.911 -0.3491 -1.1785  1.1042
  362MOL0     H47727   1.749   3.725   7.733  0.2670 -1.0577 -0.8850
  362MOL0     H47728   1.815   3.570   7.791  2.6632 -0.1533  1.6083
  362MOL0     H47729   1.760   3.620   8.015  0.8870 -0.2757 -0.3547
  362MOL0     H47730   1.627   3.613   7.894  0.5992  0.7017 -1.8751
  362MOL0     H47731   1.615   3.848   7.882 -2.9662  1.1146  2.3469
  362MOL0     H47732   1.731   3.865   8.011  1.4128 -0.7609  0.7620
  362MOL0     H47733   1.462   3.714   8.053 -1.8850  2.2134 -2.4042
  362MOL0     H47734   1.575   3.770   8.172 -1.2637 -2.9886  0.0859
  362MOL0     H47735   1.516   4.002   8.054  0.6889 -1.2988 -1.0261
  362MOL0     H47736   1.420   3.913   8.189  2.3499 -0.0755  0.9512
  362MOL0     H47737   1.432   3.923   7.789  0.3344  0.4774  0.5301
  362MOL0     H47738   1.251   3.875   7.593  0.3950  0.8262  0.2507
  362MOL0     H47739   1.179   4.028   7.624 -0.0507 -0.2947  0.0254
  362MOL0     H47740   1.047   3.757   7.652 -0.9700 -0.4169 -0.0557
  362MOL0     H47741   1.050   3.867   7.510  3.1515 -1.9171 -0.0411
  362MOL0     H47742   0.910   3.946   7.770 -1.2822  1.6001 -0.4635
  362MOL0     H47743   0.919   4.036   7.625 -0.2024 -0.5111 -0.5339
  362MOL0     H47744   0.705   3.922   7.623 -0.5840 -1.4903  0.9403
  362MOL0     H47745   0.792   3.770   7.645  4.2027 -1.0028 -0.6545
  362MOL0     H47746   0.592   3.729   7.554  0.5687 -0.8246  1.0771
  362MOL0     H47747   0.430   3.623   7.407  0.4336  1.3912  1.3423
  362MOL0     H47748   0.051   3.659   7.208 -1.6359 -0.2446  0.6575
  362MOL0     H47749  -0.135   3.575   7.107  1.0370  1.6125 -0.9734
  362MOL0     H47750  -0.290   3.541   6.937  1.3789  0.1517 -0.4452
  362MOL0     H47751  -0.272   3.400   7.042  3.4294 -2.1891 -1.2203
  362MOL0     H47752  -0.358   3.376   6.741  0.0098  1.3319 -0.2167
  362MOL0     H47753  -0.472   3.412   6.869 -0.8371 -1.6212 -0.0081
  362MOL0     H47754  -0.435   3.207   6.981  2.9819  3.9314  1.7972
  362MOL0     H47755  -0.299   3.168   6.876 -0.1871 -0.2866 -3.0849
  362MOL0     H47756  -0.477   3.166   6.683  1.3180  0.0170 -0.5904
  362MOL0     H47757  -0.495   3.034   6.796  1.0371  0.8412 -0.7621
  362MOL0     H47758  -0.629   3.300   6.812  4.0992  0.1264  0.9143
  362MOL0     H47759  -0.660   3.174   6.930  2.1267  1.1357  1.0305
  362MOL0     H47760  -0.730   3.022   6.731 -2.6196 -0.2798 -2.0630
  362MOL0     H47761  -0.698   3.166   6.631 -3.4168  2.7582 -0.1280
  362MOL0     H47762  -0.918   3.148   6.841 -3.1564  0.2394  0.2354
  362MOL0     H47763  -0.886   3.294   6.746  2.6008 -0.3833 -3.1261
  362MOL0     H47764  -0.889   3.131   6.534  0.8394  1.0464 -0.2570
  362MOL0     H47765  -1.034   3.197   6.623  0.3694  0.3024  4.5941
  362MOL0     H47766   0.102   3.316   6.859  1.8389 -0.4150  1.4446
  362MOL0     H47767   0.298   3.369   6.987 -0.1527 -0.3581 -0.0620
  362MOL0     H47768   0.663   3.699   7.052 -2.7877 -0.7883  0.1586
  362MOL0     H47769   0.830   3.810   7.191 -1.0311  1.4384 -0.5942
  362MOL0     H47770   2.310   3.916   7.514  1.3877  0.0127 -2.0113
  362MOL0     H47771   2.515   3.986   7.461  0.0779 -0.1318 -0.9442
  362MOL0     H47772   2.966   3.994   7.588 -1.0707  2.2418 -0.9028
  362MOL0     H47773   3.181   4.086   7.530  0.6078  0.7669 -0.8911
  362MOL0     H47774   3.386   4.105   7.457  0.0584 -0.3802  0.0966
  362MOL0     H47775   3.313   4.257   7.395 -2.8288 -1.1792 -1.9896
  362MOL0     H47776   3.535   4.116   7.231  0.5672 -0.4375  0.6785
  362MOL0     H47777   3.483   4.280   7.219  0.6534  0.4841 -0.5300
  362MOL0     H47778   3.614   4.168   7.477 -3.8361 -1.6736 -0.3708
  362MOL0     H47779   3.571   4.337   7.449 -1.0585 -0.2198  2.0196
  362MOL0     H47780   3.719   4.351   7.247  2.9328  0.3117 -0.8453
  362MOL0     H47781   3.809   4.324   7.402  0.1394  0.5241  0.2261
  362MOL0     H47782   3.876   3.946   7.200  1.1981 -1.0024  1.7168
  362MOL0     H47783   3.114   3.983   7.117 -1.3960 -0.6633 -0.5010
  362MOL0     H47784   2.888   3.914   7.169 -1.9670 -0.1754  0.5302
  363MOL0     O47785   0.341   6.867   0.851  0.4082  0.8078 -0.1023
  363MOL0     C47786   0.278   6.956   0.907 -0.0794  0.0930 -0.3750
  363MOL0     O47787   0.152   6.998   0.882  0.2600 -0.3350  0.1150
  363MOL0     C47788   0.090   6.922   0.789 -0.3167 -0.4859  0.0180
  363MOL0     C47789   0.030   6.802   0.835 -0.8963 -0.0965  0.2055
  363MOL0     C47790  -0.059   6.737   0.749 -1.3627  0.8270  0.6340
  363MOL0     C47791  -0.092   6.792   0.627  0.8373 -0.8110  1.0192
  363MOL0     O47792  -0.174   6.725   0.538  0.3714  0.8774  0.2268
  363MOL0     C47793  -0.235   6.603   0.585 -0.0970  0.9827  0.0737
  363MOL0     C47794  -0.331   6.544   0.482  0.7455 -0.1987 -0.6565
  363MOL0     C47795  -0.464   6.619   0.468  0.0966  0.0214  0.5057
  363MOL0     C47796  -0.549   6.592   0.335 -0.2281  0.5591  0.0938
  363MOL0     C47797  -0.681   6.664   0.354  0.4618  0.4904  0.2250
  363MOL0     C47798  -0.776   6.663   0.231  0.2966 -0.1845  0.2109
  363MOL0     C47799  -0.831   6.527   0.213 -0.5075 -0.8541  0.0216
  363MOL0     C47800  -0.928   6.530   0.086 -0.8331 -0.0533 -0.1404
  363MOL0     N47801  -1.070   6.596   0.104  0.4708 -0.2621 -0.4950
  363MOL0     C47802  -1.171   6.589   0.012  1.0405  0.0995  0.7869
  363MOL0     C47803  -1.255   6.685   0.058  0.8968  1.0369  0.0420
  363MOL0     C47804  -1.388   6.717  -0.004  0.4908  0.3491 -0.8682
  363MOL0     C47805  -1.459   6.593  -0.079  0.0309 -0.4375 -0.3442
  363MOL0     C47806  -1.597   6.646  -0.123 -0.5386  0.6367  0.0489
  363MOL0     C47807  -1.706   6.543  -0.129 -0.2915  0.0704  0.7388
  363MOL0     O47808  -1.828   6.619  -0.158  0.1777 -0.5135  0.3077
  363MOL0     C47809  -1.949   6.562  -0.127  0.7043 -1.2971 -0.7971
  363MOL0     C47810  -1.966   6.426  -0.079  0.0953  0.0730 -0.2470
  363MOL0     C47811  -2.093   6.386  -0.038 -0.0209 -0.3201 -0.5601
  363MOL0     C47812  -2.208   6.470  -0.063 -0.5373  0.8004 -0.0027
  363MOL0     C47813  -2.346   6.429  -0.036  0.3541 -0.8487 -0.4508
  363MOL0     O47814  -2.454   6.495  -0.074 -0.0039  0.0199 -0.0378
  363MOL0     C47815  -2.580   6.462  -0.036  0.3606  0.6122 -0.7553
  363MOL0     C47816  -2.677   6.562  -0.016  0.6985 -0.5807 -0.7622
  363MOL0     C47817  -2.813   6.537   0.020  0.0718 -0.1170  0.3647
  363MOL0     C47818  -2.857   6.404   0.034  0.1766  0.1623 -0.4039
  363MOL0     O47819  -2.985   6.382   0.082  0.4023 -0.5348  0.3840
  363MOL0     C47820  -3.031   6.249   0.078 -0.4876  0.0580  0.8934
  363MOL0     C47821  -3.185   6.245   0.082 -0.1282 -0.4306 -0.1419
  363MOL0     C47822  -3.257   6.300  -0.042 -1.0127  0.7346 -0.5447
  363MOL0     C47823  -3.410   6.290  -0.031 -0.5838 -0.1190 -0.3335
  363MOL0     C47824  -3.466   6.387   0.083  0.0749  0.0441 -0.3861
  363MOL0     C47825  -3.606   6.346   0.138 -0.2957  0.1415  0.3037
  363MOL0     C47826  -3.710   6.360   0.020 -0.4137  0.1015 -0.1719
  363MOL0     C47827  -3.837   6.285   0.052  0.8464  0.7753 -0.9182
  363MOL0    Cl47828  -3.916   6.351   0.197 -0.1238 -0.0254 -0.4100
  363MOL0     C47829  -2.758   6.302   0.024 -0.7987 -0.5936 -0.1451
  363MOL0     C47830  -2.627   6.329  -0.017  0.4757  0.1017  0.2053
  363MOL0     O47831  -2.344   6.326   0.034  0.6614 -0.6913  0.3388
  363MOL0     C47832  -2.185   6.601  -0.118 -0.0594 -0.2310 -0.1915
  363MOL0     C47833  -2.059   6.647  -0.132 -0.0713 -0.7214 -0.2142
  363MOL0     N47834  -1.208   6.742   0.170 -0.0912 -0.8874  0.1822
  363MOL0     N47835  -1.092   6.696   0.193  0.1853  0.2369  0.2439
  363MOL0     C47836  -0.027   6.907   0.581 -0.0766  0.6130  0.0662
  363MOL0     C47837   0.065   6.974   0.663 -0.2055  1.4208 -0.6266
  363MOL0     C47838   0.361   7.033   1.004  0.1477 -0.1057 -0.3459
  363MOL0     C47839   0.307   7.142   1.070 -0.1736 -0.3858  0.0613
  363MOL0     C47840   0.379   7.205   1.174 -0.3829  1.0135  0.2605
  363MOL0     C47841   0.507   7.150   1.219 -0.0320  0.2364  0.6164
  363MOL0     O47842   0.568   7.197   1.326 -0.2437 -0.5871  0.2031
  363MOL0     C47843   0.680   7.126   1.391  0.2313  0.3614  0.5908
  363MOL0     C47844   0.714   7.193   1.524  0.2793  0.3533 -1.5699
  363MOL0     C47845   0.756   7.343   1.508 -0.4749  0.4018 -0.0521
  363MOL0     C47846   0.795   7.405   1.632 -0.0039 -0.6123 -0.1911
  363MOL0     C47847   0.887   7.330   1.712 -0.8968 -0.3351  0.3211
  363MOL0     C47848   0.969   7.267   1.778 -0.2163  0.3209  0.7545
  363MOL0     C47849   0.554   7.033   1.155  0.6111  0.7729 -0.0698
  363MOL0     C47850   0.484   6.983   1.042 -0.3115  0.9303 -1.0379
  363MOL0     H47851   0.047   6.770   0.937 -2.6713 -0.0940  0.5358
  363MOL0     H47852  -0.102   6.644   0.786  1.7137  0.1060  2.7558
  363MOL0     H47853  -0.294   6.621   0.676 -0.7607 -1.5892  0.2215
  363MOL0     H47854  -0.158   6.530   0.608 -0.3061  1.0587  1.0778
  363MOL0     H47855  -0.356   6.441   0.508  0.4091 -0.7403 -2.9240
  363MOL0     H47856  -0.282   6.538   0.384 -1.4241 -1.7495 -1.7301
  363MOL0     H47857  -0.462   6.728   0.467 -4.7436  0.3579 -1.6725
  363MOL0     H47858  -0.527   6.590   0.553  1.4189 -1.0401  1.1725
  363MOL0     H47859  -0.489   6.643   0.259 -0.7911  1.7710  0.4521
  363MOL0     H47860  -0.553   6.483   0.319 -2.8243  0.7349 -0.8191
  363MOL0     H47861  -0.662   6.768   0.383 -0.5597  0.4684  1.0219
  363MOL0     H47862  -0.734   6.626   0.442 -3.6187  3.0529 -0.8542
  363MOL0     H47863  -0.722   6.684   0.138  0.6725  0.6125  0.5987
  363MOL0     H47864  -0.847   6.746   0.240  1.6438  0.9365  0.9976
  363MOL0     H47865  -0.748   6.457   0.202 -1.1046 -1.7979  1.2202
  363MOL0     H47866  -0.886   6.502   0.305  1.0590 -1.3350  0.8620
  363MOL0     H47867  -0.960   6.431   0.051 -2.0078 -0.1161  1.0556
  363MOL0     H47868  -0.868   6.576   0.007 -1.8593 -0.6701 -1.3320
  363MOL0     H47869  -1.184   6.533  -0.080  1.0967  2.4516 -0.7346
  363MOL0     H47870  -1.376   6.804  -0.070 -0.6181 -0.1086 -1.7157
  363MOL0     H47871  -1.456   6.755   0.073  2.4878 -2.6207  2.6443
  363MOL0     H47872  -1.480   6.508  -0.014  1.1040 -0.6311 -0.2234
  363MOL0     H47873  -1.403   6.573  -0.171  0.7326 -0.2457  0.0371
  363MOL0     H47874  -1.618   6.710  -0.037 -0.1162 -1.3560  1.7106
  363MOL0     H47875  -1.585   6.695  -0.221 -0.9043 -2.5974 -1.7399
  363MOL0     H47876  -1.712   6.500  -0.028  0.6143  0.4258  0.9576
  363MOL0     H47877  -1.690   6.463  -0.201  0.5215  1.0162 -0.1590
  363MOL0     H47878  -1.886   6.356  -0.057 -1.1161 -1.0365  0.7502
  363MOL0     H47879  -2.090   6.287   0.008  0.2959 -0.6277 -1.2310
  363MOL0     H47880  -2.648   6.665  -0.032  0.1695 -0.1710  0.7691
  363MOL0     H47881  -2.880   6.621   0.038 -0.4470 -0.4396 -0.0291
  363MOL0     H47882  -2.990   6.186   0.158  1.8052 -1.4689 -1.3204
  363MOL0     H47883  -2.984   6.199  -0.008 -0.5140  0.1009  0.8535
  363MOL0     H47884  -3.220   6.307   0.165 -0.0461 -2.1398  1.2413
  363MOL0     H47885  -3.212   6.141   0.101 -2.6875 -0.4205 -3.0015
  363MOL0     H47886  -3.229   6.252  -0.137 -1.1401 -1.6246  0.5427
  363MOL0     H47887  -3.229   6.405  -0.056  1.3140  0.3862  0.9202
  363MOL0     H47888  -3.449   6.316  -0.130 -0.2576  1.5775 -0.0528
  363MOL0     H47889  -3.441   6.189  -0.002  1.5910  0.0634  3.3220
  363MOL0     H47890  -3.469   6.491   0.049 -1.9162 -0.0541 -0.6135
  363MOL0     H47891  -3.398   6.392   0.169  1.1507  2.1052 -1.2846
  363MOL0     H47892  -3.639   6.405   0.224  0.2419  0.1820  0.4851
  363MOL0     H47893  -3.591   6.240   0.160 -1.5051 -0.0911  0.0834
  363MOL0     H47894  -3.720   6.469   0.017 -0.4847  0.3267  3.3962
  363MOL0     H47895  -3.679   6.308  -0.071 -4.5325 -1.5771 -0.8069
  363MOL0     H47896  -3.816   6.179   0.067  1.5306  0.7258 -2.1233
  363MOL0     H47897  -3.907   6.291  -0.032 -1.6931 -3.3159  0.6046
  363MOL0     H47898  -2.783   6.197   0.036  0.6797 -1.2446 -2.2187
  363MOL0     H47899  -2.577   6.237  -0.044 -2.9640 -3.0447  3.4554
  363MOL0     H47900  -2.268   6.671  -0.124 -0.4898 -0.4997  1.9328
  363MOL0     H47901  -2.041   6.753  -0.150 -1.4758  0.0333  2.2534
  363MOL0     H47902  -0.062   6.958   0.492 -2.4207  0.7676  1.0042
  363MOL0     H47903   0.118   7.059   0.622 -0.7240  1.0527 -2.1464
  363MOL0     H47904   0.211   7.186   1.043  0.8449  1.2303 -1.1069
  363MOL0     H47905   0.335   7.288   1.229 -0.1240  1.4446 -0.1751
  363MOL0     H47906   0.769   7.135   1.328  0.0964  0.4107  0.4064
  363MOL0     H47907   0.655   7.024   1.422 -0.9405  1.3225  3.1664
  363MOL0     H47908   0.629   7.183   1.593  2.5170 -1.5216  1.1728
  363MOL0     H47909   0.785   7.133   1.583 -0.9673  0.9573  0.6890
  363MOL0     H47910   0.666   7.391   1.468 -2.3825 -1.9473  1.1448
  363MOL0     H47911   0.835   7.353   1.434 -1.0488  1.7193 -0.5143
  363MOL0     H47912   0.849   7.496   1.603 -1.6809  0.0573 -1.3724
  363MOL0     H47913   0.705   7.406   1.693  0.5207  2.1300  0.6451
  363MOL0     H47914   1.036   7.202   1.830  1.2968  0.4096 -0.9951
  363MOL0     H47915   0.650   6.990   1.183  0.3423  0.9938  1.2427
  363MOL0     H47916   0.544   6.918   0.980 -0.8922 -0.5733 -0.0841
  364MOL0     O47917   1.322   1.128   7.974  0.6431 -0.1775 -0.3502
  364MOL0     C47918   1.382   1.024   7.995  0.0233 -0.7509  1.2627
  364MOL0     O47919   1.323   0.905   8.010 -0.4075 -0.6063  0.0816
  364MOL0     C47920   1.193   0.894   8.055 -0.3833  0.2947 -0.4846
  364MOL0     C47921   1.120   0.988   8.126  0.2104 -0.7364  0.3703
  364MOL0     C47922   1.009   0.942   8.202 -0.1004  0.1262  0.3096
  364MOL0     C47923   0.967   0.803   8.199 -0.5959 -0.3348 -0.0289
  364MOL0     O47924   0.863   0.741   8.267  0.4346  0.2724 -0.0318
  364MOL0     C47925   0.813   0.815   8.377  0.7546  0.5338 -0.0545
  364MOL0     C47926   0.709   0.914   8.327  0.4574  1.3320 -0.2033
  364MOL0     C47927   0.588   0.845   8.256  0.1854 -0.0846  0.5222
  364MOL0     C47928   0.488   0.944   8.212 -0.0633 -0.6229  0.1442
  364MOL0     C47929   0.381   0.865   8.138  0.0361 -0.4937  0.5597
  364MOL0     C47930   0.272   0.964   8.086  0.2708 -0.0316 -0.1112
  364MOL0     C47931   0.144   0.890   8.051 -0.7854 -0.0377 -0.2418
  364MOL0     C47932   0.052   0.987   7.986 -0.1930  0.0032 -0.6503
  364MOL0     N47933  -0.082   0.925   7.955 -0.4003 -0.2947  0.1007
  364MOL0     C47934  -0.145   0.833   8.035  0.3750 -0.3613 -0.1011
  364MOL0     C47935  -0.252   0.797   7.962 -0.0540 -0.3603 -0.4537
  364MOL0     C47936  -0.360   0.717   8.018  0.9743  0.5077 -0.3280
  364MOL0     C47937  -0.343   0.573   7.982 -0.0765 -0.1371 -0.3055
  364MOL0     C47938  -0.369   0.538   7.830  0.6060  0.0907  0.5166
  364MOL0     C47939  -0.309   0.408   7.774  0.4951  1.4866 -0.1245
  364MOL0     O47940  -0.359   0.296   7.835 -0.1662  0.3837  0.2455
  364MOL0     C47941  -0.491   0.270   7.817 -0.2980 -0.4445  0.3230
  364MOL0     C47942  -0.571   0.249   7.929  0.2645  0.1794 -0.3192
  364MOL0     C47943  -0.704   0.213   7.924  0.3118 -0.8569 -0.1087
  364MOL0     C47944  -0.771   0.214   7.797 -0.6066 -0.4937  0.1104
  364MOL0     C47945  -0.921   0.184   7.785 -0.8198 -1.4315  0.0491
  364MOL0     O47946  -0.976   0.172   7.657  0.6609  0.3885  0.0589
  364MOL0     C47947  -1.098   0.122   7.664  0.1507  0.4588 -0.4184
  364MOL0     C47948  -1.123  -0.014   7.662  0.1073  0.3084  0.3718
  364MOL0     C47949  -1.250  -0.069   7.666 -0.7324 -0.8119 -0.8218
  364MOL0     C47950  -1.361   0.020   7.665 -0.3748 -0.2392 -0.4103
  364MOL0     O47951  -1.486  -0.041   7.685  0.3372  0.0667  0.0965
  364MOL0     C47952  -1.596   0.044   7.667  0.5818 -0.8217  0.1339
  364MOL0     C47953  -1.709  -0.027   7.601 -0.0238  0.3768 -0.7894
  364MOL0     C47954  -1.844   0.050   7.628 -0.4804 -0.4983 -0.2397
  364MOL0     C47955  -1.963  -0.007   7.543  0.3046 -0.5094  0.7174
  364MOL0     C47956  -2.004  -0.149   7.579  1.5560  0.3303  0.0440
  364MOL0     C47957  -2.129  -0.197   7.509 -0.2767  0.3316  0.4700
  364MOL0     C47958  -2.156  -0.326   7.575  0.1692  0.0328  0.3179
  364MOL0     C47959  -2.297  -0.383   7.556  0.3911  0.3800  0.7624
  364MOL0    Cl47960  -2.395  -0.330   7.699  0.0624  0.7135 -0.3888
  364MOL0     C47961  -1.332   0.157   7.684  0.4414  0.2225 -0.2571
  364MOL0     C47962  -1.207   0.211   7.675 -0.3797  0.2857 -0.8044
  364MOL0     O47963  -0.985   0.150   7.887  0.2880  0.0947 -0.7225
  364MOL0     C47964  -0.692   0.259   7.684  0.6079 -0.3180 -0.5057
  364MOL0     C47965  -0.558   0.277   7.688 -0.3936 -0.2135  0.2433
  364MOL0     N47966  -0.262   0.866   7.843 -1.1531 -0.1891 -0.9219
  364MOL0     N47967  -0.153   0.942   7.842 -0.3132  0.3990 -0.3506
  364MOL0     C47968   1.025   0.719   8.110  0.6755 -0.1663  0.3677
  364MOL0     C47969   1.141   0.761   8.037 -0.1671 -0.6964  0.0511
  364MOL0     C47970   1.531   1.030   7.981 -1.1491  0.3930 -0.6414
  364MOL0     C47971   1.599   1.150   7.999 -0.5771 -0.2868 -0.1338
  364MOL0     C47972   1.740   1.151   8.004 -0.0458 -0.2508  0.1495
  364MOL0     C47973   1.818   1.028   7.986 -0.1217 -0.1107  0.6257
  364MOL0     O47974   1.957   1.011   7.985 -0.7731  0.3532 -0.1778
  364MOL0     C47975   2.042   1.114   8.051 -0.3197 -0.3344  0.2783
  364MOL0     C47976   2.023   1.119   8.201 -0.7879  0.0085  0.3762
  364MOL0     C47977   2.039   0.975   8.269  0.2943 -0.7424  0.7533
  364MOL0     C47978   2.021   0.977   8.427 -0.0071  0.9184 -0.0834
  364MOL0     C47979   2.064   0.848   8.476 -0.4784 -0.0577 -1.5620
  364MOL0     C47980   2.100   0.745   8.547 -0.1264 -0.1316  0.9405
  364MOL0     C47981   1.747   0.910   7.957 -0.0094  0.2527 -0.2143
  364MOL0     C47982   1.610   0.908   7.955 -0.0040 -1.0088 -0.0921
  364MOL0     H47983   1.170   1.083   8.141 -0.7746  0.8078 -4.5251
  364MOL0     H47984   0.961   1.011   8.270 -4.0554 -2.5271  0.5402
  364MOL0     H47985   0.893   0.868   8.430  0.6288 -1.4853  2.3422
  364MOL0     H47986   0.763   0.746   8.445 -1.0995  0.4233 -1.4494
  364MOL0     H47987   0.764   0.986   8.265 -0.7854  0.4041 -2.5261
  364MOL0     H47988   0.669   0.966   8.414  1.1609 -0.4069  1.1975
  364MOL0     H47989   0.534   0.782   8.328 -1.8199 -0.1006 -0.9096
  364MOL0     H47990   0.622   0.785   8.171  0.1931  1.0842 -0.3084
  364MOL0     H47991   0.447   0.990   8.303 -1.0900  0.7841 -0.9913
  364MOL0     H47992   0.523   1.030   8.155 -3.4451  0.9465  0.1913
  364MOL0     H47993   0.335   0.809   8.220 -2.3539  0.3908 -0.0701
  364MOL0     H47994   0.423   0.808   8.055  1.8066  0.9540  0.3915
  364MOL0     H47995   0.313   1.014   7.998  1.4977  1.2652  1.1494
  364MOL0     H47996   0.247   1.030   8.170 -0.5271 -1.7414  1.0617
  364MOL0     H47997   0.154   0.809   7.979 -2.7936 -0.8947  0.3485
  364MOL0     H47998   0.098   0.849   8.142  3.7917 -0.2212  2.2914
  364MOL0     H47999   0.091   1.020   7.889 -3.6296 -0.4172 -2.3405
  364MOL0     H48000   0.027   1.072   8.049  0.2478  0.6152 -1.2777
  364MOL0     H48001  -0.117   0.801   8.135 -1.4444 -1.4018  0.1193
  364MOL0     H48002  -0.458   0.741   7.976  0.5477 -1.4556 -0.5712
  364MOL0     H48003  -0.371   0.720   8.127  1.7933  1.2946 -0.2578
  364MOL0     H48004  -0.404   0.505   8.042  0.9889 -0.0044  0.9707
  364MOL0     H48005  -0.238   0.543   7.998 -1.1303 -3.9326  0.6233
  364MOL0     H48006  -0.477   0.544   7.813  0.5006  0.5009  1.2659
  364MOL0     H48007  -0.328   0.613   7.762 -2.2281  0.2162 -1.1946
  364MOL0     H48008  -0.200   0.399   7.779  0.2912 -2.5038  1.9119
  364MOL0     H48009  -0.333   0.414   7.668 -0.1877  3.6042  0.1072
  364MOL0     H48010  -0.526   0.236   8.027 -1.2430 -1.5954  0.2058
  364MOL0     H48011  -0.754   0.189   8.018 -1.2822  2.6728  0.1271
  364MOL0     H48012  -1.036  -0.079   7.671  0.4274  0.3342 -1.9676
  364MOL0     H48013  -1.256  -0.176   7.679  0.1520 -0.7278  0.5299
  364MOL0     H48014  -1.566   0.131   7.608  0.2071  1.4384  3.0404
  364MOL0     H48015  -1.629   0.073   7.768  1.0477  1.3170 -0.2789
  364MOL0     H48016  -1.715  -0.130   7.639 -2.1218  0.4104 -0.9285
  364MOL0     H48017  -1.696  -0.033   7.493  2.3830 -1.1100 -0.4963
  364MOL0     H48018  -1.817   0.153   7.601  1.4921 -0.8757  0.1045
  364MOL0     H48019  -1.877   0.046   7.732 -1.4881 -1.3220 -0.5713
  364MOL0     H48020  -2.051   0.057   7.558  0.0188 -0.8784  0.6275
  364MOL0     H48021  -1.928  -0.003   7.440 -1.7982  1.6312 -0.0115
  364MOL0     H48022  -2.022  -0.146   7.687 -0.6480  1.3043 -0.3035
  364MOL0     H48023  -1.925  -0.220   7.555  0.2072 -0.4673 -2.3468
  364MOL0     H48024  -2.106  -0.222   7.404 -0.3235 -3.7746  1.2778
  364MOL0     H48025  -2.218  -0.134   7.516 -2.1602 -2.2843  2.1409
  364MOL0     H48026  -2.086  -0.405   7.547  1.1585  1.3716 -1.1158
  364MOL0     H48027  -2.144  -0.309   7.683 -0.1498 -0.8191  0.4960
  364MOL0     H48028  -2.302  -0.491   7.545 -0.6053  0.4001  0.9077
  364MOL0     H48029  -2.340  -0.339   7.466 -1.9376 -0.2957  1.4449
  364MOL0     H48030  -1.413   0.227   7.704 -1.1016 -1.7163  0.5852
  364MOL0     H48031  -1.192   0.316   7.698 -1.4031  0.4605 -0.8852
  364MOL0     H48032  -0.743   0.263   7.588 -1.1960 -1.8913  0.3045
  364MOL0     H48033  -0.513   0.307   7.594  0.4996  0.6734  0.9250
  364MOL0     H48034   0.982   0.621   8.095 -2.3933  1.6257 -5.6896
  364MOL0     H48035   1.204   0.693   7.981 -3.0382 -1.8085 -2.0334
  364MOL0     H48036   1.554   1.245   8.027  0.9536  0.3672  0.2304
  364MOL0     H48037   1.787   1.247   8.024 -0.8286 -0.0409  1.0400
  364MOL0     H48038   2.011   1.209   8.007 -1.7734 -0.4550  1.0056
  364MOL0     H48039   2.147   1.094   8.027  0.1687  1.7538  0.4698
  364MOL0     H48040   2.104   1.184   8.237  0.2818 -0.7122 -0.6529
  364MOL0     H48041   1.931   1.163   8.241  0.1831  2.1912  0.3379
  364MOL0     H48042   2.127   0.921   8.234 -1.6462 -3.2908 -0.5580
  364MOL0     H48043   1.955   0.915   8.234  0.9881 -0.5379 -1.3579
  364MOL0     H48044   2.082   1.053   8.477 -0.7475  0.3556  1.7639
  364MOL0     H48045   1.918   1.001   8.453  0.7210  2.1809  1.8566
  364MOL0     H48046   2.118   0.655   8.602 -0.4081 -1.9056 -1.7147
  364MOL0     H48047   1.808   0.821   7.950  0.5098  0.3468  2.2398
  364MOL0     H48048   1.555   0.814   7.957 -0.6480 -0.6485 -0.4181
  365MOL0     O48049   3.806   5.619   8.978 -0.4002 -0.3009  0.2153
  365MOL0     C48050   3.893   5.635   9.066 -0.0519  0.5159  0.5992
  365MOL0     O48051   3.870   5.641   9.204 -0.4116 -0.7279  0.1627
  365MOL0     C48052   3.736   5.628   9.234 -0.2273 -1.1041 -0.3432
  365MOL0     C48053   3.680   5.523   9.312  0.1291  0.3229 -0.1214
  365MOL0     C48054   3.541   5.529   9.342 -0.9344 -0.5686 -0.9597
  365MOL0     C48055   3.468   5.650   9.316 -0.3613 -0.0789  0.1684
  365MOL0     O48056   3.349   5.677   9.375  0.4949 -0.1599  0.1985
  365MOL0     C48057   3.288   5.584   9.464 -0.6450 -0.0479  0.1736
  365MOL0     C48058   3.203   5.483   9.388 -0.3355  0.3555 -0.4503
  365MOL0     C48059   3.083   5.451   9.484  0.6130  0.1877  0.9165
  365MOL0     C48060   2.979   5.351   9.416 -0.0539 -0.4231  0.9260
  365MOL0     C48061   2.857   5.333   9.512 -0.3419 -0.1179 -0.7977
  365MOL0     C48062   2.794   5.470   9.554  0.2975 -0.4482  0.3018
  365MOL0     C48063   2.650   5.455   9.609 -0.1130  0.0455  0.1432
  365MOL0     C48064   2.644   5.416   9.760 -0.2842 -1.1744 -0.0869
  365MOL0     N48065   2.509   5.390   9.805  0.4861 -0.3813  0.5182
  365MOL0     C48066   2.426   5.293   9.750 -0.3526  0.3188  0.5019
  365MOL0     C48067   2.308   5.296   9.823 -0.5569  0.0600  1.0574
  365MOL0     C48068   2.174   5.215   9.800 -0.2625 -0.4551 -0.3977
  365MOL0     C48069   2.096   5.270   9.682 -0.2886  0.8214 -0.1582
  365MOL0     C48070   2.160   5.254   9.542 -1.1509 -0.2336 -0.0482
  365MOL0     C48071   2.054   5.218   9.446  1.2432 -0.7529 -0.2062
  365MOL0     O48072   1.985   5.098   9.476  0.1876 -0.5090 -0.2051
  365MOL0     C48073   1.850   5.106   9.473  0.3782 -0.5427  0.4991
  365MOL0     C48074   1.771   5.183   9.546 -0.7196  0.4285  0.7458
  365MOL0     C48075   1.633   5.163   9.538  0.3823 -0.2040 -0.3327
  365MOL0     C48076   1.575   5.079   9.441 -0.1100 -0.0960  0.3170
  365MOL0     C48077   1.430   5.061   9.428  0.5197  0.0481 -0.0699
  365MOL0     O48078   1.376   4.936   9.457 -0.0029 -1.0958 -0.6028
  365MOL0     C48079   1.249   4.945   9.508  0.9134  0.8203 -0.7027
  365MOL0     C48080   1.127   4.946   9.430 -0.3178 -0.3381  0.7557
  365MOL0     C48081   1.013   4.918   9.502  0.7432  0.1574 -0.2707
  365MOL0     C48082   1.008   4.877   9.633  0.7408  0.7033 -0.2834
  365MOL0     O48083   0.893   4.835   9.689 -0.2126  0.6667 -0.7717
  365MOL0     C48084   0.766   4.901   9.657  0.2418 -0.6145  0.3420
  365MOL0     C48085   0.674   4.883   9.780  0.6680 -0.4880  0.3936
  365MOL0     C48086   0.546   4.965   9.749 -0.2785  0.1514  0.1083
  365MOL0     C48087   0.499   5.017   9.886 -0.3022 -0.1434  0.5216
  365MOL0     C48088   0.349   5.044   9.880  0.3690 -0.5502  0.5161
  365MOL0     C48089   0.300   5.166   9.804  0.1243 -0.6078 -0.0785
  365MOL0     C48090   0.151   5.192   9.797 -1.0942  0.3297  0.0043
  365MOL0     C48091   0.126   5.331   9.734  0.2467  0.2134  0.5570
  365MOL0    Cl48092  -0.049   5.349   9.710  0.1668  0.5086  0.2257
  365MOL0     C48093   1.123   4.879   9.706  0.3577  0.7380 -0.0234
  365MOL0     C48094   1.240   4.908   9.647  0.3019  0.1956 -0.0309
  365MOL0     O48095   1.367   5.164   9.424 -0.3635  0.1074  0.6818
  365MOL0     C48096   1.659   5.004   9.361  0.1745  0.0574  0.7041
  365MOL0     C48097   1.798   5.018   9.376  0.2014 -0.1684  0.4199
  365MOL0     N48098   2.326   5.389   9.916  0.6283 -0.1675  0.1424
  365MOL0     N48099   2.446   5.443   9.910  0.7179  0.4932  0.1481
  365MOL0     C48100   3.523   5.749   9.240  0.1783 -0.1569  0.4111
  365MOL0     C48101   3.664   5.743   9.214  1.0065  0.1584 -0.3706
  365MOL0     C48102   4.035   5.622   9.026 -0.9923  0.2178  0.3539
  365MOL0     C48103   4.073   5.644   8.892 -0.1423 -0.8154  0.0306
  365MOL0     C48104   4.201   5.642   8.852 -1.6526  0.3111  0.5662
  365MOL0     C48105   4.304   5.613   8.937 -0.6640  0.5023  0.3661
  365MOL0     O48106   4.431   5.620   8.879 -0.4890 -0.3292 -0.2634
  365MOL0     C48107   4.535   5.605   8.970 -0.5783 -0.2947  0.3481
  365MOL0     C48108   4.674   5.620   8.907  0.3958 -0.8116  0.7755
  365MOL0     C48109   4.716   5.509   8.803 -0.2575 -0.2765 -0.7361
  365MOL0     C48110   4.706   5.365   8.870 -0.3130  0.7961 -0.5414
  365MOL0     C48111   4.821   5.286   8.827 -0.2246 -0.0421 -0.2538
  365MOL0     C48112   4.910   5.217   8.790 -1.0308 -0.2761  0.3097
  365MOL0     C48113   4.271   5.594   9.071 -0.0177 -0.3626 -0.2081
  365MOL0     C48114   4.139   5.605   9.115 -0.2954 -0.3147  0.6577
  365MOL0     H48115   3.736   5.432   9.333  1.0331  1.2713  1.8089
  365MOL0     H48116   3.494   5.440   9.382  0.7090 -1.3415 -0.6808
  365MOL0     H48117   3.223   5.644   9.529 -0.1384  2.7952 -1.7331
  365MOL0     H48118   3.361   5.539   9.532  0.2848  1.2775  0.1007
  365MOL0     H48119   3.265   5.399   9.356  1.0648  1.5473 -0.9362
  365MOL0     H48120   3.157   5.530   9.301 -1.1575  0.2044 -0.1147
  365MOL0     H48121   3.029   5.540   9.518  0.9373  0.1088  1.6657
  365MOL0     H48122   3.133   5.399   9.567  0.1325  0.7183  1.5535
  365MOL0     H48123   2.936   5.386   9.322  0.4110 -1.3819  0.3448
  365MOL0     H48124   3.030   5.257   9.393 -0.9812 -0.4893 -1.0170
  365MOL0     H48125   2.900   5.296   9.605  4.6647  3.4588 -1.2402
  365MOL0     H48126   2.794   5.261   9.458  2.7363 -2.1457 -2.0218
  365MOL0     H48127   2.788   5.518   9.456  1.4953  0.4942  0.6650
  365MOL0     H48128   2.857   5.529   9.621  1.7394 -0.4573 -0.9927
  365MOL0     H48129   2.590   5.541   9.579 -0.5527 -0.7481 -1.3513
  365MOL0     H48130   2.605   5.375   9.549  2.4128  0.1291 -2.0448
  365MOL0     H48131   2.666   5.511   9.811 -3.4200 -0.5676  0.3391
  365MOL0     H48132   2.717   5.338   9.784  1.5155  0.3141 -0.4633
  365MOL0     H48133   2.447   5.228   9.665  1.4623  1.9140 -0.3383
  365MOL0     H48134   2.113   5.230   9.889  3.0359 -0.4359  2.0509
  365MOL0     H48135   2.197   5.110   9.784  3.8139  0.6150 -3.3566
  365MOL0     H48136   2.080   5.378   9.690 -0.3358  1.2040 -3.8539
  365MOL0     H48137   2.004   5.211   9.687  0.2259  0.0929  1.3190
  365MOL0     H48138   2.199   5.351   9.508  0.8842 -0.7782  0.5672
  365MOL0     H48139   2.247   5.188   9.547 -2.0223 -1.4557 -0.5556
  365MOL0     H48140   2.090   5.214   9.342 -3.6108 -1.1344 -2.1565
  365MOL0     H48141   1.985   5.303   9.441 -2.3888 -3.3634  1.1786
  365MOL0     H48142   1.821   5.258   9.607 -0.2101  1.3723 -0.7722
  365MOL0     H48143   1.586   5.225   9.614  2.1261 -1.4144  1.8277
  365MOL0     H48144   1.127   4.972   9.325 -1.7107  2.6449  1.3896
  365MOL0     H48145   0.923   4.908   9.443  0.2607 -2.6780  0.8235
  365MOL0     H48146   0.711   4.862   9.571  2.0398  1.7756 -2.0486
  365MOL0     H48147   0.793   5.005   9.638  3.2398 -1.8732 -3.3561
  365MOL0     H48148   0.733   4.906   9.870  2.6167 -1.9192 -0.4320
  365MOL0     H48149   0.642   4.780   9.793 -0.4127 -0.3229 -0.7915
  365MOL0     H48150   0.467   4.903   9.707  0.8850 -0.0684 -1.9105
  365MOL0     H48151   0.570   5.052   9.687  1.2694  1.8435  2.8411
  365MOL0     H48152   0.519   4.937   9.958  2.3607  0.0239  0.0856
  365MOL0     H48153   0.566   5.101   9.906 -1.4424  1.0494 -0.4738
  365MOL0     H48154   0.310   5.066   9.980  2.5319 -0.1208  1.3165
  365MOL0     H48155   0.300   4.953   9.842  2.8033 -0.5936 -2.9855
  365MOL0     H48156   0.329   5.168   9.698  0.6823 -0.7134  0.0702
  365MOL0     H48157   0.348   5.252   9.851 -0.2037 -0.8612  0.7232
  365MOL0     H48158   0.092   5.114   9.749 -0.9744  0.6582 -0.6961
  365MOL0     H48159   0.120   5.202   9.901  2.6648  1.8288  1.1610
  365MOL0     H48160   0.168   5.336   9.632  0.6099  0.2762  0.7078
  365MOL0     H48161   0.172   5.413   9.789  3.5843 -1.0208 -0.1404
  365MOL0     H48162   1.102   4.857   9.810 -3.0542 -0.0151 -0.7666
  365MOL0     H48163   1.330   4.885   9.703 -0.3266 -2.0885  0.1497
  365MOL0     H48164   1.629   4.939   9.280  1.6805  2.2838 -1.8358
  365MOL0     H48165   1.867   4.955   9.322  0.1662 -1.1112  1.4318
  365MOL0     H48166   3.478   5.845   9.219  1.7966  1.0413  2.0867
  365MOL0     H48167   3.715   5.830   9.174  1.1212 -0.6626 -2.0772
  365MOL0     H48168   3.997   5.656   8.816 -0.8802  0.0469  0.8737
  365MOL0     H48169   4.226   5.664   8.749 -1.3070  2.0892  0.9970
  365MOL0     H48170   4.518   5.507   9.015  0.6109  0.3807  2.3763
  365MOL0     H48171   4.535   5.675   9.053 -1.2401  0.9444 -0.6550
  365MOL0     H48172   4.669   5.715   8.854  1.4645 -0.7614  0.7419
  365MOL0     H48173   4.735   5.639   8.995 -0.5092 -0.9125  1.4396
  365MOL0     H48174   4.818   5.527   8.769  0.2364 -3.1834 -1.0105
  365MOL0     H48175   4.656   5.514   8.712  1.4068  5.0897 -1.8925
  365MOL0     H48176   4.704   5.365   8.979  1.1885 -2.1230 -0.3946
  365MOL0     H48177   4.611   5.315   8.845 -0.1187 -0.9368  1.8372
  365MOL0     H48178   4.997   5.177   8.743 -2.0191 -1.0003 -0.9655
  365MOL0     H48179   4.352   5.587   9.143 -1.1620  0.6538  1.2272
  365MOL0     H48180   4.122   5.583   9.220  0.4153  1.8190  1.2590
  366MOL0     O48181   7.245   4.131   5.710  1.3196  0.1704  0.0809
  366MOL0     C48182   7.320   4.034   5.689 -0.2430 -0.6441  0.6199
  366MOL0     O48183   7.287   3.904   5.685 -0.4399  0.2428 -0.5863
  366MOL0     C48184   7.186   3.857   5.766  0.6697 -0.8062 -0.0634
  366MOL0     C48185   7.166   3.721   5.763 -0.1240  0.3723  0.2309
  366MOL0     C48186   7.067   3.658   5.843  0.6791  0.4425 -0.6633
  366MOL0     C48187   6.972   3.732   5.913  0.4478 -0.4431 -0.3351
  366MOL0     O48188   6.869   3.666   5.981 -0.4225  0.0753  0.6082
  366MOL0     C48189   6.783   3.746   6.055  0.6234  0.7568 -0.3704
  366MOL0     C48190   6.691   3.649   6.126  0.4128 -0.5139 -0.4181
  366MOL0     C48191   6.591   3.721   6.215 -0.6723  0.0624 -0.3328
  366MOL0     C48192   6.497   3.811   6.134 -0.6494 -0.8906 -0.1659
  366MOL0     C48193   6.374   3.841   6.220 -0.2261  0.2151 -0.4646
  366MOL0     C48194   6.288   3.944   6.151  0.0095 -0.3502 -0.0429
  366MOL0     C48195   6.356   4.075   6.145 -0.0125 -0.3781 -0.7163
  366MOL0     C48196   6.260   4.188   6.100 -0.0002  0.6431 -0.5053
  366MOL0     N48197   6.316   4.314   6.146 -0.2709  0.0888 -0.9396
  366MOL0     C48198   6.426   4.382   6.086 -0.3360  0.0473  0.1312
  366MOL0     C48199   6.428   4.497   6.159 -0.4892  0.9210 -0.1075
  366MOL0     C48200   6.538   4.603   6.144  0.5404 -0.5030  0.3278
  366MOL0     C48201   6.481   4.743   6.170 -0.0692  0.0435  0.7108
  366MOL0     C48202   6.509   4.810   6.302  0.2968  0.6960  1.2995
  366MOL0     C48203   6.450   4.952   6.303 -0.0487  0.8379  0.5467
  366MOL0     O48204   6.434   5.000   6.433  0.1716 -0.2155 -0.7618
  366MOL0     C48205   6.536   5.062   6.502  0.3898 -0.3288  0.0491
  366MOL0     C48206   6.524   5.096   6.644  0.6450  0.1074 -0.3889
  366MOL0     C48207   6.631   5.159   6.711 -0.2694  1.0976 -0.1789
  366MOL0     C48208   6.753   5.186   6.657 -0.7446 -1.2633  0.1150
  366MOL0     C48209   6.871   5.223   6.741 -0.7992 -1.1730 -0.1947
  366MOL0     O48210   6.990   5.232   6.672 -0.3154  0.1960  0.0619
  366MOL0     C48211   7.114   5.257   6.735  0.7221  0.2674 -1.0260
  366MOL0     C48212   7.221   5.171   6.717  0.4395 -0.0662  0.9490
  366MOL0     C48213   7.341   5.193   6.782  0.1067  0.9523 -0.1571
  366MOL0     C48214   7.364   5.281   6.873  0.8245 -0.0594 -0.4525
  366MOL0     O48215   7.478   5.302   6.937 -0.0527 -0.1384 -0.5769
  366MOL0     C48216   7.600   5.251   6.895 -0.4665  0.3321 -0.7857
  366MOL0     C48217   7.706   5.243   7.007  0.3578  0.1130 -0.8669
  366MOL0     C48218   7.728   5.374   7.083 -0.0179 -0.1240 -0.3715
  366MOL0     C48219   7.872   5.366   7.150  0.4218  0.8551  0.1947
  366MOL0     C48220   7.919   5.503   7.211 -0.1046 -0.4691 -0.4502
  366MOL0     C48221   8.046   5.478   7.304 -0.9090 -0.6724 -0.6782
  366MOL0     C48222   8.135   5.616   7.331 -0.1338 -0.4630  0.0718
  366MOL0     C48223   8.274   5.601   7.405 -0.3746  0.2164  1.2234
  366MOL0    Cl48224   8.311   5.722   7.523 -0.2830  0.1017 -0.0706
  366MOL0     C48225   7.262   5.378   6.886 -0.3065  0.0585  0.1372
  366MOL0     C48226   7.137   5.362   6.822  0.1177  0.7085 -0.2928
  366MOL0     O48227   6.862   5.228   6.866 -0.6682  0.0115  0.3653
  366MOL0     C48228   6.765   5.156   6.525 -1.2131  0.0302 -0.6624
  366MOL0     C48229   6.661   5.100   6.446  0.0180  0.5547 -0.4204
  366MOL0     N48230   6.333   4.502   6.260 -0.6581  0.2138 -0.3871
  366MOL0     N48231   6.264   4.391   6.250  0.0906  0.7272  0.4031
  366MOL0     C48232   6.982   3.874   5.908  0.5871  0.3122  1.2214
  366MOL0     C48233   7.091   3.936   5.840 -0.4990  0.3008 -0.2593
  366MOL0     C48234   7.456   4.062   5.645 -0.3033 -0.0474 -0.4802
  366MOL0     C48235   7.515   4.188   5.661  0.6390 -0.3546  0.2878
  366MOL0     C48236   7.644   4.209   5.627 -0.0068 -0.3608  0.2478
  366MOL0     C48237   7.723   4.103   5.575  0.3766  0.1027 -0.5062
  366MOL0     O48238   7.859   4.112   5.558  0.6742 -0.2296 -0.2830
  366MOL0     C48239   7.942   4.190   5.641  0.5235 -0.1160 -0.0880
  366MOL0     C48240   8.082   4.205   5.568 -0.7489 -0.0765 -0.0396
  366MOL0     C48241   8.199   4.239   5.664  0.0988 -0.3769 -0.3371
  366MOL0     C48242   8.325   4.165   5.622 -0.2506 -0.2364  0.5002
  366MOL0     C48243   8.431   4.171   5.725  0.1643  0.0531 -0.0915
  366MOL0     C48244   8.519   4.184   5.805 -0.1726  0.7559  0.2043
  366MOL0     C48245   7.668   3.985   5.563  0.2071 -1.0047  0.4802
  366MOL0     C48246   7.532   3.961   5.587  0.9257  0.9605  1.2203
  366MOL0     H48247   7.215   3.642   5.707 -0.6641  0.8863 -0.9914
  366MOL0     H48248   7.065   3.549   5.848  0.1614  0.4022 -1.6339
  366MOL0     H48249   6.722   3.812   5.992 -0.2157  0.2918 -0.0656
  366MOL0     H48250   6.834   3.807   6.131 -1.1074 -0.0010  1.5058
  366MOL0     H48251   6.760   3.584   6.181  3.3775  1.4063 -1.5933
  366MOL0     H48252   6.632   3.584   6.060  0.6185  0.8989 -2.0792
  366MOL0     H48253   6.648   3.775   6.292 -1.1068 -1.5448  1.1691
  366MOL0     H48254   6.541   3.644   6.275  1.2126  0.5203  2.0051
  366MOL0     H48255   6.551   3.905   6.121  0.0083 -0.7110  3.0649
  366MOL0     H48256   6.469   3.768   6.037  0.6225 -1.2624 -0.3882
  366MOL0     H48257   6.403   3.870   6.321  0.1685 -1.9214  0.0951
  366MOL0     H48258   6.314   3.753   6.247  0.3235  0.5737  2.1530
  366MOL0     H48259   6.197   3.954   6.211  1.5524  2.0571  2.1099
  366MOL0     H48260   6.253   3.920   6.050 -1.0186  0.1617  0.1765
  366MOL0     H48261   6.395   4.099   6.244 -0.4674  1.2673 -0.8970
  366MOL0     H48262   6.443   4.060   6.080  0.8214 -1.2387  0.5471
  366MOL0     H48263   6.164   4.176   6.152  0.7802  1.4412  1.2337
  366MOL0     H48264   6.240   4.193   5.993  0.2228  1.3987 -0.5224
  366MOL0     H48265   6.488   4.355   6.001 -2.7484  0.4724 -1.8529
  366MOL0     H48266   6.576   4.601   6.042 -1.5993 -3.2595 -0.5349
  366MOL0     H48267   6.615   4.580   6.218  0.3965 -0.1320  0.5981
  366MOL0     H48268   6.373   4.740   6.153  0.1222 -0.1310 -0.6387
  366MOL0     H48269   6.523   4.807   6.091  0.4602  0.3226  1.2123
  366MOL0     H48270   6.464   4.752   6.383  1.2120  0.1760  1.4509
  366MOL0     H48271   6.614   4.817   6.330  0.4302  0.9156  0.7608
  366MOL0     H48272   6.349   4.951   6.263  1.1388 -1.7957 -2.8851
  366MOL0     H48273   6.499   5.026   6.238 -2.6490  2.4601  0.3161
  366MOL0     H48274   6.431   5.075   6.695 -0.0396  3.4847 -0.0527
  366MOL0     H48275   6.610   5.196   6.811 -2.8492 -1.7064  0.4776
  366MOL0     H48276   7.210   5.084   6.654 -1.5362  0.4726  0.4705
  366MOL0     H48277   7.420   5.121   6.763  0.7346  2.5026 -4.4777
  366MOL0     H48278   7.641   5.297   6.804  3.0435 -1.9129 -0.5065
  366MOL0     H48279   7.580   5.146   6.875 -0.7278  0.5940 -1.9721
  366MOL0     H48280   7.798   5.223   6.950 -0.0906 -0.5342 -1.3779
  366MOL0     H48281   7.686   5.161   7.075  2.5282  1.0656  1.0560
  366MOL0     H48282   7.648   5.406   7.150 -0.0101  5.8761 -2.6292
  366MOL0     H48283   7.726   5.459   7.013  1.6781  1.2360  1.1523
  366MOL0     H48284   7.884   5.289   7.226  1.3428  0.5359 -0.2616
  366MOL0     H48285   7.948   5.339   7.075 -0.8833  0.0097 -0.8639
  366MOL0     H48286   7.844   5.551   7.274  0.0360 -0.7005 -0.1037
  366MOL0     H48287   7.957   5.558   7.124 -0.5992 -2.8901 -2.2919
  366MOL0     H48288   8.105   5.403   7.252 -1.5825 -0.6964 -1.4191
  366MOL0     H48289   8.014   5.443   7.403  0.6439 -0.3778 -0.0243
  366MOL0     H48290   8.165   5.660   7.236  0.4193 -1.7632 -0.3827
  366MOL0     H48291   8.077   5.689   7.388  0.5165 -0.2035  0.4112
  366MOL0     H48292   8.365   5.588   7.346 -0.5664  0.5139  0.8529
  366MOL0     H48293   8.269   5.505   7.457  0.7250 -1.4224 -1.5153
  366MOL0     H48294   7.281   5.469   6.942 -1.5479  0.4529 -0.0514
  366MOL0     H48295   7.055   5.426   6.856 -2.3621 -2.5925  0.4502
  366MOL0     H48296   6.858   5.181   6.475 -1.1167 -0.3573 -0.6804
  366MOL0     H48297   6.687   5.074   6.344 -0.4990 -0.1487 -0.3788
  366MOL0     H48298   6.908   3.944   5.945 -0.5143 -1.1233  1.8011
  366MOL0     H48299   7.096   4.043   5.861  1.8146  0.5748 -1.8256
  366MOL0     H48300   7.468   4.272   5.711  3.0930  1.2873  0.0080
  366MOL0     H48301   7.693   4.304   5.645 -0.6391 -0.5624  3.7921
  366MOL0     H48302   7.956   4.126   5.728  0.0656 -0.8603 -0.5535
  366MOL0     H48303   7.906   4.292   5.659  0.2387 -0.1966 -0.1985
  366MOL0     H48304   8.107   4.112   5.516 -1.4701  1.0825 -2.5912
  366MOL0     H48305   8.075   4.278   5.487  1.9938 -1.0695 -1.3106
  366MOL0     H48306   8.185   4.218   5.771  1.0737  3.6968  0.7347
  366MOL0     H48307   8.218   4.346   5.661  3.7527 -0.8705  0.1957
  366MOL0     H48308   8.298   4.059   5.610 -0.2812 -0.1578 -0.1738
  366MOL0     H48309   8.363   4.198   5.524 -0.9536  0.5201  0.4824
  366MOL0     H48310   8.603   4.179   5.872  1.0514  0.7653 -1.2648
  366MOL0     H48311   7.736   3.905   5.537 -0.5939 -2.2788  2.0528
  366MOL0     H48312   7.504   3.859   5.563  1.4029  1.2645 -0.8544
  367MOL0     O48313   2.935   2.980   2.177  0.3774 -0.2426  0.5186
  367MOL0     C48314   2.972   2.872   2.225 -0.8236 -1.7184 -0.5589
  367MOL0     O48315   2.892   2.768   2.275  0.1971  0.0599  0.5465
  367MOL0     C48316   2.758   2.777   2.256  0.0264  0.5638  0.2495
  367MOL0     C48317   2.704   2.801   2.128  0.5085  0.1557 -0.6694
  367MOL0     C48318   2.567   2.800   2.114  0.4142  0.1114  0.1422
  367MOL0     C48319   2.477   2.760   2.216 -0.4964  0.4465  0.7130
  367MOL0     O48320   2.346   2.759   2.199  0.0024  0.0396  0.2134
  367MOL0     C48321   2.276   2.867   2.133  0.3033  0.4516  0.0786
  367MOL0     C48322   2.242   2.991   2.221  0.1028  0.0064 -0.8306
  367MOL0     C48323   2.131   2.961   2.317  0.3121 -0.3932 -0.8274
  367MOL0     C48324   1.986   2.930   2.268  0.3983 -0.2116 -0.2255
  367MOL0     C48325   1.893   2.905   2.387 -0.6687  0.4681 -1.0173
  367MOL0     C48326   1.751   2.857   2.353 -0.3069 -0.3329 -1.0581
  367MOL0     C48327   1.668   2.822   2.473 -0.4128 -0.0850 -0.6132
  367MOL0     C48328   1.722   2.700   2.547  0.8423  0.4042 -0.3453
  367MOL0     N48329   1.614   2.627   2.611 -0.7279  0.1177  0.0916
  367MOL0     C48330   1.555   2.671   2.721 -0.2746  0.3045  0.0949
  367MOL0     C48331   1.468   2.574   2.762 -0.1008  0.5182  0.1190
  367MOL0     C48332   1.368   2.574   2.876  0.0778  0.3499  0.1106
  367MOL0     C48333   1.230   2.533   2.821  0.7111  0.1061  0.6072
  367MOL0     C48334   1.119   2.547   2.935 -0.2070 -0.4685  0.4372
  367MOL0     C48335   0.980   2.535   2.878  0.1666 -0.4468  0.5538
  367MOL0     O48336   0.894   2.533   2.991  1.0284  0.2701 -0.4848
  367MOL0     C48337   0.757   2.501   2.991  0.1590  0.5736  0.6217
  367MOL0     C48338   0.681   2.497   3.105 -0.2485  0.5092 -0.2535
  367MOL0     C48339   0.542   2.478   3.116  0.8710  0.5871  0.9747
  367MOL0     C48340   0.469   2.462   2.991 -0.4679 -0.6467  0.9367
  367MOL0     C48341   0.326   2.445   2.997  1.0068  0.2104  0.0416
  367MOL0     O48342   0.267   2.445   2.872 -0.4854  0.5514 -0.0412
  367MOL0     C48343   0.138   2.387   2.857 -0.2017 -0.3816  0.2755
  367MOL0     C48344   0.024   2.456   2.813 -0.7451  0.2529  0.1854
  367MOL0     C48345  -0.105   2.409   2.827 -0.0263 -0.2791  0.1594
  367MOL0     C48346  -0.121   2.275   2.859  0.1240 -0.4805 -0.5634
  367MOL0     O48347  -0.238   2.214   2.857 -0.3249 -0.2684 -0.0615
  367MOL0     C48348  -0.342   2.270   2.777  0.3940 -0.0213  0.2530
  367MOL0     C48349  -0.461   2.180   2.749 -0.1761 -0.3896 -0.5006
  367MOL0     C48350  -0.422   2.050   2.685  1.2151  0.6715 -0.2611
  367MOL0     C48351  -0.549   1.987   2.623 -0.3278 -0.3265  0.1880
  367MOL0     C48352  -0.506   1.841   2.572 -0.4094 -0.4169  0.1256
  367MOL0     C48353  -0.630   1.768   2.510  0.1799  0.0857  0.1611
  367MOL0     C48354  -0.582   1.637   2.443  0.7106  0.6082  0.1225
  367MOL0     C48355  -0.708   1.551   2.431  0.0740  0.6073  0.9345
  367MOL0    Cl48356  -0.820   1.631   2.312 -0.4041 -0.0627  0.0414
  367MOL0     C48357  -0.011   2.196   2.899  0.2629 -0.8058  0.9225
  367MOL0     C48358   0.111   2.254   2.905 -0.2276 -0.3911  0.6469
  367MOL0     O48359   0.272   2.432   3.105 -0.7241  0.3676 -0.4547
  367MOL0     C48360   0.542   2.470   2.867 -0.0614  0.6430  0.4852
  367MOL0     C48361   0.683   2.480   2.874 -0.5618  0.3033  0.1270
  367MOL0     N48362   1.478   2.472   2.666 -0.6472 -1.3467  0.0629
  367MOL0     N48363   1.564   2.508   2.575  0.6687 -0.8075 -0.2597
  367MOL0     C48364   2.537   2.736   2.343  0.4886 -0.4713  0.2942
  367MOL0     C48365   2.674   2.745   2.363 -0.8375  0.5047 -0.1999
  367MOL0     C48366   3.116   2.849   2.249  0.1243  0.1524 -0.3239
  367MOL0     C48367   3.167   2.733   2.324 -0.1475 -0.5134  1.0666
  367MOL0     C48368   3.303   2.718   2.340 -0.0287 -0.4349 -0.4232
  367MOL0     C48369   3.393   2.808   2.295 -0.2498  0.2202  0.1995
  367MOL0     O48370   3.524   2.766   2.317 -0.1168 -0.0902  0.1294
  367MOL0     C48371   3.622   2.850   2.241  0.1187 -0.4295 -0.6836
  367MOL0     C48372   3.770   2.803   2.280  0.3761 -0.6436 -0.7089
  367MOL0     C48373   3.797   2.763   2.424 -0.8681 -0.9927 -0.0804
  367MOL0     C48374   3.770   2.614   2.438  0.2669  0.3791 -0.3404
  367MOL0     C48375   3.840   2.555   2.548  0.3816 -0.1456  0.4514
  367MOL0     C48376   3.881   2.490   2.647  0.5816  0.8270 -0.2269
  367MOL0     C48377   3.345   2.919   2.223 -0.4153 -0.1102 -0.5960
  367MOL0     C48378   3.205   2.939   2.199  0.3427 -0.4711  0.1334
  367MOL0     H48379   2.760   2.814   2.036  1.9363  1.5529  0.3343
  367MOL0     H48380   2.529   2.821   2.014 -2.1051  0.6770  1.1523
  367MOL0     H48381   2.186   2.823   2.090  0.9725 -0.4312 -0.4383
  367MOL0     H48382   2.331   2.900   2.044  0.3418 -0.5156 -0.2663
  367MOL0     H48383   2.209   3.071   2.153 -2.0545  0.3241  0.4820
  367MOL0     H48384   2.336   3.022   2.267  0.9213 -1.1497 -1.6718
  367MOL0     H48385   2.116   3.048   2.381  1.3972 -0.7059 -0.1127
  367MOL0     H48386   2.166   2.887   2.391  2.6550  0.0801 -1.3703
  367MOL0     H48387   1.954   3.015   2.208 -0.5010 -1.2668 -1.2818
  367MOL0     H48388   1.999   2.837   2.212  0.1154  0.2448 -1.0505
  367MOL0     H48389   1.891   2.997   2.446  1.3346 -1.4006  2.2660
  367MOL0     H48390   1.935   2.827   2.451 -0.5080  2.1883  1.0757
  367MOL0     H48391   1.762   2.767   2.292 -1.2245 -0.7652 -0.6036
  367MOL0     H48392   1.700   2.937   2.298 -0.0831 -1.0753 -2.3988
  367MOL0     H48393   1.656   2.902   2.546  1.7478 -0.9786  0.8150
  367MOL0     H48394   1.568   2.805   2.433 -1.3868  3.7598 -0.2602
  367MOL0     H48395   1.790   2.730   2.627  1.9348 -0.9800 -0.6991
  367MOL0     H48396   1.774   2.628   2.483  1.3662  0.8682 -0.4479
  367MOL0     H48397   1.569   2.770   2.763 -0.3022  0.5924 -0.5651
  367MOL0     H48398   1.367   2.673   2.922  0.2492 -0.9232  3.0697
  367MOL0     H48399   1.408   2.511   2.956 -0.5418  1.9419  1.7381
  367MOL0     H48400   1.225   2.435   2.774  0.3437  0.5287 -0.2625
  367MOL0     H48401   1.199   2.601   2.740 -3.6386  0.8554  2.6192
  367MOL0     H48402   1.133   2.464   3.005  1.0550 -1.0554 -0.4806
  367MOL0     H48403   1.130   2.645   2.982 -3.6989  0.2132  0.0414
  367MOL0     H48404   0.960   2.443   2.823  0.7163 -0.8112  0.9582
  367MOL0     H48405   0.962   2.616   2.806  2.5064  0.7232  1.1791
  367MOL0     H48406   0.725   2.520   3.202  0.3548  1.8876 -0.8313
  367MOL0     H48407   0.487   2.469   3.209 -0.2734  1.2712  0.3953
  367MOL0     H48408   0.045   2.554   2.771  0.7285 -1.1400 -2.6562
  367MOL0     H48409  -0.186   2.479   2.811 -0.5067 -0.5805  1.1564
  367MOL0     H48410  -0.298   2.295   2.680 -1.2783  0.7229 -0.3620
  367MOL0     H48411  -0.367   2.363   2.828 -3.0453 -0.5343 -0.2421
  367MOL0     H48412  -0.541   2.238   2.702 -0.1311 -0.5344 -0.7567
  367MOL0     H48413  -0.502   2.150   2.846 -0.9532  0.7983 -0.4461
  367MOL0     H48414  -0.384   1.978   2.758  1.3403 -0.8986 -1.7907
  367MOL0     H48415  -0.343   2.068   2.612 -0.1773  1.6982 -1.5737
  367MOL0     H48416  -0.630   1.974   2.696 -0.7003 -0.2936 -0.2174
  367MOL0     H48417  -0.597   2.053   2.550 -0.7664  0.6969  1.3569
  367MOL0     H48418  -0.468   1.786   2.659 -1.8554 -1.7289 -0.0122
  367MOL0     H48419  -0.435   1.862   2.492 -1.4446  1.3500 -0.3945
  367MOL0     H48420  -0.673   1.838   2.438  2.4685  0.8614 -0.5509
  367MOL0     H48421  -0.706   1.748   2.586 -1.3005 -1.5064 -1.6612
  367MOL0     H48422  -0.535   1.660   2.347  0.6360 -0.8918 -0.2967
  367MOL0     H48423  -0.509   1.589   2.509  3.7195  1.5340 -2.3239
  367MOL0     H48424  -0.756   1.536   2.528 -2.1000 -1.8966 -0.4166
  367MOL0     H48425  -0.692   1.448   2.399 -2.5745  0.5808 -0.5789
  367MOL0     H48426  -0.027   2.090   2.916 -1.1339 -0.5132  1.5731
  367MOL0     H48427   0.198   2.202   2.945  0.3591  1.3555  1.7512
  367MOL0     H48428   0.490   2.445   2.775  0.8608  1.2113 -0.2012
  367MOL0     H48429   0.733   2.475   2.778 -3.1896 -2.5703 -1.2924
  367MOL0     H48430   2.470   2.713   2.426  0.9015 -1.6041  0.3265
  367MOL0     H48431   2.720   2.742   2.461  1.2398 -1.8207 -1.1306
  367MOL0     H48432   3.099   2.661   2.370  1.3127 -1.2752  2.0957
  367MOL0     H48433   3.336   2.626   2.389 -1.6765 -1.3682 -0.9821
  367MOL0     H48434   3.617   2.955   2.273  0.3598 -1.3544  2.8437
  367MOL0     H48435   3.596   2.847   2.135 -2.4320  2.5472 -0.2727
  367MOL0     H48436   3.805   2.725   2.212  1.9939 -1.2901  0.7963
  367MOL0     H48437   3.842   2.884   2.261  0.9353 -1.5173 -2.6525
  367MOL0     H48438   3.744   2.831   2.492  2.2335 -0.7268  2.3003
  367MOL0     H48439   3.902   2.771   2.454 -0.9835 -2.3419  0.7540
  367MOL0     H48440   3.664   2.590   2.451  0.4649  0.4824  1.8258
  367MOL0     H48441   3.789   2.562   2.344 -2.6510  2.0998 -2.0305
  367MOL0     H48442   3.901   2.425   2.730  0.6213  1.5492  0.3401
  367MOL0     H48443   3.421   2.991   2.192  2.1217 -1.8883  1.1371
  367MOL0     H48444   3.168   3.026   2.145  0.2029 -2.3833 -3.1436
  368MOL0     O48445   9.420   8.600  10.548  0.2432 -0.2815  0.1808
  368MOL0     C48446   9.450   8.622  10.432  0.2350 -0.2846  0.1539
  368MOL0     O48447   9.381   8.585  10.322 -0.5853 -0.0036 -0.4121
  368MOL0     C48448   9.257   8.525  10.336 -0.8813 -0.0775  0.1430
  368MOL0     C48449   9.151   8.571  10.421 -0.1497  0.6338  0.1332
  368MOL0     C48450   9.028   8.493  10.431 -0.0902 -1.0268 -0.1282
  368MOL0     C48451   9.015   8.373  10.360  0.8956 -0.0400  0.6413
  368MOL0     O48452   8.883   8.322  10.357  0.1038 -0.1629  0.0754
  368MOL0     C48453   8.859   8.201  10.278 -1.3838 -0.9461 -0.5320
  368MOL0     C48454   8.712   8.163  10.297 -0.7282  0.2277  0.0094
  368MOL0     C48455   8.608   8.275  10.261  0.3621  0.0972 -0.6440
  368MOL0     C48456   8.467   8.221  10.260  0.1627 -0.0536 -0.0679
  368MOL0     C48457   8.362   8.321  10.198  0.3722  0.1314 -0.4364
  368MOL0     C48458   8.230   8.238  10.193  0.8769  0.4742 -1.1455
  368MOL0     C48459   8.118   8.305  10.115  0.2295  0.3658 -0.4935
  368MOL0     C48460   8.130   8.271   9.959  0.4889 -0.5315 -0.2814
  368MOL0     N48461   8.254   8.305   9.892 -0.4814 -0.1759  0.0462
  368MOL0     C48462   8.345   8.229   9.826  0.5761 -0.4722  0.0973
  368MOL0     C48463   8.443   8.310   9.780  0.0491  0.4281 -0.4063
  368MOL0     C48464   8.567   8.279   9.706 -0.1714 -0.8517  0.4141
  368MOL0     C48465   8.692   8.310   9.784  0.3087  0.0820 -0.0240
  368MOL0     C48466   8.815   8.273   9.706 -0.4505 -0.0197  0.2781
  368MOL0     C48467   8.939   8.314   9.775 -0.4922  0.3228 -0.1988
  368MOL0     O48468   8.990   8.221   9.871  0.2626  0.5244 -0.0778
  368MOL0     C48469   9.124   8.225   9.912  0.3610  0.2354  0.3735
  368MOL0     C48470   9.186   8.109   9.962 -0.6149  0.1929  0.8597
  368MOL0     C48471   9.319   8.109  10.004 -0.0643  0.2277  0.0628
  368MOL0     C48472   9.390   8.230  10.009 -0.2508 -0.2925  0.2248
  368MOL0     C48473   9.536   8.239  10.059  0.3842 -0.3221 -0.1327
  368MOL0     O48474   9.597   8.119  10.082  0.0582  0.2053  0.9787
  368MOL0     C48475   9.734   8.119  10.131  0.0576 -0.2207  0.0792
  368MOL0     C48476   9.763   8.125  10.261 -0.2133  0.1217  0.3217
  368MOL0     C48477   9.897   8.115  10.311 -0.4772 -0.5132 -0.1740
  368MOL0     C48478  10.000   8.102  10.215  0.2373  0.1236 -0.1396
  368MOL0     O48479  10.124   8.101  10.266 -0.1420  0.6810 -0.2984
  368MOL0     C48480  10.235   8.121  10.175 -0.0900  0.0100 -0.5212
  368MOL0     C48481  10.353   8.136  10.269 -0.0326 -0.6120 -0.6567
  368MOL0     C48482  10.475   8.165  10.184 -0.0907  0.8963  0.6205
  368MOL0     C48483  10.608   8.142  10.258  0.6721  0.7962 -0.2293
  368MOL0     C48484  10.725   8.148  10.160  0.2789  1.4874 -0.5071
  368MOL0     C48485  10.853   8.192  10.237  0.2088  0.2419  0.2131
  368MOL0     C48486  10.991   8.162  10.171 -0.2860  0.3934 -0.7783
  368MOL0     C48487  11.112   8.204  10.252  0.0316  0.5529  0.3307
  368MOL0    Cl48488  11.143   8.068  10.373 -0.0666  0.0547  0.0584
  368MOL0     C48489   9.970   8.103  10.079  0.4938  0.9666 -0.0649
  368MOL0     C48490   9.831   8.098  10.037 -0.0815  0.8588  0.8071
  368MOL0     O48491   9.586   8.354  10.091 -0.4988  0.1990  0.1141
  368MOL0     C48492   9.327   8.350   9.971 -0.4947 -0.0943 -0.5812
  368MOL0     C48493   9.197   8.343   9.917  0.6880 -0.0226 -0.2318
  368MOL0     N48494   8.413   8.441   9.818 -0.0377  0.6196 -0.9662
  368MOL0     N48495   8.297   8.432   9.874  0.1129 -0.0433 -0.6158
  368MOL0     C48496   9.127   8.327  10.275 -0.1103  0.1164 -0.7005
  368MOL0     C48497   9.244   8.404  10.277  0.7270  0.2870  0.0833
  368MOL0     C48498   9.589   8.686  10.402  1.1093  0.5333  0.3144
  368MOL0     C48499   9.641   8.661  10.273  0.2642  0.0984 -0.3876
  368MOL0     C48500   9.768   8.699  10.234  0.8635 -0.2633 -0.2718
  368MOL0     C48501   9.843   8.780  10.329  0.2047  0.7362  0.2996
  368MOL0     O48502   9.969   8.821  10.280  0.0712  0.4119 -0.2093
  368MOL0     C48503  10.069   8.858  10.369 -0.2175  0.0645 -0.4972
  368MOL0     C48504  10.111   8.751  10.471  0.4114  0.0852  0.0541
  368MOL0     C48505  10.218   8.811  10.566 -0.5242 -0.1304  0.4205
  368MOL0     C48506  10.353   8.832  10.497 -0.3874  0.1853 -0.0408
  368MOL0     C48507  10.464   8.855  10.594  0.1425  0.2502 -0.5895
  368MOL0     C48508  10.557   8.860  10.673  0.5576 -0.1027  0.2846
  368MOL0     C48509   9.788   8.815  10.457  1.3630 -0.6743 -0.2088
  368MOL0     C48510   9.659   8.767  10.489  0.3138  0.9043  0.0666
  368MOL0     H48511   9.169   8.667  10.468  0.6289 -0.2009  1.5817
  368MOL0     H48512   8.954   8.525  10.503  0.4146  0.7540 -0.3476
  368MOL0     H48513   8.923   8.121  10.316 -0.1962 -0.0842 -0.6644
  368MOL0     H48514   8.875   8.224  10.172  0.3852  1.4423  0.1601
  368MOL0     H48515   8.700   8.142  10.404 -1.3337 -1.8687 -0.4169
  368MOL0     H48516   8.692   8.067  10.248 -2.7473  0.8876 -0.5543
  368MOL0     H48517   8.627   8.304  10.158  4.2755 -1.3959 -0.5011
  368MOL0     H48518   8.614   8.365  10.324  1.1323 -0.4599  0.0887
  368MOL0     H48519   8.483   8.129  10.202  1.2698 -0.7040  1.2281
  368MOL0     H48520   8.438   8.192  10.361  0.9506  1.1166  0.5188
  368MOL0     H48521   8.398   8.367  10.106  0.0801 -0.0408 -0.6392
  368MOL0     H48522   8.353   8.404  10.270  1.4296  0.3463 -0.5425
  368MOL0     H48523   8.196   8.206  10.292  1.6684 -2.8265 -1.8053
  368MOL0     H48524   8.259   8.144  10.146  0.3536  0.9055 -2.3696
  368MOL0     H48525   8.027   8.261  10.157  0.2351  0.9879  0.1767
  368MOL0     H48526   8.120   8.412  10.134  3.6944 -0.0394  2.6864
  368MOL0     H48527   8.048   8.322   9.907  2.2280  1.6354 -1.0688
  368MOL0     H48528   8.111   8.163   9.956 -0.9587 -0.3002 -0.3040
  368MOL0     H48529   8.338   8.121   9.817 -3.3067 -0.5436  1.9073
  368MOL0     H48530   8.563   8.336   9.612 -2.1644 -2.8516 -0.8077
  368MOL0     H48531   8.574   8.173   9.678  0.5557 -0.6512 -0.2158
  368MOL0     H48532   8.688   8.248   9.874  0.4334  0.1721  0.0447
  368MOL0     H48533   8.689   8.416   9.813 -0.8226 -0.2807  1.2935
  368MOL0     H48534   8.824   8.169   9.675 -0.4250  0.1902 -0.4354
  368MOL0     H48535   8.823   8.332   9.614  2.9941  0.2562  0.6247
  368MOL0     H48536   8.918   8.405   9.831 -1.6105  0.6313 -1.0718
  368MOL0     H48537   9.018   8.335   9.702 -0.8878 -0.7339 -0.9606
  368MOL0     H48538   9.138   8.012   9.965  2.0774 -1.3545 -1.2419
  368MOL0     H48539   9.371   8.020  10.037 -0.0920 -0.8019 -2.4850
  368MOL0     H48540   9.683   8.141  10.332 -0.2257 -1.5556  0.7315
  368MOL0     H48541   9.928   8.125  10.414  2.6204  1.2632 -1.1108
  368MOL0     H48542  10.224   8.203  10.104 -0.1377  0.6632  0.2302
  368MOL0     H48543  10.252   8.030  10.116  0.6226 -0.8126  0.8809
  368MOL0     H48544  10.358   8.040  10.322 -0.3705  0.5944  1.7044
  368MOL0     H48545  10.344   8.220  10.338 -2.6182 -3.0192  2.2010
  368MOL0     H48546  10.473   8.271  10.159  0.9117  0.7864 -0.0107
  368MOL0     H48547  10.465   8.105  10.093 -0.9014 -0.9649  1.8672
  368MOL0     H48548  10.610   8.231  10.323 -0.3845  0.0297  0.9023
  368MOL0     H48549  10.610   8.052  10.320 -1.1581 -0.9810 -2.5914
  368MOL0     H48550  10.709   8.221  10.080  0.4835  0.9162 -1.0702
  368MOL0     H48551  10.741   8.055  10.106 -0.7869  3.1733 -4.0534
  368MOL0     H48552  10.837   8.152  10.338  1.0790  0.6218  0.5072
  368MOL0     H48553  10.845   8.301  10.245 -0.3947  0.3682 -1.5613
  368MOL0     H48554  11.009   8.055  10.161  2.5487  0.5303  1.4851
  368MOL0     H48555  11.007   8.206  10.072  0.5165 -0.6428 -1.1307
  368MOL0     H48556  11.079   8.299  10.294 -2.0373  0.9075 -1.8794
  368MOL0     H48557  11.210   8.217  10.205  0.1597 -1.3816 -0.0302
  368MOL0     H48558  10.047   8.084  10.005 -0.9112  0.1997 -1.3880
  368MOL0     H48559   9.811   8.082   9.932  0.7327  1.0861  0.6120
  368MOL0     H48560   9.366   8.451   9.978 -0.4675 -0.1024 -0.6206
  368MOL0     H48561   9.144   8.429   9.878  0.7319  0.4539  0.7383
  368MOL0     H48562   9.130   8.234  10.221  0.7905 -2.3102  3.1125
  368MOL0     H48563   9.334   8.364  10.232 -0.2748 -0.6643 -1.1345
  368MOL0     H48564   9.585   8.610  10.195  1.4602 -0.5975 -0.8155
  368MOL0     H48565   9.806   8.663  10.139  1.5197  1.5797 -0.7377
  368MOL0     H48566  10.040   8.948  10.425  0.4398 -0.9811  1.6073
  368MOL0     H48567  10.163   8.885  10.320  1.4855  0.0329  2.5133
  368MOL0     H48568  10.027   8.714  10.530  0.1712 -0.8227 -0.8294
  368MOL0     H48569  10.156   8.664  10.422  1.7923  0.9852 -0.3214
  368MOL0     H48570  10.218   8.742  10.651  0.7644 -0.7782 -0.0884
  368MOL0     H48571  10.187   8.907  10.608 -1.4838  0.9618 -2.5742
  368MOL0     H48572  10.379   8.751  10.427  0.5189  1.2635 -0.9929
  368MOL0     H48573  10.344   8.929  10.448 -0.0451  1.2323  1.8626
  368MOL0     H48574  10.625   8.868  10.755  1.2079 -1.1653 -0.1348
  368MOL0     H48575   9.865   8.851  10.525  0.5176  1.0538 -0.1142
  368MOL0     H48576   9.615   8.777  10.588 -1.1700  0.9373 -0.5632
  369MOL0     O48577   3.194   7.887   5.380 -0.1018  0.5615  0.2758
  369MOL0     C48578   3.124   7.944   5.461 -1.1574  0.0304  0.0658
  369MOL0     O48579   2.996   7.933   5.474  0.3014  0.4959  0.1502
  369MOL0     C48580   2.930   7.825   5.422 -0.1346  1.2533  0.5960
  369MOL0     C48581   2.789   7.835   5.400 -0.5967  0.7985 -0.9459
  369MOL0     C48582   2.712   7.733   5.355 -0.7745 -0.1626 -0.5471
  369MOL0     C48583   2.768   7.601   5.341 -0.1629 -0.1235 -0.6973
  369MOL0     O48584   2.690   7.489   5.299  0.8539  0.1345 -0.3853
  369MOL0     C48585   2.544   7.500   5.287 -0.3601  0.6793  0.0005
  369MOL0     C48586   2.472   7.362   5.272  0.3234 -0.1213  0.3757
  369MOL0     C48587   2.324   7.373   5.323 -0.2002  0.7231 -0.3879
  369MOL0     C48588   2.271   7.229   5.348  0.3505  0.2530 -0.2228
  369MOL0     C48589   2.125   7.234   5.357 -0.3100 -0.1885 -0.0142
  369MOL0     C48590   2.081   7.090   5.414 -0.8845  0.5501  0.7760
  369MOL0     C48591   1.927   7.105   5.428  0.2779 -0.4546 -0.2965
  369MOL0     C48592   1.879   6.969   5.489 -0.8882  0.4748  0.1564
  369MOL0     N48593   1.735   6.962   5.502 -0.5546 -1.0044 -0.1664
  369MOL0     C48594   1.671   6.842   5.531  0.1872 -0.2421  0.4801
  369MOL0     C48595   1.544   6.891   5.556 -0.5311  0.3737  0.4443
  369MOL0     C48596   1.430   6.803   5.605 -0.9988 -0.4169 -0.0963
  369MOL0     C48597   1.398   6.823   5.752  0.3755 -0.7938 -0.2900
  369MOL0     C48598   1.303   6.710   5.800 -0.5535 -0.0911  0.4905
  369MOL0     C48599   1.281   6.713   5.954 -1.2569  0.1221  0.3792
  369MOL0     O48600   1.146   6.672   5.974 -0.0573  0.5516 -0.4161
  369MOL0     C48601   1.043   6.757   5.950  0.4230  0.2702 -0.1438
  369MOL0     C48602   1.051   6.897   5.955  0.2516  0.3667 -0.4561
  369MOL0     C48603   0.931   6.982   5.967 -0.4002 -0.4648 -0.3945
  369MOL0     C48604   0.804   6.922   5.973  1.0707 -0.0243  0.7172
  369MOL0     C48605   0.671   6.999   5.976  0.4082 -0.4824 -0.3378
  369MOL0     O48606   0.553   6.935   6.004  0.2315 -0.1292  0.3728
  369MOL0     C48607   0.435   7.008   5.980 -0.2564 -0.1156 -0.0372
  369MOL0     C48608   0.418   7.094   5.874 -0.1081  0.2519 -0.3189
  369MOL0     C48609   0.284   7.125   5.829  1.0407  0.0741  0.6103
  369MOL0     C48610   0.172   7.083   5.903 -1.3241 -0.4528 -0.2983
  369MOL0     O48611   0.053   7.139   5.875 -0.2909 -0.0973 -0.1760
  369MOL0     C48612   0.008   7.237   5.974  0.1869 -1.1499 -0.6806
  369MOL0     C48613  -0.147   7.234   5.972 -0.2020  0.0558  0.6382
  369MOL0     C48614  -0.213   7.267   5.836 -0.1234  0.4265 -1.0482
  369MOL0     C48615  -0.361   7.235   5.836  0.4771  0.3084  0.0516
  369MOL0     C48616  -0.442   7.270   5.705  0.2896 -0.4660  0.1391
  369MOL0     C48617  -0.435   7.418   5.681 -0.6230  0.7533 -0.5074
  369MOL0     C48618  -0.546   7.472   5.592  0.4475 -0.0656 -0.3094
  369MOL0     C48619  -0.675   7.495   5.680 -0.0079 -0.1361  0.1802
  369MOL0    Cl48620  -0.789   7.541   5.562 -0.1766  0.0968  0.3494
  369MOL0     C48621   0.198   6.991   6.007 -0.1580 -0.4599  0.1187
  369MOL0     C48622   0.322   6.950   6.044 -0.1517  0.1818  1.0211
  369MOL0     O48623   0.682   7.124   5.992 -0.2211 -0.5266  0.7793
  369MOL0     C48624   0.795   6.779   5.950  0.1585 -0.9693 -0.1735
  369MOL0     C48625   0.914   6.701   5.946  0.2470  0.6484  0.1074
  369MOL0     N48626   1.541   7.020   5.550  0.5956  0.5736  0.0792
  369MOL0     N48627   1.648   7.067   5.524 -0.5054  0.2749 -0.5407
  369MOL0     C48628   2.904   7.582   5.380 -0.8495 -0.2687  0.4769
  369MOL0     C48629   2.979   7.692   5.417  0.6667  0.0900  0.2549
  369MOL0     C48630   3.187   8.053   5.543  0.4059  0.0356  0.3973
  369MOL0     C48631   3.115   8.130   5.639  0.2806  0.6337  0.5372
  369MOL0     C48632   3.175   8.247   5.703  0.2698 -0.3827  0.8492
  369MOL0     C48633   3.310   8.271   5.688 -0.1426  0.3175 -0.1810
  369MOL0     O48634   3.366   8.380   5.750 -0.5217 -0.6193 -0.2668
  369MOL0     C48635   3.481   8.445   5.703 -0.0438  0.1339  0.1897
  369MOL0     C48636   3.478   8.589   5.748 -0.8639 -0.7991  0.0889
  369MOL0     C48637   3.502   8.603   5.898 -0.2185  0.1949  0.6135
  369MOL0     C48638   3.385   8.591   5.988  0.1350 -1.1754 -0.4488
  369MOL0     C48639   3.421   8.573   6.125 -0.4175  0.3305 -0.3258
  369MOL0     C48640   3.466   8.550   6.236 -0.4706  0.7745  0.1185
  369MOL0     C48641   3.383   8.187   5.603 -0.3482  0.2763 -0.0672
  369MOL0     C48642   3.317   8.086   5.525 -0.6894  0.1078 -0.2142
  369MOL0     H48643   2.741   7.930   5.418 -2.1372 -0.1228  0.1406
  369MOL0     H48644   2.610   7.755   5.324  0.4992  2.3765 -3.4696
  369MOL0     H48645   2.515   7.569   5.207  0.0761  0.0337 -0.7258
  369MOL0     H48646   2.505   7.534   5.384  0.0342  3.3574 -0.7037
  369MOL0     H48647   2.526   7.286   5.329  0.3873 -0.5928 -0.2921
  369MOL0     H48648   2.463   7.329   5.168 -3.3254 -0.5178  0.6959
  369MOL0     H48649   2.267   7.418   5.241 -1.4485 -1.7043 -0.9505
  369MOL0     H48650   2.308   7.442   5.406  2.2898  3.4136 -1.9587
  369MOL0     H48651   2.285   7.169   5.258  0.5564  0.0067 -0.0274
  369MOL0     H48652   2.322   7.175   5.428  0.6251 -1.0755 -1.2569
  369MOL0     H48653   2.085   7.270   5.262  3.1068 -1.1491 -1.9787
  369MOL0     H48654   2.095   7.306   5.434  3.5448  1.0716  0.5248
  369MOL0     H48655   2.120   7.058   5.511  0.7642 -0.5446 -0.2110
  369MOL0     H48656   2.107   7.016   5.338  0.8180  2.3860 -0.5477
  369MOL0     H48657   1.900   7.179   5.503  0.7360 -0.0779 -0.4983
  369MOL0     H48658   1.884   7.115   5.328 -0.0301 -3.4469 -0.5507
  369MOL0     H48659   1.923   6.970   5.589  1.9109 -2.9375 -0.8628
  369MOL0     H48660   1.918   6.880   5.438  2.0262  1.1012  1.1028
  369MOL0     H48661   1.706   6.740   5.524  1.4937  0.2166 -0.0895
  369MOL0     H48662   1.460   6.699   5.593  2.5719  0.0602  2.7071
  369MOL0     H48663   1.341   6.823   5.545 -0.3979 -0.9579 -1.1799
  369MOL0     H48664   1.335   6.912   5.747 -0.3394 -1.1697  1.3870
  369MOL0     H48665   1.490   6.826   5.811 -0.6516 -4.2753  1.8396
  369MOL0     H48666   1.206   6.709   5.751 -1.1084  2.0210  1.4021
  369MOL0     H48667   1.354   6.617   5.775 -1.4954  0.1341 -2.7647
  369MOL0     H48668   1.313   6.803   6.008  0.3204  0.9809 -1.8577
  369MOL0     H48669   1.344   6.639   6.005  3.0248  1.9463 -1.7158
  369MOL0     H48670   1.148   6.945   5.953  0.2074  0.4870 -2.6511
  369MOL0     H48671   0.948   7.088   5.982  2.4110 -1.0884  1.4385
  369MOL0     H48672   0.499   7.142   5.820 -1.6186  2.7367 -0.5776
  369MOL0     H48673   0.265   7.207   5.760  1.3705  1.6877  2.3493
  369MOL0     H48674   0.053   7.334   5.952  1.7841 -1.4031  1.1444
  369MOL0     H48675   0.033   7.208   6.077 -1.3910 -0.5041 -0.0920
  369MOL0     H48676  -0.170   7.290   6.063  3.9024 -0.8932  2.5273
  369MOL0     H48677  -0.161   7.128   5.996  0.5473  0.5962  4.1387
  369MOL0     H48678  -0.174   7.208   5.753 -1.9117  1.2719 -2.5646
  369MOL0     H48679  -0.197   7.374   5.819 -0.4607  1.3148  3.0865
  369MOL0     H48680  -0.376   7.130   5.861 -1.0475  0.2830 -0.8132
  369MOL0     H48681  -0.395   7.292   5.923  2.4526  0.2762  0.8962
  369MOL0     H48682  -0.547   7.247   5.721  0.6341 -1.2738  1.3954
  369MOL0     H48683  -0.416   7.202   5.623  1.7840  0.5959 -0.3168
  369MOL0     H48684  -0.335   7.444   5.645 -0.1822  0.3242  0.3855
  369MOL0     H48685  -0.458   7.476   5.772 -1.0778 -0.6983  0.3359
  369MOL0     H48686  -0.514   7.570   5.556  0.2967  0.1428  0.1210
  369MOL0     H48687  -0.558   7.402   5.509  1.8082  0.2802 -0.8219
  369MOL0     H48688  -0.657   7.572   5.756 -0.0029  0.8216 -0.7801
  369MOL0     H48689  -0.712   7.406   5.734 -1.9820 -0.4249 -1.5222
  369MOL0     H48690   0.111   6.954   6.060 -0.2635  1.2006  1.1507
  369MOL0     H48691   0.324   6.872   6.119 -0.3561 -2.1713 -1.2493
  369MOL0     H48692   0.699   6.730   5.947 -0.6135  0.5345 -0.9833
  369MOL0     H48693   0.906   6.593   5.955  2.2781  0.3184 -1.3298
  369MOL0     H48694   2.929   7.477   5.377 -0.2891 -0.1506 -3.0973
  369MOL0     H48695   3.081   7.677   5.452  0.4665  1.8303  1.7139
  369MOL0     H48696   3.012   8.108   5.665  0.3897  0.3327  0.7167
  369MOL0     H48697   3.116   8.305   5.773  0.9311 -1.8825  2.7541
  369MOL0     H48698   3.474   8.448   5.594 -0.9580  1.2218  0.2581
  369MOL0     H48699   3.575   8.397   5.734 -0.6526 -2.5002 -1.6867
  369MOL0     H48700   3.553   8.654   5.701 -2.4975  0.1687 -1.2672
  369MOL0     H48701   3.382   8.628   5.715  0.5512  0.8495 -2.4262
  369MOL0     H48702   3.545   8.703   5.906 -1.5222  1.0187 -1.8579
  369MOL0     H48703   3.583   8.533   5.923  2.2624  2.1509 -1.3687
  369MOL0     H48704   3.337   8.689   5.981 -0.2941 -1.2426  1.0934
  369MOL0     H48705   3.301   8.525   5.964 -1.4458  0.1682  1.0353
  369MOL0     H48706   3.503   8.548   6.336 -0.1168  0.2542 -0.0201
  369MOL0     H48707   3.488   8.215   5.599  0.5171 -1.7219  3.7697
  369MOL0     H48708   3.374   8.041   5.445 -1.2797 -0.6175 -0.2403
  370MOL0     O48709   8.496   2.199   0.808 -0.1318 -0.7531  0.2902
  370MOL0     C48710   8.582   2.242   0.726  0.3055  0.2957 -0.8647
  370MOL0     O48711   8.558   2.327   0.621 -0.0880  0.2950  0.0987
  370MOL0     C48712   8.430   2.377   0.618 -0.3496 -0.1929  0.7128
  370MOL0     C48713   8.373   2.453   0.723  0.1865  0.4547 -0.0952
  370MOL0     C48714   8.250   2.520   0.710  0.1151 -0.1630 -0.0347
  370MOL0     C48715   8.175   2.497   0.592 -0.1100  0.4583 -1.5986
  370MOL0     O48716   8.042   2.536   0.581 -0.3134 -0.1427  0.2353
  370MOL0     C48717   7.969   2.580   0.689  0.7838 -0.6418 -0.6420
  370MOL0     C48718   7.853   2.672   0.656  0.2136 -0.0282 -0.1959
  370MOL0     C48719   7.745   2.606   0.576  0.7506  0.3962 -0.1174
  370MOL0     C48720   7.624   2.702   0.558 -0.3883 -0.0981  0.3545
  370MOL0     C48721   7.503   2.624   0.504  0.8294 -0.2184 -0.2534
  370MOL0     C48722   7.390   2.712   0.446 -0.3467 -0.2175 -0.8903
  370MOL0     C48723   7.446   2.797   0.334  1.0314  0.2077  0.2416
  370MOL0     C48724   7.328   2.828   0.237  0.6461  0.0572 -0.0533
  370MOL0     N48725   7.225   2.905   0.314  0.7765 -0.6114 -0.6153
  370MOL0     C48726   7.213   3.046   0.316  0.2972  0.1991  0.8876
  370MOL0     C48727   7.103   3.072   0.385  0.0805  0.5426  0.8048
  370MOL0     C48728   7.045   3.209   0.411 -0.1341 -0.0640 -0.5057
  370MOL0     C48729   7.064   3.231   0.559  0.3435 -0.5380  0.1745
  370MOL0     C48730   6.983   3.355   0.603  0.3579 -1.4945  0.3196
  370MOL0     C48731   6.833   3.332   0.623  0.8497 -1.0941 -0.1189
  370MOL0     O48732   6.776   3.462   0.655 -0.1157  0.5472 -1.0455
  370MOL0     C48733   6.640   3.481   0.643 -0.3281  0.2252  0.7261
  370MOL0     C48734   6.550   3.372   0.626 -1.3776 -0.0190  0.0161
  370MOL0     C48735   6.412   3.389   0.605 -0.5655 -0.3608  0.0909
  370MOL0     C48736   6.365   3.510   0.575  0.2178 -0.2964  0.8236
  370MOL0     C48737   6.217   3.531   0.553  0.4008 -0.4418  0.1014
  370MOL0     O48738   6.183   3.656   0.498  0.1958  0.2463  0.1098
  370MOL0     C48739   6.044   3.673   0.456 -0.7534  0.1487  0.0991
  370MOL0     C48740   6.030   3.715   0.326 -0.0379 -0.5373 -0.1064
  370MOL0     C48741   5.897   3.735   0.278 -0.4809  0.2232  0.4765
  370MOL0     C48742   5.782   3.708   0.357 -0.3962 -0.1208 -0.7906
  370MOL0     O48743   5.654   3.728   0.319 -0.1131  0.7221 -0.0308
  370MOL0     C48744   5.613   3.812   0.210 -0.3624 -0.9041 -0.3990
  370MOL0     C48745   5.459   3.845   0.204 -0.4485  0.1165 -1.0775
  370MOL0     C48746   5.375   3.720   0.213  0.0424  0.1689  0.3534
  370MOL0     C48747   5.240   3.728   0.145  0.0479  0.2296 -0.1452
  370MOL0     C48748   5.151   3.605   0.160  0.6435  1.0424  0.0763
  370MOL0     C48749   5.002   3.643   0.115  0.2766  0.1862 -0.0757
  370MOL0     C48750   4.905   3.537   0.163  0.4576  0.2688 -1.0603
  370MOL0     C48751   4.781   3.596   0.224  0.1741  0.0924 -0.7098
  370MOL0    Cl48752   4.825   3.660   0.384 -0.3162  0.1288 -0.3604
  370MOL0     C48753   5.801   3.657   0.486  0.1696 -0.6972  0.5862
  370MOL0     C48754   5.930   3.641   0.532  0.0093 -0.8003  0.1762
  370MOL0     O48755   6.145   3.427   0.574 -0.2321  0.4893  0.8506
  370MOL0     C48756   6.454   3.618   0.582 -0.4013  0.1468  0.0614
  370MOL0     C48757   6.594   3.603   0.613 -0.2425 -0.5027 -0.3215
  370MOL0     N48758   7.051   2.946   0.426  0.7729 -1.2231  0.8645
  370MOL0     N48759   7.126   2.853   0.395 -0.4751 -0.1349  0.2492
  370MOL0     C48760   8.228   2.424   0.487 -0.6425  0.6744  0.2301
  370MOL0     C48761   8.354   2.364   0.497 -0.2052 -0.0153 -1.1535
  370MOL0     C48762   8.725   2.217   0.756  0.5115  0.0829 -0.6790
  370MOL0     C48763   8.756   2.098   0.818 -0.1031  0.1959 -0.4816
  370MOL0     C48764   8.887   2.062   0.845 -0.2351  0.8469  0.4750
  370MOL0     C48765   8.991   2.144   0.800  0.1441  0.7373  0.5113
  370MOL0     O48766   9.129   2.110   0.812  0.1300 -0.5783 -0.6078
  370MOL0     C48767   9.170   2.111   0.950  0.2408 -0.0183  0.6716
  370MOL0     C48768   9.329   2.097   0.963  0.1006  0.9297  0.3111
  370MOL0     C48769   9.375   2.205   1.059 -0.3253  1.1200  0.4594
  370MOL0     C48770   9.307   2.173   1.195  0.2185  0.5979  0.5835
  370MOL0     C48771   9.325   2.281   1.294 -0.1278 -0.4321  0.2618
  370MOL0     C48772   9.343   2.374   1.376 -0.1551  0.6916  0.5000
  370MOL0     C48773   8.960   2.261   0.721  0.3101  0.6208  0.0452
  370MOL0     C48774   8.827   2.299   0.701 -0.6785 -0.0570 -0.0394
  370MOL0     H48775   8.430   2.480   0.812 -4.2925  1.2079  2.8582
  370MOL0     H48776   8.221   2.578   0.797  0.4401  0.5910 -0.4177
  370MOL0     H48777   8.021   2.650   0.755 -0.9497 -1.6776  2.0109
  370MOL0     H48778   7.937   2.494   0.749 -0.9401  0.5654  0.2345
  370MOL0     H48779   7.896   2.740   0.582  1.1257  0.3881  0.6924
  370MOL0     H48780   7.822   2.720   0.749  2.1322  1.6426 -0.3286
  370MOL0     H48781   7.706   2.509   0.610 -0.4944  0.9321  0.0358
  370MOL0     H48782   7.795   2.576   0.483 -0.3967  0.8270 -0.8833
  370MOL0     H48783   7.595   2.754   0.650  0.3853  2.7743 -0.9153
  370MOL0     H48784   7.661   2.779   0.491  3.0560  0.2609  2.4157
  370MOL0     H48785   7.456   2.564   0.583 -0.3618  2.2794  1.0716
  370MOL0     H48786   7.541   2.559   0.424 -1.1736  0.7282 -2.0931
  370MOL0     H48787   7.338   2.770   0.522 -1.5699 -2.2285 -0.1178
  370MOL0     H48788   7.324   2.641   0.396  0.0531 -0.3343 -1.2592
  370MOL0     H48789   7.496   2.890   0.363 -0.7261  2.4343 -3.2407
  370MOL0     H48790   7.516   2.746   0.267 -0.4657  0.1593 -1.3280
  370MOL0     H48791   7.281   2.736   0.203 -2.5926  0.3546  2.9834
  370MOL0     H48792   7.368   2.891   0.157  0.4289  0.0697 -0.1535
  370MOL0     H48793   7.274   3.124   0.270  0.9247 -0.3560  0.7637
  370MOL0     H48794   6.941   3.203   0.377 -0.2459 -1.7939  0.0696
  370MOL0     H48795   7.100   3.285   0.355  3.3547  0.9196  3.7163
  370MOL0     H48796   7.171   3.245   0.580  0.3787 -0.6312  0.0600
  370MOL0     H48797   7.039   3.144   0.620 -0.7263 -1.4660 -1.5296
  370MOL0     H48798   7.021   3.385   0.700 -0.8099  0.3614  0.2348
  370MOL0     H48799   6.997   3.436   0.531  1.5858 -0.3268  1.8066
  370MOL0     H48800   6.818   3.258   0.702  1.2382 -0.1579  0.8588
  370MOL0     H48801   6.786   3.304   0.528 -1.2330 -2.0765  1.1305
  370MOL0     H48802   6.590   3.271   0.615  1.0050  0.6175  2.0113
  370MOL0     H48803   6.348   3.301   0.606 -0.5233 -0.3922  1.0317
  370MOL0     H48804   6.120   3.729   0.267  0.5896 -1.6108  0.5485
  370MOL0     H48805   5.884   3.776   0.178 -3.1380 -1.5897 -0.0255
  370MOL0     H48806   5.650   3.759   0.122 -0.1602 -5.7366  2.2614
  370MOL0     H48807   5.670   3.906   0.214 -0.2586 -0.9270 -1.3030
  370MOL0     H48808   5.449   3.887   0.103  0.4254 -0.2942 -1.3414
  370MOL0     H48809   5.429   3.921   0.277  2.3145 -1.2589  1.7180
  370MOL0     H48810   5.361   3.699   0.319  1.7521 -0.9680  0.3915
  370MOL0     H48811   5.421   3.631   0.169  0.6250  0.9575 -0.6872
  370MOL0     H48812   5.175   3.802   0.193 -0.8040 -0.5081 -0.1354
  370MOL0     H48813   5.243   3.760   0.041  0.0306  3.1374  0.6543
  370MOL0     H48814   5.141   3.579   0.265 -1.3799  0.8103 -0.1253
  370MOL0     H48815   5.199   3.531   0.096  0.6720  1.0162  0.1282
  370MOL0     H48816   5.002   3.638   0.006 -1.6295 -0.9597 -0.0655
  370MOL0     H48817   4.973   3.741   0.154  1.6608  0.2065  0.9890
  370MOL0     H48818   4.874   3.474   0.079  0.7463 -1.6594  0.2181
  370MOL0     H48819   4.951   3.469   0.236 -1.6285 -0.6269 -0.4832
  370MOL0     H48820   4.709   3.514   0.236  0.8878 -0.7473 -1.9431
  370MOL0     H48821   4.744   3.669   0.151 -2.5854  0.9686  1.3878
  370MOL0     H48822   5.713   3.649   0.549 -1.6225 -1.0235 -1.7645
  370MOL0     H48823   5.948   3.606   0.633  1.5056 -1.2625 -0.2332
  370MOL0     H48824   6.424   3.717   0.547  2.4546  0.8322 -0.7295
  370MOL0     H48825   6.674   3.676   0.605  1.0398 -1.5284  2.1029
  370MOL0     H48826   8.164   2.408   0.401 -1.0486  0.7610  0.5136
  370MOL0     H48827   8.401   2.303   0.421  1.6030 -0.9034  0.5721
  370MOL0     H48828   8.680   2.022   0.833  0.1285  0.1093  0.3161
  370MOL0     H48829   8.903   1.962   0.884  0.9050  0.4623 -0.8976
  370MOL0     H48830   9.129   2.027   1.007 -0.4558  0.0144  0.2277
  370MOL0     H48831   9.130   2.202   0.996 -1.0777  0.6312 -1.5994
  370MOL0     H48832   9.355   2.000   1.007 -0.8306  0.4539 -0.1431
  370MOL0     H48833   9.378   2.102   0.866  0.7532 -2.0564  0.4020
  370MOL0     H48834   9.347   2.305   1.026  1.1576  0.8064 -1.9573
  370MOL0     H48835   9.484   2.200   1.068 -0.4064 -1.2148  0.6243
  370MOL0     H48836   9.199   2.158   1.187 -0.2394  4.0071 -1.3039
  370MOL0     H48837   9.362   2.090   1.241  0.7083  1.0044  0.7402
  370MOL0     H48838   9.352   2.435   1.464 -4.3139 -0.6826  2.1540
  370MOL0     H48839   9.041   2.320   0.680 -0.4677 -0.2622 -3.0402
  370MOL0     H48840   8.812   2.381   0.631 -0.6084 -1.7229 -2.0833
  371MOL0     O48841   3.614   6.866  10.007  0.0124  0.3259  1.0573
  371MOL0     C48842   3.693   6.772  10.028 -0.3032  0.0057  0.2888
  371MOL0     O48843   3.673   6.636   9.994  0.3711 -0.0325  0.7029
  371MOL0     C48844   3.562   6.608   9.905 -0.5502 -0.2162  0.6534
  371MOL0     C48845   3.463   6.526   9.952  1.1632  1.0004  0.0725
  371MOL0     C48846   3.356   6.489   9.863 -0.2518 -0.3878 -0.3712
  371MOL0     C48847   3.351   6.553   9.737  1.0644  0.1566  0.0116
  371MOL0     O48848   3.233   6.534   9.670  0.2206 -0.0020 -0.5093
  371MOL0     C48849   3.242   6.499   9.530  0.2781  0.1421  0.1824
  371MOL0     C48850   3.189   6.610   9.440 -0.1612 -0.1669 -0.3354
  371MOL0     C48851   3.033   6.607   9.440 -0.1194  0.3629 -0.2427
  371MOL0     C48852   2.966   6.723   9.364 -0.6015 -0.5103  0.1466
  371MOL0     C48853   2.957   6.716   9.217  0.5677 -0.1453  1.0682
  371MOL0     C48854   2.862   6.610   9.158 -0.7645 -0.6640 -0.0696
  371MOL0     C48855   2.876   6.591   9.007 -0.8801 -0.1072 -0.6642
  371MOL0     C48856   2.957   6.467   8.965  0.2578 -0.4694 -1.1296
  371MOL0     N48857   3.089   6.461   9.040  0.0312  0.3997  1.0087
  371MOL0     C48858   3.193   6.539   9.008 -0.7282 -0.8374  0.9610
  371MOL0     C48859   3.300   6.472   9.061 -0.0830  0.0381 -0.1688
  371MOL0     C48860   3.446   6.519   9.046  0.1039 -0.1097 -0.0245
  371MOL0     C48861   3.508   6.582   9.179 -0.1670  0.7973  0.0920
  371MOL0     C48862   3.477   6.732   9.209  0.3517  0.4058  0.2503
  371MOL0     C48863   3.550   6.789   9.329 -0.7958 -0.1292 -0.8158
  371MOL0     O48864   3.677   6.835   9.277 -0.5761  0.0840  0.0642
  371MOL0     C48865   3.794   6.821   9.356 -0.1338  0.6402 -0.1292
  371MOL0     C48866   3.794   6.773   9.490  0.6922  0.4450 -0.3845
  371MOL0     C48867   3.907   6.784   9.569  0.3377  0.0875 -1.3081
  371MOL0     C48868   4.028   6.828   9.523 -0.2359  0.2231 -1.0021
  371MOL0     C48869   4.160   6.834   9.598 -0.0831  0.1928  0.0102
  371MOL0     O48870   4.162   6.804   9.734  0.8490  0.3117  0.9271
  371MOL0     C48871   4.279   6.767   9.791  0.3214 -0.4971 -0.4457
  371MOL0     C48872   4.292   6.640   9.842  0.4883  0.0104 -0.6255
  371MOL0     C48873   4.409   6.601   9.913 -0.9711 -0.6114 -0.5698
  371MOL0     C48874   4.517   6.689   9.920  0.6572  0.4536  0.7224
  371MOL0     O48875   4.638   6.645   9.973 -0.2015  0.1166  0.4223
  371MOL0     C48876   4.755   6.721   9.959 -0.6341  0.4456 -0.2535
  371MOL0     C48877   4.883   6.635  10.008  0.8200 -0.7094 -0.6312
  371MOL0     C48878   5.016   6.706   9.980 -0.1326  0.4871 -0.0074
  371MOL0     C48879   5.052   6.831  10.069  0.8134 -0.8227 -0.7255
  371MOL0     C48880   5.181   6.805  10.150 -0.4351  0.2496 -0.1913
  371MOL0     C48881   5.209   6.923  10.242  0.0854  1.1570  0.1680
  371MOL0     C48882   5.274   7.034  10.162  0.2196 -0.0949  0.6369
  371MOL0     C48883   5.280   7.151  10.255 -0.8946  0.4005  1.0918
  371MOL0    Cl48884   5.409   7.267  10.198 -0.6411 -0.1644 -0.2920
  371MOL0     C48885   4.511   6.819   9.857  0.0500 -0.0942 -0.8391
  371MOL0     C48886   4.389   6.863   9.804  0.1384  0.9991 -0.0864
  371MOL0     O48887   4.266   6.856   9.539  0.6654  0.2277  0.0476
  371MOL0     C48888   4.033   6.867   9.386 -0.1589 -0.6167  0.3096
  371MOL0     C48889   3.922   6.862   9.300 -0.0538  0.4310 -0.6936
  371MOL0     N48890   3.255   6.354   9.124  0.4711  0.2513  0.6785
  371MOL0     N48891   3.128   6.353   9.119  0.2652 -0.1717  1.1453
  371MOL0     C48892   3.452   6.638   9.696 -0.4764 -0.3550  0.2392
  371MOL0     C48893   3.556   6.661   9.778 -0.1266  0.7185 -0.4066
  371MOL0     C48894   3.821   6.804  10.101 -0.8045  0.2876 -0.5395
  371MOL0     C48895   3.850   6.926  10.165 -0.2101 -0.2853  0.7133
  371MOL0     C48896   3.977   6.951  10.221 -0.6100  0.3093  0.5466
  371MOL0     C48897   4.075   6.846  10.226  0.0073  0.6340 -0.5496
  371MOL0     O48898   4.189   6.871  10.302  0.2154 -0.2429 -0.4081
  371MOL0     C48899   4.295   6.776  10.318 -0.8265 -0.0131  0.4014
  371MOL0     C48900   4.379   6.781  10.445  0.3216 -0.1520 -0.0979
  371MOL0     C48901   4.505   6.873  10.453 -0.0622  0.4157  0.2314
  371MOL0     C48902   4.626   6.822  10.376  0.0762  0.5650  0.3390
  371MOL0     C48903   4.734   6.915  10.391 -0.2875 -0.1332 -0.5172
  371MOL0     C48904   4.825   6.995  10.413  0.6250 -0.0637 -1.2123
  371MOL0     C48905   4.050   6.730  10.158  0.5490 -0.0922  0.3228
  371MOL0     C48906   3.927   6.708  10.093  0.2352 -0.7229  0.7999
  371MOL0     H48907   3.466   6.470  10.044  0.5488 -1.7964 -1.5167
  371MOL0     H48908   3.278   6.421   9.896 -0.2866  0.6787  1.9687
  371MOL0     H48909   3.175   6.416   9.506 -1.0852 -0.4865  4.9999
  371MOL0     H48910   3.345   6.472   9.505  0.1351  0.5641 -0.8985
  371MOL0     H48911   3.228   6.585   9.340 -2.1951  0.8143 -1.4352
  371MOL0     H48912   3.226   6.706   9.478 -0.3418 -1.2286  2.7618
  371MOL0     H48913   2.993   6.615   9.541 -0.1734 -0.9503 -0.1394
  371MOL0     H48914   3.009   6.505   9.408  1.8089  0.5159 -2.4983
  371MOL0     H48915   2.869   6.726   9.416  0.2587  2.2279  1.8014
  371MOL0     H48916   3.021   6.816   9.377 -0.9171 -0.2966 -0.0487
  371MOL0     H48917   3.056   6.700   9.173 -0.2309 -1.9589 -0.2029
  371MOL0     H48918   2.924   6.815   9.183 -0.9982  0.5509  4.2207
  371MOL0     H48919   2.758   6.641   9.177 -0.5037 -1.0933  2.4136
  371MOL0     H48920   2.860   6.516   9.213 -3.4034  0.6813  2.4524
  371MOL0     H48921   2.774   6.587   8.967 -1.4868 -0.2166  0.8042
  371MOL0     H48922   2.925   6.682   8.971 -2.2311  1.0698  0.3199
  371MOL0     H48923   2.972   6.478   8.858 -1.3561  1.6322 -1.2242
  371MOL0     H48924   2.911   6.369   8.984  3.2249 -2.1843 -2.1783
  371MOL0     H48925   3.201   6.635   8.957  3.0680 -1.2183  0.5217
  371MOL0     H48926   3.462   6.575   8.953  1.6524 -0.0227  0.2730
  371MOL0     H48927   3.505   6.429   9.028 -0.2922 -0.5356  0.7825
  371MOL0     H48928   3.615   6.562   9.175 -0.3297 -0.4213  1.3243
  371MOL0     H48929   3.476   6.530   9.269  0.4855 -0.9412 -0.6302
  371MOL0     H48930   3.494   6.797   9.122 -0.8317  3.2292  1.9987
  371MOL0     H48931   3.371   6.754   9.226  0.0526  3.0807 -3.6829
  371MOL0     H48932   3.556   6.704   9.399 -1.1449  0.0191 -0.6023
  371MOL0     H48933   3.489   6.865   9.378 -0.0363  0.1002 -0.1932
  371MOL0     H48934   3.703   6.732   9.533  2.9540 -0.5603  4.0528
  371MOL0     H48935   3.894   6.747   9.670  0.3693  1.4984 -0.7659
  371MOL0     H48936   4.208   6.572   9.840  0.2270  0.3129 -3.6196
  371MOL0     H48937   4.414   6.504   9.962 -0.0529  0.6064  1.9024
  371MOL0     H48938   4.763   6.803  10.032 -1.3590 -1.7506  2.4893
  371MOL0     H48939   4.764   6.747   9.853 -1.3335 -1.3616 -0.7930
  371MOL0     H48940   4.879   6.542   9.952 -2.0338 -0.5201 -0.8920
  371MOL0     H48941   4.884   6.619  10.116  1.1451 -1.3628 -0.7325
  371MOL0     H48942   5.020   6.736   9.875  1.7127  1.1317  0.2112
  371MOL0     H48943   5.099   6.635   9.984 -1.4466 -1.3502 -2.3546
  371MOL0     H48944   5.049   6.923  10.010 -2.1762 -0.7088 -0.5659
  371MOL0     H48945   4.965   6.850  10.133  0.4537 -0.9869 -1.1593
  371MOL0     H48946   5.251   6.773  10.073 -1.7469 -0.5876 -1.0715
  371MOL0     H48947   5.189   6.716  10.215  1.6709  0.1153 -0.5709
  371MOL0     H48948   5.275   6.893  10.324 -4.4590 -2.9378  2.8223
  371MOL0     H48949   5.123   6.971  10.289 -0.0639 -0.4436  1.6294
  371MOL0     H48950   5.373   7.000  10.128 -0.1741  0.3475 -1.0222
  371MOL0     H48951   5.223   7.057  10.069 -0.3715  1.4894  1.3176
  371MOL0     H48952   5.298   7.103  10.351  0.2686 -1.1236  0.1741
  371MOL0     H48953   5.189   7.210  10.263 -1.3625 -0.3508  1.3368
  371MOL0     H48954   4.593   6.887   9.876 -1.0951  1.2565 -0.5755
  371MOL0     H48955   4.375   6.965   9.770  1.8185  1.1142 -0.4883
  371MOL0     H48956   4.122   6.909   9.340 -0.8370 -1.3192 -1.7812
  371MOL0     H48957   3.934   6.909   9.203  1.5464  3.5279  0.8669
  371MOL0     H48958   3.439   6.698   9.607  2.2070 -1.9175 -1.3581
  371MOL0     H48959   3.628   6.740   9.759  0.1338  0.5262 -0.2293
  371MOL0     H48960   3.768   6.998  10.162  0.9677  1.0863 -2.4594
  371MOL0     H48961   4.011   7.047  10.259  1.3449 -0.6988  1.5332
  371MOL0     H48962   4.365   6.778  10.234  0.1637 -3.2756  1.0060
  371MOL0     H48963   4.261   6.673  10.307  3.8343 -1.7294 -0.5412
  371MOL0     H48964   4.314   6.816  10.525  1.1051 -0.4161  0.6718
  371MOL0     H48965   4.411   6.679  10.472  0.8649  0.7830  3.2138
  371MOL0     H48966   4.527   6.878  10.560 -2.0888 -0.4830  0.7389
  371MOL0     H48967   4.475   6.973  10.422  1.2345  0.9234  0.5217
  371MOL0     H48968   4.650   6.724  10.420 -2.7230 -0.4133 -0.1160
  371MOL0     H48969   4.607   6.816  10.268 -3.4942  2.6073  0.7012
  371MOL0     H48970   4.907   7.062  10.427 -0.7528  2.2181 -3.3077
  371MOL0     H48971   4.115   6.644  10.147 -0.6122 -0.8311 -1.1263
  371MOL0     H48972   3.923   6.611  10.043  1.4959 -1.0697  1.3214
  372MOL0     O48973   1.960   6.637   8.544  0.3847  0.0114 -0.1575
  372MOL0     C48974   1.853   6.640   8.492  0.1936  0.4761  0.7180
  372MOL0     O48975   1.747   6.693   8.537  0.5868 -0.3267 -0.1592
  372MOL0     C48976   1.760   6.743   8.663  0.2458 -0.3981  0.1088
  372MOL0     C48977   1.777   6.651   8.763  0.9375 -0.0094  0.1184
  372MOL0     C48978   1.809   6.698   8.897  0.0253  0.1039  0.9466
  372MOL0     C48979   1.813   6.835   8.921  0.0276  0.5309 -0.3909
  372MOL0     O48980   1.836   6.867   9.056 -0.0223  0.4759  0.3357
  372MOL0     C48981   1.882   7.005   9.095 -0.2910  0.4284 -0.7468
  372MOL0     C48982   1.984   6.981   9.202 -0.4071  0.2836 -0.2485
  372MOL0     C48983   2.093   7.093   9.219 -0.4011 -0.5063  0.2173
  372MOL0     C48984   2.137   7.096   9.369  0.2958 -0.3675 -1.6820
  372MOL0     C48985   2.223   7.227   9.398 -1.2225 -0.1233 -0.0912
  372MOL0     C48986   2.240   7.251   9.549  0.0856  0.1395  0.4783
  372MOL0     C48987   2.360   7.349   9.566  0.2497 -0.7076  0.1082
  372MOL0     C48988   2.371   7.394   9.707 -0.1683  0.4590  0.5842
  372MOL0     N48989   2.467   7.502   9.711  0.0040  0.0287 -0.6513
  372MOL0     C48990   2.455   7.615   9.634 -0.3499  0.4928 -0.1260
  372MOL0     C48991   2.577   7.677   9.634 -0.3226  0.2493 -0.1383
  372MOL0     C48992   2.615   7.792   9.554 -0.6206 -1.0360 -0.2285
  372MOL0     C48993   2.548   7.810   9.421  0.0325  0.8782  0.5700
  372MOL0     C48994   2.532   7.671   9.343 -0.1724 -0.4328  0.2405
  372MOL0     C48995   2.541   7.694   9.191 -0.1276 -0.0273  0.5888
  372MOL0     O48996   2.547   7.572   9.120  0.2840  0.2340  0.3276
  372MOL0     C48997   2.444   7.526   9.062 -0.1304  0.1028 -0.2665
  372MOL0     C48998   2.369   7.591   8.963  0.3114  1.1028 -0.2029
  372MOL0     C48999   2.269   7.530   8.889 -0.1127  0.5215 -0.2659
  372MOL0     C49000   2.226   7.402   8.928 -0.3354  0.4499 -1.1216
  372MOL0     C49001   2.111   7.336   8.854 -1.1923  0.6478  0.7383
  372MOL0     O49002   2.108   7.349   8.717 -0.4428 -0.2231  0.0190
  372MOL0     C49003   2.060   7.249   8.632  0.1388  0.4464 -0.0343
  372MOL0     C49004   2.079   7.111   8.644 -0.6496 -0.2039 -0.2341
  372MOL0     C49005   2.042   7.021   8.536  0.4373  0.3143  0.2694
  372MOL0     C49006   1.974   7.073   8.424 -1.0495 -0.0532 -0.5509
  372MOL0     O49007   1.934   6.976   8.336  0.7794 -0.0284  0.0307
  372MOL0     C49008   1.807   6.997   8.271  0.2374  0.3362 -0.1354
  372MOL0     C49009   1.747   6.865   8.220 -0.0651  0.4309 -0.2280
  372MOL0     C49010   1.679   6.890   8.080 -0.1101  0.1750  0.4832
  372MOL0     C49011   1.631   6.763   8.005 -1.1201  0.4909 -0.1406
  372MOL0     C49012   1.536   6.783   7.888  0.1621  0.4678  0.2370
  372MOL0     C49013   1.386   6.744   7.914  0.4126  0.2400 -0.2577
  372MOL0     C49014   1.360   6.586   7.938  0.6114 -0.1271 -0.2538
  372MOL0     C49015   1.210   6.565   7.939  0.4013 -0.2371  0.7788
  372MOL0    Cl49016   1.139   6.567   7.773  0.0612 -0.4353  0.6250
  372MOL0     C49017   1.945   7.207   8.424  0.7516 -0.5880  0.6787
  372MOL0     C49018   2.001   7.293   8.518  0.2469 -0.5011  0.4596
  372MOL0     O49019   2.029   7.266   8.918 -0.6023 -0.2991 -0.9930
  372MOL0     C49020   2.295   7.340   9.034 -0.4847 -0.2552 -0.8015
  372MOL0     C49021   2.402   7.393   9.097 -0.4852  0.9321 -0.2880
  372MOL0     N49022   2.653   7.603   9.721 -0.1077  0.0705  0.4703
  372MOL0     N49023   2.593   7.497   9.764 -0.1082  0.3046 -0.3226
  372MOL0     C49024   1.784   6.930   8.819 -0.1108  0.2837 -0.5368
  372MOL0     C49025   1.753   6.882   8.689  0.6501 -0.4342 -1.1309
  372MOL0     C49026   1.841   6.569   8.360 -0.7775  0.6443  0.5406
  372MOL0     C49027   1.709   6.521   8.318 -0.6292  0.3675  0.2914
  372MOL0     C49028   1.699   6.451   8.198 -0.8058 -0.3623 -0.5286
  372MOL0     C49029   1.806   6.412   8.119 -0.4335 -0.1170  0.6340
  372MOL0     O49030   1.769   6.333   8.013  0.1034  0.4402 -0.0684
  372MOL0     C49031   1.877   6.280   7.930  1.0250 -0.0665 -0.5231
  372MOL0     C49032   1.891   6.355   7.799 -0.9231  0.6211 -0.0702
  372MOL0     C49033   1.764   6.393   7.724  1.0448  0.0063  0.4572
  372MOL0     C49034   1.793   6.427   7.579  0.0103  0.0156  0.4111
  372MOL0     C49035   1.678   6.457   7.499  0.3068  0.5065  0.0458
  372MOL0     C49036   1.589   6.485   7.420 -0.8241 -0.6669 -0.0233
  372MOL0     C49037   1.939   6.464   8.161  0.7278  0.9610  0.1838
  372MOL0     C49038   1.952   6.541   8.285 -0.5036  0.1806  1.0737
  372MOL0     H49039   1.776   6.545   8.740  1.6305  0.0958 -0.4121
  372MOL0     H49040   1.811   6.626   8.978 -1.7161 -1.9073 -0.6629
  372MOL0     H49041   1.799   7.065   9.134  1.8587  2.4406  0.9968
  372MOL0     H49042   1.929   7.060   9.013  1.3426  0.1937 -0.0030
  372MOL0     H49043   2.036   6.890   9.172 -1.0073  0.4812 -2.0646
  372MOL0     H49044   1.929   6.960   9.294  0.7839 -0.6610  0.2678
  372MOL0     H49045   2.048   7.187   9.186 -0.7652 -1.0120 -0.7622
  372MOL0     H49046   2.172   7.066   9.149 -0.5478  1.3708 -0.7488
  372MOL0     H49047   2.051   7.101   9.437  1.8601  0.3457  0.3693
  372MOL0     H49048   2.189   7.001   9.387 -0.3012 -0.5793 -0.9805
  372MOL0     H49049   2.180   7.318   9.355 -1.1266 -1.8553 -4.4152
  372MOL0     H49050   2.322   7.205   9.357 -0.7390  0.3060  0.8167
  372MOL0     H49051   2.275   7.164   9.606 -0.0814  0.4561  1.0704
  372MOL0     H49052   2.150   7.281   9.603 -0.4937  0.2054 -0.4905
  372MOL0     H49053   2.456   7.309   9.533 -0.3934 -2.2400 -0.0089
  372MOL0     H49054   2.340   7.433   9.500  0.1523 -1.9946 -1.5737
  372MOL0     H49055   2.394   7.315   9.779 -0.1905 -0.0678  0.0292
  372MOL0     H49056   2.274   7.422   9.749 -0.3441 -1.3228  1.4571
  372MOL0     H49057   2.365   7.646   9.582  0.8865  1.1646 -1.9780
  372MOL0     H49058   2.723   7.799   9.542 -0.5611 -2.1252 -0.4618
  372MOL0     H49059   2.585   7.883   9.607 -0.0143 -0.1723 -1.3086
  372MOL0     H49060   2.622   7.875   9.373  0.4584 -0.5074 -0.7725
  372MOL0     H49061   2.452   7.861   9.419 -0.1043  0.6142 -0.6085
  372MOL0     H49062   2.607   7.602   9.384  0.5295 -0.5004 -1.0928
  372MOL0     H49063   2.437   7.625   9.371  0.2209 -1.5230 -0.1551
  372MOL0     H49064   2.628   7.756   9.169 -0.3015  1.7355  4.2067
  372MOL0     H49065   2.456   7.753   9.156  0.9544  0.0651 -2.0912
  372MOL0     H49066   2.388   7.697   8.946  2.4810  0.7522 -0.1794
  372MOL0     H49067   2.212   7.585   8.815 -0.4507  1.4882  0.6894
  372MOL0     H49068   2.126   7.094   8.741 -1.4421 -1.1624 -0.0046
  372MOL0     H49069   2.053   6.915   8.557  0.5296 -0.0221 -1.3771
  372MOL0     H49070   1.821   7.068   8.189 -2.9002  0.5267 -0.6269
  372MOL0     H49071   1.735   7.046   8.336 -1.7612  1.8852 -3.2631
  372MOL0     H49072   1.681   6.827   8.298 -1.2688  1.8779 -0.4854
  372MOL0     H49073   1.822   6.788   8.198 -0.3383  0.2096 -0.3910
  372MOL0     H49074   1.756   6.938   8.019  1.4705 -0.2138  2.0839
  372MOL0     H49075   1.600   6.965   8.090  0.2504  0.4773  1.1282
  372MOL0     H49076   1.720   6.717   7.960  0.2488  3.8358 -1.1654
  372MOL0     H49077   1.579   6.705   8.082 -3.8108  2.4944 -0.2895
  372MOL0     H49078   1.582   6.725   7.807  1.6227  0.0401  1.3239
  372MOL0     H49079   1.531   6.887   7.855 -1.1660  0.1638 -0.5784
  372MOL0     H49080   1.323   6.764   7.827 -0.2206 -0.4081  0.0363
  372MOL0     H49081   1.349   6.803   7.998  2.9472 -0.4269  1.4404
  372MOL0     H49082   1.405   6.533   7.853  1.0193 -1.8394  0.9815
  372MOL0     H49083   1.393   6.538   8.030 -0.1117  0.4545  0.3209
  372MOL0     H49084   1.175   6.643   8.008  1.3598 -0.3814  1.4511
  372MOL0     H49085   1.193   6.464   7.980 -0.5711 -0.2031  0.4871
  372MOL0     H49086   1.893   7.253   8.340 -0.9673  0.5875  2.3171
  372MOL0     H49087   1.970   7.397   8.518 -0.5951 -0.6284  3.9765
  372MOL0     H49088   2.261   7.240   9.060  1.9994 -2.3116 -4.5326
  372MOL0     H49089   2.456   7.332   9.168  0.3833 -0.0700 -1.7409
  372MOL0     H49090   1.797   7.036   8.840 -0.1774  0.1588  0.1742
  372MOL0     H49091   1.746   6.952   8.607  0.0404 -0.9525 -1.5299
  372MOL0     H49092   1.618   6.547   8.371 -1.4510 -0.6580 -0.5813
  372MOL0     H49093   1.598   6.421   8.172 -0.6062 -0.1029 -1.6469
  372MOL0     H49094   1.865   6.172   7.915 -0.8522 -0.0799  0.7649
  372MOL0     H49095   1.976   6.278   7.976  2.0158  1.3428 -2.4381
  372MOL0     H49096   1.950   6.445   7.822 -1.6976  0.9143  0.8454
  372MOL0     H49097   1.951   6.297   7.728  3.6187  4.2084  0.3443
  372MOL0     H49098   1.707   6.476   7.766 -2.1911 -0.9005 -1.7620
  372MOL0     H49099   1.696   6.308   7.719 -0.8051  1.4169  0.1366
  372MOL0     H49100   1.858   6.514   7.588  0.3302 -0.3169  1.4540
  372MOL0     H49101   1.849   6.345   7.532  2.4198  1.7818  0.0091
  372MOL0     H49102   1.517   6.514   7.345  0.8191 -0.6940 -1.6725
  372MOL0     H49103   2.028   6.435   8.106 -0.8601 -0.8186 -1.6050
  372MOL0     H49104   2.051   6.572   8.318 -0.1825  0.7265 -0.3260
  373MOL0     O49105   6.542   8.765   8.904 -0.0202  0.4402 -0.6528
  373MOL0     C49106   6.466   8.859   8.883 -0.0297  0.0384  0.3171
  373MOL0     O49107   6.329   8.860   8.895 -0.6102  0.2325  0.8271
  373MOL0     C49108   6.253   8.742   8.880 -0.9185  0.5755 -0.1253
  373MOL0     C49109   6.111   8.752   8.892  0.1520 -0.5779 -0.5179
  373MOL0     C49110   6.028   8.645   8.872 -0.1304  0.3815 -0.3682
  373MOL0     C49111   6.076   8.517   8.833 -0.0083 -1.0564  0.4464
  373MOL0     O49112   5.977   8.434   8.799 -0.6647  0.0919 -0.3261
  373MOL0     C49113   6.004   8.311   8.734  0.3549  0.1757  0.0454
  373MOL0     C49114   5.878   8.235   8.682 -0.9371 -0.5674 -0.4526
  373MOL0     C49115   5.775   8.210   8.792  0.1904 -0.4192  0.5519
  373MOL0     C49116   5.645   8.163   8.720 -0.2369  1.5086 -0.2130
  373MOL0     C49117   5.539   8.109   8.822  0.1929  1.0534  0.0424
  373MOL0     C49118   5.441   8.209   8.868 -0.2537  0.7437  0.0114
  373MOL0     C49119   5.363   8.149   8.991 -0.0628 -0.0219  0.0594
  373MOL0     C49120   5.241   8.232   9.029 -0.5403  0.3603 -0.3743
  373MOL0     N49121   5.165   8.172   9.154 -0.5463  0.0299  0.7220
  373MOL0     C49122   5.074   8.065   9.149 -0.1136  1.2939  0.6419
  373MOL0     C49123   5.043   8.050   9.281  0.3480 -0.1758  0.6843
  373MOL0     C49124   4.939   7.951   9.323 -0.6594  0.0182 -0.1394
  373MOL0     C49125   4.802   8.004   9.302 -0.0411 -1.1844  0.3273
  373MOL0     C49126   4.681   7.916   9.346  0.2963 -0.4404  0.4925
  373MOL0     C49127   4.660   7.820   9.236 -0.4568  0.3283  0.4295
  373MOL0     O49128   4.548   7.740   9.277 -0.4398  0.3174  0.0198
  373MOL0     C49129   4.463   7.700   9.176  0.2205  0.6760 -0.1921
  373MOL0     C49130   4.503   7.636   9.059 -0.3962 -0.5076  0.1676
  373MOL0     C49131   4.413   7.600   8.959 -0.0135  0.3257 -0.7655
  373MOL0     C49132   4.276   7.605   8.981 -0.1926 -0.0100  0.0693
  373MOL0     C49133   4.185   7.544   8.884 -0.5153  0.4641 -0.4583
  373MOL0     O49134   4.053   7.559   8.921  0.2253 -0.4695  0.3425
  373MOL0     C49135   3.952   7.499   8.849  0.4376  0.2088  0.1474
  373MOL0     C49136   3.964   7.377   8.776 -0.5128 -1.1072  0.4429
  373MOL0     C49137   3.856   7.324   8.713  0.0452  0.2403 -0.2299
  373MOL0     C49138   3.731   7.381   8.721 -0.9443  0.0919 -0.1653
  373MOL0     O49139   3.641   7.301   8.668  0.8535  0.2321 -0.5994
  373MOL0     C49140   3.516   7.357   8.621 -0.0773 -0.0816 -0.1625
  373MOL0     C49141   3.428   7.241   8.583 -0.0493  0.8527  1.1626
  373MOL0     C49142   3.291   7.291   8.535 -1.0153  0.5792 -0.3803
  373MOL0     C49143   3.210   7.322   8.659  0.1221 -0.1516  0.2662
  373MOL0     C49144   3.074   7.380   8.622 -0.3931 -0.0604 -0.7010
  373MOL0     C49145   2.989   7.388   8.751 -0.3218  0.7326 -0.6682
  373MOL0     C49146   2.853   7.443   8.727 -0.4417  0.3800 -0.1296
  373MOL0     C49147   2.766   7.475   8.842 -0.6158  0.0246 -0.5644
  373MOL0    Cl49148   2.813   7.631   8.926 -0.2178  0.0233  0.3261
  373MOL0     C49149   3.715   7.506   8.784  0.0364  0.2230 -0.3858
  373MOL0     C49150   3.828   7.561   8.849 -0.1975  0.1834 -0.3221
  373MOL0     O49151   4.233   7.495   8.777 -0.7756  0.0383 -0.3917
  373MOL0     C49152   4.228   7.665   9.103  0.2458 -0.8253  0.0024
  373MOL0     C49153   4.325   7.709   9.201  0.3625  0.0695  0.5520
  373MOL0     N49154   5.114   8.137   9.358  0.5051 -0.1148 -0.0076
  373MOL0     N49155   5.186   8.211   9.285 -0.0516 -0.2404 -0.0537
  373MOL0     C49156   6.219   8.513   8.818 -0.0549  0.9934  1.0076
  373MOL0     C49157   6.306   8.621   8.837 -0.4216 -1.0151 -0.6234
  373MOL0     C49158   6.516   8.988   8.843  0.1070 -0.9059 -0.1398
  373MOL0     C49159   6.653   9.010   8.859  0.9281  0.3676  0.1634
  373MOL0     C49160   6.710   9.131   8.832 -0.2113 -0.1874 -0.3155
  373MOL0     C49161   6.633   9.236   8.780  1.0527  0.4411 -0.5808
  373MOL0     O49162   6.684   9.360   8.741 -0.4548  0.4002 -0.6944
  373MOL0     C49163   6.821   9.355   8.698 -0.1026 -0.2000  0.4694
  373MOL0     C49164   6.849   9.471   8.601 -0.3921 -0.7319  0.2319
  373MOL0     C49165   6.895   9.447   8.456  0.8712  0.1093  1.1303
  373MOL0     C49166   6.787   9.372   8.370 -1.2399 -0.9083 -0.9329
  373MOL0     C49167   6.696   9.475   8.322  0.2027  0.0816  0.7383
  373MOL0     C49168   6.604   9.551   8.294 -0.1227 -0.1557 -0.3372
  373MOL0     C49169   6.491   9.221   8.767  0.1507  0.2882 -0.7484
  373MOL0     C49170   6.430   9.098   8.804 -0.9615 -0.5489 -0.1590
  373MOL0     H49171   6.075   8.852   8.916 -0.6005 -1.0992  0.5824
  373MOL0     H49172   5.920   8.659   8.871 -0.3177 -0.8851  0.2070
  373MOL0     H49173   6.049   8.246   8.810  1.1182  1.3842  0.6577
  373MOL0     H49174   6.073   8.318   8.649  2.3120 -1.0304  1.4569
  373MOL0     H49175   5.897   8.132   8.650  0.4424 -0.8865  1.2401
  373MOL0     H49176   5.841   8.291   8.595 -1.5874 -1.3071 -0.6567
  373MOL0     H49177   5.750   8.304   8.840 -0.8226 -1.4438  2.1118
  373MOL0     H49178   5.809   8.124   8.851 -0.6285 -2.5974 -1.9534
  373MOL0     H49179   5.597   8.234   8.653 -2.4871 -0.0234 -0.3056
  373MOL0     H49180   5.671   8.075   8.661 -0.5585  0.5832  0.9914
  373MOL0     H49181   5.584   8.056   8.907  0.1591  0.3008 -0.3948
  373MOL0     H49182   5.486   8.032   8.764  1.0359  1.0187 -0.7126
  373MOL0     H49183   5.368   8.227   8.788 -0.9028 -1.7818 -0.0399
  373MOL0     H49184   5.498   8.298   8.894  0.6579  1.1494 -2.9599
  373MOL0     H49185   5.318   8.056   8.955  0.4179  0.0496 -0.7538
  373MOL0     H49186   5.429   8.132   9.076  1.5510 -0.7096 -1.2791
  373MOL0     H49187   5.163   8.244   8.953 -1.7075  1.2049  0.9096
  373MOL0     H49188   5.287   8.328   9.055  0.5633  0.4202 -2.3752
  373MOL0     H49189   5.035   8.013   9.062  1.2568 -0.2784  0.9085
  373MOL0     H49190   4.947   7.915   9.426  0.8702 -3.1149 -1.2016
  373MOL0     H49191   4.954   7.853   9.277 -0.6736 -0.8494  1.6172
  373MOL0     H49192   4.778   8.035   9.200 -2.6286  1.6769  1.6629
  373MOL0     H49193   4.792   8.099   9.355  1.2661  0.1594 -1.6936
  373MOL0     H49194   4.714   7.860   9.434 -0.1211 -2.5832 -0.6504
  373MOL0     H49195   4.587   7.969   9.360 -0.1319  0.6963 -4.7024
  373MOL0     H49196   4.746   7.753   9.229 -0.0993  0.8228  0.0354
  373MOL0     H49197   4.637   7.867   9.140 -1.3574  0.0747  0.5069
  373MOL0     H49198   4.610   7.630   9.042 -0.0138 -0.6365  2.3357
  373MOL0     H49199   4.465   7.562   8.872  1.7218 -0.1646  0.4467
  373MOL0     H49200   4.059   7.331   8.753 -0.1164  0.4012 -1.1670
  373MOL0     H49201   3.864   7.237   8.648  3.2663 -0.9951  1.5867
  373MOL0     H49202   3.536   7.419   8.533 -0.2127 -1.4861 -1.1989
  373MOL0     H49203   3.479   7.424   8.700  1.4637  1.4849 -0.6831
  373MOL0     H49204   3.424   7.172   8.668  2.5921 -1.2321 -0.2487
  373MOL0     H49205   3.486   7.182   8.511 -0.6972 -1.9770  2.7987
  373MOL0     H49206   3.249   7.210   8.475  0.5764 -0.9774  0.5210
  373MOL0     H49207   3.308   7.377   8.470  2.8000 -0.5275 -1.0369
  373MOL0     H49208   3.191   7.228   8.712 -1.3952 -2.1331 -3.4365
  373MOL0     H49209   3.263   7.384   8.732 -2.4824  1.9501  0.5544
  373MOL0     H49210   3.022   7.325   8.544 -0.5949  1.1683 -1.4702
  373MOL0     H49211   3.097   7.482   8.590  1.8409  0.0006  0.8350
  373MOL0     H49212   3.027   7.442   8.839  0.3375 -1.7064  0.6467
  373MOL0     H49213   2.971   7.289   8.794 -3.4304  1.4879  0.0556
  373MOL0     H49214   2.862   7.521   8.650  4.0408 -1.0988 -1.3979
  373MOL0     H49215   2.805   7.361   8.673 -0.7858 -0.6144  1.6116
  373MOL0     H49216   2.769   7.385   8.903  0.1757 -0.8628 -1.8635
  373MOL0     H49217   2.666   7.485   8.799  0.3094 -2.0853 -3.4892
  373MOL0     H49218   3.616   7.551   8.778  0.0268  0.0826 -1.4978
  373MOL0     H49219   3.806   7.654   8.902 -0.8552  0.2761 -0.7454
  373MOL0     H49220   4.124   7.654   9.131  0.6283  0.1721  1.9480
  373MOL0     H49221   4.294   7.730   9.303  3.5055  0.7191  1.4731
  373MOL0     H49222   6.258   8.416   8.788 -2.6198  0.1935  0.0325
  373MOL0     H49223   6.409   8.590   8.820 -0.3315 -0.7695 -0.5258
  373MOL0     H49224   6.725   8.937   8.897  0.6368  0.7766  1.5820
  373MOL0     H49225   6.813   9.147   8.862 -0.5976  0.1417  0.8547
  373MOL0     H49226   6.851   9.263   8.648  0.1861 -1.0724  2.1583
  373MOL0     H49227   6.890   9.370   8.782 -0.1902  2.1118  0.1934
  373MOL0     H49228   6.761   9.536   8.597  0.5190  0.5794 -4.4381
  373MOL0     H49229   6.938   9.530   8.623 -0.3929 -1.1788  1.5274
  373MOL0     H49230   6.981   9.380   8.466  0.1670 -0.6813  2.0280
  373MOL0     H49231   6.928   9.543   8.414 -2.1760  0.3892 -0.8780
  373MOL0     H49232   6.827   9.314   8.287 -1.2579 -3.0301  0.4663
  373MOL0     H49233   6.734   9.302   8.436 -0.9250  0.7692  1.2118
  373MOL0     H49234   6.515   9.610   8.287 -0.2723 -0.4824 -1.4378
  373MOL0     H49235   6.424   9.291   8.720 -1.5021 -0.0665  0.9488
  373MOL0     H49236   6.324   9.084   8.784 -0.8741  0.0281 -1.1186
  374MOL0     O49237   6.907   4.568   3.542 -0.3818  0.4182  0.0174
  374MOL0     C49238   6.984   4.600   3.452 -0.1547  0.2257  0.8030
  374MOL0     O49239   6.964   4.681   3.347 -0.1256  0.1881 -0.5062
  374MOL0     C49240   6.844   4.737   3.327 -0.0694 -0.2988 -0.4618
  374MOL0     C49241   6.770   4.810   3.422 -0.2704 -0.0277  0.5175
  374MOL0     C49242   6.643   4.855   3.386  0.2229 -0.1465  0.4405
  374MOL0     C49243   6.582   4.838   3.260  0.2141  0.2004  0.3795
  374MOL0     O49244   6.453   4.879   3.239 -0.1709 -0.5753 -0.5341
  374MOL0     C49245   6.416   4.964   3.131  0.4114  0.3016 -0.5954
  374MOL0     C49246   6.277   5.021   3.143 -0.2965  0.7518 -0.4135
  374MOL0     C49247   6.169   4.920   3.121  1.2258  0.4593  0.0423
  374MOL0     C49248   6.040   4.974   3.174  0.2798 -0.2224  0.5887
  374MOL0     C49249   5.914   4.888   3.139  0.2833  0.4202 -0.0895
  374MOL0     C49250   5.781   4.955   3.158 -0.4893  1.1411  0.7114
  374MOL0     C49251   5.660   4.858   3.155  0.1134  0.5815  0.5566
  374MOL0     C49252   5.531   4.938   3.165 -0.3777 -0.2949 -0.0197
  374MOL0     N49253   5.418   4.847   3.188  0.3830  0.0860 -0.7213
  374MOL0     C49254   5.388   4.773   3.307  0.4540 -0.4995  0.4473
  374MOL0     C49255   5.286   4.695   3.266  0.1105 -1.2474 -0.3462
  374MOL0     C49256   5.221   4.576   3.335  0.1423  0.6848  0.9754
  374MOL0     C49257   5.120   4.616   3.448 -0.0604  0.2591  0.0405
  374MOL0     C49258   5.046   4.737   3.419  0.8283  0.1308 -1.2999
  374MOL0     C49259   4.917   4.746   3.496 -0.2197  0.0217  0.6882
  374MOL0     O49260   4.821   4.657   3.443 -1.4650  0.3531 -0.0737
  374MOL0     C49261   4.684   4.682   3.438  0.2029 -0.3853 -0.1218
  374MOL0     C49262   4.594   4.604   3.373  0.1639  0.4218 -0.5983
  374MOL0     C49263   4.459   4.623   3.371  0.5619  0.0844 -0.8373
  374MOL0     C49264   4.395   4.737   3.429 -0.2071  0.5777  1.0980
  374MOL0     C49265   4.248   4.760   3.436  0.3696 -0.2131  0.2433
  374MOL0     O49266   4.184   4.653   3.396 -0.1337 -0.7759  0.4273
  374MOL0     C49267   4.053   4.628   3.421 -0.3263 -0.4385  0.0538
  374MOL0     C49268   3.950   4.718   3.391 -0.7580  0.4884 -0.9424
  374MOL0     C49269   3.819   4.677   3.421 -0.0908 -0.2928 -0.2156
  374MOL0     C49270   3.788   4.547   3.460  0.6403 -0.1942 -0.5382
  374MOL0     O49271   3.657   4.527   3.471  0.1709 -0.4214 -0.5346
  374MOL0     C49272   3.629   4.403   3.544 -0.7484 -0.6108  0.1938
  374MOL0     C49273   3.482   4.396   3.576  0.2958 -0.1125 -0.4749
  374MOL0     C49274   3.396   4.422   3.449  0.2189 -0.5480  0.0225
  374MOL0     C49275   3.257   4.355   3.452  0.5996 -0.0027  0.4689
  374MOL0     C49276   3.171   4.423   3.554  0.1764 -0.1597  1.1160
  374MOL0     C49277   3.031   4.355   3.562 -1.6614 -0.9508  0.0117
  374MOL0     C49278   3.027   4.220   3.648  0.6787  0.1442 -0.1146
  374MOL0     C49279   2.891   4.154   3.654 -0.7452 -0.1294 -0.6263
  374MOL0    Cl49280   2.828   4.125   3.493 -0.0054  0.1482  0.4205
  374MOL0     C49281   3.893   4.456   3.491  0.8008  0.3394  0.2591
  374MOL0     C49282   4.021   4.497   3.465 -0.5323  0.1525 -0.6969
  374MOL0     O49283   4.192   4.867   3.476 -0.6109 -0.3302 -0.4716
  374MOL0     C49284   4.483   4.823   3.497  0.1522  0.2984 -0.3506
  374MOL0     C49285   4.628   4.798   3.498  0.6148  0.6696  0.0668
  374MOL0     N49286   5.255   4.720   3.130 -0.2886 -0.4564 -0.4776
  374MOL0     N49287   5.332   4.818   3.089 -0.9646  0.4772 -0.1436
  374MOL0     C49288   6.663   4.769   3.168  0.2527 -0.3068  0.1446
  374MOL0     C49289   6.791   4.730   3.197 -0.8480  1.0818  1.4843
  374MOL0     C49290   7.116   4.525   3.441  0.2768 -0.4240 -0.4849
  374MOL0     C49291   7.163   4.446   3.543 -0.1867  0.4782 -0.3860
  374MOL0     C49292   7.302   4.405   3.545 -0.4215 -0.2708  0.4191
  374MOL0     C49293   7.389   4.428   3.441 -0.2522 -0.1958  0.7655
  374MOL0     O49294   7.521   4.406   3.437 -0.0959 -0.2390 -0.1022
  374MOL0     C49295   7.594   4.359   3.558 -0.4314  0.2929  0.0398
  374MOL0     C49296   7.743   4.401   3.538 -0.5180  0.6244  0.3841
  374MOL0     C49297   7.836   4.290   3.606  0.4614 -0.4581  0.3946
  374MOL0     C49298   7.983   4.336   3.594 -0.1579  0.6571  0.2929
  374MOL0     C49299   8.020   4.332   3.452 -0.6486 -0.0884  0.1227
  374MOL0     C49300   8.050   4.342   3.331  0.2134 -0.0766 -0.1179
  374MOL0     C49301   7.325   4.497   3.333 -1.0999 -0.0960  0.3558
  374MOL0     C49302   7.192   4.541   3.330 -0.6140 -0.4818 -0.9149
  374MOL0     H49303   6.817   4.815   3.519  0.6710  0.4892  0.0426
  374MOL0     H49304   6.572   4.898   3.456 -0.2284 -1.0359  0.5452
  374MOL0     H49305   6.424   4.902   3.041 -0.9144  0.8065 -1.0965
  374MOL0     H49306   6.484   5.049   3.129  1.8625 -0.7183  1.3657
  374MOL0     H49307   6.264   5.115   3.088 -4.9486  1.2870  1.0808
  374MOL0     H49308   6.272   5.054   3.248 -1.9744 -1.0004  0.1313
  374MOL0     H49309   6.189   4.823   3.166 -1.1379 -0.0483  0.0874
  374MOL0     H49310   6.161   4.901   3.014 -1.4278 -1.1935  0.4639
  374MOL0     H49311   6.040   4.984   3.283  0.0740 -2.4311  0.8225
  374MOL0     H49312   6.033   5.074   3.129  0.8162  0.4921  2.0325
  374MOL0     H49313   5.914   4.793   3.193 -1.4657  0.7819  0.6072
  374MOL0     H49314   5.920   4.857   3.034  2.6502  1.0433 -0.2005
  374MOL0     H49315   5.769   5.036   3.086 -0.4673  0.3859 -0.1669
  374MOL0     H49316   5.775   5.006   3.254  0.5670 -0.4241  1.6529
  374MOL0     H49317   5.652   4.807   3.059 -0.0709  0.9076  0.3988
  374MOL0     H49318   5.672   4.786   3.236  0.2473  1.7708  1.6372
  374MOL0     H49319   5.524   5.002   3.077 -2.6132 -0.6415 -0.1541
  374MOL0     H49320   5.537   5.005   3.252  1.1120  0.3689 -0.5942
  374MOL0     H49321   5.437   4.767   3.404  2.1614 -1.6677 -0.4400
  374MOL0     H49322   5.302   4.515   3.377 -0.5737 -0.1321  1.2178
  374MOL0     H49323   5.172   4.512   3.262  3.1529  0.8663 -1.4028
  374MOL0     H49324   5.158   4.609   3.551  1.1961  0.3363 -0.4051
  374MOL0     H49325   5.043   4.538   3.447  1.7712 -1.6815  1.4681
  374MOL0     H49326   5.098   4.829   3.447 -1.2306  0.0904  3.4899
  374MOL0     H49327   5.020   4.747   3.313 -2.1018 -0.1503 -0.6928
  374MOL0     H49328   4.894   4.853   3.491 -0.2555 -0.0582 -2.2506
  374MOL0     H49329   4.937   4.713   3.599 -1.9854 -3.8910 -0.0531
  374MOL0     H49330   4.627   4.509   3.331 -1.9907 -0.1691 -1.1062
  374MOL0     H49331   4.394   4.542   3.340  1.0419 -0.3649 -0.6826
  374MOL0     H49332   3.969   4.815   3.346  2.6000 -0.4229 -1.7809
  374MOL0     H49333   3.728   4.731   3.394 -1.2036 -2.7410 -1.6798
  374MOL0     H49334   3.675   4.416   3.643  0.8412  2.4959 -0.8359
  374MOL0     H49335   3.656   4.312   3.490 -2.3509 -0.4241 -0.9950
  374MOL0     H49336   3.447   4.458   3.659 -1.2054 -0.6267 -0.7043
  374MOL0     H49337   3.458   4.296   3.611  1.2216  0.1774  1.1005
  374MOL0     H49338   3.451   4.370   3.370  2.2074 -1.6544  1.9987
  374MOL0     H49339   3.392   4.529   3.427  1.6876 -0.5591 -0.4193
  374MOL0     H49340   3.222   4.373   3.350 -0.3635  0.8229  0.9383
  374MOL0     H49341   3.265   4.246   3.458  2.0088 -0.0887 -1.6101
  374MOL0     H49342   3.172   4.526   3.516  0.3791 -1.0209 -1.4411
  374MOL0     H49343   3.217   4.429   3.653 -2.0151 -2.4415  2.3789
  374MOL0     H49344   2.995   4.336   3.461 -2.3535 -0.4263  0.1480
  374MOL0     H49345   2.959   4.429   3.600 -0.1910  2.1276 -2.7842
  374MOL0     H49346   3.099   4.149   3.607  0.0191  0.1676 -1.3526
  374MOL0     H49347   3.053   4.251   3.750  2.4506  3.2909 -1.3662
  374MOL0     H49348   2.829   4.222   3.714 -0.6395 -0.1150 -0.5336
  374MOL0     H49349   2.904   4.061   3.710 -0.0962  0.2860 -0.0670
  374MOL0     H49350   3.875   4.356   3.528 -2.8491  0.9613  0.4667
  374MOL0     H49351   4.110   4.435   3.466 -3.9311 -5.5201  0.9590
  374MOL0     H49352   4.441   4.900   3.561  0.1174 -2.0545  2.6525
  374MOL0     H49353   4.687   4.873   3.549 -0.8519  2.2947 -0.5436
  374MOL0     H49354   6.640   4.747   3.064 -0.9888  0.6213  0.2068
  374MOL0     H49355   6.852   4.681   3.121 -0.4188  2.0792  1.1721
  374MOL0     H49356   7.105   4.421   3.631  0.2484  1.5508  0.2285
  374MOL0     H49357   7.330   4.353   3.636 -2.6456 -0.7974  0.8438
  374MOL0     H49358   7.582   4.251   3.565  3.5015 -0.6176 -3.3290
  374MOL0     H49359   7.568   4.400   3.656  4.0448  2.5244  0.5739
  374MOL0     H49360   7.759   4.388   3.431 -0.5937  0.6043  0.3756
  374MOL0     H49361   7.753   4.503   3.574 -0.7798  0.2198  1.6736
  374MOL0     H49362   7.819   4.194   3.557  1.7779 -0.0568 -0.9271
  374MOL0     H49363   7.801   4.275   3.708 -3.6823 -3.0499 -1.1463
  374MOL0     H49364   7.993   4.436   3.637  0.1488  1.2868 -1.1696
  374MOL0     H49365   8.053   4.272   3.648  0.8151  0.9460 -0.5926
  374MOL0     H49366   8.099   4.349   3.236 -1.7124 -0.9889 -1.2517
  374MOL0     H49367   7.381   4.512   3.241 -0.1947 -4.2399  0.0199
  374MOL0     H49368   7.152   4.596   3.245 -3.4349  0.6631  1.0283
  375MOL0     O49369  10.915   7.139   0.729  0.0927 -0.2705  0.3350
  375MOL0     C49370  10.922   7.182   0.613 -0.1662  0.5664  0.2263
  375MOL0     O49371  10.819   7.176   0.525  1.0302  0.5622  0.2933
  375MOL0     C49372  10.698   7.145   0.580  0.6010 -1.2244  0.0615
  375MOL0     C49373  10.655   7.012   0.568 -0.0795 -0.2232 -0.5205
  375MOL0     C49374  10.517   6.985   0.576  0.4338  0.4757  0.5396
  375MOL0     C49375  10.419   7.086   0.606 -0.1562  0.2675 -0.3417
  375MOL0     O49376  10.280   7.076   0.603 -0.2361 -0.1749 -0.0610
  375MOL0     C49377  10.238   6.939   0.572  0.5268 -0.4473  0.0277
  375MOL0     C49378  10.089   6.946   0.552 -0.1809 -0.0714  1.0514
  375MOL0     C49379  10.016   6.963   0.681 -0.2747 -0.0205  0.3528
  375MOL0     C49380   9.868   6.978   0.647  0.0187 -0.1576  0.5472
  375MOL0     C49381   9.781   6.941   0.772 -1.1754 -0.5909  0.5365
  375MOL0     C49382   9.796   7.054   0.878 -1.0606  0.8424  0.3190
  375MOL0     C49383   9.710   7.026   1.004 -0.5591  0.7059  0.5244
  375MOL0     C49384   9.740   7.123   1.119 -0.9115  0.1896  0.0888
  375MOL0     N49385   9.675   7.085   1.241  0.2586 -0.6375 -0.4946
  375MOL0     C49386   9.554   7.028   1.248 -0.1072  0.7508 -0.3310
  375MOL0     C49387   9.525   7.026   1.389  1.1844 -0.0375  0.4321
  375MOL0     C49388   9.395   6.993   1.454 -0.4055  0.4367 -0.5259
  375MOL0     C49389   9.298   7.110   1.455 -0.0067  1.1235 -0.2102
  375MOL0     C49390   9.183   7.102   1.554  0.6765  0.7446  0.1991
  375MOL0     C49391   9.080   7.214   1.520  0.1038 -0.7974 -0.6906
  375MOL0     O49392   8.962   7.174   1.590  1.1263 -0.5316  0.6570
  375MOL0     C49393   8.837   7.229   1.553 -0.3809 -0.5061 -0.7036
  375MOL0     C49394   8.815   7.320   1.443  0.5485 -0.0236 -0.1570
  375MOL0     C49395   8.680   7.357   1.416 -0.8796  0.5986 -0.7791
  375MOL0     C49396   8.567   7.308   1.493  0.2781 -0.7261 -0.3275
  375MOL0     C49397   8.422   7.346   1.470 -0.4135  0.2428  0.1913
  375MOL0     O49398   8.326   7.285   1.551 -0.2564  0.3856 -0.7490
  375MOL0     C49399   8.195   7.334   1.551 -0.7241  0.2888  0.5718
  375MOL0     C49400   8.160   7.468   1.526 -0.3562 -0.0234  0.2893
  375MOL0     C49401   8.029   7.502   1.506  0.0292 -0.4130 -0.6139
  375MOL0     C49402   7.925   7.412   1.525 -0.0234 -0.7062  0.4043
  375MOL0     O49403   7.787   7.437   1.526 -0.7169 -0.0249  0.2816
  375MOL0     C49404   7.746   7.558   1.477 -0.0200 -0.8819  0.6881
  375MOL0     C49405   7.594   7.576   1.462 -0.4639  0.0585 -0.3068
  375MOL0     C49406   7.516   7.555   1.592 -0.1486 -0.8041 -1.0993
  375MOL0     C49407   7.378   7.582   1.544  0.2656 -0.6499 -0.0175
  375MOL0     C49408   7.277   7.514   1.629 -0.5264  1.1366  0.2725
  375MOL0     C49409   7.130   7.567   1.608 -0.2216  0.3150  0.3511
  375MOL0     C49410   7.035   7.474   1.680 -0.9156  0.7976  0.9574
  375MOL0     C49411   7.037   7.501   1.832  0.4868 -1.0179 -1.1026
  375MOL0    Cl49412   6.940   7.648   1.872 -0.2535  0.1507  0.4815
  375MOL0     C49413   7.958   7.285   1.560 -0.1801  0.3838  0.1127
  375MOL0     C49414   8.085   7.240   1.574 -0.8586  0.3633 -0.0817
  375MOL0     O49415   8.398   7.426   1.379  0.3237  0.7993  0.0569
  375MOL0     C49416   8.596   7.213   1.598  0.5327 -0.0286 -0.4456
  375MOL0     C49417   8.727   7.178   1.625  0.0207  0.1802  0.5447
  375MOL0     N49418   9.628   7.091   1.453 -0.3960  0.3136  0.1347
  375MOL0     N49419   9.720   7.119   1.367  0.4215 -0.0459  0.0943
  375MOL0     C49420  10.472   7.213   0.643  0.0932 -0.5261  0.2993
  375MOL0     C49421  10.611   7.242   0.622  0.6399  0.3176  0.3224
  375MOL0     C49422  11.038   7.254   0.578 -0.6380  0.5980 -1.5267
  375MOL0     C49423  11.145   7.257   0.675 -0.1982  0.6272 -0.1145
  375MOL0     C49424  11.253   7.329   0.645  0.0818  0.1862  0.1196
  375MOL0     C49425  11.273   7.395   0.527 -1.1547 -0.3998  0.5087
  375MOL0     O49426  11.385   7.452   0.485 -0.3569  0.3214  0.0768
  375MOL0     C49427  11.475   7.507   0.582 -1.0881 -0.1413 -0.2658
  375MOL0     C49428  11.593   7.559   0.500  0.1809  0.0148 -0.5645
  375MOL0     C49429  11.544   7.676   0.415 -0.0522 -0.5417 -0.8673
  375MOL0     C49430  11.656   7.728   0.327  0.3119 -0.3976 -0.3648
  375MOL0     C49431  11.601   7.821   0.227 -1.0450  0.6179  0.5852
  375MOL0     C49432  11.544   7.887   0.150 -0.0592 -0.1382  0.8337
  375MOL0     C49433  11.175   7.381   0.428  0.1113 -0.9503  0.3285
  375MOL0     C49434  11.063   7.313   0.450  0.2076  0.2862 -0.8457
  375MOL0     H49435  10.725   6.933   0.544  1.6534  1.2454 -0.5358
  375MOL0     H49436  10.489   6.889   0.534  0.4691  2.1466 -3.7470
  375MOL0     H49437  10.259   6.865   0.651  1.3795 -1.1734 -0.8481
  375MOL0     H49438  10.282   6.908   0.477 -4.9397 -2.0740 -2.3717
  375MOL0     H49439  10.054   6.859   0.497 -1.1317  1.2082 -0.4815
  375MOL0     H49440  10.070   7.037   0.493  0.4009 -0.3910  0.3515
  375MOL0     H49441  10.056   7.056   0.723 -0.1947 -0.7128  1.8479
  375MOL0     H49442  10.043   6.885   0.752  2.4775  0.8942  0.4424
  375MOL0     H49443   9.841   7.079   0.617 -0.6829  0.1446  2.1511
  375MOL0     H49444   9.846   6.905   0.568  0.8615 -0.3685  0.4883
  375MOL0     H49445   9.817   6.849   0.818  0.4073 -0.8753 -1.1642
  375MOL0     H49446   9.684   6.935   0.721 -0.2534 -0.8262 -1.2484
  375MOL0     H49447   9.761   7.144   0.826 -1.1412  0.4666 -0.2909
  375MOL0     H49448   9.902   7.053   0.906 -1.0013  0.5119  0.0844
  375MOL0     H49449   9.602   7.039   0.993 -1.0183 -1.5314  1.7637
  375MOL0     H49450   9.742   6.929   1.043  0.7010  2.0666  3.1957
  375MOL0     H49451   9.695   7.219   1.092 -1.7414  0.8701  3.4326
  375MOL0     H49452   9.846   7.145   1.132 -0.9832 -0.2967  1.7518
  375MOL0     H49453   9.491   6.991   1.168  2.5878 -0.8284 -1.8689
  375MOL0     H49454   9.411   6.966   1.559  0.1818 -0.4368 -0.8361
  375MOL0     H49455   9.344   6.908   1.408 -0.3183 -1.6842  2.9408
  375MOL0     H49456   9.256   7.132   1.357 -4.1191  1.8497  1.5161
  375MOL0     H49457   9.355   7.200   1.480  0.6833  0.0792  2.3208
  375MOL0     H49458   9.131   7.005   1.550 -1.6169  1.9104  0.0411
  375MOL0     H49459   9.232   7.115   1.651 -1.2452 -0.6685  1.4359
  375MOL0     H49460   9.063   7.221   1.412 -1.8248  1.2147 -0.3117
  375MOL0     H49461   9.110   7.315   1.551  0.3774 -1.1071  0.0776
  375MOL0     H49462   8.894   7.348   1.374 -2.0092  1.4232 -2.7353
  375MOL0     H49463   8.654   7.423   1.334 -0.4748  0.3218 -1.1387
  375MOL0     H49464   8.240   7.542   1.528  0.0804 -0.3731 -1.8255
  375MOL0     H49465   8.004   7.601   1.468  3.1341  0.3719 -0.8972
  375MOL0     H49466   7.793   7.566   1.378 -1.3605 -1.3968 -0.0208
  375MOL0     H49467   7.777   7.648   1.531 -2.4084  1.5060 -1.6386
  375MOL0     H49468   7.558   7.499   1.393  0.8328 -2.4053  1.5730
  375MOL0     H49469   7.593   7.677   1.421 -2.2511 -0.3153 -1.2695
  375MOL0     H49470   7.541   7.624   1.672 -2.6417  0.1199 -1.0272
  375MOL0     H49471   7.528   7.454   1.632 -1.9221 -0.3193  0.8245
  375MOL0     H49472   7.371   7.691   1.546  2.4308 -0.4498 -0.9057
  375MOL0     H49473   7.356   7.550   1.442 -0.4781  0.4211 -0.1985
  375MOL0     H49474   7.313   7.536   1.730  2.8437  0.5066 -0.6618
  375MOL0     H49475   7.288   7.406   1.631  1.9031  1.3303  1.3619
  375MOL0     H49476   7.114   7.565   1.499  4.2221  1.5684 -0.4954
  375MOL0     H49477   7.117   7.672   1.632 -2.2647  0.4476 -1.0245
  375MOL0     H49478   6.933   7.484   1.643 -0.5411 -1.5716 -1.0123
  375MOL0     H49479   7.079   7.375   1.664 -2.6378 -0.0173  1.0779
  375MOL0     H49480   7.135   7.525   1.874 -0.8324  0.4686  1.3500
  375MOL0     H49481   6.997   7.414   1.884 -1.7889 -2.2736 -4.5868
  375MOL0     H49482   7.879   7.215   1.586 -1.2871  0.1568 -3.2845
  375MOL0     H49483   8.099   7.134   1.590  2.1117  0.2772 -2.3865
  375MOL0     H49484   8.514   7.170   1.656  0.4531  1.0775  0.2801
  375MOL0     H49485   8.745   7.103   1.701  1.1797 -0.9601 -0.8041
  375MOL0     H49486  10.407   7.293   0.678  1.2117  0.8365 -0.6021
  375MOL0     H49487  10.650   7.342   0.641 -0.9670  1.3920 -1.6630
  375MOL0     H49488  11.142   7.214   0.775  1.2655 -3.0274 -1.4621
  375MOL0     H49489  11.334   7.318   0.715 -0.2281  0.3075  0.4998
  375MOL0     H49490  11.516   7.437   0.655  1.9898 -0.4612 -2.0984
  375MOL0     H49491  11.429   7.595   0.628  1.5631 -0.1445  2.7578
  375MOL0     H49492  11.678   7.576   0.567  0.3512 -2.8566  0.0467
  375MOL0     H49493  11.633   7.481   0.436  2.8001  0.8784 -0.1334
  375MOL0     H49494  11.508   7.746   0.491 -0.5714 -1.1154 -0.5742
  375MOL0     H49495  11.460   7.634   0.360 -1.1979  1.3920 -0.6588
  375MOL0     H49496  11.738   7.776   0.381 -0.2667  1.6597 -1.1818
  375MOL0     H49497  11.700   7.647   0.268  0.0749  0.8545 -2.3794
  375MOL0     H49498  11.483   7.949   0.087 -0.4836 -1.2868  0.0786
  375MOL0     H49499  11.188   7.430   0.332  0.6333 -0.2526  0.7467
  375MOL0     H49500  10.981   7.314   0.379 -0.1135  0.7298 -0.4730
  376MOL0     O49501   5.334   8.320   1.647  0.2588  0.2235 -0.0632
  376MOL0     C49502   5.371   8.239   1.566 -0.3834 -0.0609  0.4125
  376MOL0     O49503   5.298   8.131   1.525  0.1880  0.3892  0.7316
  376MOL0     C49504   5.169   8.108   1.584 -0.2394 -0.1281  0.3847
  376MOL0     C49505   5.143   8.112   1.722  0.0055 -0.4215  0.5182
  376MOL0     C49506   5.017   8.096   1.771 -0.1928 -0.1296  0.4768
  376MOL0     C49507   4.904   8.071   1.688  0.4572 -0.3344  0.3000
  376MOL0     O49508   4.779   8.050   1.740  0.2703  0.2933  0.5497
  376MOL0     C49509   4.767   8.000   1.877 -0.1923 -0.6178 -0.7813
  376MOL0     C49510   4.623   7.953   1.891 -0.0844 -0.0780 -0.2163
  376MOL0     C49511   4.535   8.074   1.913 -0.1077 -0.1418  0.5240
  376MOL0     C49512   4.398   8.044   1.964  0.6428 -0.5241  0.1415
  376MOL0     C49513   4.341   8.179   2.016 -0.6842 -0.8858  0.8806
  376MOL0     C49514   4.194   8.173   2.073  0.0806  0.2668  0.2931
  376MOL0     C49515   4.073   8.224   1.995 -0.6665  0.8330  0.2564
  376MOL0     C49516   3.949   8.240   2.085  0.5512 -0.3240  0.7225
  376MOL0     N49517   3.841   8.272   1.996 -0.8795 -0.7763  0.7049
  376MOL0     C49518   3.827   8.373   1.896  0.3526  0.8076 -0.7279
  376MOL0     C49519   3.711   8.336   1.836 -0.2622 -0.4396  1.0235
  376MOL0     C49520   3.647   8.414   1.726 -0.7351  0.0171  0.7385
  376MOL0     C49521   3.494   8.416   1.737 -0.8640  0.0166  0.0138
  376MOL0     C49522   3.427   8.457   1.600 -0.6591  0.6048 -0.4955
  376MOL0     C49523   3.283   8.509   1.645 -0.0699  0.7831  0.6143
  376MOL0     O49524   3.211   8.397   1.706 -0.1846  0.3285  0.1225
  376MOL0     C49525   3.077   8.391   1.680  0.4045  0.0199 -0.6132
  376MOL0     C49526   2.990   8.499   1.692  0.3559 -0.0958 -0.7660
  376MOL0     C49527   2.849   8.487   1.682  0.6658  0.3619  0.1110
  376MOL0     C49528   2.793   8.361   1.648 -0.8222 -0.5608 -0.3345
  376MOL0     C49529   2.642   8.343   1.644  0.2725 -0.0941  0.4691
  376MOL0     O49530   2.591   8.216   1.617 -0.1773  0.4823  0.1953
  376MOL0     C49531   2.459   8.180   1.629 -0.5651  0.1348 -0.1297
  376MOL0     C49532   2.429   8.045   1.656  0.0047  0.4247  0.1344
  376MOL0     C49533   2.301   7.994   1.648  0.3087 -0.6037 -0.2641
  376MOL0     C49534   2.193   8.077   1.615  0.1092  0.2068 -0.1281
  376MOL0     O49535   2.067   8.018   1.614  0.2298  0.3486  0.0164
  376MOL0     C49536   1.956   8.108   1.602 -0.6102  0.8438 -0.5801
  376MOL0     C49537   1.826   8.033   1.645 -0.3432  0.3538  0.1527
  376MOL0     C49538   1.823   7.894   1.595  0.0918  0.7786  0.7375
  376MOL0     C49539   1.689   7.821   1.607 -0.5799  0.5147  0.3461
  376MOL0     C49540   1.638   7.773   1.468 -0.6098  0.0788  0.0854
  376MOL0     C49541   1.515   7.686   1.487  0.3756 -0.6694  0.2932
  376MOL0     C49542   1.453   7.632   1.360  0.3881 -0.2542 -0.5992
  376MOL0     C49543   1.355   7.518   1.395 -0.8457 -1.0819 -0.2977
  376MOL0    Cl49544   1.240   7.543   1.536  0.1860 -0.0374 -0.2312
  376MOL0     C49545   2.218   8.212   1.583  0.3234 -0.4100  0.0920
  376MOL0     C49546   2.348   8.260   1.594 -0.6396 -0.8823 -0.0025
  376MOL0     O49547   2.565   8.441   1.672 -1.0285 -0.2451  0.2931
  376MOL0     C49548   2.884   8.245   1.643 -1.3619  0.1127 -0.3028
  376MOL0     C49549   3.022   8.268   1.660 -0.2777  0.3629  0.4185
  376MOL0     N49550   3.666   8.212   1.884 -0.0817  0.1586 -0.5956
  376MOL0     N49551   3.745   8.185   1.982  0.5746  0.4428  0.3847
  376MOL0     C49552   4.928   8.064   1.551  0.0571  0.4489 -0.2701
  376MOL0     C49553   5.059   8.086   1.495  0.8678 -0.2710 -0.4699
  376MOL0     C49554   5.512   8.251   1.513  0.5713  0.8781  0.4612
  376MOL0     C49555   5.552   8.173   1.404 -1.2387 -0.1013  0.5963
  376MOL0     C49556   5.688   8.177   1.352 -0.0508  0.4431 -0.0947
  376MOL0     C49557   5.792   8.252   1.403  0.4303 -0.2958  0.0896
  376MOL0     O49558   5.923   8.241   1.383 -0.3939 -0.1472 -0.3811
  376MOL0     C49559   5.974   8.121   1.326 -0.6521 -0.9273  0.7898
  376MOL0     C49560   6.126   8.111   1.299 -0.5020 -0.6606  0.5745
  376MOL0     C49561   6.211   8.155   1.426  0.2815 -0.0213  1.2371
  376MOL0     C49562   6.357   8.128   1.401 -0.5027 -0.3051 -0.8355
  376MOL0     C49563   6.443   8.163   1.511  0.4999  0.1505 -0.0702
  376MOL0     C49564   6.518   8.185   1.606  0.4654  0.0684  0.6660
  376MOL0     C49565   5.743   8.334   1.512  0.8283  0.5012  0.4419
  376MOL0     C49566   5.605   8.338   1.564 -1.5540 -0.3533 -0.0043
  376MOL0     H49567   5.228   8.126   1.788 -0.3569  1.5439  0.6337
  376MOL0     H49568   5.014   8.097   1.879  0.7480 -0.2552  0.5134
  376MOL0     H49569   4.786   8.078   1.952  1.4557 -3.1964  1.7063
  376MOL0     H49570   4.835   7.916   1.896  0.0119 -0.4053 -0.5761
  376MOL0     H49571   4.630   7.890   1.981 -1.6693 -0.7579 -0.5387
  376MOL0     H49572   4.583   7.896   1.806 -2.8035  1.9830 -0.4545
  376MOL0     H49573   4.527   8.120   1.814  0.4799 -0.4938  0.3074
  376MOL0     H49574   4.586   8.147   1.976  1.7587  0.8121 -1.9152
  376MOL0     H49575   4.345   7.994   1.882 -1.4142  0.5424  0.7447
  376MOL0     H49576   4.399   7.987   2.058  0.3777 -2.0139 -0.7218
  376MOL0     H49577   4.337   8.260   1.943  0.3188 -0.8183  0.8864
  376MOL0     H49578   4.405   8.215   2.098  2.0284 -0.8810 -1.1209
  376MOL0     H49579   4.189   8.225   2.169 -4.0175  0.1602  0.3432
  376MOL0     H49580   4.177   8.068   2.099  1.8993  0.5115  2.7302
  376MOL0     H49581   4.095   8.320   1.947  2.1791  1.3171  2.2485
  376MOL0     H49582   4.049   8.145   1.924 -0.3594  0.4910  0.5320
  376MOL0     H49583   3.972   8.322   2.153 -0.6656 -1.1260  2.1708
  376MOL0     H49584   3.928   8.148   2.141 -0.7234  1.0117  2.5450
  376MOL0     H49585   3.892   8.454   1.864  1.1664 -0.5401 -2.7942
  376MOL0     H49586   3.692   8.383   1.631 -1.0500  0.9225  0.2741
  376MOL0     H49587   3.691   8.514   1.732  2.5110 -0.7965 -3.8134
  376MOL0     H49588   3.467   8.481   1.821  0.6032  2.8215 -1.5162
  376MOL0     H49589   3.452   8.318   1.760 -2.8679  0.8935  0.3306
  376MOL0     H49590   3.489   8.533   1.552  0.4130  0.3684  0.4661
  376MOL0     H49591   3.428   8.366   1.539  3.1797  0.3974 -0.3642
  376MOL0     H49592   3.230   8.527   1.551  2.0194 -1.1329 -1.0644
  376MOL0     H49593   3.290   8.593   1.714  1.4415 -0.7907  2.5243
  376MOL0     H49594   3.031   8.599   1.696  1.3181 -0.5157  0.1583
  376MOL0     H49595   2.773   8.563   1.698 -1.0465 -1.3662  0.6264
  376MOL0     H49596   2.504   7.968   1.673 -0.3877  0.1706  0.7321
  376MOL0     H49597   2.288   7.892   1.685 -0.4532 -0.3977  0.0698
  376MOL0     H49598   1.938   8.141   1.500  0.9963 -1.1847 -1.5935
  376MOL0     H49599   1.970   8.197   1.665 -3.8036  0.0287  1.5237
  376MOL0     H49600   1.735   8.084   1.614  0.3361 -0.3319 -3.3591
  376MOL0     H49601   1.826   8.031   1.755 -3.8297  2.5576  0.3609
  376MOL0     H49602   1.897   7.836   1.651 -0.7125 -0.1334  0.8968
  376MOL0     H49603   1.856   7.904   1.491 -1.2218  0.9685  0.3209
  376MOL0     H49604   1.709   7.730   1.666  1.8247  1.8222  1.7132
  376MOL0     H49605   1.612   7.888   1.645  0.3490  2.0576 -0.3998
  376MOL0     H49606   1.710   7.712   1.413 -0.6540  1.7177 -1.9118
  376MOL0     H49607   1.621   7.862   1.408  2.0096  0.4505 -0.2495
  376MOL0     H49608   1.434   7.745   1.531  1.0249 -0.8525  1.8212
  376MOL0     H49609   1.539   7.600   1.551 -0.1612 -0.9850  0.0770
  376MOL0     H49610   1.397   7.714   1.315  1.1425  0.3871 -0.3886
  376MOL0     H49611   1.532   7.596   1.293  0.0302  1.2799 -1.9018
  376MOL0     H49612   1.413   7.427   1.412  1.6321  0.9064  2.9892
  376MOL0     H49613   1.295   7.502   1.305  1.9584 -0.2520 -2.4762
  376MOL0     H49614   2.143   8.281   1.547 -0.3788 -1.0817  0.2404
  376MOL0     H49615   2.370   8.362   1.563  2.4683 -2.0062 -1.9492
  376MOL0     H49616   2.853   8.145   1.616  1.2546 -0.3083 -2.1495
  376MOL0     H49617   3.096   8.188   1.650  0.1872  1.0454 -3.7214
  376MOL0     H49618   4.844   8.076   1.484 -0.0187  2.4009  0.1165
  376MOL0     H49619   5.072   8.095   1.387 -2.6769 -0.4122 -1.0228
  376MOL0     H49620   5.481   8.118   1.344 -0.1888 -0.4217 -0.3925
  376MOL0     H49621   5.697   8.114   1.264 -1.0625  1.8178 -1.2343
  376MOL0     H49622   5.923   8.100   1.232 -1.2497 -0.8008  1.0779
  376MOL0     H49623   5.944   8.046   1.400  1.7852 -0.6741  2.1494
  376MOL0     H49624   6.152   8.008   1.270  2.3198 -0.5292  2.2406
  376MOL0     H49625   6.158   8.176   1.217  1.0908  0.0744  1.7385
  376MOL0     H49626   6.179   8.109   1.520 -0.1839  0.1337  1.1624
  376MOL0     H49627   6.201   8.264   1.434 -0.5951  0.5043 -3.7950
  376MOL0     H49628   6.365   8.020   1.385  0.5654 -0.1449 -1.4407
  376MOL0     H49629   6.402   8.187   1.321 -0.8715 -1.2249 -1.7439
  376MOL0     H49630   6.601   8.200   1.673  1.1016  1.2299 -0.3307
  376MOL0     H49631   5.813   8.394   1.570 -0.6036 -0.4754  3.3601
  376MOL0     H49632   5.575   8.399   1.648 -0.3893  1.2646 -0.7177
  377MOL0     O49633  10.451   4.207   6.767 -0.3057 -0.0955 -0.1068
  377MOL0     C49634  10.544   4.170   6.702 -0.0761  0.3834  0.0450
  377MOL0     O49635  10.538   4.151   6.564 -0.1472 -0.4314 -0.2614
  377MOL0     C49636  10.426   4.206   6.499 -0.0201 -0.8039 -0.1495
  377MOL0     C49637  10.328   4.117   6.445 -0.3013  0.7016  0.0033
  377MOL0     C49638  10.209   4.172   6.401  0.8922 -0.3861  0.9420
  377MOL0     C49639  10.178   4.310   6.402  0.7185 -0.4792  0.5681
  377MOL0     O49640  10.060   4.355   6.356  0.3591 -0.0952  0.4136
  377MOL0     C49641  10.069   4.482   6.277  0.3109 -0.1942 -0.8690
  377MOL0     C49642   9.929   4.513   6.244  0.2616 -0.3286  0.5660
  377MOL0     C49643   9.921   4.625   6.142  0.2387 -0.3342  0.4504
  377MOL0     C49644   9.776   4.665   6.123 -0.2274 -0.2599  0.0238
  377MOL0     C49645   9.776   4.796   6.043  0.0693  0.7404  0.5936
  377MOL0     C49646   9.749   4.760   5.903  0.6967 -0.3870  0.4871
  377MOL0     C49647   9.760   4.879   5.815  0.7096  0.3249 -0.1104
  377MOL0     C49648   9.768   4.834   5.660 -0.1035 -0.1595 -0.6276
  377MOL0     N49649   9.649   4.762   5.612 -0.7133  0.3570  0.3666
  377MOL0     C49650   9.524   4.807   5.638  1.1390 -0.5745  0.1886
  377MOL0     C49651   9.442   4.708   5.591  0.4129 -0.3860  0.0794
  377MOL0     C49652   9.289   4.696   5.593 -0.2925 -0.1553  0.2105
  377MOL0     C49653   9.215   4.788   5.489 -0.4560  0.5142  0.0821
  377MOL0     C49654   9.235   4.744   5.342  0.6599 -0.5285 -0.1402
  377MOL0     C49655   9.104   4.751   5.263 -0.0707 -0.2065 -0.1829
  377MOL0     O49656   9.021   4.645   5.309 -0.1461  0.4947 -0.6890
  377MOL0     C49657   8.908   4.629   5.235 -0.1572 -0.1153 -0.0995
  377MOL0     C49658   8.857   4.720   5.144 -0.4506 -0.0651 -0.4848
  377MOL0     C49659   8.748   4.687   5.073  0.8650  0.3471  0.9920
  377MOL0     C49660   8.691   4.559   5.075 -0.7819 -0.4441  0.2848
  377MOL0     C49661   8.575   4.522   4.989  0.6215  0.2327 -0.9574
  377MOL0     O49662   8.524   4.390   5.019  0.3394 -0.0397 -0.1146
  377MOL0     C49663   8.391   4.361   5.023 -0.0456 -0.3581 -0.1753
  377MOL0     C49664   8.328   4.341   5.142  0.1522  0.0249  0.0346
  377MOL0     C49665   8.185   4.341   5.151  0.8881  0.9592 -0.8089
  377MOL0     C49666   8.110   4.355   5.035  1.6951  0.2197  0.0278
  377MOL0     O49667   7.971   4.346   5.027  0.2278 -0.7747  1.4006
  377MOL0     C49668   7.898   4.313   5.145  0.6692  0.0082  0.0552
  377MOL0     C49669   7.753   4.272   5.095 -0.5637 -0.1617 -0.8434
  377MOL0     C49670   7.665   4.397   5.064  0.4454  0.1202 -0.1658
  377MOL0     C49671   7.512   4.357   5.056 -0.4826 -0.1869  0.1678
  377MOL0     C49672   7.428   4.473   5.002 -0.4382 -0.8976  0.2809
  377MOL0     C49673   7.284   4.444   4.974 -0.4129  0.4570 -0.8466
  377MOL0     C49674   7.218   4.545   4.888  1.1896  0.1723  0.3311
  377MOL0     C49675   7.090   4.495   4.813  0.1546 -0.1875 -0.3908
  377MOL0    Cl49676   6.954   4.456   4.917 -0.3193  0.1813  0.1205
  377MOL0     C49677   8.176   4.369   4.915  0.3146  0.8221 -0.0308
  377MOL0     C49678   8.315   4.365   4.908 -0.2519  0.1857  0.1835
  377MOL0     O49679   8.533   4.600   4.906 -0.5131 -0.2754 -0.5278
  377MOL0     C49680   8.732   4.474   5.172 -1.1799 -0.3355 -0.5365
  377MOL0     C49681   8.852   4.497   5.245 -0.0649 -0.1628  0.3339
  377MOL0     N49682   9.519   4.608   5.535 -0.0388  0.4434 -0.7827
  377MOL0     N49683   9.641   4.642   5.550  0.1408  0.5549  0.1465
  377MOL0     C49684  10.274   4.393   6.467 -0.5485 -0.0406  0.3325
  377MOL0     C49685  10.396   4.345   6.505 -0.5584 -0.5485 -0.1658
  377MOL0     C49686  10.677   4.144   6.778  0.1438 -0.1601 -0.2221
  377MOL0     C49687  10.801   4.143   6.713 -0.1939  0.4616  0.8379
  377MOL0     C49688  10.915   4.116   6.778  0.0327 -0.9707  0.0023
  377MOL0     C49689  10.925   4.083   6.912 -0.6228 -0.5836  0.6986
  377MOL0     O49690  11.049   4.057   6.966  0.4755  0.0237 -0.1027
  377MOL0     C49691  11.060   4.013   7.099  0.1830 -0.2114 -0.0982
  377MOL0     C49692  11.172   3.918   7.099 -0.3327 -0.3885  0.2878
  377MOL0     C49693  11.304   3.998   7.062  0.5272 -0.5579 -0.2786
  377MOL0     C49694  11.427   3.916   7.079 -0.0957 -0.1481  0.0256
  377MOL0     C49695  11.488   3.906   7.217 -1.3374 -0.1804 -0.1371
  377MOL0     C49696  11.522   3.899   7.333 -0.1622  0.0459 -0.3801
  377MOL0     C49697  10.803   4.094   6.987  0.0287 -0.8167  0.0101
  377MOL0     C49698  10.678   4.118   6.913 -0.1168 -0.1205 -0.4518
  377MOL0     H49699  10.339   4.009   6.441  0.1263  0.6897  1.0841
  377MOL0     H49700  10.130   4.111   6.357  0.1611  1.4055 -0.3549
  377MOL0     H49701  10.134   4.471   6.190 -1.6194 -0.1817 -2.3748
  377MOL0     H49702  10.111   4.560   6.341 -0.3667 -0.2353 -0.3648
  377MOL0     H49703   9.873   4.529   6.337  0.0731 -0.2984  0.4467
  377MOL0     H49704   9.888   4.428   6.189 -1.0385  0.1685  0.7292
  377MOL0     H49705   9.968   4.585   6.052  1.2080  3.8994 -1.1542
  377MOL0     H49706   9.984   4.707   6.177 -1.2026  1.2751 -0.5611
  377MOL0     H49707   9.717   4.590   6.068  0.5105  1.7515 -3.8542
  377MOL0     H49708   9.741   4.681   6.226  1.8378  2.0065  0.4649
  377MOL0     H49709   9.858   4.868   6.054 -0.9017  2.6690 -3.2271
  377MOL0     H49710   9.689   4.846   6.086 -0.9586  0.7496 -1.4161
  377MOL0     H49711   9.651   4.716   5.886  1.1748 -1.1368 -0.3661
  377MOL0     H49712   9.829   4.690   5.878  1.1611 -0.6784  2.5760
  377MOL0     H49713   9.677   4.950   5.824 -1.6423 -2.1353 -1.1927
  377MOL0     H49714   9.853   4.930   5.842  1.0958  1.2351 -2.8200
  377MOL0     H49715   9.856   4.768   5.656 -0.0434 -0.2295  1.0158
  377MOL0     H49716   9.782   4.918   5.592  0.0848 -0.4913 -1.0045
  377MOL0     H49717   9.495   4.900   5.685  1.0407  1.1472 -2.9801
  377MOL0     H49718   9.251   4.731   5.690 -0.6488 -2.2036  0.8632
  377MOL0     H49719   9.260   4.591   5.588 -2.4197  0.4425 -0.9227
  377MOL0     H49720   9.256   4.889   5.494 -1.8814  1.2479 -1.7050
  377MOL0     H49721   9.107   4.781   5.506 -0.1465  2.3065  3.8385
  377MOL0     H49722   9.302   4.817   5.296 -2.7795  2.5360 -0.7604
  377MOL0     H49723   9.283   4.646   5.335  0.5183 -0.5172 -1.4907
  377MOL0     H49724   9.126   4.735   5.156 -1.4469  0.6602 -0.6200
  377MOL0     H49725   9.066   4.852   5.273 -2.7048 -1.0862 -0.5713
  377MOL0     H49726   8.902   4.817   5.124 -1.3136  0.2230 -1.0525
  377MOL0     H49727   8.716   4.754   4.994  3.4098 -1.5053 -1.8302
  377MOL0     H49728   8.381   4.329   5.236 -0.3798 -0.4916  0.2804
  377MOL0     H49729   8.130   4.326   5.243  0.8357 -0.5524 -1.0604
  377MOL0     H49730   7.873   4.399   5.208  0.0581 -0.3379  0.2943
  377MOL0     H49731   7.953   4.235   5.199  2.9086  1.8360  0.5534
  377MOL0     H49732   7.706   4.229   5.184  1.8098 -0.5913  0.3029
  377MOL0     H49733   7.761   4.200   5.013 -1.4434 -1.8504  0.4714
  377MOL0     H49734   7.695   4.448   4.971 -3.3700  2.7466 -0.2242
  377MOL0     H49735   7.697   4.465   5.143  2.0790 -0.9969  0.1727
  377MOL0     H49736   7.488   4.275   4.988 -0.2099 -1.0877  1.1166
  377MOL0     H49737   7.482   4.333   5.158 -0.5776  5.8596  1.9362
  377MOL0     H49738   7.482   4.522   4.920 -1.6039 -1.2582 -0.7295
  377MOL0     H49739   7.435   4.543   5.086  0.6253  0.6954 -1.0483
  377MOL0     H49740   7.237   4.445   5.073  0.2396  0.0521 -0.5270
  377MOL0     H49741   7.270   4.344   4.932  0.1918  0.6925 -1.6151
  377MOL0     H49742   7.183   4.628   4.949 -0.0949  1.4278 -1.9553
  377MOL0     H49743   7.279   4.584   4.806  0.3605  1.8256  0.4637
  377MOL0     H49744   7.098   4.413   4.741 -0.4518 -0.6199  0.0172
  377MOL0     H49745   7.056   4.586   4.763  1.6070  2.1061  2.5156
  377MOL0     H49746   8.121   4.374   4.822 -0.2457 -1.0349  0.1437
  377MOL0     H49747   8.360   4.390   4.812 -1.9236 -1.1551 -1.0282
  377MOL0     H49748   8.686   4.377   5.184  0.9305 -1.2311  0.9389
  377MOL0     H49749   8.890   4.415   5.305 -1.8720 -0.8082  0.6303
  377MOL0     H49750  10.263   4.500   6.480  0.6949  0.0201  1.0284
  377MOL0     H49751  10.453   4.415   6.564 -3.6843  1.6072  0.5791
  377MOL0     H49752  10.806   4.165   6.607  0.0937 -2.0127  0.2825
  377MOL0     H49753  11.015   4.105   6.736  1.6140 -3.6938  3.9063
  377MOL0     H49754  10.966   3.968   7.132 -1.1730  2.4700 -0.0222
  377MOL0     H49755  11.089   4.093   7.168  0.7846  1.4842 -2.1978
  377MOL0     H49756  11.187   3.886   7.202 -2.2136 -0.4094  0.5884
  377MOL0     H49757  11.151   3.831   7.036 -0.9916  0.0250 -0.0687
  377MOL0     H49758  11.303   4.086   7.127 -1.1291 -0.5090 -0.3127
  377MOL0     H49759  11.279   4.030   6.960 -1.7107 -0.5774  0.2016
  377MOL0     H49760  11.417   3.819   7.029  2.0722 -1.3539  1.7494
  377MOL0     H49761  11.502   3.966   7.017 -0.1700 -0.4224 -0.2897
  377MOL0     H49762  11.563   3.895   7.432  0.6624 -0.2851 -0.7273
  377MOL0     H49763  10.789   4.081   7.093 -2.7586 -1.1185 -0.3256
  377MOL0     H49764  10.587   4.123   6.972  0.6369  3.4134  0.6286
  378MOL0     O49765   8.274   1.000   3.286  0.0173  0.1123 -0.1966
  378MOL0     C49766   8.273   1.013   3.406 -0.7984  0.8654  0.3954
  378MOL0     O49767   8.173   1.066   3.475 -0.4088 -0.8347  0.0352
  378MOL0     C49768   8.047   1.082   3.416 -1.2364  0.2897 -0.3139
  378MOL0     C49769   8.008   1.209   3.358  0.8927 -0.1694  0.6680
  378MOL0     C49770   7.882   1.218   3.289 -0.3788 -0.8190 -1.3412
  378MOL0     C49771   7.810   1.104   3.276  0.1915  0.4063  1.0901
  378MOL0     O49772   7.700   1.096   3.191 -0.3236  0.4381  0.0652
  378MOL0     C49773   7.589   1.016   3.203  0.3788  0.6711 -0.5920
  378MOL0     C49774   7.458   1.085   3.153 -0.0018 -0.5108  0.1411
  378MOL0     C49775   7.433   1.228   3.208 -0.8005 -0.0933 -0.5614
  378MOL0     C49776   7.327   1.309   3.138 -0.2103  0.4050  0.1462
  378MOL0     C49777   7.196   1.218   3.124  0.0218  0.5677 -0.6438
  378MOL0     C49778   7.082   1.296   3.060  0.4232 -0.2345 -0.0490
  378MOL0     C49779   6.966   1.198   3.049 -0.2465  0.2360 -0.4590
  378MOL0     C49780   6.886   1.211   2.922  0.0438  0.1933 -0.3033
  378MOL0     N49781   6.763   1.130   2.934 -0.1198  0.0155  0.3908
  378MOL0     C49782   6.691   1.091   2.820  0.4388 -0.9552  0.6346
  378MOL0     C49783   6.576   1.046   2.883  0.4342  0.1897  0.6003
  378MOL0     C49784   6.454   0.991   2.802  0.7985  0.5991  0.3907
  378MOL0     C49785   6.410   1.057   2.667 -0.7302 -0.0326  0.4132
  378MOL0     C49786   6.265   1.023   2.620  0.5099  0.7518 -0.3668
  378MOL0     C49787   6.253   0.903   2.519  0.4513  0.5818  0.5578
  378MOL0     O49788   6.122   0.881   2.462 -0.3840  0.9479  0.2949
  378MOL0     C49789   6.019   0.888   2.550 -0.7741  1.1490 -0.2535
  378MOL0     C49790   5.906   0.958   2.508  0.7795 -0.2069 -0.4682
  378MOL0     C49791   5.784   0.968   2.574 -0.1804 -0.2657 -1.2231
  378MOL0     C49792   5.777   0.906   2.702  0.8636 -0.2609 -0.0783
  378MOL0     C49793   5.661   0.899   2.783  0.7844  0.3125  0.1733
  378MOL0     O49794   5.546   0.955   2.732  0.5594 -0.1838 -0.7030
  378MOL0     C49795   5.419   0.942   2.792  0.2379 -0.5461  1.0176
  378MOL0     C49796   5.386   0.838   2.875  0.8033  0.4673 -0.3444
  378MOL0     C49797   5.258   0.851   2.931 -0.7969 -0.7404 -0.6292
  378MOL0     C49798   5.173   0.960   2.919 -0.0853 -0.1167 -0.1620
  378MOL0     O49799   5.053   0.959   2.984  0.2572 -0.4512 -0.4702
  378MOL0     C49800   4.973   1.078   2.984 -0.0472 -0.3681 -0.2347
  378MOL0     C49801   4.851   1.050   3.085 -0.1057 -0.1347  0.2196
  378MOL0     C49802   4.783   1.189   3.107  0.4499  1.3003  0.6061
  378MOL0     C49803   4.689   1.174   3.229  0.3165  0.0129 -0.0196
  378MOL0     C49804   4.628   1.303   3.268 -0.0166 -0.3241  0.2649
  378MOL0     C49805   4.514   1.271   3.375 -0.3344 -0.2802 -0.2110
  378MOL0     C49806   4.421   1.393   3.384 -0.4862  0.2079 -0.7590
  378MOL0     C49807   4.286   1.352   3.450 -0.4404 -0.0805 -0.6027
  378MOL0    Cl49808   4.209   1.241   3.330  0.1124 -0.1168  0.2336
  378MOL0     C49809   5.216   1.068   2.831 -0.1843  0.2688  0.4789
  378MOL0     C49810   5.339   1.055   2.764  0.3505  0.2216  0.4951
  378MOL0     O49811   5.666   0.849   2.891  0.5671 -0.3043 -0.6441
  378MOL0     C49812   5.890   0.835   2.747 -0.6218 -0.6259  0.3203
  378MOL0     C49813   6.011   0.827   2.675 -0.3980  0.6726 -0.4438
  378MOL0     N49814   6.576   1.066   3.020  1.3583  1.2396  0.2760
  378MOL0     N49815   6.688   1.118   3.051 -0.2048  0.1394 -0.1416
  378MOL0     C49816   7.844   0.988   3.348  0.4848  0.3782  0.4493
  378MOL0     C49817   7.957   0.976   3.419  0.5123  0.3412  0.0265
  378MOL0     C49818   8.394   0.963   3.490  0.6293 -0.5258  0.2365
  378MOL0     C49819   8.517   0.916   3.436 -0.0483 -0.4433  0.6320
  378MOL0     C49820   8.627   0.890   3.514 -0.5580 -0.8695 -0.6461
  378MOL0     C49821   8.612   0.900   3.654 -0.4079  0.2664  0.0974
  378MOL0     O49822   8.713   0.855   3.741  1.0512 -0.0805  0.2036
  378MOL0     C49823   8.844   0.900   3.716  0.0675  0.7263  0.5065
  378MOL0     C49824   8.924   0.854   3.837  0.2434  0.2887  0.5766
  378MOL0     C49825   9.071   0.867   3.825 -0.1523 -0.6842 -0.4687
  378MOL0     C49826   9.139   0.876   3.960  0.1243  0.1202  0.3238
  378MOL0     C49827   9.119   1.007   4.029  0.1069  0.1413  0.5426
  378MOL0     C49828   9.122   1.106   4.091 -0.8126 -0.7635  0.1163
  378MOL0     C49829   8.487   0.942   3.713 -0.1768 -0.0002  0.0588
  378MOL0     C49830   8.382   0.980   3.631 -0.0518  0.0802  0.0967
  378MOL0     H49831   8.080   1.288   3.377  0.6652  0.2042  0.0017
  378MOL0     H49832   7.849   1.316   3.257 -1.1559 -0.2396  1.0377
  378MOL0     H49833   7.576   1.007   3.311 -0.3706 -2.9667 -0.8540
  378MOL0     H49834   7.612   0.915   3.167  4.2335  1.2264 -0.0899
  378MOL0     H49835   7.370   1.022   3.166  0.3641 -0.8217  1.2207
  378MOL0     H49836   7.481   1.088   3.046 -3.7576  0.0311 -0.7993
  378MOL0     H49837   7.516   1.298   3.198 -2.4386  2.3039  1.5366
  378MOL0     H49838   7.399   1.225   3.312 -0.0249 -2.9514 -0.2975
  378MOL0     H49839   7.302   1.400   3.193 -0.1831 -0.1397  1.0846
  378MOL0     H49840   7.369   1.333   3.040  0.1341 -0.2544  0.1221
  378MOL0     H49841   7.161   1.193   3.225 -2.0202  1.5732 -1.0395
  378MOL0     H49842   7.217   1.129   3.064  1.1077  0.4456 -0.0952
  378MOL0     H49843   7.106   1.326   2.957  0.8085 -0.7736 -0.1250
  378MOL0     H49844   7.059   1.385   3.119 -2.2262 -2.2325  2.2302
  378MOL0     H49845   6.991   1.092   3.051  0.8457  0.4822  1.4763
  378MOL0     H49846   6.898   1.220   3.133 -0.6388  0.2093 -0.7680
  378MOL0     H49847   6.956   1.185   2.842  2.5293  3.1122  0.7102
  378MOL0     H49848   6.847   1.312   2.904 -0.5429  0.0524  0.1350
  378MOL0     H49849   6.715   1.106   2.716 -1.8976 -1.4766 -0.0529
  378MOL0     H49850   6.380   1.011   2.879 -0.4095 -1.6381 -0.1276
  378MOL0     H49851   6.472   0.885   2.785  0.5066  0.4605  0.9553
  378MOL0     H49852   6.478   1.019   2.590 -3.4758 -2.7763 -0.9141
  378MOL0     H49853   6.419   1.166   2.668  0.6682 -0.0837 -1.2099
  378MOL0     H49854   6.210   1.014   2.714  0.2601  1.7684 -0.3988
  378MOL0     H49855   6.230   1.111   2.565  1.7400 -0.3040 -3.0351
  378MOL0     H49856   6.285   0.810   2.568 -0.1697 -1.7059 -3.0176
  378MOL0     H49857   6.328   0.909   2.440  0.5787  2.1085  0.7622
  378MOL0     H49858   5.919   1.003   2.411  1.5794 -1.6150 -1.0459
  378MOL0     H49859   5.697   1.012   2.527 -1.1849  0.3791  1.0975
  378MOL0     H49860   5.443   0.746   2.889  0.1237  0.4027  3.1052
  378MOL0     H49861   5.209   0.774   2.989 -1.2774 -0.9982 -1.3665
  378MOL0     H49862   4.938   1.103   2.883 -0.9186  0.3916  0.2376
  378MOL0     H49863   5.034   1.154   3.035  0.4428 -0.5558 -0.5376
  378MOL0     H49864   4.882   1.012   3.183 -2.0473 -0.7429  0.6484
  378MOL0     H49865   4.793   0.975   3.031  1.8431 -0.7218 -1.1548
  378MOL0     H49866   4.730   1.212   3.014 -1.5164 -0.2493  1.2640
  378MOL0     H49867   4.858   1.265   3.130  0.3121  1.7860 -0.4880
  378MOL0     H49868   4.605   1.108   3.207 -2.1865  1.2234  4.6114
  378MOL0     H49869   4.729   1.124   3.317 -1.9791  1.3466  1.9087
  378MOL0     H49870   4.582   1.354   3.184  3.7446 -0.5637 -2.1628
  378MOL0     H49871   4.706   1.362   3.318  0.4014  0.1915 -0.9787
  378MOL0     H49872   4.558   1.255   3.474 -0.7529 -1.4552 -0.2061
  378MOL0     H49873   4.454   1.183   3.353 -1.8138  0.4591  0.6880
  378MOL0     H49874   4.467   1.475   3.442 -2.9528  1.6460 -0.6855
  378MOL0     H49875   4.403   1.426   3.282  2.3632  0.8994 -1.1369
  378MOL0     H49876   4.223   1.439   3.472  2.3417  1.4171  2.1196
  378MOL0     H49877   4.305   1.310   3.549 -0.1950  2.0280  0.3052
  378MOL0     H49878   5.156   1.158   2.820  2.7812  2.2295 -0.6743
  378MOL0     H49879   5.376   1.134   2.700  0.4045 -0.1081  0.1189
  378MOL0     H49880   5.887   0.784   2.842  2.6606  1.0246  1.4540
  378MOL0     H49881   6.091   0.760   2.706 -2.2853 -1.9927 -0.9439
  378MOL0     H49882   7.779   0.901   3.343  1.3944 -0.2872  0.0685
  378MOL0     H49883   7.987   0.884   3.467  0.9328  1.0146  1.0868
  378MOL0     H49884   8.511   0.882   3.333 -2.1080 -2.4958  1.3363
  378MOL0     H49885   8.715   0.852   3.462  0.2755  0.8198 -0.5268
  378MOL0     H49886   8.857   1.006   3.691  1.3830 -0.1089 -2.8755
  378MOL0     H49887   8.886   0.842   3.633 -1.2980 -0.0796  0.3445
  378MOL0     H49888   8.895   0.900   3.932  1.0710  0.5359  0.7221
  378MOL0     H49889   8.898   0.749   3.852 -1.4199  0.3197 -1.5828
  378MOL0     H49890   9.106   0.955   3.770 -1.2060  0.3022  0.3938
  378MOL0     H49891   9.109   0.779   3.772  0.9484 -1.5781  1.6584
  378MOL0     H49892   9.099   0.793   4.019 -1.3579 -1.5119 -2.7386
  378MOL0     H49893   9.248   0.864   3.955  0.5109  3.3262 -1.6867
  378MOL0     H49894   9.115   1.199   4.142 -1.8937 -1.2192  0.8259
  378MOL0     H49895   8.488   0.921   3.819 -0.5704  0.6268  0.1896
  378MOL0     H49896   8.296   1.019   3.684 -0.4274  1.8890 -1.7339
  379MOL0     O49897   5.382   9.348   5.413  0.0433 -0.8829  0.2311
  379MOL0     C49898   5.291   9.367   5.336  0.3172  0.0518 -0.1266
  379MOL0     O49899   5.287   9.462   5.234  0.5035 -0.6529  0.1693
  379MOL0     C49900   5.390   9.550   5.213 -0.5246  0.5058 -0.7876
  379MOL0     C49901   5.487   9.591   5.310  0.4085 -0.8882 -0.0124
  379MOL0     C49902   5.597   9.670   5.268  0.5164 -0.1971 -0.1530
  379MOL0     C49903   5.605   9.729   5.141  0.3836 -0.1249 -0.1871
  379MOL0     O49904   5.700   9.823   5.112  0.3793 -0.0258 -0.3486
  379MOL0     C49905   5.693   9.906   4.987  0.6436 -0.1695 -0.2346
  379MOL0     C49906   5.799   9.854   4.884  0.2438 -0.0458  0.3874
  379MOL0     C49907   5.739   9.729   4.828  0.0160  0.4581  0.8676
  379MOL0     C49908   5.835   9.685   4.709  0.6531  0.0622  0.2079
  379MOL0     C49909   5.782   9.548   4.649 -0.3858 -0.3808 -0.0191
  379MOL0     C49910   5.901   9.472   4.579  0.3605  0.3564 -0.3697
  379MOL0     C49911   5.966   9.553   4.467 -0.8849 -0.1131  0.1601
  379MOL0     C49912   6.020   9.464   4.359 -0.4713 -0.5383 -0.2771
  379MOL0     N49913   5.909   9.421   4.274  0.4905  0.0742  0.4827
  379MOL0     C49914   5.845   9.488   4.185  0.6945 -0.1096 -0.0078
  379MOL0     C49915   5.751   9.407   4.133  0.1291  0.0766 -0.5333
  379MOL0     C49916   5.641   9.456   4.035 -0.1025  0.1050  0.4966
  379MOL0     C49917   5.590   9.335   3.954 -0.5544  0.8465  0.5642
  379MOL0     C49918   5.678   9.229   3.882 -0.4190  0.0531  0.0297
  379MOL0     C49919   5.586   9.114   3.828  0.3342 -0.3932 -0.2726
  379MOL0     O49920   5.511   9.159   3.721  0.2254 -0.1700  0.1488
  379MOL0     C49921   5.388   9.107   3.694 -0.1059  0.6394 -0.3624
  379MOL0     C49922   5.363   8.969   3.707  0.5997  0.4014 -0.7551
  379MOL0     C49923   5.230   8.916   3.682 -0.1945  0.2606  0.0070
  379MOL0     C49924   5.128   9.013   3.662 -0.1467  0.4320  1.1200
  379MOL0     C49925   4.991   8.959   3.637  0.1301  0.6081  0.3259
  379MOL0     O49926   4.975   8.824   3.619  0.5888 -0.0938 -0.2894
  379MOL0     C49927   4.855   8.757   3.588  0.3228  0.5911 -0.1875
  379MOL0     C49928   4.870   8.618   3.568 -0.5680  0.4447 -0.2984
  379MOL0     C49929   4.755   8.536   3.524 -0.1563  0.1504  0.2948
  379MOL0     C49930   4.631   8.595   3.510 -0.3582  0.9745  0.0886
  379MOL0     O49931   4.528   8.507   3.488  0.3755 -0.6537  0.1207
  379MOL0     C49932   4.414   8.563   3.420  0.3287 -0.6576 -0.8051
  379MOL0     C49933   4.289   8.539   3.499  0.3933 -0.6969  1.1619
  379MOL0     C49934   4.172   8.556   3.411  0.4276  0.4335  0.1601
  379MOL0     C49935   4.042   8.495   3.473 -0.5680  0.0767  0.0903
  379MOL0     C49936   3.923   8.549   3.387  0.0098  0.1149 -0.0108
  379MOL0     C49937   3.789   8.493   3.445 -0.4573  0.3526  0.3980
  379MOL0     C49938   3.690   8.502   3.333 -0.6835  0.0990 -0.4219
  379MOL0     C49939   3.554   8.464   3.384 -0.9622 -0.2146  0.0540
  379MOL0    Cl49940   3.439   8.469   3.239 -0.3541  0.0164  0.2147
  379MOL0     C49941   4.612   8.728   3.543  0.9546  0.6788  0.2469
  379MOL0     C49942   4.724   8.807   3.571  0.2475 -0.7470 -0.1613
  379MOL0     O49943   4.910   9.042   3.620  0.9403  0.4147 -0.9013
  379MOL0     C49944   5.157   9.153   3.659  0.6304  0.1506 -0.1878
  379MOL0     C49945   5.280   9.199   3.675 -0.2441 -0.3030  0.6492
  379MOL0     N49946   5.758   9.279   4.196 -0.0584 -0.5361  1.3830
  379MOL0     N49947   5.864   9.289   4.268  0.6417  0.9109  0.6580
  379MOL0     C49948   5.508   9.683   5.046 -0.1728 -0.2161 -0.5455
  379MOL0     C49949   5.407   9.599   5.088  0.5049  0.7495  0.6837
  379MOL0     C49950   5.183   9.262   5.338  0.0601 -0.5727 -1.4554
  379MOL0     C49951   5.197   9.146   5.427  0.2118  0.5200  1.0828
  379MOL0     C49952   5.089   9.053   5.430  0.3377 -0.7141  0.3890
  379MOL0     C49953   4.973   9.066   5.341 -0.0493  0.0405 -0.0557
  379MOL0     O49954   4.865   8.982   5.335 -0.3003 -0.3388  0.2127
  379MOL0     C49955   4.858   8.862   5.407 -0.3750  1.1747  0.2887
  379MOL0     C49956   4.714   8.811   5.437  0.0943  0.3769  0.6045
  379MOL0     C49957   4.612   8.815   5.318  0.1791 -0.6359 -1.2010
  379MOL0     C49958   4.662   8.761   5.176 -0.2942 -0.6544  0.0684
  379MOL0     C49959   4.646   8.617   5.160 -0.0671  0.0784 -0.3616
  379MOL0     C49960   4.608   8.504   5.144 -0.6552  0.5682 -0.3198
  379MOL0     C49961   4.957   9.184   5.272 -0.4892 -0.2819  0.3109
  379MOL0     C49962   5.056   9.287   5.276 -0.3179  0.0736 -0.7506
  379MOL0     H49963   5.497   9.560   5.413  2.6157  3.0898  1.1827
  379MOL0     H49964   5.667   9.703   5.343  0.2259  0.0275  0.0239
  379MOL0     H49965   5.715  10.009   5.017 -2.6967  0.5427  0.2089
  379MOL0     H49966   5.590   9.913   4.949  0.4971  0.7251  0.2839
  379MOL0     H49967   5.894   9.838   4.937  0.3832  0.8235  0.4113
  379MOL0     H49968   5.798   9.924   4.800  0.2862  1.9796  1.9928
  379MOL0     H49969   5.643   9.749   4.781 -0.2719  1.8075  1.9532
  379MOL0     H49970   5.725   9.654   4.906  1.3542  1.7977  2.4891
  379MOL0     H49971   5.839   9.760   4.630 -1.0268 -0.7119 -0.6573
  379MOL0     H49972   5.934   9.664   4.752  0.2342 -0.3524  0.9982
  379MOL0     H49973   5.697   9.561   4.582 -0.0375  0.8906 -0.2365
  379MOL0     H49974   5.746   9.487   4.733 -1.0350  1.9717  1.5067
  379MOL0     H49975   5.872   9.374   4.538  1.3748 -0.1873  0.1740
  379MOL0     H49976   5.967   9.444   4.661  3.4194 -0.5750 -2.9341
  379MOL0     H49977   5.887   9.618   4.429  0.4779  2.0453  0.8433
  379MOL0     H49978   6.043   9.608   4.521  0.1071 -2.0093  0.7931
  379MOL0     H49979   6.083   9.379   4.389 -1.8326 -2.4208 -2.4315
  379MOL0     H49980   6.084   9.523   4.293  0.2895  0.4096  1.2645
  379MOL0     H49981   5.865   9.589   4.152 -0.7095  0.5807  1.1013
  379MOL0     H49982   5.678   9.535   3.968  0.3206  1.5397  2.3382
  379MOL0     H49983   5.567   9.513   4.092  1.5582  3.0421 -0.0594
  379MOL0     H49984   5.527   9.378   3.876  0.3554  0.6475 -0.3083
  379MOL0     H49985   5.527   9.271   4.017  0.1203 -2.7640 -2.1057
  379MOL0     H49986   5.739   9.275   3.803 -1.2212 -1.6001 -1.6227
  379MOL0     H49987   5.746   9.182   3.953 -1.5518 -1.4081  0.1886
  379MOL0     H49988   5.529   9.077   3.913  2.3311  0.5231  1.5423
  379MOL0     H49989   5.649   9.031   3.795  1.0833  0.6017 -1.4623
  379MOL0     H49990   5.438   8.894   3.734  0.3278  0.5792  0.5194
  379MOL0     H49991   5.220   8.809   3.701 -1.6039  0.1622 -1.1093
  379MOL0     H49992   4.967   8.570   3.572  0.9548  2.9934 -2.5384
  379MOL0     H49993   4.777   8.434   3.493 -1.6895 -0.5434  1.3271
  379MOL0     H49994   4.413   8.517   3.321  1.3270  0.1668 -1.2123
  379MOL0     H49995   4.414   8.671   3.410 -1.3109 -0.4849  0.5686
  379MOL0     H49996   4.279   8.613   3.579 -0.1935  0.9933 -0.4021
  379MOL0     H49997   4.295   8.436   3.535 -0.3425 -1.6157 -1.1737
  379MOL0     H49998   4.200   8.501   3.321 -2.5921 -1.6139  0.3056
  379MOL0     H49999   4.159   8.661   3.386 -2.9139 -0.1655 -1.1867
  379MOL0     H50000   4.053   8.386   3.469  0.4197  0.1433  0.7564
  379MOL0     H50001   4.023   8.528   3.576 -3.0409 -3.5257  0.9599
  379MOL0     H50002   3.932   8.513   3.285  1.9388 -2.0361  0.8336
  379MOL0     H50003   3.914   8.658   3.392  0.4967  0.2184 -1.1582
  379MOL0     H50004   3.763   8.550   3.534  1.7382 -0.4404  1.6303
  379MOL0     H50005   3.797   8.387   3.471 -2.3369  0.6122  2.3583
  379MOL0     H50006   3.688   8.607   3.301 -2.2086 -0.3464 -1.9300
  379MOL0     H50007   3.720   8.443   3.246  0.8535  1.1354 -0.6253
  379MOL0     H50008   3.522   8.546   3.448 -0.2206 -1.8816  2.7472
  379MOL0     H50009   3.554   8.371   3.443 -0.7446  0.6607  1.4821
  379MOL0     H50010   4.517   8.778   3.534  0.3617  0.3919  3.5732
  379MOL0     H50011   4.708   8.915   3.574  0.2622 -0.6956 -1.3870
  379MOL0     H50012   5.074   9.218   3.631 -0.0935  0.0065  1.5292
  379MOL0     H50013   5.298   9.306   3.682  0.4883 -0.3529 -0.2174
  379MOL0     H50014   5.508   9.726   4.947 -1.9990 -0.9409 -0.8957
  379MOL0     H50015   5.337   9.560   5.014 -0.1407 -0.6675  1.9790
  379MOL0     H50016   5.289   9.144   5.485  4.1894  0.2246 -4.4613
  379MOL0     H50017   5.094   8.952   5.469 -1.6255 -1.2503 -0.6588
  379MOL0     H50018   4.913   8.864   5.501 -2.9424  1.3661  1.8712
  379MOL0     H50019   4.903   8.784   5.345 -1.0802  2.3937 -1.8916
  379MOL0     H50020   4.718   8.705   5.465  1.6320  0.9195  2.7412
  379MOL0     H50021   4.676   8.868   5.522  1.3659  1.4590  0.4795
  379MOL0     H50022   4.582   8.920   5.305  0.1496 -0.4882  0.0115
  379MOL0     H50023   4.512   8.776   5.342 -0.0129  0.9015  0.7405
  379MOL0     H50024   4.601   8.815   5.103 -1.4764  0.9308  2.1251
  379MOL0     H50025   4.766   8.792   5.163 -1.4464  4.0761  0.2653
  379MOL0     H50026   4.571   8.406   5.122  0.1584 -0.4123  2.2720
  379MOL0     H50027   4.869   9.207   5.212  0.6955  1.2295 -0.9281
  379MOL0     H50028   5.027   9.386   5.239 -2.4790 -0.6246 -1.0703
  380MOL0     O50029   9.568   8.122   6.447  0.4434  0.6782 -0.6033
  380MOL0     C50030   9.646   8.198   6.393  0.2609  0.5029 -0.2555
  380MOL0     O50031   9.611   8.315   6.333 -0.6850  0.4107  0.2192
  380MOL0     C50032   9.487   8.369   6.366 -0.0412  0.2208  0.4951
  380MOL0     C50033   9.393   8.404   6.260  0.0687 -0.2876 -0.4041
  380MOL0     C50034   9.266   8.467   6.291  0.4194  0.2605  0.3051
  380MOL0     C50035   9.230   8.472   6.419 -0.9114  0.3508  0.2648
  380MOL0     O50036   9.096   8.520   6.423 -0.6569 -0.0954 -0.0935
  380MOL0     C50037   9.036   8.525   6.551 -0.2238 -0.7384  0.9423
  380MOL0     C50038   9.086   8.644   6.635  0.5408 -0.6880  0.3787
  380MOL0     C50039   9.041   8.640   6.785 -0.4575 -0.0250 -0.3639
  380MOL0     C50040   8.893   8.614   6.805  0.3077  0.3855 -1.0000
  380MOL0     C50041   8.868   8.660   6.957  0.1479  0.2437  0.0716
  380MOL0     C50042   8.729   8.607   6.996 -0.9727  0.5994 -0.3079
  380MOL0     C50043   8.697   8.636   7.144  0.6329  0.3543 -0.1969
  380MOL0     C50044   8.559   8.585   7.183 -0.1368  0.7488 -0.8357
  380MOL0     N50045   8.446   8.624   7.096 -0.6250  0.0381 -0.1090
  380MOL0     C50046   8.387   8.748   7.100 -0.2041  0.0523  0.2948
  380MOL0     C50047   8.260   8.735   7.060  1.0141  0.0824  0.0058
  380MOL0     C50048   8.174   8.857   7.055 -0.4421 -0.5105 -0.2219
  380MOL0     C50049   8.096   8.884   7.186  0.3211 -0.3496 -0.1367
  380MOL0     C50050   7.983   8.772   7.211  0.2628  0.3259  0.1993
  380MOL0     C50051   7.894   8.823   7.321  0.1471  0.9016  0.5733
  380MOL0     O50052   7.824   8.936   7.263  0.7229  0.0312  0.1795
  380MOL0     C50053   7.751   9.015   7.355  0.1389  0.6916  0.1310
  380MOL0     C50054   7.817   9.125   7.406  0.1669  0.1890 -0.7940
  380MOL0     C50055   7.748   9.219   7.488  0.6447 -0.3814 -0.5939
  380MOL0     C50056   7.612   9.193   7.515  0.1630 -0.0149  0.2359
  380MOL0     C50057   7.532   9.272   7.612 -0.1612  0.7174  0.5148
  380MOL0     O50058   7.395   9.264   7.609  0.2536 -0.2530 -0.1041
  380MOL0     C50059   7.306   9.348   7.670  0.0395 -0.7230  0.7631
  380MOL0     C50060   7.197   9.281   7.731 -0.7977  0.0900  0.2209
  380MOL0     C50061   7.103   9.356   7.802 -0.3457 -0.4207  0.4523
  380MOL0     C50062   7.101   9.494   7.814 -1.3031 -0.4679 -0.1129
  380MOL0     O50063   7.007   9.565   7.885 -0.5248 -0.2809 -0.0334
  380MOL0     C50064   6.867   9.545   7.858  0.1053  0.1560 -0.5938
  380MOL0     C50065   6.807   9.441   7.949  0.3123 -0.1527  0.1169
  380MOL0     C50066   6.658   9.415   7.927 -0.1073  0.2581  0.8422
  380MOL0     C50067   6.640   9.297   7.835  0.7745  0.7130  0.7855
  380MOL0     C50068   6.497   9.278   7.779 -1.0498  0.3916 -0.0301
  380MOL0     C50069   6.472   9.386   7.677 -0.3470  0.5886  0.2621
  380MOL0     C50070   6.334   9.371   7.615 -0.3397  0.5948  0.6006
  380MOL0     C50071   6.295   9.483   7.510 -0.4379  0.5896 -0.3609
  380MOL0    Cl50072   6.281   9.646   7.595 -0.0426 -0.0662  0.0799
  380MOL0     C50073   7.203   9.560   7.748  0.0674 -0.0171  0.3642
  380MOL0     C50074   7.306   9.490   7.679  0.9752  0.1655 -0.1063
  380MOL0     O50075   7.596   9.342   7.687 -0.0481 -0.4594 -0.1867
  380MOL0     C50076   7.548   9.089   7.442  1.0443 -0.7601 -1.0157
  380MOL0     C50077   7.615   8.995   7.374 -0.7381  0.5930 -0.0344
  380MOL0     N50078   8.243   8.609   7.013  0.4366 -0.7354 -0.4348
  380MOL0     N50079   8.353   8.541   7.047 -0.5749 -0.5578 -0.3847
  380MOL0     C50080   9.315   8.437   6.527 -0.5318 -0.5593  0.2926
  380MOL0     C50081   9.442   8.388   6.501  0.6242 -0.7994  0.2153
  380MOL0     C50082   9.784   8.146   6.372  0.4508 -0.0069 -0.2783
  380MOL0     C50083   9.865   8.210   6.280 -0.9293  0.2071 -0.6340
  380MOL0     C50084   9.993   8.163   6.256 -0.6501  0.1637  0.5122
  380MOL0     C50085  10.048   8.054   6.316  0.5957 -0.0781  0.0454
  380MOL0     O50086  10.168   8.003   6.288 -0.2275 -0.4571 -0.5652
  380MOL0     C50087  10.268   8.003   6.399 -0.6301 -0.3116  0.8656
  380MOL0     C50088  10.398   8.059   6.329  0.1286 -0.1533 -0.1931
  380MOL0     C50089  10.509   8.070   6.432 -0.3094 -0.0663 -0.5623
  380MOL0     C50090  10.639   8.109   6.361 -0.8273 -0.4244 -0.5305
  380MOL0     C50091  10.737   8.165   6.460  0.2552  0.7702  0.5227
  380MOL0     C50092  10.807   8.206   6.553 -0.4299  0.1185 -0.1810
  380MOL0     C50093   9.968   7.990   6.404  0.8887  0.9417 -0.2976
  380MOL0     C50094   9.837   8.027   6.432 -0.2885 -0.2260  0.2709
  380MOL0     H50095   9.419   8.376   6.158 -1.4265  0.5091 -1.0386
  380MOL0     H50096   9.203   8.507   6.213  2.3634  2.5192 -0.2214
  380MOL0     H50097   9.060   8.431   6.602 -1.6706 -0.8265  1.5068
  380MOL0     H50098   8.927   8.532   6.545 -0.1335 -0.4836 -1.1825
  380MOL0     H50099   9.053   8.733   6.580  2.5279 -0.2854 -0.2259
  380MOL0     H50100   9.195   8.649   6.636  0.4937  2.0893  0.6112
  380MOL0     H50101   9.061   8.736   6.832 -2.0636  1.4639 -2.4840
  380MOL0     H50102   9.102   8.561   6.828 -0.0970 -0.3073 -1.3543
  380MOL0     H50103   8.835   8.676   6.735 -2.1823 -0.4752  0.1645
  380MOL0     H50104   8.881   8.506   6.792  0.3970  0.2060  0.2982
  380MOL0     H50105   8.867   8.769   6.969 -2.1300  0.3853 -0.8731
  380MOL0     H50106   8.939   8.610   7.024 -1.9566 -0.2956  2.0226
  380MOL0     H50107   8.730   8.502   6.966  0.8198  1.0266 -1.9665
  380MOL0     H50108   8.644   8.653   6.944 -0.9001 -0.7957 -1.7424
  380MOL0     H50109   8.774   8.586   7.204  0.2030 -1.6877 -1.2695
  380MOL0     H50110   8.694   8.744   7.161  1.3255  0.0358  2.3369
  380MOL0     H50111   8.534   8.616   7.285 -2.2816  1.4837 -1.5228
  380MOL0     H50112   8.568   8.476   7.189 -1.5588  0.6577  0.4663
  380MOL0     H50113   8.443   8.837   7.127  1.5564 -0.4248 -1.5068
  380MOL0     H50114   8.102   8.864   6.972  2.0267  1.6820 -2.4046
  380MOL0     H50115   8.232   8.948   7.034 -1.3352 -0.1357 -1.1959
  380MOL0     H50116   8.050   8.983   7.187 -0.7553 -0.7837 -1.9402
  380MOL0     H50117   8.165   8.882   7.272  0.5076  0.0246 -0.2788
  380MOL0     H50118   7.919   8.743   7.128  2.5130 -3.0442 -0.5739
  380MOL0     H50119   8.026   8.674   7.233 -1.8857 -0.9243 -0.9175
  380MOL0     H50120   7.954   8.843   7.410  1.0067 -1.7362  0.6853
  380MOL0     H50121   7.819   8.746   7.342 -0.1838  1.1012  0.1550
  380MOL0     H50122   7.924   9.123   7.388  0.2333 -3.0929 -0.7607
  380MOL0     H50123   7.793   9.300   7.544 -0.7535  1.0271 -1.4390
  380MOL0     H50124   7.219   9.175   7.738 -1.8233 -0.1496 -0.0610
  380MOL0     H50125   7.035   9.292   7.857  0.5073 -1.1416  0.6958
  380MOL0     H50126   6.846   9.510   7.757 -2.2666  0.3767 -0.2394
  380MOL0     H50127   6.817   9.640   7.875  1.1904  0.7028 -0.3887
  380MOL0     H50128   6.827   9.474   8.052 -0.8275 -0.1562  0.3495
  380MOL0     H50129   6.856   9.344   7.936  1.9773  0.6841 -0.0911
  380MOL0     H50130   6.615   9.508   7.890  4.1715  3.0177  2.0960
  380MOL0     H50131   6.621   9.393   8.028  2.0980 -1.8195  1.2908
  380MOL0     H50132   6.710   9.296   7.751 -0.1860 -0.7830 -0.0496
  380MOL0     H50133   6.677   9.210   7.890  1.4059  0.2320 -0.3734
  380MOL0     H50134   6.429   9.283   7.864  0.3043 -1.6416  1.2645
  380MOL0     H50135   6.487   9.181   7.730 -2.9905  0.4718  0.1582
  380MOL0     H50136   6.542   9.381   7.593  1.2741 -1.2850  1.6345
  380MOL0     H50137   6.486   9.491   7.705 -1.9312  1.7501 -2.7738
  380MOL0     H50138   6.331   9.270   7.575 -1.3808  0.0956  1.8949
  380MOL0     H50139   6.257   9.362   7.691 -1.3935 -3.1688 -0.7238
  380MOL0     H50140   6.203   9.457   7.458  1.4239 -1.4553 -2.9140
  380MOL0     H50141   6.363   9.495   7.425 -2.1072  2.2503 -1.5307
  380MOL0     H50142   7.199   9.668   7.739  0.1546 -0.1570 -1.9628
  380MOL0     H50143   7.383   9.552   7.633 -0.8742  1.1716 -2.1006
  380MOL0     H50144   7.440   9.084   7.436  0.8583 -2.6588  1.6819
  380MOL0     H50145   7.561   8.915   7.324  1.5472 -0.0588 -1.6395
  380MOL0     H50146   9.283   8.456   6.629  1.6016  0.3033  0.8679
  380MOL0     H50147   9.496   8.367   6.592  0.0346  1.8108  1.2533
  380MOL0     H50148   9.833   8.295   6.221 -0.2743  1.1331  0.3071
  380MOL0     H50149  10.052   8.224   6.189  1.6737 -0.8492  1.5211
  380MOL0     H50150  10.290   7.906   6.443 -0.5346 -1.1237 -0.8728
  380MOL0     H50151  10.236   8.056   6.489 -0.8735 -0.1440  0.6819
  380MOL0     H50152  10.413   7.987   6.248 -2.4581  2.6099 -3.3871
  380MOL0     H50153  10.384   8.147   6.266 -1.3632  0.3956  0.8389
  380MOL0     H50154  10.516   7.989   6.505 -0.2798  0.2811 -0.1735
  380MOL0     H50155  10.483   8.156   6.495 -3.4623 -1.7673  0.6991
  380MOL0     H50156  10.675   8.018   6.313 -0.6333 -1.7385  1.9531
  380MOL0     H50157  10.627   8.179   6.278 -1.7329 -1.4443 -1.2718
  380MOL0     H50158  10.881   8.241   6.622  2.3255 -2.4691 -1.6070
  380MOL0     H50159  10.010   7.907   6.460  2.8439  2.4218  0.6028
  380MOL0     H50160   9.785   7.982   6.516  1.3829 -2.9019 -0.0197
  381MOL0     O50161   4.045  10.349   7.982  0.5057  0.3916 -0.2010
  381MOL0     C50162   4.070  10.276   8.072  0.5486  0.6696  0.3437
  381MOL0     O50163   3.972  10.220   8.154 -0.3433 -0.2928 -0.1209
  381MOL0     C50164   3.840  10.257   8.134  0.3050  0.1037  0.4322
  381MOL0     C50165   3.772  10.292   8.248  0.6548 -0.4909  1.1234
  381MOL0     C50166   3.635  10.322   8.246  0.2566 -0.2674  0.5101
  381MOL0     C50167   3.567  10.322   8.126  0.8174 -0.0913  0.0944
  381MOL0     O50168   3.425  10.331   8.133 -0.7300 -0.1174 -0.3762
  381MOL0     C50169   3.340  10.386   8.031 -0.2481 -0.2120  0.2745
  381MOL0     C50170   3.205  10.321   8.042 -0.0650  0.3367 -0.6161
  381MOL0     C50171   3.096  10.425   8.063  1.2678 -0.2303  0.4454
  381MOL0     C50172   2.954  10.355   8.097 -0.2273 -0.7823 -1.0621
  381MOL0     C50173   2.847  10.448   8.153  0.2613 -0.7569 -0.3276
  381MOL0     C50174   2.795  10.561   8.054 -0.6901  0.0897 -0.2097
  381MOL0     C50175   2.673  10.646   8.079  0.4881 -0.4140 -0.2272
  381MOL0     C50176   2.545  10.568   8.051  0.5488 -0.6540  0.5183
  381MOL0     N50177   2.434  10.661   8.015 -0.4651  0.2138  0.6604
  381MOL0     C50178   2.385  10.764   8.087 -0.3060 -0.3606 -0.2620
  381MOL0     C50179   2.273  10.812   8.020  0.5249  0.9337 -0.2574
  381MOL0     C50180   2.174  10.918   8.070 -0.9445  0.2334  0.4157
  381MOL0     C50181   2.052  10.927   7.969 -0.3786  0.0909  0.9957
  381MOL0     C50182   1.966  11.040   8.024 -0.2340 -0.2005  0.3498
  381MOL0     C50183   1.840  11.053   7.946  0.0812 -0.4896  0.4012
  381MOL0     O50184   1.859  11.070   7.802 -0.2529  0.0494  0.1818
  381MOL0     C50185   1.753  11.113   7.728 -0.2775 -0.5161  0.5055
  381MOL0     C50186   1.782  11.164   7.599 -0.2664 -0.5572 -0.2579
  381MOL0     C50187   1.681  11.221   7.516  0.1084  0.9769 -1.0204
  381MOL0     C50188   1.551  11.239   7.565 -0.0307 -0.3794  0.3466
  381MOL0     C50189   1.439  11.299   7.486  0.6100 -0.3125  0.3270
  381MOL0     O50190   1.315  11.267   7.527 -0.0437  0.8687  0.0992
  381MOL0     C50191   1.211  11.332   7.462  0.1912  0.0039  0.1862
  381MOL0     C50192   1.103  11.370   7.547 -1.0132  0.4973 -0.5004
  381MOL0     C50193   0.992  11.430   7.496 -0.2997  0.2806  0.1013
  381MOL0     C50194   0.978  11.451   7.354 -0.3357 -0.2359  0.5759
  381MOL0     O50195   0.869  11.520   7.294  0.2398 -0.2074  0.4716
  381MOL0     C50196   0.750  11.556   7.369 -0.0941  0.7507 -0.8892
  381MOL0     C50197   0.647  11.630   7.269 -0.2914 -0.1204  0.0579
  381MOL0     C50198   0.723  11.747   7.192 -0.2069  0.1432  0.3792
  381MOL0     C50199   0.605  11.815   7.112  0.5680  0.3006  0.0021
  381MOL0     C50200   0.664  11.914   7.017 -0.3275 -0.0580  1.0263
  381MOL0     C50201   0.557  11.974   6.916 -0.6523  0.2187 -0.2235
  381MOL0     C50202   0.614  12.089   6.833  0.9037 -0.5854 -0.6843
  381MOL0     C50203   0.520  12.117   6.710  0.5129  0.2121  0.3192
  381MOL0    Cl50204   0.351  12.079   6.728  0.3914  0.0532 -0.6165
  381MOL0     C50205   1.078  11.407   7.273 -0.6353 -0.6251  0.1559
  381MOL0     C50206   1.196  11.350   7.320 -0.1543 -0.3218  0.0752
  381MOL0     O50207   1.471  11.386   7.408  0.6661  0.0480 -0.1578
  381MOL0     C50208   1.523  11.192   7.697 -0.4792  0.1021 -0.7050
  381MOL0     C50209   1.618  11.120   7.773 -0.1922  0.0060 -0.6556
  381MOL0     N50210   2.248  10.715   7.927 -0.9483  0.8329  0.4373
  381MOL0     N50211   2.350  10.636   7.920 -0.1528 -0.5252  0.0379
  381MOL0     C50212   3.635  10.289   8.007  0.6086  0.2256  0.2355
  381MOL0     C50213   3.771  10.251   8.014 -0.1427 -0.4411 -0.1336
  381MOL0     C50214   4.208  10.237   8.107 -0.4699 -0.6182 -0.0804
  381MOL0     C50215   4.320  10.298   8.044 -0.2503  0.1641 -0.5616
  381MOL0     C50216   4.449  10.265   8.088 -0.0938  0.7352  0.1487
  381MOL0     C50217   4.471  10.159   8.177 -0.9266 -0.1500  0.0996
  381MOL0     O50218   4.608  10.124   8.200  0.1501  0.0537  0.5332
  381MOL0     C50219   4.642   9.997   8.254 -0.2300  0.1499 -0.0823
  381MOL0     C50220   4.674  10.013   8.398  0.0713  0.2518 -0.9592
  381MOL0     C50221   4.650   9.885   8.476  0.0767  0.1976 -0.4036
  381MOL0     C50222   4.709   9.890   8.625  0.0406  0.3451  0.2123
  381MOL0     C50223   4.858   9.871   8.638  0.6461 -0.1026  0.4818
  381MOL0     C50224   4.978   9.861   8.639 -0.0311  0.9685 -0.0755
  381MOL0     C50225   4.364  10.098   8.244  0.3168 -0.5390 -0.1741
  381MOL0     C50226   4.230  10.132   8.203  0.4988 -0.0417  0.2450
  381MOL0     H50227   3.824  10.296   8.344  0.7817  3.2413  1.0455
  381MOL0     H50228   3.585  10.337   8.341 -0.4125  0.2472  0.0861
  381MOL0     H50229   3.382  10.365   7.933 -1.1378  2.3616 -0.7541
  381MOL0     H50230   3.343  10.495   8.047  0.9005 -0.1069 -0.5564
  381MOL0     H50231   3.196  10.255   8.128 -0.4623  1.5407  0.2980
  381MOL0     H50232   3.183  10.262   7.952  1.1622 -0.4365 -0.4316
  381MOL0     H50233   3.094  10.487   7.974 -2.6061 -1.4454 -0.5032
  381MOL0     H50234   3.127  10.488   8.147 -0.3889  2.6574 -0.9635
  381MOL0     H50235   2.905  10.307   8.012  0.1338 -2.6970 -0.2312
  381MOL0     H50236   2.961  10.277   8.173 -0.7383  0.7950  0.6683
  381MOL0     H50237   2.874  10.510   8.239 -2.1118  1.0209 -0.7618
  381MOL0     H50238   2.760  10.389   8.183 -0.1650 -0.7587 -1.4841
  381MOL0     H50239   2.790  10.523   7.952 -1.6620  1.2746 -0.6192
  381MOL0     H50240   2.881  10.629   8.056  0.2796 -1.0267 -1.4792
  381MOL0     H50241   2.675  10.689   8.179  0.4183 -0.2211 -0.3101
  381MOL0     H50242   2.681  10.733   8.013 -0.2273  0.3726  0.6879
  381MOL0     H50243   2.515  10.497   8.129 -2.8424 -2.0203 -1.7879
  381MOL0     H50244   2.567  10.509   7.962  1.3017  0.1988  0.1158
  381MOL0     H50245   2.427  10.804   8.179  0.2278  1.6485 -1.3286
  381MOL0     H50246   2.216  11.019   8.072  0.4372 -0.2588 -1.5426
  381MOL0     H50247   2.154  10.907   8.177  0.8067  2.1790  1.0076
  381MOL0     H50248   1.995  10.835   7.962 -0.2736  0.1137 -0.8893
  381MOL0     H50249   2.086  10.957   7.869 -2.3117  2.5486  0.9650
  381MOL0     H50250   1.938  11.004   8.124  0.0513  1.6615  1.1313
  381MOL0     H50251   2.018  11.134   8.039  0.4517 -0.0090 -2.5511
  381MOL0     H50252   1.792  11.141   7.990  1.3754  0.6808 -0.4504
  381MOL0     H50253   1.784  10.961   7.965 -1.8651  0.3653 -0.8684
  381MOL0     H50254   1.883  11.156   7.561  0.2973 -0.6751  1.2088
  381MOL0     H50255   1.714  11.261   7.421 -1.6574 -0.1857 -2.1903
  381MOL0     H50256   1.089  11.356   7.654 -1.3999 -0.4015 -0.6502
  381MOL0     H50257   0.905  11.455   7.556 -0.8613 -0.4990 -0.3707
  381MOL0     H50258   0.785  11.631   7.441 -0.5445  0.4926 -0.3983
  381MOL0     H50259   0.711  11.469   7.422  1.9300  0.5502  0.3933
  381MOL0     H50260   0.566  11.667   7.332 -0.8892 -3.2388  1.3025
  381MOL0     H50261   0.611  11.554   7.200 -3.8614  0.0146  1.5595
  381MOL0     H50262   0.798  11.707   7.124  0.9071  0.8176  1.1726
  381MOL0     H50263   0.770  11.814   7.265  2.6006  1.2852 -2.2710
  381MOL0     H50264   0.545  11.740   7.060 -0.5523  1.5098 -0.5235
  381MOL0     H50265   0.541  11.867   7.184  2.8379  0.8993  1.6911
  381MOL0     H50266   0.743  11.873   6.953 -0.5800  0.3611  0.4395
  381MOL0     H50267   0.716  12.000   7.061 -1.8536  0.8946  1.0475
  381MOL0     H50268   0.473  12.002   6.980 -0.8731 -1.6525  0.3757
  381MOL0     H50269   0.543  11.899   6.838  3.1940  2.6115 -3.6712
  381MOL0     H50270   0.597  12.170   6.904 -3.8632 -0.1339 -1.9549
  381MOL0     H50271   0.717  12.078   6.797  1.9442  1.6060  1.3853
  381MOL0     H50272   0.549  12.062   6.620 -0.8047  0.6487 -0.4010
  381MOL0     H50273   0.528  12.217   6.665  0.5795  0.0893  0.0575
  381MOL0     H50274   1.080  11.423   7.165 -0.0321  0.5540  0.3264
  381MOL0     H50275   1.262  11.302   7.248 -2.0698 -3.5528  0.3207
  381MOL0     H50276   1.417  11.193   7.722 -0.0418  0.2509  1.3082
  381MOL0     H50277   1.588  11.064   7.861  1.1190  1.7859  0.9890
  381MOL0     H50278   3.582  10.281   7.912  0.2567  1.6178  0.2978
  381MOL0     H50279   3.838  10.234   7.930  2.0567  0.8015  1.2708
  381MOL0     H50280   4.296  10.379   7.975  3.5054  1.0183 -1.1033
  381MOL0     H50281   4.543  10.304   8.050  0.8858 -1.3698  0.2292
  381MOL0     H50282   4.720   9.953   8.191  0.9641  2.3967 -0.2737
  381MOL0     H50283   4.555   9.935   8.231 -1.6707  1.8299  0.5614
  381MOL0     H50284   4.777  10.048   8.410 -0.6339  1.9349  0.5954
  381MOL0     H50285   4.614  10.090   8.447 -1.7411 -3.0106  2.5121
  381MOL0     H50286   4.712   9.806   8.432  0.4122  0.7520 -0.9360
  381MOL0     H50287   4.544   9.860   8.472 -0.4920  2.5704 -2.0817
  381MOL0     H50288   4.687   9.990   8.663  3.3496  1.4225 -0.4470
  381MOL0     H50289   4.666   9.803   8.675  1.9345  0.1053  1.4939
  381MOL0     H50290   5.082   9.841   8.656 -0.4901 -0.4337  1.3026
  381MOL0     H50291   4.374  10.026   8.324 -1.9767 -2.5837 -1.5793
  381MOL0     H50292   4.140  10.098   8.254  0.3187 -3.0889 -1.8055
  382MOL0     O50293   8.918   9.018   9.428  0.3021  0.3807  0.0635
  382MOL0     C50294   8.989   9.078   9.508  0.3875 -1.5283 -0.2888
  382MOL0     O50295   8.943   9.126   9.631  0.0219 -0.0771  0.1450
  382MOL0     C50296   8.813   9.130   9.676 -0.6084  0.0588  0.8733
  382MOL0     C50297   8.786   9.105   9.808 -0.3924  0.0244  0.7388
  382MOL0     C50298   8.664   9.078   9.848  0.2622 -0.2896 -0.1274
  382MOL0     C50299   8.551   9.083   9.766  0.5967  0.5433 -0.7068
  382MOL0     O50300   8.429   9.072   9.828 -0.0279 -0.8892  0.6257
  382MOL0     C50301   8.318   9.040   9.750  0.3438 -0.5618 -0.3751
  382MOL0     C50302   8.207   9.102   9.840  0.2536 -0.2055  0.0326
  382MOL0     C50303   8.065   9.066   9.776  0.3886 -0.0504  0.0062
  382MOL0     C50304   8.027   8.917   9.792  0.0509  0.3059 -0.1206
  382MOL0     C50305   7.882   8.886   9.748  0.3631 -0.7993 -0.2084
  382MOL0     C50306   7.862   8.729   9.730  1.3822 -0.9895 -0.3862
  382MOL0     C50307   7.725   8.689   9.674  0.1847 -0.9988  0.1710
  382MOL0     C50308   7.699   8.535   9.674 -0.5212 -0.9346  0.6079
  382MOL0     N50309   7.653   8.505   9.807  0.8178  1.0706 -0.0063
  382MOL0     C50310   7.525   8.530   9.854  0.3289 -0.2861 -0.1186
  382MOL0     C50311   7.522   8.470   9.980 -0.2155 -0.2854  0.1734
  382MOL0     C50312   7.419   8.477  10.084 -0.3235  0.3897  0.7534
  382MOL0     C50313   7.299   8.564  10.047  0.4345  0.0352  0.1331
  382MOL0     C50314   7.194   8.572  10.166 -0.3720 -0.8354  0.6670
  382MOL0     C50315   7.108   8.454  10.187  0.8160 -0.0247 -0.5018
  382MOL0     O50316   7.024   8.414  10.078 -0.1009 -0.3286 -0.5834
  382MOL0     C50317   6.890   8.412  10.118 -0.2929 -0.2350  0.0331
  382MOL0     C50318   6.831   8.288  10.159  0.2774 -0.8933 -0.0045
  382MOL0     C50319   6.698   8.274  10.194 -0.1308 -0.2147  1.0494
  382MOL0     C50320   6.618   8.387  10.176 -0.4541 -0.3505  0.1983
  382MOL0     C50321   6.475   8.377  10.188  0.8605  0.6499  0.8433
  382MOL0     O50322   6.418   8.259  10.234 -0.0394  0.6109  1.2952
  382MOL0     C50323   6.284   8.279  10.272 -0.2238  0.3632 -0.2010
  382MOL0     C50324   6.249   8.342  10.396 -0.7926 -0.1173 -0.7060
  382MOL0     C50325   6.129   8.332  10.448 -0.1828 -0.5364 -0.2763
  382MOL0     C50326   6.027   8.272  10.365  0.1662 -0.6881 -1.7918
  382MOL0     O50327   5.902   8.257  10.410  0.5399 -0.8291  0.2433
  382MOL0     C50328   5.854   8.302  10.542  0.1398  0.1536  0.5512
  382MOL0     C50329   5.735   8.206  10.574  0.3782  0.2207  0.9765
  382MOL0     C50330   5.770   8.060  10.597  0.1041  0.1743  0.2324
  382MOL0     C50331   5.665   7.949  10.567  0.8120 -0.8382  0.1841
  382MOL0     C50332   5.523   7.988  10.625 -0.2295  0.2577  0.3496
  382MOL0     C50333   5.526   7.991  10.778  1.1603  0.2318 -0.4406
  382MOL0     C50334   5.378   7.992  10.822  0.5920 -0.1318 -0.3610
  382MOL0     C50335   5.374   7.913  10.941  0.7428 -0.5892  0.5981
  382MOL0    Cl50336   5.211   7.938  11.015 -0.2369 -0.4223  0.3705
  382MOL0     C50337   6.054   8.215  10.251  0.1685 -0.3694  0.6285
  382MOL0     C50338   6.182   8.208  10.201 -1.1924 -0.4463  0.0767
  382MOL0     O50339   6.409   8.473  10.153  0.2366  0.3979  0.6981
  382MOL0     C50340   6.672   8.518  10.142 -0.2323 -0.2062 -0.6549
  382MOL0     C50341   6.811   8.532  10.116 -0.4813 -0.3216 -0.5279
  382MOL0     N50342   7.642   8.402   9.992 -0.0815  0.1251 -0.6142
  382MOL0     N50343   7.721   8.430   9.889 -0.3289 -0.2635  0.2254
  382MOL0     C50344   8.576   9.116   9.632  0.3918 -0.0264  0.0859
  382MOL0     C50345   8.705   9.137   9.587 -0.1219 -0.3355 -0.3560
  382MOL0     C50346   9.133   9.088   9.469  0.1267 -0.7233 -0.0111
  382MOL0     C50347   9.225   9.099   9.568 -0.6086 -0.2593  0.4313
  382MOL0     C50348   9.367   9.127   9.543  0.0675  0.4844 -0.8110
  382MOL0     C50349   9.409   9.121   9.408  0.4527  0.3355 -0.7464
  382MOL0     O50350   9.537   9.141   9.359 -0.2187 -0.3253 -0.5970
  382MOL0     C50351   9.650   9.177   9.434 -0.4896 -0.0974 -0.1336
  382MOL0     C50352   9.747   9.051   9.427  0.3502  0.2745  0.8785
  382MOL0     C50353   9.887   9.065   9.498  0.8650  0.7808 -0.7177
  382MOL0     C50354   9.986   9.176   9.448 -0.2294  0.8805 -0.4560
  382MOL0     C50355  10.124   9.160   9.494 -0.1036 -0.1267 -0.5429
  382MOL0     C50356  10.242   9.144   9.529  0.7092  0.0290 -0.5414
  382MOL0     C50357   9.318   9.102   9.308 -0.3723  0.0639  0.3938
  382MOL0     C50358   9.183   9.083   9.338  0.5057 -0.5677 -0.7440
  382MOL0     H50359   8.876   9.105   9.870 -0.3216 -1.7258  0.6779
  382MOL0     H50360   8.646   9.069   9.955 -0.4019  2.8030  0.0887
  382MOL0     H50361   8.308   8.933   9.730 -3.0140 -0.4152 -0.0178
  382MOL0     H50362   8.306   9.099   9.658 -0.4267  0.1166  0.1552
  382MOL0     H50363   8.226   9.210   9.852  0.5195 -0.1361 -0.9250
  382MOL0     H50364   8.211   9.055   9.939  2.0017  3.9654  2.2157
  382MOL0     H50365   8.084   9.086   9.670  2.2946  0.9262  0.4988
  382MOL0     H50366   7.992   9.134   9.821  0.6215 -1.0910  2.0747
  382MOL0     H50367   8.098   8.844   9.752  0.3231 -0.3519  1.4984
  382MOL0     H50368   8.026   8.887   9.897  0.3405 -3.5897 -1.0825
  382MOL0     H50369   7.870   8.937   9.653 -0.4341 -0.2406  0.1881
  382MOL0     H50370   7.812   8.927   9.821 -1.8447 -0.6403 -2.2960
  382MOL0     H50371   7.877   8.680   9.826  2.0290  0.4452  0.2726
  382MOL0     H50372   7.930   8.680   9.661  2.8676 -4.0349  2.9337
  382MOL0     H50373   7.639   8.739   9.720  1.3049  1.2174 -0.0322
  382MOL0     H50374   7.726   8.727   9.571 -1.8649  0.8397  0.7442
  382MOL0     H50375   7.796   8.485   9.665 -0.5029 -0.6737 -0.8434
  382MOL0     H50376   7.628   8.519   9.592  1.5870  2.9503 -2.3268
  382MOL0     H50377   7.444   8.584   9.806  2.0536  1.6123 -1.0626
  382MOL0     H50378   7.462   8.521  10.174  1.6513 -0.4186  0.2551
  382MOL0     H50379   7.390   8.372  10.095 -0.9150  0.4593 -0.0399
  382MOL0     H50380   7.238   8.539   9.960 -1.1755  0.5939  1.0592
  382MOL0     H50381   7.330   8.667  10.026  1.6160 -0.0054  1.5077
  382MOL0     H50382   7.245   8.594  10.260  1.0471 -1.1082 -0.0171
  382MOL0     H50383   7.129   8.660  10.168  2.7663  1.6258  1.9320
  382MOL0     H50384   7.051   8.482  10.276  3.5019  0.6703  1.1273
  382MOL0     H50385   7.171   8.369  10.214  1.2430 -0.0796 -1.6115
  382MOL0     H50386   6.904   8.208  10.169 -0.6740 -1.6518  1.1519
  382MOL0     H50387   6.659   8.173  10.205  0.2381 -0.5245 -0.3796
  382MOL0     H50388   6.332   8.378  10.456 -0.2544 -1.4072 -0.6417
  382MOL0     H50389   6.114   8.380  10.545 -1.5822  2.6313 -1.9269
  382MOL0     H50390   5.831   8.409  10.536  3.4047  0.8678 -1.6622
  382MOL0     H50391   5.932   8.280  10.615  1.2059 -0.5690 -0.7647
  382MOL0     H50392   5.673   8.213  10.484  0.3491 -2.6907  0.6790
  382MOL0     H50393   5.672   8.232  10.659 -0.9028  0.2581  0.0511
  382MOL0     H50394   5.799   8.062  10.702 -1.0021  4.5019  0.6430
  382MOL0     H50395   5.861   8.046  10.538  1.2565  0.3899  1.9105
  382MOL0     H50396   5.646   7.922  10.463  1.4497 -3.0571  0.5977
  382MOL0     H50397   5.705   7.856  10.608 -1.0349 -2.2633 -1.0709
  382MOL0     H50398   5.461   7.910  10.580 -0.5925  2.4579 -3.3356
  382MOL0     H50399   5.475   8.082  10.596 -1.8788 -0.9174 -0.9185
  382MOL0     H50400   5.576   8.080  10.815  0.8466  0.8341 -1.4399
  382MOL0     H50401   5.580   7.900  10.805  0.1595 -0.7725 -1.6765
  382MOL0     H50402   5.348   8.094  10.846 -0.7822 -0.5089 -0.3817
  382MOL0     H50403   5.316   7.948  10.743 -0.2618 -0.7872  0.6499
  382MOL0     H50404   5.450   7.951  11.011  0.1027 -1.2952  1.7117
  382MOL0     H50405   5.378   7.807  10.917 -1.7699 -0.5946 -0.0593
  382MOL0     H50406   5.982   8.163  10.188  2.2694 -1.1182 -1.3059
  382MOL0     H50407   6.207   8.157  10.108 -1.7863 -1.7845  0.6191
  382MOL0     H50408   6.611   8.605  10.164  1.3197  2.1054 -4.5268
  382MOL0     H50409   6.861   8.626  10.093  1.0403 -1.2775 -1.3298
  382MOL0     H50410   8.493   9.132   9.564 -0.8870  2.0685  1.9856
  382MOL0     H50411   8.725   9.154   9.482 -0.7255  1.1840 -0.2651
  382MOL0     H50412   9.188   9.077   9.668  1.1952 -0.4974  1.0931
  382MOL0     H50413   9.445   9.143   9.617 -0.0114 -0.5455 -0.4892
  382MOL0     H50414   9.636   9.202   9.540 -0.4863 -0.3783 -0.0656
  382MOL0     H50415   9.703   9.265   9.396  0.3157 -1.5486 -2.6258
  382MOL0     H50416   9.697   8.965   9.472 -1.6394  0.7988 -0.1886
  382MOL0     H50417   9.766   9.020   9.324 -0.1407 -0.7336  1.0841
  382MOL0     H50418   9.942   8.975   9.471  1.6875 -0.0698  3.2322
  382MOL0     H50419   9.878   9.075   9.607  3.6279  2.5048 -0.5446
  382MOL0     H50420   9.985   9.162   9.339 -1.9683 -2.3385 -0.1542
  382MOL0     H50421   9.950   9.272   9.485 -0.7409  0.9738 -1.1645
  382MOL0     H50422  10.334   9.130   9.582 -0.6411 -0.7843  1.7229
  382MOL0     H50423   9.356   9.095   9.207  0.2616 -1.2430  0.6968
  382MOL0     H50424   9.108   9.075   9.260  0.1341  0.1443 -0.4647
  383MOL0     O50425   6.598   5.677   9.758  0.2578  0.4512 -0.0061
  383MOL0     C50426   6.705   5.665   9.814  0.5714 -0.1936  0.2074
  383MOL0     O50427   6.732   5.571   9.909  0.0852  0.0447 -0.1840
  383MOL0     C50428   6.636   5.487   9.965 -0.1468 -0.0071  0.3924
  383MOL0     C50429   6.670   5.352   9.975 -0.5988 -0.0535  0.4931
  383MOL0     C50430   6.579   5.269  10.050 -0.5347 -0.1673  0.0651
  383MOL0     C50431   6.453   5.308  10.085  0.7087 -1.0376 -0.1226
  383MOL0     O50432   6.361   5.222  10.146 -0.1827 -0.3034  0.2754
  383MOL0     C50433   6.247   5.279  10.210  0.2741 -0.4866  0.3285
  383MOL0     C50434   6.168   5.166  10.274 -0.0795  0.3603  0.0791
  383MOL0     C50435   6.018   5.204  10.277 -0.5854 -0.5500  1.1970
  383MOL0     C50436   5.935   5.137  10.388 -0.0760 -0.3553  0.3338
  383MOL0     C50437   5.791   5.180  10.397  0.7859  0.3492 -0.3803
  383MOL0     C50438   5.715   5.146  10.276 -0.4239  0.1618  0.7322
  383MOL0     C50439   5.568   5.164  10.310  0.8521  0.2490  0.2916
  383MOL0     C50440   5.490   5.146  10.176 -0.4066  0.0849 -0.5830
  383MOL0     N50441   5.365   5.220  10.183  0.4495  1.1693  0.9637
  383MOL0     C50442   5.264   5.224  10.279 -0.4596 -0.0411  0.3275
  383MOL0     C50443   5.192   5.332  10.254  0.0352  1.2653 -0.1752
  383MOL0     C50444   5.076   5.373  10.342 -1.1211 -0.1567 -0.3799
  383MOL0     C50445   4.948   5.329  10.284 -0.2755  0.4547 -0.5318
  383MOL0     C50446   4.837   5.431  10.316 -1.2718  0.2124  0.1137
  383MOL0     C50447   4.717   5.365  10.386  0.0258  0.1145 -0.6508
  383MOL0     O50448   4.622   5.470  10.406 -0.0905  0.1084 -0.4819
  383MOL0     C50449   4.503   5.457  10.464  0.4179  0.3432  0.4211
  383MOL0     C50450   4.411   5.557  10.437 -0.4857  0.0782  0.6120
  383MOL0     C50451   4.279   5.537  10.488  0.7280 -0.2466 -0.7136
  383MOL0     C50452   4.246   5.426  10.567 -0.1501 -0.4406  0.0940
  383MOL0     C50453   4.122   5.403  10.632 -0.0248 -0.2688  0.4095
  383MOL0     O50454   4.029   5.495  10.623 -0.0806 -0.0596  0.0510
  383MOL0     C50455   3.894   5.483  10.666 -0.2239  0.7945 -0.2419
  383MOL0     C50456   3.805   5.558  10.591 -0.1515 -0.6087  0.1614
  383MOL0     C50457   3.671   5.568  10.630  0.5125 -1.2462 -0.1349
  383MOL0     C50458   3.616   5.492  10.739 -0.1224  1.1973  1.2546
  383MOL0     O50459   3.489   5.492  10.783 -0.1886  0.5186 -0.6097
  383MOL0     C50460   3.387   5.513  10.677 -0.7746  0.2040  0.0050
  383MOL0     C50461   3.244   5.531  10.731 -0.7024  0.0869 -0.7211
  383MOL0     C50462   3.231   5.662  10.806 -0.6304 -0.7791 -0.1811
  383MOL0     C50463   3.090   5.684  10.851  0.7146 -0.4840 -0.0082
  383MOL0     C50464   3.064   5.813  10.937 -0.1983  0.2787  0.3337
  383MOL0     C50465   2.917   5.817  10.985 -0.0621 -0.6485  0.0756
  383MOL0     C50466   2.868   5.934  11.065  0.3735  0.4712  0.3006
  383MOL0     C50467   2.911   5.919  11.208  0.5367 -0.6780  0.0777
  383MOL0    Cl50468   2.809   5.805  11.312 -0.0460 -0.0702  0.1777
  383MOL0     C50469   3.705   5.402  10.806 -0.2472 -0.9947 -0.0352
  383MOL0     C50470   3.844   5.406  10.775 -0.7077  0.0298  0.5275
  383MOL0     O50471   4.099   5.291  10.677  0.3735  0.0887  0.2146
  383MOL0     C50472   4.344   5.332  10.588  0.0500 -0.0016  0.3283
  383MOL0     C50473   4.471   5.346  10.548 -0.2628  0.1345  0.4889
  383MOL0     N50474   5.240   5.402  10.144 -0.1460  0.2348 -0.1785
  383MOL0     N50475   5.336   5.322  10.094  0.3881  0.7932 -0.9397
  383MOL0     C50476   6.423   5.443  10.056  0.6578  0.2149 -0.6179
  383MOL0     C50477   6.515   5.537  10.007  0.2600  0.0833  0.1447
  383MOL0     C50478   6.815   5.742   9.759  0.4812  0.2324 -0.8041
  383MOL0     C50479   6.806   5.784   9.624  0.7718 -0.1988  0.5912
  383MOL0     C50480   6.919   5.839   9.561  0.8941 -0.6603 -0.0176
  383MOL0     C50481   7.035   5.860   9.633  0.3632  0.4684 -0.5468
  383MOL0     O50482   7.148   5.917   9.577 -0.6027 -0.3053  0.5712
  383MOL0     C50483   7.276   5.949   9.639 -0.5694  0.1570  0.0126
  383MOL0     C50484   7.378   5.995   9.529  0.7385  0.3626  0.7370
  383MOL0     C50485   7.517   6.045   9.573  0.0736  0.5800  0.0161
  383MOL0     C50486   7.601   6.078   9.445 -0.4079 -0.9436 -0.1863
  383MOL0     C50487   7.699   6.181   9.477 -0.1954  0.4372  0.0707
  383MOL0     C50488   7.779   6.263   9.489  0.1103  0.1861 -0.2749
  383MOL0     C50489   7.043   5.821   9.768 -0.4595 -0.0436  0.0935
  383MOL0     C50490   6.936   5.761   9.827  0.2005 -0.3485  0.5381
  383MOL0     H50491   6.762   5.304   9.945 -1.3437 -1.5712  0.4896
  383MOL0     H50492   6.601   5.164  10.062 -0.4219 -0.1864 -0.2998
  383MOL0     H50493   6.187   5.323  10.130  1.7010 -0.9292 -1.0574
  383MOL0     H50494   6.277   5.350  10.288  3.1118  0.6622 -1.6053
  383MOL0     H50495   6.217   5.166  10.372  1.1827  0.0945 -0.5338
  383MOL0     H50496   6.189   5.073  10.222 -0.9129 -0.8908  1.8646
  383MOL0     H50497   5.990   5.169  10.177  0.4975  0.1523  0.6330
  383MOL0     H50498   6.000   5.312  10.272 -1.8641 -0.7891 -3.2469
  383MOL0     H50499   5.930   5.029  10.372  0.5488 -0.2420 -0.7230
  383MOL0     H50500   5.987   5.154  10.482  1.6433  0.0317 -0.6419
  383MOL0     H50501   5.785   5.288  10.417  0.0088  0.7621 -2.6200
  383MOL0     H50502   5.747   5.126  10.482 -1.0759 -0.5020 -1.8196
  383MOL0     H50503   5.728   5.047  10.232 -0.7359 -0.5820  2.2461
  383MOL0     H50504   5.749   5.215  10.198  0.6312 -0.6193  0.4826
  383MOL0     H50505   5.533   5.091  10.383  1.5663  0.8258  1.2389
  383MOL0     H50506   5.553   5.268  10.342 -2.7973 -0.2878  0.6775
  383MOL0     H50507   5.492   5.046  10.131  4.5482  1.1216 -3.4459
  383MOL0     H50508   5.551   5.206  10.107 -1.0709  1.2960 -0.1448
  383MOL0     H50509   5.251   5.161  10.367 -1.9809  1.1848  1.0255
  383MOL0     H50510   5.079   5.481  10.362 -2.7539 -0.3352  1.1508
  383MOL0     H50511   5.101   5.329  10.439  1.5914  2.0052  0.0127
  383MOL0     H50512   4.932   5.227  10.322  1.7604  0.8939  1.7463
  383MOL0     H50513   4.958   5.328  10.175  1.4885  1.5501 -0.4150
  383MOL0     H50514   4.882   5.517  10.367 -2.1334  0.9495 -0.3506
  383MOL0     H50515   4.802   5.471  10.220 -1.9948 -1.5272 -0.3788
  383MOL0     H50516   4.737   5.325  10.485  0.2371  1.9455  0.0895
  383MOL0     H50517   4.672   5.283  10.329 -0.3371 -0.8554  0.9621
  383MOL0     H50518   4.442   5.641  10.376 -0.0623 -0.6020 -0.1310
  383MOL0     H50519   4.213   5.622  10.473 -0.9610 -1.5726 -1.1442
  383MOL0     H50520   3.839   5.607  10.500 -5.4921  2.7075 -0.4480
  383MOL0     H50521   3.611   5.632  10.566 -1.6903 -1.0968  1.9338
  383MOL0     H50522   3.378   5.434  10.601  0.0309  0.9589 -0.8960
  383MOL0     H50523   3.415   5.600  10.617 -1.1439  2.5376  3.0292
  383MOL0     H50524   3.225   5.445  10.796 -3.4534  1.2485  0.1544
  383MOL0     H50525   3.166   5.526  10.655 -1.0930 -3.9958 -0.3064
  383MOL0     H50526   3.249   5.753  10.749 -0.0381 -1.2536 -0.7676
  383MOL0     H50527   3.306   5.666  10.887  0.6575  0.6886 -1.3686
  383MOL0     H50528   3.027   5.702  10.763  0.9409  1.4407  0.1821
  383MOL0     H50529   3.047   5.593  10.892 -1.9444  0.1569 -1.1246
  383MOL0     H50530   3.096   5.911  10.899 -0.9375  0.5886  0.4904
  383MOL0     H50531   3.115   5.799  11.033 -0.6797  1.9062  0.8595
  383MOL0     H50532   2.880   5.732  11.043  0.8001  0.8417  3.0173
  383MOL0     H50533   2.861   5.817  10.891  1.3270  0.2764 -0.8015
  383MOL0     H50534   2.898   6.035  11.033  2.1821  0.1309  0.7692
  383MOL0     H50535   2.760   5.919  11.072  0.8783 -5.9201 -0.1450
  383MOL0     H50536   2.900   6.017  11.255  0.9365 -0.1663 -0.8703
  383MOL0     H50537   3.014   5.884  11.215  0.7002 -0.4521 -0.9204
  383MOL0     H50538   3.673   5.340  10.889  0.9487 -2.2007 -0.4367
  383MOL0     H50539   3.918   5.353  10.834 -1.0128 -0.5881  0.3707
  383MOL0     H50540   4.312   5.247  10.648 -4.0472  0.2944 -1.1142
  383MOL0     H50541   4.551   5.282  10.584 -0.0128 -0.6004 -1.2867
  383MOL0     H50542   6.326   5.488  10.077  0.8514 -0.5795  2.4696
  383MOL0     H50543   6.499   5.642   9.987 -2.0291 -0.0819  0.7649
  383MOL0     H50544   6.715   5.779   9.565 -0.8974 -0.5733  3.0533
  383MOL0     H50545   6.907   5.871   9.458 -0.1915 -1.0443 -0.0209
  383MOL0     H50546   7.315   5.867   9.700  1.4607 -0.0249 -1.4097
  383MOL0     H50547   7.265   6.034   9.707  4.1802 -0.5698  2.0679
  383MOL0     H50548   7.383   5.911   9.460 -0.9626 -0.0625  1.0750
  383MOL0     H50549   7.325   6.074   9.475 -0.6623 -0.5198  0.7627
  383MOL0     H50550   7.571   5.968   9.629 -0.1384 -3.2634 -4.4475
  383MOL0     H50551   7.513   6.130   9.642  0.2192 -1.2183  2.3559
  383MOL0     H50552   7.653   5.990   9.407 -1.4462 -0.8083 -2.0718
  383MOL0     H50553   7.538   6.098   9.358 -0.1141  2.7127  0.2734
  383MOL0     H50554   7.843   6.343   9.521 -0.3783  0.3693  0.2513
  383MOL0     H50555   7.138   5.835   9.818  0.3347  1.0939 -1.6269
  383MOL0     H50556   6.946   5.743   9.933  2.2228  0.1687  0.4803
  384MOL0     O50557   7.718   8.307   1.154 -0.0962  0.2486  0.4236
  384MOL0     C50558   7.830   8.273   1.118 -0.8105 -0.3184  0.4305
  384MOL0     O50559   7.858   8.214   0.995 -0.0577  0.1251  0.7702
  384MOL0     C50560   7.763   8.191   0.902  1.1378  0.4339 -0.5075
  384MOL0     C50561   7.688   8.307   0.852 -0.2835  0.8265 -0.0508
  384MOL0     C50562   7.587   8.290   0.761 -0.7623  0.6427 -0.7224
  384MOL0     C50563   7.552   8.159   0.721 -0.9554  0.6906  0.4736
  384MOL0     O50564   7.462   8.130   0.623 -0.1564  0.8329 -0.4887
  384MOL0     C50565   7.342   8.209   0.617 -0.2675 -0.5046 -1.0157
  384MOL0     C50566   7.251   8.137   0.525  0.2518 -0.6413  0.4740
  384MOL0     C50567   7.290   8.145   0.375  0.0389  0.4168 -0.3559
  384MOL0     C50568   7.282   8.285   0.306  0.1091  0.0483 -0.2178
  384MOL0     C50569   7.355   8.258   0.164  0.1164 -0.1611 -0.3058
  384MOL0     C50570   7.277   8.186   0.057  0.1046 -0.0104  0.7336
  384MOL0     C50571   7.135   8.238   0.028  0.1903  1.0005  0.2990
  384MOL0     C50572   7.113   8.392  -0.013 -1.1901  0.7445 -1.0558
  384MOL0     N50573   6.975   8.413  -0.049 -0.0003  0.0388 -0.0434
  384MOL0     C50574   6.924   8.399  -0.167  0.1863 -0.3025 -0.1580
  384MOL0     C50575   6.790   8.376  -0.134 -0.8418 -0.4383 -1.2413
  384MOL0     C50576   6.708   8.341  -0.255 -0.6348  0.7056 -0.1709
  384MOL0     C50577   6.570   8.307  -0.217 -0.7778  0.3956 -0.2750
  384MOL0     C50578   6.482   8.315  -0.341  0.1176 -0.1356 -0.4809
  384MOL0     C50579   6.338   8.263  -0.324 -0.3532  0.1564 -0.6816
  384MOL0     O50580   6.265   8.367  -0.262  0.1090  0.0095  0.9313
  384MOL0     C50581   6.132   8.357  -0.225 -0.1903  0.1969  0.2963
  384MOL0     C50582   6.086   8.438  -0.123  0.0709  0.2418 -0.3314
  384MOL0     C50583   5.953   8.428  -0.072  0.1237 -0.1559  0.1929
  384MOL0     C50584   5.860   8.336  -0.136 -1.9385 -0.3353 -0.0753
  384MOL0     C50585   5.728   8.316  -0.081 -0.1351  0.2753  0.2952
  384MOL0     O50586   5.644   8.232  -0.150 -0.2152 -0.5227  0.2942
  384MOL0     C50587   5.513   8.247  -0.120  0.7865  0.1984 -0.2393
  384MOL0     C50588   5.456   8.217   0.008 -0.1132 -0.3488 -0.3974
  384MOL0     C50589   5.328   8.231   0.043 -0.2036  0.1380 -0.1527
  384MOL0     C50590   5.237   8.261  -0.065 -0.2564 -0.1026 -0.1427
  384MOL0     O50591   5.099   8.254  -0.056  0.0241  0.2720  0.1492
  384MOL0     C50592   5.055   8.155   0.031 -0.1600 -0.9744  0.2317
  384MOL0     C50593   4.916   8.118  -0.017 -0.0009 -0.6514  0.0537
  384MOL0     C50594   4.849   8.013   0.074  0.9165  0.3390  0.6596
  384MOL0     C50595   4.696   8.020   0.078  0.0682 -0.1852 -0.0365
  384MOL0     C50596   4.629   7.897   0.151 -0.3539  0.2186 -0.9938
  384MOL0     C50597   4.483   7.886   0.120 -0.6043 -0.0355 -0.2953
  384MOL0     C50598   4.418   7.798   0.218 -0.5762  0.4639  0.0288
  384MOL0     C50599   4.262   7.797   0.185 -0.4416  0.2683  0.3290
  384MOL0    Cl50600   4.202   7.967   0.194 -0.0747  0.0189  0.5009
  384MOL0     C50601   5.285   8.292  -0.189 -0.4393  0.8526 -0.2737
  384MOL0     C50602   5.419   8.280  -0.219 -0.1744  0.1512  0.2249
  384MOL0     O50603   5.711   8.368   0.027  0.1767  0.4938 -0.0156
  384MOL0     C50604   5.901   8.260  -0.248  0.8660 -0.1472  0.2078
  384MOL0     C50605   6.037   8.276  -0.285  0.1128  0.6514 -0.2290
  384MOL0     N50606   6.762   8.404   0.000 -0.1519  0.0827  0.2153
  384MOL0     N50607   6.878   8.419   0.046 -0.2558  0.6783 -0.0505
  384MOL0     C50608   7.628   8.050   0.768 -0.2092  0.3088 -0.3225
  384MOL0     C50609   7.741   8.059   0.855  0.5612  0.4958  0.0181
  384MOL0     C50610   7.946   8.283   1.213 -1.0049  0.5349 -0.1015
  384MOL0     C50611   7.924   8.310   1.349 -0.1161 -0.1749  0.7686
  384MOL0     C50612   8.042   8.322   1.433 -0.1995  0.8518  0.1248
  384MOL0     C50613   8.176   8.301   1.386  0.3039 -0.4199  0.2952
  384MOL0     O50614   8.280   8.312   1.486  0.0690  0.3611 -0.1618
  384MOL0     C50615   8.407   8.262   1.454  0.2755 -0.6921  0.5637
  384MOL0     C50616   8.492   8.266   1.588 -0.2166 -0.4033  0.3952
  384MOL0     C50617   8.533   8.410   1.618  0.5692  0.1424  0.2307
  384MOL0     C50618   8.569   8.441   1.760  0.1106  0.9224 -0.2600
  384MOL0     C50619   8.703   8.396   1.796 -0.5120 -0.6023  0.6565
  384MOL0     C50620   8.817   8.350   1.823  0.7191 -0.2284  0.2163
  384MOL0     C50621   8.189   8.280   1.249  0.3323  0.1829  0.3665
  384MOL0     C50622   8.079   8.276   1.156 -0.2226 -1.2567  0.6031
  384MOL0     H50623   7.707   8.406   0.894 -1.6841  1.0151  0.1886
  384MOL0     H50624   7.538   8.372   0.710 -0.5933  0.1297 -1.7411
  384MOL0     H50625   7.372   8.307   0.582  0.0026 -0.3356 -0.3398
  384MOL0     H50626   7.298   8.207   0.717 -0.8415  0.0175 -1.2562
  384MOL0     H50627   7.152   8.184   0.526  0.4845 -0.1343  0.2184
  384MOL0     H50628   7.235   8.035   0.560 -0.9841  0.0225  1.9818
  384MOL0     H50629   7.208   8.082   0.337 -0.3606  0.8295 -0.1858
  384MOL0     H50630   7.388   8.097   0.376  0.2132  0.7810  0.3334
  384MOL0     H50631   7.177   8.313   0.297 -0.1454 -1.4691 -3.3384
  384MOL0     H50632   7.335   8.357   0.368  1.2677 -1.7936  1.0215
  384MOL0     H50633   7.448   8.208   0.193  0.4496  0.5828 -0.0718
  384MOL0     H50634   7.387   8.351   0.119 -1.5444  0.6703  0.1294
  384MOL0     H50635   7.265   8.083   0.093 -0.0004 -0.3817 -0.3142
  384MOL0     H50636   7.351   8.186  -0.023 -0.6010  1.1968  0.0452
  384MOL0     H50637   7.095   8.170  -0.048  1.4272 -2.6421  2.6062
  384MOL0     H50638   7.069   8.208   0.110 -1.6351 -0.2123 -1.5359
  384MOL0     H50639   7.172   8.412  -0.103 -0.3887  3.0944 -0.0786
  384MOL0     H50640   7.139   8.460   0.067  3.1115  0.7018 -2.2052
  384MOL0     H50641   6.977   8.413  -0.260 -0.4097  1.8326 -0.2408
  384MOL0     H50642   6.735   8.241  -0.290 -3.3657 -0.0457 -0.3141
  384MOL0     H50643   6.715   8.415  -0.336 -2.0978  0.3592 -0.6305
  384MOL0     H50644   6.524   8.381  -0.151 -1.0048  1.7983 -1.9259
  384MOL0     H50645   6.569   8.211  -0.165  1.7468  1.1683  1.3910
  384MOL0     H50646   6.484   8.421  -0.369  1.2871  0.7646  2.5314
  384MOL0     H50647   6.522   8.263  -0.427  1.5929  0.7888 -0.3789
  384MOL0     H50648   6.345   8.174  -0.260  1.0969 -1.1100 -2.4860
  384MOL0     H50649   6.289   8.237  -0.419 -3.7909 -1.8320  1.4035
  384MOL0     H50650   6.154   8.518  -0.096 -1.4908  1.2231  0.9148
  384MOL0     H50651   5.932   8.492   0.013  1.3570 -1.9056  1.8986
  384MOL0     H50652   5.522   8.177   0.084  0.8152  3.4844  1.0402
  384MOL0     H50653   5.287   8.213   0.142  0.2971 -0.5774 -0.0762
  384MOL0     H50654   5.060   8.187   0.135 -0.2573  1.0437 -0.3453
  384MOL0     H50655   5.115   8.065   0.015 -0.4669 -0.9355 -1.3536
  384MOL0     H50656   4.915   8.069  -0.115  0.1182  0.7597 -0.6842
  384MOL0     H50657   4.862   8.213  -0.026  0.5945 -0.2095  1.0028
  384MOL0     H50658   4.887   8.032   0.174  3.4575  1.1311 -0.3794
  384MOL0     H50659   4.872   7.914   0.032 -0.9315 -0.5196  1.5386
  384MOL0     H50660   4.669   8.111   0.132 -1.9396  0.3277 -1.7679
  384MOL0     H50661   4.649   8.030  -0.020 -1.5985  0.4779  0.8018
  384MOL0     H50662   4.635   7.904   0.260 -0.8610  1.6264 -1.0302
  384MOL0     H50663   4.672   7.806   0.110  1.8859  0.9203 -0.3241
  384MOL0     H50664   4.463   7.849   0.019 -1.1254  1.3652 -0.7331
  384MOL0     H50665   4.436   7.985   0.115 -1.4356 -0.4443 -0.8963
  384MOL0     H50666   4.459   7.697   0.222 -2.7051 -0.5484 -1.6486
  384MOL0     H50667   4.431   7.839   0.318  2.0843 -0.5858  0.1842
  384MOL0     H50668   4.215   7.736   0.262 -2.5210  4.4176  2.7171
  384MOL0     H50669   4.242   7.749   0.089 -2.1618  0.1583  0.7199
  384MOL0     H50670   5.218   8.314  -0.271 -0.6372  1.9197  0.1563
  384MOL0     H50671   5.462   8.313  -0.313  0.6716 -1.3766  0.0333
  384MOL0     H50672   5.837   8.199  -0.311  0.9929  0.3592 -0.4213
  384MOL0     H50673   6.071   8.220  -0.371  0.9986  1.9641 -0.7640
  384MOL0     H50674   7.601   7.954   0.725 -1.8185  0.3532  0.5039
  384MOL0     H50675   7.798   7.980   0.902  0.2036 -0.0576 -0.4782
  384MOL0     H50676   7.824   8.309   1.391 -0.0237  0.2833  1.0046
  384MOL0     H50677   8.033   8.340   1.540 -0.8937  0.3363  0.1555
  384MOL0     H50678   8.443   8.335   1.382 -1.2725 -0.0446  0.3977
  384MOL0     H50679   8.393   8.162   1.411 -0.6311 -0.1989 -0.3469
  384MOL0     H50680   8.430   8.226   1.669 -1.0592  0.8975  0.4167
  384MOL0     H50681   8.584   8.208   1.575  1.0363  1.7250 -0.8579
  384MOL0     H50682   8.450   8.479   1.597 -0.5689  0.1476  3.9531
  384MOL0     H50683   8.623   8.429   1.559 -0.0983 -1.2249 -1.3055
  384MOL0     H50684   8.540   8.546   1.774 -0.9170  0.6079  0.0701
  384MOL0     H50685   8.499   8.394   1.829  0.2791  1.4780  0.3004
  384MOL0     H50686   8.915   8.314   1.845  1.5664  1.4353 -0.6505
  384MOL0     H50687   8.290   8.275   1.209 -0.7957  0.6998 -2.8462
  384MOL0     H50688   8.093   8.265   1.049  1.5641  4.2553 -0.0110
  385MOL0     O50689   8.668   7.726   9.366  1.3810 -0.6315  0.2089
  385MOL0     C50690   8.660   7.623   9.300 -0.3842 -0.1141  0.3954
  385MOL0     O50691   8.558   7.580   9.214  0.4887 -0.5481  0.9891
  385MOL0     C50692   8.441   7.649   9.204 -0.2432  0.2917 -0.4268
  385MOL0     C50693   8.344   7.638   9.308  0.3210  0.4123  0.3256
  385MOL0     C50694   8.232   7.713   9.302 -0.0560 -1.4277  0.4213
  385MOL0     C50695   8.207   7.786   9.185 -0.5844  0.0584  0.1123
  385MOL0     O50696   8.096   7.858   9.151 -0.3449  0.2520  0.6872
  385MOL0     C50697   8.022   7.912   9.260  0.4113  0.1990 -0.5644
  385MOL0     C50698   7.901   7.982   9.209  0.4835 -0.1985  0.4572
  385MOL0     C50699   7.796   7.886   9.162 -0.3731 -1.0058  0.4309
  385MOL0     C50700   7.674   7.965   9.139  0.4142  0.1853  0.4083
  385MOL0     C50701   7.555   7.892   9.065 -0.3407 -0.1937  0.2896
  385MOL0     C50702   7.512   7.776   9.149  0.2923  0.1499 -0.2689
  385MOL0     C50703   7.358   7.745   9.111 -0.2632 -0.3496 -0.0919
  385MOL0     C50704   7.353   7.662   8.975 -0.0661  0.3748 -0.3344
  385MOL0     N50705   7.217   7.635   8.947 -0.0789 -0.5263  0.0265
  385MOL0     C50706   7.129   7.557   9.007 -0.0507  0.2220 -1.0935
  385MOL0     C50707   7.022   7.537   8.925 -0.7008  0.0331 -0.7670
  385MOL0     C50708   6.912   7.439   8.948  0.5273 -0.5702  0.0118
  385MOL0     C50709   6.779   7.494   8.899  0.5802  0.2634  1.0588
  385MOL0     C50710   6.663   7.406   8.954 -0.0435  0.0697  0.4131
  385MOL0     C50711   6.526   7.454   8.891  0.0102  0.2859 -0.4412
  385MOL0     O50712   6.412   7.399   8.970 -0.0388 -0.2175  0.3051
  385MOL0     C50713   6.287   7.391   8.908 -0.2633  0.0049 -0.6004
  385MOL0     C50714   6.255   7.427   8.781  0.8767 -0.0812  0.2233
  385MOL0     C50715   6.123   7.402   8.738 -0.2810 -0.5163 -0.2313
  385MOL0     C50716   6.021   7.334   8.817 -1.5550  0.6201  0.3392
  385MOL0     C50717   5.881   7.323   8.771  0.6416  0.0891  0.1714
  385MOL0     O50718   5.785   7.297   8.868 -0.3310 -0.1582 -0.2496
  385MOL0     C50719   5.654   7.280   8.843  0.0928 -0.1873  0.1398
  385MOL0     C50720   5.559   7.323   8.932 -1.3917 -0.3971  0.3264
  385MOL0     C50721   5.422   7.297   8.911  0.0222 -0.7216 -1.2857
  385MOL0     C50722   5.381   7.216   8.810 -0.0479 -0.2356 -0.0081
  385MOL0     O50723   5.246   7.186   8.805 -0.5949 -0.4077  0.6851
  385MOL0     C50724   5.208   7.060   8.750  0.4211  0.5625  0.3798
  385MOL0     C50725   5.058   7.066   8.738  0.4353  0.0907 -0.5051
  385MOL0     C50726   5.017   6.935   8.679 -0.7010 -0.6150  0.2028
  385MOL0     C50727   4.865   6.944   8.660 -0.2628  0.1070  0.2628
  385MOL0     C50728   4.822   6.817   8.582  0.1874  0.2704 -0.2608
  385MOL0     C50729   4.670   6.821   8.553  0.0306  0.5778 -0.7952
  385MOL0     C50730   4.587   6.789   8.672  1.0433  0.8602 -0.4657
  385MOL0     C50731   4.436   6.798   8.643  0.3167  0.1028 -0.1296
  385MOL0    Cl50732   4.388   6.644   8.565  0.4371 -0.3793  0.1836
  385MOL0     C50733   5.480   7.163   8.721 -0.5973  0.0766  0.4625
  385MOL0     C50734   5.614   7.195   8.739 -0.0257 -0.5645 -0.8901
  385MOL0     O50735   5.858   7.321   8.647 -0.1327 -0.2243  0.4877
  385MOL0     C50736   6.062   7.294   8.948  0.1862 -0.5230 -0.1404
  385MOL0     C50737   6.193   7.319   8.987  0.0175  0.6971  0.6206
  385MOL0     N50738   7.050   7.611   8.811 -0.7994 -0.1012 -0.3260
  385MOL0     N50739   7.163   7.676   8.827 -0.5425 -0.0620 -0.1475
  385MOL0     C50740   8.308   7.801   9.087 -0.1704 -0.0406 -0.2167
  385MOL0     C50741   8.428   7.736   9.101  0.0306  0.3315  0.5038
  385MOL0     C50742   8.776   7.540   9.298  0.4805 -0.0615 -1.0599
  385MOL0     C50743   8.809   7.456   9.184 -0.5564  0.1755 -0.1160
  385MOL0     C50744   8.922   7.367   9.189  0.1967  1.2948  0.6972
  385MOL0     C50745   9.004   7.358   9.310  0.0313 -0.8364  1.3047
  385MOL0     O50746   9.113   7.280   9.328 -0.5418 -0.0057  0.2196
  385MOL0     C50747   9.171   7.207   9.217 -0.0498 -0.1264  0.6694
  385MOL0     C50748   9.307   7.149   9.259  0.2870 -0.9166 -0.1999
  385MOL0     C50749   9.380   7.114   9.133  0.7114  0.6081 -0.8307
  385MOL0     C50750   9.517   7.048   9.151  0.3757  0.0728  0.2749
  385MOL0     C50751   9.617   7.147   9.201 -0.2141  0.0442 -0.4597
  385MOL0     C50752   9.714   7.217   9.237  0.3883 -0.6536  0.7770
  385MOL0     C50753   8.970   7.447   9.413  0.4222  0.2456 -0.0098
  385MOL0     C50754   8.867   7.545   9.407 -0.1107 -0.2840  0.3127
  385MOL0     H50755   8.364   7.567   9.388 -0.8943  0.5713  0.8029
  385MOL0     H50756   8.164   7.714   9.387 -1.4306  3.4740 -0.4257
  385MOL0     H50757   8.079   7.987   9.316 -2.1181 -0.1383  2.8119
  385MOL0     H50758   7.995   7.846   9.343  1.8470 -1.1684 -1.1547
  385MOL0     H50759   7.934   8.061   9.141 -0.0684  1.6381  2.2324
  385MOL0     H50760   7.857   8.039   9.291 -1.0026  0.3227 -0.6514
  385MOL0     H50761   7.773   7.811   9.238 -1.9283 -2.0317 -0.9766
  385MOL0     H50762   7.817   7.824   9.074 -4.2793 -4.5159  1.6311
  385MOL0     H50763   7.628   7.986   9.237 -2.3446  1.5779 -1.0698
  385MOL0     H50764   7.693   8.060   9.088  0.2424  0.4524  0.8309
  385MOL0     H50765   7.590   7.876   8.962  0.9894  2.4005  0.2561
  385MOL0     H50766   7.475   7.965   9.056  0.6956  1.2509  2.1886
  385MOL0     H50767   7.518   7.809   9.253  5.3953 -0.0466 -0.2850
  385MOL0     H50768   7.580   7.693   9.131 -0.6738 -0.9971  1.1342
  385MOL0     H50769   7.311   7.702   9.200 -1.2682  4.2685  1.8829
  385MOL0     H50770   7.307   7.842   9.109 -2.3385 -1.1388  3.7688
  385MOL0     H50771   7.413   7.571   8.986  3.4581  2.6041  0.7878
  385MOL0     H50772   7.395   7.722   8.895  1.9488  1.5531  1.4959
  385MOL0     H50773   7.131   7.518   9.109 -0.1463  1.8738 -0.4264
  385MOL0     H50774   6.899   7.421   9.055  0.1879  0.3409  0.1297
  385MOL0     H50775   6.922   7.345   8.892 -0.0018 -0.4538 -0.2784
  385MOL0     H50776   6.772   7.485   8.790  2.8501 -3.9905  1.0255
  385MOL0     H50777   6.770   7.596   8.936  0.3607  0.8256 -0.4589
  385MOL0     H50778   6.682   7.303   8.921  0.7898  0.8548 -1.7058
  385MOL0     H50779   6.663   7.405   9.063  1.2652 -0.8181  0.4224
  385MOL0     H50780   6.526   7.420   8.787  1.9922  1.0333 -0.7253
  385MOL0     H50781   6.525   7.563   8.886  1.1492  0.3654  0.4530
  385MOL0     H50782   6.326   7.467   8.710  0.5824  0.0273 -0.0144
  385MOL0     H50783   6.101   7.432   8.636 -0.2327 -0.8743 -0.3469
  385MOL0     H50784   5.590   7.378   9.020 -0.8394  1.2202 -0.8128
  385MOL0     H50785   5.348   7.334   8.982  0.8097 -0.5625 -0.5257
  385MOL0     H50786   5.234   6.977   8.817 -0.4429  0.4521  0.5990
  385MOL0     H50787   5.263   7.037   8.659 -1.1147 -2.1584  0.0052
  385MOL0     H50788   5.023   7.155   8.684  0.0534  0.5636  0.4851
  385MOL0     H50789   5.028   7.072   8.844  4.4178 -2.7296  1.0343
  385MOL0     H50790   5.050   6.851   8.741  0.7665 -0.1341  0.1153
  385MOL0     H50791   5.071   6.925   8.585  2.3387 -2.0452  1.9434
  385MOL0     H50792   4.815   6.948   8.757 -0.4485 -3.0179  0.3994
  385MOL0     H50793   4.830   7.019   8.590  1.1318 -1.9073 -2.8432
  385MOL0     H50794   4.848   6.726   8.637  0.9770  0.1269 -0.8536
  385MOL0     H50795   4.871   6.802   8.485  0.0300  1.0253 -0.4598
  385MOL0     H50796   4.641   6.739   8.487  1.9700 -1.5974  0.9105
  385MOL0     H50797   4.651   6.920   8.509  1.8762  0.3999 -2.0892
  385MOL0     H50798   4.605   6.685   8.699 -1.8168  0.1932 -0.8017
  385MOL0     H50799   4.607   6.860   8.752 -1.6978  0.3776  0.7452
  385MOL0     H50800   4.426   6.873   8.563  0.3965 -0.1643 -0.3936
  385MOL0     H50801   4.372   6.825   8.727 -1.5115  0.9224 -1.6888
  385MOL0     H50802   5.475   7.085   8.645  2.6697 -0.6188  0.8223
  385MOL0     H50803   5.680   7.151   8.665 -0.5753 -0.9610 -1.1549
  385MOL0     H50804   5.992   7.240   9.011  0.6831 -1.2141 -0.1789
  385MOL0     H50805   6.225   7.271   9.079  0.1798  1.7307  1.1174
  385MOL0     H50806   8.294   7.871   9.005 -0.4577  1.0749  0.7580
  385MOL0     H50807   8.502   7.746   9.022 -0.8567  2.6878 -0.1085
  385MOL0     H50808   8.741   7.445   9.100 -0.6366 -1.2210  0.1054
  385MOL0     H50809   8.946   7.291   9.116 -1.5342 -1.2232  2.5866
  385MOL0     H50810   9.190   7.277   9.135  2.7141  2.1411  3.0453
  385MOL0     H50811   9.101   7.125   9.197  1.0844 -1.9544  3.4703
  385MOL0     H50812   9.361   7.221   9.319  1.8220 -2.7478  0.7317
  385MOL0     H50813   9.281   7.061   9.319 -2.8382  1.2247  1.8556
  385MOL0     H50814   9.399   7.206   9.077  0.2688  1.5378  0.5192
  385MOL0     H50815   9.312   7.056   9.069  0.4043  0.1675 -0.1161
  385MOL0     H50816   9.504   6.970   9.226 -0.5917 -1.5949 -1.5375
  385MOL0     H50817   9.548   7.008   9.054 -0.8694 -1.5793  0.5128
  385MOL0     H50818   9.809   7.262   9.259  0.3026 -0.6542  1.1466
  385MOL0     H50819   9.036   7.447   9.499 -0.3996 -0.1843  0.6399
  385MOL0     H50820   8.845   7.610   9.490 -1.2940  0.5438 -0.6138
  386MOL0     O50821  10.354   4.076   7.598 -0.0623  0.3251 -0.0417
  386MOL0     C50822  10.443   4.155   7.569  0.5092  0.2147  0.5208
  386MOL0     O50823  10.431   4.245   7.471 -0.7856  0.2823 -0.4523
  386MOL0     C50824  10.354   4.215   7.361  0.1193  0.2206 -0.4231
  386MOL0     C50825  10.409   4.208   7.231 -0.7628 -0.3029 -0.3028
  386MOL0     C50826  10.319   4.202   7.120 -0.0243  0.1326 -0.0270
  386MOL0     C50827  10.179   4.197   7.138 -0.1479  0.3996  0.1238
  386MOL0     O50828  10.078   4.191   7.044 -0.4604 -0.8617  0.0118
  386MOL0     C50829  10.107   4.159   6.908 -0.6355  0.4307 -0.1287
  386MOL0     C50830   9.982   4.209   6.833  0.2040  0.9561  0.6610
  386MOL0     C50831   9.985   4.365   6.835  0.0353 -0.0070  0.5243
  386MOL0     C50832   9.838   4.401   6.796 -0.0886  0.0328 -0.1551
  386MOL0     C50833   9.812   4.556   6.789  0.2227  0.7560 -0.2185
  386MOL0     C50834   9.905   4.627   6.688  0.3898 -0.5252  0.2837
  386MOL0     C50835   9.892   4.783   6.699  0.8391  0.5384 -0.2852
  386MOL0     C50836   9.997   4.861   6.620 -0.1294 -0.3240 -0.0211
  386MOL0     N50837  10.136   4.830   6.649 -0.1575  0.0895 -0.4703
  386MOL0     C50838  10.195   4.848   6.765 -0.1783  0.6586  0.0859
  386MOL0     C50839  10.317   4.786   6.762  1.1311 -1.1701  0.2584
  386MOL0     C50840  10.422   4.781   6.866  0.3682  0.6169 -0.3722
  386MOL0     C50841  10.384   4.680   6.976 -0.2345  0.2310  0.2446
  386MOL0     C50842  10.425   4.533   6.937  0.6754 -0.5259  0.1885
  386MOL0     C50843  10.575   4.488   6.951  0.1393  0.6595  0.6534
  386MOL0     O50844  10.607   4.498   7.089 -0.1083 -0.1050 -0.4439
  386MOL0     C50845  10.727   4.450   7.132 -0.0418  0.5075 -0.7230
  386MOL0     C50846  10.737   4.415   7.267  0.6658  0.7658  0.4656
  386MOL0     C50847  10.860   4.372   7.324 -1.2133  0.6654  0.1451
  386MOL0     C50848  10.977   4.364   7.242 -0.1161 -0.0244  0.8128
  386MOL0     C50849  11.106   4.335   7.302 -0.5761  0.3591  0.6852
  386MOL0     O50850  11.112   4.294   7.431 -0.1693 -0.0643 -0.2219
  386MOL0     C50851  11.234   4.284   7.493 -0.0953  1.1166 -0.6960
  386MOL0     C50852  11.329   4.388   7.493 -0.2683  0.2999 -0.1186
  386MOL0     C50853  11.443   4.385   7.570  0.6340  0.5164 -0.0704
  386MOL0     C50854  11.480   4.268   7.640  0.3987  0.0652 -0.5117
  386MOL0     O50855  11.596   4.273   7.704 -0.1098 -0.4781 -0.2823
  386MOL0     C50856  11.653   4.157   7.750 -0.4797  0.0501 -0.5990
  386MOL0     C50857  11.802   4.189   7.787 -0.2711 -0.1579 -0.3115
  386MOL0     C50858  11.816   4.299   7.904 -0.6509 -0.5707  1.0528
  386MOL0     C50859  11.962   4.354   7.935  0.0395 -0.6840 -0.0977
  386MOL0     C50860  12.054   4.247   7.972 -0.2346 -0.1129 -0.0743
  386MOL0     C50861  12.199   4.268   7.976  0.0280  0.3629  0.5302
  386MOL0     C50862  12.266   4.268   7.836  0.3014 -0.5465 -0.2867
  386MOL0     C50863  12.413   4.279   7.857 -0.1509 -0.2605 -0.3746
  386MOL0    Cl50864  12.462   4.424   7.940  0.2339  0.3777  0.3043
  386MOL0     C50865  11.389   4.162   7.641 -0.3892  0.6838 -0.5037
  386MOL0     C50866  11.262   4.171   7.575 -1.0322  0.4413  0.3085
  386MOL0     O50867  11.204   4.346   7.231  0.2450 -0.0266 -0.0283
  386MOL0     C50868  10.962   4.386   7.098 -0.2506 -0.6770  0.4871
  386MOL0     C50869  10.840   4.436   7.050  0.3864  0.1782  1.5542
  386MOL0     N50870  10.330   4.740   6.633  0.2279  0.4789 -0.1584
  386MOL0     N50871  10.221   4.762   6.564  0.6554  0.0924 -0.2473
  386MOL0     C50872  10.129   4.187   7.267  0.5409 -0.4701  0.1344
  386MOL0     C50873  10.218   4.202   7.375  0.2759  0.2860  0.2242
  386MOL0     C50874  10.565   4.160   7.647 -0.5456 -0.2738 -1.3500
  386MOL0     C50875  10.673   4.235   7.600 -0.2034  0.0774 -0.6669
  386MOL0     C50876  10.785   4.239   7.680 -0.2956 -0.4944 -0.1576
  386MOL0     C50877  10.802   4.142   7.781 -0.2481  0.8394  0.2743
  386MOL0     O50878  10.922   4.120   7.849  0.0814 -0.5956  0.2085
  386MOL0     C50879  11.023   4.224   7.832 -0.5038 -0.6791  0.4684
  386MOL0     C50880  11.139   4.202   7.925  0.5187  0.3498 -0.1817
  386MOL0     C50881  11.241   4.309   7.930  0.4317  0.1475  0.1122
  386MOL0     C50882  11.368   4.285   8.011 -0.6138 -0.6015  0.9735
  386MOL0     C50883  11.354   4.265   8.156 -0.8999  0.3736 -0.0647
  386MOL0     C50884  11.347   4.239   8.278 -0.2720 -0.2263  0.2751
  386MOL0     C50885  10.701   4.056   7.812  0.7673  0.5355 -0.0990
  386MOL0     C50886  10.580   4.069   7.757  0.4859 -0.1571  0.0796
  386MOL0     H50887  10.512   4.233   7.206  0.5263 -4.1054  0.5107
  386MOL0     H50888  10.360   4.197   7.019 -0.2064  0.2987 -0.1088
  386MOL0     H50889  10.114   4.050   6.897  3.7441  0.2495  2.2451
  386MOL0     H50890  10.195   4.213   6.872 -1.8603  2.2411 -0.5678
  386MOL0     H50891   9.888   4.165   6.870  0.6725  0.4155  1.2357
  386MOL0     H50892  10.004   4.164   6.736 -2.2273 -0.8201  0.8463
  386MOL0     H50893  10.060   4.406   6.766 -0.6961  0.5019  0.0203
  386MOL0     H50894  10.008   4.419   6.927  2.5277  5.2749 -2.6806
  386MOL0     H50895   9.803   4.362   6.700  0.5357 -1.5590  0.2397
  386MOL0     H50896   9.762   4.365   6.866  2.4244 -0.6647  2.4037
  386MOL0     H50897   9.831   4.604   6.885  3.4388  0.5788 -0.6610
  386MOL0     H50898   9.708   4.572   6.758  0.4336  0.4657 -1.1198
  386MOL0     H50899   9.869   4.602   6.587  1.2613  0.7657 -0.3760
  386MOL0     H50900  10.008   4.591   6.693  0.2550 -0.9634 -0.0401
  386MOL0     H50901   9.793   4.811   6.662  1.1591  0.6249 -1.0918
  386MOL0     H50902   9.906   4.808   6.805  2.3469 -0.8588 -0.1038
  386MOL0     H50903   9.989   4.965   6.652  1.8562 -0.6229  1.6582
  386MOL0     H50904   9.973   4.859   6.513 -0.2515  0.1375 -0.0022
  386MOL0     H50905  10.148   4.894   6.851 -3.3453 -0.1685 -1.0491
  386MOL0     H50906  10.420   4.878   6.917 -0.2663 -0.4216  1.6714
  386MOL0     H50907  10.521   4.757   6.826  1.1974  0.3357  1.7248
  386MOL0     H50908  10.278   4.692   7.001 -0.5686 -1.5284 -0.1585
  386MOL0     H50909  10.445   4.711   7.062  0.6256  3.2750 -1.3492
  386MOL0     H50910  10.359   4.467   6.995 -0.9252  0.9780  0.1493
  386MOL0     H50911  10.395   4.512   6.834 -2.4266 -0.0423  0.8859
  386MOL0     H50912  10.642   4.550   6.891 -0.8839  2.1913  1.0462
  386MOL0     H50913  10.578   4.383   6.918 -1.6403 -0.3088  3.2633
  386MOL0     H50914  10.649   4.418   7.331  0.4390 -2.3221  0.4540
  386MOL0     H50915  10.870   4.358   7.431 -0.0536 -0.0655 -0.0426
  386MOL0     H50916  11.311   4.470   7.423  1.2438 -2.2716 -3.8527
  386MOL0     H50917  11.509   4.471   7.579 -0.1675  0.9314  2.3721
  386MOL0     H50918  11.658   4.076   7.677 -1.5433 -0.7166  0.1587
  386MOL0     H50919  11.599   4.110   7.833  0.1817 -1.6162 -1.0646
  386MOL0     H50920  11.864   4.226   7.705  1.1846 -0.9156  0.4010
  386MOL0     H50921  11.849   4.095   7.819  0.6892  0.9083  1.6005
  386MOL0     H50922  11.777   4.253   7.995 -0.5318  1.4335  2.1770
  386MOL0     H50923  11.753   4.384   7.875 -2.0520 -1.4691  1.3621
  386MOL0     H50924  11.997   4.414   7.850  0.3122 -0.4509  0.1757
  386MOL0     H50925  11.953   4.422   8.020  1.0150 -3.1155  2.0777
  386MOL0     H50926  12.039   4.162   7.904  0.9968  0.7447 -1.4773
  386MOL0     H50927  12.026   4.219   8.074  3.4537 -0.7215  0.9057
  386MOL0     H50928  12.238   4.190   8.041 -0.0537  0.7497  1.0442
  386MOL0     H50929  12.207   4.361   8.032  0.0903  0.1272  0.9158
  386MOL0     H50930  12.244   4.170   7.792 -2.0366 -0.8709  1.3877
  386MOL0     H50931  12.224   4.345   7.770  0.4999  1.2216  1.5489
  386MOL0     H50932  12.464   4.286   7.761 -0.6882  0.1687 -0.6330
  386MOL0     H50933  12.444   4.190   7.913 -0.4787  1.2820  2.4535
  386MOL0     H50934  11.420   4.064   7.676 -1.3095  0.8144  0.7315
  386MOL0     H50935  11.194   4.086   7.570 -0.9226  0.3807 -0.3693
  386MOL0     H50936  11.046   4.381   7.030 -0.5249  0.8415  0.0132
  386MOL0     H50937  10.824   4.458   6.945 -2.2645 -3.2328  1.0806
  386MOL0     H50938  10.024   4.175   7.292  0.0588  2.4253 -0.1861
  386MOL0     H50939  10.172   4.212   7.472 -0.4866 -2.8567  0.2976
  386MOL0     H50940  10.654   4.309   7.523  0.1443  0.7402 -0.1275
  386MOL0     H50941  10.856   4.319   7.663  0.1428 -0.9465 -0.4712
  386MOL0     H50942  10.989   4.327   7.842  0.6217 -0.2744  0.2999
  386MOL0     H50943  11.056   4.215   7.728 -1.5455 -0.2553  0.0883
  386MOL0     H50944  11.093   4.189   8.023 -0.0112  2.2561 -0.1303
  386MOL0     H50945  11.175   4.113   7.874 -0.0554  0.9742 -1.7395
  386MOL0     H50946  11.184   4.389   7.977  0.0240 -0.8052  1.3005
  386MOL0     H50947  11.268   4.346   7.831 -1.2021  0.2349 -0.3280
  386MOL0     H50948  11.418   4.200   7.964  0.3642 -1.5610  3.5991
  386MOL0     H50949  11.424   4.379   7.998 -3.0684  0.7468 -0.7752
  386MOL0     H50950  11.323   4.221   8.381  1.0512 -1.5296  0.4011
  386MOL0     H50951  10.712   3.991   7.898 -1.9714  1.2249  0.8890
  386MOL0     H50952  10.497   4.008   7.792 -0.4776  1.9602  1.7124
  387MOL0     O50953   3.650   5.224   0.260 -0.0713 -0.3584  0.6176
  387MOL0     C50954   3.655   5.312   0.343 -0.2533  0.1036 -1.0311
  387MOL0     O50955   3.573   5.326   0.456  1.0145  0.0237 -0.3123
  387MOL0     C50956   3.477   5.224   0.461  0.2246 -0.5373 -0.4893
  387MOL0     C50957   3.353   5.240   0.388  0.0374  0.2920 -0.2523
  387MOL0     C50958   3.264   5.131   0.389 -0.1520 -0.2376  0.0332
  387MOL0     C50959   3.274   5.022   0.475 -0.5320  0.2066 -0.3604
  387MOL0     O50960   3.197   4.915   0.476 -0.0393 -1.0113  0.5442
  387MOL0     C50961   3.059   4.943   0.496 -0.1026 -0.2974  0.2824
  387MOL0     C50962   2.974   4.831   0.545  0.5850  0.2610 -0.8253
  387MOL0     C50963   2.828   4.871   0.588  0.1806 -0.7108 -0.1469
  387MOL0     C50964   2.738   4.754   0.625 -1.2173  0.3857 -0.1713
  387MOL0     C50965   2.595   4.808   0.662 -0.1281  0.0017 -0.3417
  387MOL0     C50966   2.517   4.719   0.754 -0.2832 -0.0553  0.2980
  387MOL0     C50967   2.368   4.735   0.728 -0.3573  0.4301 -0.2852
  387MOL0     C50968   2.325   4.658   0.604  0.1717  0.4350  0.0291
  387MOL0     N50969   2.176   4.647   0.594  0.1265  1.2967 -0.3370
  387MOL0     C50970   2.082   4.742   0.576  1.1974  0.7408  0.2488
  387MOL0     C50971   1.961   4.677   0.589  0.4564  0.2720 -0.4884
  387MOL0     C50972   1.835   4.757   0.598 -0.2245 -0.0504  0.1325
  387MOL0     C50973   1.802   4.821   0.460  0.6570 -0.6044 -0.5512
  387MOL0     C50974   1.649   4.831   0.445 -0.1372 -1.1057 -0.0666
  387MOL0     C50975   1.612   4.901   0.314  0.1237  0.3735  0.2056
  387MOL0     O50976   1.476   4.936   0.318  0.0150 -0.7042 -0.1532
  387MOL0     C50977   1.401   4.951   0.209  0.3766  0.0346  0.2433
  387MOL0     C50978   1.300   5.049   0.206  0.5091 -0.9190  1.0159
  387MOL0     C50979   1.203   5.048   0.106 -0.4493  0.0811 -0.0275
  387MOL0     C50980   1.198   4.948   0.004  0.0132 -0.4814  0.5088
  387MOL0     C50981   1.082   4.930  -0.092 -0.6057 -0.9120  0.5502
  387MOL0     O50982   1.081   4.821  -0.172  0.0555 -0.3144  0.2557
  387MOL0     C50983   0.976   4.785  -0.257  0.4000  0.4976  0.7518
  387MOL0     C50984   1.003   4.663  -0.333  0.2447  0.1126 -0.8864
  387MOL0     C50985   0.907   4.614  -0.411  0.3810 -0.0307  0.8224
  387MOL0     C50986   0.780   4.667  -0.428 -0.0878  0.0134 -0.2785
  387MOL0     O50987   0.669   4.607  -0.489 -0.5882 -0.1177  0.1452
  387MOL0     C50988   0.684   4.495  -0.578  0.3145  0.3385  0.1696
  387MOL0     C50989   0.542   4.455  -0.610  0.0826 -0.7000 -0.1421
  387MOL0     C50990   0.540   4.350  -0.725  0.1451 -0.0805 -0.3811
  387MOL0     C50991   0.604   4.209  -0.683  0.0129 -0.2738 -0.1591
  387MOL0     C50992   0.592   4.128  -0.813 -0.1275 -0.0609 -0.0784
  387MOL0     C50993   0.619   3.976  -0.805 -0.1667  0.2124  0.5998
  387MOL0     C50994   0.753   3.939  -0.748  0.3020  0.0081  0.8294
  387MOL0     C50995   0.800   3.799  -0.779 -0.1548 -0.6711  0.5637
  387MOL0    Cl50996   0.696   3.676  -0.718 -0.0315  0.1893  0.0646
  387MOL0     C50997   0.750   4.784  -0.345  1.0662  0.7174 -0.6901
  387MOL0     C50998   0.848   4.844  -0.268  0.2583 -0.9507  0.6454
  387MOL0     O50999   1.008   5.029  -0.090  0.7157 -0.5406  0.1302
  387MOL0     C51000   1.300   4.857   0.001 -0.2359  0.9383  0.2752
  387MOL0     C51001   1.399   4.856   0.103 -0.1204  1.0608 -0.1533
  387MOL0     N51002   1.985   4.541   0.607 -0.0401 -0.5597  0.5540
  387MOL0     N51003   2.111   4.523   0.610 -0.7907 -0.5438 -0.1220
  387MOL0     C51004   3.394   5.011   0.542  0.8636  0.3209 -0.0098
  387MOL0     C51005   3.493   5.113   0.539 -1.2483 -1.1554 -0.0215
  387MOL0     C51006   3.769   5.411   0.334 -0.2621  0.3408 -0.3567
  387MOL0     C51007   3.881   5.385   0.252  0.1421  0.6215 -0.4058
  387MOL0     C51008   3.991   5.478   0.249  0.0157  1.1931  0.5660
  387MOL0     C51009   3.998   5.590   0.327  0.9401 -0.4894 -0.1205
  387MOL0     O51010   4.120   5.659   0.335 -0.0476  0.3110 -0.1425
  387MOL0     C51011   4.111   5.789   0.388 -0.5097  0.3810 -0.5353
  387MOL0     C51012   4.237   5.867   0.343  0.1258  0.0846  0.7795
  387MOL0     C51013   4.230   5.869   0.191 -0.4692 -0.1447 -0.3770
  387MOL0     C51014   4.322   5.985   0.143 -0.0329  0.5350  0.2165
  387MOL0     C51015   4.466   5.957   0.177  0.7038  0.7048  0.6467
  387MOL0     C51016   4.584   5.938   0.205 -0.2768  0.4020 -0.1495
  387MOL0     C51017   3.881   5.612   0.406 -0.6988 -0.1846 -0.3268
  387MOL0     C51018   3.766   5.529   0.411  0.2093  0.8039  0.8453
  387MOL0     H51019   3.331   5.329   0.331  0.9587  1.3859  1.0339
  387MOL0     H51020   3.183   5.142   0.318 -0.2912  3.6480  0.5502
  387MOL0     H51021   3.020   4.986   0.403  4.7503  0.3983 -1.7037
  387MOL0     H51022   3.049   5.020   0.573  1.6290  0.1213  0.1344
  387MOL0     H51023   3.033   4.784   0.624  0.5622  0.0434 -0.9374
  387MOL0     H51024   2.959   4.755   0.468  0.8730 -0.6378 -0.0127
  387MOL0     H51025   2.781   4.918   0.501  1.2225 -0.4625 -0.5853
  387MOL0     H51026   2.828   4.942   0.671 -1.2290 -0.6654 -0.1649
  387MOL0     H51027   2.737   4.680   0.545 -1.6328  1.5536 -1.2617
  387MOL0     H51028   2.786   4.703   0.710 -1.4185  1.5309  0.6536
  387MOL0     H51029   2.541   4.818   0.567 -1.6687 -0.0595  0.4939
  387MOL0     H51030   2.608   4.904   0.713  1.1187 -1.0493  1.4134
  387MOL0     H51031   2.545   4.748   0.855  1.2541 -2.1167  0.5376
  387MOL0     H51032   2.550   4.615   0.740 -2.7709 -0.6730 -1.9552
  387MOL0     H51033   2.320   4.684   0.812  1.7852  0.7420  1.2391
  387MOL0     H51034   2.335   4.839   0.725 -0.7501  0.3077 -0.2235
  387MOL0     H51035   2.382   4.565   0.592 -2.0656 -0.7389 -2.5248
  387MOL0     H51036   2.353   4.717   0.516  1.6356  1.5739  1.1952
  387MOL0     H51037   2.093   4.848   0.556  2.6521  0.7975  1.2413
  387MOL0     H51038   1.825   4.842   0.665 -3.1443 -0.3755  0.2340
  387MOL0     H51039   1.754   4.691   0.630 -0.1110 -0.5351 -0.5497
  387MOL0     H51040   1.846   4.755   0.386  0.8782 -0.6881 -0.3440
  387MOL0     H51041   1.849   4.920   0.468  0.3978 -0.4282 -1.1448
  387MOL0     H51042   1.601   4.733   0.452 -0.2034 -0.9985  1.2235
  387MOL0     H51043   1.616   4.895   0.528 -2.9263 -0.9256 -1.1971
  387MOL0     H51044   1.636   4.836   0.230  2.9444  3.3495 -1.5280
  387MOL0     H51045   1.669   4.993   0.299  2.5361 -1.3285 -1.9959
  387MOL0     H51046   1.292   5.106   0.297  0.6727  2.1403 -0.7536
  387MOL0     H51047   1.123   5.121   0.111  1.5544  2.3228  1.0673
  387MOL0     H51048   1.102   4.620  -0.322 -0.3053 -1.1580 -0.7451
  387MOL0     H51049   0.944   4.526  -0.462 -3.4626 -0.3755 -1.8036
  387MOL0     H51050   0.736   4.415  -0.525 -0.0186  0.7471  1.1451
  387MOL0     H51051   0.746   4.530  -0.661 -0.3116  1.4762  0.1652
  387MOL0     H51052   0.488   4.543  -0.646 -3.0826 -0.9048  3.4934
  387MOL0     H51053   0.480   4.426  -0.525 -0.8897  0.1682 -0.5342
  387MOL0     H51054   0.598   4.392  -0.808  0.1412 -0.2622 -0.4774
  387MOL0     H51055   0.437   4.334  -0.757  0.9141  0.1334 -3.2252
  387MOL0     H51056   0.708   4.219  -0.650 -0.8065  0.7427  2.3084
  387MOL0     H51057   0.554   4.165  -0.596  1.9586  0.3634  1.3509
  387MOL0     H51058   0.660   4.172  -0.887 -4.0191  0.4488 -3.7337
  387MOL0     H51059   0.493   4.147  -0.854  1.4194  0.8247 -3.8379
  387MOL0     H51060   0.617   3.937  -0.907 -0.9530 -0.6165  0.9124
  387MOL0     H51061   0.528   3.937  -0.757 -0.5669  2.7549  2.0578
  387MOL0     H51062   0.828   4.011  -0.781 -0.8675  0.6106 -0.6169
  387MOL0     H51063   0.745   3.949  -0.639 -3.8507 -1.0155  0.7971
  387MOL0     H51064   0.896   3.791  -0.727 -0.8506 -0.0185  2.0257
  387MOL0     H51065   0.814   3.780  -0.886  1.5873 -1.9856  0.9793
  387MOL0     H51066   0.648   4.820  -0.344  0.0302 -1.9869  0.7957
  387MOL0     H51067   0.825   4.931  -0.208  1.4117 -1.2229  1.5135
  387MOL0     H51068   1.308   4.782  -0.077  2.2995  0.2932  1.0471
  387MOL0     H51069   1.480   4.784   0.096 -1.3877 -0.6615  1.5675
  387MOL0     H51070   3.410   4.916   0.590 -2.2892  0.9080  2.5737
  387MOL0     H51071   3.588   5.109   0.592 -0.5481  0.0023 -1.1595
  387MOL0     H51072   3.875   5.299   0.185  0.3461 -1.0045  1.5730
  387MOL0     H51073   4.081   5.454   0.194 -1.2858 -1.1393 -0.7147
  387MOL0     H51074   4.096   5.787   0.496  0.5909 -0.5892 -0.3730
  387MOL0     H51075   4.030   5.848   0.344 -0.6435 -2.1737 -4.2354
  387MOL0     H51076   4.239   5.970   0.378 -0.0812  0.2222  0.4033
  387MOL0     H51077   4.333   5.820   0.367  2.0168  2.8894 -0.7419
  387MOL0     H51078   4.131   5.902   0.158  0.4257  2.7024 -0.4847
  387MOL0     H51079   4.259   5.774   0.145  1.1151 -0.5109  1.2484
  387MOL0     H51080   4.314   5.994   0.034 -1.8300  3.2349  0.4853
  387MOL0     H51081   4.303   6.079   0.195 -1.0765 -1.8163  4.5562
  387MOL0     H51082   4.689   5.930   0.223  0.0994  1.4108 -1.6871
  387MOL0     H51083   3.885   5.698   0.473 -4.1426 -0.3216  0.2212
  387MOL0     H51084   3.687   5.558   0.479  0.4709  0.2366  1.3972
  388MOL0     O51085   8.267   0.267   3.271 -0.3403  0.5186  0.2252
  388MOL0     C51086   8.310   0.154   3.257  0.2413  0.3232 -0.4286
  388MOL0     O51087   8.223   0.041   3.261  0.2493 -0.0501 -0.0144
  388MOL0     C51088   8.083   0.051   3.225 -0.4313 -1.1741 -0.9571
  388MOL0     C51089   8.009   0.164   3.181 -0.2818  0.0878 -0.8754
  388MOL0     C51090   7.874   0.163   3.168  0.1410 -0.3288 -0.2570
  388MOL0     C51091   7.799   0.039   3.181  0.2692 -0.4766 -0.0643
  388MOL0     O51092   7.662   0.025   3.164  0.0659  0.0270 -0.3665
  388MOL0     C51093   7.589   0.132   3.106 -0.9497 -0.1928  0.4562
  388MOL0     C51094   7.450   0.079   3.098 -0.0437 -0.3028  0.0678
  388MOL0     C51095   7.343   0.190   3.091  0.6695 -0.9107 -0.2829
  388MOL0     C51096   7.199   0.134   3.087 -0.4038  0.3440  0.4088
  388MOL0     C51097   7.092   0.238   3.072 -0.1380 -0.2103 -0.0959
  388MOL0     C51098   6.953   0.174   3.077  0.1095  1.0410  0.0574
  388MOL0     C51099   6.843   0.260   3.013 -0.6589  0.1411 -0.2586
  388MOL0     C51100   6.858   0.262   2.854 -0.0379  0.6478  0.0924
  388MOL0     N51101   6.813   0.137   2.790  0.5953  0.4484 -0.1281
  388MOL0     C51102   6.685   0.100   2.763  0.6348 -0.1020  0.2814
  388MOL0     C51103   6.697   0.001   2.675 -0.2287 -0.5680 -0.2276
  388MOL0     C51104   6.582  -0.074   2.615 -0.3757  0.8126 -0.5819
  388MOL0     C51105   6.559  -0.029   2.470 -0.3276 -0.7957  0.8529
  388MOL0     C51106   6.426  -0.088   2.419 -0.2695  0.2753  0.4887
  388MOL0     C51107   6.305  -0.006   2.466  0.3901  0.5392 -0.3092
  388MOL0     O51108   6.180  -0.073   2.427 -0.9528 -0.2468 -0.2217
  388MOL0     C51109   6.060  -0.052   2.492  1.3020 -0.0421 -0.6334
  388MOL0     C51110   5.942  -0.082   2.428 -0.9732  0.5353 -0.2531
  388MOL0     C51111   5.822  -0.063   2.497  0.1155  0.5551  0.0970
  388MOL0     C51112   5.811  -0.005   2.626  0.1342 -1.0142 -0.4414
  388MOL0     C51113   5.681   0.013   2.696 -0.3370  0.8512 -0.0316
  388MOL0     O51114   5.575  -0.027   2.635  0.0377  0.5338  0.5625
  388MOL0     C51115   5.448   0.005   2.651 -0.2954  0.2743 -0.3300
  388MOL0     C51116   5.385   0.066   2.759 -0.5961 -0.1840  1.1770
  388MOL0     C51117   5.257   0.122   2.748  0.4179 -0.0832  0.7935
  388MOL0     C51118   5.176   0.096   2.638 -0.1651 -0.7843  1.0621
  388MOL0     O51119   5.046   0.129   2.627  0.4933 -0.1956 -0.0153
  388MOL0     C51120   4.988   0.231   2.710  0.5281 -0.0195 -0.3659
  388MOL0     C51121   4.839   0.251   2.684 -0.3163 -0.0104 -1.0100
  388MOL0     C51122   4.783   0.361   2.775 -0.7256  1.0866  0.0114
  388MOL0     C51123   4.632   0.359   2.765 -0.5679 -0.2880 -0.3722
  388MOL0     C51124   4.559   0.471   2.839 -0.3779  0.1928  0.0745
  388MOL0     C51125   4.405   0.469   2.807  0.0790 -0.4302 -0.5924
  388MOL0     C51126   4.341   0.581   2.884  0.7507  0.3118  0.3961
  388MOL0     C51127   4.192   0.581   2.868 -1.0551  0.2193  0.6589
  388MOL0    Cl51128   4.118   0.442   2.941 -0.2789 -0.0336  0.1368
  388MOL0     C51129   5.236   0.028   2.530  0.2881 -0.1325 -0.8973
  388MOL0     C51130   5.367  -0.015   2.540 -0.3451 -0.5672  0.1912
  388MOL0     O51131   5.684   0.064   2.806 -0.1893 -0.0970  0.4535
  388MOL0     C51132   5.933   0.019   2.698 -0.0178  0.2903  0.0825
  388MOL0     C51133   6.054  -0.002   2.629  0.5862  0.0758  1.3759
  388MOL0     N51134   6.834  -0.021   2.644 -1.1213  0.6578 -0.1781
  388MOL0     N51135   6.898   0.069   2.713 -0.8983 -0.5421 -0.1046
  388MOL0     C51136   7.870  -0.068   3.224  0.1615  0.3855 -0.1786
  388MOL0     C51137   8.008  -0.064   3.247 -0.3264  1.0025 -0.2696
  388MOL0     C51138   8.453   0.133   3.257 -0.5191  0.3551  0.2053
  388MOL0     C51139   8.515   0.010   3.233  0.2361 -0.4313 -0.2299
  388MOL0     C51140   8.657   0.006   3.231 -0.0858  0.1465  0.0293
  388MOL0     C51141   8.737   0.116   3.228  0.4300 -0.0070 -0.4225
  388MOL0     O51142   8.871   0.088   3.219  0.4814 -0.8850 -0.3301
  388MOL0     C51143   8.965   0.204   3.198  0.3134  0.5058  0.1835
  388MOL0     C51144   9.099   0.125   3.179  0.1400 -0.2139  0.2692
  388MOL0     C51145   9.135   0.036   3.295 -0.3661  0.1527 -0.0569
  388MOL0     C51146   9.166  -0.113   3.251 -0.2456  0.2800  0.2193
  388MOL0     C51147   9.302  -0.122   3.204 -1.3358  0.8840  0.1824
  388MOL0     C51148   9.416  -0.111   3.152  0.4664  0.1384 -0.1401
  388MOL0     C51149   8.678   0.240   3.244 -0.0724  0.4131 -0.0989
  388MOL0     C51150   8.536   0.240   3.256  0.2808  0.0429  0.0045
  388MOL0     H51151   8.057   0.254   3.144  0.1022  0.9548  1.5190
  388MOL0     H51152   7.824   0.254   3.138  0.1730 -1.2276 -3.3458
  388MOL0     H51153   7.623   0.168   3.008 -0.8414 -1.0110  0.1832
  388MOL0     H51154   7.589   0.216   3.176  0.2953 -0.3794  0.7180
  388MOL0     H51155   7.441   0.009   3.182  2.1280 -3.3216 -2.0133
  388MOL0     H51156   7.440   0.016   3.009  0.8238  0.0744 -0.3056
  388MOL0     H51157   7.362   0.234   2.992  0.5929  0.9880  0.4884
  388MOL0     H51158   7.350   0.272   3.164  1.7681 -0.9612 -0.3097
  388MOL0     H51159   7.186   0.065   3.002 -0.0586  1.1609 -0.3231
  388MOL0     H51160   7.176   0.063   3.167  3.5505 -1.0761  0.4831
  388MOL0     H51161   7.104   0.287   2.975 -2.3700  0.3569 -0.1347
  388MOL0     H51162   7.110   0.303   3.158  3.3712 -1.1147  0.0128
  388MOL0     H51163   6.935   0.156   3.183  1.5009 -1.3927 -0.0518
  388MOL0     H51164   6.946   0.078   3.026 -1.6174 -0.1136  2.2538
  388MOL0     H51165   6.743   0.219   3.031 -0.1357 -1.5191 -0.9547
  388MOL0     H51166   6.847   0.364   3.047  1.0458  0.2964 -0.8734
  388MOL0     H51167   6.957   0.298   2.823 -0.5687  1.3483 -0.8195
  388MOL0     H51168   6.790   0.343   2.826 -1.1727 -0.1146  0.6077
  388MOL0     H51169   6.596   0.138   2.810 -0.2760 -0.3191 -1.2129
  388MOL0     H51170   6.496  -0.055   2.680  0.1012  1.0061  0.0034
  388MOL0     H51171   6.604  -0.181   2.619  1.6885  1.2290  0.2141
  388MOL0     H51172   6.643  -0.056   2.406 -2.5402 -2.1088 -1.6802
  388MOL0     H51173   6.555   0.080   2.458  0.0045 -0.5490  2.7059
  388MOL0     H51174   6.418  -0.087   2.310  2.3544  0.4909  0.2355
  388MOL0     H51175   6.416  -0.191   2.455  0.7266  0.0594  0.1739
  388MOL0     H51176   6.312   0.096   2.427  0.8015  0.1046 -1.4085
  388MOL0     H51177   6.314  -0.006   2.575 -0.5647  2.1210 -0.1861
  388MOL0     H51178   5.929  -0.132   2.333 -2.1563 -0.6942  0.5251
  388MOL0     H51179   5.731  -0.085   2.443  1.0044 -0.0491 -1.2152
  388MOL0     H51180   5.452   0.071   2.845  3.5173 -2.1958 -1.5918
  388MOL0     H51181   5.240   0.178   2.839 -1.1710  1.4143 -0.3536
  388MOL0     H51182   5.044   0.323   2.695 -0.5571  0.7474  0.2098
  388MOL0     H51183   5.001   0.199   2.814 -0.4421  2.0557  0.4460
  388MOL0     H51184   4.787   0.156   2.697 -1.9432  1.0157  0.3250
  388MOL0     H51185   4.821   0.290   2.583  2.8129  0.7153 -1.3880
  388MOL0     H51186   4.825   0.456   2.744  1.4595  0.7578  1.6902
  388MOL0     H51187   4.813   0.348   2.880 -0.8163  2.0413  0.1645
  388MOL0     H51188   4.609   0.370   2.658  0.9045 -1.2215 -0.8065
  388MOL0     H51189   4.594   0.266   2.806  1.1939 -0.6928  0.4333
  388MOL0     H51190   4.616   0.562   2.817  1.4978 -1.6974 -4.2253
  388MOL0     H51191   4.586   0.459   2.944  4.1217  2.6242 -0.5425
  388MOL0     H51192   4.364   0.372   2.835 -0.8458  0.9291  3.4628
  388MOL0     H51193   4.385   0.473   2.700  0.0354 -0.2276 -0.5772
  388MOL0     H51194   4.349   0.569   2.993 -3.8670  0.4954  0.9458
  388MOL0     H51195   4.381   0.680   2.860  1.4730 -0.0563  0.0424
  388MOL0     H51196   4.171   0.597   2.762  0.1476 -0.4592  0.3030
  388MOL0     H51197   4.158   0.673   2.917 -1.0389  0.1233  0.8483
  388MOL0     H51198   5.191   0.015   2.432  0.7117 -2.1424 -0.8573
  388MOL0     H51199   5.413  -0.065   2.455  0.9320  1.1922 -0.2237
  388MOL0     H51200   5.941   0.045   2.803 -0.8559 -1.9702  0.7777
  388MOL0     H51201   6.140   0.031   2.687  2.4501 -1.1539 -0.5364
  388MOL0     H51202   7.823  -0.166   3.220 -1.7103  1.1929  0.8679
  388MOL0     H51203   8.056  -0.152   3.289 -1.4557  0.6328  0.2846
  388MOL0     H51204   8.452  -0.078   3.241 -2.6335  1.4289 -0.9060
  388MOL0     H51205   8.703  -0.090   3.207 -2.2423 -0.0335 -4.5137
  388MOL0     H51206   8.981   0.262   3.289  1.7042  0.0898  0.2347
  388MOL0     H51207   8.932   0.268   3.115 -2.3342  0.1714  0.9041
  388MOL0     H51208   9.090   0.065   3.087  0.0935 -0.2126  0.2731
  388MOL0     H51209   9.187   0.189   3.163 -0.8094  1.6068  1.9984
  388MOL0     H51210   9.056   0.035   3.371  0.5976  1.9797  1.0240
  388MOL0     H51211   9.226   0.076   3.340  1.3206  1.3672 -4.0948
  388MOL0     H51212   9.161  -0.178   3.339 -0.4900 -1.6079 -1.1053
  388MOL0     H51213   9.088  -0.151   3.184 -0.4351  1.2461 -0.1246
  388MOL0     H51214   9.516  -0.108   3.113  1.1728 -1.2277  1.4473
  388MOL0     H51215   8.726   0.337   3.244  1.1160 -0.1443 -1.1582
  388MOL0     H51216   8.487   0.337   3.268  1.8539  0.7618  0.9604
  389MOL0     O51217   4.118   6.762   5.421 -0.1493  0.6351  0.1912
  389MOL0     C51218   4.125   6.882   5.438  0.3196 -0.0694 -0.0250
  389MOL0     O51219   4.021   6.969   5.407 -0.6575 -0.2238  0.2206
  389MOL0     C51220   3.897   6.928   5.352  0.2236  0.5385  0.5374
  389MOL0     C51221   3.828   7.023   5.276  0.0021  0.6028 -0.6389
  389MOL0     C51222   3.705   6.983   5.224 -0.0730 -0.4375  0.6335
  389MOL0     C51223   3.641   6.862   5.232 -0.2476  0.0272 -0.7185
  389MOL0     O51224   3.527   6.847   5.154  0.1015  1.3586  0.5688
  389MOL0     C51225   3.454   6.726   5.157 -0.4530  0.2268 -0.0838
  389MOL0     C51226   3.304   6.754   5.161  0.6868  0.6812 -0.6909
  389MOL0     C51227   3.224   6.629   5.201 -0.6907  0.2644 -0.9425
  389MOL0     C51228   3.079   6.666   5.233 -0.3997 -0.3329 -0.8047
  389MOL0     C51229   2.996   6.550   5.296 -0.0670 -0.4636  0.3624
  389MOL0     C51230   2.854   6.612   5.312  0.5412 -0.2905  0.5557
  389MOL0     C51231   2.758   6.535   5.411  0.0867  0.6591  0.0964
  389MOL0     C51232   2.807   6.555   5.553  0.7139  0.5570 -0.3285
  389MOL0     N51233   2.701   6.526   5.652 -0.0426 -0.0789  0.1840
  389MOL0     C51234   2.700   6.589   5.784  0.2106  0.0297 -0.1644
  389MOL0     C51235   2.576   6.560   5.837  0.1738 -0.2720  0.0445
  389MOL0     C51236   2.526   6.608   5.974 -0.7635  0.1741 -0.4000
  389MOL0     C51237   2.427   6.725   5.952  0.3045  0.5284 -0.2069
  389MOL0     C51238   2.387   6.766   6.098 -0.2719 -0.1668 -0.3634
  389MOL0     C51239   2.310   6.900   6.101  0.5301  0.0649 -0.3586
  389MOL0     O51240   2.218   6.935   6.206  0.3270 -0.7915  0.2284
  389MOL0     C51241   2.087   6.894   6.201 -0.0265 -0.0002 -0.3233
  389MOL0     C51242   2.004   6.945   6.301 -0.0625  0.4501 -0.6416
  389MOL0     C51243   1.869   6.904   6.304 -0.5379  0.1784 -0.3533
  389MOL0     C51244   1.818   6.828   6.201 -0.3507  0.7935 -0.0157
  389MOL0     C51245   1.666   6.811   6.203 -0.8507 -0.3032  0.2392
  389MOL0     O51246   1.592   6.901   6.270  0.2836  0.3262 -0.4431
  389MOL0     C51247   1.453   6.880   6.268  0.7808 -0.4186  0.0600
  389MOL0     C51248   1.370   6.996   6.244 -0.0058  1.1213 -0.0493
  389MOL0     C51249   1.233   6.984   6.258  0.4195 -0.6567 -1.2075
  389MOL0     C51250   1.174   6.861   6.297  0.2513  0.2388 -0.1039
  389MOL0     O51251   1.040   6.855   6.314  0.1932 -0.1109  0.6322
  389MOL0     C51252   0.977   6.728   6.333  0.4614  0.4882  0.2076
  389MOL0     C51253   0.824   6.733   6.322  0.0577 -0.6041 -0.7531
  389MOL0     C51254   0.755   6.610   6.381  0.6679 -0.6823  0.0425
  389MOL0     C51255   0.606   6.609   6.393  0.3573 -0.4155  0.2917
  389MOL0     C51256   0.522   6.596   6.264  0.3981  0.5058 -0.1758
  389MOL0     C51257   0.367   6.579   6.292  0.5465  0.4180  0.0384
  389MOL0     C51258   0.289   6.529   6.166 -0.4854 -0.1090  0.2966
  389MOL0     C51259   0.144   6.524   6.190 -0.1737  0.4802 -0.5072
  389MOL0    Cl51260   0.078   6.694   6.168 -0.3056  0.1361  0.6587
  389MOL0     C51261   1.262   6.747   6.325 -0.6373 -0.4275 -0.5480
  389MOL0     C51262   1.393   6.761   6.310 -0.1212 -0.0200 -0.3156
  389MOL0     O51263   1.626   6.730   6.125  0.0294 -0.2192  0.8079
  389MOL0     C51264   1.906   6.778   6.100 -1.2010  0.1010 -0.6019
  389MOL0     C51265   2.038   6.819   6.094 -0.4584  0.4762 -0.0933
  389MOL0     N51266   2.508   6.485   5.742 -0.0947  0.2935  0.9873
  389MOL0     N51267   2.572   6.471   5.634  0.1921 -0.7921 -0.5495
  389MOL0     C51268   3.708   6.771   5.318 -1.1629  0.5491  0.2421
  389MOL0     C51269   3.834   6.804   5.365 -0.3072 -0.8492 -0.6429
  389MOL0     C51270   4.248   6.947   5.492  0.0012 -0.2752 -0.8224
  389MOL0     C51271   4.285   7.081   5.477 -0.1259  0.4391 -0.5552
  389MOL0     C51272   4.404   7.132   5.534 -0.0182  0.5166 -0.5053
  389MOL0     C51273   4.488   7.055   5.611 -0.1031 -0.3435  0.5456
  389MOL0     O51274   4.598   7.101   5.671 -0.6337 -1.0229  0.1038
  389MOL0     C51275   4.672   7.204   5.604  0.6528 -0.7428 -1.1758
  389MOL0     C51276   4.761   7.137   5.505 -0.0929 -1.3259  0.4954
  389MOL0     C51277   4.865   7.041   5.578 -0.2238  0.4379 -0.4998
  389MOL0     C51278   4.904   6.915   5.504  0.1915  1.0353  0.6586
  389MOL0     C51279   4.986   6.957   5.397  1.5133 -0.0317  0.0953
  389MOL0     C51280   5.063   7.003   5.317 -0.1469 -0.4208 -0.4895
  389MOL0     C51281   4.446   6.926   5.634  0.2503  0.5924 -0.3978
  389MOL0     C51282   4.333   6.869   5.569  0.1433  0.1970  0.9835
  389MOL0     H51283   3.867   7.121   5.251  1.4453  0.4222  0.7658
  389MOL0     H51284   3.655   7.057   5.162 -0.5012 -1.5147 -0.3462
  389MOL0     H51285   3.482   6.671   5.247  0.4755  0.2210 -0.3707
  389MOL0     H51286   3.471   6.669   5.065  1.6964 -0.0478  0.4390
  389MOL0     H51287   3.269   6.776   5.059  1.6803  0.7040 -1.0371
  389MOL0     H51288   3.286   6.843   5.222 -0.7024 -0.0157 -0.0400
  389MOL0     H51289   3.272   6.594   5.293 -4.4031  0.3001  1.2171
  389MOL0     H51290   3.228   6.552   5.124 -1.0688 -2.2360  1.3616
  389MOL0     H51291   3.090   6.750   5.303  0.9321 -0.7986 -0.4299
  389MOL0     H51292   3.029   6.700   5.142 -2.1372  1.3909  0.6909
  389MOL0     H51293   3.036   6.517   5.392  0.8868 -0.3046  0.0370
  389MOL0     H51294   2.996   6.469   5.222  3.9597  0.4166 -0.8386
  389MOL0     H51295   2.808   6.614   5.213  0.9764 -0.8714  0.3307
  389MOL0     H51296   2.868   6.715   5.346  2.0849 -0.5659  0.8339
  389MOL0     H51297   2.658   6.579   5.409  0.1148  0.7374  0.3721
  389MOL0     H51298   2.755   6.432   5.376 -0.1685  0.3013  1.1515
  389MOL0     H51299   2.835   6.661   5.551  0.8433  0.5180 -1.1597
  389MOL0     H51300   2.900   6.509   5.588  0.9037  2.6748  2.2148
  389MOL0     H51301   2.787   6.638   5.826  1.2462  1.0488 -3.1824
  389MOL0     H51302   2.615   6.644   6.026 -0.0219  0.1777 -1.6214
  389MOL0     H51303   2.485   6.523   6.029 -3.9224  2.5257  1.2430
  389MOL0     H51304   2.336   6.692   5.902  1.5231 -1.4367 -1.2685
  389MOL0     H51305   2.472   6.802   5.888  2.5051  0.9234  1.6749
  389MOL0     H51306   2.320   6.692   6.142 -1.4145  1.7161  1.2625
  389MOL0     H51307   2.477   6.787   6.158 -0.7511  1.1531 -0.0709
  389MOL0     H51308   2.268   6.918   6.001  3.6230  0.7612 -1.6392
  389MOL0     H51309   2.389   6.975   6.111 -0.9877  1.7635 -0.5874
  389MOL0     H51310   2.045   6.986   6.392  1.7777 -2.1037 -0.1841
  389MOL0     H51311   1.818   6.943   6.392 -1.5704  2.6598 -1.9731
  389MOL0     H51312   1.419   7.087   6.209  2.0086  0.1367  0.0374
  389MOL0     H51313   1.167   7.070   6.252  0.4741 -0.5833 -0.7405
  389MOL0     H51314   1.008   6.698   6.433  0.9205  1.5204  0.3955
  389MOL0     H51315   1.008   6.663   6.251 -0.2741  0.2517  0.1075
  389MOL0     H51316   0.788   6.751   6.220  0.8248 -0.8044 -1.0707
  389MOL0     H51317   0.803   6.824   6.379  3.5617  0.1991 -0.4967
  389MOL0     H51318   0.792   6.598   6.483 -0.5037  0.4704  0.6390
  389MOL0     H51319   0.775   6.520   6.323  2.2565 -0.3885  0.1128
  389MOL0     H51320   0.569   6.525   6.453 -1.3353 -0.7072 -1.0832
  389MOL0     H51321   0.577   6.702   6.443  3.6838 -0.8844  3.5766
  389MOL0     H51322   0.556   6.508   6.209  0.9529  0.8851 -0.4606
  389MOL0     H51323   0.538   6.685   6.201  0.2495 -0.5330 -1.7537
  389MOL0     H51324   0.320   6.674   6.320 -0.3013 -0.3247  1.2553
  389MOL0     H51325   0.348   6.513   6.378 -0.4840 -1.3231 -1.4616
  389MOL0     H51326   0.307   6.596   6.082 -1.5569 -1.3615 -1.0012
  389MOL0     H51327   0.311   6.424   6.143  1.7523  0.5572 -0.8804
  389MOL0     H51328   0.119   6.476   6.285 -1.0678  1.2380 -0.3395
  389MOL0     H51329   0.097   6.460   6.114 -2.1733  0.6120  0.5536
  389MOL0     H51330   1.223   6.656   6.368 -2.6413 -0.2412 -1.8135
  389MOL0     H51331   1.463   6.679   6.328  1.8813  2.1035  2.5157
  389MOL0     H51332   1.878   6.715   6.016  0.5094 -0.7345 -0.5956
  389MOL0     H51333   2.095   6.780   6.011 -2.1196 -0.9350 -0.6283
  389MOL0     H51334   3.668   6.673   5.344 -1.0621  0.9140  1.8859
  389MOL0     H51335   3.878   6.734   5.436 -2.3194  0.9306  2.5684
  389MOL0     H51336   4.211   7.145   5.431 -3.3641 -0.8457  2.3643
  389MOL0     H51337   4.409   7.239   5.517  1.6152  0.0081 -4.2175
  389MOL0     H51338   4.727   7.256   5.683  2.0322 -1.8354 -1.3585
  389MOL0     H51339   4.610   7.280   5.556  1.9160  1.7240  0.8523
  389MOL0     H51340   4.691   7.089   5.436  0.8999 -0.6822 -0.9991
  389MOL0     H51341   4.812   7.217   5.450 -1.1318 -0.3175  0.9475
  389MOL0     H51342   4.814   6.998   5.665  0.9152 -0.7131 -0.3621
  389MOL0     H51343   4.957   7.089   5.613  0.5244 -0.5489 -1.0586
  389MOL0     H51344   4.967   6.853   5.570 -1.9327 -2.1264 -0.0693
  389MOL0     H51345   4.816   6.852   5.486  1.7329 -1.4373  1.2008
  389MOL0     H51346   5.133   7.032   5.241  0.6844  1.2096  0.8291
  389MOL0     H51347   4.513   6.860   5.689 -0.7703 -0.1598 -0.0140
  389MOL0     H51348   4.306   6.764   5.577 -0.0604  0.2351  0.8064
  390MOL0     O51349   6.650  10.569   6.533  0.1260  0.3705  0.2615
  390MOL0     C51350   6.758  10.512   6.543 -0.0921 -0.7128 -0.1648
  390MOL0     O51351   6.784  10.383   6.501  0.1779 -0.3611  0.6458
  390MOL0     C51352   6.672  10.303   6.484 -0.4932 -0.7768  0.0917
  390MOL0     C51353   6.663  10.228   6.361 -0.3243 -0.7476 -0.5786
  390MOL0     C51354   6.570  10.133   6.334  0.0891 -0.2684  0.2379
  390MOL0     C51355   6.477  10.098   6.432  0.3537 -1.1255 -0.1879
  390MOL0     O51356   6.384  10.006   6.404 -0.1116  0.7226  0.2725
  390MOL0     C51357   6.246  10.018   6.433  1.0056  0.3270  0.5749
  390MOL0     C51358   6.185   9.890   6.392 -0.2763 -0.4479 -0.9933
  390MOL0     C51359   6.168   9.884   6.238 -0.7064 -0.0301  0.0580
  390MOL0     C51360   6.134   9.737   6.194 -0.4458  0.0728 -0.5744
  390MOL0     C51361   6.076   9.731   6.054  0.7284 -0.4027 -0.0245
  390MOL0     C51362   6.039   9.592   6.000  0.5752  0.1924  0.1776
  390MOL0     C51363   5.929   9.527   6.091 -0.3813  0.4908 -0.0587
  390MOL0     C51364   5.913   9.387   6.040  0.1535  1.3500 -0.0452
  390MOL0     N51365   5.799   9.318   6.107  0.0702  0.1501  0.7861
  390MOL0     C51366   5.785   9.303   6.237 -0.1491  0.4438 -0.0772
  390MOL0     C51367   5.651   9.260   6.255 -0.4425 -0.0679 -0.0739
  390MOL0     C51368   5.577   9.217   6.380 -1.0754  0.1449 -0.0993
  390MOL0     C51369   5.616   9.083   6.431 -0.3399 -0.2415  0.5007
  390MOL0     C51370   5.556   8.967   6.345 -0.1335  0.1592 -0.2746
  390MOL0     C51371   5.602   8.945   6.198  0.2969 -0.4268 -0.2926
  390MOL0     O51372   5.740   8.958   6.194 -0.2437  0.4700 -0.0969
  390MOL0     C51373   5.808   8.965   6.071 -0.0090  0.1560  0.4767
  390MOL0     C51374   5.763   8.886   5.959 -0.0509  0.8417  1.0458
  390MOL0     C51375   5.843   8.894   5.845  0.2440  0.3188  0.4555
  390MOL0     C51376   5.969   8.951   5.845 -0.0744  0.0417 -1.0180
  390MOL0     C51377   6.059   8.953   5.729  0.1542  0.5699 -0.2553
  390MOL0     O51378   6.185   9.005   5.738 -0.0626  0.2534  0.4175
  390MOL0     C51379   6.271   8.991   5.627  0.8216 -0.4655  0.0333
  390MOL0     C51380   6.321   9.114   5.569  0.2114  0.1010 -0.3130
  390MOL0     C51381   6.422   9.104   5.465  0.4080  0.1952  1.0796
  390MOL0     C51382   6.473   8.984   5.423 -0.1324 -0.2281  0.6182
  390MOL0     O51383   6.560   8.986   5.319 -0.0610 -0.3802 -0.3236
  390MOL0     C51384   6.662   8.884   5.338  0.0008 -0.5511  0.0401
  390MOL0     C51385   6.767   8.921   5.243 -0.8335  0.5159 -0.2489
  390MOL0     C51386   6.887   8.819   5.244  0.0804  0.1782  0.4136
  390MOL0     C51387   6.964   8.832   5.117 -0.2994 -0.2620 -0.0307
  390MOL0     C51388   7.104   8.766   5.119 -0.6702 -0.3455 -0.1727
  390MOL0     C51389   7.110   8.618   5.126  0.2462 -0.2277 -0.9910
  390MOL0     C51390   7.248   8.569   5.091  0.8550  0.3942  0.2197
  390MOL0     C51391   7.261   8.430   5.132  0.4654  0.9129  0.0215
  390MOL0    Cl51392   7.397   8.350   5.050 -0.2320  0.2275 -0.1055
  390MOL0     C51393   6.418   8.866   5.471 -0.1358 -0.4272  0.7816
  390MOL0     C51394   6.325   8.870   5.577  0.0938  0.5755  0.0302
  390MOL0     O51395   6.018   8.885   5.635  0.1099 -0.0002 -0.7945
  390MOL0     C51396   6.013   9.014   5.960  0.3473 -0.0196  0.1929
  390MOL0     C51397   5.933   9.022   6.067  0.3179  0.2507 -0.1599
  390MOL0     N51398   5.593   9.275   6.127  0.2365 -0.5337  0.4096
  390MOL0     N51399   5.677   9.310   6.044 -0.4754 -0.3723  0.7487
  390MOL0     C51400   6.477  10.172   6.556 -0.1281 -0.2900 -0.1686
  390MOL0     C51401   6.574  10.276   6.584  0.1821  0.4397  0.3356
  390MOL0     C51402   6.864  10.595   6.603  0.3308  0.5462 -0.2785
  390MOL0     C51403   6.828  10.708   6.682 -0.1863  0.3128  0.3338
  390MOL0     C51404   6.927  10.796   6.733  0.4410  0.3807  0.7992
  390MOL0     C51405   7.060  10.768   6.699 -0.2660  0.8023 -0.2026
  390MOL0     O51406   7.155  10.834   6.766 -0.0269 -0.4921  0.6074
  390MOL0     C51407   7.243  10.922   6.689  1.0554 -0.4054  0.6081
  390MOL0     C51408   7.240  11.062   6.754  0.7538 -0.0879 -0.4098
  390MOL0     C51409   7.130  11.149   6.692 -0.4970  0.2114  1.2408
  390MOL0     C51410   7.105  11.280   6.765  0.8376 -0.1775 -0.5053
  390MOL0     C51411   7.224  11.366   6.751 -0.4145  0.5006 -0.1550
  390MOL0     C51412   7.329  11.427   6.764  0.4115 -0.2288 -0.4381
  390MOL0     C51413   7.096  10.658   6.624  0.3043  1.1466  0.8690
  390MOL0     C51414   7.002  10.577   6.572  0.9480  0.8750 -0.4247
  390MOL0     H51415   6.746  10.243   6.294  0.8741 -0.3508  0.9245
  390MOL0     H51416   6.569  10.094   6.233 -1.0280  1.6133 -0.5237
  390MOL0     H51417   6.211  10.103   6.374 -0.1465 -0.8895 -0.5507
  390MOL0     H51418   6.228  10.032   6.540 -0.3140 -1.4934  0.6409
  390MOL0     H51419   6.086   9.871   6.435 -0.1757  0.6220 -0.2327
  390MOL0     H51420   6.254   9.810   6.423 -2.2140 -1.5862  0.6534
  390MOL0     H51421   6.256   9.924   6.186 -2.0198  0.2020 -2.1299
  390MOL0     H51422   6.082   9.945   6.209  0.0724  0.2238 -1.8907
  390MOL0     H51423   6.222   9.674   6.209  0.7055  2.0996  1.9240
  390MOL0     H51424   6.068   9.686   6.265 -3.0319  2.3621 -1.1927
  390MOL0     H51425   6.145   9.772   5.980  0.8139 -2.2663 -1.0314
  390MOL0     H51426   5.988   9.795   6.064  0.6453 -0.3114 -1.2147
  390MOL0     H51427   6.134   9.539   5.990  1.1660  1.4524 -1.2780
  390MOL0     H51428   6.003   9.596   5.896 -2.7211 -0.0089  1.1818
  390MOL0     H51429   5.973   9.515   6.191 -2.0062  0.7147  0.7073
  390MOL0     H51430   5.835   9.582   6.098 -0.5782 -0.0282  2.7933
  390MOL0     H51431   6.003   9.328   6.059 -0.3720  0.5217 -0.0895
  390MOL0     H51432   5.901   9.382   5.931  1.9192  1.7121 -0.3022
  390MOL0     H51433   5.862   9.326   6.310  0.6120 -1.2730 -0.2814
  390MOL0     H51434   5.468   9.224   6.366 -1.5861  1.0511  3.4977
  390MOL0     H51435   5.588   9.286   6.464 -3.2018  0.3319  0.0943
  390MOL0     H51436   5.569   9.076   6.530  1.5897  1.0964  1.5696
  390MOL0     H51437   5.723   9.073   6.449  0.1513  0.0217 -1.8964
  390MOL0     H51438   5.579   8.870   6.390  0.4929  0.8742  1.0118
  390MOL0     H51439   5.447   8.976   6.341 -0.3144 -0.3925  1.9542
  390MOL0     H51440   5.561   9.028   6.139 -2.7994 -1.6516 -0.0669
  390MOL0     H51441   5.559   8.849   6.169 -3.4552  1.0601 -0.1802
  390MOL0     H51442   5.662   8.846   5.962  0.6655 -1.1098  1.0128
  390MOL0     H51443   5.805   8.859   5.749 -2.1435  2.5711  0.4535
  390MOL0     H51444   6.290   9.213   5.602 -0.0915 -0.9365  2.8226
  390MOL0     H51445   6.457   9.195   5.416 -1.2908 -0.0669 -0.7551
  390MOL0     H51446   6.631   8.782   5.314  0.0643 -1.3888  3.0520
  390MOL0     H51447   6.701   8.885   5.441 -0.7864 -0.3402  0.3448
  390MOL0     H51448   6.813   9.018   5.267  0.5539  0.3815 -2.1868
  390MOL0     H51449   6.734   8.929   5.140  0.7713  0.4417 -0.7943
  390MOL0     H51450   6.853   8.716   5.254  0.4439 -0.1503 -1.3765
  390MOL0     H51451   6.951   8.832   5.332 -0.5704 -0.8094  1.0420
  390MOL0     H51452   6.900   8.790   5.038 -0.6437  1.2393 -0.5895
  390MOL0     H51453   6.980   8.937   5.089 -0.2786 -0.4043 -0.5721
  390MOL0     H51454   7.169   8.810   5.195  1.0958 -1.6633 -0.8700
  390MOL0     H51455   7.147   8.800   5.024  0.8327  1.4061  1.0657
  390MOL0     H51456   7.033   8.567   5.068 -0.3698  1.1341 -1.4269
  390MOL0     H51457   7.076   8.613   5.230  0.3316 -0.0870 -0.9554
  390MOL0     H51458   7.255   8.578   4.982  2.2215 -0.6315  0.2015
  390MOL0     H51459   7.326   8.633   5.133 -0.6808  2.2579  0.3826
  390MOL0     H51460   7.171   8.375   5.104 -0.8072  2.0861  1.5898
  390MOL0     H51461   7.280   8.412   5.239  1.2946  2.1572  0.0956
  390MOL0     H51462   6.458   8.769   5.444  0.5793  0.1405 -0.2604
  390MOL0     H51463   6.297   8.776   5.623 -0.3011  1.0561  0.7829
  390MOL0     H51464   6.104   9.073   5.961  0.7055 -0.5628  0.4172
  390MOL0     H51465   5.972   9.072   6.155  0.1677 -0.9731  0.6265
  390MOL0     H51466   6.403  10.127   6.621  0.8812 -2.0553 -0.1830
  390MOL0     H51467   6.575  10.330   6.678  1.5049  3.1782 -1.1285
  390MOL0     H51468   6.726  10.732   6.708 -0.1890  1.7598 -0.8213
  390MOL0     H51469   6.900  10.866   6.812  1.8845  0.1282  1.5597
  390MOL0     H51470   7.221  10.936   6.583  0.6355  2.7945  1.0230
  390MOL0     H51471   7.349  10.895   6.681  1.3797  1.3802 -3.1751
  390MOL0     H51472   7.216  11.048   6.860  3.4025  2.1913  0.6378
  390MOL0     H51473   7.340  11.108   6.756  0.7505 -0.0711 -0.5964
  390MOL0     H51474   7.035  11.095   6.681  0.3285 -1.2217  0.8193
  390MOL0     H51475   7.173  11.183   6.598 -0.9484 -1.7986  0.2411
  390MOL0     H51476   7.019  11.328   6.718  0.4912  1.6571  1.8362
  390MOL0     H51477   7.074  11.274   6.870  0.4106  2.3199 -0.4119
  390MOL0     H51478   7.421  11.476   6.787  0.5892  0.9488 -3.2693
  390MOL0     H51479   7.199  10.635   6.600 -0.0371 -0.0021  0.3999
  390MOL0     H51480   7.022  10.488   6.512 -1.0055 -0.3226  0.5892
  391MOL0     O51481   4.116   5.688   1.101  0.7180  0.1607 -0.2958
  391MOL0     C51482   4.126   5.668   1.223  0.0304  0.5157 -0.3474
  391MOL0     O51483   4.028   5.634   1.310 -0.2186 -0.5612  0.0353
  391MOL0     C51484   3.896   5.604   1.277  0.2917 -0.2826 -0.5199
  391MOL0     C51485   3.814   5.662   1.183 -0.0626  0.4507 -0.4272
  391MOL0     C51486   3.676   5.624   1.167 -0.0669  0.4271 -0.3306
  391MOL0     C51487   3.634   5.507   1.224  0.5596 -0.1847 -1.2315
  391MOL0     O51488   3.508   5.453   1.203 -0.8053 -0.0806 -0.8248
  391MOL0     C51489   3.412   5.540   1.257  0.3942  0.0397 -0.1941
  391MOL0     C51490   3.315   5.467   1.347  0.6618  0.5191 -0.0307
  391MOL0     C51491   3.237   5.355   1.284  0.0055 -0.2011  0.7042
  391MOL0     C51492   3.183   5.245   1.375 -0.2417 -0.5302  0.1048
  391MOL0     C51493   3.055   5.182   1.313 -0.3251  0.4291 -0.5901
  391MOL0     C51494   3.001   5.054   1.391  0.4985 -0.1505 -0.4779
  391MOL0     C51495   2.861   5.019   1.335 -0.1536  0.0396  0.3384
  391MOL0     C51496   2.814   4.899   1.410 -0.0428 -0.8381 -0.0706
  391MOL0     N51497   2.715   4.918   1.515  0.0464 -0.7270  0.0391
  391MOL0     C51498   2.582   4.947   1.490 -0.1382 -0.0632  0.3995
  391MOL0     C51499   2.542   5.012   1.606  0.4209 -0.0848 -0.5159
  391MOL0     C51500   2.406   5.076   1.633 -1.0599  0.8197  0.2903
  391MOL0     C51501   2.411   5.225   1.600 -1.0528  0.2089  1.1677
  391MOL0     C51502   2.266   5.280   1.582 -0.0767 -0.1248  0.7870
  391MOL0     C51503   2.209   5.275   1.435 -0.6459  0.5117 -0.9717
  391MOL0     O51504   2.201   5.132   1.401  0.7159  0.3308 -0.1689
  391MOL0     C51505   2.088   5.066   1.442  0.5381  0.2524 -0.6272
  391MOL0     C51506   1.955   5.122   1.458 -0.2688  0.2193 -0.8514
  391MOL0     C51507   1.848   5.045   1.486 -0.5681  0.6520 -0.3656
  391MOL0     C51508   1.861   4.905   1.508 -0.1155 -0.0282 -0.6617
  391MOL0     C51509   1.748   4.821   1.542  0.0504  0.5067  0.3692
  391MOL0     O51510   1.777   4.696   1.569 -0.9200  0.8488 -0.4159
  391MOL0     C51511   1.685   4.591   1.563 -0.1205 -0.4212  0.8316
  391MOL0     C51512   1.694   4.492   1.467 -0.4314 -0.1741 -0.2302
  391MOL0     C51513   1.595   4.396   1.469 -0.2040  0.1721 -0.0808
  391MOL0     C51514   1.487   4.392   1.565 -0.0560 -0.5887 -0.1115
  391MOL0     O51515   1.387   4.302   1.579 -0.4365  0.5501  0.2951
  391MOL0     C51516   1.395   4.177   1.500  0.9998 -0.9166 -1.0591
  391MOL0     C51517   1.330   4.070   1.583  0.1087  0.6044 -0.2684
  391MOL0     C51518   1.187   4.045   1.554  0.8288  0.6665 -0.0455
  391MOL0     C51519   1.117   3.938   1.658 -0.6051  0.1242  0.6351
  391MOL0     C51520   0.971   3.935   1.610  0.6133 -0.2732 -0.3693
  391MOL0     C51521   0.905   3.807   1.663  0.8454 -0.2808 -0.3698
  391MOL0     C51522   0.751   3.819   1.636  0.8250 -0.7547  0.8126
  391MOL0     C51523   0.664   3.722   1.716  0.0309  0.1717  0.4705
  391MOL0    Cl51524   0.499   3.771   1.719  0.1521 -0.6076  0.0183
  391MOL0     C51525   1.474   4.503   1.653 -0.7052 -0.1322 -0.4463
  391MOL0     C51526   1.580   4.600   1.651  0.4038 -0.3708 -0.8005
  391MOL0     O51527   1.638   4.867   1.506 -0.0538  0.1759  0.6995
  391MOL0     C51528   1.990   4.844   1.496  0.3997  0.5097  0.3984
  391MOL0     C51529   2.099   4.923   1.448  0.1990 -0.0078 -0.5280
  391MOL0     N51530   2.650   5.013   1.698  0.1063 -0.2596  0.7467
  391MOL0     N51531   2.747   4.958   1.645 -0.1175 -0.7391 -0.1453
  391MOL0     C51532   3.713   5.451   1.326 -0.3244 -0.0501 -0.7957
  391MOL0     C51533   3.842   5.505   1.344  0.0750 -0.1845 -0.1939
  391MOL0     C51534   4.255   5.685   1.284 -0.1854  0.0724  0.2605
  391MOL0     C51535   4.285   5.650   1.420  0.0175  0.4138  0.4602
  391MOL0     C51536   4.409   5.677   1.479  0.7171  0.1066 -0.7672
  391MOL0     C51537   4.505   5.751   1.406 -0.2134  0.3020  0.1368
  391MOL0     O51538   4.617   5.775   1.482  0.2129  0.1700 -0.7694
  391MOL0     C51539   4.681   5.900   1.458 -0.5529  0.6237  0.7369
  391MOL0     C51540   4.585   6.017   1.477  0.2472  0.7753 -0.1628
  391MOL0     C51541   4.659   6.130   1.542  0.2414  0.8510  0.1471
  391MOL0     C51542   4.573   6.251   1.572  0.0218 -0.0256 -1.3831
  391MOL0     C51543   4.550   6.332   1.460  1.0201 -0.0388  0.0791
  391MOL0     C51544   4.532   6.417   1.375 -0.0736  0.0196  0.2219
  391MOL0     C51545   4.486   5.785   1.272  0.7274  0.3217  0.5643
  391MOL0     C51546   4.363   5.742   1.211  0.3158 -0.3058  0.1608
  391MOL0     H51547   3.856   5.749   1.133  4.2312 -2.2737 -2.0892
  391MOL0     H51548   3.599   5.669   1.105 -1.2357  0.3690  0.9982
  391MOL0     H51549   3.354   5.583   1.175  1.9798  1.3047 -0.6988
  391MOL0     H51550   3.444   5.626   1.318 -0.3568  0.0824  0.1476
  391MOL0     H51551   3.243   5.537   1.391 -4.3623 -1.2274 -4.3869
  391MOL0     H51552   3.375   5.430   1.430  3.0374  0.0403 -1.8644
  391MOL0     H51553   3.309   5.303   1.219 -0.6359  3.0492 -2.9633
  391MOL0     H51554   3.163   5.400   1.217  0.3844 -0.4208  0.1261
  391MOL0     H51555   3.252   5.162   1.391 -0.5748 -1.4178 -2.4923
  391MOL0     H51556   3.155   5.288   1.471 -0.5767 -3.8677  1.6068
  391MOL0     H51557   3.075   5.153   1.209  0.9290 -0.4003 -0.1450
  391MOL0     H51558   2.968   5.247   1.307 -2.1332 -1.9458 -2.0938
  391MOL0     H51559   2.988   5.083   1.496 -2.2984 -2.4390 -0.0649
  391MOL0     H51560   3.075   4.976   1.371  1.2636  0.8290 -1.6578
  391MOL0     H51561   2.786   5.098   1.346  1.6718  1.8237  0.5050
  391MOL0     H51562   2.877   4.991   1.230 -0.0164 -3.0827  1.0837
  391MOL0     H51563   2.902   4.857   1.461 -0.5646  0.8665  2.3955
  391MOL0     H51564   2.779   4.836   1.328 -0.8607  0.0925 -0.4475
  391MOL0     H51565   2.531   4.948   1.394  0.1244 -0.4536  0.2559
  391MOL0     H51566   2.372   5.062   1.736 -0.0835  0.3631  0.5656
  391MOL0     H51567   2.334   5.023   1.571  0.5148 -1.2339  0.0836
  391MOL0     H51568   2.466   5.245   1.508 -0.1092 -3.2686  0.8671
  391MOL0     H51569   2.465   5.283   1.676  0.0332  0.3499  0.2990
  391MOL0     H51570   2.203   5.225   1.653  0.5388 -2.6091 -0.4825
  391MOL0     H51571   2.257   5.388   1.602 -1.7234  0.5513 -2.7947
  391MOL0     H51572   2.270   5.337   1.369  0.0521  1.7679  0.7756
  391MOL0     H51573   2.106   5.313   1.435 -1.0598 -0.5981 -0.4136
  391MOL0     H51574   1.935   5.228   1.453  2.0082  0.7973  0.4933
  391MOL0     H51575   1.757   5.097   1.513 -0.6878  0.9965 -1.3924
  391MOL0     H51576   1.766   4.488   1.386  1.7151 -0.3590  1.5933
  391MOL0     H51577   1.608   4.318   1.394  2.7131  1.3890 -0.9642
  391MOL0     H51578   1.499   4.147   1.480  0.8741 -0.6027 -2.2882
  391MOL0     H51579   1.338   4.191   1.408  1.5044  0.1309 -1.2253
  391MOL0     H51580   1.353   4.094   1.687 -2.4669  0.6477  0.3661
  391MOL0     H51581   1.383   3.976   1.561  0.9837  1.2938 -1.2272
  391MOL0     H51582   1.177   4.007   1.452 -0.0833 -0.1672  0.3428
  391MOL0     H51583   1.135   4.141   1.564  2.9805  1.9500 -0.4632
  391MOL0     H51584   1.181   3.850   1.654  2.9157  2.5558 -1.5715
  391MOL0     H51585   1.115   3.974   1.761 -2.0040  2.6736 -0.1889
  391MOL0     H51586   0.967   3.939   1.500  2.1609  0.2264 -0.4393
  391MOL0     H51587   0.938   4.025   1.662  4.8648  1.4186 -0.2039
  391MOL0     H51588   0.930   3.786   1.767  0.3786  1.7948  0.2047
  391MOL0     H51589   0.940   3.721   1.605 -1.9765 -1.5680 -0.3062
  391MOL0     H51590   0.727   3.921   1.669  0.7667  0.0126 -1.4575
  391MOL0     H51591   0.737   3.812   1.528  0.9430 -0.3251  0.7696
  391MOL0     H51592   0.706   3.702   1.815 -0.4078 -0.9672  0.4456
  391MOL0     H51593   0.655   3.624   1.667  2.3258  0.9814 -1.7379
  391MOL0     H51594   1.396   4.519   1.727 -0.4445 -1.9221  0.2649
  391MOL0     H51595   1.577   4.683   1.721 -0.9113 -0.5412 -0.6308
  391MOL0     H51596   1.994   4.737   1.515 -1.3787  0.7770  2.6481
  391MOL0     H51597   2.182   4.862   1.415  0.0739 -2.2549  2.7626
  391MOL0     H51598   3.676   5.378   1.397  0.6487 -0.5392 -0.7764
  391MOL0     H51599   3.910   5.471   1.421  1.8504  1.4632 -0.9444
  391MOL0     H51600   4.217   5.594   1.483  1.2353 -2.9186 -0.9494
  391MOL0     H51601   4.424   5.650   1.583  1.9047  1.4289 -0.5685
  391MOL0     H51602   4.720   5.907   1.356 -0.9051 -0.0434  0.5511
  391MOL0     H51603   4.766   5.911   1.527 -0.8441  1.6299  0.9496
  391MOL0     H51604   4.543   6.043   1.379  0.6540  1.9751 -0.0420
  391MOL0     H51605   4.505   5.987   1.546 -1.1599  4.0645 -0.1475
  391MOL0     H51606   4.740   6.166   1.479  1.1426  0.2714  0.9370
  391MOL0     H51607   4.702   6.104   1.639 -0.5720 -0.4662  0.1718
  391MOL0     H51608   4.472   6.234   1.610 -0.0937  0.2957 -1.5432
  391MOL0     H51609   4.622   6.305   1.654  1.1927 -1.8480 -0.8506
  391MOL0     H51610   4.538   6.494   1.301 -0.7858  0.0598  0.2074
  391MOL0     H51611   4.576   5.826   1.227  1.0122 -1.6674 -0.7860
  391MOL0     H51612   4.354   5.748   1.103  0.6809  2.8708  0.2149
  392MOL0     O51613   1.641   3.644   2.421 -0.5384  0.4902  0.2039
  392MOL0     C51614   1.602   3.711   2.327 -1.4237  0.0493  0.4444
  392MOL0     O51615   1.464   3.716   2.288 -0.0239  0.4314  0.5267
  392MOL0     C51616   1.369   3.644   2.351 -0.9419 -0.6107 -0.8023
  392MOL0     C51617   1.357   3.600   2.486  0.5367 -0.1212  0.0360
  392MOL0     C51618   1.248   3.526   2.528  0.1167  0.5586 -0.3918
  392MOL0     C51619   1.136   3.509   2.452  0.4856 -0.9991  0.6268
  392MOL0     O51620   1.029   3.444   2.505 -0.7568  0.1021  0.3442
  392MOL0     C51621   0.904   3.483   2.465  0.4358  0.1678  0.0941
  392MOL0     C51622   0.792   3.404   2.535 -0.4261  0.1784  0.8523
  392MOL0     C51623   0.661   3.403   2.458 -0.4444 -1.1149 -0.0092
  392MOL0     C51624   0.584   3.273   2.487  0.3167 -0.1405  1.0859
  392MOL0     C51625   0.448   3.290   2.415 -0.1247 -0.6768 -0.5836
  392MOL0     C51626   0.376   3.161   2.409 -0.0927  0.0320  0.6018
  392MOL0     C51627   0.232   3.194   2.353 -0.0159 -0.3018  0.5213
  392MOL0     C51628   0.217   3.270   2.213  0.3016  0.2922 -0.0447
  392MOL0     N51629   0.079   3.281   2.162  0.0750  0.4406  0.6959
  392MOL0     C51630  -0.023   3.343   2.230  0.3666 -1.1161  0.1565
  392MOL0     C51631  -0.122   3.361   2.138 -0.4079 -0.2897  0.0858
  392MOL0     C51632  -0.257   3.433   2.166  0.3684  0.3081 -0.1291
  392MOL0     C51633  -0.377   3.348   2.116 -0.1660 -0.2086  0.5441
  392MOL0     C51634  -0.475   3.420   2.024  0.0325 -0.1311 -0.4046
  392MOL0     C51635  -0.583   3.322   1.980  0.2976  0.1175 -0.5122
  392MOL0     O51636  -0.663   3.378   1.876  0.2620 -0.1289 -0.8089
  392MOL0     C51637  -0.793   3.337   1.872 -0.0608 -0.3608 -0.7787
  392MOL0     C51638  -0.824   3.203   1.862  0.3809 -0.2670  0.7326
  392MOL0     C51639  -0.961   3.164   1.836 -1.3715 -0.4684  0.5940
  392MOL0     C51640  -1.055   3.270   1.819 -0.2172 -0.0263 -0.1056
  392MOL0     C51641  -1.197   3.244   1.797  0.5857  0.2356  0.0229
  392MOL0     O51642  -1.282   3.345   1.816 -0.0957 -0.4109 -0.3561
  392MOL0     C51643  -1.412   3.323   1.775 -0.8269 -0.1034  0.1216
  392MOL0     C51644  -1.443   3.278   1.644  0.8540 -0.0975 -0.0113
  392MOL0     C51645  -1.576   3.264   1.600 -0.0651  0.4420  0.4274
  392MOL0     C51646  -1.680   3.308   1.683  0.3056  0.7963 -0.4475
  392MOL0     O51647  -1.812   3.321   1.648  0.0810 -0.4486  0.1380
  392MOL0     C51648  -1.848   3.250   1.528 -0.5592 -0.0713  0.6955
  392MOL0     C51649  -1.999   3.260   1.533  0.2605 -0.2388 -0.1600
  392MOL0     C51650  -2.069   3.243   1.398  0.1502  0.0469 -0.3222
  392MOL0     C51651  -2.221   3.278   1.396  0.6722 -0.1063  0.7192
  392MOL0     C51652  -2.305   3.230   1.271 -0.5952  0.2263  0.0271
  392MOL0     C51653  -2.263   3.318   1.149  0.1397 -0.3023 -0.9870
  392MOL0     C51654  -2.363   3.282   1.034  0.0289  0.4194 -0.3650
  392MOL0     C51655  -2.499   3.343   1.036  0.6104  0.5985  0.0285
  392MOL0    Cl51656  -2.596   3.274   0.893 -0.2448 -0.3030 -0.0646
  392MOL0     C51657  -1.650   3.332   1.818  0.3623  0.5444 -0.3942
  392MOL0     C51658  -1.514   3.349   1.858  0.5714 -0.3812  0.2884
  392MOL0     O51659  -1.230   3.129   1.758 -1.4328  0.1042 -0.2066
  392MOL0     C51660  -1.016   3.404   1.847 -0.7146 -0.1912  0.5535
  392MOL0     C51661  -0.885   3.442   1.868 -0.3525  0.0278  0.2189
  392MOL0     N51662  -0.082   3.304   2.014 -0.4440  0.1912 -0.7383
  392MOL0     N51663   0.039   3.262   2.033  0.9885 -0.4455 -0.9006
  392MOL0     C51664   1.138   3.563   2.321 -0.0745 -0.0601 -0.6383
  392MOL0     C51665   1.258   3.622   2.274  0.4049  0.4871 -0.5045
  392MOL0     C51666   1.703   3.789   2.253 -0.7939 -0.8272  0.6073
  392MOL0     C51667   1.831   3.813   2.305 -0.1232  0.1003 -0.0689
  392MOL0     C51668   1.938   3.872   2.229  0.3668  0.2204  0.0047
  392MOL0     C51669   1.906   3.914   2.099  0.6466 -0.6206  0.2869
  392MOL0     O51670   1.991   3.973   2.010  0.7079 -0.4607  1.1128
  392MOL0     C51671   2.128   3.973   2.018  0.1468  1.0321  0.2231
  392MOL0     C51672   2.197   3.965   1.883  0.4495 -0.1744  0.2581
  392MOL0     C51673   2.135   3.864   1.788  0.3284  0.2585  0.5243
  392MOL0     C51674   2.197   3.873   1.642  1.2233 -0.7950 -0.1448
  392MOL0     C51675   2.340   3.829   1.636  0.5012 -0.4724 -0.4654
  392MOL0     C51676   2.445   3.793   1.665  0.5422 -0.4094 -0.5196
  392MOL0     C51677   1.774   3.899   2.049 -0.0238 -0.5766 -0.0225
  392MOL0     C51678   1.676   3.830   2.129 -0.9127  0.3685 -0.6390
  392MOL0     H51679   1.436   3.623   2.557  2.3986 -1.8066 -1.3960
  392MOL0     H51680   1.240   3.484   2.628  0.6378  0.2563 -0.4739
  392MOL0     H51681   0.892   3.467   2.357  3.3005 -2.8343  0.0713
  392MOL0     H51682   0.893   3.589   2.489 -0.1670  0.3061 -0.7501
  392MOL0     H51683   0.784   3.432   2.641  3.2959 -1.9646  1.8929
  392MOL0     H51684   0.823   3.300   2.550  0.7103  0.7164  2.6788
  392MOL0     H51685   0.682   3.414   2.351  0.7164 -2.8918 -0.0221
  392MOL0     H51686   0.613   3.499   2.478  0.3051 -0.9153  0.8880
  392MOL0     H51687   0.636   3.187   2.443 -0.8238  0.6980 -2.2364
  392MOL0     H51688   0.582   3.246   2.593  0.2900 -2.4435  0.5478
  392MOL0     H51689   0.468   3.324   2.313  2.4484  0.6316  0.2609
  392MOL0     H51690   0.387   3.370   2.459  2.5089  1.6930 -0.9178
  392MOL0     H51691   0.366   3.118   2.509  0.9383  1.1542  1.2201
  392MOL0     H51692   0.430   3.088   2.349 -1.3481 -1.3057  1.0444
  392MOL0     H51693   0.187   3.099   2.324  0.8798 -0.5602 -0.0413
  392MOL0     H51694   0.169   3.223   2.438  0.2466 -1.4061  1.1104
  392MOL0     H51695   0.274   3.219   2.134  0.2122 -0.0271  0.0954
  392MOL0     H51696   0.263   3.369   2.219  2.1128 -0.4386 -1.0406
  392MOL0     H51697  -0.023   3.384   2.330  1.0841  3.4025 -1.4575
  392MOL0     H51698  -0.262   3.525   2.107 -2.2021 -0.4302 -1.2195
  392MOL0     H51699  -0.266   3.446   2.274 -1.1308 -1.4967  0.0053
  392MOL0     H51700  -0.428   3.305   2.203  0.3509 -1.7330  0.1293
  392MOL0     H51701  -0.341   3.261   2.060 -1.0876  0.8692 -1.8378
  392MOL0     H51702  -0.513   3.506   2.080 -1.3985 -1.6504  1.0852
  392MOL0     H51703  -0.437   3.458   1.929 -0.6639 -0.2414 -0.7305
  392MOL0     H51704  -0.650   3.283   2.058  0.8308  0.1379 -0.0390
  392MOL0     H51705  -0.524   3.238   1.942  2.9969  1.6721 -0.0168
  392MOL0     H51706  -0.742   3.132   1.867  0.6703 -0.0661 -0.7717
  392MOL0     H51707  -0.973   3.062   1.801  2.2877 -1.5341  1.9457
  392MOL0     H51708  -1.360   3.267   1.575 -0.4134 -0.4984 -1.5228
  392MOL0     H51709  -1.597   3.246   1.495  2.1632 -2.3908  0.3563
  392MOL0     H51710  -1.810   3.147   1.527  2.1644  0.7943  2.9389
  392MOL0     H51711  -1.800   3.291   1.439 -0.1536 -0.0813  0.9077
  392MOL0     H51712  -2.028   3.357   1.573  0.4132 -0.3866  0.3130
  392MOL0     H51713  -2.046   3.195   1.608 -0.9129 -0.3360 -0.9406
  392MOL0     H51714  -2.057   3.146   1.350 -0.2615  0.2666 -0.8907
  392MOL0     H51715  -2.019   3.314   1.331 -0.6267  1.4603  0.5403
  392MOL0     H51716  -2.276   3.228   1.476 -1.3986 -1.5689 -1.4959
  392MOL0     H51717  -2.231   3.387   1.405 -0.1692 -0.2232  1.2877
  392MOL0     H51718  -2.414   3.225   1.284 -0.7254 -0.2796 -1.1222
  392MOL0     H51719  -2.287   3.123   1.257 -1.1423 -0.1835  2.1336
  392MOL0     H51720  -2.165   3.282   1.116  0.9329  0.8030  0.0893
  392MOL0     H51721  -2.262   3.427   1.159  1.9609 -0.4587  1.0778
  392MOL0     H51722  -2.310   3.306   0.942  2.5801  0.6401  1.0848
  392MOL0     H51723  -2.367   3.173   1.027  5.0499  0.0283 -0.1415
  392MOL0     H51724  -2.487   3.452   1.029 -1.1648  0.7337 -1.7924
  392MOL0     H51725  -2.542   3.312   1.131  1.2379 -1.4374 -0.3047
  392MOL0     H51726  -1.729   3.351   1.890 -0.1786 -1.3695 -0.4268
  392MOL0     H51727  -1.498   3.379   1.961 -1.1389 -1.0931  0.8034
  392MOL0     H51728  -1.084   3.488   1.856  1.6869  1.8012  1.0854
  392MOL0     H51729  -0.852   3.544   1.882 -0.2326 -0.2314  2.1956
  392MOL0     H51730   1.050   3.552   2.259 -1.6836  1.2312  1.2809
  392MOL0     H51731   1.252   3.663   2.174 -3.8115 -0.1510 -0.6795
  392MOL0     H51732   1.864   3.779   2.402 -0.4430 -1.0771 -0.3429
  392MOL0     H51733   2.034   3.893   2.275  0.6244  0.3303 -0.5733
  392MOL0     H51734   2.164   3.886   2.073  1.8020  1.9592  0.6897
  392MOL0     H51735   2.159   4.066   2.066 -0.1581  1.4206 -0.3194
  392MOL0     H51736   2.193   4.066   1.842 -3.4831  0.0997  1.0061
  392MOL0     H51737   2.301   3.934   1.901  0.3837 -0.7980 -0.3606
  392MOL0     H51738   2.027   3.874   1.784  0.4689  1.7320 -0.0090
  392MOL0     H51739   2.155   3.763   1.826  1.7162 -0.0129 -0.8089
  392MOL0     H51740   2.124   3.811   1.590 -0.3745  1.9483 -1.3858
  392MOL0     H51741   2.174   3.971   1.599  0.0167 -0.2092  1.7218
  392MOL0     H51742   2.540   3.752   1.694  1.5158  1.2898 -1.1640
  392MOL0     H51743   1.753   3.933   1.948  0.6205  0.9444  0.3419
  392MOL0     H51744   1.579   3.809   2.085 -1.5768  1.6485  0.1632
  393MOL0     O51745   8.634  10.368   6.054  0.1109 -0.0030 -0.6109
  393MOL0     C51746   8.735  10.413   6.001 -1.1351  0.0686 -0.5419
  393MOL0     O51747   8.750  10.460   5.867  0.1250  0.6496 -0.3115
  393MOL0     C51748   8.633  10.467   5.796 -0.4960 -0.3108 -0.1085
  393MOL0     C51749   8.524  10.557   5.822  0.5013  0.4583  0.7500
  393MOL0     C51750   8.411  10.556   5.730  0.9895 -0.3285 -0.3137
  393MOL0     C51751   8.410  10.463   5.624 -0.9938  0.0143  0.1830
  393MOL0     O51752   8.318  10.448   5.529  0.3420 -0.3779 -0.0698
  393MOL0     C51753   8.192  10.507   5.547  0.0494  0.1945 -0.0123
  393MOL0     C51754   8.110  10.489   5.425  0.3711 -0.6079  0.2142
  393MOL0     C51755   7.956  10.490   5.462  0.3981 -0.1193 -0.1968
  393MOL0     C51756   7.861  10.445   5.341 -0.2088  0.4030 -0.5342
  393MOL0     C51757   7.717  10.421   5.373  0.5443 -0.2204 -1.0673
  393MOL0     C51758   7.649  10.558   5.394  0.2514  0.3585 -0.8210
  393MOL0     C51759   7.498  10.540   5.415 -0.0750 -0.4282 -0.5354
  393MOL0     C51760   7.434  10.682   5.465  0.1785 -0.9624 -0.4466
  393MOL0     N51761   7.299  10.649   5.501  0.3477 -0.1934 -0.1919
  393MOL0     C51762   7.196  10.704   5.430 -0.2969  0.2387  0.1046
  393MOL0     C51763   7.086  10.680   5.498  0.1060 -0.2632 -0.3262
  393MOL0     C51764   6.950  10.699   5.444 -0.6150 -0.4330  0.9196
  393MOL0     C51765   6.944  10.845   5.404 -0.0540 -0.3682 -0.2800
  393MOL0     C51766   6.801  10.880   5.364 -0.3013 -0.5911  0.3767
  393MOL0     C51767   6.694  10.810   5.458  0.3862 -0.4435  0.9323
  393MOL0     O51768   6.570  10.875   5.426 -0.0699 -0.1845 -0.5062
  393MOL0     C51769   6.459  10.816   5.485 -1.4764  0.4736  0.5913
  393MOL0     C51770   6.463  10.704   5.569 -0.3813  0.5387  0.0024
  393MOL0     C51771   6.346  10.646   5.610  0.1526 -0.7563  0.6412
  393MOL0     C51772   6.219  10.706   5.574 -0.1812  0.0505  0.6130
  393MOL0     C51773   6.095  10.648   5.635 -0.3999 -0.2116 -0.0576
  393MOL0     O51774   6.098  10.540   5.721  0.2077  0.2472 -0.5571
  393MOL0     C51775   5.975  10.505   5.765  0.5498  0.5731 -0.5708
  393MOL0     C51776   5.885  10.588   5.842 -0.2199  0.2192 -0.0372
  393MOL0     C51777   5.761  10.542   5.885  1.1073  0.6277 -0.0081
  393MOL0     C51778   5.716  10.408   5.855 -1.0518  0.1008  0.6285
  393MOL0     O51779   5.592  10.372   5.882 -0.0839 -0.2234  0.4760
  393MOL0     C51780   5.539  10.242   5.872 -0.5583 -0.1910 -0.0652
  393MOL0     C51781   5.392  10.239   5.896 -1.3058  0.8388 -0.3391
  393MOL0     C51782   5.348  10.104   5.967  0.1009 -0.4227  0.3854
  393MOL0     C51783   5.189  10.089   5.991 -0.1397  0.0162 -0.8289
  393MOL0     C51784   5.171   9.979   6.095  0.8296  0.9193 -0.9514
  393MOL0     C51785   5.017   9.953   6.111  0.3390 -0.1023  0.3622
  393MOL0     C51786   4.989   9.848   6.220 -0.3761 -0.4136  0.0290
  393MOL0     C51787   4.836   9.817   6.233 -0.1315  1.3267  0.7070
  393MOL0    Cl51788   4.810   9.671   6.339 -0.1743  0.0182 -0.1512
  393MOL0     C51789   5.803  10.328   5.768  0.3131 -0.4039  0.3981
  393MOL0     C51790   5.932  10.374   5.739 -0.1148  0.3100 -0.0460
  393MOL0     O51791   5.993  10.713   5.605 -0.0046  0.2021 -0.3609
  393MOL0     C51792   6.223  10.823   5.500 -0.6177 -0.8758  0.5044
  393MOL0     C51793   6.346  10.875   5.447  0.8428  0.2046  0.6327
  393MOL0     N51794   7.124  10.622   5.615  0.2679  0.3243 -0.0116
  393MOL0     N51795   7.248  10.591   5.616 -0.3004 -0.4067  0.2278
  393MOL0     C51796   8.508  10.369   5.606  0.1901  0.3151 -0.1138
  393MOL0     C51797   8.621  10.371   5.692  0.8343 -0.3534  0.0803
  393MOL0     C51798   8.856  10.412   6.086 -0.7913 -0.2745 -0.4623
  393MOL0     C51799   8.980  10.458   6.030 -0.2590  0.8855 -0.1360
  393MOL0     C51800   9.097  10.455   6.110 -0.3335  0.2904 -0.3053
  393MOL0     C51801   9.088  10.409   6.239  1.0376  0.0316  0.0324
  393MOL0     O51802   9.199  10.420   6.317  0.5076  0.3873 -0.5364
  393MOL0     C51803   9.239  10.294   6.387 -0.4255 -0.4597 -0.5770
  393MOL0     C51804   9.230  10.298   6.534 -0.0267  0.3222 -0.5337
  393MOL0     C51805   9.264  10.170   6.599  0.2254  0.0354  0.2234
  393MOL0     C51806   9.230  10.162   6.746 -0.0565  0.4642 -0.3957
  393MOL0     C51807   9.084  10.171   6.760  0.3171  0.0357 -0.3966
  393MOL0     C51808   8.962  10.197   6.759  0.4009  0.6251 -0.8153
  393MOL0     C51809   8.966  10.368   6.295  0.0561  0.9466  0.0850
  393MOL0     C51810   8.857  10.367   6.215 -0.0400  0.1095  0.4037
  393MOL0     H51811   8.528  10.630   5.902 -2.1148  1.5056  0.0251
  393MOL0     H51812   8.332  10.631   5.733  0.8531 -0.3048 -2.6403
  393MOL0     H51813   8.187  10.609   5.584  0.2131 -0.2699  1.3366
  393MOL0     H51814   8.152  10.445   5.628  2.1308  2.3322  2.8415
  393MOL0     H51815   8.129  10.397   5.370 -0.6459 -1.2159  0.8597
  393MOL0     H51816   8.131  10.579   5.365 -3.8673 -0.0035 -0.6545
  393MOL0     H51817   7.932  10.588   5.504  1.2239  0.1186 -0.2443
  393MOL0     H51818   7.933  10.436   5.554  1.1814 -0.2747 -0.0815
  393MOL0     H51819   7.861  10.526   5.267 -0.0858  1.5789  0.7255
  393MOL0     H51820   7.897  10.350   5.300 -1.6741  0.0134 -0.9727
  393MOL0     H51821   7.709  10.361   5.464  0.0213 -0.1102 -1.0351
  393MOL0     H51822   7.675  10.374   5.284  0.6550 -1.0711 -0.6845
  393MOL0     H51823   7.663  10.621   5.306 -0.3115  0.7388 -0.6390
  393MOL0     H51824   7.689  10.599   5.488 -1.8013  2.0316 -0.6126
  393MOL0     H51825   7.445  10.516   5.323 -1.8252 -1.8250  0.7789
  393MOL0     H51826   7.470  10.456   5.479 -1.7267  0.3439 -0.1936
  393MOL0     H51827   7.444  10.763   5.393  0.4972  0.0332  0.6822
  393MOL0     H51828   7.486  10.711   5.557  1.1760 -2.3012 -0.5505
  393MOL0     H51829   7.216  10.752   5.335  0.2991  3.0438  1.5631
  393MOL0     H51830   6.886  10.684   5.531 -3.4969 -0.5289 -1.0582
  393MOL0     H51831   6.925  10.644   5.352 -1.1075  1.4162 -0.0968
  393MOL0     H51832   7.002  10.862   5.314 -1.1101 -2.9953 -1.5555
  393MOL0     H51833   6.980  10.913   5.483 -3.6668  1.7802 -0.2418
  393MOL0     H51834   6.791  10.989   5.367 -0.2347 -0.5425 -0.7390
  393MOL0     H51835   6.785  10.855   5.259 -1.8443  0.1548  0.4120
  393MOL0     H51836   6.716  10.829   5.564  1.9127 -0.2182  0.5880
  393MOL0     H51837   6.689  10.704   5.432  0.4436 -0.1249 -0.4496
  393MOL0     H51838   6.558  10.663   5.601 -0.3163 -0.9840 -1.9225
  393MOL0     H51839   6.356  10.560   5.675  0.1672 -1.6287 -0.5004
  393MOL0     H51840   5.927  10.685   5.867  4.3500 -0.3058 -4.1135
  393MOL0     H51841   5.703  10.605   5.951  2.5093  2.2780 -0.2665
  393MOL0     H51842   5.591  10.174   5.941 -1.6992 -0.5047  0.5144
  393MOL0     H51843   5.557  10.208   5.769  2.4084  0.2916  0.1921
  393MOL0     H51844   5.357  10.241   5.793 -1.6167  0.5259 -0.2429
  393MOL0     H51845   5.358  10.328   5.950 -0.3811  1.5218 -0.8514
  393MOL0     H51846   5.398  10.105   6.065  1.3400 -3.8359 -0.0969
  393MOL0     H51847   5.395  10.033   5.900  0.6360  1.7373 -1.6659
  393MOL0     H51848   5.136  10.182   6.016 -0.4926  0.2275 -2.3141
  393MOL0     H51849   5.145  10.060   5.896 -0.0166 -1.0551 -0.5656
  393MOL0     H51850   5.213  10.015   6.189 -2.0151  0.5279  0.5786
  393MOL0     H51851   5.226   9.887   6.072 -1.2176 -0.7596  0.3627
  393MOL0     H51852   4.978   9.915   6.016 -3.1678  1.2080  1.1222
  393MOL0     H51853   4.962  10.039   6.149  0.7922  0.7066 -0.7442
  393MOL0     H51854   5.047   9.759   6.194  0.3685 -0.0942  0.5587
  393MOL0     H51855   5.018   9.877   6.322 -0.5401  0.7697 -0.2528
  393MOL0     H51856   4.789   9.788   6.139  1.1661 -2.1489  0.9866
  393MOL0     H51857   4.771   9.897   6.270 -2.1927 -0.3237  0.8183
  393MOL0     H51858   5.776  10.231   5.727 -3.3575  0.6509 -0.0540
  393MOL0     H51859   5.995  10.305   5.683  2.5668 -0.9741  4.0802
  393MOL0     H51860   6.142  10.893   5.482 -0.3487 -0.3576  1.2574
  393MOL0     H51861   6.341  10.954   5.373 -1.3359 -0.5281 -0.0851
  393MOL0     H51862   8.508  10.290   5.532  0.7693 -1.3484  1.5762
  393MOL0     H51863   8.698  10.299   5.667  0.7882 -0.3656 -0.0275
  393MOL0     H51864   8.974  10.502   5.931  1.3753  0.5302 -0.4249
  393MOL0     H51865   9.197  10.495   6.094  1.6374 -2.6524  3.2078
  393MOL0     H51866   9.343  10.273   6.359  0.4581 -1.5660  3.0136
  393MOL0     H51867   9.170  10.215   6.356 -2.0045  0.0241  1.4677
  393MOL0     H51868   9.279  10.390   6.568 -0.7723  0.0113  1.5289
  393MOL0     H51869   9.122  10.318   6.542  0.2821  1.4757  1.7880
  393MOL0     H51870   9.367  10.137   6.580 -0.9193 -2.0444 -3.4087
  393MOL0     H51871   9.212  10.089   6.549  1.2333  1.8195 -4.1677
  393MOL0     H51872   9.260  10.064   6.785 -0.7216  1.0805  1.7680
  393MOL0     H51873   9.284  10.239   6.801  1.9322 -0.9063 -0.3300
  393MOL0     H51874   8.857  10.214   6.763  0.2814 -0.1674 -0.3889
  393MOL0     H51875   8.952  10.331   6.396  2.3514  3.9078  1.6596
  393MOL0     H51876   8.767  10.328   6.261 -1.4916  1.2018 -1.3481
  394MOL0     O51877   6.402   7.238   0.997  0.7415  1.1247  0.3313
  394MOL0     C51878   6.441   7.133   1.043 -0.3601  0.3469 -0.4081
  394MOL0     O51879   6.368   7.050   1.120 -0.1453  0.2413 -0.1222
  394MOL0     C51880   6.232   7.093   1.145 -0.0052  1.0147  0.5745
  394MOL0     C51881   6.127   7.098   1.039 -0.7267  0.8070  0.7191
  394MOL0     C51882   5.993   7.123   1.077 -0.0085  1.3257 -0.9246
  394MOL0     C51883   5.967   7.152   1.213 -0.3344  0.5604  1.1395
  394MOL0     O51884   5.831   7.186   1.238 -0.1259  0.0913  0.6264
  394MOL0     C51885   5.771   7.206   1.362  0.5897 -0.3167 -1.1479
  394MOL0     C51886   5.630   7.269   1.342  0.5390 -0.3312 -0.4521
  394MOL0     C51887   5.562   7.282   1.481 -0.1765  0.5097 -0.3214
  394MOL0     C51888   5.411   7.326   1.470  0.1064  0.3699 -0.7122
  394MOL0     C51889   5.356   7.343   1.610 -0.2152 -0.4905  0.6968
  394MOL0     C51890   5.257   7.470   1.616  0.1132  0.0209 -0.5755
  394MOL0     C51891   5.306   7.606   1.578 -1.2465  0.2560 -0.3270
  394MOL0     C51892   5.208   7.714   1.595  0.4492 -0.4361 -0.2776
  394MOL0     N51893   5.194   7.761   1.732  0.3509  0.4337 -0.1305
  394MOL0     C51894   5.087   7.755   1.812  0.5322 -0.6233  0.7785
  394MOL0     C51895   5.131   7.790   1.934 -0.4886  0.3021 -0.9485
  394MOL0     C51896   5.036   7.810   2.050  0.7268 -0.1021  0.0208
  394MOL0     C51897   5.065   7.712   2.162  0.2828 -0.1554 -0.5924
  394MOL0     C51898   4.950   7.675   2.263 -0.0611 -0.3409 -0.3271
  394MOL0     C51899   4.920   7.805   2.347 -1.0660  1.0106 -0.2410
  394MOL0     O51900   4.824   7.779   2.447 -0.0886  0.3140  0.4286
  394MOL0     C51901   4.692   7.774   2.409  0.7303  0.6823  0.7568
  394MOL0     C51902   4.599   7.767   2.516 -0.2225  0.0119  0.3369
  394MOL0     C51903   4.464   7.766   2.486 -0.1804 -0.2821 -0.6252
  394MOL0     C51904   4.406   7.769   2.353 -0.7534 -0.0396 -0.2247
  394MOL0     C51905   4.259   7.759   2.330 -0.5712  0.5551  0.1609
  394MOL0     O51906   4.180   7.761   2.440 -0.6994  0.3517 -0.2449
  394MOL0     C51907   4.052   7.799   2.424  0.4046 -0.4772  0.2702
  394MOL0     C51908   3.991   7.877   2.312  0.4260 -0.5792 -0.1050
  394MOL0     C51909   3.856   7.898   2.312 -0.6043  0.0113 -0.9645
  394MOL0     C51910   3.781   7.874   2.427  0.4779  1.0528 -0.1200
  394MOL0     O51911   3.645   7.913   2.414 -0.0561 -0.2580  0.1239
  394MOL0     C51912   3.559   7.850   2.509  0.3024 -0.2139 -0.1191
  394MOL0     C51913   3.520   7.700   2.493 -0.3473  0.4589  0.2320
  394MOL0     C51914   3.451   7.682   2.351 -0.1926  0.3444 -0.8285
  394MOL0     C51915   3.308   7.731   2.346 -0.0594 -0.0169 -1.4145
  394MOL0     C51916   3.289   7.850   2.265  1.1129  0.0613 -0.5337
  394MOL0     C51917   3.140   7.893   2.242  0.0412 -0.7056 -0.0048
  394MOL0     C51918   3.120   8.011   2.157 -0.3292 -0.3260 -0.5179
  394MOL0     C51919   2.979   8.073   2.169 -0.0710  0.0647  0.3825
  394MOL0    Cl51920   2.842   7.962   2.147  0.2347 -0.0874 -0.0107
  394MOL0     C51921   3.845   7.805   2.539  0.4346  0.2002  0.1738
  394MOL0     C51922   3.975   7.752   2.524 -0.1778 -0.3937  0.0484
  394MOL0     O51923   4.225   7.755   2.213  0.0605 -0.0855 -0.3319
  394MOL0     C51924   4.504   7.763   2.253 -0.2994 -0.5912  0.1760
  394MOL0     C51925   4.640   7.771   2.278 -0.1671 -0.3895 -0.5278
  394MOL0     N51926   5.268   7.825   1.927  0.3604 -0.3963  0.2694
  394MOL0     N51927   5.301   7.804   1.805 -0.2105  0.6005 -0.1439
  394MOL0     C51928   6.065   7.154   1.300 -0.3593  0.3931  0.2307
  394MOL0     C51929   6.201   7.122   1.278  0.5356  0.5953  0.8751
  394MOL0     C51930   6.586   7.105   1.042 -0.0206  0.3427 -0.0914
  394MOL0     C51931   6.678   7.202   1.001  0.1409 -1.7097 -0.6063
  394MOL0     C51932   6.815   7.178   1.000 -0.3287 -0.2415 -0.5675
  394MOL0     C51933   6.857   7.051   1.032 -0.5336  0.7288  0.7738
  394MOL0     O51934   6.993   7.023   1.005 -0.0274  0.6778  0.6872
  394MOL0     C51935   7.059   6.903   1.045 -0.0603  0.0612 -0.0954
  394MOL0     C51936   7.211   6.925   1.042 -0.0438  0.0209 -0.3110
  394MOL0     C51937   7.273   6.789   1.055 -0.8205 -0.8954 -0.6088
  394MOL0     C51938   7.429   6.783   1.088  0.4174  0.2959  0.2600
  394MOL0     C51939   7.505   6.906   1.062  0.5830  0.3595 -0.0995
  394MOL0     C51940   7.583   7.000   1.037  1.5039 -0.3123  0.1211
  394MOL0     C51941   6.758   6.944   1.057 -0.9330  0.5322  0.2053
  394MOL0     C51942   6.625   6.970   1.055  1.0040 -0.5557  0.3067
  394MOL0     H51943   6.152   7.085   0.935 -0.7714  2.0352  0.5451
  394MOL0     H51944   5.920   7.131   0.997 -0.7288  1.3570 -0.2805
  394MOL0     H51945   5.822   7.283   1.421 -2.5435 -0.8569  2.6980
  394MOL0     H51946   5.762   7.113   1.418  3.1190 -0.3307 -0.6308
  394MOL0     H51947   5.563   7.213   1.276 -1.5759  3.0820 -1.4790
  394MOL0     H51948   5.636   7.375   1.317 -0.8163  0.1039  0.9072
  394MOL0     H51949   5.623   7.350   1.540  1.6592  0.7137 -2.3406
  394MOL0     H51950   5.562   7.183   1.529 -1.3967  0.1676 -0.9739
  394MOL0     H51951   5.396   7.420   1.417 -3.3912 -0.2966 -1.1793
  394MOL0     H51952   5.353   7.252   1.413  1.0090  0.9382 -2.4347
  394MOL0     H51953   5.434   7.373   1.680 -0.6187  0.3515  0.7932
  394MOL0     H51954   5.311   7.249   1.644 -0.5764 -0.0859  1.3562
  394MOL0     H51955   5.215   7.482   1.717  1.2308  2.4667 -0.3354
  394MOL0     H51956   5.167   7.440   1.563 -2.1508  1.5987  2.0999
  394MOL0     H51957   5.401   7.628   1.629 -0.5410  1.6907 -2.1431
  394MOL0     H51958   5.326   7.606   1.471  4.0925 -3.1761  0.3009
  394MOL0     H51959   5.109   7.684   1.560  0.9077 -3.2144  0.5831
  394MOL0     H51960   5.242   7.797   1.533 -0.8292 -0.2621 -0.7781
  394MOL0     H51961   4.984   7.734   1.785  0.4190 -3.9362  3.1037
  394MOL0     H51962   4.938   7.779   2.016  1.3497 -1.4054 -0.6330
  394MOL0     H51963   5.034   7.914   2.086  0.3311 -0.6906  1.8008
  394MOL0     H51964   5.153   7.744   2.218  1.8773 -4.5292 -0.2299
  394MOL0     H51965   5.102   7.618   2.119  1.6947 -0.0903  0.4133
  394MOL0     H51966   4.869   7.630   2.206 -1.7851  0.2388  1.5548
  394MOL0     H51967   4.982   7.596   2.332 -0.2910 -0.0307  0.1406
  394MOL0     H51968   4.884   7.887   2.284 -0.9783  0.3586 -1.1639
  394MOL0     H51969   5.015   7.838   2.392  0.7642 -2.2003 -1.3893
  394MOL0     H51970   4.619   7.758   2.622 -3.0508  1.0626  1.0363
  394MOL0     H51971   4.389   7.787   2.561  0.3335  1.7200 -0.6058
  394MOL0     H51972   4.036   7.925   2.226 -1.7632  0.4028 -0.7621
  394MOL0     H51973   3.807   7.954   2.234 -1.2402  0.1263 -0.4953
  394MOL0     H51974   3.463   7.903   2.507 -0.5385 -1.6936 -0.5261
  394MOL0     H51975   3.601   7.880   2.605 -0.8726  1.1744  0.0061
  394MOL0     H51976   3.459   7.671   2.579  0.6594 -0.1766  0.7624
  394MOL0     H51977   3.608   7.637   2.511  0.5971  0.7485 -2.8213
  394MOL0     H51978   3.447   7.575   2.328 -0.3603 -0.0555  0.9075
  394MOL0     H51979   3.517   7.729   2.279  2.2040  1.2795  1.7902
  394MOL0     H51980   3.246   7.650   2.306 -0.6824 -0.7236  0.8218
  394MOL0     H51981   3.261   7.748   2.443  3.5682 -1.1308  0.7297
  394MOL0     H51982   3.326   7.831   2.164  2.3007  4.2381 -1.0539
  394MOL0     H51983   3.344   7.930   2.315  2.4556 -1.4679  0.5702
  394MOL0     H51984   3.090   7.912   2.338 -0.4985 -0.6926 -0.2890
  394MOL0     H51985   3.090   7.812   2.189 -0.8846 -0.2357  0.1313
  394MOL0     H51986   3.189   8.093   2.178  1.4750 -1.5648 -1.3053
  394MOL0     H51987   3.145   7.988   2.053  2.2672  0.5960 -0.1637
  394MOL0     H51988   2.977   8.146   2.087 -3.1140  1.3846  1.4808
  394MOL0     H51989   2.962   8.120   2.266  1.2358  1.1470  0.1117
  394MOL0     H51990   3.784   7.770   2.622 -0.7241  1.6350 -0.0137
  394MOL0     H51991   4.023   7.691   2.599  1.1659  0.5579 -0.0121
  394MOL0     H51992   4.486   7.749   2.147  0.0008 -4.2425  0.4685
  394MOL0     H51993   4.705   7.764   2.191  1.3130  0.9288  0.4259
  394MOL0     H51994   6.038   7.173   1.404  1.2434 -0.6467  0.8803
  394MOL0     H51995   6.275   7.123   1.358  0.0529 -0.3541  1.3520
  394MOL0     H51996   6.646   7.300   0.967  2.7018  0.2790  2.2309
  394MOL0     H51997   6.897   7.243   0.971  0.9079 -1.4855 -0.0311
  394MOL0     H51998   7.030   6.831   0.967  0.2300  1.1363 -1.2216
  394MOL0     H51999   7.029   6.875   1.146 -2.0701  0.5307 -0.5075
  394MOL0     H52000   7.243   6.967   0.945  0.1009  0.1927 -0.1897
  394MOL0     H52001   7.232   6.991   1.127  1.1205  0.5199 -0.9549
  394MOL0     H52002   7.270   6.746   0.955  1.8975 -0.8387 -0.7801
  394MOL0     H52003   7.217   6.726   1.126 -1.3570 -0.0364 -0.2413
  394MOL0     H52004   7.435   6.767   1.197 -1.8645 -0.8461  0.2895
  394MOL0     H52005   7.459   6.690   1.038 -0.2375 -0.8045  1.8135
  394MOL0     H52006   7.651   7.081   1.018  0.8218  0.0445 -0.8868
  394MOL0     H52007   6.796   6.843   1.065 -0.8572  0.6348  1.3988
  394MOL0     H52008   6.554   6.888   1.054 -1.7320  1.6598 -0.5442
  395MOL0     O52009   1.146   5.563   4.304 -0.2421 -0.7787  0.0335
  395MOL0     C52010   1.223   5.473   4.346 -0.0197 -0.3899  0.2747
  395MOL0     O52011   1.175   5.353   4.404  0.3089 -1.0127 -0.7288
  395MOL0     C52012   1.040   5.345   4.405 -0.6886  0.8662 -0.7002
  395MOL0     C52013   0.965   5.392   4.510  0.5096 -0.0323 -0.8728
  395MOL0     C52014   0.821   5.384   4.517 -0.3277 -1.3669  0.2296
  395MOL0     C52015   0.760   5.321   4.408 -0.6853  0.2120  0.4072
  395MOL0     O52016   0.624   5.325   4.419  0.4532  0.1034  0.4993
  395MOL0     C52017   0.551   5.278   4.307 -0.1555  0.4815 -0.1379
  395MOL0     C52018   0.397   5.284   4.343  0.0451  0.2948 -0.1267
  395MOL0     C52019   0.315   5.294   4.208  1.0159  0.9924  0.3263
  395MOL0     C52020   0.164   5.295   4.253  0.6315 -0.1554  0.3131
  395MOL0     C52021   0.062   5.298   4.142  0.9101  0.5436  0.6448
  395MOL0     C52022   0.079   5.177   4.044  0.0426 -0.4858 -0.4328
  395MOL0     C52023  -0.053   5.174   3.963 -0.1464  0.2076 -0.1781
  395MOL0     C52024  -0.060   5.040   3.885  0.6514 -0.6230  0.0077
  395MOL0     N52025  -0.176   5.028   3.800 -0.5613 -0.6089  0.0335
  395MOL0     C52026  -0.298   5.055   3.850  0.0904 -0.6818  0.3584
  395MOL0     C52027  -0.368   5.114   3.747 -0.3203 -0.5151  0.0071
  395MOL0     C52028  -0.513   5.159   3.738  0.5345  0.5615  0.6543
  395MOL0     C52029  -0.593   5.059   3.651  0.1903  0.8572  0.5470
  395MOL0     C52030  -0.740   5.092   3.620 -0.0428 -0.9274 -0.4990
  395MOL0     C52031  -0.832   5.105   3.747 -0.0182  0.4562  0.3179
  395MOL0     O52032  -0.969   5.134   3.707  0.6562  0.4802 -0.0648
  395MOL0     C52033  -1.050   5.042   3.666 -0.4328  0.2162  0.0085
  395MOL0     C52034  -1.181   5.086   3.634 -0.3836 -0.3738 -0.8947
  395MOL0     C52035  -1.275   4.999   3.588 -1.1004  0.5226  0.4720
  395MOL0     C52036  -1.232   4.865   3.553 -0.3506 -0.3975 -0.2405
  395MOL0     C52037  -1.333   4.779   3.478 -0.6517  0.1432  0.5489
  395MOL0     O52038  -1.433   4.838   3.417  0.7310  0.2150  0.1626
  395MOL0     C52039  -1.551   4.775   3.390 -0.1180  0.0099  0.0225
  395MOL0     C52040  -1.595   4.657   3.450  0.5832 -0.1724  0.7522
  395MOL0     C52041  -1.719   4.600   3.412 -0.4252 -0.6332  0.2520
  395MOL0     C52042  -1.803   4.660   3.308 -0.9501 -0.2244  0.1429
  395MOL0     O52043  -1.931   4.631   3.276  0.2922  0.1780 -1.0472
  395MOL0     C52044  -1.997   4.530   3.353  0.8267 -0.8274  0.3269
  395MOL0     C52045  -2.141   4.519   3.296 -0.0066 -0.1194 -0.1329
  395MOL0     C52046  -2.138   4.417   3.182 -0.0706  0.2204  0.7187
  395MOL0     C52047  -2.275   4.418   3.119  0.2378 -0.1796 -0.5892
  395MOL0     C52048  -2.286   4.333   2.991  0.0559  0.2452  0.8058
  395MOL0     C52049  -2.413   4.344   2.908  0.3967  0.5802 -0.3991
  395MOL0     C52050  -2.540   4.359   2.994 -0.4158  0.0445  0.4846
  395MOL0     C52051  -2.662   4.350   2.890  0.1366  0.0635 -0.4774
  395MOL0    Cl52052  -2.674   4.173   2.842 -0.1500 -0.1590 -0.0956
  395MOL0     C52053  -1.756   4.776   3.256 -0.7567  0.8593  0.0218
  395MOL0     C52054  -1.636   4.837   3.294  0.1472 -0.4042 -0.2200
  395MOL0     O52055  -1.311   4.658   3.470 -0.8121 -0.1223 -0.4665
  395MOL0     C52056  -1.102   4.818   3.596  0.0208  0.9121 -0.6990
  395MOL0     C52057  -1.021   4.907   3.652 -0.4564 -0.2518  0.0836
  395MOL0     N52058  -0.286   5.111   3.635 -0.1826 -0.0661  0.4018
  395MOL0     N52059  -0.172   5.064   3.664  0.2188  0.3810 -0.3596
  395MOL0     C52060   0.838   5.262   4.304 -0.8972 -0.0603  0.4068
  395MOL0     C52061   0.979   5.273   4.307  0.1252  0.0839 -0.0280
  395MOL0     C52062   1.374   5.486   4.333  0.5580  0.2995 -0.5099
  395MOL0     C52063   1.435   5.610   4.328  0.1482 -0.1905 -0.5162
  395MOL0     C52064   1.570   5.624   4.336 -0.3318  0.5346  0.5585
  395MOL0     C52065   1.650   5.514   4.344 -0.0789 -0.7968 -0.8060
  395MOL0     O52066   1.779   5.544   4.352 -0.1599 -0.2203 -0.3379
  395MOL0     C52067   1.847   5.469   4.453 -0.2625 -0.5184 -0.2410
  395MOL0     C52068   1.990   5.505   4.460  0.1514  0.4547 -0.5864
  395MOL0     C52069   2.005   5.653   4.508  0.4128  0.5881 -0.6471
  395MOL0     C52070   2.144   5.715   4.519 -0.5529 -1.1228  0.2934
  395MOL0     C52071   2.204   5.736   4.385  0.5481  0.3406  0.6896
  395MOL0     C52072   2.254   5.756   4.271  0.1370 -0.6471 -0.2184
  395MOL0     C52073   1.591   5.389   4.354 -0.3748  0.0344 -0.0512
  395MOL0     C52074   1.445   5.372   4.346 -1.9697  0.6320 -0.1444
  395MOL0     H52075   1.021   5.453   4.581 -2.0122  0.5329  0.7915
  395MOL0     H52076   0.760   5.434   4.591 -1.2871 -2.3523  0.1389
  395MOL0     H52077   0.564   5.171   4.288 -0.3056  0.8861 -2.9559
  395MOL0     H52078   0.574   5.327   4.212 -3.2754  1.3074 -0.5886
  395MOL0     H52079   0.378   5.375   4.401 -3.8790 -1.1499  1.1664
  395MOL0     H52080   0.390   5.195   4.407  3.4389 -0.4033 -0.5377
  395MOL0     H52081   0.342   5.209   4.145 -2.5576  0.7624 -1.1006
  395MOL0     H52082   0.326   5.389   4.155  1.4821 -0.0078 -1.4529
  395MOL0     H52083   0.142   5.204   4.309 -1.9363  0.3523  0.2643
  395MOL0     H52084   0.152   5.381   4.320  0.2752  0.8221 -0.9568
  395MOL0     H52085   0.083   5.392   4.090 -0.7418  1.2102  1.1278
  395MOL0     H52086  -0.039   5.291   4.183 -0.2193  0.9687 -1.8833
  395MOL0     H52087   0.087   5.086   4.103  1.1957  1.4594  2.6828
  395MOL0     H52088   0.170   5.185   3.984  0.5934 -4.4162 -0.3328
  395MOL0     H52089  -0.137   5.183   4.033 -1.0490 -2.2418 -0.8645
  395MOL0     H52090  -0.064   5.260   3.896 -1.3326 -0.3262 -0.6981
  395MOL0     H52091  -0.040   4.954   3.948 -0.1523 -1.5472 -0.9693
  395MOL0     H52092   0.021   5.041   3.811 -0.0674 -2.6318 -0.8603
  395MOL0     H52093  -0.340   5.044   3.950 -2.2183  3.5526  0.1068
  395MOL0     H52094  -0.498   5.256   3.691  2.7261 -1.0675 -2.3534
  395MOL0     H52095  -0.558   5.176   3.837  0.7646 -1.2661  1.1148
  395MOL0     H52096  -0.598   4.963   3.703  0.0186 -0.8581 -2.3840
  395MOL0     H52097  -0.540   5.041   3.557 -0.2910  1.5718  0.1286
  395MOL0     H52098  -0.726   5.183   3.561 -1.1903 -2.3187 -3.0373
  395MOL0     H52099  -0.776   5.014   3.552  1.8477 -2.5831  0.3154
  395MOL0     H52100  -0.787   5.184   3.809  1.1220  1.1778 -1.3658
  395MOL0     H52101  -0.827   5.017   3.811 -0.3110  0.5584  0.4811
  395MOL0     H52102  -1.201   5.193   3.632  0.1429 -0.1690  1.3266
  395MOL0     H52103  -1.376   5.032   3.564 -0.7971  1.7183  0.8160
  395MOL0     H52104  -1.540   4.606   3.528  1.7435 -1.0898 -0.6252
  395MOL0     H52105  -1.758   4.511   3.462  0.3591 -0.8825  0.4392
  395MOL0     H52106  -2.009   4.561   3.458 -2.0489 -0.7642  0.0627
  395MOL0     H52107  -1.949   4.434   3.373  1.7672 -0.4593 -0.0855
  395MOL0     H52108  -2.181   4.613   3.258  0.8510  0.4708  0.3955
  395MOL0     H52109  -2.207   4.482   3.376  0.7383 -1.9412 -0.3001
  395MOL0     H52110  -2.118   4.319   3.226  1.0064 -0.1964 -0.6258
  395MOL0     H52111  -2.061   4.441   3.107 -0.2657  1.2841  0.8348
  395MOL0     H52112  -2.340   4.376   3.195  0.1432  0.6731 -0.1819
  395MOL0     H52113  -2.306   4.521   3.099  3.2769  0.8592 -0.5631
  395MOL0     H52114  -2.298   4.234   3.035 -4.1485  1.1447  2.0888
  395MOL0     H52115  -2.202   4.336   2.921 -0.1090 -3.6829  0.1811
  395MOL0     H52116  -2.424   4.267   2.831 -2.0829  1.6688 -1.2383
  395MOL0     H52117  -2.399   4.436   2.850 -0.5818 -0.3093 -2.1070
  395MOL0     H52118  -2.550   4.273   3.062 -3.7137 -1.1918 -1.3407
  395MOL0     H52119  -2.550   4.456   3.043 -0.6152  0.0611  0.4134
  395MOL0     H52120  -2.630   4.411   2.805  1.8566 -0.0758  0.0325
  395MOL0     H52121  -2.749   4.380   2.949  3.0072  2.0585  3.1842
  395MOL0     H52122  -1.820   4.818   3.179 -2.0846  0.0400  0.6446
  395MOL0     H52123  -1.597   4.925   3.244 -2.9484  1.2353 -0.0457
  395MOL0     H52124  -1.071   4.715   3.582  3.2711  1.8136 -0.9124
  395MOL0     H52125  -0.920   4.875   3.677 -0.3444 -0.6623 -0.8384
  395MOL0     H52126   0.795   5.208   4.221  1.7113 -0.3952 -0.8126
  395MOL0     H52127   1.044   5.238   4.227  1.0904 -0.2169  0.8645
  395MOL0     H52128   1.376   5.701   4.317 -0.1633 -0.3190  0.0534
  395MOL0     H52129   1.619   5.721   4.338  0.4293  0.1548  0.6705
  395MOL0     H52130   1.842   5.364   4.424  2.4262  0.0914 -3.4821
  395MOL0     H52131   1.790   5.502   4.540 -2.3701 -0.4606 -1.5821
  395MOL0     H52132   2.033   5.434   4.532  0.7363  1.9833  0.6130
  395MOL0     H52133   2.044   5.499   4.365 -1.3230 -0.2573 -1.4132
  395MOL0     H52134   1.961   5.659   4.608 -0.4420  1.4477 -1.0694
  395MOL0     H52135   1.936   5.714   4.450 -0.5530 -2.6519 -3.2074
  395MOL0     H52136   2.136   5.812   4.568  3.4415 -1.0537  1.1425
  395MOL0     H52137   2.214   5.659   4.582 -0.3016 -1.3508 -0.1897
  395MOL0     H52138   2.288   5.752   4.170 -0.6632  0.6048 -0.5616
  395MOL0     H52139   1.651   5.298   4.361 -1.2084 -0.4291  1.6019
  395MOL0     H52140   1.404   5.272   4.358  0.7844 -0.3854  1.9214
  396MOL0     O52141   0.721   3.481   9.922 -0.0529 -0.2656 -0.0886
  396MOL0     C52142   0.739   3.424  10.031 -1.0747  0.1100  0.6422
  396MOL0     O52143   0.676   3.316  10.070  0.0744  0.3922  0.1215
  396MOL0     C52144   0.575   3.249  10.001 -0.2822 -0.7523 -0.6731
  396MOL0     C52145   0.498   3.310   9.905 -0.0232 -0.3163  0.5034
  396MOL0     C52146   0.409   3.230   9.838  0.6609  0.5216  0.5356
  396MOL0     C52147   0.383   3.097   9.870  0.1683 -0.0895 -0.3387
  396MOL0     O52148   0.304   3.037   9.788  0.4446  0.1242 -0.5583
  396MOL0     C52149   0.294   2.897   9.790  0.5805 -0.1363  0.2511
  396MOL0     C52150   0.180   2.862   9.689  1.0479  0.7139 -0.3197
  396MOL0     C52151   0.034   2.900   9.740  0.3621 -0.2742 -0.5247
  396MOL0     C52152  -0.069   2.934   9.634  0.0542 -0.4810  0.1923
  396MOL0     C52153  -0.210   2.952   9.700  0.2483 -1.3513  0.9896
  396MOL0     C52154  -0.311   2.993   9.589  1.0430 -0.3607  0.3966
  396MOL0     C52155  -0.453   2.952   9.631  0.6153 -0.3642  0.0683
  396MOL0     C52156  -0.511   3.057   9.734 -0.3553 -0.1389  0.2337
  396MOL0     N52157  -0.644   3.031   9.793  0.3744 -0.5410 -0.1160
  396MOL0     C52158  -0.670   2.999   9.919  0.0306 -0.5125 -0.7352
  396MOL0     C52159  -0.801   2.970   9.930  0.2358 -0.2981 -0.0538
  396MOL0     C52160  -0.883   2.942  10.048  0.6478  0.1096 -0.2118
  396MOL0     C52161  -0.955   3.057  10.106  0.6691 -0.4531 -0.2858
  396MOL0     C52162  -1.008   3.058  10.245 -0.7007  0.2171 -0.0724
  396MOL0     C52163  -1.124   2.960  10.255 -0.0361  0.4733 -0.3700
  396MOL0     O52164  -1.250   2.996  10.179 -0.4585 -0.0733 -0.4675
  396MOL0     C52165  -1.346   3.071  10.250  0.0545 -0.8767 -1.1551
  396MOL0     C52166  -1.330   3.147  10.367 -0.2248  0.5968  0.2286
  396MOL0     C52167  -1.441   3.187  10.434  1.2536  0.0266 -0.3120
  396MOL0     C52168  -1.576   3.167  10.391 -0.4054  0.1866 -0.5499
  396MOL0     C52169  -1.694   3.205  10.471  0.3750  0.2047 -0.9095
  396MOL0     O52170  -1.820   3.174  10.430 -0.0429  0.2422  0.6708
  396MOL0     C52171  -1.921   3.197  10.514  0.6545  0.3290  0.0893
  396MOL0     C52172  -2.002   3.090  10.548 -0.9963 -0.8193  0.4931
  396MOL0     C52173  -2.115   3.116  10.624  0.2767  0.7161 -0.3696
  396MOL0     C52174  -2.145   3.233  10.689  0.6737 -0.2001  0.7946
  396MOL0     O52175  -2.261   3.233  10.761 -0.0765 -0.6385 -0.6181
  396MOL0     C52176  -2.313   3.363  10.785 -0.3270  0.0904 -0.8732
  396MOL0     C52177  -2.457   3.351  10.839  0.2817  0.1846 -0.1095
  396MOL0     C52178  -2.497   3.482  10.907 -0.4419  0.0782  0.4390
  396MOL0     C52179  -2.645   3.465  10.963 -0.0802  0.2696  0.4129
  396MOL0     C52180  -2.721   3.598  11.006 -0.4563  0.6644  0.2784
  396MOL0     C52181  -2.867   3.558  11.050 -0.3314 -0.0307  0.1049
  396MOL0     C52182  -2.976   3.607  10.958 -1.1375 -0.1686 -0.1784
  396MOL0     C52183  -3.052   3.731  11.011 -0.0568  0.5554  0.7915
  396MOL0    Cl52184  -3.154   3.819  10.888 -0.1556  0.0534  0.3375
  396MOL0     C52185  -2.075   3.346  10.648 -0.5616 -0.0839 -0.2259
  396MOL0     C52186  -1.967   3.327  10.558  0.1380  0.1907  0.2237
  396MOL0     O52187  -1.675   3.251  10.587 -0.2900 -0.2270  0.1010
  396MOL0     C52188  -1.587   3.108  10.268  0.0027  0.2549  0.9123
  396MOL0     C52189  -1.477   3.060  10.204 -0.1069  0.2704  0.1621
  396MOL0     N52190  -0.863   2.988   9.805 -0.7102  0.9306 -0.1370
  396MOL0     N52191  -0.764   3.014   9.725  0.2656 -0.5745 -0.5245
  396MOL0     C52192   0.467   3.031   9.959 -0.2155  0.3638  0.3461
  396MOL0     C52193   0.556   3.115  10.036  0.0062 -0.1376  0.0663
  396MOL0     C52194   0.847   3.478  10.119  0.8160  0.0398 -0.4939
  396MOL0     C52195   0.853   3.426  10.250 -0.0342  0.4179 -0.1250
  396MOL0     C52196   0.950   3.468  10.345 -0.1253 -0.1000  1.2485
  396MOL0     C52197   1.044   3.573  10.312  0.9626 -0.0639 -0.7373
  396MOL0     O52198   1.132   3.631  10.398  0.0009  0.2040  0.3184
  396MOL0     C52199   1.139   3.574  10.532  0.7653  0.4936  0.3796
  396MOL0     C52200   1.258   3.646  10.587 -0.4924  0.2201 -1.1322
  396MOL0     C52201   1.237   3.801  10.614 -0.4799  0.2518 -0.0417
  396MOL0     C52202   1.124   3.825  10.717  0.9393  0.6048 -0.4675
  396MOL0     C52203   1.091   3.971  10.725  0.8331  0.4012  0.1318
  396MOL0     C52204   1.062   4.083  10.750  0.7685 -0.2651 -0.3902
  396MOL0     C52205   1.022   3.628  10.182  1.0268  0.2417 -0.5015
  396MOL0     C52206   0.925   3.581  10.086 -0.5424  0.1210  0.2292
  396MOL0     H52207   0.504   3.416   9.884 -0.5474  0.0544  2.1124
  396MOL0     H52208   0.351   3.271   9.756  1.4292 -0.4232 -0.5335
  396MOL0     H52209   0.267   2.866   9.891 -3.0471 -1.3795 -0.9494
  396MOL0     H52210   0.387   2.854   9.751 -1.5496 -2.4115 -2.7938
  396MOL0     H52211   0.171   2.757   9.661 -0.3102  1.2178 -1.9773
  396MOL0     H52212   0.199   2.919   9.597  1.7297  1.7249  0.4295
  396MOL0     H52213   0.040   2.986   9.809  0.6592  1.5377 -2.7060
  396MOL0     H52214   0.007   2.816   9.805  0.1866 -0.8303 -1.3026
  396MOL0     H52215  -0.043   3.028   9.585  1.5035 -0.1442  1.5287
  396MOL0     H52216  -0.072   2.854   9.560 -2.1428 -1.0760  0.8395
  396MOL0     H52217  -0.208   3.027   9.779 -0.9524 -2.0577  1.7187
  396MOL0     H52218  -0.245   2.869   9.762  0.2633 -0.3972  2.3158
  396MOL0     H52219  -0.284   2.944   9.495  0.7330 -2.1996  1.2233
  396MOL0     H52220  -0.304   3.099   9.564  0.1258 -0.4501 -0.3100
  396MOL0     H52221  -0.519   2.952   9.544 -0.6952  1.8795  0.9754
  396MOL0     H52222  -0.443   2.848   9.665 -0.8651 -1.0201 -1.3926
  396MOL0     H52223  -0.526   3.154   9.685  3.0236  0.1135 -0.5922
  396MOL0     H52224  -0.435   3.070   9.811  0.0266 -0.1454 -0.1355
  396MOL0     H52225  -0.599   3.001  10.001 -0.6035  1.2760 -0.1789
  396MOL0     H52226  -0.817   2.901  10.124 -2.1324 -1.4010  1.5429
  396MOL0     H52227  -0.960   2.868  10.025 -0.0583  0.8305 -0.1994
  396MOL0     H52228  -1.047   3.081  10.052  0.1830 -1.8910 -0.1465
  396MOL0     H52229  -0.891   3.145  10.109  0.1361 -0.1010  1.5037
  396MOL0     H52230  -0.924   3.027  10.308  0.4529  0.0141 -1.6369
  396MOL0     H52231  -1.041   3.159  10.270  2.4363  1.3194 -0.0091
  396MOL0     H52232  -1.142   2.938  10.360  0.2524 -3.2523 -0.9587
  396MOL0     H52233  -1.098   2.860  10.218 -4.6915 -0.2988 -2.1711
  396MOL0     H52234  -1.232   3.184  10.398 -1.5909  2.0310  3.2922
  396MOL0     H52235  -1.423   3.238  10.528  2.0546 -0.0737 -0.4081
  396MOL0     H52236  -1.987   2.989  10.511 -1.3151 -0.0419 -1.9161
  396MOL0     H52237  -2.174   3.028  10.646 -0.1453  1.3190  1.0278
  396MOL0     H52238  -2.316   3.422  10.693 -0.1294 -1.5357 -1.9629
  396MOL0     H52239  -2.251   3.407  10.863  1.4775 -0.9625 -1.6477
  396MOL0     H52240  -2.468   3.266  10.906  2.6750  0.8249  1.2408
  396MOL0     H52241  -2.525   3.345  10.753  1.1914 -0.2584 -0.8143
  396MOL0     H52242  -2.496   3.565  10.836  1.3550 -0.1881  0.0971
  396MOL0     H52243  -2.424   3.498  10.988 -2.0592 -1.0761  2.2178
  396MOL0     H52244  -2.708   3.418  10.886  0.4855  0.9026 -0.4629
  396MOL0     H52245  -2.635   3.394  11.045  2.4206  0.1070  0.0679
  396MOL0     H52246  -2.717   3.669  10.923 -1.6224 -0.5625 -0.8828
  396MOL0     H52247  -2.659   3.625  11.092  2.8919 -1.6719 -1.1543
  396MOL0     H52248  -2.883   3.580  11.156  0.7371  0.3562  0.1932
  396MOL0     H52249  -2.889   3.451  11.055 -1.3438  0.1056 -0.8734
  396MOL0     H52250  -2.930   3.642  10.864  2.5754 -0.9270  1.1671
  396MOL0     H52251  -3.052   3.532  10.936  0.5286 -2.6549  2.0260
  396MOL0     H52252  -2.982   3.808  11.046 -0.7088  0.9733  1.2134
  396MOL0     H52253  -3.114   3.702  11.096  1.5760  0.0100  1.8486
  396MOL0     H52254  -2.092   3.450  10.677  1.5130  0.2865 -0.1699
  396MOL0     H52255  -1.918   3.419  10.528 -1.9130  0.4953 -2.6291
  396MOL0     H52256  -1.686   3.085  10.228 -0.5284 -2.3826  3.4401
  396MOL0     H52257  -1.495   3.011  10.108 -0.5181  3.0129 -1.2711
  396MOL0     H52258   0.479   2.924   9.966 -2.3873  0.0256 -0.2633
  396MOL0     H52259   0.634   3.083  10.104  0.1322  0.4693  0.2155
  396MOL0     H52260   0.790   3.346  10.289 -1.2079  0.3819 -1.9439
  396MOL0     H52261   0.958   3.427  10.446  2.1201 -0.9264  0.7778
  396MOL0     H52262   1.155   3.467  10.518  1.2134  0.5811  0.2029
  396MOL0     H52263   1.043   3.580  10.585  0.4381  1.1003 -0.2690
  396MOL0     H52264   1.266   3.601  10.686  2.3898 -3.0943 -2.6663
  396MOL0     H52265   1.348   3.633  10.527 -0.3726 -1.9243 -0.5707
  396MOL0     H52266   1.223   3.847  10.515  0.8773 -0.6930 -0.7142
  396MOL0     H52267   1.334   3.829  10.657 -0.4480 -2.4319  1.8732
  396MOL0     H52268   1.039   3.760  10.696  0.6921  0.2227  1.5338
  396MOL0     H52269   1.162   3.803  10.817 -1.1494  3.0993  0.9809
  396MOL0     H52270   1.029   4.178  10.787  2.0291 -0.5759  1.7546
  396MOL0     H52271   1.081   3.714  10.152  0.9430  1.0114  1.4362
  396MOL0     H52272   0.926   3.628   9.989  1.8895  1.5084  0.8517
  397MOL0     O52273  10.423   9.125   0.502  0.0246  0.0966  0.4297
  397MOL0     C52274  10.505   9.064   0.572  0.1099 -0.7560 -0.4122
  397MOL0     O52275  10.489   8.937   0.619  0.6203  0.0575  0.0553
  397MOL0     C52276  10.370   8.873   0.583 -0.8635 -0.0648  0.4312
  397MOL0     C52277  10.374   8.766   0.494  0.4155  0.9590 -0.3855
  397MOL0     C52278  10.260   8.707   0.443 -0.8403 -0.2012 -0.8559
  397MOL0     C52279  10.134   8.735   0.501  0.0452 -0.0742 -0.1424
  397MOL0     O52280  10.012   8.670   0.469  0.0630  0.0429 -0.5218
  397MOL0     C52281  10.011   8.537   0.404 -1.1462  0.3126  0.9170
  397MOL0     C52282   9.894   8.449   0.459 -0.8559 -0.1546  0.5065
  397MOL0     C52283   9.764   8.528   0.461 -0.7732 -0.6031  0.6187
  397MOL0     C52284   9.637   8.446   0.504 -0.1207  0.4654 -1.0886
  397MOL0     C52285   9.522   8.543   0.529 -0.1659 -0.7347  0.2268
  397MOL0     C52286   9.387   8.471   0.550 -0.6397 -0.0902  0.6499
  397MOL0     C52287   9.281   8.560   0.604 -0.1810 -0.4796  0.0211
  397MOL0     C52288   9.312   8.626   0.738 -0.7136  0.2424  0.3978
  397MOL0     N52289   9.321   8.518   0.837 -0.3841  0.1250 -0.1294
  397MOL0     C52290   9.231   8.433   0.901  0.0739  0.0654  0.5915
  397MOL0     C52291   9.299   8.361   0.997 -0.2822  0.0280  0.1488
  397MOL0     C52292   9.252   8.261   1.099  0.8865 -1.0462 -0.2831
  397MOL0     C52293   9.143   8.165   1.051  0.2306 -0.0633  0.7273
  397MOL0     C52294   9.195   8.040   0.974  0.0254 -0.0656  0.3852
  397MOL0     C52295   9.277   8.071   0.846  0.7215 -0.7846 -1.1197
  397MOL0     O52296   9.318   7.960   0.775  0.1840  0.1932  0.0846
  397MOL0     C52297   9.410   7.964   0.676 -0.5366  1.0124  0.1635
  397MOL0     C52298   9.482   7.846   0.650  0.3052  0.4518 -0.0653
  397MOL0     C52299   9.570   7.833   0.545  0.4917  0.2630 -0.1556
  397MOL0     C52300   9.601   7.948   0.470  0.4076 -0.9518  0.8497
  397MOL0     C52301   9.711   7.938   0.367  0.7351 -0.0330  0.8612
  397MOL0     O52302   9.767   7.813   0.351  0.6182 -0.7773 -0.1273
  397MOL0     C52303   9.865   7.796   0.256 -0.9936  0.8510 -0.2583
  397MOL0     C52304   9.847   7.725   0.140  0.5850 -0.1420 -0.1180
  397MOL0     C52305   9.948   7.704   0.048  0.1323  0.0479 -1.1066
  397MOL0     C52306  10.066   7.772   0.057  0.6872 -0.3084 -0.7351
  397MOL0     O52307  10.170   7.760  -0.037 -0.2649 -0.0533  0.2582
  397MOL0     C52308  10.303   7.730   0.010 -0.0637  0.7330 -0.6650
  397MOL0     C52309  10.411   7.747  -0.098 -0.5145 -0.1136 -0.2583
  397MOL0     C52310  10.548   7.702  -0.055 -0.8258  0.3207  0.4935
  397MOL0     C52311  10.641   7.708  -0.182  0.0707 -1.4980  0.7541
  397MOL0     C52312  10.790   7.699  -0.144  0.9251  0.0429 -0.3460
  397MOL0     C52313  10.875   7.827  -0.174 -0.1490 -0.4206  0.1454
  397MOL0     C52314  10.996   7.817  -0.090 -0.4424 -0.4359 -0.0350
  397MOL0     C52315  11.076   7.951  -0.116  1.0342  0.5591 -0.5051
  397MOL0    Cl52316  11.236   7.939  -0.031 -0.3705 -0.4488  0.7501
  397MOL0     C52317  10.081   7.852   0.173  0.1826  0.6442  0.8938
  397MOL0     C52318   9.989   7.852   0.278 -0.4505 -1.0221 -0.8109
  397MOL0     O52319   9.742   8.039   0.301 -1.1644  0.0334 -0.3502
  397MOL0     C52320   9.543   8.074   0.503  0.5751  0.0235 -0.5059
  397MOL0     C52321   9.447   8.078   0.609  0.3441  0.3060  0.2870
  397MOL0     N52322   9.431   8.405   0.986 -0.3293  0.1814 -0.1578
  397MOL0     N52323   9.443   8.492   0.900  0.6323 -0.0701  0.4234
  397MOL0     C52324  10.122   8.839   0.591  0.2551  0.5342  0.1990
  397MOL0     C52325  10.242   8.900   0.637  0.1982 -0.0840 -0.1293
  397MOL0     C52326  10.630   9.124   0.597  1.2321  0.2649 -1.2626
  397MOL0     C52327  10.650   9.261   0.568 -0.7755 -0.0036  0.4919
  397MOL0     C52328  10.761   9.334   0.612 -1.3103 -0.1855 -0.2727
  397MOL0     C52329  10.869   9.269   0.677 -0.7914  0.1209  0.2480
  397MOL0     O52330  10.988   9.339   0.713 -0.6435  0.1479 -0.0858
  397MOL0     C52331  11.096   9.278   0.788 -0.1520  1.6877 -0.0882
  397MOL0     C52332  11.221   9.368   0.810  0.5717  0.4178 -0.3003
  397MOL0     C52333  11.277   9.393   0.666  1.3231 -0.4294 -0.9024
  397MOL0     C52334  11.380   9.507   0.668  0.5003 -0.1066 -0.4759
  397MOL0     C52335  11.493   9.473   0.586 -0.0919  0.5046 -0.0375
  397MOL0     C52336  11.594   9.445   0.520 -0.3547  0.6853 -0.0410
  397MOL0     C52337  10.851   9.131   0.702  0.1414 -0.5064  1.2782
  397MOL0     C52338  10.735   9.060   0.666 -0.0196  0.5612 -0.2909
  397MOL0     H52339  10.472   8.737   0.456  0.4397 -1.5814  1.3309
  397MOL0     H52340  10.267   8.625   0.372 -1.4229 -1.1447  0.1482
  397MOL0     H52341  10.104   8.486   0.430 -0.9093  1.6173  2.8703
  397MOL0     H52342  10.000   8.542   0.295  3.5234 -0.0139  0.2203
  397MOL0     H52343   9.926   8.419   0.559 -2.1101  0.9867  1.2840
  397MOL0     H52344   9.881   8.367   0.387 -1.3987  1.4931 -1.3666
  397MOL0     H52345   9.747   8.574   0.363  0.9502 -0.5286  0.3172
  397MOL0     H52346   9.773   8.618   0.523  2.5331  0.7747 -1.5341
  397MOL0     H52347   9.618   8.376   0.422 -0.3522  0.6233 -1.1692
  397MOL0     H52348   9.670   8.387   0.590 -0.5218 -1.2235 -2.0289
  397MOL0     H52349   9.508   8.612   0.445 -0.3079  0.2579  1.0424
  397MOL0     H52350   9.554   8.602   0.615 -0.0639  0.1444 -0.3896
  397MOL0     H52351   9.408   8.393   0.623  5.9387  2.6324  2.3510
  397MOL0     H52352   9.366   8.415   0.458 -1.6045 -0.8809  1.3314
  397MOL0     H52353   9.269   8.645   0.536  0.3747 -0.7127 -0.3746
  397MOL0     H52354   9.197   8.491   0.612  0.2665 -1.1885 -1.0352
  397MOL0     H52355   9.246   8.712   0.749 -0.2467  1.7366 -5.1555
  397MOL0     H52356   9.407   8.680   0.736 -0.0428 -0.8177  2.0649
  397MOL0     H52357   9.126   8.432   0.875  0.8107  1.0723 -2.8334
  397MOL0     H52358   9.199   8.322   1.172 -0.9067 -1.6890 -0.9840
  397MOL0     H52359   9.333   8.204   1.146  0.2070 -0.2777  1.9381
  397MOL0     H52360   9.074   8.220   0.986  0.0728 -0.7622  0.2879
  397MOL0     H52361   9.096   8.123   1.140  1.7089 -2.1353  0.6146
  397MOL0     H52362   9.253   7.974   1.038  1.2782 -0.4514 -1.0920
  397MOL0     H52363   9.102   7.985   0.957 -1.5878  1.5665  3.0755
  397MOL0     H52364   9.361   8.133   0.877 -1.3147  1.2945  0.6456
  397MOL0     H52365   9.208   8.128   0.783 -0.7995 -0.4917  0.7000
  397MOL0     H52366   9.464   7.765   0.720  0.8245  0.3968  0.0103
  397MOL0     H52367   9.622   7.739   0.532  2.0780  0.9731  0.6957
  397MOL0     H52368   9.748   7.684   0.122  1.1798 -1.6713 -0.0186
  397MOL0     H52369   9.916   7.649  -0.040 -2.9652  1.4987 -1.0177
  397MOL0     H52370  10.302   7.625   0.041  1.6027  0.8275 -0.2201
  397MOL0     H52371  10.330   7.796   0.093  0.3933 -0.9562  0.5993
  397MOL0     H52372  10.427   7.852  -0.124 -2.0923  0.5307  1.1566
  397MOL0     H52373  10.376   7.695  -0.188  0.3228  0.4295 -0.9164
  397MOL0     H52374  10.543   7.602  -0.010 -2.4403  0.8927  1.6840
  397MOL0     H52375  10.593   7.770   0.017  0.8905 -0.5970  0.3474
  397MOL0     H52376  10.617   7.626  -0.249  0.7914 -1.1042 -0.0116
  397MOL0     H52377  10.622   7.803  -0.233 -2.6888 -2.0228  0.6593
  397MOL0     H52378  10.823   7.619  -0.211 -4.0220 -2.7204  0.0346
  397MOL0     H52379  10.797   7.672  -0.039 -2.9201  0.5417  0.1957
  397MOL0     H52380  10.817   7.913  -0.139  1.2228  0.4597  0.3228
  397MOL0     H52381  10.891   7.844  -0.281 -1.5184 -0.6175 -0.1125
  397MOL0     H52382  10.979   7.819   0.018 -0.7099  4.7591  0.0453
  397MOL0     H52383  11.055   7.727  -0.112  1.2344  0.8469 -0.9550
  397MOL0     H52384  11.020   8.032  -0.068 -1.7478 -3.2328  3.4836
  397MOL0     H52385  11.083   7.972  -0.223 -0.9601  0.3332 -0.7235
  397MOL0     H52386  10.173   7.907   0.190 -0.5673  1.2381  3.4600
  397MOL0     H52387   9.996   7.902   0.374 -0.7901 -2.1674 -0.1709
  397MOL0     H52388   9.564   8.158   0.437 -6.7053  1.1220 -2.3865
  397MOL0     H52389   9.407   8.174   0.640 -0.0490  0.6150 -1.0759
  397MOL0     H52390  10.031   8.873   0.638  1.6555  1.9826  2.0152
  397MOL0     H52391  10.236   8.986   0.704  0.3084 -0.9079  0.9608
  397MOL0     H52392  10.569   9.317   0.521  0.3324  0.6902 -0.6485
  397MOL0     H52393  10.765   9.439   0.586  0.8117 -0.0175  0.4890
  397MOL0     H52394  11.122   9.188   0.731 -5.5487 -0.4773  0.2678
  397MOL0     H52395  11.044   9.248   0.879  0.7512  0.3590  0.0134
  397MOL0     H52396  11.179   9.463   0.845  1.0900 -0.1628  2.1159
  397MOL0     H52397  11.300   9.328   0.875  2.5032  0.3975 -2.5261
  397MOL0     H52398  11.196   9.414   0.596  2.6174  0.2064 -2.2557
  397MOL0     H52399  11.318   9.294   0.643 -0.4817 -1.4830  0.1280
  397MOL0     H52400  11.332   9.600   0.634  2.0349  0.7291 -0.4347
  397MOL0     H52401  11.414   9.529   0.770 -1.9664 -1.8841  0.8259
  397MOL0     H52402  11.685   9.434   0.465 -0.8746 -1.7308 -0.5037
  397MOL0     H52403  10.928   9.067   0.744  0.0516 -1.3908  0.1598
  397MOL0     H52404  10.735   8.954   0.690  1.4265 -0.1296 -2.9036
  398MOL0     O52405   7.317   3.953   3.977  0.3048 -0.1891  0.6450
  398MOL0     C52406   7.408   4.004   3.914  0.5649 -0.2826  0.6137
  398MOL0     O52407   7.429   4.137   3.879  0.3035  0.0402 -0.1474
  398MOL0     C52408   7.333   4.236   3.913  0.0741  0.1585  0.8072
  398MOL0     C52409   7.195   4.208   3.913  0.2928 -0.1157  0.3606
  398MOL0     C52410   7.098   4.312   3.938 -0.5187 -1.2675  0.1740
  398MOL0     C52411   7.148   4.447   3.948  0.1412 -0.3482 -0.2687
  398MOL0     O52412   7.080   4.567   3.955 -0.1991 -0.0226  0.5934
  398MOL0     C52413   6.937   4.561   3.937 -0.0863  0.6474 -0.4350
  398MOL0     C52414   6.892   4.715   3.924  0.1774  0.1653 -0.4640
  398MOL0     C52415   6.750   4.727   3.973  0.3711  0.4006 -0.6653
  398MOL0     C52416   6.658   4.846   3.907 -0.1157  0.0174  0.7148
  398MOL0     C52417   6.515   4.826   3.944 -0.2004 -0.9341  0.1136
  398MOL0     C52418   6.441   4.922   3.842 -0.2446  0.0689 -0.3064
  398MOL0     C52419   6.291   4.940   3.865  0.7722 -0.1336 -0.3825
  398MOL0     C52420   6.256   5.039   3.982  0.7406 -0.1641 -0.6511
  398MOL0     N52421   6.113   5.043   4.024  0.1246  0.0189 -0.2431
  398MOL0     C52422   6.010   5.055   3.936 -0.2237 -0.1099  0.3328
  398MOL0     C52423   5.897   5.052   4.014  0.6555  0.0994 -0.1888
  398MOL0     C52424   5.753   5.068   3.954  0.2454 -1.5690 -0.2307
  398MOL0     C52425   5.679   4.944   3.993  0.3150  0.3962 -0.4219
  398MOL0     C52426   5.586   4.953   4.129  1.0397 -0.3089 -0.4419
  398MOL0     C52427   5.476   5.061   4.117  0.2651 -0.0881  1.2584
  398MOL0     O52428   5.395   5.057   4.002 -0.0554  0.4183  0.9182
  398MOL0     C52429   5.275   4.994   3.984 -0.4142  0.1973  0.1183
  398MOL0     C52430   5.201   4.936   4.087 -0.0134  0.3297  0.4923
  398MOL0     C52431   5.078   4.876   4.045  0.6070 -0.3304  0.1716
  398MOL0     C52432   5.028   4.883   3.908 -0.0957 -0.5286 -0.6941
  398MOL0     C52433   4.894   4.828   3.868 -0.7273  0.1123  0.8162
  398MOL0     O52434   4.830   4.739   3.954 -0.1146  0.3322  0.3321
  398MOL0     C52435   4.697   4.709   3.922 -0.5077 -0.2962  0.2482
  398MOL0     C52436   4.595   4.803   3.879 -0.8905  0.1945  0.3700
  398MOL0     C52437   4.467   4.761   3.837  0.7052 -0.1180 -0.4396
  398MOL0     C52438   4.425   4.633   3.866  0.1461 -0.2935  0.3108
  398MOL0     O52439   4.299   4.590   3.854  0.1435 -0.6041  0.0628
  398MOL0     C52440   4.190   4.681   3.812  0.1949  0.0553 -0.0156
  398MOL0     C52441   4.066   4.607   3.841  0.5556  0.1770 -0.1725
  398MOL0     C52442   3.929   4.670   3.810  0.4327  0.7571  0.3003
  398MOL0     C52443   3.814   4.601   3.884 -0.3778  0.7182  0.1323
  398MOL0     C52444   3.681   4.663   3.853  0.0638  0.4828 -0.1037
  398MOL0     C52445   3.564   4.591   3.922 -0.3609 -0.2519  0.4581
  398MOL0     C52446   3.435   4.659   3.886  0.3256  0.7142  0.0112
  398MOL0     C52447   3.304   4.592   3.944  0.2148 -0.5335 -0.3008
  398MOL0    Cl52448   3.312   4.561   4.117 -0.3952 -0.1722  0.4797
  398MOL0     C52449   4.517   4.544   3.922 -0.3680 -0.1402 -0.0632
  398MOL0     C52450   4.652   4.576   3.948  0.1418 -0.2411  0.3246
  398MOL0     O52451   4.843   4.873   3.763  0.0565  0.8485  0.0730
  398MOL0     C52452   5.118   4.930   3.815 -0.3169  0.3921 -0.2673
  398MOL0     C52453   5.235   4.990   3.857  0.5748  0.4149  0.7597
  398MOL0     N52454   5.942   5.027   4.138  0.5071 -0.7429  0.1999
  398MOL0     N52455   6.066   5.013   4.146  0.6217  0.1672 -0.1461
  398MOL0     C52456   7.284   4.468   3.949 -0.2219  0.2992 -0.0422
  398MOL0     C52457   7.376   4.364   3.926  0.0596 -0.8456 -0.2902
  398MOL0     C52458   7.521   3.921   3.877 -0.1346  0.4823 -0.6939
  398MOL0     C52459   7.504   3.785   3.875 -0.2685 -0.0444  0.4057
  398MOL0     C52460   7.616   3.703   3.856 -0.0757  0.2573  0.0626
  398MOL0     C52461   7.746   3.754   3.842  0.0616  0.4316 -0.7625
  398MOL0     O52462   7.847   3.660   3.824  0.6604  0.1379  0.2475
  398MOL0     C52463   7.984   3.693   3.848 -0.2037  0.3377 -0.5123
  398MOL0     C52464   8.041   3.571   3.915 -0.2327 -0.1339 -0.3624
  398MOL0     C52465   8.197   3.581   3.920  0.0820  0.1753  0.0495
  398MOL0     C52466   8.256   3.479   4.011 -0.1865  0.0878  0.0123
  398MOL0     C52467   8.402   3.494   4.016 -0.3204  0.5866  0.1691
  398MOL0     C52468   8.529   3.506   4.020  0.3283  0.1223  0.5527
  398MOL0     C52469   7.763   3.892   3.853  0.4069 -0.5885  0.1802
  398MOL0     C52470   7.648   3.974   3.866 -1.0662 -0.1297  1.2756
  398MOL0     H52471   7.157   4.107   3.900 -0.2735  0.2770 -1.2160
  398MOL0     H52472   6.991   4.298   3.933 -0.8330  0.1539  1.8856
  398MOL0     H52473   6.895   4.507   4.023  3.3737 -1.4445  0.1237
  398MOL0     H52474   6.908   4.509   3.845  0.2733  0.1508 -0.2772
  398MOL0     H52475   6.890   4.744   3.819 -1.4982 -0.4970 -0.6548
  398MOL0     H52476   6.956   4.790   3.969 -1.9190  1.7283  0.0697
  398MOL0     H52477   6.749   4.743   4.082  1.7465  1.5195 -0.7891
  398MOL0     H52478   6.689   4.636   3.968  2.3525 -1.0546  0.4164
  398MOL0     H52479   6.678   4.947   3.945 -0.0673  0.4399 -0.3964
  398MOL0     H52480   6.676   4.845   3.799 -0.3689 -3.2170  0.5989
  398MOL0     H52481   6.500   4.847   4.051  1.3025  0.3480  0.0931
  398MOL0     H52482   6.474   4.728   3.918 -2.2063  0.1167 -0.8774
  398MOL0     H52483   6.449   4.877   3.743 -1.5655 -1.0337  0.0538
  398MOL0     H52484   6.487   5.021   3.837  2.1732 -1.0145 -0.6824
  398MOL0     H52485   6.245   4.981   3.774  1.1108  2.3617  0.4796
  398MOL0     H52486   6.238   4.849   3.893 -2.4069  1.3023 -1.2338
  398MOL0     H52487   6.276   5.145   3.963  0.6691 -0.0321 -0.0182
  398MOL0     H52488   6.311   5.015   4.073 -0.5832 -0.5928  0.0559
  398MOL0     H52489   6.021   5.071   3.830  2.1588 -4.0155 -0.1828
  398MOL0     H52490   5.764   5.077   3.845  2.5945 -1.8868 -0.0863
  398MOL0     H52491   5.708   5.161   3.988  0.7989 -1.8227  1.2498
  398MOL0     H52492   5.749   4.862   4.012  2.0931  1.9105 -0.2351
  398MOL0     H52493   5.622   4.920   3.903  0.4079  0.3716 -0.4743
  398MOL0     H52494   5.542   4.857   4.157  0.0487  0.1599 -0.3216
  398MOL0     H52495   5.656   4.979   4.209  2.0157 -0.4298 -1.2434
  398MOL0     H52496   5.525   5.159   4.116 -0.5532  0.5116 -3.8536
  398MOL0     H52497   5.406   5.062   4.201 -2.8736  1.0579 -1.1837
  398MOL0     H52498   5.236   4.938   4.190  0.1902  1.3899  0.4155
  398MOL0     H52499   5.014   4.824   4.116  0.4255 -1.6548 -0.9180
  398MOL0     H52500   4.625   4.905   3.858  1.4073 -0.7183 -1.1427
  398MOL0     H52501   4.408   4.839   3.789  1.0201 -0.0942 -0.7905
  398MOL0     H52502   4.198   4.704   3.705 -0.4904  0.7554  0.0788
  398MOL0     H52503   4.193   4.772   3.874  1.3077  0.9328 -1.3000
  398MOL0     H52504   4.070   4.564   3.941 -0.8177 -1.1043 -0.6230
  398MOL0     H52505   4.056   4.520   3.775  0.0961  0.7049 -0.8157
  398MOL0     H52506   3.913   4.668   3.702  1.4211  0.6303  0.1468
  398MOL0     H52507   3.931   4.771   3.852  2.8312  0.2359  1.6883
  398MOL0     H52508   3.817   4.495   3.857 -0.0369  1.0534 -1.1837
  398MOL0     H52509   3.825   4.603   3.993  0.7901  0.0023  0.0442
  398MOL0     H52510   3.673   4.665   3.744  2.2443  1.7350 -0.3006
  398MOL0     H52511   3.689   4.768   3.881  1.8746  0.6936 -1.2191
  398MOL0     H52512   3.586   4.593   4.029  0.3081 -1.7055  0.3737
  398MOL0     H52513   3.553   4.485   3.895 -2.0151  0.0258 -0.0753
  398MOL0     H52514   3.444   4.761   3.924  3.1989  0.2066  1.0038
  398MOL0     H52515   3.416   4.665   3.779  0.7541  2.7963  0.0117
  398MOL0     H52516   3.282   4.497   3.893 -0.9154  0.6186 -2.0478
  398MOL0     H52517   3.215   4.651   3.921  1.0312  0.4111 -1.0402
  398MOL0     H52518   4.496   4.443   3.956 -0.2321 -0.5925 -1.2806
  398MOL0     H52519   4.720   4.509   4.000 -1.3824  0.2243  3.1202
  398MOL0     H52520   5.108   4.919   3.708  1.3323  0.0194 -0.4177
  398MOL0     H52521   5.281   5.034   3.769  1.9696  0.7905  1.6496
  398MOL0     H52522   7.316   4.572   3.952 -0.6911  0.4312  1.9877
  398MOL0     H52523   7.475   4.405   3.940 -1.8080  3.4353  2.6348
  398MOL0     H52524   7.404   3.743   3.882 -1.2384  2.2128  1.2954
  398MOL0     H52525   7.597   3.597   3.846 -0.6507  0.2167  1.3831
  398MOL0     H52526   8.001   3.772   3.922  1.6041 -1.0602  0.6657
  398MOL0     H52527   8.044   3.714   3.759  1.0752 -0.1926  0.1868
  398MOL0     H52528   8.002   3.561   4.017  0.9836 -0.4837  0.0868
  398MOL0     H52529   8.011   3.476   3.871  1.2188 -0.9226  0.2563
  398MOL0     H52530   8.223   3.683   3.950 -1.6893  0.3376  1.2148
  398MOL0     H52531   8.238   3.571   3.819  1.1250  1.6761  0.2829
  398MOL0     H52532   8.217   3.486   4.113 -0.3533  1.8530 -0.1439
  398MOL0     H52533   8.229   3.383   3.967 -0.0251  0.3244 -0.6151
  398MOL0     H52534   8.636   3.513   4.015  0.4724  0.7556  3.1309
  398MOL0     H52535   7.858   3.944   3.850 -0.2605  0.9352  2.6213
  398MOL0     H52536   7.660   4.081   3.874 -0.9952 -0.2233  2.6009
  399MOL0     O52537   3.717   3.528   8.790 -0.2534 -0.8770 -0.1505
  399MOL0     C52538   3.746   3.515   8.675 -0.0481  0.7092  0.7513
  399MOL0     O52539   3.660   3.476   8.572 -1.1138 -0.2840 -0.3581
  399MOL0     C52540   3.537   3.424   8.595  1.3232  0.7761  0.3581
  399MOL0     C52541   3.463   3.423   8.712 -0.0398 -0.7127  0.4394
  399MOL0     C52542   3.333   3.365   8.718  0.0282 -0.1423 -0.2881
  399MOL0     C52543   3.278   3.292   8.616 -0.6613  0.3057  0.1185
  399MOL0     O52544   3.158   3.230   8.645 -0.2898  0.1351 -0.0931
  399MOL0     C52545   3.131   3.102   8.568 -0.0723 -0.0248 -0.3197
  399MOL0     C52546   3.044   3.014   8.654  0.4961 -0.2553 -0.8193
  399MOL0     C52547   2.905   3.069   8.696  0.3616 -0.1849 -0.3768
  399MOL0     C52548   2.906   3.134   8.831  0.2228 -0.0725  0.3396
  399MOL0     C52549   2.768   3.184   8.876 -0.6512  0.2554 -0.2979
  399MOL0     C52550   2.667   3.071   8.904 -0.2967  0.0522  0.5708
  399MOL0     C52551   2.533   3.129   8.953 -0.1535  0.4357 -0.7989
  399MOL0     C52552   2.437   3.026   9.021 -0.2108  0.0336  0.2375
  399MOL0     N52553   2.325   3.087   9.094 -0.0360 -0.6773 -0.1882
  399MOL0     C52554   2.199   3.114   9.039 -0.5951  0.7925  0.1882
  399MOL0     C52555   2.133   3.199   9.126 -1.2098  0.4084 -0.7694
  399MOL0     C52556   1.985   3.242   9.117 -0.7816 -0.5719  0.0950
  399MOL0     C52557   1.882   3.139   9.079 -0.3190  0.4363 -0.1805
  399MOL0     C52558   1.886   3.008   9.168 -0.1709  0.0695 -0.1773
  399MOL0     C52559   1.817   2.886   9.087 -0.8037 -0.1547 -0.2014
  399MOL0     O52560   1.807   2.772   9.183  0.4492  1.4203  0.5283
  399MOL0     C52561   1.684   2.740   9.242  1.0018  0.0919  0.5238
  399MOL0     C52562   1.660   2.614   9.292 -0.3920 -0.3737 -0.4226
  399MOL0     C52563   1.535   2.565   9.334 -0.1392  0.6527 -0.0135
  399MOL0     C52564   1.418   2.649   9.322  0.1871  0.2410 -0.1507
  399MOL0     C52565   1.287   2.600   9.367  0.8681  0.4884  0.2319
  399MOL0     O52566   1.260   2.472   9.352 -0.3833  0.3314  0.3496
  399MOL0     C52567   1.135   2.423   9.371  0.3776 -0.4345 -0.1098
  399MOL0     C52568   1.042   2.444   9.267  0.1249  0.3917 -0.0063
  399MOL0     C52569   0.915   2.387   9.275 -0.3888 -0.5780 -0.1386
  399MOL0     C52570   0.874   2.334   9.401  0.4906 -0.1203 -0.4246
  399MOL0     O52571   0.743   2.295   9.409 -0.0537  0.3043 -0.0489
  399MOL0     C52572   0.682   2.302   9.539  0.8810 -0.0362  0.5770
  399MOL0     C52573   0.551   2.251   9.547  0.1594  0.1003  0.4329
  399MOL0     C52574   0.447   2.311   9.450  0.9747 -0.1644 -0.4649
  399MOL0     C52575   0.307   2.246   9.455 -0.3471 -1.0840  0.2061
  399MOL0     C52576   0.313   2.105   9.383 -0.2046 -0.6630 -0.2541
  399MOL0     C52577   0.170   2.051   9.380  0.2151  0.2457 -0.6042
  399MOL0     C52578   0.173   1.908   9.330 -0.1897 -0.1908 -0.2885
  399MOL0     C52579   0.029   1.852   9.337  0.4588 -0.6985 -0.1139
  399MOL0    Cl52580  -0.076   1.932   9.211  0.1109 -0.1802  0.7703
  399MOL0     C52581   0.961   2.333   9.507 -0.3926  1.2249 -0.5142
  399MOL0     C52582   1.094   2.378   9.490 -0.6831 -0.0313 -0.2047
  399MOL0     O52583   1.211   2.682   9.417 -0.1262  0.2035  0.4685
  399MOL0     C52584   1.442   2.780   9.278 -0.0880  0.8565 -0.5765
  399MOL0     C52585   1.568   2.820   9.233  0.1297 -0.4195 -0.1091
  399MOL0     N52586   2.213   3.208   9.242  0.2823 -0.3144 -0.4966
  399MOL0     N52587   2.325   3.136   9.227  0.0896 -0.0982  0.4452
  399MOL0     C52588   3.350   3.300   8.497 -0.5077 -0.0808  0.1149
  399MOL0     C52589   3.475   3.362   8.488 -0.9314 -0.2716 -0.5971
  399MOL0     C52590   3.875   3.569   8.627 -0.3826  0.4178 -0.0440
  399MOL0     C52591   3.922   3.561   8.492 -0.0605  0.1976 -0.5307
  399MOL0     C52592   4.049   3.595   8.462 -0.9443  0.9465 -0.0722
  399MOL0     C52593   4.147   3.634   8.561 -0.2878 -0.5740 -0.3507
  399MOL0     O52594   4.276   3.641   8.520  0.3875 -0.1762  0.2308
  399MOL0     C52595   4.369   3.721   8.596  0.3842  0.4124  0.7757
  399MOL0     C52596   4.497   3.752   8.521 -0.1479 -0.2625  0.4259
  399MOL0     C52597   4.607   3.811   8.609  0.7142  0.7601  0.4965
  399MOL0     C52598   4.723   3.870   8.526  0.0262  0.3004  0.4000
  399MOL0     C52599   4.796   3.763   8.466  0.8985  0.0179  1.0203
  399MOL0     C52600   4.858   3.677   8.411 -0.0663  0.3375  0.7040
  399MOL0     C52601   4.096   3.647   8.697  0.6033  0.0546  0.3607
  399MOL0     C52602   3.963   3.615   8.727 -0.2288  0.0295  0.3938
  399MOL0     H52603   3.496   3.453   8.811 -1.5297 -0.5752  0.9193
  399MOL0     H52604   3.281   3.370   8.813  0.8240 -0.3529  0.1653
  399MOL0     H52605   3.221   3.046   8.542 -1.2697 -0.8250 -3.1371
  399MOL0     H52606   3.086   3.128   8.471 -0.7738 -0.2101 -0.0471
  399MOL0     H52607   3.095   2.986   8.746 -0.9021  1.2360  0.4665
  399MOL0     H52608   3.024   2.925   8.593  0.6877  0.6205 -2.2106
  399MOL0     H52609   2.843   2.980   8.710  0.4873 -0.0736  0.9856
  399MOL0     H52610   2.862   3.136   8.621 -1.0627 -0.7927 -0.1377
  399MOL0     H52611   2.960   3.086   8.913  0.2877  0.8503  0.8450
  399MOL0     H52612   2.965   3.225   8.819 -0.6304  0.2949 -1.5843
  399MOL0     H52613   2.729   3.254   8.801 -2.0435  1.3909  1.3910
  399MOL0     H52614   2.771   3.239   8.971  0.4282  1.3567 -0.9439
  399MOL0     H52615   2.705   3.007   8.984 -1.1730  0.7628  1.5906
  399MOL0     H52616   2.643   3.002   8.823 -0.9418 -0.5146  1.2204
  399MOL0     H52617   2.544   3.205   9.031  0.8126 -0.9872  0.5144
  399MOL0     H52618   2.491   3.174   8.863  1.4818 -0.4436 -2.0629
  399MOL0     H52619   2.484   2.954   9.089  1.8235  0.8012 -0.2871
  399MOL0     H52620   2.389   2.967   8.944 -1.4640  1.1569  0.1197
  399MOL0     H52621   2.147   3.081   8.950 -2.2880  2.0129  0.6709
  399MOL0     H52622   1.987   3.317   9.038 -1.0325 -0.7465 -0.0820
  399MOL0     H52623   1.948   3.278   9.213 -1.1063 -0.8447  0.0769
  399MOL0     H52624   1.902   3.116   8.974  1.8608 -2.2649  0.6887
  399MOL0     H52625   1.785   3.189   9.080  0.7983  2.9243 -2.7569
  399MOL0     H52626   1.986   2.989   9.207  0.1435  3.5321  1.0905
  399MOL0     H52627   1.817   3.024   9.251 -2.5490  2.7607 -2.4361
  399MOL0     H52628   1.885   2.861   9.006  0.6013  1.4356  0.4418
  399MOL0     H52629   1.719   2.919   9.051 -0.4513  1.0260 -0.0965
  399MOL0     H52630   1.742   2.544   9.302 -0.2578 -0.2115 -0.3938
  399MOL0     H52631   1.533   2.462   9.365 -2.3275 -0.2016 -2.5794
  399MOL0     H52632   1.073   2.484   9.171 -2.2439 -1.2510 -1.5859
  399MOL0     H52633   0.845   2.395   9.193 -0.0551  3.2430 -0.2034
  399MOL0     H52634   0.676   2.409   9.564  0.2901  0.2683 -0.7748
  399MOL0     H52635   0.748   2.248   9.608  0.4797  0.6453  1.5312
  399MOL0     H52636   0.516   2.264   9.650  0.9347  1.1731  0.5712
  399MOL0     H52637   0.566   2.144   9.528  0.0010  0.3555 -1.2021
  399MOL0     H52638   0.489   2.312   9.349  3.0555 -1.7016  0.3043
  399MOL0     H52639   0.436   2.415   9.482 -0.2697  0.4189 -2.5876
  399MOL0     H52640   0.275   2.248   9.559  1.2426 -0.6656  0.7090
  399MOL0     H52641   0.234   2.306   9.399  0.8344 -1.1078 -1.4362
  399MOL0     H52642   0.381   2.035   9.433 -0.5756 -2.8242 -2.5731
  399MOL0     H52643   0.343   2.117   9.279  0.9372 -2.2321 -0.1317
  399MOL0     H52644   0.103   2.118   9.327 -0.9608  2.0737  2.8769
  399MOL0     H52645   0.124   2.042   9.479 -1.0359  0.1760 -1.1651
  399MOL0     H52646   0.202   1.902   9.225  1.5626  2.0249 -0.0028
  399MOL0     H52647   0.239   1.852   9.396  1.0331  0.4717 -0.9169
  399MOL0     H52648  -0.017   1.874   9.434  1.1280 -1.1526  0.3140
  399MOL0     H52649   0.020   1.744   9.318 -0.1106 -0.2355 -2.9445
  399MOL0     H52650   0.932   2.299   9.606 -4.8546 -0.9648 -2.2799
  399MOL0     H52651   1.167   2.367   9.570  1.6406  1.1021 -2.0227
  399MOL0     H52652   1.361   2.848   9.252 -0.9579  0.5999  1.2245
  399MOL0     H52653   1.572   2.923   9.197  1.6167  0.3037  1.9359
  399MOL0     H52654   3.310   3.244   8.413  0.9770 -0.0411 -0.6514
  399MOL0     H52655   3.539   3.345   8.401  1.1784  0.2207  0.7901
  399MOL0     H52656   3.857   3.527   8.412 -0.9302 -0.4006  0.3978
  399MOL0     H52657   4.080   3.569   8.361 -2.3931  0.6281 -0.4533
  399MOL0     H52658   4.388   3.673   8.692 -3.0681  3.8821  3.5357
  399MOL0     H52659   4.316   3.813   8.622 -0.4780 -0.0837  0.8363
  399MOL0     H52660   4.530   3.659   8.474 -0.5973 -0.8862  1.3257
  399MOL0     H52661   4.468   3.822   8.442 -2.5917 -0.9758  0.6128
  399MOL0     H52662   4.643   3.742   8.686  2.0857  1.0293  0.1193
  399MOL0     H52663   4.571   3.894   8.672 -1.7021  0.4294 -0.3518
  399MOL0     H52664   4.676   3.937   8.453  1.2228  1.4787  0.6567
  399MOL0     H52665   4.781   3.934   8.594 -3.7363  1.1793  3.1387
  399MOL0     H52666   4.898   3.594   8.357 -1.8276  0.9187 -1.6460
  399MOL0     H52667   4.153   3.693   8.777 -0.1429  3.7681 -1.0593
  399MOL0     H52668   3.921   3.617   8.827 -2.6999  0.6397 -0.5825
  400MOL0     O52669   4.484   8.507   4.760  0.2683  0.3291 -0.4961
  400MOL0     C52670   4.525   8.572   4.670 -0.6996 -0.1380  0.7456
  400MOL0     O52671   4.448   8.605   4.556 -0.2635 -0.2144 -0.3223
  400MOL0     C52672   4.319   8.560   4.542  0.0297  0.4787  0.2819
  400MOL0     C52673   4.278   8.512   4.417 -0.4273  0.0849 -0.5737
  400MOL0     C52674   4.151   8.465   4.395  0.2151 -0.3313 -0.4292
  400MOL0     C52675   4.055   8.468   4.490  0.3226  0.3773 -0.4166
  400MOL0     O52676   3.925   8.432   4.461 -0.0217  0.5090  0.0518
  400MOL0     C52677   3.895   8.365   4.343 -0.3184  0.0332  0.6411
  400MOL0     C52678   3.773   8.288   4.365  0.2292 -0.3574  0.0738
  400MOL0     C52679   3.733   8.210   4.241  0.7904  0.1180 -0.4334
  400MOL0     C52680   3.787   8.071   4.232 -0.4294  0.0163  0.5202
  400MOL0     C52681   3.724   7.979   4.127  0.1612 -0.2654 -0.8597
  400MOL0     C52682   3.731   8.034   3.982 -0.3598 -0.5643  1.1849
  400MOL0     C52683   3.658   7.946   3.884 -0.2524  0.5816 -0.5976
  400MOL0     C52684   3.675   7.995   3.751 -0.3678 -1.1211 -0.1074
  400MOL0     N52685   3.601   7.913   3.664 -0.1145 -0.2462  0.7056
  400MOL0     C52686   3.640   7.792   3.614 -0.2480 -0.1064  0.4162
  400MOL0     C52687   3.530   7.739   3.566 -0.3084  0.0807  0.1047
  400MOL0     C52688   3.513   7.604   3.503  0.1981 -0.2278  0.4498
  400MOL0     C52689   3.634   7.501   3.505  0.5903  0.0190  0.1201
  400MOL0     C52690   3.739   7.528   3.398 -0.2176  0.2587 -0.0528
  400MOL0     C52691   3.833   7.411   3.362 -0.2179  0.3912 -0.6572
  400MOL0     O52692   3.929   7.378   3.462 -0.2942  0.9612  0.7188
  400MOL0     C52693   4.054   7.434   3.458 -0.3421  0.5964 -0.8731
  400MOL0     C52694   4.158   7.359   3.518 -0.2544  0.0575 -0.2027
  400MOL0     C52695   4.294   7.400   3.503  0.3827 -1.3191  0.4304
  400MOL0     C52696   4.330   7.516   3.423 -0.0743 -0.4030 -0.4396
  400MOL0     C52697   4.476   7.551   3.414 -0.9144  0.5525 -0.5047
  400MOL0     O52698   4.571   7.453   3.447  0.0140 -0.4552  0.2347
  400MOL0     C52699   4.699   7.478   3.420 -0.3553 -0.1552  0.4143
  400MOL0     C52700   4.745   7.539   3.296  1.0195  0.3539  0.2658
  400MOL0     C52701   4.883   7.549   3.271 -0.1536 -0.6464 -0.1646
  400MOL0     C52702   4.971   7.492   3.358 -0.0646 -1.1508 -0.5739
  400MOL0     O52703   5.106   7.504   3.345 -0.0742 -0.3368 -0.5669
  400MOL0     C52704   5.161   7.537   3.211 -0.3150  0.8748 -0.4218
  400MOL0     C52705   5.307   7.504   3.203 -0.5341 -0.4260  0.0365
  400MOL0     C52706   5.335   7.354   3.200  0.3427 -0.4815  0.4479
  400MOL0     C52707   5.476   7.303   3.169 -0.4117  0.8362  0.8020
  400MOL0     C52708   5.500   7.162   3.225 -0.1549  0.3654 -1.0328
  400MOL0     C52709   5.402   7.050   3.190  0.2147 -0.4688 -0.1228
  400MOL0     C52710   5.434   6.927   3.268  0.0498 -0.5585  0.3108
  400MOL0     C52711   5.306   6.837   3.266 -0.9079  0.5904  0.5222
  400MOL0    Cl52712   5.346   6.663   3.308 -0.0632  0.0395  0.0160
  400MOL0     C52713   4.919   7.430   3.469  1.1131  0.3120 -0.2098
  400MOL0     C52714   4.791   7.419   3.500 -0.1211  0.3393  0.5025
  400MOL0     O52715   4.497   7.668   3.392  0.1828 -0.3390 -0.0533
  400MOL0     C52716   4.224   7.592   3.377  0.8232  0.3638  0.3996
  400MOL0     C52717   4.085   7.558   3.394  0.2587  0.3418 -0.2328
  400MOL0     N52718   3.428   7.828   3.577  0.1892 -0.6827  0.3220
  400MOL0     N52719   3.470   7.933   3.634  0.1891 -0.8871  0.1590
  400MOL0     C52720   4.092   8.502   4.621  0.0858 -0.1185 -0.2024
  400MOL0     C52721   4.226   8.550   4.650  0.0799 -0.7110 -0.3950
  400MOL0     C52722   4.647   8.643   4.691  0.1571 -0.4137  0.0960
  400MOL0     C52723   4.685   8.744   4.597 -0.1611 -0.2736 -0.8688
  400MOL0     C52724   4.814   8.784   4.591  0.0434  0.1352 -0.1368
  400MOL0     C52725   4.901   8.757   4.695  0.4440  0.2107 -0.4594
  400MOL0     O52726   5.033   8.812   4.674  0.0936  0.0397  0.4368
  400MOL0     C52727   5.114   8.835   4.791 -0.9991  0.4579  0.5755
  400MOL0     C52728   5.270   8.856   4.764 -0.0357  0.2556  0.4598
  400MOL0     C52729   5.302   8.990   4.682 -0.4057 -0.3179 -0.3505
  400MOL0     C52730   5.450   9.003   4.669 -0.1630 -0.6181  0.2147
  400MOL0     C52731   5.503   9.108   4.588  1.0366  0.7477  0.9124
  400MOL0     C52732   5.550   9.200   4.525 -0.1653 -0.5111  0.5477
  400MOL0     C52733   4.861   8.677   4.807 -0.8383 -0.3259 -0.4096
  400MOL0     C52734   4.735   8.622   4.803 -0.2428  0.0838 -1.0210
  400MOL0     H52735   4.352   8.498   4.339  1.1985 -2.7633  1.3056
  400MOL0     H52736   4.138   8.416   4.299  0.5570 -1.4791  0.0900
  400MOL0     H52737   3.968   8.286   4.325 -1.5478 -1.2912  1.3390
  400MOL0     H52738   3.898   8.436   4.259  0.2938  1.4833  1.8313
  400MOL0     H52739   3.691   8.358   4.384 -0.0900 -1.2278  2.1602
  400MOL0     H52740   3.790   8.230   4.456  2.1305  0.3254  0.2000
  400MOL0     H52741   3.772   8.267   4.156  0.9765 -0.3159 -0.6448
  400MOL0     H52742   3.624   8.207   4.243  0.7181  0.2646 -2.6897
  400MOL0     H52743   3.893   8.070   4.207 -0.0352  0.4083  2.0722
  400MOL0     H52744   3.776   8.030   4.333  0.3729  1.8568  1.4056
  400MOL0     H52745   3.620   7.955   4.149  0.2045 -0.6311 -1.0496
  400MOL0     H52746   3.780   7.885   4.120  5.0164  2.2266  0.3054
  400MOL0     H52747   3.837   8.034   3.956 -0.9511  3.7538 -2.6501
  400MOL0     H52748   3.687   8.134   3.974  0.7949 -0.1721 -0.9297
  400MOL0     H52749   3.683   7.840   3.887 -1.4955  0.2910  1.2526
  400MOL0     H52750   3.550   7.948   3.906 -0.1219  1.0412  0.0090
  400MOL0     H52751   3.780   8.002   3.722 -0.4979  0.8386 -0.2306
  400MOL0     H52752   3.634   8.097   3.748  0.6649 -0.6139  1.7066
  400MOL0     H52753   3.736   7.744   3.600  0.1646  1.6535 -4.5137
  400MOL0     H52754   3.470   7.630   3.405 -4.3018 -0.8095  2.0458
  400MOL0     H52755   3.426   7.567   3.556 -0.4475  4.3656  3.1422
  400MOL0     H52756   3.592   7.403   3.479 -1.1391  0.3914  1.3197
  400MOL0     H52757   3.668   7.492   3.608 -3.1396  2.1600  1.7581
  400MOL0     H52758   3.688   7.564   3.308  0.7520  1.1332 -0.2736
  400MOL0     H52759   3.813   7.597   3.440  1.8367 -2.5939  1.3303
  400MOL0     H52760   3.886   7.443   3.271  1.7724 -0.0887  0.2843
  400MOL0     H52761   3.772   7.326   3.330  1.7429 -1.7662  0.9828
  400MOL0     H52762   4.131   7.263   3.561 -0.1788  0.1936  0.1556
  400MOL0     H52763   4.364   7.325   3.538 -0.7026 -1.0598  3.4871
  400MOL0     H52764   4.673   7.561   3.219  0.4991 -0.4006  0.5217
  400MOL0     H52765   4.910   7.597   3.177 -0.9849 -2.3546 -1.3413
  400MOL0     H52766   5.149   7.640   3.178 -4.0019  0.1147 -1.9749
  400MOL0     H52767   5.105   7.484   3.133  0.0541 -0.9113  0.4698
  400MOL0     H52768   5.357   7.546   3.291  1.3555 -1.9686 -0.2332
  400MOL0     H52769   5.350   7.549   3.112 -1.7826 -0.0732 -0.4002
  400MOL0     H52770   5.267   7.313   3.125 -3.4849  2.1437  2.1781
  400MOL0     H52771   5.302   7.323   3.300 -0.9138  1.5263  0.7019
  400MOL0     H52772   5.496   7.299   3.061 -0.5872  1.2429  0.7533
  400MOL0     H52773   5.555   7.366   3.211 -1.0806  0.7788  2.1802
  400MOL0     H52774   5.494   7.172   3.334  2.4786  2.4693 -0.9745
  400MOL0     H52775   5.605   7.134   3.215 -0.5210 -1.2047 -0.7846
  400MOL0     H52776   5.418   7.030   3.083  0.0344  0.6531 -0.3709
  400MOL0     H52777   5.301   7.086   3.208  0.2851  0.4776 -1.4523
  400MOL0     H52778   5.524   6.878   3.230  1.1796 -1.8118  4.1606
  400MOL0     H52779   5.472   6.962   3.364  0.9029  1.7211 -0.7774
  400MOL0     H52780   5.254   6.834   3.171 -1.1471  0.4873  0.6562
  400MOL0     H52781   5.238   6.867   3.347 -0.7492 -0.1015  0.9205
  400MOL0     H52782   4.989   7.377   3.533 -0.0017 -1.0472 -0.0659
  400MOL0     H52783   4.775   7.370   3.595  0.6399  0.6230  0.7903
  400MOL0     H52784   4.247   7.679   3.316 -0.9930 -0.0637 -0.9901
  400MOL0     H52785   4.010   7.628   3.359 -3.6757 -2.7485  1.2893
  400MOL0     H52786   4.023   8.522   4.702  2.2896  0.7408  1.5647
  400MOL0     H52787   4.259   8.586   4.748  1.3644  1.5490 -1.5727
  400MOL0     H52788   4.620   8.773   4.515 -2.2476 -0.6979  0.5736
  400MOL0     H52789   4.846   8.838   4.502  2.8335 -0.2379  0.5506
  400MOL0     H52790   5.116   8.759   4.870  1.7186 -0.0065  0.1423
  400MOL0     H52791   5.061   8.920   4.834  0.6672  2.1639 -0.6293
  400MOL0     H52792   5.313   8.856   4.865 -2.0186 -0.8845  1.3579
  400MOL0     H52793   5.317   8.782   4.699 -1.4822  1.7538 -2.4922
  400MOL0     H52794   5.252   9.074   4.731 -1.3673 -0.0570 -1.7111
  400MOL0     H52795   5.261   8.977   4.581  0.0304 -0.6507 -0.4877
  400MOL0     H52796   5.494   8.992   4.769  1.2101 -1.7848 -0.4792
  400MOL0     H52797   5.475   8.917   4.606  1.7208 -0.2103  0.3548
  400MOL0     H52798   5.599   9.277   4.471  0.0869 -0.1130  1.3268
  400MOL0     H52799   4.928   8.652   4.888 -3.2518 -0.4455  1.6845
  400MOL0     H52800   4.689   8.567   4.884 -2.1090  0.3846 -1.8286
  401MOL0     O52801   5.298  10.846   9.405  0.0415 -0.1520 -0.1557
  401MOL0     C52802   5.344  10.959   9.375 -0.1280  0.1210  0.1596
  401MOL0     O52803   5.451  11.025   9.428  0.1619 -0.1733 -0.4458
  401MOL0     C52804   5.491  11.008   9.558 -0.0436  0.1277  0.0379
  401MOL0     C52805   5.608  11.078   9.580  0.2758 -0.4240 -0.9976
  401MOL0     C52806   5.672  11.065   9.699  0.2410 -0.1556  0.4008
  401MOL0     C52807   5.617  10.990   9.806 -0.1718 -0.1459  0.0072
  401MOL0     O52808   5.664  11.003   9.931  0.2261  0.0405 -0.4870
  401MOL0     C52809   5.809  11.008   9.955  0.3093  0.0774  0.4429
  401MOL0     C52810   5.869  10.871   9.934 -0.4962  0.2868  0.8696
  401MOL0     C52811   5.792  10.760  10.016 -0.0503 -0.3701  0.1039
  401MOL0     C52812   5.779  10.788  10.161 -0.5561 -0.2404 -0.2861
  401MOL0     C52813   5.689  10.692  10.226 -0.5016  1.1723 -0.4270
  401MOL0     C52814   5.536  10.708  10.193 -0.6249  0.2492 -0.3237
  401MOL0     C52815   5.491  10.850  10.240  0.2504  0.2744 -0.4298
  401MOL0     C52816   5.332  10.848  10.247  0.2616 -0.3487 -0.4659
  401MOL0     N52817   5.270  10.839  10.114 -0.2293  0.0204  0.3222
  401MOL0     C52818   5.223  10.939  10.042 -0.2949  0.0882  0.3783
  401MOL0     C52819   5.180  10.883   9.925 -0.0486 -0.7218  0.1502
  401MOL0     C52820   5.103  10.950   9.813 -0.3371  0.5356  0.4186
  401MOL0     C52821   5.095  11.106   9.830 -0.7366 -0.1161  0.6372
  401MOL0     C52822   5.060  11.176   9.700 -0.5380  1.2446  0.4565
  401MOL0     C52823   4.925  11.131   9.644 -1.3876 -0.2031  0.6296
  401MOL0     O52824   4.823  11.118   9.742  0.7140  0.2355 -0.9330
  401MOL0     C52825   4.691  11.102   9.706 -0.2505  0.3276  0.7285
  401MOL0     C52826   4.639  11.134   9.575 -0.3811 -0.3193  0.3029
  401MOL0     C52827   4.499  11.120   9.558 -0.3758  0.3100  0.1806
  401MOL0     C52828   4.412  11.091   9.663  0.2860  0.1581 -0.5172
  401MOL0     C52829   4.265  11.070   9.637  0.2490  0.0448 -0.1397
  401MOL0     O52830   4.196  11.001   9.737 -0.0701 -0.3684  0.4655
  401MOL0     C52831   4.069  10.961   9.725  1.1749 -0.0755 -0.3142
  401MOL0     C52832   3.988  10.944   9.840  0.2848  0.6453  0.3634
  401MOL0     C52833   3.854  10.908   9.843  0.3823 -0.2754  0.8311
  401MOL0     C52834   3.792  10.880   9.718 -0.2801  0.7987 -0.0802
  401MOL0     O52835   3.656  10.849   9.710 -0.6975 -0.7720 -0.2898
  401MOL0     C52836   3.592  10.771   9.809 -0.3275  0.9340  0.7927
  401MOL0     C52837   3.451  10.756   9.764 -0.2847 -0.8520 -0.0637
  401MOL0     C52838   3.367  10.685   9.857  0.3668 -0.2729 -0.6262
  401MOL0     C52839   3.220  10.687   9.798  0.1186  1.2578  0.2093
  401MOL0     C52840   3.144  10.552   9.829 -0.3261  0.3849  0.9194
  401MOL0     C52841   3.109  10.532   9.975 -0.8103  0.3450 -1.2781
  401MOL0     C52842   3.038  10.646  10.047 -0.9604 -0.8965 -0.2078
  401MOL0     C52843   2.896  10.650  10.006  0.0262  0.1498 -0.0715
  401MOL0    Cl52844   2.795  10.757  10.107  0.1610  0.0484  0.2617
  401MOL0     C52845   3.871  10.887   9.601  0.0598  0.7521  0.1478
  401MOL0     C52846   3.999  10.931   9.606  0.8098 -1.0271 -1.0882
  401MOL0     O52847   4.218  11.119   9.534  0.1791 -0.1931  0.1468
  401MOL0     C52848   4.470  11.064   9.784  0.2149  0.3201  0.3764
  401MOL0     C52849   4.609  11.060   9.805  0.0178 -0.2889  0.5065
  401MOL0     N52850   5.208  10.747   9.925 -0.4849  0.3066  0.2148
  401MOL0     N52851   5.260  10.728  10.039  0.0749  0.4088  0.0774
  401MOL0     C52852   5.495  10.924   9.781  0.8138  0.5694 -0.5800
  401MOL0     C52853   5.430  10.930   9.657  0.2334  0.9298 -0.5310
  401MOL0     C52854   5.283  11.023   9.262 -0.1189  0.3530  0.0822
  401MOL0     C52855   5.331  11.141   9.210 -0.4880 -0.8345  1.0841
  401MOL0     C52856   5.277  11.209   9.098 -0.4356  0.1479  0.4212
  401MOL0     C52857   5.168  11.155   9.031  0.4878  0.4434  0.6641
  401MOL0     O52858   5.133  11.216   8.911 -0.3268  0.5694 -0.3705
  401MOL0     C52859   5.056  11.142   8.813 -0.4031 -0.4882 -0.0124
  401MOL0     C52860   5.036  11.228   8.683  0.4818  0.7014 -0.5508
  401MOL0     C52861   4.976  11.368   8.710  0.1593  0.3947  0.4831
  401MOL0     C52862   4.865  11.378   8.816  0.7931 -0.2474  0.1780
  401MOL0     C52863   4.747  11.307   8.750 -0.5318  0.0862  0.0395
  401MOL0     C52864   4.663  11.240   8.700  0.3168 -0.0803 -0.4985
  401MOL0     C52865   5.119  11.036   9.077  0.1528  0.9677  0.7307
  401MOL0     C52866   5.175  10.967   9.185  0.4510  0.7186 -0.8978
  401MOL0     H52867   5.651  11.146   9.506  2.8627 -0.6529  0.1742
  401MOL0     H52868   5.765  11.118   9.718  2.5220 -4.1786  1.9240
  401MOL0     H52869   5.821  11.041  10.059  2.0699  1.2374 -0.0913
  401MOL0     H52870   5.864  11.079   9.893  3.6117 -1.0892  1.8529
  401MOL0     H52871   5.975  10.878   9.959 -0.7137  0.3669  1.7916
  401MOL0     H52872   5.856  10.853   9.827 -0.3003  0.8745  0.7425
  401MOL0     H52873   5.846  10.665  10.008  0.4853 -0.0326 -0.4203
  401MOL0     H52874   5.694  10.744   9.968 -0.0486 -0.3391  0.0908
  401MOL0     H52875   5.878  10.776  10.207 -0.0705  0.9664 -0.9597
  401MOL0     H52876   5.743  10.890  10.177  0.0695 -0.1275  0.4866
  401MOL0     H52877   5.707  10.699  10.334  0.4516  1.9144 -0.6149
  401MOL0     H52878   5.726  10.593  10.197 -0.4536  1.1192 -0.1921
  401MOL0     H52879   5.479  10.626  10.237 -0.1158  0.3670  0.5855
  401MOL0     H52880   5.524  10.703  10.085 -1.7281 -3.4373 -0.1469
  401MOL0     H52881   5.529  10.869  10.341 -2.4104  1.2533  0.4658
  401MOL0     H52882   5.533  10.928  10.176  1.9529  1.0057  1.4441
  401MOL0     H52883   5.284  10.927  10.305 -0.6379 -1.4971  0.4307
  401MOL0     H52884   5.305  10.754  10.296 -1.6547  0.5200  0.2449
  401MOL0     H52885   5.214  11.044  10.068  0.5716  0.0306  0.9229
  401MOL0     H52886   5.004  10.902   9.814 -1.3508  2.5121  1.0532
  401MOL0     H52887   5.158  10.927   9.721 -2.2735  3.3040 -1.6240
  401MOL0     H52888   5.193  11.127   9.873 -0.3349 -4.0547  2.0947
  401MOL0     H52889   5.014  11.123   9.902 -1.4160 -0.1276 -0.1085
  401MOL0     H52890   5.062  11.285   9.705  1.4288  1.3858 -1.6356
  401MOL0     H52891   5.140  11.154   9.628 -1.1565 -2.4352  0.6899
  401MOL0     H52892   4.937  11.030   9.604 -1.0511  0.2434 -0.4291
  401MOL0     H52893   4.899  11.190   9.556  1.1823 -2.6547 -1.9961
  401MOL0     H52894   4.693  11.175   9.490 -1.8790  1.3782  0.0916
  401MOL0     H52895   4.466  11.121   9.455  2.2160 -0.7062 -0.7442
  401MOL0     H52896   4.023  10.961   9.941  1.3925 -1.1080  0.3131
  401MOL0     H52897   3.787  10.904   9.929  1.6131 -0.5947  1.7990
  401MOL0     H52898   3.603  10.824   9.904 -0.7915  2.0273  0.2638
  401MOL0     H52899   3.643  10.676   9.829  1.7624  1.1534 -2.6027
  401MOL0     H52900   3.454  10.714   9.663  0.1018 -2.3697  0.5401
  401MOL0     H52901   3.414  10.857   9.747  1.1599  0.2890  2.8426
  401MOL0     H52902   3.384  10.740   9.949  0.5426  0.7033 -1.2276
  401MOL0     H52903   3.401  10.581   9.859  3.0757  0.5435  0.9608
  401MOL0     H52904   3.158  10.772   9.829 -2.5203 -0.9200  1.3079
  401MOL0     H52905   3.230  10.682   9.690 -2.1123  2.0877 -0.0752
  401MOL0     H52906   3.206  10.468   9.799 -0.6953 -0.1750  1.6927
  401MOL0     H52907   3.054  10.550   9.767  0.9224 -1.6381 -0.9480
  401MOL0     H52908   3.205  10.526  10.027 -1.0758  4.1883 -0.0535
  401MOL0     H52909   3.046  10.444   9.995 -2.0698  1.3224 -0.7989
  401MOL0     H52910   3.045  10.620  10.153 -0.4541 -0.4716 -0.1332
  401MOL0     H52911   3.079  10.744  10.022 -1.2276 -0.7194  0.0481
  401MOL0     H52912   2.848  10.551  10.009 -0.7525  0.5414  1.9909
  401MOL0     H52913   2.892  10.682   9.901  0.3621  0.0684 -0.1134
  401MOL0     H52914   3.849  10.864   9.498 -0.7592 -0.1112  0.4996
  401MOL0     H52915   4.037  10.932   9.505 -0.1108  0.5158 -1.4430
  401MOL0     H52916   4.410  11.033   9.870  0.2988  1.4364  0.8470
  401MOL0     H52917   4.654  11.028   9.898  0.2423 -2.8229 -0.3907
  401MOL0     H52918   5.460  10.867   9.867  0.9484 -0.7390 -1.3639
  401MOL0     H52919   5.347  10.864   9.634 -0.8633  2.1005 -0.0080
  401MOL0     H52920   5.415  11.197   9.252  0.4670  0.4182 -2.1550
  401MOL0     H52921   5.322  11.303   9.066  0.8154 -0.2843  0.8564
  401MOL0     H52922   4.962  11.107   8.856 -0.3028 -0.6509  0.0765
  401MOL0     H52923   5.116  11.058   8.777 -0.0453 -0.8577  1.4008
  401MOL0     H52924   5.136  11.235   8.638  0.2712 -3.7557 -2.2569
  401MOL0     H52925   4.982  11.171   8.606 -1.1654  2.1917 -0.5551
  401MOL0     H52926   4.938  11.415   8.619 -1.0340  1.0024  1.2815
  401MOL0     H52927   5.066  11.426   8.736  0.7078  0.2256 -0.9354
  401MOL0     H52928   4.888  11.336   8.914 -1.7042  2.1191  1.9018
  401MOL0     H52929   4.841  11.483   8.835 -1.3830 -0.8588  1.1149
  401MOL0     H52930   4.587  11.182   8.652  0.1633  0.0233 -0.3810
  401MOL0     H52931   5.035  10.992   9.024  0.8580  0.0332  0.3507
  401MOL0     H52932   5.133  10.872   9.217  1.6062  1.3080  2.8866
  402MOL0     O52933   3.492  10.139   4.242  0.1722 -0.6111  0.7530
  402MOL0     C52934   3.543  10.030   4.222 -0.7388 -0.4817  0.4187
  402MOL0     O52935   3.483   9.920   4.190 -0.5199  0.4153  0.0897
  402MOL0     C52936   3.353   9.902   4.232 -1.2152  0.0511 -0.5955
  402MOL0     C52937   3.316   9.902   4.371 -0.4171  0.5497 -0.4027
  402MOL0     C52938   3.182   9.874   4.410  1.4371 -0.2466  0.5965
  402MOL0     C52939   3.090   9.850   4.303 -0.4622 -0.9923 -0.2338
  402MOL0     O52940   2.960   9.804   4.324  0.0878  0.1642 -0.4607
  402MOL0     C52941   2.908   9.792   4.454 -0.2699  0.1170 -0.4765
  402MOL0     C52942   2.772   9.731   4.453 -0.4579  0.3967  0.0203
  402MOL0     C52943   2.776   9.579   4.410 -0.1642  0.1626 -0.1312
  402MOL0     C52944   2.644   9.503   4.400  0.4107  0.4930 -0.0255
  402MOL0     C52945   2.560   9.548   4.288  0.1226 -0.4622 -0.3265
  402MOL0     C52946   2.411   9.499   4.305 -0.1216 -0.0791  0.1532
  402MOL0     C52947   2.312   9.584   4.215  0.2519  0.2969 -0.3831
  402MOL0     C52948   2.343   9.562   4.064  0.7710 -0.4874 -0.2787
  402MOL0     N52949   2.318   9.420   4.034  0.5260  0.5555 -0.2907
  402MOL0     C52950   2.202   9.344   4.025 -0.5314  0.2676 -0.1397
  402MOL0     C52951   2.243   9.218   3.999  0.1644  0.1663 -0.1754
  402MOL0     C52952   2.160   9.096   3.994  0.3007  0.3759 -0.7607
  402MOL0     C52953   2.092   9.061   4.125  0.2859  0.2931 -0.0735
  402MOL0     C52954   1.983   8.946   4.126 -1.1054 -0.0345  0.3896
  402MOL0     C52955   1.859   8.982   4.045 -0.3470 -0.0405  0.2206
  402MOL0     O52956   1.803   9.091   4.124 -0.0529 -0.1767 -0.3386
  402MOL0     C52957   1.678   9.144   4.084  0.0093 -0.8511  0.7760
  402MOL0     C52958   1.660   9.283   4.080  0.2087  0.1684 -0.1051
  402MOL0     C52959   1.541   9.335   4.021 -0.1717 -1.3213 -0.6720
  402MOL0     C52960   1.445   9.258   3.963 -0.2829  0.4677 -0.6441
  402MOL0     C52961   1.324   9.321   3.902 -0.0192  0.5695  0.6108
  402MOL0     O52962   1.302   9.460   3.917 -0.0401  0.8154  0.2323
  402MOL0     C52963   1.183   9.516   3.882  0.1701 -0.1957  0.5780
  402MOL0     C52964   1.128   9.504   3.751  0.7276  0.1720  1.0063
  402MOL0     C52965   0.998   9.559   3.738 -1.0041  0.4990  0.0414
  402MOL0     C52966   0.921   9.617   3.842  0.7743 -0.5918  0.3077
  402MOL0     O52967   0.797   9.682   3.817  0.6159  0.0405  0.5154
  402MOL0     C52968   0.714   9.613   3.722  0.1997 -0.0161  0.9499
  402MOL0     C52969   0.567   9.649   3.739 -0.1690 -0.7316  0.2026
  402MOL0     C52970   0.493   9.573   3.849  0.6242 -1.1740  0.0232
  402MOL0     C52971   0.354   9.637   3.875 -0.1700 -0.3347  0.4700
  402MOL0     C52972   0.256   9.546   3.953  0.2268 -0.2364 -0.3772
  402MOL0     C52973   0.119   9.597   3.927  0.7118  0.2331  0.6097
  402MOL0     C52974   0.014   9.505   3.976  0.4695  0.4121  0.3961
  402MOL0     C52975  -0.126   9.578   3.947 -0.2971 -0.2437  0.0995
  402MOL0    Cl52976  -0.264   9.479   4.009 -0.3252 -0.2058  0.6492
  402MOL0     C52977   0.983   9.613   3.965 -0.1683  0.0101 -0.0388
  402MOL0     C52978   1.115   9.571   3.981  0.2416  0.2403 -0.2505
  402MOL0     O52979   1.242   9.242   3.854 -0.4736  0.9012  0.0750
  402MOL0     C52980   1.458   9.116   3.974 -0.1264 -0.0178 -0.1897
  402MOL0     C52981   1.574   9.063   4.032  1.2188 -0.2830  0.3353
  402MOL0     N52982   2.375   9.218   3.984  0.3780 -0.6412  0.2300
  402MOL0     N52983   2.420   9.337   4.008  0.3136  0.2667 -0.0636
  402MOL0     C52984   3.131   9.858   4.166  1.1645 -0.4441  0.3467
  402MOL0     C52985   3.268   9.883   4.132 -0.0327 -0.1887 -0.2881
  402MOL0     C52986   3.697  10.015   4.224 -0.2922  0.0687  0.8141
  402MOL0     C52987   3.778  10.130   4.223  0.5522  0.6046 -0.5211
  402MOL0     C52988   3.914  10.120   4.191  0.7970 -0.1830  0.5692
  402MOL0     C52989   3.974   9.995   4.179  0.4001  0.1245  0.4770
  402MOL0     O52990   4.105   9.971   4.147  0.5318  0.3871  0.5169
  402MOL0     C52991   4.194  10.085   4.132  1.2335  0.0867  0.4636
  402MOL0     C52992   4.332  10.032   4.108 -0.3485  0.6569 -1.0241
  402MOL0     C52993   4.452  10.133   4.104  0.4964 -0.1680  0.0454
  402MOL0     C52994   4.593  10.075   4.128 -0.0182  0.3019  1.0204
  402MOL0     C52995   4.625   9.969   4.030  0.2238  0.0850  0.2624
  402MOL0     C52996   4.646   9.880   3.950 -0.2523 -1.3320  0.3146
  402MOL0     C52997   3.896   9.884   4.190 -0.0369  0.3483  0.0586
  402MOL0     C52998   3.763   9.886   4.210  0.8128 -0.8654  0.5806
  402MOL0     H52999   3.389   9.927   4.448 -0.6342  0.1476 -0.0607
  402MOL0     H53000   3.149   9.881   4.512  2.2538 -3.3064  1.1783
  402MOL0     H53001   2.913   9.893   4.494  1.8224  0.6325 -1.8877
  402MOL0     H53002   2.966   9.726   4.519 -2.3482 -1.4697 -0.1158
  402MOL0     H53003   2.714   9.786   4.378  1.0349  0.4793 -1.1258
  402MOL0     H53004   2.727   9.738   4.553  2.2650 -2.4295  1.6330
  402MOL0     H53005   2.832   9.535   4.493 -2.5327  0.4040  1.7093
  402MOL0     H53006   2.833   9.571   4.317  1.7589 -0.2040  1.0043
  402MOL0     H53007   2.652   9.394   4.400  1.6019  0.5739 -0.1444
  402MOL0     H53008   2.593   9.527   4.495  0.8426 -0.0177  0.3366
  402MOL0     H53009   2.607   9.509   4.197 -0.3996  0.7159 -1.1340
  402MOL0     H53010   2.560   9.657   4.275  0.9987 -0.3107  0.7873
  402MOL0     H53011   2.388   9.514   4.411 -0.0874  1.5975 -0.0364
  402MOL0     H53012   2.396   9.392   4.288 -1.9768  0.0750  0.6462
  402MOL0     H53013   2.208   9.559   4.236 -0.6987  4.2530  0.5608
  402MOL0     H53014   2.317   9.692   4.233  0.1260  0.8885 -3.3665
  402MOL0     H53015   2.440   9.595   4.026 -1.3106  1.6408 -4.4458
  402MOL0     H53016   2.270   9.620   4.007 -2.7740 -4.2457 -0.0269
  402MOL0     H53017   2.102   9.384   4.040 -0.3288  1.0959 -0.9422
  402MOL0     H53018   2.229   9.013   3.979  1.6237  1.2303  0.3462
  402MOL0     H53019   2.083   9.098   3.916 -1.4124 -1.0150  0.7929
  402MOL0     H53020   2.042   9.152   4.159  1.8148  1.2435 -0.2744
  402MOL0     H53021   2.176   9.038   4.191 -0.3270 -0.1199  0.5831
  402MOL0     H53022   2.029   8.852   4.094  0.6166 -0.2359  3.0910
  402MOL0     H53023   1.948   8.936   4.230  0.1645 -0.4270  0.7976
  402MOL0     H53024   1.789   8.898   4.035 -0.9843  0.4145  0.7807
  402MOL0     H53025   1.886   9.020   3.945 -1.2156  0.5958  0.2182
  402MOL0     H53026   1.742   9.320   4.141  1.0390 -5.5971  3.0102
  402MOL0     H53027   1.523   9.441   4.014 -0.0352 -1.2585 -0.1122
  402MOL0     H53028   1.174   9.441   3.676  1.8120  1.5971  0.4096
  402MOL0     H53029   0.951   9.547   3.641  0.2528 -1.0464 -0.4227
  402MOL0     H53030   0.725   9.505   3.736 -0.5516 -0.3719 -0.8907
  402MOL0     H53031   0.739   9.637   3.618 -1.1651 -1.1182  0.3359
  402MOL0     H53032   0.511   9.633   3.647 -0.0592 -0.0681  0.0149
  402MOL0     H53033   0.559   9.757   3.757 -1.9826 -1.0860  1.9591
  402MOL0     H53034   0.548   9.575   3.943  0.4132 -2.4171  0.1955
  402MOL0     H53035   0.484   9.469   3.817 -1.5071 -0.6281 -1.3984
  402MOL0     H53036   0.369   9.723   3.941 -0.9950  0.1661  0.0272
  402MOL0     H53037   0.316   9.662   3.776  2.8567 -2.1620 -1.2843
  402MOL0     H53038   0.275   9.550   4.060 -0.3241  0.7330 -0.3030
  402MOL0     H53039   0.259   9.443   3.915 -0.1983 -0.3373 -0.1459
  402MOL0     H53040   0.094   9.610   3.821  0.8974  0.2238  0.5643
  402MOL0     H53041   0.114   9.690   3.985  1.3362 -0.1614  1.3159
  402MOL0     H53042   0.015   9.412   3.918 -0.6837 -0.0826  1.1292
  402MOL0     H53043   0.026   9.482   4.083  0.7063  0.7768  0.4492
  402MOL0     H53044  -0.133   9.589   3.839  2.1448 -1.8802 -0.3212
  402MOL0     H53045  -0.128   9.674   3.998 -1.9891  0.1534 -0.6397
  402MOL0     H53046   0.922   9.655   4.045  2.8480  2.5979  1.0945
  402MOL0     H53047   1.154   9.563   4.082  0.1131 -0.2111 -0.2341
  402MOL0     H53048   1.387   9.052   3.922  2.0298 -2.6878 -0.0446
  402MOL0     H53049   1.576   8.955   4.030  0.7969 -0.3359  1.7795
  402MOL0     H53050   3.049   9.856   4.096  0.9029  1.7934  0.5347
  402MOL0     H53051   3.294   9.872   4.027  0.7848  2.6746 -0.4763
  402MOL0     H53052   3.730  10.227   4.232  0.0542  0.2652  0.8434
  402MOL0     H53053   3.964  10.212   4.164 -0.3862  0.2816 -0.1353
  402MOL0     H53054   4.194  10.146   4.223 -1.0101  1.8087 -0.5844
  402MOL0     H53055   4.163  10.145   4.047  1.2513  1.4778  1.4057
  402MOL0     H53056   4.344   9.962   4.192 -1.1431 -0.7963 -2.0821
  402MOL0     H53057   4.328   9.963   4.023  0.2092 -1.8961  0.8811
  402MOL0     H53058   4.437  10.215   4.174  2.2390 -0.0797  0.3711
  402MOL0     H53059   4.452  10.174   4.002 -5.2942 -0.5951 -0.4758
  402MOL0     H53060   4.669  10.154   4.131  0.0220  0.2985  0.2137
  402MOL0     H53061   4.592  10.018   4.221  0.5750 -1.6409 -0.1190
  402MOL0     H53062   4.658   9.808   3.872 -1.4269 -0.0806 -1.0883
  402MOL0     H53063   3.943   9.788   4.174 -1.0080 -0.8118  3.3672
  402MOL0     H53064   3.697   9.800   4.206 -2.8520  1.7115 -0.4347
  403MOL0     O53065   0.739   0.661   3.991 -1.0248  0.6881  0.1562
  403MOL0     C53066   0.799   0.558   4.028 -0.0256 -0.2573  0.0412
  403MOL0     O53067   0.760   0.427   4.001  0.1534  0.2400  0.6303
  403MOL0     C53068   0.634   0.387   3.965  0.4041  0.0798  0.3814
  403MOL0     C53069   0.520   0.436   4.035 -0.2524  0.1882 -0.1289
  403MOL0     C53070   0.394   0.379   4.001 -0.1650 -0.0917  0.3665
  403MOL0     C53071   0.378   0.275   3.908 -0.7356 -0.4973 -0.6568
  403MOL0     O53072   0.247   0.246   3.877 -0.1389 -0.4498 -0.6081
  403MOL0     C53073   0.230   0.132   3.795 -0.5549 -0.0884 -0.3128
  403MOL0     C53074   0.082   0.138   3.752  0.0456 -0.4041  0.5599
  403MOL0     C53075   0.038   0.000   3.704  0.4972  0.0445 -0.1950
  403MOL0     C53076  -0.097   0.014   3.638 -0.1846  0.1869 -0.7771
  403MOL0     C53077  -0.152  -0.136   3.618  0.1097  0.0782 -0.4923
  403MOL0     C53078  -0.256  -0.135   3.501 -1.1191  0.1702  0.0379
  403MOL0     C53079  -0.325  -0.269   3.495 -0.0147 -0.5057  0.2365
  403MOL0     C53080  -0.447  -0.258   3.407  0.2006 -0.2472  0.0071
  403MOL0     N53081  -0.502  -0.378   3.347 -0.0151 -0.0687  0.2356
  403MOL0     C53082  -0.450  -0.447   3.240 -0.2166  0.2050 -0.1011
  403MOL0     C53083  -0.517  -0.566   3.255  0.0831  0.5976  0.0567
  403MOL0     C53084  -0.503  -0.684   3.162 -0.0062  0.4395 -0.0288
  403MOL0     C53085  -0.377  -0.772   3.184  0.4528  0.0189  0.0778
  403MOL0     C53086  -0.274  -0.733   3.079  0.2217 -0.1056  0.4098
  403MOL0     C53087  -0.136  -0.789   3.118 -0.2277 -0.9245 -0.1704
  403MOL0     O53088  -0.042  -0.749   3.016 -0.1194 -0.4060  0.2921
  403MOL0     C53089   0.087  -0.801   3.028 -0.5806 -0.5975  0.4322
  403MOL0     C53090   0.115  -0.935   3.060 -0.0398  1.4667 -0.9113
  403MOL0     C53091   0.250  -0.977   3.051 -0.1967  0.2825  0.0762
  403MOL0     C53092   0.360  -0.887   3.029 -0.4247  0.4671 -0.6496
  403MOL0     C53093   0.497  -0.917   3.070  0.4148 -0.3126  0.5526
  403MOL0     O53094   0.587  -0.823   3.043  0.3393  0.3894  0.3439
  403MOL0     C53095   0.716  -0.863   3.065  1.0208  0.2213 -0.6170
  403MOL0     C53096   0.789  -0.903   2.952 -0.1657  0.7366 -0.7103
  403MOL0     C53097   0.921  -0.938   2.968 -0.5580  0.3135 -0.2173
  403MOL0     C53098   0.978  -0.932   3.102 -0.7154 -0.0267  0.9109
  403MOL0     O53099   1.108  -0.963   3.130  0.0822 -0.1820  0.8686
  403MOL0     C53100   1.207  -0.966   3.024  0.8846  0.8269  0.3013
  403MOL0     C53101   1.336  -0.971   3.106 -0.0115 -0.2425 -0.4346
  403MOL0     C53102   1.354  -1.097   3.183 -0.6877  0.5900  0.2984
  403MOL0     C53103   1.494  -1.086   3.249 -0.1603 -0.4557 -0.2567
  403MOL0     C53104   1.517  -1.217   3.321 -0.7357  0.3470 -0.1979
  403MOL0     C53105   1.655  -1.202   3.395  0.1487  0.0142 -0.5553
  403MOL0     C53106   1.687  -1.330   3.466 -0.0808 -0.5880  0.5208
  403MOL0     C53107   1.837  -1.362   3.446 -0.5132 -0.8482 -0.3388
  403MOL0    Cl53108   1.913  -1.202   3.480 -0.2716  0.2466  0.0614
  403MOL0     C53109   0.894  -0.900   3.211  0.1960 -0.5414 -0.2373
  403MOL0     C53110   0.761  -0.860   3.197  0.0945  1.0312 -0.0305
  403MOL0     O53111   0.514  -1.030   3.098  0.0059  0.6940  0.2722
  403MOL0     C53112   0.319  -0.756   2.999  1.0292 -0.1221  0.4533
  403MOL0     C53113   0.183  -0.717   2.989  0.4514  0.2538  0.0904
  403MOL0     N53114  -0.611  -0.556   3.354 -1.2137  0.0918 -0.2752
  403MOL0     N53115  -0.609  -0.438   3.401 -0.6483 -0.7572 -0.5461
  403MOL0     C53116   0.497   0.224   3.848 -0.6557 -0.2289 -0.8811
  403MOL0     C53117   0.622   0.281   3.878 -0.4220  0.1954  0.2242
  403MOL0     C53118   0.921   0.578   4.111 -0.3685  0.7589  0.6303
  403MOL0     C53119   0.979   0.463   4.171  0.4855 -0.4197 -0.6694
  403MOL0     C53120   1.084   0.478   4.269  0.4981  0.2230 -0.8776
  403MOL0     C53121   1.110   0.604   4.324  0.2213 -0.4571  0.3954
  403MOL0     O53122   1.195   0.624   4.424 -0.4081  0.4056  0.1904
  403MOL0     C53123   1.294   0.526   4.449  0.0590 -0.4779  0.2263
  403MOL0     C53124   1.427   0.600   4.437  0.0808 -0.3514  0.3974
  403MOL0     C53125   1.434   0.702   4.550  0.1503  0.9706  0.4273
  403MOL0     C53126   1.577   0.743   4.594  0.1852 -0.8491 -0.2606
  403MOL0     C53127   1.651   0.634   4.659 -0.4084 -0.2150 -0.8543
  403MOL0     C53128   1.700   0.530   4.690  1.5864  0.5914 -0.0356
  403MOL0     C53129   1.063   0.715   4.252 -0.0247 -0.7712  0.1792
  403MOL0     C53130   0.973   0.702   4.149  0.0410 -0.0269  0.5810
  403MOL0     H53131   0.530   0.526   4.096  0.2620 -0.0428  0.1351
  403MOL0     H53132   0.303   0.404   4.056 -0.9650  0.3827 -1.0978
  403MOL0     H53133   0.258   0.038   3.844  2.0642 -0.1768 -1.7537
  403MOL0     H53134   0.288   0.129   3.702  1.9115 -1.0731  1.1472
  403MOL0     H53135   0.073   0.213   3.673 -0.1503  1.1884  2.0378
  403MOL0     H53136   0.015   0.175   3.830 -3.2605  1.9415 -3.0474
  403MOL0     H53137   0.027  -0.067   3.790 -0.6029 -0.2539 -0.5507
  403MOL0     H53138   0.110  -0.038   3.632 -0.7399 -0.7796 -1.0480
  403MOL0     H53139  -0.159   0.078   3.702  1.8396  0.3138  1.1512
  403MOL0     H53140  -0.092   0.065   3.542  0.5960 -2.0582 -2.0180
  403MOL0     H53141  -0.194  -0.170   3.713  1.2179 -2.4470 -0.8071
  403MOL0     H53142  -0.063  -0.198   3.603 -0.5287 -0.6724 -1.2877
  403MOL0     H53143  -0.216  -0.098   3.407 -2.4782 -0.8938 -1.0082
  403MOL0     H53144  -0.325  -0.057   3.536  0.2272  0.8352  1.3124
  403MOL0     H53145  -0.253  -0.345   3.464 -0.4685  0.0879 -2.5353
  403MOL0     H53146  -0.352  -0.299   3.597 -0.0868  1.4049  0.8179
  403MOL0     H53147  -0.428  -0.194   3.320 -2.0717  2.1105  1.1112
  403MOL0     H53148  -0.531  -0.210   3.459  0.2026 -1.7234  1.4735
  403MOL0     H53149  -0.381  -0.420   3.160 -0.4109  1.7884  0.2346
  403MOL0     H53150  -0.508  -0.652   3.058 -0.3172  1.4203  0.2711
  403MOL0     H53151  -0.594  -0.745   3.175  0.5904 -0.4463  0.0912
  403MOL0     H53152  -0.407  -0.876   3.169 -0.8577  0.7956 -4.2869
  403MOL0     H53153  -0.331  -0.758   3.281  0.9025  0.9672 -0.2644
  403MOL0     H53154  -0.289  -0.772   2.978  0.0327 -1.6173  0.9917
  403MOL0     H53155  -0.269  -0.624   3.073 -3.5087  0.1523 -0.7022
  403MOL0     H53156  -0.140  -0.899   3.119 -2.9276 -0.9568 -2.6037
  403MOL0     H53157  -0.107  -0.750   3.215  0.2782 -2.0272  0.1438
  403MOL0     H53158   0.042  -1.012   3.084  1.3225 -0.1973 -1.8869
  403MOL0     H53159   0.267  -1.079   3.084 -2.3523  0.2637  1.3194
  403MOL0     H53160   0.746  -0.908   2.852 -0.2726 -2.0070 -0.6194
  403MOL0     H53161   0.991  -0.957   2.887 -1.0038  0.5379 -0.6596
  403MOL0     H53162   1.201  -0.873   2.967 -1.0347  1.2483  1.0868
  403MOL0     H53163   1.192  -1.051   2.957 -0.5109  2.9568 -2.2597
  403MOL0     H53164   1.342  -0.881   3.169  2.4543 -0.0156 -0.9011
  403MOL0     H53165   1.426  -0.965   3.043  0.9617 -0.5091  0.8801
  403MOL0     H53166   1.349  -1.176   3.108 -1.2688  0.3121  0.6222
  403MOL0     H53167   1.279  -1.122   3.259 -1.4816  0.1532 -0.6035
  403MOL0     H53168   1.579  -1.064   3.184 -1.0463 -0.1710 -1.3423
  403MOL0     H53169   1.487  -1.015   3.332 -2.1763 -2.2151  1.1764
  403MOL0     H53170   1.543  -1.292   3.246 -1.1103  0.1339 -0.1169
  403MOL0     H53171   1.428  -1.250   3.377 -1.6815  1.8221 -0.7720
  403MOL0     H53172   1.649  -1.118   3.465  3.4703  1.9525 -2.2991
  403MOL0     H53173   1.728  -1.178   3.316  1.5012 -3.2625 -0.4566
  403MOL0     H53174   1.671  -1.314   3.573  1.5472 -0.3201  0.7454
  403MOL0     H53175   1.626  -1.413   3.429 -4.2015  3.3693 -2.6422
  403MOL0     H53176   1.852  -1.405   3.347 -1.2442 -0.6495 -0.5431
  403MOL0     H53177   1.863  -1.441   3.517 -1.9555  0.5301  1.8610
  403MOL0     H53178   0.928  -0.912   3.314 -0.9351  3.3097  0.7636
  403MOL0     H53179   0.702  -0.834   3.285 -0.6353 -0.6126  0.0116
  403MOL0     H53180   0.390  -0.675   3.007  0.6171  0.3337 -0.3716
  403MOL0     H53181   0.145  -0.617   2.968  0.7633  0.8236  2.0294
  403MOL0     H53182   0.492   0.148   3.771  0.1808  0.3473 -1.5262
  403MOL0     H53183   0.716   0.245   3.840 -0.0016  0.4305  1.0114
  403MOL0     H53184   0.940   0.365   4.145 -2.1116  0.2258  0.4854
  403MOL0     H53185   1.125   0.382   4.299 -1.0166  0.3517  1.8812
  403MOL0     H53186   1.321   0.445   4.380  2.3209 -1.0630  1.6514
  403MOL0     H53187   1.283   0.474   4.545  0.9636 -2.5911 -0.7380
  403MOL0     H53188   1.501   0.520   4.451  0.9773  0.5612  1.0377
  403MOL0     H53189   1.435   0.647   4.339 -0.8165 -2.0093 -0.5140
  403MOL0     H53190   1.385   0.659   4.638 -0.3661 -2.6477 -1.4513
  403MOL0     H53191   1.390   0.795   4.514  2.1245  0.9780 -2.2902
  403MOL0     H53192   1.633   0.779   4.507  0.0252 -1.7260 -0.7430
  403MOL0     H53193   1.571   0.826   4.664 -1.6762 -0.8188 -0.4169
  403MOL0     H53194   1.724   0.429   4.718  3.0526  0.3496 -1.9083
  403MOL0     H53195   1.097   0.813   4.282  1.1128 -1.2434  0.5315
  403MOL0     H53196   0.947   0.796   4.101  0.1442  0.8132  2.0907
  404MOL0     O53197   7.175   0.277   2.121 -0.1205 -0.0536 -1.1874
  404MOL0     C53198   7.216   0.167   2.163  0.5082 -0.5219 -0.1807
  404MOL0     O53199   7.128   0.057   2.169 -0.2165 -0.2605 -0.3695
  404MOL0     C53200   6.993   0.081   2.132 -1.1748 -0.3075 -0.3481
  404MOL0     C53201   6.903   0.106   2.227 -0.7093  0.0536 -0.2493
  404MOL0     C53202   6.767   0.133   2.190  0.9395  0.0250 -0.8214
  404MOL0     C53203   6.729   0.131   2.060 -0.1073 -1.0005 -0.3336
  404MOL0     O53204   6.603   0.151   2.016 -0.3117  0.3227  0.7651
  404MOL0     C53205   6.494   0.123   2.104 -0.5167 -1.0268 -0.0241
  404MOL0     C53206   6.368   0.129   2.019  0.0094 -0.8961  0.4019
  404MOL0     C53207   6.236   0.109   2.104 -0.5313  0.5293  0.6014
  404MOL0     C53208   6.118   0.116   2.012 -0.9344 -0.2856  0.1853
  404MOL0     C53209   5.994   0.092   2.085 -0.3017 -0.2080  0.0095
  404MOL0     C53210   5.874   0.103   1.994 -0.1934 -0.2949 -0.0380
  404MOL0     C53211   5.742   0.061   2.065  0.8976 -0.7958 -0.5258
  404MOL0     C53212   5.726  -0.082   2.053 -0.1179 -0.9875 -0.0517
  404MOL0     N53213   5.602  -0.129   2.112 -0.1142 -0.4156  0.1612
  404MOL0     C53214   5.485  -0.162   2.044 -0.0229  0.9177 -0.6567
  404MOL0     C53215   5.406  -0.206   2.147 -0.1422  0.6218  0.4028
  404MOL0     C53216   5.267  -0.268   2.151  0.0996 -0.2348  0.2012
  404MOL0     C53217   5.165  -0.166   2.220  0.5306 -0.1663  0.3589
  404MOL0     C53218   5.015  -0.223   2.211  0.0296 -0.8972  0.7421
  404MOL0     C53219   4.925  -0.112   2.243  0.5213 -0.3155 -0.6544
  404MOL0     O53220   4.780  -0.148   2.232 -0.1194  0.0389  0.1698
  404MOL0     C53221   4.688  -0.054   2.273 -0.4580 -0.2574  0.5821
  404MOL0     C53222   4.561  -0.080   2.238 -0.3039 -0.1283  1.0515
  404MOL0     C53223   4.451  -0.016   2.285 -0.0701 -0.2143  0.0665
  404MOL0     C53224   4.467   0.076   2.384  0.5530  0.3428 -0.7292
  404MOL0     C53225   4.345   0.138   2.454  0.0433 -0.3563  0.7761
  404MOL0     O53226   4.226   0.072   2.437 -0.4740 -0.0072 -0.0830
  404MOL0     C53227   4.104   0.114   2.477  0.1278 -0.1621 -0.5406
  404MOL0     C53228   4.069   0.222   2.562  0.3598  0.6613 -0.7130
  404MOL0     C53229   3.933   0.249   2.593 -0.3430 -0.0754  0.5209
  404MOL0     C53230   3.828   0.170   2.548 -0.5046  0.3843  0.2503
  404MOL0     O53231   3.695   0.176   2.589 -0.0701  0.7633  0.4132
  404MOL0     C53232   3.667   0.260   2.700 -0.0773  0.1484 -0.8868
  404MOL0     C53233   3.517   0.259   2.712  0.7747  0.8031 -0.5548
  404MOL0     C53234   3.466   0.140   2.789  0.0819  1.2063 -0.6693
  404MOL0     C53235   3.312   0.140   2.777  0.0796 -0.5098  0.4615
  404MOL0     C53236   3.246   0.020   2.846 -0.0748 -0.3313 -0.7111
  404MOL0     C53237   3.099   0.013   2.826  0.5283  0.1871  0.3774
  404MOL0     C53238   3.028  -0.093   2.891  0.1502  0.3882  0.1747
  404MOL0     C53239   2.901  -0.110   2.821  1.3335  0.1766  0.2308
  404MOL0    Cl53240   2.790  -0.219   2.909 -0.3044  0.2088 -0.1939
  404MOL0     C53241   3.865   0.060   2.466  0.8745 -1.2221  1.0831
  404MOL0     C53242   4.001   0.037   2.429  0.1005 -0.1055 -0.7188
  404MOL0     O53243   4.362   0.242   2.513  0.0131 -0.1543 -0.7140
  404MOL0     C53244   4.604   0.114   2.419  0.9991  0.1778 -0.4481
  404MOL0     C53245   4.707   0.052   2.367  0.9079 -0.8463 -0.7454
  404MOL0     N53246   5.484  -0.221   2.261  0.1112  0.0142 -0.0508
  404MOL0     N53247   5.594  -0.170   2.240 -0.4237  0.4551  0.5518
  404MOL0     C53248   6.820   0.101   1.957  0.8591 -0.3216  0.4008
  404MOL0     C53249   6.951   0.077   1.994 -0.3607 -0.0181  0.6629
  404MOL0     C53250   7.361   0.161   2.192  0.4212  0.6377 -0.1405
  404MOL0     C53251   7.422   0.042   2.238 -0.4140  0.1876 -0.4927
  404MOL0     C53252   7.554   0.036   2.270  0.2734  0.0658  1.1976
  404MOL0     C53253   7.636   0.149   2.246  0.0886 -0.2113 -0.1475
  404MOL0     O53254   7.763   0.126   2.266 -1.1827  0.0740  0.1628
  404MOL0     C53255   7.853   0.238   2.308 -0.5553 -0.1647 -0.0603
  404MOL0     C53256   7.822   0.288   2.454 -0.6890  0.2909  1.3513
  404MOL0     C53257   7.845   0.177   2.553 -0.4636  0.5173 -0.5189
  404MOL0     C53258   7.782   0.219   2.684 -0.0131  1.0966  0.2684
  404MOL0     C53259   7.820   0.120   2.786 -0.0155  0.4809 -0.4057
  404MOL0     C53260   7.870   0.035   2.853  0.7096 -0.3439  0.1341
  404MOL0     C53261   7.581   0.267   2.192 -0.7118 -0.1586  0.4677
  404MOL0     C53262   7.448   0.270   2.168  0.2013  0.1949  0.5515
  404MOL0     H53263   6.935   0.118   2.330  0.1793  1.3498 -0.6529
  404MOL0     H53264   6.692   0.143   2.268 -1.0130  0.4679 -2.6989
  404MOL0     H53265   6.498   0.209   2.172  1.5659 -2.4913  1.8694
  404MOL0     H53266   6.502   0.026   2.153 -1.6573 -0.8356  0.5688
  404MOL0     H53267   6.367   0.041   1.955  0.3080 -2.7416  2.8167
  404MOL0     H53268   6.369   0.221   1.960  1.8388 -0.6046  0.8390
  404MOL0     H53269   6.222   0.178   2.188 -0.7357 -1.1370  1.9996
  404MOL0     H53270   6.239   0.013   2.155 -1.5144  0.8034  1.1920
  404MOL0     H53271   6.111   0.212   1.961  0.8908 -1.9685 -3.6296
  404MOL0     H53272   6.135   0.048   1.929  2.3039 -0.3668  0.7806
  404MOL0     H53273   5.992   0.165   2.167  2.7219 -1.5343  1.3961
  404MOL0     H53274   5.998  -0.010   2.124  2.2385  0.1352  0.8133
  404MOL0     H53275   5.892   0.054   1.898 -0.8355 -1.8181  0.5974
  404MOL0     H53276   5.860   0.210   1.974 -0.5763 -0.4279 -0.4772
  404MOL0     H53277   5.740   0.085   2.172 -2.4049 -1.0750 -0.4359
  404MOL0     H53278   5.650   0.099   2.021 -1.0924 -2.4159  1.9625
  404MOL0     H53279   5.801  -0.125   2.120  1.3009  2.3257  0.6990
  404MOL0     H53280   5.730  -0.112   1.948  2.5562  0.9444 -0.6206
  404MOL0     H53281   5.463  -0.156   1.937  2.1193 -1.0034 -1.2906
  404MOL0     H53282   5.266  -0.364   2.203  2.1972 -0.3876  0.0576
  404MOL0     H53283   5.238  -0.280   2.046 -0.4794 -0.0150  0.3299
  404MOL0     H53284   5.165  -0.069   2.170 -3.2122  0.2988  0.9388
  404MOL0     H53285   5.199  -0.142   2.321  0.3651  1.0076  0.1489
  404MOL0     H53286   4.983  -0.257   2.112  0.2481  0.3311  0.2301
  404MOL0     H53287   4.998  -0.303   2.284  0.7685  0.2839  2.2708
  404MOL0     H53288   4.939  -0.022   2.183  1.2265  0.3658  0.4980
  404MOL0     H53289   4.942  -0.084   2.348  1.4413  0.2567 -0.9450
  404MOL0     H53290   4.535  -0.159   2.168  1.7158  0.9754 -1.1242
  404MOL0     H53291   4.350  -0.045   2.257  0.1417  1.0099 -2.1075
  404MOL0     H53292   4.149   0.282   2.606  1.9758 -0.4647 -1.9964
  404MOL0     H53293   3.909   0.330   2.662 -1.5082  1.2348 -1.3261
  404MOL0     H53294   3.688   0.367   2.691  0.1740  0.4374  2.1101
  404MOL0     H53295   3.718   0.231   2.792 -0.8629  0.3223 -0.3853
  404MOL0     H53296   3.457   0.275   2.622  1.9108 -0.0049 -1.4799
  404MOL0     H53297   3.492   0.349   2.770  1.6768 -0.0197  1.1842
  404MOL0     H53298   3.496   0.157   2.893  0.9747 -1.9154 -0.2884
  404MOL0     H53299   3.508   0.045   2.754 -1.5351  0.4529 -0.6360
  404MOL0     H53300   3.266   0.220   2.835 -0.8594 -2.1225  2.0482
  404MOL0     H53301   3.274   0.157   2.676  0.4864  0.7742  0.5140
  404MOL0     H53302   3.268   0.016   2.954 -1.5902  0.3879 -0.3569
  404MOL0     H53303   3.300  -0.068   2.808  0.1107 -0.1808 -0.7997
  404MOL0     H53304   3.070   0.019   2.721  1.8992  1.2775  0.0284
  404MOL0     H53305   3.071   0.111   2.866 -1.1419 -0.3652  0.6222
  404MOL0     H53306   3.089  -0.182   2.874 -3.2161 -1.5816 -3.1260
  404MOL0     H53307   3.021  -0.067   2.997  0.0208  0.7623  0.0760
  404MOL0     H53308   2.919  -0.163   2.727 -1.4534  0.9098 -0.8299
  404MOL0     H53309   2.848  -0.016   2.804 -3.6997 -2.0285  1.6470
  404MOL0     H53310   3.783  -0.000   2.429 -0.2404  1.2342 -0.7918
  404MOL0     H53311   4.029  -0.038   2.356  0.4789 -0.8904  0.2035
  404MOL0     H53312   4.614   0.196   2.490 -0.7347  0.0436  0.0072
  404MOL0     H53313   4.798   0.090   2.413  0.8829 -0.6237 -0.8773
  404MOL0     H53314   6.787   0.089   1.855 -0.0855 -1.6511  0.8306
  404MOL0     H53315   7.031   0.057   1.923  1.7706  0.3136  2.8336
  404MOL0     H53316   7.362  -0.048   2.238  0.7369 -0.7602 -4.5049
  404MOL0     H53317   7.596  -0.063   2.285  1.6238  0.8776  3.3906
  404MOL0     H53318   7.841   0.320   2.237 -0.6753 -1.6126 -1.7655
  404MOL0     H53319   7.954   0.198   2.299 -1.1052 -1.1485 -2.5809
  404MOL0     H53320   7.881   0.380   2.469  0.7766 -0.0240 -1.6636
  404MOL0     H53321   7.718   0.322   2.455 -1.3816 -1.6376  0.1412
  404MOL0     H53322   7.953   0.163   2.565 -0.4359 -2.1971 -2.8527
  404MOL0     H53323   7.811   0.077   2.523  5.2872 -1.8494 -0.5916
  404MOL0     H53324   7.811   0.319   2.718 -1.4423  1.1830  1.3556
  404MOL0     H53325   7.673   0.224   2.674 -0.0953  1.9246  1.3749
  404MOL0     H53326   7.894  -0.058   2.901  0.7669 -1.7233 -2.4119
  404MOL0     H53327   7.639   0.357   2.172  1.9086 -1.4017  1.8498
  404MOL0     H53328   7.402   0.359   2.126 -2.2332 -1.1453  0.2331
  405MOL0     O53329   7.499  10.387  10.670  0.2244 -0.6294 -1.0981
  405MOL0     C53330   7.528  10.502  10.651  0.8532  0.6341 -0.2754
  405MOL0     O53331   7.443  10.615  10.654 -0.7872 -0.8056 -0.2266
  405MOL0     C53332   7.320  10.615  10.702  0.2550  0.0139  0.3829
  405MOL0     C53333   7.233  10.705  10.650  1.0817  0.0234  0.2732
  405MOL0     C53334   7.098  10.701  10.682  0.4734 -0.3501 -0.4857
  405MOL0     C53335   7.046  10.616  10.790 -0.3039 -0.6489  0.8748
  405MOL0     O53336   6.912  10.634  10.825 -0.0343 -0.3660 -0.5126
  405MOL0     C53337   6.819  10.724  10.756  0.7429  0.2296 -0.2612
  405MOL0     C53338   6.677  10.701  10.808 -0.4898 -0.1472  0.4752
  405MOL0     C53339   6.573  10.792  10.749  0.8002 -0.6766 -0.0350
  405MOL0     C53340   6.436  10.747  10.806 -0.4994 -0.3089  0.0410
  405MOL0     C53341   6.334  10.858  10.760  0.0457  0.5802 -0.3073
  405MOL0     C53342   6.196  10.841  10.835  0.7222  0.6553  0.3071
  405MOL0     C53343   6.108  10.964  10.807 -0.7946 -0.4166 -0.4147
  405MOL0     C53344   5.960  10.931  10.808 -0.0330 -0.0513 -0.3987
  405MOL0     N53345   5.875  11.047  10.777 -0.4665 -0.7888 -0.0840
  405MOL0     C53346   5.859  11.156  10.858 -0.1149 -0.1600  0.0438
  405MOL0     C53347   5.792  11.250  10.784  0.2653  0.5571  0.0054
  405MOL0     C53348   5.746  11.386  10.809  0.1815 -0.1109  0.8744
  405MOL0     C53349   5.633  11.383  10.909 -0.8909 -0.4672 -0.8547
  405MOL0     C53350   5.573  11.530  10.928 -0.1424 -0.9938 -0.1645
  405MOL0     C53351   5.489  11.580  10.816  1.3275  0.0387  0.0639
  405MOL0     O53352   5.350  11.575  10.854 -0.1073 -0.1824  0.0901
  405MOL0     C53353   5.260  11.617  10.763  0.5179  0.3950  0.4478
  405MOL0     C53354   5.128  11.628  10.804 -0.4986 -0.0369  0.4762
  405MOL0     C53355   5.023  11.667  10.714 -0.7028 -0.1163  0.4863
  405MOL0     C53356   5.061  11.681  10.577 -0.3363 -0.1110 -0.3074
  405MOL0     C53357   4.961  11.718  10.482  0.7214  0.0044 -0.7693
  405MOL0     O53358   4.829  11.680  10.522 -0.4337 -0.0165 -0.5743
  405MOL0     C53359   4.717  11.686  10.445 -0.2579  0.2222  0.1233
  405MOL0     C53360   4.717  11.717  10.313 -0.1923  0.0734 -1.3976
  405MOL0     C53361   4.601  11.714  10.231 -0.2983 -0.5655 -0.1991
  405MOL0     C53362   4.483  11.681  10.296  0.2190  0.0505  0.1529
  405MOL0     O53363   4.374  11.686  10.217 -0.1756  0.4441 -0.0356
  405MOL0     C53364   4.243  11.666  10.271  0.4894  0.8000 -1.0075
  405MOL0     C53365   4.150  11.696  10.154 -0.1989 -0.0644 -0.4971
  405MOL0     C53366   4.011  11.699  10.205 -0.7284 -0.3501 -0.8058
  405MOL0     C53367   3.907  11.718  10.096  0.0401  0.6681  0.1489
  405MOL0     C53368   3.765  11.723  10.159  0.1432 -0.0565 -0.0169
  405MOL0     C53369   3.655  11.713  10.058 -0.1057 -0.4388 -0.6532
  405MOL0     C53370   3.515  11.748  10.114  0.2511 -0.2015  0.5510
  405MOL0     C53371   3.458  11.652  10.217 -0.5557 -0.3713 -0.2138
  405MOL0    Cl53372   3.292  11.688  10.236  0.2446  0.1125  0.1286
  405MOL0     C53373   4.482  11.645  10.429  0.9633  0.0335 -0.1400
  405MOL0     C53374   4.606  11.643  10.503 -0.1287  0.5483 -0.5682
  405MOL0     O53375   4.994  11.780  10.385 -0.0186  0.4061 -0.0517
  405MOL0     C53376   5.194  11.662  10.533  0.0176 -0.9976  0.2314
  405MOL0     C53377   5.295  11.633  10.625  0.0209  0.1804 -0.9938
  405MOL0     N53378   5.766  11.190  10.660  0.4485  0.1398 -0.0429
  405MOL0     N53379   5.816  11.071  10.656 -0.3691 -0.5265  0.0333
  405MOL0     C53380   7.144  10.530  10.850 -0.3891  0.1070 -0.1960
  405MOL0     C53381   7.283  10.532  10.812 -0.2910 -0.3162  0.4277
  405MOL0     C53382   7.674  10.524  10.636  0.2322  0.0544  0.1747
  405MOL0     C53383   7.772  10.418  10.636  0.1264 -0.0754  0.5347
  405MOL0     C53384   7.906  10.454  10.620  0.9087  0.4093  0.0708
  405MOL0     C53385   7.947  10.582  10.583  0.3225 -0.1368 -0.0232
  405MOL0     O53386   8.072  10.617  10.565 -0.0137 -0.2242  0.3637
  405MOL0     C53387   8.163  10.513  10.525 -0.0506  0.7709  0.3532
  405MOL0     C53388   8.288  10.570  10.462 -0.0321 -0.4242  0.8143
  405MOL0     C53389   8.296  10.503  10.320 -0.3824  0.8904  0.1051
  405MOL0     C53390   8.434  10.546  10.254  0.0286 -0.3336  0.6680
  405MOL0     C53391   8.459  10.484  10.120  1.3138  0.4792 -0.1941
  405MOL0     C53392   8.470  10.419  10.019 -0.8229 -0.1265 -0.5547
  405MOL0     C53393   7.847  10.680  10.585  0.2945  0.6141  0.2035
  405MOL0     C53394   7.716  10.651  10.604  0.4478  0.4871 -0.3293
  405MOL0     H53395   7.261  10.765  10.564 -0.6321 -1.7217 -1.6129
  405MOL0     H53396   7.026  10.772  10.643 -0.4446 -0.2923  1.1984
  405MOL0     H53397   6.826  10.696  10.650 -0.9822  0.7265 -0.5417
  405MOL0     H53398   6.841  10.831  10.763 -4.2778  1.5264 -0.7357
  405MOL0     H53399   6.691  10.716  10.916 -1.4513  1.5859  0.3979
  405MOL0     H53400   6.659  10.595  10.790  2.2912 -0.7640  0.8648
  405MOL0     H53401   6.571  10.794  10.640  1.4025  2.9072 -0.1091
  405MOL0     H53402   6.592  10.898  10.771 -1.2173  0.1911 -2.0721
  405MOL0     H53403   6.408  10.651  10.762  0.3033 -0.0048 -1.1951
  405MOL0     H53404   6.432  10.752  10.915  0.3575  2.1079  0.0328
  405MOL0     H53405   6.313  10.822  10.658  0.3940  1.9324 -0.8719
  405MOL0     H53406   6.366  10.962  10.764 -2.6858  1.4885  3.1650
  405MOL0     H53407   6.207  10.847  10.944 -3.9504  0.1779  0.9922
  405MOL0     H53408   6.146  10.745  10.821 -0.8276  1.6112 -1.0663
  405MOL0     H53409   6.135  11.041  10.880  1.5089  0.9493 -2.5221
  405MOL0     H53410   6.136  10.996  10.706  0.4087 -0.8754 -0.2486
  405MOL0     H53411   5.941  10.889  10.907  0.6142 -0.2387 -0.3515
  405MOL0     H53412   5.935  10.850  10.740 -1.5745 -0.8034  0.9932
  405MOL0     H53413   5.892  11.186  10.957  0.1504 -1.1060  0.2518
  405MOL0     H53414   5.709  11.440  10.721 -0.4062 -0.1274  1.1113
  405MOL0     H53415   5.828  11.450  10.843  0.6470  0.6296 -1.4102
  405MOL0     H53416   5.674  11.342  11.002 -0.8063  0.5145 -0.4489
  405MOL0     H53417   5.558  11.317  10.864 -0.5976 -1.2925 -0.1588
  405MOL0     H53418   5.516  11.523  11.021 -2.4917  1.6942 -1.2754
  405MOL0     H53419   5.655  11.602  10.939  0.4704 -1.8454  1.2179
  405MOL0     H53420   5.499  11.511  10.731  2.1309 -0.7302  0.7568
  405MOL0     H53421   5.523  11.682  10.795  0.6645  0.6104  1.6395
  405MOL0     H53422   5.107  11.620  10.910  1.7647  1.9757  1.1514
  405MOL0     H53423   4.922  11.684  10.748 -0.9275 -1.6693  0.6595
  405MOL0     H53424   4.817  11.730  10.273  0.2400 -1.1800 -0.7867
  405MOL0     H53425   4.597  11.743  10.126  2.0835 -2.6905 -0.9711
  405MOL0     H53426   4.225  11.730  10.359 -1.9569 -0.7549 -0.2794
  405MOL0     H53427   4.228  11.564  10.307 -1.5833  1.8994  1.5748
  405MOL0     H53428   4.162  11.617  10.079  0.3740 -1.7616  1.3076
  405MOL0     H53429   4.173  11.786  10.096 -0.5065  1.1529  1.2041
  405MOL0     H53430   4.005  11.772  10.286 -0.8082  1.4522 -2.3605
  405MOL0     H53431   3.983  11.603  10.249  1.1746 -0.7356 -0.3216
  405MOL0     H53432   3.929  11.816  10.052 -1.2007  0.6953 -0.4598
  405MOL0     H53433   3.908  11.642  10.017 -3.0027  2.1888 -1.5094
  405MOL0     H53434   3.752  11.816  10.216 -1.9830  0.2411 -0.9067
  405MOL0     H53435   3.750  11.639  10.226 -0.4352 -0.8090 -1.0726
  405MOL0     H53436   3.655  11.610  10.020 -1.0240 -1.3170  1.5972
  405MOL0     H53437   3.678  11.773   9.969 -1.2791 -0.5041 -1.0149
  405MOL0     H53438   3.533  11.848  10.156  3.4381 -0.6782  0.5441
  405MOL0     H53439   3.445  11.773  10.033  0.0953 -0.0025  0.7443
  405MOL0     H53440   3.509  11.680  10.310 -0.3536 -0.0707 -0.4122
  405MOL0     H53441   3.480  11.547  10.194  1.1083 -1.2179  4.2721
  405MOL0     H53442   4.385  11.619  10.471  0.2175  1.5819 -0.8216
  405MOL0     H53443   4.622  11.619  10.607  0.9425  1.3093 -0.5339
  405MOL0     H53444   5.214  11.670  10.427  3.6027 -0.2911  0.8034
  405MOL0     H53445   5.397  11.623  10.589  0.6211 -3.7435  1.1911
  405MOL0     H53446   7.105  10.461  10.924  2.2116 -0.5106  0.7068
  405MOL0     H53447   7.354  10.465  10.858 -0.7919 -0.6305  0.7556
  405MOL0     H53448   7.742  10.314  10.642  2.8053 -1.0801 -1.5214
  405MOL0     H53449   7.981  10.381  10.650  0.4278  0.6305  1.9889
  405MOL0     H53450   8.124  10.437  10.457  0.8673  0.6135 -0.0061
  405MOL0     H53451   8.203  10.458  10.611  1.0421 -2.5176 -2.0877
  405MOL0     H53452   8.282  10.679  10.457  1.4976 -0.3718 -1.5819
  405MOL0     H53453   8.370  10.540  10.528 -2.9810 -4.8329  2.9943
  405MOL0     H53454   8.212  10.535  10.257  0.0805  2.6018  0.2800
  405MOL0     H53455   8.297  10.394  10.327  1.4329  0.6085 -2.7575
  405MOL0     H53456   8.445  10.655  10.249 -1.9212 -0.0140  2.0618
  405MOL0     H53457   8.511  10.517  10.325 -0.3491 -0.7516  0.9142
  405MOL0     H53458   8.478  10.364   9.927  0.1819  0.2605 -0.7167
  405MOL0     H53459   7.860  10.781  10.549  0.2403  0.2856 -0.7647
  405MOL0     H53460   7.644  10.731  10.601 -0.9520 -0.6505  1.0267
  406MOL0     O53461   6.772   9.757   3.819 -0.5357 -0.3063 -0.2601
  406MOL0     C53462   6.728   9.653   3.773  0.0145  0.0602  0.3862
  406MOL0     O53463   6.795   9.556   3.711 -0.5929  0.1566 -0.4862
  406MOL0     C53464   6.931   9.553   3.707  0.1265 -0.5180  0.4543
  406MOL0     C53465   7.019   9.659   3.707 -0.1438 -0.5276 -0.1603
  406MOL0     C53466   7.154   9.637   3.691  0.7648 -0.3872 -0.4713
  406MOL0     C53467   7.208   9.514   3.685  0.6711 -1.1317  0.9848
  406MOL0     O53468   7.347   9.509   3.658 -0.0143  1.2526  0.1528
  406MOL0     C53469   7.400   9.374   3.658 -0.1632  0.1569  1.3561
  406MOL0     C53470   7.539   9.392   3.598 -0.3021  0.1194 -0.5847
  406MOL0     C53471   7.608   9.248   3.601 -0.3544 -0.6011  0.0580
  406MOL0     C53472   7.761   9.259   3.572 -0.0137  0.1173  0.4819
  406MOL0     C53473   7.842   9.286   3.699 -0.1880 -0.7937  0.1012
  406MOL0     C53474   7.989   9.235   3.682 -0.2955 -0.3396 -0.3188
  406MOL0     C53475   8.091   9.345   3.665  0.9241 -0.7676  0.0951
  406MOL0     C53476   8.084   9.405   3.521  0.3679  0.5671 -0.0020
  406MOL0     N53477   8.150   9.307   3.437 -0.2161 -0.1295  0.3118
  406MOL0     C53478   8.274   9.256   3.447 -0.1780 -0.0913  0.5649
  406MOL0     C53479   8.283   9.157   3.356 -0.6441  0.5061  0.3488
  406MOL0     C53480   8.382   9.052   3.356 -0.3413 -0.0870 -0.6421
  406MOL0     C53481   8.331   8.930   3.440 -0.1635  0.1540  0.2190
  406MOL0     C53482   8.318   8.961   3.590 -0.6827  0.4653 -0.5173
  406MOL0     C53483   8.271   8.835   3.664  0.8868  0.3576 -0.1877
  406MOL0     O53484   8.147   8.776   3.613  0.4400  0.0356  0.3250
  406MOL0     C53485   8.028   8.820   3.670  0.4278  0.7049 -0.3388
  406MOL0     C53486   7.933   8.877   3.591  0.9051  0.0564  0.3791
  406MOL0     C53487   7.809   8.917   3.652 -0.7318  0.5777  1.1171
  406MOL0     C53488   7.786   8.901   3.791 -0.1462  0.1660  0.5927
  406MOL0     C53489   7.653   8.933   3.851 -0.0749  0.1313  0.5506
  406MOL0     O53490   7.550   8.947   3.765  0.4679 -0.7296  0.3712
  406MOL0     C53491   7.419   8.968   3.797  0.1714 -0.4882 -1.1452
  406MOL0     C53492   7.361   8.987   3.928 -0.1308 -0.0885  0.0705
  406MOL0     C53493   7.215   9.008   3.943  0.4972 -0.3587 -0.6793
  406MOL0     C53494   7.133   9.030   3.830 -0.7546 -0.3296 -0.4357
  406MOL0     O53495   6.999   9.069   3.834  0.0340  0.1869  0.8266
  406MOL0     C53496   6.933   9.117   3.952  0.2575  1.0092  0.0302
  406MOL0     C53497   6.779   9.076   3.934 -0.1656 -0.3154 -0.0820
  406MOL0     C53498   6.694   9.182   4.010  0.4716  0.3677  0.1577
  406MOL0     C53499   6.552   9.130   4.001  0.0983 -0.0780 -0.2899
  406MOL0     C53500   6.443   9.238   4.037 -0.2658 -0.2328  0.0018
  406MOL0     C53501   6.434   9.270   4.187  0.2649 -0.4717 -0.1084
  406MOL0     C53502   6.386   9.147   4.274  0.0076  0.1848 -0.2807
  406MOL0     C53503   6.423   9.171   4.417  0.7635 -0.2270 -0.8031
  406MOL0    Cl53504   6.364   9.334   4.474  0.2892  0.1007  0.2706
  406MOL0     C53505   7.193   9.005   3.705 -0.2105 -0.1534 -0.3082
  406MOL0     C53506   7.331   8.976   3.694  0.3204 -0.2134  0.7959
  406MOL0     O53507   7.648   8.942   3.974 -0.2465  0.2669 -0.0587
  406MOL0     C53508   7.884   8.845   3.874  0.1969 -0.0607  0.2198
  406MOL0     C53509   8.004   8.807   3.809 -0.0492 -0.9645  0.4630
  406MOL0     N53510   8.158   9.145   3.295 -0.9060  0.0015  0.0625
  406MOL0     N53511   8.083   9.231   3.348  0.7572 -0.8318  0.3594
  406MOL0     C53512   7.120   9.408   3.689  0.0269  0.5855 -0.8673
  406MOL0     C53513   6.981   9.423   3.703 -0.4923  0.1317 -0.2488
  406MOL0     C53514   6.581   9.628   3.782 -0.1322  1.0687  0.7182
  406MOL0     C53515   6.536   9.500   3.742 -0.2826 -0.1062  0.3347
  406MOL0     C53516   6.403   9.462   3.725 -0.8870 -1.3452  0.7708
  406MOL0     C53517   6.306   9.558   3.749  0.0700 -0.3284 -0.8685
  406MOL0     O53518   6.176   9.540   3.716 -0.3091 -0.0480 -0.3044
  406MOL0     C53519   6.074   9.611   3.790  0.0971  0.1910 -0.1161
  406MOL0     C53520   5.941   9.561   3.747  0.1037 -0.7451 -0.5561
  406MOL0     C53521   5.905   9.642   3.624  0.5698 -0.6560 -0.3606
  406MOL0     C53522   5.751   9.617   3.600 -0.5126 -0.4156  0.4662
  406MOL0     C53523   5.726   9.476   3.560  0.0412 -0.7550  0.3835
  406MOL0     C53524   5.698   9.362   3.536  0.4908  0.3644  0.1891
  406MOL0     C53525   6.351   9.686   3.799  0.1360 -0.1068  0.7871
  406MOL0     C53526   6.483   9.719   3.814 -0.5419 -0.0172 -0.8591
  406MOL0     H53527   6.979   9.759   3.696  1.5814  0.4357  1.7908
  406MOL0     H53528   7.219   9.721   3.669 -1.8817  1.2857 -2.5699
  406MOL0     H53529   7.356   9.308   3.583  0.9698  0.9661 -0.0947
  406MOL0     H53530   7.396   9.322   3.754 -0.3428 -0.4285  1.0339
  406MOL0     H53531   7.609   9.459   3.650  0.8503  0.7813 -2.8394
  406MOL0     H53532   7.541   9.430   3.495 -0.2692 -1.2409 -1.0997
  406MOL0     H53533   7.566   9.176   3.530  2.4301 -0.2970 -2.1020
  406MOL0     H53534   7.597   9.199   3.699  3.4104 -2.2618 -0.1685
  406MOL0     H53535   7.799   9.185   3.501  3.0083 -0.3273  2.3718
  406MOL0     H53536   7.781   9.345   3.506 -0.1086  0.2768  0.6607
  406MOL0     H53537   7.806   9.222   3.779 -0.8710 -0.5078  0.0350
  406MOL0     H53538   7.843   9.394   3.720  2.2988 -1.1593  2.3459
  406MOL0     H53539   7.998   9.155   3.609  1.1606 -2.3521  1.9038
  406MOL0     H53540   8.001   9.178   3.775  0.5167 -0.5299 -0.5335
  406MOL0     H53541   8.074   9.427   3.735 -0.5118  1.8921 -3.0900
  406MOL0     H53542   8.191   9.309   3.689  0.6205 -0.6527  1.5934
  406MOL0     H53543   8.115   9.510   3.517  0.4312  0.5871  0.7245
  406MOL0     H53544   7.988   9.410   3.469  1.4913  2.5388 -2.0704
  406MOL0     H53545   8.355   9.281   3.515  0.1393  2.3583 -0.6193
  406MOL0     H53546   8.474   9.104   3.381 -1.5222  2.0220 -0.4354
  406MOL0     H53547   8.388   9.022   3.251  0.7515 -2.0684 -0.0752
  406MOL0     H53548   8.394   8.841   3.428 -0.0500  0.3117 -0.3981
  406MOL0     H53549   8.231   8.908   3.402 -0.3914 -0.6913  1.2665
  406MOL0     H53550   8.420   8.987   3.620 -0.5502  2.0337 -2.1123
  406MOL0     H53551   8.257   9.050   3.606 -1.2736  0.1952 -1.2035
  406MOL0     H53552   8.274   8.844   3.773  0.6096 -0.8579 -0.0585
  406MOL0     H53553   8.347   8.757   3.646 -0.5082 -0.7786 -1.4008
  406MOL0     H53554   7.943   8.900   3.485 -0.3314 -1.6790 -0.1620
  406MOL0     H53555   7.725   8.951   3.593  0.1769  0.4789 -0.2580
  406MOL0     H53556   7.425   8.982   4.015  1.5124 -2.5233 -1.1575
  406MOL0     H53557   7.194   9.011   4.050  1.9613 -1.4160 -0.3286
  406MOL0     H53558   6.943   9.225   3.965 -0.1289  0.8874  1.4973
  406MOL0     H53559   6.977   9.063   4.036  0.9474  0.1643 -0.8406
  406MOL0     H53560   6.763   8.971   3.960  3.6222 -0.8236  0.7976
  406MOL0     H53561   6.752   9.085   3.828  1.0292 -0.2320 -0.3967
  406MOL0     H53562   6.697   9.277   3.957  1.4699  1.1095  1.4709
  406MOL0     H53563   6.724   9.199   4.114  1.2560 -1.3792  0.2566
  406MOL0     H53564   6.536   9.085   3.903 -3.9522 -0.6502  0.4881
  406MOL0     H53565   6.539   9.051   4.075 -3.1691  2.5846  2.3306
  406MOL0     H53566   6.350   9.206   3.989  0.0515  1.0551 -1.5280
  406MOL0     H53567   6.477   9.328   3.986 -0.4557 -0.0659  0.1650
  406MOL0     H53568   6.372   9.360   4.196 -0.5181 -1.0393  0.2902
  406MOL0     H53569   6.537   9.293   4.217  0.2103  0.5719 -0.6747
  406MOL0     H53570   6.277   9.142   4.261 -0.0329 -0.2379  0.1932
  406MOL0     H53571   6.428   9.052   4.242  2.3103  0.4463  1.6955
  406MOL0     H53572   6.526   9.158   4.450 -0.6422  0.5842  5.2139
  406MOL0     H53573   6.387   9.099   4.491  2.1840  0.6296  0.8110
  406MOL0     H53574   7.129   9.014   3.618  0.6250  0.6963 -0.8662
  406MOL0     H53575   7.373   8.958   3.596  0.4075  0.9008  0.6062
  406MOL0     H53576   7.876   8.827   3.981  0.0793  0.4622  0.3005
  406MOL0     H53577   8.082   8.761   3.869 -0.1554  0.3490  1.6561
  406MOL0     H53578   7.168   9.311   3.690 -1.7536 -0.3692  0.6607
  406MOL0     H53579   6.917   9.341   3.730  1.3296  0.3946  6.5089
  406MOL0     H53580   6.606   9.422   3.712 -0.5800  0.4154 -1.9309
  406MOL0     H53581   6.376   9.360   3.696  2.1456 -2.2833  0.8297
  406MOL0     H53582   6.079   9.720   3.777  2.3671 -0.0028 -1.4235
  406MOL0     H53583   6.098   9.596   3.896  2.5998  1.0750 -0.4841
  406MOL0     H53584   5.955   9.458   3.715 -0.0920 -0.8053 -0.4434
  406MOL0     H53585   5.870   9.571   3.829  0.8492  0.1998  0.0025
  406MOL0     H53586   5.955   9.612   3.532  1.9319 -0.4141  0.2833
  406MOL0     H53587   5.919   9.749   3.640 -1.6705 -0.6083  1.7835
  406MOL0     H53588   5.687   9.633   3.687  0.1562  1.8711  0.5971
  406MOL0     H53589   5.715   9.685   3.522 -1.0407 -0.9931  0.2010
  406MOL0     H53590   5.667   9.270   3.491  1.1533 -0.2592  0.9706
  406MOL0     H53591   6.277   9.764   3.812 -0.9562 -1.0967  0.6687
  406MOL0     H53592   6.498   9.823   3.842 -4.9879  0.4891  0.4949
  407MOL0     O53593   2.977   7.489   1.912  0.2632  0.2883 -0.1283
  407MOL0     C53594   3.037   7.596   1.913  0.5431 -0.3230  0.5611
  407MOL0     O53595   2.975   7.719   1.893 -0.0438 -0.0414  0.0226
  407MOL0     C53596   2.847   7.712   1.831 -0.1909  0.3450 -0.2834
  407MOL0     C53597   2.736   7.710   1.918 -0.6498 -0.1474 -0.6918
  407MOL0     C53598   2.603   7.706   1.873 -0.5864 -0.3115  0.6913
  407MOL0     C53599   2.577   7.683   1.739  0.7358 -0.0644 -0.5744
  407MOL0     O53600   2.447   7.656   1.691 -0.3206  0.3632 -0.0881
  407MOL0     C53601   2.337   7.629   1.782 -0.9190  0.2893  0.2336
  407MOL0     C53602   2.238   7.547   1.706 -0.3072  0.4449 -0.7976
  407MOL0     C53603   2.166   7.635   1.596  0.3635 -0.0466  0.1180
  407MOL0     C53604   2.018   7.599   1.566  0.1903  0.0441  0.3552
  407MOL0     C53605   1.993   7.452   1.522 -0.7191 -0.4980 -0.8863
  407MOL0     C53606   1.847   7.427   1.506  0.5554 -0.5867 -0.6294
  407MOL0     C53607   1.790   7.418   1.649 -0.0529 -0.3330 -0.5825
  407MOL0     C53608   1.665   7.329   1.645  0.1456  0.0016 -0.1935
  407MOL0     N53609   1.622   7.315   1.781  0.9130 -0.4362 -0.2140
  407MOL0     C53610   1.542   7.408   1.849  0.0106  0.2625 -0.6124
  407MOL0     C53611   1.509   7.338   1.959 -0.4085  0.0874 -0.2620
  407MOL0     C53612   1.419   7.386   2.067 -0.1920  0.5379  0.1835
  407MOL0     C53613   1.267   7.359   2.041  0.1654 -1.1837  0.3356
  407MOL0     C53614   1.197   7.424   2.160 -0.3550  0.1122 -0.6549
  407MOL0     C53615   1.042   7.405   2.151 -0.6474 -0.2308 -0.4658
  407MOL0     O53616   0.987   7.475   2.262  0.7131 -0.1846  0.3011
  407MOL0     C53617   0.852   7.507   2.256 -1.2156  0.0452  0.2840
  407MOL0     C53618   0.766   7.458   2.157 -0.1806 -0.5038 -0.5276
  407MOL0     C53619   0.626   7.461   2.184 -0.5822  0.5875  0.7866
  407MOL0     C53620   0.577   7.534   2.289 -0.7768 -0.9192 -0.4184
  407MOL0     C53621   0.431   7.553   2.305  0.1117 -1.5523 -0.7108
  407MOL0     O53622   0.348   7.513   2.208  0.2500 -0.0954  0.4783
  407MOL0     C53623   0.214   7.550   2.205 -0.1354 -0.2550  0.0012
  407MOL0     C53624   0.117   7.449   2.169 -0.4162 -1.1270  0.2516
  407MOL0     C53625  -0.021   7.481   2.167  0.1211 -0.8149  0.9022
  407MOL0     C53626  -0.063   7.611   2.182 -0.1456 -0.1934  0.7556
  407MOL0     O53627  -0.196   7.629   2.174 -0.0733 -0.5041 -0.1904
  407MOL0     C53628  -0.247   7.760   2.197  0.2929 -0.2016  0.4364
  407MOL0     C53629  -0.313   7.780   2.331 -0.2833 -0.1970  0.5640
  407MOL0     C53630  -0.402   7.902   2.331 -0.3241 -0.2452  0.4732
  407MOL0     C53631  -0.515   7.876   2.426  0.1687  0.1596 -0.2701
  407MOL0     C53632  -0.608   8.002   2.424 -0.8510 -0.9797  0.3412
  407MOL0     C53633  -0.741   7.989   2.498  0.0461  1.0741  0.2200
  407MOL0     C53634  -0.831   8.110   2.485 -0.0242 -0.3809  0.5033
  407MOL0     C53635  -0.868   8.173   2.619 -0.2826 -0.9367 -0.1028
  407MOL0    Cl53636  -0.987   8.317   2.588  0.2490 -0.2106 -0.5378
  407MOL0     C53637   0.033   7.703   2.216  0.4289 -0.8535  0.2200
  407MOL0     C53638   0.173   7.680   2.223  0.1673  0.5588  0.6864
  407MOL0     O53639   0.387   7.599   2.413  0.3164  0.2018  0.2600
  407MOL0     C53640   0.662   7.600   2.385 -0.3906  0.0209 -0.1591
  407MOL0     C53641   0.798   7.585   2.363 -0.2374  0.6619 -0.1086
  407MOL0     N53642   1.580   7.214   1.961  0.3205  0.0642 -0.3497
  407MOL0     N53643   1.642   7.205   1.856 -0.9714  0.9420  0.1163
  407MOL0     C53644   2.679   7.689   1.648  0.2617 -0.3916  0.1630
  407MOL0     C53645   2.814   7.699   1.689  0.7837  0.0606 -0.6317
  407MOL0     C53646   3.178   7.598   1.954 -0.0036  0.0325 -0.1999
  407MOL0     C53647   3.264   7.705   1.925 -0.5040  0.4140  0.3119
  407MOL0     C53648   3.409   7.700   1.942  0.3348 -0.4442 -0.5035
  407MOL0     C53649   3.466   7.587   2.007  0.7799 -0.4343  0.3808
  407MOL0     O53650   3.597   7.564   2.015 -0.3705  0.7062 -0.2749
  407MOL0     C53651   3.688   7.642   1.936  0.3229 -0.3056  0.3818
  407MOL0     C53652   3.731   7.754   2.024 -0.6299 -0.0397 -0.4732
  407MOL0     C53653   3.860   7.829   1.974 -1.1543  0.0247 -0.1877
  407MOL0     C53654   3.844   7.891   1.832 -0.2203 -0.2530 -0.4380
  407MOL0     C53655   3.967   7.944   1.783 -0.0191  0.9075 -0.1209
  407MOL0     C53656   4.068   7.968   1.733 -0.3316 -1.0698 -0.0631
  407MOL0     C53657   3.386   7.487   2.037  0.1956  0.5125 -0.7728
  407MOL0     C53658   3.243   7.488   2.019  0.3772 -0.9371  0.6624
  407MOL0     H53659   2.757   7.709   2.025  0.3756 -3.3632 -0.7934
  407MOL0     H53660   2.527   7.721   1.950  0.7269  0.8060  1.8189
  407MOL0     H53661   2.287   7.723   1.805 -0.8430 -0.0323  1.8150
  407MOL0     H53662   2.368   7.573   1.871 -3.9009 -2.6512 -0.3536
  407MOL0     H53663   2.164   7.505   1.775  1.2363 -3.0655 -1.0657
  407MOL0     H53664   2.292   7.463   1.661  0.8312 -1.0743  2.9742
  407MOL0     H53665   2.230   7.637   1.507  0.6485  3.8440  0.2634
  407MOL0     H53666   2.159   7.737   1.635 -0.9630  0.9024 -2.3982
  407MOL0     H53667   1.953   7.621   1.651  1.0508  0.1166  1.0063
  407MOL0     H53668   1.987   7.665   1.485  2.9839  0.2210 -0.6909
  407MOL0     H53669   2.042   7.383   1.591  0.7137  1.7069  0.4666
  407MOL0     H53670   2.022   7.438   1.417 -3.5507 -1.6823 -1.5954
  407MOL0     H53671   1.822   7.334   1.454 -3.1728  0.4360 -0.9975
  407MOL0     H53672   1.803   7.509   1.449  1.8461 -0.2480 -1.1729
  407MOL0     H53673   1.870   7.384   1.715 -0.9648  0.8233  1.1997
  407MOL0     H53674   1.769   7.520   1.683 -1.1491 -0.7193 -0.0424
  407MOL0     H53675   1.706   7.231   1.619  0.8606  0.9415 -2.9743
  407MOL0     H53676   1.589   7.370   1.578 -0.7277 -0.6084  0.3991
  407MOL0     H53677   1.519   7.509   1.819  0.9823  0.0363 -2.2475
  407MOL0     H53678   1.427   7.495   2.080 -1.7717  0.7760 -0.6103
  407MOL0     H53679   1.457   7.325   2.149  1.2369 -0.9717 -1.5243
  407MOL0     H53680   1.243   7.253   2.033 -0.3788 -1.3763  3.4018
  407MOL0     H53681   1.237   7.392   1.941  1.8866  1.7551  0.6555
  407MOL0     H53682   1.227   7.381   2.257  0.7804 -0.8522 -1.3954
  407MOL0     H53683   1.230   7.528   2.163  0.7869 -0.2529  0.4522
  407MOL0     H53684   1.014   7.301   2.171  2.8256 -0.5958  4.1902
  407MOL0     H53685   0.999   7.440   2.056  0.3431 -0.9440 -1.2054
  407MOL0     H53686   0.791   7.397   2.071 -4.5772  0.3329 -2.7258
  407MOL0     H53687   0.570   7.422   2.100  0.4728 -0.2974  0.4674
  407MOL0     H53688   0.129   7.343   2.150 -1.6317 -0.9383 -1.7727
  407MOL0     H53689  -0.096   7.406   2.144  0.6027 -0.7429 -1.1029
  407MOL0     H53690  -0.331   7.772   2.127  1.3437  2.3734 -0.5038
  407MOL0     H53691  -0.183   7.845   2.174  0.1761  0.3154  1.8993
  407MOL0     H53692  -0.237   7.791   2.409  0.5559  0.7835 -0.3675
  407MOL0     H53693  -0.369   7.688   2.349  1.2560 -0.7294  3.1823
  407MOL0     H53694  -0.446   7.923   2.233  3.4057  0.6248 -1.1744
  407MOL0     H53695  -0.354   7.994   2.365  1.7738 -1.5461  1.2329
  407MOL0     H53696  -0.569   7.789   2.388  2.2894 -1.3685  0.0358
  407MOL0     H53697  -0.479   7.860   2.528  3.3226  1.7092 -1.0148
  407MOL0     H53698  -0.629   8.013   2.317  1.9912  1.1035 -0.1365
  407MOL0     H53699  -0.570   8.097   2.464 -3.6356 -0.6482  2.4790
  407MOL0     H53700  -0.727   7.962   2.603 -1.1791 -3.7287 -0.6251
  407MOL0     H53701  -0.785   7.901   2.450  2.4775  0.0388 -0.2598
  407MOL0     H53702  -0.792   8.187   2.418 -0.0538 -2.0249 -1.4851
  407MOL0     H53703  -0.922   8.071   2.440  0.8697 -1.1803 -0.6592
  407MOL0     H53704  -0.786   8.216   2.678 -1.0512  1.3046 -0.5607
  407MOL0     H53705  -0.914   8.097   2.684  0.8643 -0.8846  0.8105
  407MOL0     H53706  -0.001   7.804   2.235 -0.8004 -1.1126 -0.5120
  407MOL0     H53707   0.241   7.759   2.252 -0.0945  0.3558  1.9066
  407MOL0     H53708   0.618   7.661   2.462  0.0630  0.4749 -0.2515
  407MOL0     H53709   0.863   7.641   2.430  0.8469  1.6211 -1.9128
  407MOL0     H53710   2.646   7.696   1.545 -0.1414 -0.6890  0.2706
  407MOL0     H53711   2.902   7.710   1.626  3.4652 -1.3771  2.5341
  407MOL0     H53712   3.216   7.788   1.873 -1.7716  0.7132  1.8801
  407MOL0     H53713   3.470   7.782   1.909  0.8052 -0.0077  1.3313
  407MOL0     H53714   3.644   7.682   1.845 -0.4584  1.0236  1.3103
  407MOL0     H53715   3.771   7.572   1.921  1.0347  0.1315  2.0039
  407MOL0     H53716   3.649   7.821   2.051 -0.5165 -0.4823  1.0723
  407MOL0     H53717   3.754   7.706   2.120  1.0854 -1.0476 -1.3407
  407MOL0     H53718   3.944   7.759   1.972  0.5852  1.7555  3.1159
  407MOL0     H53719   3.885   7.912   2.041 -1.0219 -0.0958 -0.0882
  407MOL0     H53720   3.815   7.808   1.767  1.6115 -0.2387 -1.3272
  407MOL0     H53721   3.773   7.973   1.825 -0.4534 -0.5951 -2.8225
  407MOL0     H53722   4.158   7.989   1.677  0.1083 -1.5972  0.4359
  407MOL0     H53723   3.435   7.407   2.091 -0.5836  1.1405  0.9340
  407MOL0     H53724   3.196   7.396   2.053 -2.7245  1.3844  3.2129
  408MOL0     O53725   3.316   0.793   6.923  0.1133  0.2929 -0.2663
  408MOL0     C53726   3.342   0.798   7.040 -0.3667 -0.9955 -0.0081
  408MOL0     O53727   3.261   0.753   7.132 -0.1496  1.3417 -0.7940
  408MOL0     C53728   3.148   0.673   7.100  0.8733 -0.3813  0.6817
  408MOL0     C53729   3.037   0.716   7.034 -0.4414  0.2911  0.3319
  408MOL0     C53730   2.918   0.646   7.005 -0.4050  0.5824  0.0773
  408MOL0     C53731   2.903   0.522   7.065  0.0576  0.6887 -0.3227
  408MOL0     O53732   2.784   0.468   7.041  0.8953  0.5829  0.2039
  408MOL0     C53733   2.745   0.343   7.103 -0.2731  0.0109 -0.0136
  408MOL0     C53734   2.716   0.244   6.989 -0.4036 -0.4144 -0.5460
  408MOL0     C53735   2.828   0.159   6.942 -0.6669  0.2997  0.1786
  408MOL0     C53736   2.954   0.229   6.871 -0.1622 -0.0578 -0.1923
  408MOL0     C53737   3.056   0.125   6.818  0.2205  0.8394  0.3818
  408MOL0     C53738   3.179   0.180   6.749  0.2201 -0.9013 -0.2843
  408MOL0     C53739   3.285   0.063   6.708  0.7276  0.6710 -0.2357
  408MOL0     C53740   3.415   0.124   6.651  0.1876 -0.4281  0.2870
  408MOL0     N53741   3.492   0.034   6.574 -0.7675 -0.4907 -0.9563
  408MOL0     C53742   3.622   0.063   6.529  0.0603  0.5511 -0.0901
  408MOL0     C53743   3.647  -0.037   6.438 -0.6764  0.0438 -0.3305
  408MOL0     C53744   3.770  -0.063   6.351  0.1302  0.0018  0.5448
  408MOL0     C53745   3.865  -0.161   6.413  0.2685 -0.6627  0.1454
  408MOL0     C53746   3.945  -0.224   6.292 -0.2298 -0.0558 -0.4098
  408MOL0     C53747   4.036  -0.119   6.222  0.4076  0.5478 -0.7920
  408MOL0     O53748   4.104  -0.035   6.315 -0.4536  0.7208 -0.6463
  408MOL0     C53749   4.237  -0.016   6.308 -1.2998  0.0850  0.0654
  408MOL0     C53750   4.293   0.096   6.266 -0.1720 -0.3775  0.4722
  408MOL0     C53751   4.430   0.115   6.275  0.1696 -0.4620  0.0392
  408MOL0     C53752   4.519   0.011   6.317  1.1051 -0.3278  0.0159
  408MOL0     C53753   4.663   0.032   6.320 -1.2356  0.3769 -0.5395
  408MOL0     O53754   4.710   0.142   6.244  0.0948 -0.3521  0.6128
  408MOL0     C53755   4.843   0.165   6.206 -0.2617  0.4324 -0.5057
  408MOL0     C53756   4.883   0.286   6.150 -0.2189  0.5472 -0.9932
  408MOL0     C53757   5.010   0.306   6.110 -0.3883 -0.0111 -0.2592
  408MOL0     C53758   5.107   0.194   6.119  0.2429  0.1777 -0.5250
  408MOL0     O53759   5.236   0.219   6.076 -0.0565 -0.3073  0.8185
  408MOL0     C53760   5.259   0.212   5.932 -0.1113 -0.1660 -0.2169
  408MOL0     C53761   5.384   0.299   5.895 -0.1676  0.4039 -0.2703
  408MOL0     C53762   5.357   0.450   5.914 -0.6176  1.3588  0.7594
  408MOL0     C53763   5.485   0.526   5.899 -0.4980 -0.4076  0.4051
  408MOL0     C53764   5.450   0.682   5.927  0.0627 -0.2092  0.3753
  408MOL0     C53765   5.577   0.766   5.911 -0.0850  0.0742 -0.0776
  408MOL0     C53766   5.528   0.912   5.899 -0.5524 -0.1723  0.6595
  408MOL0     C53767   5.635   0.998   5.846  0.0967  0.4799  0.2727
  408MOL0    Cl53768   5.754   1.020   5.977  0.1166 -0.0845  0.4136
  408MOL0     C53769   5.072   0.082   6.189 -0.2085  0.0612 -0.4167
  408MOL0     C53770   4.941   0.062   6.231  0.0877  0.6068 -0.5177
  408MOL0     O53771   4.733  -0.036   6.399 -0.2961 -1.0329  0.2435
  408MOL0     C53772   4.461  -0.114   6.356  0.4760  0.2490  0.7888
  408MOL0     C53773   4.323  -0.120   6.350  0.6638  0.0160 -0.3669
  408MOL0     N53774   3.542  -0.131   6.433  0.0601 -0.0544 -1.2893
  408MOL0     N53775   3.456  -0.077   6.515  0.1799 -0.3457  0.5380
  408MOL0     C53776   3.014   0.471   7.140 -0.3617  0.2399 -0.4805
  408MOL0     C53777   3.130   0.544   7.149 -0.6511  0.9860  0.0890
  408MOL0     C53778   3.463   0.880   7.075  0.3608  0.2107 -0.1749
  408MOL0     C53779   3.532   0.953   6.977 -0.2875  0.2587  0.0386
  408MOL0     C53780   3.644   1.025   7.017 -0.3757  0.5866  0.3761
  408MOL0     C53781   3.699   1.008   7.149  0.2588  0.6276 -0.7114
  408MOL0     O53782   3.808   1.073   7.197 -0.2952  0.0738  1.2729
  408MOL0     C53783   3.883   1.167   7.115  0.7239 -0.0256  0.4111
  408MOL0     C53784   3.996   1.230   7.185 -0.0816  0.2666  0.4092
  408MOL0     C53785   4.096   1.135   7.246  0.2995  0.9645 -0.2415
  408MOL0     C53786   4.222   1.211   7.299  0.6889  0.2749 -0.2045
  408MOL0     C53787   4.202   1.332   7.377  0.6764  0.3474 -0.3197
  408MOL0     C53788   4.167   1.429   7.433  0.1419 -0.2086 -0.2211
  408MOL0     C53789   3.630   0.927   7.240 -0.4200 -0.5758  0.4393
  408MOL0     C53790   3.510   0.865   7.210  0.3415  0.5258 -0.6972
  408MOL0     H53791   3.032   0.816   6.992  2.2342  1.0011  1.4965
  408MOL0     H53792   2.848   0.702   6.943 -1.6943 -1.3290 -0.2616
  408MOL0     H53793   2.647   0.365   7.148 -0.0799 -1.0423  0.9777
  408MOL0     H53794   2.808   0.293   7.177 -1.2977 -0.5172  0.5248
  408MOL0     H53795   2.671   0.308   6.912 -2.2393 -1.1533 -0.1345
  408MOL0     H53796   2.635   0.177   7.018 -0.2126  0.2584  1.6816
  408MOL0     H53797   2.777   0.104   6.862 -2.3519  1.0026  0.7168
  408MOL0     H53798   2.867   0.100   7.025  1.6836  2.5889  0.8266
  408MOL0     H53799   2.923   0.273   6.776  0.8598 -0.6617 -0.8240
  408MOL0     H53800   3.007   0.298   6.938  0.5735 -0.5887 -0.2129
  408MOL0     H53801   2.998   0.066   6.746 -0.1600 -0.7065  1.8571
  408MOL0     H53802   3.103   0.069   6.900  0.5992  0.8383  0.1634
  408MOL0     H53803   3.230   0.250   6.815  1.8879 -2.6530  0.3774
  408MOL0     H53804   3.138   0.228   6.659  1.8918  1.2154  0.0277
  408MOL0     H53805   3.308   0.000   6.795  0.0085 -0.4165 -0.8109
  408MOL0     H53806   3.245  -0.003   6.630  1.6121  1.0491 -1.0317
  408MOL0     H53807   3.475   0.167   6.731 -1.1459  0.8853  0.6208
  408MOL0     H53808   3.406   0.204   6.578 -2.2013 -0.8056  0.0750
  408MOL0     H53809   3.690   0.145   6.548  0.7297 -0.0883  0.3566
  408MOL0     H53810   3.822   0.031   6.331 -0.3807 -0.1272 -1.5879
  408MOL0     H53811   3.734  -0.104   6.257  1.2611  2.1313 -0.8986
  408MOL0     H53812   3.816  -0.237   6.475 -0.5002 -0.1857  0.1373
  408MOL0     H53813   3.937  -0.100   6.467 -0.8752  1.7864 -0.9201
  408MOL0     H53814   4.018  -0.300   6.321  2.0317  1.8586 -0.7361
  408MOL0     H53815   3.879  -0.268   6.217  0.4592 -1.0860 -0.4421
  408MOL0     H53816   3.965  -0.056   6.167  2.7905  2.7583 -1.5499
  408MOL0     H53817   4.097  -0.155   6.138  0.5556 -0.3200 -0.3200
  408MOL0     H53818   4.226   0.179   6.246 -3.0052 -2.6102  0.0121
  408MOL0     H53819   4.475   0.209   6.246  0.9829 -0.8336  0.0527
  408MOL0     H53820   4.809   0.365   6.139 -0.4339  0.5837  0.5306
  408MOL0     H53821   5.040   0.404   6.074  2.0996 -0.6080 -0.0451
  408MOL0     H53822   5.165   0.240   5.883 -3.0478 -1.7833  3.8562
  408MOL0     H53823   5.282   0.108   5.908 -0.7930 -0.3525 -0.1005
  408MOL0     H53824   5.408   0.273   5.792  0.4924  1.0235 -0.2778
  408MOL0     H53825   5.469   0.265   5.955 -0.1477  2.2716  0.8426
  408MOL0     H53826   5.322   0.455   6.018  0.2994  0.2862  1.1363
  408MOL0     H53827   5.284   0.483   5.840  0.4300 -0.8360 -1.3962
  408MOL0     H53828   5.559   0.493   5.972  2.2049  2.2386 -0.8949
  408MOL0     H53829   5.527   0.511   5.799 -2.9146 -0.8061 -0.6349
  408MOL0     H53830   5.408   0.688   6.028  0.5006  0.1027  0.5421
  408MOL0     H53831   5.372   0.724   5.863  0.2419 -0.0633  0.2500
  408MOL0     H53832   5.637   0.731   5.827 -0.4585  0.2222 -0.4078
  408MOL0     H53833   5.636   0.740   6.000 -1.8397  0.3907  1.2221
  408MOL0     H53834   5.447   0.924   5.827  0.3478  3.3344  0.0626
  408MOL0     H53835   5.486   0.938   5.997  1.0562 -3.5587  2.4256
  408MOL0     H53836   5.585   1.091   5.817  0.3728  0.4655 -0.2704
  408MOL0     H53837   5.685   0.940   5.768  1.3953 -1.4719  2.4386
  408MOL0     H53838   5.147   0.004   6.195 -3.0608 -2.8021  4.8261
  408MOL0     H53839   4.921  -0.041   6.261 -0.4257  0.5621 -0.9995
  408MOL0     H53840   4.520  -0.200   6.387  1.5605  0.5733 -0.3046
  408MOL0     H53841   4.268  -0.210   6.373 -1.3900  2.0369  3.3942
  408MOL0     H53842   3.001   0.379   7.197 -2.5446  0.9275  0.2424
  408MOL0     H53843   3.214   0.499   7.201 -1.6979 -0.3793  0.6554
  408MOL0     H53844   3.508   0.963   6.872  0.3021  1.2186 -0.0197
  408MOL0     H53845   3.703   1.083   6.947 -1.4737  0.7198 -0.4642
  408MOL0     H53846   3.818   1.245   7.073 -0.2618 -0.7831  0.4843
  408MOL0     H53847   3.923   1.109   7.031  0.2539 -1.7547  1.3391
  408MOL0     H53848   4.038   1.293   7.107 -1.8548  2.1318  0.8640
  408MOL0     H53849   3.951   1.303   7.252 -0.2548  0.3755  0.1750
  408MOL0     H53850   4.116   1.053   7.177 -1.5338  1.3611 -1.3133
  408MOL0     H53851   4.044   1.095   7.334 -1.9193  0.9002 -1.5098
  408MOL0     H53852   4.287   1.152   7.365  0.6645  1.4049  0.8647
  408MOL0     H53853   4.279   1.229   7.208 -1.1357  0.5694 -1.3379
  408MOL0     H53854   4.125   1.506   7.494  0.5866  1.8007 -2.3103
  408MOL0     H53855   3.678   0.916   7.336  2.0185  1.1448 -0.5058
  408MOL0     H53856   3.451   0.814   7.285  0.7648 -0.5059 -1.0514
  409MOL0     O53857   2.254   9.191   9.906 -0.6936 -0.7985 -0.0025
  409MOL0     C53858   2.231   9.234  10.021 -0.2758 -1.0198 -0.0870
  409MOL0     O53859   2.118   9.220  10.090  0.2870  0.8144 -0.2191
  409MOL0     C53860   2.012   9.169  10.029 -0.2602 -0.1028 -0.7733
  409MOL0     C53861   1.885   9.233  10.051  0.5460  0.2847  0.4505
  409MOL0     C53862   1.770   9.183   9.984  0.9215  0.2101 -0.0138
  409MOL0     C53863   1.779   9.062   9.906  1.2814 -0.3464 -0.4353
  409MOL0     O53864   1.668   9.008   9.837 -0.3818 -0.1339 -0.1395
  409MOL0     C53865   1.563   9.090   9.797 -0.0081  0.2302 -0.6129
  409MOL0     C53866   1.505   9.019   9.677  0.2617 -0.4156  0.1272
  409MOL0     C53867   1.606   8.978   9.573 -0.2756 -0.0818  0.0620
  409MOL0     C53868   1.535   8.899   9.462 -0.8400 -0.5548 -0.0631
  409MOL0     C53869   1.630   8.826   9.374  0.0609  0.1233 -0.7147
  409MOL0     C53870   1.738   8.733   9.442  0.1477 -0.7387  0.2003
  409MOL0     C53871   1.685   8.636   9.551  0.1039  0.2790 -0.8242
  409MOL0     C53872   1.782   8.518   9.581  0.4193 -0.6918  0.1024
  409MOL0     N53873   1.920   8.561   9.613  0.1822 -0.4018  0.3175
  409MOL0     C53874   1.955   8.634   9.725  0.4874  0.7645 -0.1080
  409MOL0     C53875   2.085   8.644   9.708  0.0008 -0.1229 -0.6892
  409MOL0     C53876   2.176   8.710   9.800 -0.4830 -0.0870 -0.5994
  409MOL0     C53877   2.281   8.799   9.742  0.3887  0.6253 -0.0298
  409MOL0     C53878   2.369   8.873   9.840 -0.0901  0.4476  0.4380
  409MOL0     C53879   2.456   8.786   9.932 -0.1405 -0.5413 -0.1811
  409MOL0     O53880   2.520   8.853  10.042  0.0272 -0.7197 -0.1761
  409MOL0     C53881   2.626   8.940  10.010  0.3694 -0.4388  0.4043
  409MOL0     C53882   2.675   9.017  10.112  0.2487  0.1203  0.3883
  409MOL0     C53883   2.784   9.102  10.094  0.0342  0.1109 -0.5690
  409MOL0     C53884   2.840   9.113   9.965 -0.2918  0.3540 -0.7260
  409MOL0     C53885   2.932   9.222   9.925 -0.4337 -0.6941  0.3420
  409MOL0     O53886   2.962   9.313  10.019  0.1714 -0.7843  0.2429
  409MOL0     C53887   3.073   9.391   9.993  0.7703  1.1765  0.6676
  409MOL0     C53888   3.195   9.327   9.962 -1.3041 -0.2216  0.2950
  409MOL0     C53889   3.304   9.410   9.942 -0.3180  0.4106 -0.0657
  409MOL0     C53890   3.309   9.547   9.945  0.0579 -0.4296 -0.1803
  409MOL0     O53891   3.427   9.616   9.919  0.7140  0.2286  0.1828
  409MOL0     C53892   3.423   9.747   9.864 -0.3836 -0.3488  1.0186
  409MOL0     C53893   3.559   9.800   9.825 -0.0547 -1.7440 -0.4514
  409MOL0     C53894   3.650   9.818   9.953 -0.0097  0.1471  0.8333
  409MOL0     C53895   3.800   9.825   9.911 -1.1774 -0.5915  0.2261
  409MOL0     C53896   3.831   9.966   9.849 -0.3151 -0.0998 -0.4122
  409MOL0     C53897   3.980   9.965   9.812  0.0176  0.5066  0.1268
  409MOL0     C53898   4.008  10.108   9.766 -0.1786 -0.3386  0.1021
  409MOL0     C53899   4.146  10.120   9.718 -0.5075 -0.1135 -0.1210
  409MOL0    Cl53900   4.174  10.300   9.697  0.0385 -0.1293 -0.1988
  409MOL0     C53901   3.181   9.608   9.979 -0.9254 -0.9577  0.5969
  409MOL0     C53902   3.066   9.531  10.009 -0.4897 -0.7617 -0.6362
  409MOL0     O53903   2.969   9.227   9.808 -0.4215  0.4500  0.9126
  409MOL0     C53904   2.791   9.036   9.863  0.0660 -0.4765 -0.4797
  409MOL0     C53905   2.688   8.952   9.882  0.3526 -0.3503  0.2203
  409MOL0     N53906   2.132   8.584   9.589  0.3457  0.2070  0.0471
  409MOL0     N53907   2.023   8.536   9.532 -0.4056 -0.4498  1.1803
  409MOL0     C53908   1.894   8.988   9.905  0.2357 -0.2204  0.1595
  409MOL0     C53909   2.011   9.038   9.961 -0.1359 -0.9141 -0.6769
  409MOL0     C53910   2.343   9.309  10.093 -0.6162 -0.6345 -0.1176
  409MOL0     C53911   2.482   9.297  10.077 -0.4362  1.0736  0.1730
  409MOL0     C53912   2.574   9.373  10.150  0.9352  0.3594  0.3941
  409MOL0     C53913   2.530   9.466  10.241 -0.2392  0.7294  0.3339
  409MOL0     O53914   2.603   9.553  10.325  0.8231  0.4625 -0.7999
  409MOL0     C53915   2.739   9.569  10.299 -0.8292 -0.3040 -0.3389
  409MOL0     C53916   2.772   9.706  10.340 -0.1286  0.6478  0.1113
  409MOL0     C53917   2.909   9.739  10.290  0.3063 -0.3446 -0.0341
  409MOL0     C53918   2.977   9.858  10.357  0.3077 -0.5939  0.1289
  409MOL0     C53919   3.101   9.895  10.288  0.3756 -0.1245 -0.4870
  409MOL0     C53920   3.213   9.917  10.240 -0.6171  0.3744  0.4796
  409MOL0     C53921   2.393   9.476  10.255 -0.3675 -0.3952 -0.0325
  409MOL0     C53922   2.297   9.400  10.190  0.1847 -0.0767 -0.2932
  409MOL0     H53923   1.885   9.316  10.120 -0.7149 -0.8960  1.9359
  409MOL0     H53924   1.668   9.217   9.994  0.3335 -0.7994 -2.0259
  409MOL0     H53925   1.601   9.189   9.772  0.4481  0.4475  0.8567
  409MOL0     H53926   1.488   9.095   9.877 -0.1600 -2.2636 -0.5119
  409MOL0     H53927   1.425   9.082   9.637  0.1327  0.7400  2.0584
  409MOL0     H53928   1.458   8.931   9.722  0.1353 -0.2089  0.4044
  409MOL0     H53929   1.689   8.919   9.613  0.3213  1.7229  1.6418
  409MOL0     H53930   1.648   9.068   9.526 -1.0626  0.5306  0.5124
  409MOL0     H53931   1.467   8.824   9.504  2.4247 -4.6826 -1.4625
  409MOL0     H53932   1.468   8.964   9.406  0.1440 -0.6497 -1.3902
  409MOL0     H53933   1.677   8.896   9.305 -0.6972  0.5591 -0.8041
  409MOL0     H53934   1.577   8.749   9.317  0.5597 -1.1837  0.5153
  409MOL0     H53935   1.820   8.798   9.476 -0.0070 -1.6754  2.6053
  409MOL0     H53936   1.783   8.669   9.366 -0.5508 -0.8619 -0.1205
  409MOL0     H53937   1.655   8.695   9.638 -1.5042  0.0680 -1.2080
  409MOL0     H53938   1.592   8.599   9.507 -1.3323  1.0140  1.4384
  409MOL0     H53939   1.795   8.441   9.504 -2.0549 -1.9614  0.8592
  409MOL0     H53940   1.740   8.465   9.667 -0.4416  0.5004  0.4388
  409MOL0     H53941   1.891   8.669   9.805  1.1835 -1.6532  1.6206
  409MOL0     H53942   2.221   8.630   9.859 -0.2374  1.7284  1.8446
  409MOL0     H53943   2.112   8.773   9.862  0.1770  0.3784 -0.3804
  409MOL0     H53944   2.224   8.872   9.684  0.8835 -1.0536 -2.8072
  409MOL0     H53945   2.343   8.742   9.672 -0.6770 -0.3293 -0.2125
  409MOL0     H53946   2.432   8.945   9.787  0.5931 -0.4601 -0.0288
  409MOL0     H53947   2.297   8.934   9.893 -1.0678 -0.3171  0.0245
  409MOL0     H53948   2.538   8.731   9.884  1.3603  0.1312  1.4955
  409MOL0     H53949   2.393   8.710   9.980  0.5553 -1.6487 -0.9543
  409MOL0     H53950   2.622   9.021  10.206  0.7209 -2.1362  0.8163
  409MOL0     H53951   2.817   9.167  10.174  2.3053  1.0788 -2.2041
  409MOL0     H53952   3.219   9.224   9.936  2.0273  1.2475 -3.4747
  409MOL0     H53953   3.397   9.363   9.913 -0.3444  0.3517 -0.0540
  409MOL0     H53954   3.384   9.818   9.938 -1.5479  1.2931 -1.0559
  409MOL0     H53955   3.366   9.733   9.772  0.6405  1.9958 -0.0478
  409MOL0     H53956   3.551   9.901   9.785  5.0186 -0.8842  0.1249
  409MOL0     H53957   3.604   9.733   9.751  2.5939  0.5337 -1.0760
  409MOL0     H53958   3.639   9.724  10.008  3.3403  0.3712  2.0806
  409MOL0     H53959   3.616   9.898  10.018 -0.8852 -1.0456  1.8960
  409MOL0     H53960   3.863   9.809   9.999 -0.2921 -1.4283 -0.5389
  409MOL0     H53961   3.824   9.739   9.848  0.1726 -1.4326  1.7865
  409MOL0     H53962   3.808  10.042   9.923  1.0080  0.3912 -0.4751
  409MOL0     H53963   3.771   9.986   9.760 -0.6432 -0.1382 -0.1970
  409MOL0     H53964   4.008   9.889   9.739  1.0665  0.0248  0.9972
  409MOL0     H53965   4.043   9.944   9.899 -0.3419 -2.5583 -0.2528
  409MOL0     H53966   3.937  10.121   9.683  1.4293 -0.6260 -1.3777
  409MOL0     H53967   4.002  10.180   9.848 -0.4648  2.0038 -1.8400
  409MOL0     H53968   4.173  10.065   9.628  2.8088  0.1243  0.5968
  409MOL0     H53969   4.209  10.072   9.793 -2.3826 -0.4489  1.3231
  409MOL0     H53970   3.182   9.714  10.003  1.1092  0.0317 -3.0641
  409MOL0     H53971   2.975   9.584  10.034 -2.2745 -1.6277 -4.4561
  409MOL0     H53972   2.835   9.042   9.763 -1.2611  1.7318 -0.9963
  409MOL0     H53973   2.656   8.899   9.793 -1.0694  3.2920 -1.6727
  409MOL0     H53974   1.898   8.898   9.844  3.3778  0.0966 -0.2980
  409MOL0     H53975   2.104   8.988   9.937  0.2941 -0.2662 -0.3934
  409MOL0     H53976   2.514   9.234   9.995 -2.5844  0.9463 -0.6302
  409MOL0     H53977   2.680   9.350  10.146  0.9478  0.5277 -0.3601
  409MOL0     H53978   2.764   9.551  10.194 -0.8164 -1.1162 -0.2063
  409MOL0     H53979   2.797   9.491  10.350 -0.4552  0.1823 -0.0164
  409MOL0     H53980   2.696   9.776  10.304 -1.8839 -1.6116 -0.7490
  409MOL0     H53981   2.760   9.721  10.448 -0.7416  0.1275  0.1207
  409MOL0     H53982   2.902   9.758  10.183  1.0981 -1.6489 -0.3445
  409MOL0     H53983   2.976   9.652  10.285  2.1793  1.1041 -1.7049
  409MOL0     H53984   2.917   9.950  10.358 -0.5387 -1.1389  0.5067
  409MOL0     H53985   2.993   9.836  10.463  0.9780  0.8827  0.3724
  409MOL0     H53986   3.316   9.934  10.219  0.6859 -1.2850  4.5043
  409MOL0     H53987   2.366   9.550  10.330  1.0793 -1.0807  1.2082
  409MOL0     H53988   2.194   9.421  10.213  0.1172 -1.0708  0.3757
  410MOL0     O53989   5.924   9.499   2.858  0.4323  0.1596 -0.2457
  410MOL0     C53990   5.958   9.390   2.914  0.1456 -0.1220 -0.4489
  410MOL0     O53991   5.870   9.291   2.952  0.2322  0.3071 -0.8314
  410MOL0     C53992   5.739   9.304   2.908  0.0358 -0.6828  0.4589
  410MOL0     C53993   5.638   9.342   2.993 -0.3476 -0.2079 -1.0222
  410MOL0     C53994   5.505   9.352   2.957 -0.2894 -0.0844  0.6989
  410MOL0     C53995   5.468   9.312   2.835  0.2160  0.3735 -0.6668
  410MOL0     O53996   5.333   9.324   2.806 -0.1149  0.4477  0.1771
  410MOL0     C53997   5.261   9.218   2.735  0.0931 -0.1582  0.9303
  410MOL0     C53998   5.151   9.279   2.641  1.1374  0.3236 -0.0735
  410MOL0     C53999   5.021   9.326   2.705 -0.1896  0.2803 -0.4616
  410MOL0     C54000   4.925   9.377   2.598  0.7669 -0.2205 -0.1260
  410MOL0     C54001   4.797   9.436   2.666  0.9277 -0.1729  0.5976
  410MOL0     C54002   4.700   9.498   2.560 -0.2993  0.0802  0.3969
  410MOL0     C54003   4.578   9.544   2.637 -0.2735 -0.7133 -0.6638
  410MOL0     C54004   4.481   9.627   2.551  0.1627  0.6928  0.1278
  410MOL0     N54005   4.352   9.658   2.608  0.3371  0.3940 -0.9270
  410MOL0     C54006   4.252   9.710   2.539 -0.6405 -0.2966  1.0946
  410MOL0     C54007   4.140   9.702   2.617 -0.2152 -0.4595  1.1257
  410MOL0     C54008   4.004   9.761   2.581  0.0844 -0.1342  0.0849
  410MOL0     C54009   3.886   9.708   2.671 -1.0017 -0.1616  0.6697
  410MOL0     C54010   3.755   9.788   2.641 -0.9640  0.8435 -0.6031
  410MOL0     C54011   3.652   9.731   2.736 -0.1777  0.0718  0.8152
  410MOL0     O54012   3.520   9.787   2.721  0.6007  0.8799 -0.3241
  410MOL0     C54013   3.416   9.711   2.776 -0.3931  1.2837 -0.1160
  410MOL0     C54014   3.293   9.760   2.759  0.2838  0.7531 -0.1635
  410MOL0     C54015   3.183   9.692   2.806  0.1927 -0.5722 -0.8059
  410MOL0     C54016   3.194   9.567   2.866  0.0866 -0.1241 -0.6470
  410MOL0     C54017   3.078   9.488   2.893  0.1787  0.5278 -0.6401
  410MOL0     O54018   2.967   9.559   2.896  1.0675  0.2809 -0.2785
  410MOL0     C54019   2.851   9.491   2.884  0.1983  0.4488  0.1232
  410MOL0     C54020   2.834   9.367   2.820 -0.1257  0.3630 -0.6448
  410MOL0     C54021   2.711   9.307   2.788 -0.3073  0.2449  0.5830
  410MOL0     C54022   2.596   9.381   2.820  0.8112  0.4724  0.6872
  410MOL0     O54023   2.474   9.315   2.803  0.4311 -0.3399  0.0612
  410MOL0     C54024   2.381   9.313   2.916  0.3732  0.3367  0.2097
  410MOL0     C54025   2.259   9.401   2.885 -0.6178  0.5758 -0.1268
  410MOL0     C54026   2.186   9.366   2.757 -0.5270  0.2296 -0.3968
  410MOL0     C54027   2.114   9.222   2.757 -0.4400 -0.4476 -0.0487
  410MOL0     C54028   2.075   9.177   2.614  0.3707  0.2920  0.2880
  410MOL0     C54029   2.054   9.020   2.610  0.3492  0.4932  0.1379
  410MOL0     C54030   2.008   8.965   2.475 -0.1821  0.4001 -0.2580
  410MOL0     C54031   1.873   8.886   2.477 -0.8132 -1.1152  0.4010
  410MOL0    Cl54032   1.919   8.730   2.543  0.3384 -0.1739  0.3401
  410MOL0     C54033   2.614   9.506   2.892  0.0405 -0.0233 -0.2781
  410MOL0     C54034   2.738   9.557   2.922  1.2645  0.2609 -0.6820
  410MOL0     O54035   3.090   9.367   2.924  0.2648 -0.1281  0.3202
  410MOL0     C54036   3.326   9.520   2.892  0.4605 -0.2142  0.5192
  410MOL0     C54037   3.432   9.594   2.846 -0.0977  0.4917 -0.1244
  410MOL0     N54038   4.178   9.638   2.732  0.4764 -0.9384  0.2950
  410MOL0     N54039   4.297   9.616   2.724 -1.3157 -0.8825  0.5191
  410MOL0     C54040   5.567   9.274   2.746  0.6402  0.0737  0.4009
  410MOL0     C54041   5.705   9.271   2.775  1.2568 -0.1202  0.7132
  410MOL0     C54042   6.102   9.366   2.950  0.3187 -0.2646  0.2999
  410MOL0     C54043   6.208   9.443   2.893  0.4427  0.4258 -0.1531
  410MOL0     C54044   6.341   9.408   2.910 -0.0302  1.0864  0.0265
  410MOL0     C54045   6.381   9.289   2.972  0.2445  0.4052  0.5277
  410MOL0     O54046   6.508   9.241   2.984  0.1448  0.1147 -0.3702
  410MOL0     C54047   6.626   9.300   2.937 -0.6838  0.1236  0.0721
  410MOL0     C54048   6.756   9.234   2.991 -0.0624 -0.4700  1.0369
  410MOL0     C54049   6.810   9.130   2.898  0.0812  0.1853 -0.2478
  410MOL0     C54050   6.922   9.050   2.959 -0.0144  0.4269 -1.1854
  410MOL0     C54051   7.041   9.075   2.871 -0.2698 -0.6774 -0.4305
  410MOL0     C54052   7.132   9.098   2.799  0.4182  0.2533 -0.1931
  410MOL0     C54053   6.276   9.213   3.029  0.5909 -0.0891 -0.1532
  410MOL0     C54054   6.140   9.252   3.021  0.8826  0.4365  0.1155
  410MOL0     H54055   5.649   9.367   3.098  0.3417  2.0993 -1.5913
  410MOL0     H54056   5.428   9.377   3.029 -1.4157 -0.4592 -0.3498
  410MOL0     H54057   5.195   9.156   2.797 -0.4256 -0.7480 -0.2020
  410MOL0     H54058   5.327   9.155   2.676 -1.7058 -3.1658  1.9353
  410MOL0     H54059   5.122   9.191   2.582 -1.7610  0.7216  0.5708
  410MOL0     H54060   5.197   9.343   2.566 -2.2672 -1.0273 -3.6412
  410MOL0     H54061   5.054   9.404   2.774  1.9242  0.3525 -1.4591
  410MOL0     H54062   4.979   9.244   2.763  3.6400 -0.9299  0.9103
  410MOL0     H54063   4.980   9.453   2.542  0.6092  0.1941  0.2731
  410MOL0     H54064   4.884   9.290   2.546 -0.6263 -0.3859  1.1881
  410MOL0     H54065   4.815   9.494   2.757  2.5384 -1.5318  1.2081
  410MOL0     H54066   4.742   9.351   2.706 -0.9159  1.1273  0.9770
  410MOL0     H54067   4.679   9.435   2.473 -2.0351  1.6477 -0.3817
  410MOL0     H54068   4.742   9.580   2.501  0.1271 -0.1461  0.3776
  410MOL0     H54069   4.534   9.446   2.658 -0.1322 -0.5099  0.6540
  410MOL0     H54070   4.617   9.595   2.726  3.8383 -0.4411 -2.3901
  410MOL0     H54071   4.462   9.581   2.454  0.1653 -0.2720  0.5747
  410MOL0     H54072   4.534   9.721   2.531  1.7020  0.5360  2.9112
  410MOL0     H54073   4.266   9.763   2.445  0.9934 -0.9704  0.9299
  410MOL0     H54074   3.986   9.739   2.475  1.8590 -1.2113 -0.0380
  410MOL0     H54075   4.011   9.869   2.595 -1.1556 -0.1201  0.6960
  410MOL0     H54076   3.904   9.722   2.778 -0.2184 -2.0564  0.8288
  410MOL0     H54077   3.882   9.601   2.651  3.8957 -0.4279 -0.0081
  410MOL0     H54078   3.787   9.883   2.683  3.1929 -1.5683  2.4934
  410MOL0     H54079   3.729   9.771   2.536 -0.3314 -1.3966 -0.4543
  410MOL0     H54080   3.677   9.745   2.841 -0.6428 -0.1556  0.9607
  410MOL0     H54081   3.657   9.625   2.711  1.4063  0.6290 -1.6516
  410MOL0     H54082   3.293   9.846   2.692 -0.9170  0.5832 -0.3957
  410MOL0     H54083   3.086   9.735   2.786 -0.5728 -1.6948  0.3343
  410MOL0     H54084   2.917   9.308   2.782 -0.7473 -0.1272 -1.2793
  410MOL0     H54085   2.703   9.211   2.739 -0.0752  0.3967  0.2431
  410MOL0     H54086   2.440   9.350   3.000  1.5247  0.6296 -0.6931
  410MOL0     H54087   2.352   9.211   2.943 -1.0022  0.6684  0.0591
  410MOL0     H54088   2.296   9.501   2.861  3.2770 -0.7163 -0.2606
  410MOL0     H54089   2.190   9.421   2.967 -1.6691  1.1609 -1.1295
  410MOL0     H54090   2.257   9.373   2.674  0.6132  2.1298  0.6720
  410MOL0     H54091   2.116   9.449   2.744  1.9180  2.5784  0.6814
  410MOL0     H54092   2.177   9.145   2.803 -1.7970 -1.0316  0.9098
  410MOL0     H54093   2.025   9.224   2.821  0.5443  0.3247  1.3582
  410MOL0     H54094   2.145   9.210   2.537  2.1581 -1.5613  1.0456
  410MOL0     H54095   1.986   9.221   2.568  1.0267 -1.6726 -3.2148
  410MOL0     H54096   1.974   8.993   2.681 -0.9246 -0.0241 -1.4383
  410MOL0     H54097   2.145   8.969   2.641 -0.2533  0.0384  1.2443
  410MOL0     H54098   2.012   9.045   2.401  2.1928 -0.8700 -1.6153
  410MOL0     H54099   2.086   8.894   2.443  0.3111  0.3794  0.9218
  410MOL0     H54100   1.849   8.868   2.371  2.1289 -2.3254 -0.1513
  410MOL0     H54101   1.800   8.935   2.543  1.0942  1.2408  0.8874
  410MOL0     H54102   2.530   9.572   2.911 -0.4816  0.4470 -3.6821
  410MOL0     H54103   2.730   9.654   2.971 -1.3538 -0.3712  0.3039
  410MOL0     H54104   3.339   9.431   2.953 -0.4711 -0.8665 -0.2114
  410MOL0     H54105   3.524   9.545   2.878 -1.4676 -0.6726  2.2537
  410MOL0     H54106   5.526   9.261   2.646 -0.0646  0.6087  0.6135
  410MOL0     H54107   5.781   9.243   2.703  0.3708  1.3915 -0.8856
  410MOL0     H54108   6.182   9.537   2.845  4.1980  1.5649 -0.2954
  410MOL0     H54109   6.417   9.469   2.862  2.1390 -1.0275  0.5836
  410MOL0     H54110   6.628   9.402   2.977  0.1121 -0.5329  1.8197
  410MOL0     H54111   6.616   9.308   2.828 -1.9333 -0.1566  0.1566
  410MOL0     H54112   6.833   9.310   3.005  0.7789 -0.7444 -1.5734
  410MOL0     H54113   6.725   9.197   3.089 -1.2281 -0.4442  0.6979
  410MOL0     H54114   6.839   9.168   2.799 -0.6908  0.0869 -0.5188
  410MOL0     H54115   6.739   9.050   2.878 -0.2694  0.1096  1.2230
  410MOL0     H54116   6.937   9.090   3.060  1.4323 -0.4681 -1.0225
  410MOL0     H54117   6.902   8.943   2.968  1.9427  0.0971 -0.0436
  410MOL0     H54118   7.206   9.144   2.737  0.5519  0.5598  0.1859
  410MOL0     H54119   6.303   9.120   3.079  0.5925 -0.4591 -0.8221
  410MOL0     H54120   6.066   9.186   3.064  2.5182 -0.5842  1.4637
  411MOL0     O54121   3.260   2.579   7.183 -0.3465 -0.2722  0.3558
  411MOL0     C54122   3.289   2.603   7.062  0.9174 -0.9187 -0.1365
  411MOL0     O54123   3.204   2.599   6.961  0.4282 -0.0103 -0.4284
  411MOL0     C54124   3.076   2.544   6.985 -0.2967  0.1076 -1.8549
  411MOL0     C54125   2.999   2.577   7.100 -0.0900  0.7136  0.2793
  411MOL0     C54126   2.867   2.514   7.116 -0.3452  0.1624 -0.4716
  411MOL0     C54127   2.822   2.415   7.021 -0.0451 -0.1595 -0.0840
  411MOL0     O54128   2.708   2.346   7.030 -0.0005  0.0980  1.0787
  411MOL0     C54129   2.599   2.382   7.121 -1.1350 -0.0225  0.5613
  411MOL0     C54130   2.466   2.314   7.060  0.3908  0.3143 -0.4571
  411MOL0     C54131   2.361   2.312   7.174 -0.6381 -0.5752 -0.5236
  411MOL0     C54132   2.220   2.288   7.124 -0.1337  0.3687 -0.6654
  411MOL0     C54133   2.161   2.412   7.053  0.2716 -0.2376 -0.2885
  411MOL0     C54134   2.117   2.509   7.159  0.5575 -0.4902 -0.2501
  411MOL0     C54135   2.059   2.638   7.092  0.3720 -0.0284  0.5416
  411MOL0     C54136   1.946   2.618   6.991  1.3112  1.5086 -0.3271
  411MOL0     N54137   1.826   2.551   7.049  0.7985 -0.3069 -0.7598
  411MOL0     C54138   1.730   2.613   7.129  0.0056  0.0053  0.4696
  411MOL0     C54139   1.623   2.529   7.124 -0.4721  0.3455  0.2402
  411MOL0     C54140   1.489   2.559   7.191  0.1552  0.2695  0.4171
  411MOL0     C54141   1.362   2.514   7.111  0.3772 -0.0653  0.8509
  411MOL0     C54142   1.246   2.580   7.185 -0.2718  0.3333 -0.1094
  411MOL0     C54143   1.108   2.538   7.132 -0.2781  0.0008 -0.4352
  411MOL0     O54144   1.106   2.560   6.991 -1.0078  0.1219 -0.3098
  411MOL0     C54145   0.992   2.531   6.918 -0.1289 -0.2879 -0.1870
  411MOL0     C54146   0.991   2.532   6.775 -0.2534  0.6326 -0.8193
  411MOL0     C54147   0.872   2.506   6.710  1.0122 -0.6373 -0.4632
  411MOL0     C54148   0.749   2.490   6.779 -0.2951 -0.0915  0.9863
  411MOL0     C54149   0.620   2.485   6.703  0.8161  1.2766  0.5577
  411MOL0     O54150   0.532   2.405   6.758  0.3145  0.0712  0.2566
  411MOL0     C54151   0.427   2.368   6.681  0.2739 -0.2528 -0.1692
  411MOL0     C54152   0.434   2.342   6.545 -0.1859  0.2584 -1.3845
  411MOL0     C54153   0.328   2.283   6.483  0.1230  0.3455 -0.3877
  411MOL0     C54154   0.215   2.250   6.554  0.0413  0.2853 -0.8729
  411MOL0     O54155   0.105   2.195   6.489  0.5893  0.2979 -0.2549
  411MOL0     C54156   0.019   2.109   6.563  0.4300 -0.3009 -0.2100
  411MOL0     C54157  -0.063   2.019   6.472 -0.0482  0.4672  0.4317
  411MOL0     C54158  -0.162   2.094   6.392  0.0208 -0.1197 -0.3157
  411MOL0     C54159  -0.233   1.992   6.296  0.1014  0.6624 -0.1074
  411MOL0     C54160  -0.384   1.978   6.306  0.1875 -0.2269 -0.2051
  411MOL0     C54161  -0.428   1.871   6.208 -0.1405 -0.0991  0.7471
  411MOL0     C54162  -0.579   1.850   6.243 -0.7026 -0.6729 -0.0783
  411MOL0     C54163  -0.634   1.736   6.158  0.0605  0.8001 -0.3491
  411MOL0    Cl54164  -0.801   1.740   6.156  0.1191 -0.0086 -0.3026
  411MOL0     C54165   0.210   2.269   6.697 -0.0802 -0.2980  0.4567
  411MOL0     C54166   0.318   2.322   6.758  0.0326  0.2367  0.5190
  411MOL0     O54167   0.604   2.555   6.602  0.2675  0.0711  0.8058
  411MOL0     C54168   0.753   2.502   6.918  0.3710  0.1031 -0.2487
  411MOL0     C54169   0.874   2.515   6.989 -0.5213  0.5915  0.1481
  411MOL0     N54170   1.662   2.411   7.058 -0.2655  0.2820 -0.6907
  411MOL0     N54171   1.779   2.429   7.008  0.6304  1.2446 -0.2762
  411MOL0     C54172   2.906   2.389   6.917 -0.4100  1.0474  0.8298
  411MOL0     C54173   3.022   2.461   6.895 -0.9886  0.6929  0.6689
  411MOL0     C54174   3.433   2.639   7.042  0.9548  0.0921 -0.0477
  411MOL0     C54175   3.472   2.682   6.912 -0.0849  1.2973  0.0350
  411MOL0     C54176   3.605   2.710   6.892 -0.0324  0.2580  0.2400
  411MOL0     C54177   3.703   2.705   6.992 -0.7433 -0.2257  0.1814
  411MOL0     O54178   3.829   2.744   6.951  0.2718 -0.2510  0.1301
  411MOL0     C54179   3.924   2.768   7.048 -0.0805 -0.4303 -0.1502
  411MOL0     C54180   4.058   2.819   6.978  0.0578  0.1678 -0.0947
  411MOL0     C54181   4.100   2.736   6.857 -0.0147 -0.2822  0.1592
  411MOL0     C54182   4.191   2.809   6.758 -0.0198 -0.1484 -0.0292
  411MOL0     C54183   4.326   2.831   6.821  0.5852 -0.3255 -1.0671
  411MOL0     C54184   4.433   2.844   6.880  0.2558 -0.0337 -1.2117
  411MOL0     C54185   3.661   2.669   7.125 -0.5557 -0.1854 -0.5492
  411MOL0     C54186   3.528   2.633   7.149 -0.2180  0.6505  0.9680
  411MOL0     H54187   3.018   2.646   7.181  2.1162  2.0627 -1.2708
  411MOL0     H54188   2.798   2.543   7.195  1.1299 -3.1092  2.2575
  411MOL0     H54189   2.584   2.490   7.133 -2.6965 -0.3332  1.7898
  411MOL0     H54190   2.616   2.343   7.222 -1.1181  3.7994  2.2035
  411MOL0     H54191   2.490   2.212   7.029 -2.0383 -0.4980  0.0964
  411MOL0     H54192   2.429   2.374   6.976  0.3594  1.6732  0.4962
  411MOL0     H54193   2.366   2.414   7.214 -3.5967 -0.3191 -0.5895
  411MOL0     H54194   2.388   2.245   7.256  0.8689  1.3980  0.7115
  411MOL0     H54195   2.212   2.200   7.058 -0.4994  1.8009 -2.6133
  411MOL0     H54196   2.153   2.270   7.208 -0.5867  0.2588 -1.0428
  411MOL0     H54197   2.069   2.379   7.002 -0.4054 -0.8046  1.2594
  411MOL0     H54198   2.229   2.444   6.973 -2.9846 -0.1832 -3.3152
  411MOL0     H54199   2.200   2.544   7.221 -0.4678 -0.4987  1.1636
  411MOL0     H54200   2.042   2.455   7.218  1.0736  0.3894  1.2750
  411MOL0     H54201   2.024   2.704   7.172  0.5582  1.2948 -0.4231
  411MOL0     H54202   2.143   2.696   7.052 -1.8111  3.2149  0.2435
  411MOL0     H54203   1.978   2.562   6.902 -2.3536  0.0578 -0.9220
  411MOL0     H54204   1.917   2.716   6.953 -0.1363  0.1689 -3.0152
  411MOL0     H54205   1.731   2.713   7.171 -0.8630  0.6161 -0.8882
  411MOL0     H54206   1.490   2.668   7.194  0.2655  0.4959 -3.0436
  411MOL0     H54207   1.490   2.505   7.286  0.8155 -1.3373 -0.4633
  411MOL0     H54208   1.349   2.406   7.113  0.5701 -0.1231 -0.3103
  411MOL0     H54209   1.362   2.544   7.006  0.1527  2.1806  1.4387
  411MOL0     H54210   1.253   2.551   7.290 -2.6739 -2.0068 -0.4775
  411MOL0     H54211   1.246   2.689   7.189  0.3042  0.3097  1.9506
  411MOL0     H54212   1.035   2.594   7.191  0.7285  0.4368  0.4250
  411MOL0     H54213   1.099   2.430   7.150  1.5944 -0.3006 -1.1514
  411MOL0     H54214   1.088   2.533   6.726  0.9778 -2.7924  1.1722
  411MOL0     H54215   0.874   2.503   6.601  0.0282  0.4374 -0.5265
  411MOL0     H54216   0.522   2.369   6.487  1.0262  1.7416  1.0270
  411MOL0     H54217   0.339   2.266   6.376  2.7773  1.3894 -0.3509
  411MOL0     H54218  -0.048   2.167   6.627 -0.2451 -0.6691 -0.5632
  411MOL0     H54219   0.078   2.043   6.627  1.0180 -1.0518 -1.4723
  411MOL0     H54220  -0.113   1.946   6.536 -0.1850  0.5751  0.4470
  411MOL0     H54221  -0.003   1.965   6.397  0.6887 -0.1216  1.4221
  411MOL0     H54222  -0.101   2.163   6.333  0.4051 -1.1988 -1.2144
  411MOL0     H54223  -0.230   2.146   6.460 -0.6593 -1.3366 -0.0381
  411MOL0     H54224  -0.198   2.022   6.197  2.6902  1.9165  1.0982
  411MOL0     H54225  -0.206   1.890   6.326 -3.5921 -0.0599  1.3766
  411MOL0     H54226  -0.438   2.073   6.299  0.3248  0.1927  2.8116
  411MOL0     H54227  -0.413   1.941   6.405  1.1153 -0.0750  0.1315
  411MOL0     H54228  -0.364   1.783   6.225  0.7907  0.4957  0.4222
  411MOL0     H54229  -0.412   1.903   6.105 -2.2094 -0.3579  0.3108
  411MOL0     H54230  -0.588   1.843   6.352  1.7171  1.7065  0.3870
  411MOL0     H54231  -0.630   1.944   6.220  1.2002  0.9905  2.0077
  411MOL0     H54232  -0.597   1.646   6.208 -1.2370 -0.3871 -1.4613
  411MOL0     H54233  -0.595   1.744   6.056  3.9666 -1.4238  0.7739
  411MOL0     H54234   0.122   2.234   6.750 -0.0889 -2.8497 -1.0810
  411MOL0     H54235   0.320   2.324   6.866  0.6843 -1.4563  0.5625
  411MOL0     H54236   0.659   2.501   6.972 -1.1807  1.0698 -2.7830
  411MOL0     H54237   0.867   2.524   7.097  1.0484  0.0300  0.3136
  411MOL0     H54238   2.885   2.318   6.839  2.6673  0.8018  0.0957
  411MOL0     H54239   3.067   2.437   6.800 -1.8012  2.4073 -0.2018
  411MOL0     H54240   3.409   2.680   6.823  1.0988  0.4035 -0.8180
  411MOL0     H54241   3.634   2.741   6.792 -0.0473  1.6677  0.6570
  411MOL0     H54242   3.940   2.681   7.113 -0.9193 -1.5388 -1.3882
  411MOL0     H54243   3.874   2.836   7.117 -2.6984 -1.7589 -0.6163
  411MOL0     H54244   4.044   2.920   6.937  0.1676  0.2741  0.1275
  411MOL0     H54245   4.142   2.827   7.048 -0.5655 -5.1095  1.6803
  411MOL0     H54246   4.014   2.705   6.796  0.6979 -2.1508  0.0305
  411MOL0     H54247   4.164   2.658   6.900  4.4188  3.5674  1.2879
  411MOL0     H54248   4.202   2.739   6.675 -4.4458 -1.8085  0.4783
  411MOL0     H54249   4.142   2.904   6.735 -4.8538 -2.2666  0.3721
  411MOL0     H54250   4.527   2.852   6.931  0.4735  1.4265 -1.7910
  411MOL0     H54251   3.740   2.662   7.200 -0.3974 -1.0877 -0.7929
  411MOL0     H54252   3.499   2.584   7.241 -3.0149 -0.6912 -0.5004
  412MOL0     O54253   6.224  11.218   5.441  0.9629 -0.3833 -0.2334
  412MOL0     C54254   6.164  11.243   5.334 -0.2310 -0.6596 -0.5924
  412MOL0     O54255   6.198  11.323   5.225 -0.7173  0.1395 -0.4963
  412MOL0     C54256   6.330  11.374   5.239 -0.1062 -0.1474 -0.8523
  412MOL0     C54257   6.338  11.513   5.259 -0.4435 -0.1712  0.3359
  412MOL0     C54258   6.460  11.572   5.293  0.3622 -0.5588  0.7878
  412MOL0     C54259   6.574  11.493   5.290 -1.1673 -0.0903  0.3592
  412MOL0     O54260   6.699  11.545   5.314 -0.1794 -0.5455  0.2306
  412MOL0     C54261   6.725  11.685   5.350 -0.3262  0.5047  0.6313
  412MOL0     C54262   6.878  11.720   5.337 -0.5794  0.5069 -0.9752
  412MOL0     C54263   6.980  11.657   5.444  0.9409  0.7344  0.6200
  412MOL0     C54264   7.129  11.676   5.391  0.8066  0.1064  0.0515
  412MOL0     C54265   7.236  11.666   5.494 -0.3382  0.3872 -0.8434
  412MOL0     C54266   7.380  11.689   5.429  0.0232  0.2710 -0.1250
  412MOL0     C54267   7.472  11.717   5.547 -0.5398 -0.7272  0.6496
  412MOL0     C54268   7.616  11.738   5.503 -0.2178 -0.2752  0.6312
  412MOL0     N54269   7.694  11.610   5.489 -0.4053 -0.2343  0.3486
  412MOL0     C54270   7.812  11.586   5.547 -0.1886  0.6528  0.5723
  412MOL0     C54271   7.857  11.465   5.503  0.6527  0.4066 -0.9353
  412MOL0     C54272   7.982  11.388   5.529 -0.1487 -0.2211 -0.2757
  412MOL0     C54273   8.101  11.463   5.591 -0.2045 -0.6678 -0.5018
  412MOL0     C54274   8.141  11.611   5.546 -0.0826 -0.2486  0.1993
  412MOL0     C54275   8.289  11.628   5.537 -0.4822  0.0554  0.3839
  412MOL0     O54276   8.364  11.610   5.664  0.0354  0.2800 -0.2758
  412MOL0     C54277   8.485  11.657   5.689 -0.2565  0.0738  1.4128
  412MOL0     C54278   8.517  11.652   5.821 -1.2290 -0.2078 -0.2815
  412MOL0     C54279   8.639  11.701   5.870  0.0615  0.3271  0.1626
  412MOL0     C54280   8.717  11.771   5.776  0.3921  0.0957 -0.1073
  412MOL0     C54281   8.845  11.829   5.823  0.1110  0.9035 -0.1349
  412MOL0     O54282   8.892  11.775   5.938 -0.0556  0.2342  0.4293
  412MOL0     C54283   9.024  11.806   5.963 -0.3137  0.7009 -0.6346
  412MOL0     C54284   9.056  11.902   6.059  0.7034 -0.0895  0.4259
  412MOL0     C54285   9.191  11.920   6.100  0.1648  0.4618 -0.1105
  412MOL0     C54286   9.298  11.850   6.046 -0.3356  0.2104 -0.1274
  412MOL0     O54287   9.427  11.877   6.090  0.2693  0.4928 -0.5843
  412MOL0     C54288   9.537  11.795   6.045 -0.5337 -1.4455 -0.1617
  412MOL0     C54289   9.661  11.861   6.104  0.4093  0.4750 -0.0040
  412MOL0     C54290   9.798  11.798   6.065  0.7220  0.5313  1.1801
  412MOL0     C54291   9.911  11.857   6.139  0.2407 -0.1262  0.3225
  412MOL0     C54292   9.912  11.820   6.286  0.0983  1.1104  0.3200
  412MOL0     C54293  10.043  11.861   6.353  0.6783  1.2752  0.2561
  412MOL0     C54294  10.158  11.749   6.331 -0.1148  0.3426  0.7780
  412MOL0     C54295  10.284  11.786   6.396 -0.1706  0.1154 -0.2112
  412MOL0    Cl54296  10.282  11.803   6.579 -0.0085  0.3334 -0.3494
  412MOL0     C54297   9.270  11.759   5.939  0.3768  0.0147 -0.2849
  412MOL0     C54298   9.128  11.728   5.908  0.6731 -0.1837 -0.1970
  412MOL0     O54299   8.904  11.908   5.751  0.2253  0.4052 -0.3629
  412MOL0     C54300   8.682  11.777   5.637  0.4361 -0.2839  0.0064
  412MOL0     C54301   8.564  11.726   5.600  0.0632  0.7782  0.4883
  412MOL0     N54302   7.759  11.424   5.408  0.1899  0.4057 -0.2513
  412MOL0     N54303   7.665  11.516   5.402  0.1641 -0.0815  0.9878
  412MOL0     C54304   6.567  11.357   5.264 -0.2665  0.6857  0.1026
  412MOL0     C54305   6.449  11.296   5.233 -0.1650  0.1779  0.3127
  412MOL0     C54306   6.024  11.181   5.329 -0.3640  1.2229  0.3335
  412MOL0     C54307   5.974  11.101   5.431 -0.0067  0.0469 -0.2721
  412MOL0     C54308   5.843  11.050   5.424 -0.0973 -0.1970 -0.6391
  412MOL0     C54309   5.757  11.082   5.313  0.7687  0.0411 -0.1776
  412MOL0     O54310   5.626  11.037   5.305 -0.1517 -0.8106 -1.4838
  412MOL0     C54311   5.580  10.935   5.388 -0.0284  0.5529  0.3915
  412MOL0     C54312   5.639  10.790   5.365  0.5000  0.3234  0.5029
  412MOL0     C54313   5.619  10.706   5.484  0.3769  0.6392  0.2234
  412MOL0     C54314   5.497  10.614   5.491  0.4164 -0.6036  0.1984
  412MOL0     C54315   5.368  10.690   5.494 -0.4240 -0.2029 -0.0691
  412MOL0     C54316   5.262  10.750   5.482  0.7273 -0.0421 -0.1906
  412MOL0     C54317   5.801  11.172   5.219  0.0337  0.4842  0.1202
  412MOL0     C54318   5.933  11.211   5.227  0.0858 -0.0619  0.3126
  412MOL0     H54319   6.248  11.571   5.275  0.1035  1.6114 -2.3960
  412MOL0     H54320   6.474  11.679   5.305  0.3309 -0.3953 -0.4822
  412MOL0     H54321   6.687  11.700   5.452 -0.5358  2.2717  0.3272
  412MOL0     H54322   6.670  11.749   5.281  0.3786  1.1388  0.6423
  412MOL0     H54323   6.904  11.826   5.344 -1.2533  0.5887  0.7802
  412MOL0     H54324   6.914  11.691   5.237  1.4705 -1.9647  0.3420
  412MOL0     H54325   6.961  11.550   5.450 -0.7769  0.9813  0.1337
  412MOL0     H54326   6.973  11.690   5.548 -1.2461 -1.1297  1.1307
  412MOL0     H54327   7.134  11.604   5.309  1.1073 -0.1903  0.3297
  412MOL0     H54328   7.140  11.780   5.357  2.8333  1.7632  4.8617
  412MOL0     H54329   7.243  11.570   5.545  3.2268  1.3654  0.8279
  412MOL0     H54330   7.218  11.743   5.570 -1.6732  0.8307 -1.5759
  412MOL0     H54331   7.386  11.765   5.351 -1.0889  0.8471  0.3368
  412MOL0     H54332   7.414  11.601   5.374  1.4837  2.5733 -3.1984
  412MOL0     H54333   7.448  11.812   5.595 -1.6457  0.2443 -1.7227
  412MOL0     H54334   7.464  11.642   5.627 -1.3500 -1.0375  0.2866
  412MOL0     H54335   7.670  11.807   5.568 -2.1773  0.8576  1.1531
  412MOL0     H54336   7.618  11.778   5.401  1.3536 -0.4120  0.5913
  412MOL0     H54337   7.862  11.643   5.625  2.9135  0.9134 -1.4159
  412MOL0     H54338   8.020  11.336   5.441 -0.7615  0.3242 -0.8817
  412MOL0     H54339   7.950  11.315   5.604 -2.0451  1.2397  0.4409
  412MOL0     H54340   8.184  11.396   5.567 -0.7095 -3.1450  3.6207
  412MOL0     H54341   8.098  11.464   5.701  0.5328  1.7758 -0.4512
  412MOL0     H54342   8.108  11.639   5.446 -0.6641  1.8286  0.9343
  412MOL0     H54343   8.103  11.682   5.620 -0.9618 -0.0446 -0.4372
  412MOL0     H54344   8.313  11.732   5.515  1.4556 -0.3314  0.4499
  412MOL0     H54345   8.346  11.560   5.473 -0.3303  0.7575 -0.2419
  412MOL0     H54346   8.448  11.606   5.891  0.0744 -0.5767  0.8071
  412MOL0     H54347   8.663  11.688   5.975  0.0873 -2.1008 -0.0991
  412MOL0     H54348   8.982  11.959   6.115  0.7184  2.3487 -1.8619
  412MOL0     H54349   9.211  11.997   6.173  3.5778  0.3521 -0.7769
  412MOL0     H54350   9.536  11.790   5.936  0.2993  1.3184 -0.3721
  412MOL0     H54351   9.532  11.694   6.087 -0.1932 -0.5120  2.2808
  412MOL0     H54352   9.653  11.858   6.213  0.8744  3.8684  0.2402
  412MOL0     H54353   9.665  11.968   6.084 -1.7523  1.1492  2.4851
  412MOL0     H54354   9.803  11.802   5.955  0.7670 -2.2791  1.0240
  412MOL0     H54355   9.801  11.691   6.085  2.7098  0.9179  3.2136
  412MOL0     H54356  10.005  11.824   6.093 -0.0553  0.9222 -1.1333
  412MOL0     H54357   9.904  11.966   6.130  0.5068  0.0794  2.2223
  412MOL0     H54358   9.885  11.715   6.295  2.3263  0.5734  1.6041
  412MOL0     H54359   9.840  11.888   6.332 -0.4409  1.0472 -0.4062
  412MOL0     H54360  10.016  11.838   6.456 -0.1878 -0.4248 -0.3163
  412MOL0     H54361  10.093  11.954   6.325  4.2942 -1.1180 -2.0759
  412MOL0     H54362  10.118  11.659   6.378 -0.3838  0.1465  0.1871
  412MOL0     H54363  10.170  11.734   6.223 -2.9980  0.3217  0.3695
  412MOL0     H54364  10.311  11.888   6.366  2.6970  0.2343  2.4014
  412MOL0     H54365  10.366  11.722   6.362 -2.2653 -3.3145  0.6909
  412MOL0     H54366   9.345  11.699   5.890  1.4242  1.5295 -0.6154
  412MOL0     H54367   9.107  11.649   5.838  0.6102  0.6301 -1.1230
  412MOL0     H54368   8.729  11.841   5.564 -1.0333 -0.1535 -0.8727
  412MOL0     H54369   8.536  11.733   5.495 -0.3580 -2.2365  0.3280
  412MOL0     H54370   6.654  11.294   5.252 -2.3065 -3.2998  3.6517
  412MOL0     H54371   6.441  11.189   5.218 -0.1119  0.4750 -2.2693
  412MOL0     H54372   6.037  11.069   5.514  0.9149  1.3339 -0.4397
  412MOL0     H54373   5.806  10.978   5.496 -2.5230 -0.5463 -2.1263
  412MOL0     H54374   5.471  10.930   5.379  0.0824  1.3102 -1.8657
  412MOL0     H54375   5.596  10.958   5.494 -3.4210 -1.6032  1.5232
  412MOL0     H54376   5.582  10.741   5.286  0.8373 -0.3893  0.6998
  412MOL0     H54377   5.744  10.792   5.337  0.1656 -2.9886 -1.3964
  412MOL0     H54378   5.617  10.765   5.575 -0.3741  1.1826 -0.1335
  412MOL0     H54379   5.710  10.645   5.488  0.4894  0.8975  2.3627
  412MOL0     H54380   5.501  10.543   5.408  1.5519  0.9652 -1.1605
  412MOL0     H54381   5.503  10.562   5.587 -1.1370 -2.8833 -0.8571
  412MOL0     H54382   5.159  10.778   5.491  0.3981 -1.1325 -0.3946
  412MOL0     H54383   5.740  11.205   5.136  2.7646  0.8754 -1.8940
  412MOL0     H54384   5.970  11.275   5.148 -3.5937  1.6808 -0.2215
  413MOL0     O54385   1.401  11.106   2.136  0.1574  0.4394  0.2290
  413MOL0     C54386   1.437  11.209   2.188 -0.0377  0.7681 -0.5742
  413MOL0     O54387   1.359  11.312   2.226 -0.0694 -0.0044  0.7028
  413MOL0     C54388   1.225  11.316   2.207 -0.4062 -0.0733  0.2419
  413MOL0     C54389   1.159  11.364   2.089 -0.1322  0.3539 -0.2576
  413MOL0     C54390   1.019  11.362   2.072  0.4719 -0.1345 -0.6210
  413MOL0     C54391   0.947  11.322   2.182  1.0279  0.4697  0.4027
  413MOL0     O54392   0.809  11.318   2.174 -0.2808 -0.4938  0.3713
  413MOL0     C54393   0.744  11.439   2.140 -0.4231  0.1994  0.0359
  413MOL0     C54394   0.648  11.412   2.028  0.8657  0.4809  0.8556
  413MOL0     C54395   0.545  11.310   2.069 -0.5911 -0.0956 -0.0016
  413MOL0     C54396   0.437  11.302   1.963 -0.1118  0.2407 -0.5505
  413MOL0     C54397   0.315  11.226   2.015 -0.0300 -0.3189 -1.2008
  413MOL0     C54398   0.203  11.238   1.915 -0.6897  0.2186 -0.2595
  413MOL0     C54399   0.080  11.152   1.952  0.6423  0.3948  0.7983
  413MOL0     C54400  -0.034  11.199   1.857  0.0373  0.7764 -0.3698
  413MOL0     N54401  -0.163  11.136   1.893  0.3813  0.4728  0.5356
  413MOL0     C54402  -0.253  11.189   1.984  0.4640 -0.3358  0.3836
  413MOL0     C54403  -0.365  11.109   1.968  1.5216  0.8507  0.3861
  413MOL0     C54404  -0.497  11.107   2.051  0.5746 -0.1659 -0.2990
  413MOL0     C54405  -0.619  11.132   1.964  0.1436  0.0743 -0.7849
  413MOL0     C54406  -0.676  11.000   1.896  0.1965 -0.3847  0.9740
  413MOL0     C54407  -0.803  11.026   1.827 -0.6488  0.3136 -0.7009
  413MOL0     O54408  -0.777  11.127   1.726 -0.1902  0.4324 -0.2689
  413MOL0     C54409  -0.890  11.216   1.713 -0.9620  0.3843  0.0038
  413MOL0     C54410  -0.858  11.340   1.663 -0.9101 -0.8759 -0.1897
  413MOL0     C54411  -0.950  11.441   1.652  0.5017  0.4185 -0.2275
  413MOL0     C54412  -1.084  11.413   1.696  0.2436 -0.2691 -0.2759
  413MOL0     C54413  -1.189  11.522   1.690  0.0866 -0.3442 -0.0017
  413MOL0     O54414  -1.130  11.645   1.658 -0.7927 -0.0597  0.8713
  413MOL0     C54415  -1.196  11.739   1.602  1.5569 -0.6467 -0.2048
  413MOL0     C54416  -1.294  11.815   1.674  0.7043  0.4924 -0.1782
  413MOL0     C54417  -1.379  11.897   1.604  0.8005  0.4610  0.3072
  413MOL0     C54418  -1.383  11.905   1.460  0.0938  0.5251  0.1297
  413MOL0     O54419  -1.463  11.995   1.395  0.1486 -0.7072  0.1400
  413MOL0     C54420  -1.472  11.987   1.251  0.8188 -0.5796  0.2671
  413MOL0     C54421  -1.583  12.079   1.202 -0.3281  0.5750 -0.0375
  413MOL0     C54422  -1.713  12.042   1.255  0.4591  0.2056 -0.1068
  413MOL0     C54423  -1.834  12.104   1.176  0.1307 -0.0239  0.4439
  413MOL0     C54424  -1.969  12.043   1.230 -1.0060 -0.5516  0.4386
  413MOL0     C54425  -2.080  12.118   1.146 -0.4589 -0.8011 -0.0002
  413MOL0     C54426  -2.212  12.087   1.209  0.6970  0.9174 -0.5435
  413MOL0     C54427  -2.340  12.092   1.133  0.3577  0.4833  0.6302
  413MOL0    Cl54428  -2.369  12.259   1.084 -0.2465 -0.1668  0.2059
  413MOL0     C54429  -1.285  11.827   1.391 -0.6672  0.1187 -0.3578
  413MOL0     C54430  -1.189  11.753   1.464  0.5823 -0.4051 -0.8303
  413MOL0     O54431  -1.305  11.502   1.709  0.3952  0.8866 -0.3774
  413MOL0     C54432  -1.122  11.280   1.724  0.3106 -0.2311  0.0262
  413MOL0     C54433  -1.025  11.184   1.735 -0.4032  1.4515 -0.0200
  413MOL0     N54434  -0.336  11.007   1.882  0.3824  0.1549  0.2619
  413MOL0     N54435  -0.217  11.027   1.837 -0.6696 -0.3135 -0.1322
  413MOL0     C54436   1.009  11.277   2.300 -0.8230  0.2460  0.0513
  413MOL0     C54437   1.146  11.278   2.310 -0.0723  0.1496 -0.2336
  413MOL0     C54438   1.577  11.206   2.243  1.1077 -0.5053 -0.3018
  413MOL0     C54439   1.623  11.314   2.332  0.5898  0.9534 -0.2000
  413MOL0     C54440   1.759  11.317   2.376 -0.3117 -0.0815  1.5971
  413MOL0     C54441   1.844  11.209   2.336 -0.2836 -0.7677 -0.1469
  413MOL0     O54442   1.973  11.223   2.386  1.3274  0.2896  0.2678
  413MOL0     C54443   2.071  11.125   2.355  0.5554 -0.4282 -0.0908
  413MOL0     C54444   2.196  11.148   2.432  0.8133  0.6036 -0.2364
  413MOL0     C54445   2.250  11.293   2.417 -0.0960  0.4275 -0.3211
  413MOL0     C54446   2.364  11.332   2.509  0.2426  0.1879  0.4652
  413MOL0     C54447   2.483  11.238   2.514 -0.6454 -0.6152 -0.6425
  413MOL0     C54448   2.578  11.156   2.509  0.1662  1.1427 -0.6787
  413MOL0     C54449   1.798  11.098   2.261  0.5340  0.0310  0.1368
  413MOL0     C54450   1.668  11.102   2.203 -0.1735 -0.2495 -0.7169
  413MOL0     H54451   1.221  11.405   2.010 -1.5361  1.5453 -0.7659
  413MOL0     H54452   0.977  11.403   1.981 -1.1552  0.3539  0.3027
  413MOL0     H54453   0.809  11.518   2.103  0.2718 -0.0331  0.7201
  413MOL0     H54454   0.702  11.475   2.234  1.7342  0.5874  0.9087
  413MOL0     H54455   0.705  11.392   1.937 -0.4513  3.5015 -0.7739
  413MOL0     H54456   0.590  11.504   2.014 -1.8209 -1.1722  0.6231
  413MOL0     H54457   0.503  11.342   2.165  0.2595  0.6611  0.1311
  413MOL0     H54458   0.590  11.211   2.079 -1.9047 -0.6845  0.2435
  413MOL0     H54459   0.416  11.406   1.933 -2.2889  0.4952  1.5372
  413MOL0     H54460   0.490  11.251   1.882 -0.1508  0.3326 -0.6339
  413MOL0     H54461   0.276  11.267   2.109  0.3923 -0.0730 -1.1262
  413MOL0     H54462   0.344  11.122   2.031  2.9159 -0.0138 -3.5498
  413MOL0     H54463   0.241  11.201   1.820  0.6742  1.1150 -0.0902
  413MOL0     H54464   0.179  11.344   1.910 -2.9183 -0.2487 -0.7436
  413MOL0     H54465   0.109  11.053   1.917  2.0019  1.9878 -3.2833
  413MOL0     H54466   0.061  11.160   2.059  1.7557  0.3543  1.0030
  413MOL0     H54467   0.000  11.165   1.759  1.8173 -0.3970  0.6002
  413MOL0     H54468  -0.047  11.308   1.863 -0.2579  0.6699  3.3132
  413MOL0     H54469  -0.246  11.283   2.038  1.5509 -0.4968  0.5483
  413MOL0     H54470  -0.486  11.177   2.134  2.2691  1.3610 -1.7354
  413MOL0     H54471  -0.506  11.009   2.100 -1.0447  1.0681  2.0793
  413MOL0     H54472  -0.598  11.213   1.894  0.0829 -1.2922 -2.4410
  413MOL0     H54473  -0.705  11.164   2.024  0.8919  1.6164 -0.4909
  413MOL0     H54474  -0.608  10.952   1.825  0.7248  1.6360  0.0292
  413MOL0     H54475  -0.708  10.921   1.965 -3.2872 -0.7268 -0.8041
  413MOL0     H54476  -0.867  11.061   1.909  0.2855 -2.5263  1.3722
  413MOL0     H54477  -0.839  10.932   1.785  2.7238 -0.3399 -2.4967
  413MOL0     H54478  -0.754  11.359   1.638  0.1598 -3.9731  1.3026
  413MOL0     H54479  -0.928  11.542   1.618 -1.0331  0.2177 -1.9823
  413MOL0     H54480  -1.300  11.812   1.783  0.7663  4.5855  0.0978
  413MOL0     H54481  -1.448  11.959   1.660 -0.3009  2.2556 -2.8374
  413MOL0     H54482  -1.501  11.887   1.220 -1.6345  0.4405 -1.0125
  413MOL0     H54483  -1.378  12.001   1.196  0.4785 -2.1983 -0.8044
  413MOL0     H54484  -1.587  12.082   1.093 -0.4298 -0.8305 -0.1022
  413MOL0     H54485  -1.553  12.180   1.231  0.8921 -0.0359  0.9255
  413MOL0     H54486  -1.724  12.062   1.362 -0.5143 -1.4656  0.1389
  413MOL0     H54487  -1.726  11.935   1.234 -2.8947  0.2095  1.3365
  413MOL0     H54488  -1.838  12.211   1.199 -2.2977  0.3116 -1.0728
  413MOL0     H54489  -1.830  12.066   1.073 -0.6485 -0.3527  0.5240
  413MOL0     H54490  -1.979  12.064   1.337 -0.1700 -0.9569  0.5991
  413MOL0     H54491  -1.967  11.937   1.204  0.1915  0.5399 -5.2792
  413MOL0     H54492  -2.069  12.081   1.044 -1.1267 -1.3013  0.1054
  413MOL0     H54493  -2.079  12.228   1.146 -0.0604 -0.8034  0.0227
  413MOL0     H54494  -2.215  11.985   1.246  2.2285  1.2541  0.5760
  413MOL0     H54495  -2.209  12.153   1.296  1.4691  1.1741 -0.7549
  413MOL0     H54496  -2.433  12.053   1.176  0.2039 -1.3891 -1.2270
  413MOL0     H54497  -2.326  12.034   1.042  1.0762 -0.0051  1.0440
  413MOL0     H54498  -1.270  11.835   1.284 -1.6950  1.5023 -0.4217
  413MOL0     H54499  -1.120  11.697   1.402 -0.0537  0.9422 -2.8934
  413MOL0     H54500  -1.226  11.254   1.744 -0.2100  2.7031  1.8490
  413MOL0     H54501  -1.045  11.081   1.765  1.8325  1.6388  2.5011
  413MOL0     H54502   0.951  11.245   2.387 -0.9178  5.3431  2.2423
  413MOL0     H54503   1.193  11.236   2.398  0.4039  1.1352 -0.0128
  413MOL0     H54504   1.575  11.406   2.363  2.5794  1.2197  2.4691
  413MOL0     H54505   1.794  11.409   2.421 -1.1239 -0.1720  2.4452
  413MOL0     H54506   2.088  11.126   2.247  0.5472  2.1547 -0.1254
  413MOL0     H54507   2.035  11.024   2.377  1.5254 -0.9490 -0.7855
  413MOL0     H54508   2.165  11.135   2.536  0.1831  2.0486 -0.2196
  413MOL0     H54509   2.272  11.078   2.393 -0.4103  0.8601 -3.4403
  413MOL0     H54510   2.164  11.356   2.442  0.1106  0.7567 -0.4378
  413MOL0     H54511   2.272  11.323   2.315 -1.1147  1.6625 -0.2090
  413MOL0     H54512   2.406  11.427   2.476  0.4125  0.6353  1.9140
  413MOL0     H54513   2.311  11.342   2.604  0.0128  0.8707  0.2692
  413MOL0     H54514   2.664  11.092   2.510  1.1490  2.2102  3.2008
  413MOL0     H54515   1.873  11.021   2.247 -1.4411 -1.9747 -0.0364
  413MOL0     H54516   1.626  11.034   2.130 -2.6346  0.0161  0.3523
  414MOL0     O54517   7.296   9.178   1.410  0.0996  0.5118 -0.0296
  414MOL0     C54518   7.312   9.214   1.532  0.0282 -0.2164  0.8852
  414MOL0     O54519   7.215   9.197   1.636 -0.2594  0.2324 -0.3061
  414MOL0     C54520   7.082   9.211   1.615  0.1391 -0.0203  0.4395
  414MOL0     C54521   7.001   9.150   1.706  0.5391 -0.4401 -1.1885
  414MOL0     C54522   6.857   9.157   1.691 -0.7728  0.3479 -0.3592
  414MOL0     C54523   6.801   9.242   1.596  0.3820  0.1586  0.9707
  414MOL0     O54524   6.665   9.221   1.559  0.6083 -0.2418  0.8857
  414MOL0     C54525   6.598   9.346   1.522  0.1793  0.9280 -0.3293
  414MOL0     C54526   6.449   9.330   1.552 -0.8597 -0.0022 -1.0913
  414MOL0     C54527   6.390   9.233   1.463 -0.0604 -0.8438  0.0503
  414MOL0     C54528   6.231   9.232   1.469 -0.0813  0.4669 -0.0258
  414MOL0     C54529   6.167   9.138   1.367  0.2600 -0.0862 -0.2644
  414MOL0     C54530   6.018   9.127   1.377 -0.1112 -0.9072 -0.0900
  414MOL0     C54531   5.942   9.255   1.341  0.0896 -0.2073  0.8666
  414MOL0     C54532   5.795   9.266   1.350 -0.7567 -0.1827 -1.2182
  414MOL0     N54533   5.738   9.282   1.483 -0.6179 -0.2664 -0.5236
  414MOL0     C54534   5.705   9.174   1.567  0.4117 -0.2260  0.0307
  414MOL0     C54535   5.694   9.230   1.689 -0.6020 -0.3546 -0.6426
  414MOL0     C54536   5.683   9.157   1.818 -0.4725  0.3178  0.0948
  414MOL0     C54537   5.533   9.149   1.863  0.0197 -0.8350  0.2040
  414MOL0     C54538   5.484   9.282   1.920 -0.4103  0.6321  0.0257
  414MOL0     C54539   5.341   9.264   1.954 -0.2584  1.3895  0.3885
  414MOL0     O54540   5.287   9.389   1.984  0.4894  0.2957 -0.0137
  414MOL0     C54541   5.153   9.401   2.020 -0.1054 -1.2738  0.0920
  414MOL0     C54542   5.108   9.389   2.150  0.8166 -0.2977  0.0383
  414MOL0     C54543   4.969   9.403   2.180 -0.9576  0.9429 -0.3394
  414MOL0     C54544   4.883   9.458   2.081 -0.1041 -0.3878  0.2324
  414MOL0     C54545   4.746   9.506   2.124  0.1315  0.1565  0.6642
  414MOL0     O54546   4.647   9.506   2.020  0.2090 -0.1312  0.1098
  414MOL0     C54547   4.525   9.544   2.063  0.9671 -0.6456 -0.6942
  414MOL0     C54548   4.467   9.657   2.006  0.4344 -0.6053  0.8805
  414MOL0     C54549   4.346   9.703   2.040 -0.0258  0.8575 -0.2303
  414MOL0     C54550   4.262   9.626   2.127  0.5841  0.1641  0.4567
  414MOL0     O54551   4.129   9.667   2.146 -0.2100  0.1025 -0.3212
  414MOL0     C54552   4.047   9.563   2.193  0.4525 -0.5876  0.5432
  414MOL0     C54553   3.907   9.610   2.182 -0.5579 -0.2336 -0.0657
  414MOL0     C54554   3.815   9.537   2.288 -0.1616  0.0331  0.2871
  414MOL0     C54555   3.665   9.573   2.267 -0.4347 -0.3128 -0.0154
  414MOL0     C54556   3.568   9.522   2.373  0.1732 -0.1736  0.3341
  414MOL0     C54557   3.428   9.582   2.378  0.3999  0.2222  0.4121
  414MOL0     C54558   3.328   9.486   2.435 -0.8937  0.2180 -0.0271
  414MOL0     C54559   3.187   9.537   2.435 -0.1854  0.2814  0.2678
  414MOL0    Cl54560   3.091   9.400   2.497  0.0822  0.6630 -0.0463
  414MOL0     C54561   4.313   9.506   2.185 -0.8226 -0.3192  0.2984
  414MOL0     C54562   4.446   9.467   2.155  0.8897  0.8167  1.1366
  414MOL0     O54563   4.734   9.534   2.239  0.4774 -0.2509 -0.0450
  414MOL0     C54564   4.930   9.486   1.952 -0.1811  0.3014  0.6816
  414MOL0     C54565   5.063   9.449   1.919 -1.1204 -0.0606  0.1638
  414MOL0     N54566   5.718   9.366   1.675 -0.5265 -0.2003 -0.5935
  414MOL0     N54567   5.740   9.401   1.555  0.3385 -0.1215  0.0655
  414MOL0     C54568   6.887   9.308   1.495 -0.0653  0.7244  0.4900
  414MOL0     C54569   7.031   9.288   1.510  1.8279  0.1394 -0.0836
  414MOL0     C54570   7.453   9.248   1.572 -0.0953  0.6008 -0.2821
  414MOL0     C54571   7.493   9.222   1.698 -0.3609 -0.4991  0.4720
  414MOL0     C54572   7.620   9.257   1.751  0.1766 -0.1077  0.5377
  414MOL0     C54573   7.717   9.311   1.671  0.5841 -0.0443  0.2536
  414MOL0     O54574   7.837   9.338   1.727 -0.2899  0.5151  0.1564
  414MOL0     C54575   7.948   9.315   1.639  0.2053  0.6033 -0.2406
  414MOL0     C54576   8.082   9.348   1.707 -0.5898 -0.7733 -1.1340
  414MOL0     C54577   8.118   9.252   1.822  0.8444  0.3131 -0.2787
  414MOL0     C54578   8.257   9.273   1.875 -1.1153  0.3767 -0.7655
  414MOL0     C54579   8.354   9.235   1.769 -0.3187 -0.0186 -0.9887
  414MOL0     C54580   8.428   9.218   1.678  0.8758  0.0527 -0.3493
  414MOL0     C54581   7.675   9.342   1.539 -0.5163  0.4429  1.1883
  414MOL0     C54582   7.548   9.310   1.488  0.0079 -0.3472  0.1842
  414MOL0     H54583   7.049   9.094   1.786 -2.4485  0.8493  1.7865
  414MOL0     H54584   6.788   9.099   1.751 -0.1977 -2.5250 -2.3115
  414MOL0     H54585   6.618   9.354   1.415  1.8757 -0.3187 -0.1346
  414MOL0     H54586   6.632   9.434   1.577  0.3830  1.4204 -1.2191
  414MOL0     H54587   6.395   9.424   1.541  0.8024  1.1179 -0.1662
  414MOL0     H54588   6.440   9.303   1.658 -0.8176 -0.8985 -1.3047
  414MOL0     H54589   6.436   9.142   1.503  1.6544  0.0190  0.1231
  414MOL0     H54590   6.421   9.258   1.361  0.2830 -1.6302 -0.0502
  414MOL0     H54591   6.194   9.207   1.568  1.7081 -3.1681 -0.1230
  414MOL0     H54592   6.213   9.337   1.445  3.2807  0.6302 -2.5450
  414MOL0     H54593   6.204   9.038   1.393  0.3109  0.3268  1.3471
  414MOL0     H54594   6.194   9.155   1.262 -0.7305 -2.0768 -0.8920
  414MOL0     H54595   5.998   9.091   1.478  0.9667 -0.1027  0.4412
  414MOL0     H54596   5.985   9.047   1.310  0.3073 -3.2356  2.3154
  414MOL0     H54597   5.978   9.342   1.397 -0.0334  0.3339  0.1258
  414MOL0     H54598   5.963   9.279   1.236  2.7405  0.8015  1.5425
  414MOL0     H54599   5.749   9.182   1.295 -0.1398 -0.6076 -1.0913
  414MOL0     H54600   5.768   9.352   1.288  3.3204  0.2685 -2.6298
  414MOL0     H54601   5.713   9.070   1.540 -0.4934  0.3960 -3.0512
  414MOL0     H54602   5.743   9.206   1.896  0.0427 -0.9206  0.5138
  414MOL0     H54603   5.723   9.055   1.808  3.6212  1.8760 -1.6579
  414MOL0     H54604   5.524   9.075   1.943 -0.9661  1.4984  2.4082
  414MOL0     H54605   5.473   9.117   1.778 -0.6394  1.5270 -0.2820
  414MOL0     H54606   5.537   9.316   2.009 -1.3359  2.3844 -0.0597
  414MOL0     H54607   5.487   9.357   1.841 -0.3680 -0.9260 -1.5063
  414MOL0     H54608   5.334   9.191   2.035  0.0312 -0.2406 -0.9746
  414MOL0     H54609   5.277   9.226   1.873 -0.2160 -0.2263  1.0718
  414MOL0     H54610   5.175   9.346   2.224  4.4077  1.2573 -2.0658
  414MOL0     H54611   4.924   9.366   2.272 -3.0076  0.4463 -1.4938
  414MOL0     H54612   4.531   9.722   1.948 -0.4092  0.1104  0.7418
  414MOL0     H54613   4.316   9.794   1.989  0.6469 -0.4082 -3.0864
  414MOL0     H54614   4.067   9.552   2.300 -1.6957  3.8357  1.6804
  414MOL0     H54615   4.052   9.470   2.137  1.7371 -1.3385  1.8401
  414MOL0     H54616   3.864   9.602   2.082 -0.9592 -4.3509  0.2835
  414MOL0     H54617   3.914   9.717   2.206  2.1071  0.6036 -3.6966
  414MOL0     H54618   3.836   9.570   2.390  0.6127  2.4660 -0.6074
  414MOL0     H54619   3.837   9.430   2.279 -0.9012  0.0388 -3.6745
  414MOL0     H54620   3.664   9.682   2.267 -2.5220 -0.2834  0.5692
  414MOL0     H54621   3.629   9.537   2.170 -1.4468 -0.8570  0.5429
  414MOL0     H54622   3.615   9.539   2.470  1.9590 -1.2343 -0.3003
  414MOL0     H54623   3.563   9.413   2.366 -0.1988 -0.1635  0.3974
  414MOL0     H54624   3.395   9.613   2.278 -2.1364 -3.2135  0.0143
  414MOL0     H54625   3.433   9.673   2.439  1.4162 -1.7261  3.4985
  414MOL0     H54626   3.334   9.403   2.363 -2.2253 -0.1955  0.3087
  414MOL0     H54627   3.351   9.453   2.536  0.3934 -2.0941 -0.9850
  414MOL0     H54628   3.144   9.536   2.334 -0.7045  0.6573  0.4792
  414MOL0     H54629   3.167   9.630   2.489 -1.3541 -0.0893  0.5091
  414MOL0     H54630   4.255   9.449   2.256  0.3898 -1.9155  0.0718
  414MOL0     H54631   4.492   9.377   2.195 -1.4348 -1.1171 -0.3028
  414MOL0     H54632   4.869   9.547   1.886  0.9101  0.8844  0.1868
  414MOL0     H54633   5.111   9.459   1.823  0.1554  0.9598  0.8813
  414MOL0     H54634   6.844   9.358   1.408  0.1502 -0.5212 -0.3673
  414MOL0     H54635   7.093   9.331   1.432  1.7348 -1.7030 -1.2321
  414MOL0     H54636   7.416   9.179   1.762 -2.9123  2.9231 -0.0349
  414MOL0     H54637   7.632   9.223   1.854 -0.6588 -2.6877 -0.1232
  414MOL0     H54638   7.935   9.374   1.547 -0.6869 -1.6624 -1.6465
  414MOL0     H54639   7.950   9.209   1.614 -1.8570  1.1338 -3.2291
  414MOL0     H54640   8.155   9.354   1.626  0.8881  1.2026  0.2311
  414MOL0     H54641   8.082   9.451   1.744  0.2224 -0.7683 -1.1269
  414MOL0     H54642   8.110   9.151   1.781 -3.7092 -1.0620  3.2229
  414MOL0     H54643   8.039   9.266   1.896  1.2288  3.4112 -0.3255
  414MOL0     H54644   8.271   9.376   1.910 -0.1132  0.5992 -1.7639
  414MOL0     H54645   8.279   9.201   1.954 -3.2159 -0.5507 -0.9604
  414MOL0     H54646   8.500   9.219   1.598 -1.3106  2.0562 -2.4458
  414MOL0     H54647   7.738   9.396   1.470 -2.8544  1.7698 -0.0536
  414MOL0     H54648   7.516   9.326   1.386 -1.0808 -3.9709 -0.2037
  415MOL0     O54649   7.877   6.013   4.277  0.1976  0.2756  0.6234
  415MOL0     C54650   7.968   6.035   4.198 -0.0598 -0.5911 -1.5140
  415MOL0     O54651   7.947   6.076   4.061  0.3080  0.3531  1.0046
  415MOL0     C54652   7.814   6.116   4.024  0.3512  0.4747  0.7238
  415MOL0     C54653   7.763   6.065   3.902 -1.1995 -0.2200 -0.1017
  415MOL0     C54654   7.631   6.072   3.871 -0.4667 -0.4442 -0.1022
  415MOL0     C54655   7.543   6.147   3.953 -0.3870 -0.7814 -0.0937
  415MOL0     O54656   7.413   6.157   3.906 -0.7298 -0.0503 -0.3908
  415MOL0     C54657   7.304   6.199   3.991  0.9616  0.8184 -0.0419
  415MOL0     C54658   7.174   6.199   3.903  0.1160  0.2774  0.2675
  415MOL0     C54659   7.055   6.181   3.991 -0.5326  0.6678 -0.4417
  415MOL0     C54660   7.055   6.246   4.129 -1.0326  0.6244  0.7818
  415MOL0     C54661   6.910   6.273   4.188  0.0182  0.5765 -0.1689
  415MOL0     C54662   6.925   6.314   4.334 -0.5513  0.2142 -0.0238
  415MOL0     C54663   6.797   6.339   4.425 -0.6001 -0.0604 -0.1498
  415MOL0     C54664   6.687   6.417   4.352  0.0901  0.5507 -0.9614
  415MOL0     N54665   6.579   6.463   4.448 -0.0128 -0.0219  0.1125
  415MOL0     C54666   6.560   6.420   4.580  0.7338  0.6127  0.1207
  415MOL0     C54667   6.425   6.445   4.605 -0.4571  0.2044  0.3880
  415MOL0     C54668   6.351   6.396   4.721 -0.4192 -0.5347 -0.1655
  415MOL0     C54669   6.209   6.365   4.685 -0.5583 -0.1647 -0.0237
  415MOL0     C54670   6.119   6.492   4.686  0.6504 -0.9934  0.3338
  415MOL0     C54671   5.969   6.469   4.698 -0.2758  0.0099 -0.1973
  415MOL0     O54672   5.928   6.388   4.591 -0.0254 -0.7594  0.6584
  415MOL0     C54673   5.808   6.319   4.602  0.1456  0.2686  0.4149
  415MOL0     C54674   5.793   6.200   4.534  0.4234  0.4797 -0.6120
  415MOL0     C54675   5.667   6.140   4.524  0.0225 -0.6377  0.6768
  415MOL0     C54676   5.556   6.191   4.604 -0.5696 -0.5399  1.1913
  415MOL0     C54677   5.423   6.127   4.582 -0.7665 -0.9320 -0.1558
  415MOL0     O54678   5.384   6.113   4.454 -0.2488  0.3606 -0.6761
  415MOL0     C54679   5.266   6.060   4.417  0.4811  0.9211  0.0855
  415MOL0     C54680   5.268   5.993   4.295 -0.2520 -0.5434  0.7389
  415MOL0     C54681   5.155   5.942   4.243  0.5077  0.3327  0.3631
  415MOL0     C54682   5.026   5.950   4.322 -0.4806  1.1735 -1.0976
  415MOL0     O54683   4.911   5.906   4.256 -0.1015 -0.3340 -0.3213
  415MOL0     C54684   4.781   5.932   4.308  0.9493  0.3107 -0.5026
  415MOL0     C54685   4.757   5.842   4.428 -0.0860  0.2625 -0.0114
  415MOL0     C54686   4.722   5.702   4.385  0.2034  0.5763  0.0234
  415MOL0     C54687   4.686   5.623   4.504 -0.2474  0.0768 -0.5922
  415MOL0     C54688   4.656   5.473   4.465 -0.1024 -0.0322 -0.4135
  415MOL0     C54689   4.560   5.408   4.562 -0.3368  1.1160 -0.6615
  415MOL0     C54690   4.414   5.450   4.524  0.3811  0.3551  0.0024
  415MOL0     C54691   4.310   5.359   4.579 -0.5427 -0.0784  0.5405
  415MOL0    Cl54692   4.310   5.206   4.477 -0.3903  0.0822 -0.4469
  415MOL0     C54693   5.025   6.025   4.438  0.2880  0.2783 -0.2287
  415MOL0     C54694   5.145   6.078   4.486  0.3220  0.0232  0.1118
  415MOL0     O54695   5.360   6.101   4.680  0.1129  0.3359 -0.3274
  415MOL0     C54696   5.571   6.316   4.675 -0.1014 -0.4436  0.7719
  415MOL0     C54697   5.701   6.377   4.671  0.4154 -0.2231  0.1985
  415MOL0     N54698   6.369   6.503   4.492 -0.1672 -0.4228 -0.2314
  415MOL0     N54699   6.461   6.523   4.406  0.6295 -0.7021  0.4065
  415MOL0     C54700   7.588   6.202   4.074  1.1924  0.4279 -0.7814
  415MOL0     C54701   7.722   6.188   4.108  1.1691  0.0913 -0.0371
  415MOL0     C54702   8.105   6.001   4.249 -0.0568 -0.8817 -0.0758
  415MOL0     C54703   8.208   5.977   4.153 -0.2683  0.2321 -0.4164
  415MOL0     C54704   8.336   5.946   4.192  0.2543  0.5239 -0.3072
  415MOL0     C54705   8.370   5.946   4.325 -0.1578 -0.3670 -0.3171
  415MOL0     O54706   8.503   5.931   4.352 -0.5408 -0.3443 -0.4807
  415MOL0     C54707   8.572   6.024   4.437 -0.1817 -0.2792 -0.4014
  415MOL0     C54708   8.693   6.062   4.366  0.8731 -0.2009  0.2521
  415MOL0     C54709   8.764   6.175   4.439  0.8113 -0.2019  0.0780
  415MOL0     C54710   8.840   6.140   4.571  0.7812 -0.1797 -0.1452
  415MOL0     C54711   8.947   6.236   4.608  0.5651  1.1579  0.5250
  415MOL0     C54712   9.047   6.301   4.629 -0.6930  0.7587 -0.3934
  415MOL0     C54713   8.270   5.975   4.422 -0.3248 -0.1722  0.5070
  415MOL0     C54714   8.142   6.005   4.386  0.0692 -0.1904 -0.3561
  415MOL0     H54715   7.829   6.019   3.829 -1.9160 -0.1542 -0.7972
  415MOL0     H54716   7.602   6.034   3.774  0.4551  2.4851 -1.6608
  415MOL0     H54717   7.322   6.298   4.033  2.8048  0.2432  0.6177
  415MOL0     H54718   7.293   6.125   4.071 -0.0832  0.9764 -0.0252
  415MOL0     H54719   7.190   6.115   3.835  0.5783 -0.0522  0.7693
  415MOL0     H54720   7.146   6.285   3.841 -2.7314 -0.5367  0.2674
  415MOL0     H54721   7.041   6.076   4.020  0.8088  1.0207  1.6747
  415MOL0     H54722   6.962   6.203   3.938 -0.7032 -0.4908 -0.6500
  415MOL0     H54723   7.120   6.197   4.202 -0.9049 -0.0485  0.2262
  415MOL0     H54724   7.098   6.346   4.120  0.1399 -0.0206 -1.4730
  415MOL0     H54725   6.849   6.183   4.176  0.6125  0.3604 -1.6668
  415MOL0     H54726   6.848   6.345   4.134 -2.6183  1.2941  3.4409
  415MOL0     H54727   6.979   6.409   4.328  1.7554 -1.0762 -1.5254
  415MOL0     H54728   7.006   6.253   4.375  0.6304  2.1366  0.6350
  415MOL0     H54729   6.756   6.247   4.468 -3.3917  0.8354 -0.6932
  415MOL0     H54730   6.838   6.407   4.500 -0.7487  1.3768 -1.3045
  415MOL0     H54731   6.649   6.366   4.263  0.5749  0.3921 -1.0786
  415MOL0     H54732   6.730   6.512   4.318  0.8250  0.7173  0.3667
  415MOL0     H54733   6.632   6.362   4.637  1.8591  2.2201  0.4329
  415MOL0     H54734   6.335   6.478   4.791 -0.7450 -0.3261 -0.4803
  415MOL0     H54735   6.397   6.311   4.772  1.9385 -0.3539 -1.8389
  415MOL0     H54736   6.181   6.293   4.762 -1.0731  0.5667  0.4768
  415MOL0     H54737   6.213   6.323   4.584 -3.9374 -3.3824  0.9576
  415MOL0     H54738   6.148   6.549   4.776  0.9226  0.1925 -0.4777
  415MOL0     H54739   6.142   6.552   4.598 -1.7704 -3.4067 -2.1109
  415MOL0     H54740   5.927   6.568   4.718 -0.9421 -0.3990  0.4501
  415MOL0     H54741   5.945   6.409   4.786  0.7762  0.0583  0.1428
  415MOL0     H54742   5.873   6.158   4.473 -0.6622 -1.9692 -0.4653
  415MOL0     H54743   5.653   6.054   4.459  3.3922  0.1334 -1.3317
  415MOL0     H54744   5.355   5.989   4.231 -1.3759 -3.0637 -0.7900
  415MOL0     H54745   5.160   5.885   4.151  0.2461 -1.0302  1.1559
  415MOL0     H54746   4.703   5.906   4.235 -0.4535  1.0287  0.6893
  415MOL0     H54747   4.769   6.040   4.322 -4.1275  0.2644 -2.2301
  415MOL0     H54748   4.666   5.871   4.481  1.1213  0.5689  2.0109
  415MOL0     H54749   4.846   5.839   4.491  1.4114 -0.8798 -2.0434
  415MOL0     H54750   4.804   5.650   4.335  0.3638 -0.0295  0.8954
  415MOL0     H54751   4.634   5.720   4.322 -1.7625 -0.4591  2.3181
  415MOL0     H54752   4.772   5.629   4.571 -0.6960 -2.4689  0.3334
  415MOL0     H54753   4.596   5.666   4.550 -0.2971  0.3600 -0.9527
  415MOL0     H54754   4.750   5.417   4.465 -1.3898 -2.3246  0.7331
  415MOL0     H54755   4.611   5.467   4.365  3.2832  0.7564 -2.1332
  415MOL0     H54756   4.583   5.441   4.663  2.7817 -2.6657  0.1034
  415MOL0     H54757   4.590   5.303   4.554  1.8273  1.7722 -1.9057
  415MOL0     H54758   4.390   5.549   4.563 -2.6582 -0.0999 -0.4918
  415MOL0     H54759   4.399   5.450   4.416  0.4895  0.1844 -0.0132
  415MOL0     H54760   4.211   5.406   4.579 -1.0900 -1.2095  1.4511
  415MOL0     H54761   4.319   5.347   4.687  1.7614  1.1065  0.5465
  415MOL0     H54762   4.927   6.055   4.474 -0.0833  1.0519 -1.8093
  415MOL0     H54763   5.139   6.138   4.576  2.5352  1.7518 -0.7954
  415MOL0     H54764   5.483   6.358   4.723 -1.0071 -0.3393 -0.9059
  415MOL0     H54765   5.710   6.474   4.717 -1.6644  0.3005 -0.4139
  415MOL0     H54766   7.510   6.254   4.129 -0.5681 -0.4961 -2.2670
  415MOL0     H54767   7.748   6.217   4.209 -0.6875 -1.3064  0.9127
  415MOL0     H54768   8.199   5.973   4.045  0.6248 -0.5978 -0.4767
  415MOL0     H54769   8.417   5.931   4.121 -1.0566  2.7312 -2.4403
  415MOL0     H54770   8.605   5.973   4.528  0.5669 -0.7663 -0.9430
  415MOL0     H54771   8.513   6.111   4.467 -4.0593 -1.9428 -2.4764
  415MOL0     H54772   8.760   5.978   4.348 -0.0831 -0.5068 -2.2884
  415MOL0     H54773   8.668   6.094   4.265  2.5670 -2.5456 -0.9989
  415MOL0     H54774   8.696   6.259   4.451 -0.0760 -0.8248 -0.4873
  415MOL0     H54775   8.832   6.206   4.358 -2.4314 -1.8530 -3.6067
  415MOL0     H54776   8.763   6.143   4.649 -1.0027  2.8779 -1.8341
  415MOL0     H54777   8.893   6.045   4.570  2.0720  0.4545 -3.2252
  415MOL0     H54778   9.133   6.361   4.649  0.5040 -1.0200  0.0726
  415MOL0     H54779   8.291   5.974   4.529  1.8537 -2.9498  0.1621
  415MOL0     H54780   8.067   6.013   4.464 -0.8033  2.5624 -1.3570
  416MOL0     O54781   7.929   0.886   2.393  0.4254 -0.2535  0.2158
  416MOL0     C54782   7.916   0.814   2.296  0.7990 -0.4061  0.7032
  416MOL0     O54783   7.818   0.829   2.195  0.6578  0.2595 -0.0656
  416MOL0     C54784   7.729   0.940   2.206  0.3755  0.6349  0.4730
  416MOL0     C54785   7.742   1.045   2.113  0.5973 -0.4305 -0.3856
  416MOL0     C54786   7.647   1.150   2.112 -0.4246  0.9724  0.6270
  416MOL0     C54787   7.551   1.162   2.207  0.1679 -0.5988 -0.4558
  416MOL0     O54788   7.477   1.279   2.202  0.7246 -0.4430  0.4381
  416MOL0     C54789   7.332   1.249   2.212  1.3857 -0.5976  0.1585
  416MOL0     C54790   7.261   1.184   2.088 -0.1130 -0.0887 -0.5131
  416MOL0     C54791   7.106   1.177   2.109 -0.6330  0.0937  0.6001
  416MOL0     C54792   7.027   1.125   1.994  0.3392  0.3722 -0.5885
  416MOL0     C54793   6.875   1.117   2.030 -0.8152  0.5727  0.0807
  416MOL0     C54794   6.789   1.125   1.908 -0.9077  0.4507  0.3078
  416MOL0     C54795   6.636   1.146   1.944  0.1329 -0.0556  0.5950
  416MOL0     C54796   6.539   1.177   1.832 -0.3831 -0.3714  0.1095
  416MOL0     N54797   6.410   1.223   1.893 -0.8169  0.4919  0.2130
  416MOL0     C54798   6.319   1.296   1.816 -0.0864  0.3940 -0.0239
  416MOL0     C54799   6.188   1.271   1.855 -0.1279 -0.1125 -0.5391
  416MOL0     C54800   6.068   1.333   1.794 -0.1292  0.8673  0.0104
  416MOL0     C54801   5.956   1.350   1.904  0.1627  0.4545  0.2624
  416MOL0     C54802   5.850   1.457   1.866  0.3555 -0.0213  0.0676
  416MOL0     C54803   5.779   1.430   1.734 -0.7286  0.6232 -0.0023
  416MOL0     O54804   5.675   1.517   1.715  0.6256 -1.0583 -0.5523
  416MOL0     C54805   5.562   1.513   1.788 -0.7536  0.2439  0.4860
  416MOL0     C54806   5.470   1.615   1.745  0.7890  0.5605  0.1748
  416MOL0     C54807   5.351   1.632   1.816  0.1660 -0.3349  0.0258
  416MOL0     C54808   5.321   1.554   1.925  0.3722 -0.0348  0.0772
  416MOL0     C54809   5.194   1.583   2.009 -0.4109  0.2967 -0.5245
  416MOL0     O54810   5.135   1.702   1.995  0.5624  0.5238 -0.0083
  416MOL0     C54811   5.038   1.748   2.086 -0.3829  0.0271  0.0085
  416MOL0     C54812   4.917   1.684   2.114 -0.2656  0.0110 -0.2600
  416MOL0     C54813   4.834   1.750   2.212  0.1337  0.4901  0.3414
  416MOL0     C54814   4.869   1.870   2.269 -0.4507 -0.3093  0.8614
  416MOL0     O54815   4.782   1.949   2.340 -0.7015 -0.0858  0.7192
  416MOL0     C54816   4.789   1.957   2.483  0.0754  0.2878  0.6481
  416MOL0     C54817   4.725   2.083   2.537 -1.0296 -0.3182  0.1092
  416MOL0     C54818   4.811   2.208   2.499  0.0257  1.1892  0.4199
  416MOL0     C54819   4.765   2.329   2.577  0.0764  0.9688 -0.3169
  416MOL0     C54820   4.826   2.450   2.514  0.7835 -0.1202 -0.2426
  416MOL0     C54821   4.975   2.450   2.486  1.0282 -0.4690 -0.7306
  416MOL0     C54822   5.034   2.588   2.531 -0.4020  0.8526  0.1146
  416MOL0     C54823   5.187   2.599   2.536  0.3892  0.9179  0.0974
  416MOL0    Cl54824   5.262   2.570   2.372  0.0075 -0.5529 -0.5517
  416MOL0     C54825   4.999   1.927   2.239 -0.2726 -0.0371  0.2807
  416MOL0     C54826   5.085   1.862   2.152 -0.5789 -0.0857  0.2322
  416MOL0     O54827   5.154   1.494   2.087  0.5392  0.5664 -0.2664
  416MOL0     C54828   5.404   1.446   1.965  0.0939 -0.6651 -0.5797
  416MOL0     C54829   5.523   1.421   1.893 -0.0596 -0.7573  0.2761
  416MOL0     N54830   6.206   1.189   1.958  0.3096  0.8721 -1.5694
  416MOL0     N54831   6.334   1.155   1.979  0.1668 -0.0291  0.3207
  416MOL0     C54832   7.552   1.069   2.307  0.0808  0.0223  0.1689
  416MOL0     C54833   7.628   0.948   2.301  0.1054  0.2373 -0.6487
  416MOL0     C54834   8.008   0.698   2.291  0.6860 -0.4010  0.0542
  416MOL0     C54835   8.017   0.633   2.164  0.3108 -0.1498 -0.4377
  416MOL0     C54836   8.095   0.524   2.148 -1.6332 -0.7445 -0.1831
  416MOL0     C54837   8.162   0.475   2.252  0.6334  0.1586 -0.3094
  416MOL0     O54838   8.242   0.367   2.228 -0.1891 -0.0374  0.1753
  416MOL0     C54839   8.283   0.276   2.342 -0.5738 -0.3899  0.1440
  416MOL0     C54840   8.340   0.142   2.281 -0.5916 -0.4035 -0.3389
  416MOL0     C54841   8.476   0.157   2.211 -0.6026  0.0949 -0.1751
  416MOL0     C54842   8.592   0.186   2.312  0.4802 -0.0416  0.8808
  416MOL0     C54843   8.722   0.195   2.246 -1.1488  0.5693 -0.2499
  416MOL0     C54844   8.838   0.204   2.203  0.3421  0.1388 -0.3430
  416MOL0     C54845   8.162   0.541   2.377 -0.2724  0.2962  0.1162
  416MOL0     C54846   8.088   0.651   2.394  0.5006 -0.2878  0.4275
  416MOL0     H54847   7.822   1.029   2.042 -0.5111 -1.0895 -1.5081
  416MOL0     H54848   7.638   1.215   2.026 -0.7718  2.8168  1.9974
  416MOL0     H54849   7.277   1.339   2.241  1.3629 -0.5404 -0.0570
  416MOL0     H54850   7.313   1.183   2.297  1.2810 -1.6669 -0.6734
  416MOL0     H54851   7.292   1.080   2.070 -0.1953 -1.0755  3.8896
  416MOL0     H54852   7.281   1.242   1.998  0.2635  1.6001  0.6070
  416MOL0     H54853   7.071   1.274   2.144 -3.1903 -0.4485 -0.2722
  416MOL0     H54854   7.083   1.113   2.195  1.0065  0.4554  1.3358
  416MOL0     H54855   7.053   1.171   1.898 -1.0105 -1.8299 -2.1213
  416MOL0     H54856   7.067   1.025   1.972  2.2370  1.0091 -0.2122
  416MOL0     H54857   6.855   1.201   2.097 -0.4305  0.9539 -0.2782
  416MOL0     H54858   6.859   1.023   2.085 -0.0863 -0.4446 -1.3921
  416MOL0     H54859   6.805   1.029   1.857  1.6036  0.1200  1.5780
  416MOL0     H54860   6.819   1.205   1.841  0.8744  0.4081  1.0070
  416MOL0     H54861   6.603   1.067   2.013 -0.6162  0.5370  0.9395
  416MOL0     H54862   6.632   1.233   2.010 -2.4234 -0.5848  1.2653
  416MOL0     H54863   6.519   1.087   1.772 -3.5029 -0.3959  1.0147
  416MOL0     H54864   6.577   1.259   1.771  0.3784 -2.2434 -2.0872
  416MOL0     H54865   6.351   1.337   1.720  0.1359  0.2506 -0.0126
  416MOL0     H54866   6.045   1.271   1.707  0.3190  1.3536 -0.4652
  416MOL0     H54867   6.081   1.431   1.747  0.4252  0.8372  0.0899
  416MOL0     H54868   6.004   1.395   1.992  1.2267  1.2935 -0.7035
  416MOL0     H54869   5.911   1.256   1.934  0.6709  0.5710  1.4241
  416MOL0     H54870   5.780   1.464   1.950  2.1608  3.1782  1.4958
  416MOL0     H54871   5.897   1.556   1.863  1.0837 -0.3165  1.3679
  416MOL0     H54872   5.755   1.323   1.729  0.9213  0.2794 -2.7138
  416MOL0     H54873   5.850   1.443   1.652  0.5877  1.2425  1.2098
  416MOL0     H54874   5.498   1.666   1.654 -0.1915  1.0881  0.1568
  416MOL0     H54875   5.283   1.709   1.782 -0.1331 -0.6839 -0.1763
  416MOL0     H54876   4.901   1.585   2.071  2.8941 -1.1376  0.8650
  416MOL0     H54877   4.739   1.702   2.237  0.8582  0.2937  3.0539
  416MOL0     H54878   4.894   1.953   2.516  0.3356  0.9550 -0.0781
  416MOL0     H54879   4.735   1.871   2.524  2.0299 -0.9965  0.6522
  416MOL0     H54880   4.710   2.067   2.644 -2.3644 -2.6574 -0.3658
  416MOL0     H54881   4.622   2.092   2.500 -1.2561 -0.1872  0.7647
  416MOL0     H54882   4.801   2.228   2.392  1.5722 -1.3770 -0.2758
  416MOL0     H54883   4.916   2.190   2.524 -0.5019 -1.0979  1.2435
  416MOL0     H54884   4.656   2.338   2.571 -0.0833  0.4151  1.2350
  416MOL0     H54885   4.789   2.313   2.682 -0.0829  0.1020 -0.4040
  416MOL0     H54886   4.785   2.529   2.576 -2.6976  0.7246 -3.2799
  416MOL0     H54887   4.766   2.473   2.425 -0.0736 -1.2826  0.0104
  416MOL0     H54888   4.986   2.428   2.380 -2.5686  1.8133 -1.7300
  416MOL0     H54889   5.021   2.370   2.545  0.6900 -0.8132 -0.9373
  416MOL0     H54890   5.005   2.663   2.457 -2.2670  1.6570  1.5720
  416MOL0     H54891   4.995   2.622   2.627 -2.3050 -1.2286  0.1846
  416MOL0     H54892   5.210   2.523   2.611 -2.5792  2.1023  2.4031
  416MOL0     H54893   5.217   2.700   2.568  1.4447  0.8493 -0.6172
  416MOL0     H54894   5.024   2.021   2.286 -1.4314  0.1827  0.4719
  416MOL0     H54895   5.178   1.903   2.117 -1.0301  0.3844 -0.4314
  416MOL0     H54896   5.373   1.383   2.048  2.1395 -2.2591 -0.9563
  416MOL0     H54897   5.583   1.331   1.902  0.1817 -0.7415 -0.9473
  416MOL0     H54898   7.492   1.076   2.397  0.2222  2.1882  0.1352
  416MOL0     H54899   7.616   0.871   2.376  1.3460  1.1997  0.6016
  416MOL0     H54900   7.963   0.653   2.072 -0.2597 -3.1512 -0.8644
  416MOL0     H54901   8.104   0.461   2.059 -2.1808 -1.2013  0.0858
  416MOL0     H54902   8.206   0.258   2.417  0.8889 -1.1909  1.5173
  416MOL0     H54903   8.359   0.323   2.405 -3.1296 -1.6495  4.6384
  416MOL0     H54904   8.361   0.063   2.354  0.0925  1.2799  1.3765
  416MOL0     H54905   8.259   0.119   2.212 -0.4554 -0.4125 -0.4955
  416MOL0     H54906   8.481   0.237   2.137  0.1435  1.4676  1.2983
  416MOL0     H54907   8.487   0.067   2.150  0.0589  1.0663 -1.5301
  416MOL0     H54908   8.581   0.282   2.363  0.0341 -0.3563  1.3883
  416MOL0     H54909   8.585   0.110   2.391  2.3863 -1.9019 -0.6317
  416MOL0     H54910   8.937   0.214   2.164  0.3398  0.9694 -0.1413
  416MOL0     H54911   8.208   0.497   2.465 -0.6874 -0.9313 -0.2541
  416MOL0     H54912   8.090   0.701   2.490  2.9334  0.0807  0.2618
  417MOL0     O54913   8.932   1.869   3.333  0.7534 -0.2253 -0.5948
  417MOL0     C54914   8.921   1.909   3.454  0.3698  0.4244  0.5119
  417MOL0     O54915   8.801   1.955   3.514 -0.2751  0.2108 -0.3159
  417MOL0     C54916   8.686   1.976   3.439 -0.3170  0.2126 -0.6552
  417MOL0     C54917   8.615   2.078   3.499 -0.1674 -0.1952  0.4211
  417MOL0     C54918   8.494   2.127   3.442 -0.2008 -0.1460 -0.0415
  417MOL0     C54919   8.453   2.074   3.315 -0.3449  0.0098 -0.4920
  417MOL0     O54920   8.335   2.113   3.258  0.0638 -0.1301  0.0767
  417MOL0     C54921   8.223   2.133   3.349 -0.3923 -1.3106 -0.2312
  417MOL0     C54922   8.104   2.074   3.274  1.3376  0.4048 -0.1452
  417MOL0     C54923   8.061   2.168   3.172  0.1092 -0.7498  0.1057
  417MOL0     C54924   7.922   2.136   3.128 -0.4382  0.1199  0.2106
  417MOL0     C54925   7.863   2.210   3.002 -0.0669 -0.1727 -0.3568
  417MOL0     C54926   7.866   2.360   3.008  0.4317  0.3087  0.4718
  417MOL0     C54927   7.762   2.426   3.087  0.1772 -0.0930 -0.4858
  417MOL0     C54928   7.754   2.572   3.069 -0.3392 -0.4331  0.5133
  417MOL0     N54929   7.688   2.613   2.946  0.1839 -0.2447 -0.0951
  417MOL0     C54930   7.739   2.621   2.819  0.7897 -0.8743  0.8515
  417MOL0     C54931   7.638   2.676   2.748 -0.3774 -0.2383 -0.0916
  417MOL0     C54932   7.653   2.713   2.600 -0.8161  0.3217 -0.0742
  417MOL0     C54933   7.515   2.746   2.534 -0.4088 -0.3612  0.1359
  417MOL0     C54934   7.508   2.898   2.519  0.5940  0.2512 -0.0375
  417MOL0     C54935   7.367   2.951   2.462  0.2115  0.3302  0.5562
  417MOL0     O54936   7.261   2.900   2.545  0.0280 -0.3657 -1.3850
  417MOL0     C54937   7.127   2.911   2.508 -0.4822 -0.8120 -0.1722
  417MOL0     C54938   7.044   2.835   2.589 -0.2873 -0.4626  0.3374
  417MOL0     C54939   6.898   2.841   2.570 -0.5517 -0.1732  0.2607
  417MOL0     C54940   6.842   2.916   2.466  0.2955  0.2556  0.4059
  417MOL0     C54941   6.697   2.935   2.454 -0.1651  0.6343 -0.5101
  417MOL0     O54942   6.643   3.000   2.351  0.2256  0.5655 -0.1038
  417MOL0     C54943   6.506   2.999   2.346  0.0492 -0.7924  0.2429
  417MOL0     C54944   6.430   3.108   2.398 -0.0699  0.6342  0.4502
  417MOL0     C54945   6.289   3.092   2.405 -0.3777 -0.1007 -0.4431
  417MOL0     C54946   6.223   2.976   2.359 -0.0346  0.2277  0.5464
  417MOL0     O54947   6.089   2.963   2.368 -0.3582  0.1885 -0.2241
  417MOL0     C54948   6.008   3.078   2.417 -0.9258 -0.0532 -1.0892
  417MOL0     C54949   5.852   3.038   2.415 -0.5134 -0.5599 -0.0705
  417MOL0     C54950   5.755   3.134   2.490 -0.2831  0.5672  0.0122
  417MOL0     C54951   5.788   3.140   2.642 -0.3908 -0.0450  0.5192
  417MOL0     C54952   5.694   3.245   2.704 -0.2463 -0.0944 -0.9115
  417MOL0     C54953   5.547   3.239   2.686 -0.2682 -0.7301 -0.0292
  417MOL0     C54954   5.489   3.120   2.757 -0.1676  0.0594 -0.0757
  417MOL0     C54955   5.335   3.127   2.736 -0.0598  0.8558 -0.5571
  417MOL0    Cl54956   5.305   3.006   2.622  0.3524  0.0009  0.2588
  417MOL0     C54957   6.300   2.876   2.300 -0.1299  0.2034  0.2123
  417MOL0     C54958   6.444   2.888   2.294 -0.0618 -0.3364 -0.3247
  417MOL0     O54959   6.631   2.904   2.557  0.1189 -0.3220 -0.6348
  417MOL0     C54960   6.927   2.995   2.382 -0.6682  0.7068 -0.1541
  417MOL0     C54961   7.077   2.986   2.405  0.8737  0.4541  0.5311
  417MOL0     N54962   7.532   2.708   2.829 -0.1762 -0.4574 -0.3124
  417MOL0     N54963   7.561   2.668   2.949 -0.6782  0.2033  0.6213
  417MOL0     C54964   8.533   1.972   3.260  0.3132 -0.5396  0.2149
  417MOL0     C54965   8.646   1.925   3.317 -0.3380 -0.0511  1.2078
  417MOL0     C54966   9.021   1.860   3.546 -0.8316  0.4182 -0.6712
  417MOL0     C54967   9.127   1.778   3.498  0.2081 -0.1438 -0.2849
  417MOL0     C54968   9.225   1.732   3.590  0.4282  0.2094 -0.6162
  417MOL0     C54969   9.216   1.753   3.727 -0.1440  0.5282  0.0523
  417MOL0     O54970   9.316   1.698   3.800  0.0650  0.0220 -0.4939
  417MOL0     C54971   9.316   1.727   3.941  0.5083 -0.3336  0.0803
  417MOL0     C54972   9.359   1.873   3.976  0.4278 -0.2787  0.1627
  417MOL0     C54973   9.306   1.938   4.106  0.0826  0.2408  0.7550
  417MOL0     C54974   9.352   1.870   4.236 -0.4933 -0.6800 -0.1070
  417MOL0     C54975   9.493   1.900   4.262 -0.5391 -0.8116 -0.3925
  417MOL0     C54976   9.615   1.931   4.278 -0.5246  0.3326  0.0881
  417MOL0     C54977   9.116   1.841   3.770  0.5995  0.0755  0.8952
  417MOL0     C54978   9.021   1.895   3.677  0.0372  0.4975 -0.9065
  417MOL0     H54979   8.666   2.127   3.581 -1.2800 -0.6745  1.4294
  417MOL0     H54980   8.452   2.221   3.476 -0.6491  0.0511 -1.1069
  417MOL0     H54981   8.204   2.237   3.375 -1.1146 -1.7959  1.2602
  417MOL0     H54982   8.238   2.080   3.443 -0.4173  0.0699  0.5754
  417MOL0     H54983   8.028   2.070   3.352  0.7557  0.4435 -0.7012
  417MOL0     H54984   8.122   1.970   3.243 -3.2453 -0.5452 -0.2767
  417MOL0     H54985   8.135   2.164   3.092 -0.2316 -0.4256 -0.2267
  417MOL0     H54986   8.059   2.274   3.201 -1.1984 -0.5791 -0.5356
  417MOL0     H54987   7.916   2.029   3.106  0.1620  0.3052 -0.9518
  417MOL0     H54988   7.854   2.153   3.211  0.0252  0.7120  0.4816
  417MOL0     H54989   7.763   2.173   2.979 -1.0399 -0.0293  3.0086
  417MOL0     H54990   7.918   2.180   2.912 -0.4424  2.7598 -1.6500
  417MOL0     H54991   7.850   2.390   2.904  0.7917  4.0945  1.3579
  417MOL0     H54992   7.964   2.399   3.035  0.9803 -0.8425  0.1800
  417MOL0     H54993   7.663   2.383   3.069  0.8172 -1.8574  0.0008
  417MOL0     H54994   7.776   2.393   3.190  0.1252  0.2638 -0.3615
  417MOL0     H54995   7.858   2.608   3.072  0.5459 -2.2841 -2.7906
  417MOL0     H54996   7.702   2.624   3.150  0.3559 -2.0496  2.0631
  417MOL0     H54997   7.837   2.593   2.782  0.3222  0.2799 -1.4270
  417MOL0     H54998   7.685   2.623   2.547 -0.7076 -1.0496  2.2034
  417MOL0     H54999   7.726   2.795   2.593  4.5023 -3.8898 -0.0121
  417MOL0     H55000   7.430   2.712   2.594 -0.8768  3.2006  1.7593
  417MOL0     H55001   7.515   2.698   2.436 -1.6135 -0.7963  0.3201
  417MOL0     H55002   7.517   2.943   2.618 -0.0550  0.7383 -0.1897
  417MOL0     H55003   7.584   2.949   2.459 -1.6366  0.6283 -2.7386
  417MOL0     H55004   7.358   2.906   2.363  0.8155  1.1249  0.1357
  417MOL0     H55005   7.368   3.060   2.464 -0.5746  0.4014 -1.2693
  417MOL0     H55006   7.077   2.769   2.668 -3.1102  0.5970  2.5583
  417MOL0     H55007   6.831   2.792   2.641 -1.9032  1.4842  0.1816
  417MOL0     H55008   6.478   3.200   2.430 -3.0317  1.0181  4.7067
  417MOL0     H55009   6.233   3.179   2.438  0.5868  0.1579  0.5859
  417MOL0     H55010   6.027   3.167   2.355 -3.9728  0.7504 -1.0326
  417MOL0     H55011   6.049   3.088   2.517  3.0840 -0.6324 -2.4890
  417MOL0     H55012   5.843   2.940   2.462  1.6146 -1.1075 -0.6909
  417MOL0     H55013   5.815   3.034   2.313  0.6207  0.8236 -0.5712
  417MOL0     H55014   5.651   3.100   2.482 -0.0889  0.0638 -0.4437
  417MOL0     H55015   5.756   3.234   2.446 -0.7159  1.6830  2.3621
  417MOL0     H55016   5.757   3.046   2.688 -0.5798  0.8681  2.3265
  417MOL0     H55017   5.893   3.163   2.663 -0.1948 -0.4108 -0.0186
  417MOL0     H55018   5.713   3.344   2.661 -1.9370  0.3589 -0.7044
  417MOL0     H55019   5.725   3.254   2.809  0.9241 -0.7425 -1.1882
  417MOL0     H55020   5.530   3.246   2.578  1.6665  1.2721 -0.2738
  417MOL0     H55021   5.495   3.325   2.728 -3.5126 -2.6688  0.3041
  417MOL0     H55022   5.524   3.021   2.728 -0.2762 -0.0247  0.0754
  417MOL0     H55023   5.524   3.126   2.861  2.8332  3.0052 -1.0800
  417MOL0     H55024   5.302   3.226   2.705  1.5166  2.0205  1.2255
  417MOL0     H55025   5.281   3.109   2.829 -0.7397  0.5053 -1.0168
  417MOL0     H55026   6.260   2.795   2.240  1.4387  0.6506 -1.5705
  417MOL0     H55027   6.504   2.809   2.251  1.5357 -0.7531  2.4604
  417MOL0     H55028   6.889   3.051   2.298 -2.2463  1.1643  0.8278
  417MOL0     H55029   7.148   3.039   2.342  1.7452 -1.5976 -0.3039
  417MOL0     H55030   8.507   1.936   3.161  1.5267 -1.3321  0.1598
  417MOL0     H55031   8.703   1.850   3.263  1.7362  1.5174  1.1223
  417MOL0     H55032   9.136   1.760   3.391  2.7177  3.3669 -0.7970
  417MOL0     H55033   9.310   1.675   3.554  0.3219  0.4580 -1.2804
  417MOL0     H55034   9.391   1.662   3.988 -0.3515 -1.3310  0.1054
  417MOL0     H55035   9.222   1.711   3.994  0.5140 -0.4881  0.0440
  417MOL0     H55036   9.466   1.854   3.981  0.4150 -0.1470  2.7654
  417MOL0     H55037   9.333   1.948   3.901  0.8412  2.8910  2.9090
  417MOL0     H55038   9.197   1.924   4.100  0.3980 -1.6817 -1.6468
  417MOL0     H55039   9.321   2.046   4.100  2.2098 -0.0886 -0.8312
  417MOL0     H55040   9.288   1.882   4.324  2.4878 -4.2105  2.8884
  417MOL0     H55041   9.368   1.763   4.220 -1.8452 -0.4602 -3.9524
  417MOL0     H55042   9.719   1.955   4.280 -0.1143 -1.3118  1.2786
  417MOL0     H55043   9.102   1.874   3.873 -4.5065  0.4916  0.3366
  417MOL0     H55044   8.952   1.960   3.730  1.8404  0.7095  1.3178
  418MOL0     O55045   8.856   3.607   2.798  0.2563 -0.0402  0.0647
  418MOL0     C55046   8.879   3.727   2.786 -0.6682 -0.6182 -0.0195
  418MOL0     O55047   8.798   3.810   2.719  0.6665 -0.2468 -0.0520
  418MOL0     C55048   8.680   3.762   2.660 -0.7230 -0.1978 -0.0467
  418MOL0     C55049   8.576   3.851   2.648 -0.7208  0.8935  0.0962
  418MOL0     C55050   8.453   3.819   2.578  0.1535  0.1701  0.0098
  418MOL0     C55051   8.444   3.695   2.512 -0.4701  0.1612 -0.5286
  418MOL0     O55052   8.333   3.661   2.442 -0.2291  0.5965  0.5082
  418MOL0     C55053   8.258   3.771   2.389  0.3243 -0.4921  0.0078
  418MOL0     C55054   8.141   3.744   2.294 -0.3451 -0.1722  0.8037
  418MOL0     C55055   8.011   3.688   2.361  0.5781  0.1290  0.8622
  418MOL0     C55056   7.904   3.652   2.252 -0.0918  0.1809  0.2227
  418MOL0     C55057   7.765   3.618   2.319  0.4398  0.8396 -0.0106
  418MOL0     C55058   7.661   3.627   2.211 -0.3469 -0.1573 -0.4669
  418MOL0     C55059   7.522   3.577   2.265 -0.2970 -0.2021  0.2311
  418MOL0     C55060   7.415   3.578   2.151 -0.6044  0.4798 -0.1627
  418MOL0     N55061   7.381   3.714   2.107 -0.0106 -0.0284 -0.3308
  418MOL0     C55062   7.393   3.832   2.187 -0.6088 -0.2439 -0.0990
  418MOL0     C55063   7.410   3.931   2.099 -0.5025  0.2462  0.2929
  418MOL0     C55064   7.422   4.079   2.129  0.2917  0.8637 -0.0298
  418MOL0     C55065   7.539   4.104   2.224  0.0196  0.9800 -0.4905
  418MOL0     C55066   7.662   4.068   2.151 -0.6121 -0.3022  0.1653
  418MOL0     C55067   7.786   4.087   2.237  0.0651 -0.6100  0.5935
  418MOL0     O55068   7.905   4.085   2.149  0.6222  0.3091 -0.5364
  418MOL0     C55069   8.028   4.103   2.214  0.3480 -0.2334  0.2310
  418MOL0     C55070   8.039   4.137   2.350 -0.3439  0.2917  0.5553
  418MOL0     C55071   8.165   4.153   2.411 -0.7897  0.3893 -0.0530
  418MOL0     C55072   8.280   4.140   2.326  0.2085 -0.1378 -0.8324
  418MOL0     C55073   8.411   4.160   2.397  0.1457  1.0845 -0.8977
  418MOL0     O55074   8.519   4.196   2.325  0.8903 -0.2328 -0.4795
  418MOL0     C55075   8.640   4.204   2.379  0.0937 -0.6241  0.4411
  418MOL0     C55076   8.711   4.324   2.377 -0.3057 -0.3820 -0.1396
  418MOL0     C55077   8.837   4.343   2.443 -0.2056 -0.2816  1.0445
  418MOL0     C55078   8.886   4.240   2.516 -0.0537  0.2041 -0.4045
  418MOL0     O55079   9.006   4.240   2.576  0.2244 -0.2043 -0.2664
  418MOL0     C55080   9.068   4.365   2.602  0.2182  0.5302  0.6317
  418MOL0     C55081   9.192   4.331   2.673 -0.4723 -0.1688 -0.1547
  418MOL0     C55082   9.251   4.452   2.747 -0.0333  0.4288  0.5708
  418MOL0     C55083   9.376   4.415   2.821  0.1165 -0.0055  0.9681
  418MOL0     C55084   9.440   4.525   2.906 -0.5022 -0.4978  0.9695
  418MOL0     C55085   9.594   4.487   2.924 -0.0851 -0.0202 -0.2784
  418MOL0     C55086   9.606   4.367   3.019  0.3679 -0.3780 -0.3338
  418MOL0     C55087   9.756   4.328   3.026 -0.2760 -0.3851 -0.0545
  418MOL0    Cl55088   9.829   4.454   3.123 -0.3810  0.0327  0.3900
  418MOL0     C55089   8.822   4.116   2.519 -0.1895  1.0364 -0.2174
  418MOL0     C55090   8.702   4.096   2.451  0.1153 -0.5927 -0.2563
  418MOL0     O55091   8.415   4.136   2.519 -0.3731  0.5793  0.5219
  418MOL0     C55092   8.270   4.119   2.190  0.5097 -1.1245  0.2533
  418MOL0     C55093   8.141   4.100   2.131 -0.5665 -1.3413  0.6631
  418MOL0     N55094   7.419   3.881   1.970 -0.1921  0.6855  0.1458
  418MOL0     N55095   7.401   3.748   1.978 -0.1531  0.4792  0.3885
  418MOL0     C55096   8.557   3.614   2.502 -0.6423  0.1720  0.8082
  418MOL0     C55097   8.669   3.646   2.579 -0.2244  0.9399 -0.1677
  418MOL0     C55098   9.002   3.787   2.852  0.0272 -0.1289  0.0403
  418MOL0     C55099   9.090   3.709   2.931 -0.8524 -0.2383 -0.0224
  418MOL0     C55100   9.192   3.771   3.006 -0.3656 -0.3583 -0.4975
  418MOL0     C55101   9.208   3.912   3.004  0.2082  1.1722  0.4349
  418MOL0     O55102   9.310   3.982   3.073  0.4055  0.4760  0.2705
  418MOL0     C55103   9.395   3.917   3.167 -0.2645  0.1299  0.3421
  418MOL0     C55104   9.415   4.018   3.277 -0.2032 -0.0717 -0.1854
  418MOL0     C55105   9.538   4.105   3.264  0.2873 -0.5423  0.1891
  418MOL0     C55106   9.544   4.203   3.390 -0.1586 -0.4700 -0.7420
  418MOL0     C55107   9.672   4.274   3.399 -1.1189 -0.3381  0.5337
  418MOL0     C55108   9.778   4.346   3.421 -0.1785  0.2227  0.1853
  418MOL0     C55109   9.125   3.987   2.919 -0.9620 -0.4317  0.1855
  418MOL0     C55110   9.026   3.931   2.840  0.9410  0.5726 -0.3593
  418MOL0     H55111   8.571   3.943   2.705 -0.0642  0.4460  0.9000
  418MOL0     H55112   8.364   3.879   2.593  0.7283  0.8848  0.5776
  418MOL0     H55113   8.330   3.836   2.339 -0.6292 -0.1708 -0.9882
  418MOL0     H55114   8.205   3.826   2.468 -1.8830  0.0689 -1.7446
  418MOL0     H55115   8.175   3.661   2.231 -0.9629  0.3111 -0.1952
  418MOL0     H55116   8.128   3.825   2.222 -0.5618 -0.4056  0.5758
  418MOL0     H55117   7.962   3.758   2.429  0.0246 -0.5214  1.1501
  418MOL0     H55118   8.055   3.601   2.411  3.0429  0.4204 -0.6296
  418MOL0     H55119   7.898   3.735   2.181  0.0898 -0.1258 -0.1569
  418MOL0     H55120   7.953   3.569   2.200  2.0167  1.7044 -0.3673
  418MOL0     H55121   7.738   3.687   2.399  1.0733  0.2872  0.6931
  418MOL0     H55122   7.768   3.520   2.369 -0.2086  1.4698  1.3108
  418MOL0     H55123   7.689   3.549   2.140  1.2676 -1.0930  1.0979
  418MOL0     H55124   7.653   3.727   2.169  1.4535 -0.0116 -0.5527
  418MOL0     H55125   7.542   3.477   2.305  1.4438 -0.9656 -2.3115
  418MOL0     H55126   7.484   3.642   2.345 -1.6917  0.4225 -0.8877
  418MOL0     H55127   7.328   3.515   2.174  1.3148 -1.6185  2.0541
  418MOL0     H55128   7.456   3.521   2.067  0.6459 -0.0932  0.7914
  418MOL0     H55129   7.400   3.840   2.295  0.0532 -0.3314 -0.1307
  418MOL0     H55130   7.344   4.121   2.192 -0.5059  0.4994 -0.7516
  418MOL0     H55131   7.420   4.140   2.038 -0.1534  0.0914 -0.5472
  418MOL0     H55132   7.533   4.044   2.315 -2.1507  0.2929 -1.0299
  418MOL0     H55133   7.533   4.206   2.263  0.0636 -0.2442  3.0875
  418MOL0     H55134   7.666   3.968   2.107 -2.4008 -0.9574  1.3611
  418MOL0     H55135   7.662   4.127   2.059 -0.9565 -1.3616 -0.5307
  418MOL0     H55136   7.782   4.017   2.321  0.6891  1.9360  2.8780
  418MOL0     H55137   7.777   4.186   2.282 -2.4216  0.0076 -1.0645
  418MOL0     H55138   7.953   4.136   2.416 -0.1772  2.1887  0.8708
  418MOL0     H55139   8.176   4.179   2.516  1.3711 -3.1974  0.7623
  418MOL0     H55140   8.669   4.400   2.312  1.8966 -0.6837 -2.0578
  418MOL0     H55141   8.889   4.435   2.418  2.0754 -2.1887 -1.9680
  418MOL0     H55142   8.999   4.429   2.658 -1.4831  0.2520 -1.0352
  418MOL0     H55143   9.079   4.426   2.512 -2.2247  1.3081  0.7969
  418MOL0     H55144   9.271   4.281   2.615 -0.9139  0.3476 -1.2193
  418MOL0     H55145   9.167   4.256   2.748  0.4521 -0.3470 -0.0048
  418MOL0     H55146   9.182   4.489   2.824  1.5241 -0.7073  2.5890
  418MOL0     H55147   9.269   4.538   2.682  2.4753 -1.0699 -0.8543
  418MOL0     H55148   9.355   4.334   2.892 -0.5838 -0.2296  0.5039
  418MOL0     H55149   9.453   4.380   2.752  1.0543  2.0993  0.8798
  418MOL0     H55150   9.393   4.539   3.004 -1.2392  2.3565  0.2959
  418MOL0     H55151   9.434   4.614   2.843  0.5199 -0.4730  0.8987
  418MOL0     H55152   9.637   4.579   2.963 -0.1311 -0.3353  0.5184
  418MOL0     H55153   9.628   4.467   2.821 -2.6358 -1.3624 -0.9571
  418MOL0     H55154   9.565   4.396   3.117  0.0666 -0.7489 -0.3469
  418MOL0     H55155   9.546   4.283   2.982 -1.6270  1.5798 -1.7444
  418MOL0     H55156   9.810   4.313   2.933  2.5865 -1.3048  1.6260
  418MOL0     H55157   9.774   4.231   3.075  0.3098 -0.0075  0.4956
  418MOL0     H55158   8.852   4.034   2.584 -0.5294  1.9121  1.0788
  418MOL0     H55159   8.656   3.998   2.454  2.4947 -1.7672  2.9004
  418MOL0     H55160   8.362   4.115   2.133  1.1479 -1.3485  1.2842
  418MOL0     H55161   8.120   4.071   2.029  0.7977  0.5910 -0.2317
  418MOL0     H55162   8.557   3.525   2.440  0.5243  0.5551  0.2314
  418MOL0     H55163   8.751   3.577   2.565 -1.6369 -0.7791 -0.2498
  418MOL0     H55164   9.080   3.602   2.920  0.9357 -0.3752 -0.6125
  418MOL0     H55165   9.275   3.712   3.041 -1.0804 -1.2009 -0.1848
  418MOL0     H55166   9.490   3.895   3.117  0.9238  2.3157  1.5000
  418MOL0     H55167   9.359   3.822   3.206 -0.5194  0.6723  1.4777
  418MOL0     H55168   9.328   4.084   3.288 -0.9671 -0.6927 -2.1743
  418MOL0     H55169   9.413   3.971   3.376  0.6446 -2.4854 -1.2510
  418MOL0     H55170   9.551   4.164   3.173 -1.0531  1.9492  1.4949
  418MOL0     H55171   9.620   4.034   3.277  0.7470  0.0709  0.6612
  418MOL0     H55172   9.461   4.274   3.392 -0.1765 -0.4493  2.2786
  418MOL0     H55173   9.537   4.145   3.482  4.0642  1.1778  0.9235
  418MOL0     H55174   9.862   4.412   3.422 -0.7111  0.9946  2.8719
  418MOL0     H55175   9.141   4.094   2.919 -0.7024 -0.4704 -0.5924
  418MOL0     H55176   8.963   3.990   2.774 -0.2904  0.2722  0.5180
  419MOL0     O55177   6.850   6.546   2.564 -0.4205 -0.3209  0.3129
  419MOL0     C55178   6.902   6.477   2.480 -0.2482 -0.3283  0.2336
  419MOL0     O55179   6.850   6.430   2.367 -0.0694  0.0526 -0.4684
  419MOL0     C55180   6.714   6.463   2.344 -0.5607 -1.3630 -0.3897
  419MOL0     C55181   6.611   6.369   2.362  0.0818 -0.1822 -0.4736
  419MOL0     C55182   6.482   6.386   2.340 -0.1628 -0.6692  0.0226
  419MOL0     C55183   6.444   6.518   2.293  0.4608 -0.0086 -0.1237
  419MOL0     O55184   6.308   6.545   2.263 -0.6899  0.5394 -0.0597
  419MOL0     C55185   6.214   6.436   2.272 -0.1002 -0.1496 -0.6410
  419MOL0     C55186   6.081   6.505   2.231 -0.4934  0.9570 -0.3807
  419MOL0     C55187   5.966   6.429   2.310 -1.2207 -0.3870  0.0778
  419MOL0     C55188   5.831   6.490   2.284 -1.2844 -0.0827 -0.4471
  419MOL0     C55189   5.743   6.435   2.400  0.0057  0.4422 -1.0028
  419MOL0     C55190   5.591   6.438   2.374  0.5825 -0.2236 -0.2919
  419MOL0     C55191   5.543   6.585   2.356 -0.8464  0.0338 -0.5092
  419MOL0     C55192   5.390   6.607   2.313 -0.3499 -0.0081 -0.0195
  419MOL0     N55193   5.346   6.500   2.225 -0.2855 -0.4744 -1.0775
  419MOL0     C55194   5.257   6.401   2.269  0.3187  0.8347 -0.1392
  419MOL0     C55195   5.244   6.302   2.173 -0.4189 -0.0833  0.2226
  419MOL0     C55196   5.138   6.195   2.167 -0.3464  0.2645  0.9365
  419MOL0     C55197   5.065   6.192   2.031 -0.1956 -0.2946 -0.3606
  419MOL0     C55198   4.940   6.102   2.029 -0.1248  0.3143 -0.6744
  419MOL0     C55199   4.889   6.112   1.887  0.5727 -0.6057  0.8802
  419MOL0     O55200   4.749   6.128   1.877 -0.2599  0.0522 -0.3214
  419MOL0     C55201   4.673   6.018   1.899 -0.2090 -1.0541 -0.1259
  419MOL0     C55202   4.537   6.053   1.894 -0.1362  0.4461  0.0351
  419MOL0     C55203   4.438   5.954   1.922  0.0459 -1.0009 -0.0616
  419MOL0     C55204   4.473   5.828   1.968  0.2122  0.2593 -0.1878
  419MOL0     C55205   4.373   5.738   2.039  0.5184  0.4031  0.2282
  419MOL0     O55206   4.260   5.797   2.085  1.3202 -0.4410  0.1303
  419MOL0     C55207   4.174   5.727   2.169  0.6276 -0.3683 -0.2563
  419MOL0     C55208   4.217   5.658   2.283 -0.6645  0.7311  0.2773
  419MOL0     C55209   4.120   5.585   2.359 -0.5706 -0.1149  0.4884
  419MOL0     C55210   3.980   5.604   2.334 -0.3361 -0.4277  0.3544
  419MOL0     O55211   3.884   5.526   2.384  0.5700 -0.4162  0.1014
  419MOL0     C55212   3.908   5.469   2.511  0.2080 -0.7219  0.7063
  419MOL0     C55213   3.778   5.399   2.551 -0.3223  0.2287 -0.2252
  419MOL0     C55214   3.736   5.280   2.463 -0.7394  0.6916  0.3292
  419MOL0     C55215   3.629   5.199   2.518  0.7113 -0.2299  0.2006
  419MOL0     C55216   3.624   5.159   2.668  0.6439 -0.3705  0.6591
  419MOL0     C55217   3.519   5.046   2.686 -0.3690 -0.2913  0.5616
  419MOL0     C55218   3.504   4.992   2.830 -0.2045  0.6642  0.2807
  419MOL0     C55219   3.426   5.089   2.926 -0.3397  0.7770 -1.3504
  419MOL0    Cl55220   3.245   5.094   2.900  0.4144 -0.0388 -0.2497
  419MOL0     C55221   3.944   5.691   2.229 -0.7102  0.7557 -0.1708
  419MOL0     C55222   4.045   5.751   2.147  0.6731 -1.0585 -0.2956
  419MOL0     O55223   4.411   5.626   2.049 -0.8550  0.9062 -0.2525
  419MOL0     C55224   4.613   5.792   1.960  0.4639 -0.2484 -1.0122
  419MOL0     C55225   4.711   5.888   1.934  0.1956  0.3041  0.7327
  419MOL0     N55226   5.336   6.337   2.082 -0.8427 -0.1390  0.0105
  419MOL0     N55227   5.389   6.457   2.109 -0.4290 -0.2761 -0.5387
  419MOL0     C55228   6.539   6.621   2.285 -0.0492 -0.8410  0.7094
  419MOL0     C55229   6.677   6.598   2.312 -0.7468 -0.6377  0.0946
  419MOL0     C55230   7.049   6.434   2.508  0.5561 -0.6833 -0.3690
  419MOL0     C55231   7.097   6.402   2.635  0.6641 -0.2752 -0.2576
  419MOL0     C55232   7.231   6.372   2.658  0.0164  0.5373 -0.4548
  419MOL0     C55233   7.329   6.388   2.553 -0.4460 -0.3637  0.1723
  419MOL0     O55234   7.468   6.376   2.580 -0.4852  0.0240  0.3202
  419MOL0     C55235   7.518   6.426   2.704 -0.4729 -0.1870 -0.2195
  419MOL0     C55236   7.663   6.451   2.692 -0.0327 -0.1661 -1.0998
  419MOL0     C55237   7.718   6.532   2.577  0.2570  0.0599  0.1563
  419MOL0     C55238   7.849   6.613   2.601 -1.1500 -0.3248 -0.5982
  419MOL0     C55239   7.950   6.515   2.627  0.5233 -0.1355 -0.5013
  419MOL0     C55240   8.046   6.436   2.622 -0.4133 -0.3331  0.2375
  419MOL0     C55241   7.282   6.408   2.423 -0.4422 -0.7508  0.1025
  419MOL0     C55242   7.142   6.432   2.400  0.1666 -0.7254  0.5315
  419MOL0     H55243   6.653   6.269   2.371  0.3822 -0.3231 -2.7643
  419MOL0     H55244   6.411   6.306   2.358 -0.7405 -0.0662  0.4865
  419MOL0     H55245   6.207   6.412   2.378  1.4713  3.1514  0.3504
  419MOL0     H55246   6.240   6.347   2.215  0.5109 -1.4981  1.6418
  419MOL0     H55247   6.084   6.490   2.122  3.7605 -0.5034 -0.2622
  419MOL0     H55248   6.068   6.610   2.260 -2.1006  0.9351 -0.9596
  419MOL0     H55249   5.986   6.445   2.416  0.1617 -2.2303  0.1427
  419MOL0     H55250   5.957   6.324   2.281 -1.7358  0.4828 -3.3985
  419MOL0     H55251   5.838   6.599   2.283 -1.0698 -0.0920 -0.1306
  419MOL0     H55252   5.794   6.452   2.188  0.4005 -1.4989 -0.5878
  419MOL0     H55253   5.758   6.503   2.485 -2.9890 -0.1655  0.1137
  419MOL0     H55254   5.777   6.336   2.430 -0.6150  0.2697 -0.8703
  419MOL0     H55255   5.540   6.387   2.455 -0.2358  2.6873  1.1762
  419MOL0     H55256   5.570   6.384   2.281 -0.6014  1.1223 -0.8612
  419MOL0     H55257   5.542   6.641   2.450 -3.0945  0.6220 -0.8254
  419MOL0     H55258   5.616   6.632   2.289 -0.0231  0.5186  0.6957
  419MOL0     H55259   5.390   6.701   2.258 -0.9461 -0.6487 -1.1489
  419MOL0     H55260   5.334   6.597   2.407 -1.7240 -1.4869 -0.9431
  419MOL0     H55261   5.205   6.404   2.365  1.7133  0.3960  0.6671
  419MOL0     H55262   5.065   6.202   2.248  1.0972  1.2736  2.2138
  419MOL0     H55263   5.180   6.094   2.175  0.3931  0.5743  1.0454
  419MOL0     H55264   5.122   6.147   1.949  0.4842 -1.9513  0.9561
  419MOL0     H55265   5.038   6.296   2.011 -0.8930 -0.3792  0.1411
  419MOL0     H55266   4.962   5.999   2.061  0.3522  1.3737  2.8307
  419MOL0     H55267   4.869   6.151   2.095  1.1399  1.9611 -0.4854
  419MOL0     H55268   4.934   6.016   1.858  1.6747  0.7117 -2.1859
  419MOL0     H55269   4.931   6.193   1.826 -0.2134 -1.9552 -1.5990
  419MOL0     H55270   4.501   6.151   1.865  0.4757  0.5368 -0.4358
  419MOL0     H55271   4.339   5.998   1.926  0.9898  1.2381  0.2825
  419MOL0     H55272   4.323   5.634   2.285 -0.8073 -1.9392 -5.4048
  419MOL0     H55273   4.162   5.513   2.428 -0.0102  0.9422  1.2817
  419MOL0     H55274   3.927   5.549   2.582  0.2317  1.9898 -2.1427
  419MOL0     H55275   3.995   5.404   2.519  1.1813  0.4681 -0.0196
  419MOL0     H55276   3.693   5.464   2.573 -1.0196 -1.3609  2.2320
  419MOL0     H55277   3.805   5.351   2.646  1.6520  1.8903  0.1272
  419MOL0     H55278   3.823   5.216   2.446 -1.2565  0.5783 -2.2249
  419MOL0     H55279   3.705   5.316   2.364  0.8287 -1.8256 -1.1912
  419MOL0     H55280   3.537   5.254   2.497  0.8251  0.1506  0.6936
  419MOL0     H55281   3.614   5.110   2.456  3.0239 -0.5084 -0.0360
  419MOL0     H55282   3.596   5.255   2.712 -1.9386  0.4411 -2.4100
  419MOL0     H55283   3.719   5.113   2.697  0.4374 -1.2598 -0.0491
  419MOL0     H55284   3.543   4.967   2.614 -0.6075  0.6280 -0.5565
  419MOL0     H55285   3.421   5.085   2.658  1.1015  3.3758  0.0069
  419MOL0     H55286   3.445   4.900   2.842  0.0288  0.6843  1.6992
  419MOL0     H55287   3.603   4.974   2.871 -0.1227  1.1703  0.3090
  419MOL0     H55288   3.456   5.191   2.898 -1.3711  0.8335 -2.3376
  419MOL0     H55289   3.453   5.066   3.029 -4.8520  0.9498  0.1000
  419MOL0     H55290   3.841   5.711   2.200 -0.0501  0.5890 -2.9288
  419MOL0     H55291   4.016   5.818   2.067  0.2772 -1.1337 -0.2198
  419MOL0     H55292   4.646   5.693   1.989 -0.8074 -0.8909 -1.6456
  419MOL0     H55293   4.815   5.858   1.939 -0.0691 -1.0106 -0.9103
  419MOL0     H55294   6.503   6.722   2.264  1.5319 -0.4510 -0.2810
  419MOL0     H55295   6.755   6.673   2.304 -0.3901 -1.0506 -0.3760
  419MOL0     H55296   7.025   6.408   2.717 -0.7100 -0.3454 -1.4237
  419MOL0     H55297   7.261   6.346   2.759  1.0268 -0.0808 -0.9001
  419MOL0     H55298   7.502   6.353   2.784 -0.4829 -1.8951 -1.7474
  419MOL0     H55299   7.469   6.520   2.733  1.8731  1.4284 -1.1877
  419MOL0     H55300   7.694   6.482   2.793 -3.1743 -0.6920  0.1364
  419MOL0     H55301   7.711   6.353   2.686 -0.0662 -0.4229  1.6091
  419MOL0     H55302   7.639   6.597   2.539  0.9670 -0.1154 -1.6875
  419MOL0     H55303   7.730   6.461   2.495 -0.2589  0.9209 -0.6775
  419MOL0     H55304   7.854   6.684   2.517 -0.6875 -1.2545 -1.3767
  419MOL0     H55305   7.839   6.675   2.690 -3.1617 -0.6427 -0.5644
  419MOL0     H55306   8.125   6.364   2.618  0.9138  1.1271 -0.9416
  419MOL0     H55307   7.359   6.405   2.347  1.8638 -0.7120  2.2811
  419MOL0     H55308   7.109   6.438   2.297  1.0888 -1.6248  0.1681
  420MOL0     O55309   1.512   5.036  10.352 -0.3314 -0.5213  0.4631
  420MOL0     C55310   1.572   5.051  10.247  0.0179  0.9730  0.1045
  420MOL0     O55311   1.532   5.012  10.125 -0.6141 -0.0265  0.5700
  420MOL0     C55312   1.408   4.956  10.112 -0.0446 -0.2184 -0.5456
  420MOL0     C55313   1.392   4.817  10.129 -0.6923  0.1529 -0.2860
  420MOL0     C55314   1.261   4.762  10.131  0.1307  0.6185  1.1615
  420MOL0     C55315   1.153   4.846  10.103  0.1331  0.2666  0.6768
  420MOL0     O55316   1.030   4.807  10.072  0.8438  0.1271 -0.6474
  420MOL0     C55317   0.991   4.674  10.100 -0.0576 -0.1996  0.2282
  420MOL0     C55318   0.842   4.643  10.056  0.0740 -0.1481 -0.3969
  420MOL0     C55319   0.803   4.499  10.081  0.0821  0.0862  0.3710
  420MOL0     C55320   0.664   4.461  10.034  0.3650 -0.2194  0.5082
  420MOL0     C55321   0.628   4.326  10.083 -0.0406  0.0497  0.1797
  420MOL0     C55322   0.493   4.282  10.017  0.3246  0.4934  0.6846
  420MOL0     C55323   0.365   4.335  10.093  0.8066  0.9754  0.1044
  420MOL0     C55324   0.242   4.250  10.075 -0.0014  0.3962  0.1450
  420MOL0     N55325   0.109   4.303  10.114  0.2929 -0.3998  0.6733
  420MOL0     C55326   0.062   4.428  10.095 -1.0811 -0.0761 -0.2700
  420MOL0     C55327  -0.046   4.445  10.181  0.1419 -0.5276 -0.1297
  420MOL0     C55328  -0.126   4.569  10.197 -0.6166  1.1007 -0.4086
  420MOL0     C55329  -0.220   4.604  10.087 -0.6512 -0.1984  0.3618
  420MOL0     C55330  -0.316   4.496  10.044  0.0327  0.3011  0.0910
  420MOL0     C55331  -0.409   4.525   9.921  0.4585 -0.1629 -0.3410
  420MOL0     O55332  -0.490   4.414   9.876  0.0788  0.2360 -0.3146
  420MOL0     C55333  -0.608   4.451   9.820  0.2541 -0.1211  0.3354
  420MOL0     C55334  -0.718   4.485   9.893  0.4624 -0.2732  0.0178
  420MOL0     C55335  -0.827   4.537   9.836  0.2074 -0.1346 -0.1640
  420MOL0     C55336  -0.839   4.540   9.697  1.2344 -0.3284  0.3060
  420MOL0     C55337  -0.963   4.593   9.633 -0.9788  0.0597  0.6281
  420MOL0     O55338  -1.064   4.618   9.717  0.3594  0.2621  0.7695
  420MOL0     C55339  -1.179   4.683   9.676  0.0132 -0.5851  0.5615
  420MOL0     C55340  -1.238   4.769   9.773 -0.9216 -0.5651  0.0960
  420MOL0     C55341  -1.361   4.838   9.752 -0.6650  0.1117 -0.4160
  420MOL0     C55342  -1.427   4.823   9.635  0.2530  0.0133  0.1654
  420MOL0     O55343  -1.550   4.888   9.604  0.6601  0.3982 -0.6324
  420MOL0     C55344  -1.624   4.859   9.492 -0.3178 -0.0649  0.1547
  420MOL0     C55345  -1.746   4.963   9.486 -0.1458  0.3573  0.7018
  420MOL0     C55346  -1.829   4.977   9.605  0.6676  0.1098 -0.5289
  420MOL0     C55347  -1.968   5.050   9.576 -0.2312  0.5500  0.2936
  420MOL0     C55348  -2.034   5.100   9.705  0.0686 -0.5057  0.3443
  420MOL0     C55349  -2.011   5.250   9.723  0.5218 -0.6707 -0.3157
  420MOL0     C55350  -2.082   5.286   9.855  0.1620  0.3757 -0.8181
  420MOL0     C55351  -2.095   5.438   9.880  0.2215 -0.8289  0.2843
  420MOL0    Cl55352  -2.143   5.448  10.064 -0.3030  0.2023 -0.2437
  420MOL0     C55353  -1.367   4.738   9.540  1.1076 -0.6250 -0.2114
  420MOL0     C55354  -1.246   4.673   9.554 -0.0332  0.9016 -0.1591
  420MOL0     O55355  -0.973   4.591   9.511 -0.3048  0.7650  0.4536
  420MOL0     C55356  -0.734   4.497   9.615  0.7357  0.6246 -0.0729
  420MOL0     C55357  -0.618   4.455   9.676 -0.0702  0.2450  1.1765
  420MOL0     N55358  -0.068   4.319  10.236 -0.1968  0.0205  0.2093
  420MOL0     N55359   0.026   4.239  10.204 -0.0092 -0.8324  0.4956
  420MOL0     C55360   1.173   4.982  10.095  0.9230 -0.0521  0.7214
  420MOL0     C55361   1.301   5.039  10.104 -0.1712 -0.5103 -0.2143
  420MOL0     C55362   1.700   5.128  10.254  0.2909  0.0181 -0.0808
  420MOL0     C55363   1.736   5.181  10.377 -0.2047  0.5310  0.3582
  420MOL0     C55364   1.856   5.251  10.391 -0.2214  0.1770  0.5679
  420MOL0     C55365   1.933   5.282  10.277  0.8435 -0.4710  0.5493
  420MOL0     O55366   2.026   5.382  10.290  0.2287 -0.4343  1.0520
  420MOL0     C55367   2.167   5.335  10.267  0.0002  0.2821  0.2787
  420MOL0     C55368   2.276   5.433  10.316  0.2276 -0.5254 -0.2275
  420MOL0     C55369   2.274   5.576  10.254 -0.5025 -0.3167 -0.9727
  420MOL0     C55370   2.402   5.645  10.289 -0.2010  0.1386  0.1870
  420MOL0     C55371   2.515   5.586  10.225 -1.4253  0.4231 -0.3873
  420MOL0     C55372   2.619   5.538  10.178  0.5664 -0.1149 -0.0555
  420MOL0     C55373   1.895   5.224  10.157 -0.6213 -0.3108 -0.4023
  420MOL0     C55374   1.779   5.153  10.142  0.4775  0.0684 -0.0623
  420MOL0     H55375   1.485   4.762  10.142 -0.4034  0.1208 -2.2194
  420MOL0     H55376   1.251   4.654  10.130 -2.2101  0.8031  1.2987
  420MOL0     H55377   0.999   4.676  10.209  0.8363  3.2464  0.1928
  420MOL0     H55378   1.067   4.606  10.060  0.8916  2.1346 -2.2249
  420MOL0     H55379   0.834   4.667   9.950 -0.8935  0.6525 -0.1568
  420MOL0     H55380   0.779   4.718  10.103  1.8678  2.1184 -1.3985
  420MOL0     H55381   0.812   4.478  10.187 -0.0561 -0.2339  0.3192
  420MOL0     H55382   0.880   4.437  10.036  2.4589  2.4218  0.9464
  420MOL0     H55383   0.587   4.535  10.055 -0.0686 -1.2572  2.9988
  420MOL0     H55384   0.663   4.458   9.925 -3.1718  0.5777  0.4098
  420MOL0     H55385   0.622   4.323  10.193 -1.1582  0.1105  0.1339
  420MOL0     H55386   0.706   4.255  10.058  1.1072  1.6087 -0.8568
  420MOL0     H55387   0.493   4.173  10.013  2.0276  0.4778 -0.0193
  420MOL0     H55388   0.487   4.322   9.916  1.1179  2.2537  1.2842
  420MOL0     H55389   0.379   4.333  10.202 -2.2330  2.8603  0.6354
  420MOL0     H55390   0.343   4.438  10.063  0.7692  0.9408  0.0152
  420MOL0     H55391   0.263   4.168  10.145  1.7258 -0.7856 -1.6598
  420MOL0     H55392   0.244   4.216   9.971  0.1088 -1.1815  0.6254
  420MOL0     H55393   0.109   4.502  10.031 -0.6348 -1.2021 -1.2956
  420MOL0     H55394  -0.064   4.656  10.222 -0.3095  0.1651  2.4782
  420MOL0     H55395  -0.191   4.562  10.285 -0.3614 -1.7048 -0.3698
  420MOL0     H55396  -0.155   4.620  10.000 -0.1872 -0.9174  0.5632
  420MOL0     H55397  -0.277   4.696  10.104  3.4117  2.3697  1.3592
  420MOL0     H55398  -0.272   4.397  10.026  0.2067  0.2245  0.9196
  420MOL0     H55399  -0.387   4.482  10.126  0.1017 -1.2183 -0.0866
  420MOL0     H55400  -0.341   4.553   9.841 -0.8232  0.9703 -1.0763
  420MOL0     H55401  -0.474   4.608   9.950 -0.2419 -1.3766  1.8041
  420MOL0     H55402  -0.715   4.469  10.000 -0.7144 -0.9126 -0.0360
  420MOL0     H55403  -0.903   4.575   9.903 -0.5109 -1.2975 -0.2772
  420MOL0     H55404  -1.186   4.769   9.868 -0.2541  1.3390 -0.2209
  420MOL0     H55405  -1.413   4.885   9.835  0.0750 -1.4103  0.9629
  420MOL0     H55406  -1.661   4.757   9.481  2.1513 -0.8807 -1.1924
  420MOL0     H55407  -1.560   4.883   9.407 -0.0748  0.4349  0.4748
  420MOL0     H55408  -1.807   4.946   9.397 -1.8187  2.6827  1.2854
  420MOL0     H55409  -1.698   5.060   9.476 -0.1040  0.4784  1.8676
  420MOL0     H55410  -1.771   5.031   9.680  0.0600 -1.6923  1.3454
  420MOL0     H55411  -1.844   4.881   9.655 -0.9143  2.2179  3.4510
  420MOL0     H55412  -1.962   5.133   9.505 -2.0033  2.3811  2.1779
  420MOL0     H55413  -2.037   4.973   9.539  0.3578 -0.8301  1.9175
  420MOL0     H55414  -1.986   5.048   9.789  3.0202  2.8017  0.9789
  420MOL0     H55415  -2.139   5.077   9.688 -0.3210 -0.6158  2.5176
  420MOL0     H55416  -2.068   5.301   9.645 -1.8918 -2.7577 -0.0451
  420MOL0     H55417  -1.907   5.281   9.712  0.4553 -1.0216 -2.2754
  420MOL0     H55418  -2.185   5.250   9.861  0.3282 -0.0666 -0.5683
  420MOL0     H55419  -2.030   5.239   9.939 -1.7379 -1.1409 -0.4182
  420MOL0     H55420  -2.174   5.479   9.816 -1.3480 -1.5714  1.6696
  420MOL0     H55421  -2.000   5.486   9.857 -0.3548  0.8525  1.1587
  420MOL0     H55422  -1.417   4.719   9.446 -0.6646 -0.3176  0.6096
  420MOL0     H55423  -1.206   4.608   9.478 -0.0478 -2.7942  2.6801
  420MOL0     H55424  -0.743   4.496   9.507 -0.0106 -1.5883 -0.0379
  420MOL0     H55425  -0.539   4.416   9.613 -0.9152  0.3412  0.0209
  420MOL0     H55426   1.082   5.041  10.082  0.6679 -0.4551  0.6714
  420MOL0     H55427   1.316   5.144  10.081  0.5667 -0.8317 -1.2968
  420MOL0     H55428   1.683   5.180  10.472 -1.2603  0.8227 -0.2121
  420MOL0     H55429   1.890   5.300  10.483 -3.8575  2.3494  0.9711
  420MOL0     H55430   2.189   5.332  10.160 -2.5078  0.6479 -0.3066
  420MOL0     H55431   2.178   5.238  10.315  1.0320  0.4168  0.3283
  420MOL0     H55432   2.276   5.428  10.426 -0.6411 -1.0424 -0.2430
  420MOL0     H55433   2.367   5.384  10.283 -0.6000 -0.3391 -3.0531
  420MOL0     H55434   2.188   5.634  10.288  0.4451 -0.2566  1.5065
  420MOL0     H55435   2.263   5.554  10.147  3.9760 -0.3796 -1.6068
  420MOL0     H55436   2.391   5.750  10.262  0.8690 -0.3169 -2.3840
  420MOL0     H55437   2.414   5.637  10.397 -0.8078 -1.7827  0.1471
  420MOL0     H55438   2.707   5.492  10.137 -0.5815 -1.1295 -1.4576
  420MOL0     H55439   1.954   5.247  10.069 -0.7619  0.9353 -0.1949
  420MOL0     H55440   1.750   5.124  10.042 -0.6628 -0.4685  0.4060
  421MOL0     O55441   8.462   9.712   5.328  0.0195 -0.2021 -0.3205
  421MOL0     C55442   8.503   9.620   5.261 -0.1195 -0.4182  0.3550
  421MOL0     O55443   8.423   9.546   5.183  1.2823 -0.5567  1.5260
  421MOL0     C55444   8.284   9.578   5.194  0.1914 -0.3373  0.3054
  421MOL0     C55445   8.201   9.496   5.273  0.4650  0.1534 -0.3208
  421MOL0     C55446   8.064   9.517   5.281  0.5472  1.2151  0.5831
  421MOL0     C55447   8.000   9.627   5.220  1.0116 -0.1522  0.0135
  421MOL0     O55448   7.865   9.625   5.223 -0.0543 -0.1373 -0.7423
  421MOL0     C55449   7.807   9.760   5.212  0.9504  0.1726  0.1774
  421MOL0     C55450   7.669   9.732   5.286 -0.9827  0.1692 -0.5718
  421MOL0     C55451   7.583   9.622   5.213  0.3978  1.1307  0.6002
  421MOL0     C55452   7.445   9.617   5.282 -0.2914  1.2017  0.0674
  421MOL0     C55453   7.341   9.563   5.178 -0.1456  0.5063  0.2661
  421MOL0     C55454   7.320   9.409   5.190 -0.6439  0.1773  0.3479
  421MOL0     C55455   7.196   9.366   5.108 -0.0503  0.1844  0.4905
  421MOL0     C55456   7.178   9.211   5.100 -1.1119 -0.3557 -0.1089
  421MOL0     N55457   7.266   9.131   5.008 -0.2838 -0.3104  0.2634
  421MOL0     C55458   7.366   9.048   5.040 -1.7113  0.4055 -0.2864
  421MOL0     C55459   7.403   8.987   4.932  0.5305 -0.9074 -0.0634
  421MOL0     C55460   7.503   8.881   4.918  0.0965 -0.3909  0.3483
  421MOL0     C55461   7.645   8.914   4.978  0.6971  0.1848 -0.3715
  421MOL0     C55462   7.725   8.786   4.992 -0.3868 -0.7174 -0.7819
  421MOL0     C55463   7.699   8.706   5.117 -0.0834  0.9813  0.5418
  421MOL0     O55464   7.688   8.775   5.237 -0.1677 -0.3688 -0.7538
  421MOL0     C55465   7.587   8.751   5.330 -0.0232 -0.1813  0.2048
  421MOL0     C55466   7.557   8.849   5.420 -0.2494 -0.5909  0.0548
  421MOL0     C55467   7.465   8.837   5.518  0.7245 -0.4671 -0.2037
  421MOL0     C55468   7.398   8.715   5.534  0.2043 -0.5044  0.1892
  421MOL0     C55469   7.317   8.699   5.664 -0.0967  0.7261  0.2911
  421MOL0     O55470   7.322   8.803   5.754  0.0707 -0.1259 -0.2549
  421MOL0     C55471   7.259   8.818   5.880  0.3572 -0.4214  0.7290
  421MOL0     C55472   7.291   8.928   5.957 -0.2550 -1.3972  1.0146
  421MOL0     C55473   7.235   8.942   6.082 -0.3863 -0.2644  0.1524
  421MOL0     C55474   7.135   8.851   6.128 -0.1273  0.6507 -0.0636
  421MOL0     O55475   7.087   8.872   6.249  0.4538  0.6240 -0.6388
  421MOL0     C55476   6.950   8.826   6.265  0.5575  0.2287  0.0578
  421MOL0     C55477   6.889   8.915   6.378 -0.2732  1.0230  0.1004
  421MOL0     C55478   6.880   9.063   6.334  0.2889  0.5207  0.0614
  421MOL0     C55479   6.805   9.154   6.433  0.6988 -0.4188 -0.0159
  421MOL0     C55480   6.873   9.172   6.570  0.4109 -0.1069 -0.3586
  421MOL0     C55481   6.801   9.295   6.643 -0.1195 -0.1742  0.0081
  421MOL0     C55482   6.651   9.284   6.658  0.3567 -0.5521 -0.0793
  421MOL0     C55483   6.615   9.384   6.764  0.1470 -0.4592  0.2723
  421MOL0    Cl55484   6.443   9.372   6.799  0.0901 -0.1639 -0.0072
  421MOL0     C55485   7.109   8.737   6.049  0.0492  1.3034  0.0452
  421MOL0     C55486   7.164   8.725   5.923  0.1947 -1.0926  0.2974
  421MOL0     O55487   7.249   8.600   5.666 -0.1902  0.3965 -0.2633
  421MOL0     C55488   7.417   8.614   5.444  0.5890 -0.1979  0.9104
  421MOL0     C55489   7.507   8.634   5.331 -0.1569 -0.4716 -0.5825
  421MOL0     N55490   7.326   9.035   4.829  0.5778  0.2633  0.0494
  421MOL0     N55491   7.246   9.116   4.878  0.2509  0.6056 -0.3545
  421MOL0     C55492   8.082   9.715   5.147  0.0052  0.3492 -0.4547
  421MOL0     C55493   8.226   9.691   5.140  0.3634  0.2753  0.2299
  421MOL0     C55494   8.646   9.590   5.273  0.0088 -0.6898  0.0219
  421MOL0     C55495   8.701   9.485   5.203  0.4696  0.2695  0.8798
  421MOL0     C55496   8.833   9.449   5.200 -0.5817 -0.3835  1.0502
  421MOL0     C55497   8.913   9.530   5.280 -0.1180  0.7829 -0.0628
  421MOL0     O55498   9.042   9.504   5.307 -0.0020 -0.3727  0.2831
  421MOL0     C55499   9.101   9.381   5.257 -0.6331 -0.0350  0.6476
  421MOL0     C55500   9.227   9.349   5.341  0.4756  0.3530 -0.7556
  421MOL0     C55501   9.329   9.452   5.318 -0.5571 -0.1357 -0.6101
  421MOL0     C55502   9.478   9.433   5.361 -0.3249  0.4034  1.0728
  421MOL0     C55503   9.549   9.327   5.292  0.1295  0.5862  0.1905
  421MOL0     C55504   9.598   9.235   5.229  0.2146  0.3121 -0.1711
  421MOL0     C55505   8.866   9.630   5.361  0.4046  1.6577  0.0589
  421MOL0     C55506   8.730   9.660   5.361  0.3377  0.0837 -0.0766
  421MOL0     H55507   8.224   9.409   5.334 -0.5433 -0.6712 -1.0815
  421MOL0     H55508   8.012   9.438   5.334  1.2077  3.1242  4.3373
  421MOL0     H55509   7.791   9.782   5.106 -0.7361 -0.8748  0.1753
  421MOL0     H55510   7.857   9.845   5.259 -1.5613  0.6043  2.2616
  421MOL0     H55511   7.606   9.821   5.281 -1.7084 -0.1110  2.0908
  421MOL0     H55512   7.697   9.709   5.389 -0.0914 -1.8260 -1.1973
  421MOL0     H55513   7.642   9.531   5.228  2.0554  1.5485 -2.5546
  421MOL0     H55514   7.575   9.639   5.105  4.3646  1.5634  0.2315
  421MOL0     H55515   7.455   9.564   5.377 -0.5371 -0.2235 -0.6775
  421MOL0     H55516   7.415   9.718   5.310  2.7524  2.1758  0.1549
  421MOL0     H55517   7.362   9.589   5.073 -2.8210  0.9257 -0.2485
  421MOL0     H55518   7.244   9.611   5.196  0.2024  0.6369  1.9657
  421MOL0     H55519   7.305   9.374   5.292 -2.0806  0.2407  0.1848
  421MOL0     H55520   7.404   9.366   5.135 -1.0124  0.8099 -0.7584
  421MOL0     H55521   7.116   9.399   5.174 -1.0930 -0.6567 -0.3201
  421MOL0     H55522   7.191   9.418   5.012  0.2578  0.1772  0.4710
  421MOL0     H55523   7.072   9.186   5.093 -1.4535  0.1668  2.2647
  421MOL0     H55524   7.198   9.173   5.201 -1.7486 -0.4161 -0.0028
  421MOL0     H55525   7.421   9.041   5.133  0.5951  1.8007 -1.4586
  421MOL0     H55526   7.503   8.843   4.816 -0.3198 -1.9007  0.8892
  421MOL0     H55527   7.468   8.800   4.983 -1.6090  0.3636  0.4412
  421MOL0     H55528   7.634   8.964   5.075  0.5161  0.1990 -0.3988
  421MOL0     H55529   7.687   8.981   4.903 -0.9956  1.4523 -0.2308
  421MOL0     H55530   7.698   8.714   4.914  0.0802 -0.0332 -1.6048
  421MOL0     H55531   7.832   8.810   4.999 -0.3373 -1.1900  0.2392
  421MOL0     H55532   7.772   8.626   5.132 -0.1718  1.0903  1.6332
  421MOL0     H55533   7.599   8.669   5.090 -0.1970  1.1205  0.7690
  421MOL0     H55534   7.615   8.940   5.416 -0.3375 -0.4204  1.7725
  421MOL0     H55535   7.443   8.922   5.582  2.7956  0.1082 -0.2059
  421MOL0     H55536   7.361   9.001   5.917 -0.8668 -0.8337  0.9555
  421MOL0     H55537   7.253   9.030   6.143 -1.6497 -0.8113  1.3520
  421MOL0     H55538   6.949   8.721   6.295  2.0001 -0.0639 -0.8352
  421MOL0     H55539   6.894   8.841   6.172  1.2681 -1.7177 -0.7473
  421MOL0     H55540   6.956   8.915   6.464 -0.8834 -0.4812  0.6167
  421MOL0     H55541   6.793   8.875   6.413 -0.9205  3.2942  1.0683
  421MOL0     H55542   6.829   9.070   6.238  3.2968  0.0769 -1.6672
  421MOL0     H55543   6.982   9.093   6.311  0.9197  1.7541  3.7024
  421MOL0     H55544   6.784   9.252   6.389 -2.3164 -0.8396  0.2649
  421MOL0     H55545   6.704   9.113   6.445 -0.4246  2.8388  4.3820
  421MOL0     H55546   6.979   9.195   6.557  0.4702  0.0410  0.3510
  421MOL0     H55547   6.859   9.077   6.622  0.1981 -0.9236 -1.8553
  421MOL0     H55548   6.818   9.388   6.587 -1.3135  1.0110  1.5369
  421MOL0     H55549   6.849   9.299   6.741 -0.6241 -0.1429  0.2550
  421MOL0     H55550   6.608   9.310   6.561  0.5514 -0.7882 -0.2300
  421MOL0     H55551   6.617   9.184   6.688 -1.0947 -0.0705 -0.0545
  421MOL0     H55552   6.646   9.484   6.734  0.1745 -0.4089  0.4715
  421MOL0     H55553   6.668   9.356   6.855  0.5296 -1.7602 -0.3175
  421MOL0     H55554   7.036   8.662   6.079  1.7832  0.6574  3.1710
  421MOL0     H55555   7.132   8.641   5.861 -0.7175 -2.2078  2.1841
  421MOL0     H55556   7.373   8.515   5.446  0.1287  0.0027  3.0923
  421MOL0     H55557   7.532   8.548   5.269  0.7596  0.4150 -1.4882
  421MOL0     H55558   8.032   9.799   5.097 -2.4451 -1.2310 -0.8422
  421MOL0     H55559   8.288   9.766   5.091  0.6676  1.0513  1.7403
  421MOL0     H55560   8.636   9.420   5.145  0.5631 -0.1126  1.1951
  421MOL0     H55561   8.879   9.368   5.144  0.6213 -0.2047  1.7301
  421MOL0     H55562   9.118   9.394   5.150  0.3864  1.6769  0.9861
  421MOL0     H55563   9.023   9.305   5.267 -0.4465 -0.1128  1.6366
  421MOL0     H55564   9.199   9.320   5.443  0.0972 -0.2709 -1.0298
  421MOL0     H55565   9.264   9.257   5.295 -3.0328 -1.6809  0.0915
  421MOL0     H55566   9.286   9.548   5.349 -1.8889 -0.0874 -2.4157
  421MOL0     H55567   9.344   9.462   5.210 -0.3540 -1.6562 -0.7407
  421MOL0     H55568   9.528   9.528   5.337  1.9086 -0.8889  0.2275
  421MOL0     H55569   9.479   9.408   5.467 -1.9184  0.6042  1.1518
  421MOL0     H55570   9.645   9.154   5.177  0.5386  0.5551 -0.2594
  421MOL0     H55571   8.930   9.673   5.437  0.1651  0.8111  0.7588
  421MOL0     H55572   8.690   9.724   5.439  2.5937  1.2163  0.2476
  422MOL0     O55573   6.948   0.661   8.780 -0.0098 -0.6539 -0.9557
  422MOL0     C55574   7.045   0.602   8.728 -0.3244  0.3097 -0.5241
  422MOL0     O55575   7.037   0.512   8.626  0.7135 -0.3681  0.2494
  422MOL0     C55576   6.913   0.471   8.582 -0.2942 -0.0559  0.6782
  422MOL0     C55577   6.811   0.416   8.672 -0.8850 -0.6226 -0.0104
  422MOL0     C55578   6.688   0.378   8.611 -0.1307  1.0290  0.0201
  422MOL0     C55579   6.666   0.399   8.474 -0.7162 -0.1761 -0.6600
  422MOL0     O55580   6.547   0.359   8.420 -0.0156 -0.5624  0.2219
  422MOL0     C55581   6.442   0.456   8.445  0.3023  0.2342  0.2198
  422MOL0     C55582   6.312   0.403   8.383 -0.6992  0.0492  0.8747
  422MOL0     C55583   6.305   0.411   8.234  0.3842 -0.0213  0.7546
  422MOL0     C55584   6.278   0.548   8.187 -0.3752 -0.1750 -0.4583
  422MOL0     C55585   6.298   0.560   8.041 -0.7993  0.2181  0.0837
  422MOL0     C55586   6.197   0.471   7.967 -0.2087 -0.7748 -1.0207
  422MOL0     C55587   6.181   0.514   7.823  0.9590  0.4766 -0.4007
  422MOL0     C55588   6.062   0.444   7.756 -1.2085  0.5533  0.0340
  422MOL0     N55589   6.000   0.525   7.643 -0.3839  0.0902  0.3287
  422MOL0     C55590   5.897   0.624   7.670  0.4177  0.7684  0.1016
  422MOL0     C55591   5.888   0.696   7.557 -0.3237  0.1232  0.6012
  422MOL0     C55592   5.820   0.826   7.540  0.4444 -0.3366  1.2846
  422MOL0     C55593   5.727   0.805   7.411 -0.4340  0.6118 -0.8571
  422MOL0     C55594   5.652   0.932   7.380  0.0002  0.3049  0.2539
  422MOL0     C55595   5.542   0.914   7.276  0.4198 -0.3710 -0.9812
  422MOL0     O55596   5.522   1.051   7.224 -0.0486  0.0052  0.2165
  422MOL0     C55597   5.394   1.075   7.179 -0.4906 -0.0232 -0.3166
  422MOL0     C55598   5.389   1.184   7.088  0.3055  0.0297  0.3195
  422MOL0     C55599   5.263   1.228   7.039  0.4991  0.2995  0.1379
  422MOL0     C55600   5.144   1.157   7.068 -0.6711  0.2177 -0.6798
  422MOL0     C55601   5.007   1.180   7.014  0.2061 -0.0200 -0.8559
  422MOL0     O55602   4.905   1.101   7.050 -0.5727  0.3518  0.2593
  422MOL0     C55603   4.773   1.117   7.005  0.3478  0.5952 -0.0194
  422MOL0     C55604   4.683   1.057   7.090 -0.2688 -0.5670  0.2388
  422MOL0     C55605   4.549   1.068   7.060 -0.5924 -0.1001 -0.4914
  422MOL0     C55606   4.504   1.141   6.943  0.7053  0.0672 -0.8643
  422MOL0     O55607   4.371   1.173   6.943 -0.5841  0.3364 -0.6221
  422MOL0     C55608   4.316   1.190   6.809 -0.8683 -0.0234  0.3416
  422MOL0     C55609   4.169   1.153   6.810 -0.7465 -0.5803  0.3892
  422MOL0     C55610   4.095   1.179   6.678 -0.1184  0.5622 -0.0139
  422MOL0     C55611   4.090   1.327   6.652 -0.3116  0.3988 -0.2215
  422MOL0     C55612   4.062   1.361   6.510  0.1148 -0.9575 -0.8661
  422MOL0     C55613   4.033   1.502   6.484 -1.0157 -0.5131 -0.3288
  422MOL0     C55614   3.974   1.519   6.350 -0.7295  0.7787 -0.1418
  422MOL0     C55615   4.002   1.660   6.303  0.2690 -0.5213 -0.2591
  422MOL0    Cl55616   4.174   1.662   6.246  0.4242 -0.0005  0.4711
  422MOL0     C55617   4.595   1.179   6.846  0.1971 -0.2546  0.2608
  422MOL0     C55618   4.732   1.169   6.879  0.2366  1.1098 -0.0406
  422MOL0     O55619   5.000   1.279   6.942  0.2880 -1.0336 -0.5457
  422MOL0     C55620   5.153   1.065   7.172 -0.0093  0.6705  0.6984
  422MOL0     C55621   5.274   1.016   7.222  0.5383  0.0787 -0.3912
  422MOL0     N55622   5.957   0.632   7.458 -0.8862 -0.2047  0.2060
  422MOL0     N55623   6.030   0.543   7.513  0.1602 -0.5938 -0.0644
  422MOL0     C55624   6.766   0.453   8.397 -0.0481  1.3273  0.9061
  422MOL0     C55625   6.888   0.483   8.447  0.3938  0.6439 -0.8814
  422MOL0     C55626   7.181   0.631   8.780  0.5005  0.2703 -0.8470
  422MOL0     C55627   7.203   0.680   8.909 -0.1000 -0.1489 -0.8006
  422MOL0     C55628   7.331   0.672   8.963  0.3259  0.2376  0.6867
  422MOL0     C55629   7.446   0.642   8.888  1.1506  0.1245 -0.0477
  422MOL0     O55630   7.562   0.635   8.955 -0.8022  0.1097  0.5096
  422MOL0     C55631   7.685   0.652   8.891 -0.0032  0.0614  0.2547
  422MOL0     C55632   7.719   0.802   8.871  0.6160  0.4902 -0.8650
  422MOL0     C55633   7.854   0.813   8.794 -0.0839  0.7027  0.4530
  422MOL0     C55634   7.901   0.961   8.768 -0.3850  0.2874 -0.5712
  422MOL0     C55635   7.938   1.029   8.894  0.2380  0.3063 -0.4685
  422MOL0     C55636   7.964   1.084   9.001 -0.6267  0.3359 -0.1869
  422MOL0     C55637   7.421   0.600   8.760  0.4415 -0.5631 -0.2749
  422MOL0     C55638   7.289   0.588   8.709  0.1890 -0.7665  0.4544
  422MOL0     H55639   6.834   0.406   8.778 -1.4466  0.5055  0.2263
  422MOL0     H55640   6.624   0.326   8.681  1.5144  1.0930  1.6461
  422MOL0     H55641   6.478   0.553   8.409  2.2182 -0.4737  0.1487
  422MOL0     H55642   6.421   0.466   8.552 -0.4841 -1.7091  0.2895
  422MOL0     H55643   6.231   0.461   8.427 -0.6806 -0.7296  2.0007
  422MOL0     H55644   6.280   0.303   8.416 -1.0607  0.7793  2.8777
  422MOL0     H55645   6.219   0.353   8.200 -0.2200 -0.1552  2.4256
  422MOL0     H55646   6.398   0.366   8.197 -0.2167 -1.1962  0.6326
  422MOL0     H55647   6.175   0.563   8.219 -0.3440 -2.3510  0.8784
  422MOL0     H55648   6.336   0.629   8.232  2.2858 -0.9549 -2.2591
  422MOL0     H55649   6.400   0.532   8.014 -0.2319 -0.6096  2.7284
  422MOL0     H55650   6.295   0.660   7.997  3.0586  0.4058 -0.0810
  422MOL0     H55651   6.105   0.500   8.017  0.1189 -1.6284  0.1073
  422MOL0     H55652   6.208   0.362   7.971 -0.6263 -0.7685  1.0185
  422MOL0     H55653   6.169   0.623   7.827 -0.0937  0.3515  0.4894
  422MOL0     H55654   6.268   0.491   7.762 -0.5424 -1.8107 -1.8339
  422MOL0     H55655   5.985   0.409   7.825  1.6360 -1.6391  2.3890
  422MOL0     H55656   6.099   0.353   7.709  1.2973 -0.1572  3.0341
  422MOL0     H55657   5.854   0.645   7.767 -0.3202 -0.2488  0.0003
  422MOL0     H55658   5.883   0.913   7.516  0.1246 -0.8754 -2.1084
  422MOL0     H55659   5.762   0.836   7.632 -0.1147  0.4426  0.8573
  422MOL0     H55660   5.660   0.718   7.419 -0.3067  0.6468  1.1959
  422MOL0     H55661   5.797   0.778   7.332  1.6810 -1.1499  1.4193
  422MOL0     H55662   5.595   0.971   7.465 -2.3408  0.6811 -1.3848
  422MOL0     H55663   5.718   1.013   7.347  0.1252  0.3040  0.4977
  422MOL0     H55664   5.455   0.858   7.313 -1.8724  2.8759 -1.0869
  422MOL0     H55665   5.573   0.845   7.196 -1.8539 -2.8981  0.1627
  422MOL0     H55666   5.482   1.233   7.064  0.7215 -0.1883  1.4316
  422MOL0     H55667   5.268   1.312   6.970 -1.4750 -0.9990 -1.7018
  422MOL0     H55668   4.724   0.996   7.170  2.4368  1.1344  0.2866
  422MOL0     H55669   4.476   1.030   7.131  0.1175 -2.0832 -0.7785
  422MOL0     H55670   4.370   1.123   6.741  0.0881 -0.9316  1.9126
  422MOL0     H55671   4.330   1.295   6.783 -0.5633  0.5263  2.5008
  422MOL0     H55672   4.119   1.194   6.899 -0.9178  0.6913 -0.2710
  422MOL0     H55673   4.152   1.046   6.824 -2.4768 -0.2443  1.2068
  422MOL0     H55674   3.998   1.129   6.688  0.4006 -0.6206 -0.6171
  422MOL0     H55675   4.147   1.128   6.596  2.9207  1.2792  1.3183
  422MOL0     H55676   4.008   1.366   6.712  0.2654 -1.2298  1.7228
  422MOL0     H55677   4.184   1.378   6.678 -1.5434  2.2462  0.8521
  422MOL0     H55678   3.969   1.312   6.480 -2.0150  1.0996  1.8420
  422MOL0     H55679   4.146   1.322   6.451  0.5464 -1.4380  0.0366
  422MOL0     H55680   4.123   1.563   6.487 -0.1302 -1.5924 -2.5371
  422MOL0     H55681   3.956   1.541   6.551  0.2390  2.0001 -0.2434
  422MOL0     H55682   4.026   1.456   6.276 -1.1917  0.1577  0.0539
  422MOL0     H55683   3.868   1.492   6.356 -0.7641  0.8786 -0.2827
  422MOL0     H55684   3.991   1.746   6.371 -1.0216  1.9552 -3.3688
  422MOL0     H55685   3.927   1.680   6.226 -0.3428  1.6763  0.8213
  422MOL0     H55686   4.555   1.242   6.767  0.6300  0.7541  0.8285
  422MOL0     H55687   4.800   1.206   6.803  0.1781  3.2306  0.8775
  422MOL0     H55688   5.062   1.014   7.204  0.7399 -0.3082  1.3246
  422MOL0     H55689   5.280   0.932   7.291 -0.7973 -1.3677 -1.9341
  422MOL0     H55690   6.739   0.471   8.294 -2.6180  0.3215  1.3226
  422MOL0     H55691   6.967   0.520   8.383  2.9810 -1.3058  0.9768
  422MOL0     H55692   7.119   0.708   8.971 -0.4800 -1.2444 -0.7966
  422MOL0     H55693   7.346   0.681   9.070  0.4177  2.0225  0.5616
  422MOL0     H55694   7.695   0.596   8.797  3.5479  2.0242 -0.7264
  422MOL0     H55695   7.760   0.617   8.962  0.2587  1.3747  0.6470
  422MOL0     H55696   7.636   0.846   8.815 -1.3657 -2.2400 -0.2436
  422MOL0     H55697   7.728   0.857   8.965 -1.4263  0.3356 -0.5409
  422MOL0     H55698   7.848   0.766   8.695  0.0333 -1.4319  1.4034
  422MOL0     H55699   7.928   0.751   8.845 -2.2495 -2.2405  0.2678
  422MOL0     H55700   7.986   0.972   8.699  0.1730  0.5417  0.1419
  422MOL0     H55701   7.815   1.012   8.725  1.8359  1.0101 -4.7359
  422MOL0     H55702   7.974   1.132   9.096 -1.0906  0.5854 -0.2628
  422MOL0     H55703   7.501   0.565   8.695  1.5826 -0.0039  0.7772
  422MOL0     H55704   7.292   0.538   8.613  0.9809 -2.3983  1.2760
  423MOL0     O55705   2.880  10.084  10.888 -0.0783 -0.7072 -0.8074
  423MOL0     C55706   3.000  10.117  10.874 -0.0653  0.2868 -0.8037
  423MOL0     O55707   3.033  10.245  10.884 -0.1228  0.3340 -0.1284
  423MOL0     C55708   2.931  10.333  10.888 -0.3361 -0.7735 -0.4253
  423MOL0     C55709   2.836  10.344  10.784 -0.3182 -0.1970 -0.1402
  423MOL0     C55710   2.733  10.443  10.782  0.1747 -0.4991 -0.9065
  423MOL0     C55711   2.735  10.532  10.889 -0.1868  0.3914 -0.2676
  423MOL0     O55712   2.636  10.634  10.901 -0.8921 -0.2045 -0.6824
  423MOL0     C55713   2.665  10.759  10.967 -0.4434  0.4213 -0.1372
  423MOL0     C55714   2.583  10.875  10.905 -0.1355  0.2566  0.0912
  423MOL0     C55715   2.606  11.002  10.985  0.2918  0.0436  0.5336
  423MOL0     C55716   2.504  11.015  11.093 -0.0845 -0.3325 -1.5511
  423MOL0     C55717   2.534  11.118  11.211 -0.4450 -0.2472  0.6779
  423MOL0     C55718   2.565  11.253  11.156  0.2038 -0.3954 -0.3813
  423MOL0     C55719   2.448  11.335  11.101  0.1645 -0.3204 -0.2508
  423MOL0     C55720   2.361  11.407  11.213 -0.2607  0.8296 -0.5973
  423MOL0     N55721   2.234  11.461  11.167 -0.1211 -0.3081 -0.2046
  423MOL0     C55722   2.139  11.388  11.100  1.4824 -0.4107 -1.2434
  423MOL0     C55723   2.036  11.482  11.073  0.5123  0.7369 -0.2791
  423MOL0     C55724   1.913  11.458  10.985  0.0193  0.7427  0.2039
  423MOL0     C55725   1.793  11.529  11.049 -0.0129  0.4239  0.3818
  423MOL0     C55726   1.664  11.503  10.973 -0.0968  0.2081 -0.2291
  423MOL0     C55727   1.555  11.599  11.021  0.3672 -0.1731  0.2467
  423MOL0     O55728   1.446  11.585  10.921 -0.1237 -0.1026 -0.5008
  423MOL0     C55729   1.320  11.604  10.963 -0.2206 -0.2678 -0.9001
  423MOL0     C55730   1.224  11.571  10.875  0.4666  0.1730 -0.2106
  423MOL0     C55731   1.089  11.597  10.899  0.2749  0.3617 -0.4435
  423MOL0     C55732   1.051  11.649  11.023  0.3328  0.6994  0.5997
  423MOL0     C55733   0.912  11.667  11.067  0.5069  0.1089  0.6303
  423MOL0     O55734   0.812  11.667  10.971  0.0879  0.0916 -0.6193
  423MOL0     C55735   0.694  11.724  11.008 -0.7179  0.3528 -0.7524
  423MOL0     C55736   0.598  11.670  11.092  0.0159 -1.1177 -0.5386
  423MOL0     C55737   0.473  11.737  11.122  0.3696 -0.1154 -0.4785
  423MOL0     C55738   0.438  11.855  11.059 -0.2123  0.1361 -0.1639
  423MOL0     O55739   0.331  11.935  11.096  0.3016 -0.1391  0.0917
  423MOL0     C55740   0.234  11.906  11.197 -0.4282 -0.6651  0.0395
  423MOL0     C55741   0.128  11.802  11.165 -0.8651 -0.5609 -0.1688
  423MOL0     C55742   0.093  11.788  11.011  0.2790  0.5616 -0.7409
  423MOL0     C55743  -0.036  11.721  10.989 -0.3298  0.1931 -0.3710
  423MOL0     C55744  -0.026  11.580  11.032  0.0710 -0.1678 -1.0423
  423MOL0     C55745  -0.153  11.507  10.981  0.3179  0.3222  0.3158
  423MOL0     C55746  -0.146  11.353  10.992  0.7044  0.3299 -0.5348
  423MOL0     C55747  -0.280  11.296  10.997 -0.0041  0.7453  0.3865
  423MOL0    Cl55748  -0.279  11.115  11.022 -0.0734  0.6083  0.2168
  423MOL0     C55749   0.527  11.906  10.962  0.4361  0.5049  0.2194
  423MOL0     C55750   0.645  11.835  10.931  0.0219 -1.0923  0.4418
  423MOL0     O55751   0.903  11.693  11.191  0.5746  0.1902 -0.4142
  423MOL0     C55752   1.153  11.680  11.119  0.2102  0.2640  0.9945
  423MOL0     C55753   1.286  11.672  11.077 -0.3331  0.2270 -0.1726
  423MOL0     N55754   2.071  11.604  11.123 -0.3035  0.3866  0.3700
  423MOL0     N55755   2.190  11.589  11.171  0.0025  0.1398  0.1874
  423MOL0     C55756   2.820  10.522  10.994 -0.0012 -0.9912 -0.4659
  423MOL0     C55757   2.917  10.425  10.998  0.5410  0.4827  0.0190
  423MOL0     C55758   3.101  10.013  10.842 -0.4378  0.2343 -0.0262
  423MOL0     C55759   3.066   9.889  10.791 -0.2330 -0.4834  0.3326
  423MOL0     C55760   3.158   9.798  10.743 -0.2169 -0.0088  0.3626
  423MOL0     C55761   3.294   9.827  10.742 -0.9681  0.9365  0.4756
  423MOL0     O55762   3.384   9.737  10.687  0.2888  0.0863  0.0512
  423MOL0     C55763   3.483   9.683  10.775  0.1574 -0.5563 -0.0928
  423MOL0     C55764   3.416   9.605  10.891 -0.5261 -0.5036  0.3502
  423MOL0     C55765   3.318   9.500  10.849  0.1406  1.0347  0.5236
  423MOL0     C55766   3.318   9.384  10.952 -0.2693 -1.1493  0.1301
  423MOL0     C55767   3.219   9.280  10.904  0.1292  0.3029  0.3823
  423MOL0     C55768   3.143   9.183  10.877 -0.6615  0.4378 -0.3084
  423MOL0     C55769   3.334   9.952  10.796  0.3876  0.3524  0.0473
  423MOL0     C55770   3.243  10.047  10.851  0.5523  0.4689  0.4370
  423MOL0     H55771   2.838  10.265  10.710  0.0706 -1.2935  1.0156
  423MOL0     H55772   2.650  10.441  10.712 -0.0691  1.9765 -0.7709
  423MOL0     H55773   2.772  10.781  10.969 -0.5436  0.9833  2.1339
  423MOL0     H55774   2.634  10.740  11.070  0.9364 -0.2423  0.1806
  423MOL0     H55775   2.475  10.854  10.907 -0.0677 -1.1413 -3.3363
  423MOL0     H55776   2.611  10.894  10.801 -0.7901  1.7463  0.1698
  423MOL0     H55777   2.587  11.087  10.920  0.5867 -0.7889 -0.6774
  423MOL0     H55778   2.708  11.012  11.025 -0.4301  0.1101  2.4613
  423MOL0     H55779   2.413  11.045  11.041  0.5929  0.1181 -2.4999
  423MOL0     H55780   2.498  10.921  11.148  1.7787  1.5756  2.3676
  423MOL0     H55781   2.618  11.091  11.274  0.5682  0.5455 -0.2856
  423MOL0     H55782   2.445  11.127  11.274 -1.7529 -1.4724 -0.9062
  423MOL0     H55783   2.629  11.244  11.067 -3.6776 -1.7690 -3.3531
  423MOL0     H55784   2.613  11.318  11.230  0.5161 -1.4252  0.3397
  423MOL0     H55785   2.486  11.415  11.038  0.1374 -2.0007 -2.5386
  423MOL0     H55786   2.385  11.265  11.045  1.0902 -0.0144 -1.7423
  423MOL0     H55787   2.425  11.474  11.271 -1.0819 -0.3762  1.8452
  423MOL0     H55788   2.330  11.329  11.283 -1.6959  1.2259 -0.7575
  423MOL0     H55789   2.138  11.288  11.056 -2.4909  0.8170 -4.6007
  423MOL0     H55790   1.894  11.351  10.979  3.5144 -0.0251  0.6125
  423MOL0     H55791   1.939  11.491  10.884 -1.9025 -0.7479 -0.8372
  423MOL0     H55792   1.805  11.637  11.041 -0.8068  0.6748  2.1165
  423MOL0     H55793   1.779  11.501  11.154 -0.3903 -2.7329 -0.3838
  423MOL0     H55794   1.684  11.513  10.866  1.6930  0.1594  0.0683
  423MOL0     H55795   1.631  11.401  10.993  0.0600 -0.0045 -1.0164
  423MOL0     H55796   1.591  11.702  11.028  1.5933 -0.7106  3.4774
  423MOL0     H55797   1.515  11.569  11.118 -1.9090  2.3080  0.2130
  423MOL0     H55798   1.256  11.541  10.775  1.1793 -0.5547  0.2293
  423MOL0     H55799   1.016  11.586  10.819 -1.8064  0.1381  1.3825
  423MOL0     H55800   0.625  11.587  11.157  0.1806  1.2310  2.6216
  423MOL0     H55801   0.409  11.695  11.199 -0.9089  3.8393  0.8548
  423MOL0     H55802   0.192  12.006  11.211  1.7131  0.1125  1.3480
  423MOL0     H55803   0.292  11.886  11.287  1.0908 -0.8980 -0.9399
  423MOL0     H55804   0.044  11.839  11.225  1.1157  0.1029  2.3499
  423MOL0     H55805   0.167  11.706  11.202 -1.8212 -0.9112 -0.0236
  423MOL0     H55806   0.176  11.730  10.970  0.3098  0.0076  0.0859
  423MOL0     H55807   0.097  11.881  10.953 -0.9120  0.1441 -1.5112
  423MOL0     H55808  -0.118  11.767  11.045  1.0960  0.3576  1.6776
  423MOL0     H55809  -0.059  11.733  10.883 -0.6906  0.0674 -0.3105
  423MOL0     H55810  -0.024  11.570  11.141 -2.7222 -2.6696 -1.0916
  423MOL0     H55811   0.065  11.526  11.008 -0.2084 -1.8066  1.2949
  423MOL0     H55812  -0.172  11.520  10.874  2.6677 -0.6979 -0.2925
  423MOL0     H55813  -0.235  11.551  11.038 -1.6791 -1.5499 -0.9318
  423MOL0     H55814  -0.082  11.307  10.917  0.8481 -1.9035  0.8600
  423MOL0     H55815  -0.101  11.331  11.090 -0.1108 -1.1547 -0.4752
  423MOL0     H55816  -0.330  11.312  10.902 -0.0984  1.8109  0.6067
  423MOL0     H55817  -0.333  11.347  11.078 -1.7981 -0.2164 -0.1252
  423MOL0     H55818   0.518  11.998  10.906  0.4189 -0.1990 -0.9612
  423MOL0     H55819   0.714  11.869  10.855  0.4599 -1.7051  0.5563
  423MOL0     H55820   1.135  11.718  11.220 -2.2175 -0.5760  0.9484
  423MOL0     H55821   1.366  11.714  11.136  2.2581  0.6847 -3.7042
  423MOL0     H55822   2.809  10.587  11.080  1.1197  1.0209 -1.7558
  423MOL0     H55823   2.990  10.412  11.078 -1.5742 -0.5792  1.8981
  423MOL0     H55824   2.961   9.860  10.790 -0.9000  1.6669  1.2986
  423MOL0     H55825   3.123   9.706  10.696 -0.5795  0.3048  0.0150
  423MOL0     H55826   3.548   9.758  10.820 -1.2573 -1.3091  3.5917
  423MOL0     H55827   3.542   9.611  10.717 -0.8330  0.2318 -2.1767
  423MOL0     H55828   3.500   9.554  10.940 -1.4993 -1.1038  1.4413
  423MOL0     H55829   3.367   9.677  10.957  0.5006 -2.0186  2.8961
  423MOL0     H55830   3.343   9.460  10.751  1.2313  1.2452  0.7082
  423MOL0     H55831   3.217   9.541  10.841 -1.0935 -2.0496 -1.3715
  423MOL0     H55832   3.417   9.341  10.966  0.4168  0.5047  0.5723
  423MOL0     H55833   3.291   9.421  11.051 -2.3820  0.8735 -1.1110
  423MOL0     H55834   3.075   9.108  10.842 -1.4845  0.7987  0.4902
  423MOL0     H55835   3.439   9.978  10.804  0.8705 -1.0989 -1.0971
  423MOL0     H55836   3.275  10.148  10.874  1.5745 -0.1104  1.6888
  424MOL0     O55837  10.832   9.015   9.102 -0.6909 -0.0266 -0.5954
  424MOL0     C55838  10.907   8.920   9.063 -0.6638 -0.2659 -0.5532
  424MOL0     O55839  10.868   8.788   9.039 -0.0755 -0.3851 -0.2119
  424MOL0     C55840  10.730   8.767   9.040 -0.1909 -0.1403  0.3119
  424MOL0     C55841  10.659   8.702   9.136  0.2074  0.6748 -0.7403
  424MOL0     C55842  10.523   8.685   9.129 -0.1328 -0.5977 -0.1103
  424MOL0     C55843  10.453   8.719   9.016  0.0603  0.7797  0.0143
  424MOL0     O55844  10.317   8.707   9.016 -0.1815  0.2444 -0.1273
  424MOL0     C55845  10.251   8.659   8.892  0.7788  0.5780 -0.9117
  424MOL0     C55846  10.100   8.654   8.928 -0.8377 -0.1265 -0.3326
  424MOL0     C55847  10.010   8.602   8.807  0.0759  0.1703 -0.4039
  424MOL0     C55848   9.862   8.611   8.839 -0.8482  0.6419  0.2899
  424MOL0     C55849   9.783   8.662   8.718  0.3067 -0.1907  0.4081
  424MOL0     C55850   9.643   8.609   8.705  0.2154  0.7822  0.0512
  424MOL0     C55851   9.561   8.660   8.821  0.0541  0.0035 -0.2230
  424MOL0     C55852   9.449   8.559   8.858 -0.8784 -0.2207 -0.2630
  424MOL0     N55853   9.348   8.543   8.749  0.4068 -0.1000 -0.9915
  424MOL0     C55854   9.275   8.640   8.683  0.4910 -0.2156 -0.7968
  424MOL0     C55855   9.214   8.574   8.577 -0.5493  1.2400 -0.1392
  424MOL0     C55856   9.125   8.625   8.466 -0.2631 -0.2547  0.0893
  424MOL0     C55857   8.993   8.565   8.498  0.1709 -0.3988 -0.3265
  424MOL0     C55858   8.880   8.589   8.389 -0.5648 -0.7721 -1.3059
  424MOL0     C55859   8.910   8.536   8.249 -0.4015  0.3869  0.0231
  424MOL0     O55860   8.815   8.580   8.153  1.1288 -0.5512  0.1487
  424MOL0     C55861   8.706   8.517   8.120  0.1675  0.5830  0.1325
  424MOL0     C55862   8.637   8.563   8.016 -0.0236 -0.8029 -0.2894
  424MOL0     C55863   8.517   8.525   7.976 -0.3838  0.1287  1.0336
  424MOL0     C55864   8.460   8.411   8.036  0.7954  0.7659 -0.3922
  424MOL0     C55865   8.330   8.350   7.997 -0.1781 -0.6212  0.2916
  424MOL0     O55866   8.287   8.229   8.057  0.0923 -0.7980  0.1466
  424MOL0     C55867   8.151   8.192   8.039  0.4110 -0.1019 -0.1749
  424MOL0     C55868   8.095   8.127   8.149  0.0722  0.6464 -0.1368
  424MOL0     C55869   7.962   8.078   8.142  0.0900  0.8086  0.6516
  424MOL0     C55870   7.889   8.089   8.023  0.5497  0.6269 -0.1579
  424MOL0     O55871   7.763   8.035   8.012 -0.2788 -0.3446  0.4177
  424MOL0     C55872   7.672   8.078   7.915  0.0214  0.5863  0.8121
  424MOL0     C55873   7.529   8.039   7.957 -0.3008 -0.4659  0.0516
  424MOL0     C55874   7.489   7.895   7.927 -0.7078 -0.2103  0.6717
  424MOL0     C55875   7.357   7.858   7.992 -0.3701 -0.5652  0.0637
  424MOL0     C55876   7.276   7.756   7.901 -0.0663 -1.0638  0.4548
  424MOL0     C55877   7.126   7.743   7.953  0.2262 -0.3367  0.5394
  424MOL0     C55878   7.050   7.669   7.846 -0.3083  0.5443  1.5479
  424MOL0     C55879   6.912   7.629   7.901 -0.2935 -0.3063  0.5671
  424MOL0    Cl55880   6.820   7.774   7.956 -0.3388 -0.1260 -0.2863
  424MOL0     C55881   7.949   8.146   7.908  0.5633  0.5067 -0.2354
  424MOL0     C55882   8.073   8.204   7.923  0.4691 -0.3387 -0.2134
  424MOL0     O55883   8.266   8.418   7.918 -0.3247 -0.4763 -0.1302
  424MOL0     C55884   8.528   8.352   8.143 -0.2051  0.3615  0.7512
  424MOL0     C55885   8.646   8.414   8.192 -0.4943  0.6129 -0.0998
  424MOL0     N55886   9.257   8.440   8.577 -0.3036  0.3610 -0.8195
  424MOL0     N55887   9.341   8.423   8.681  0.4866 -0.6345  0.1507
  424MOL0     C55888  10.523   8.787   8.911 -0.1378  0.3052 -0.7509
  424MOL0     C55889  10.663   8.811   8.926  0.5396 -0.1965  0.1020
  424MOL0     C55890  11.050   8.939   9.064  0.0582 -0.6919 -0.2543
  424MOL0     C55891  11.104   9.056   9.117 -0.4600 -0.4318  0.0486
  424MOL0     C55892  11.238   9.064   9.143  0.2586  0.4789  0.0944
  424MOL0     C55893  11.328   8.956   9.114 -1.0897 -0.4938 -0.4284
  424MOL0     O55894  11.454   8.965   9.155 -0.4474  0.4572 -0.0169
  424MOL0     C55895  11.540   8.844   9.169 -0.4116 -0.6174  0.0542
  424MOL0     C55896  11.608   8.849   9.309 -0.5798 -0.0546 -0.4480
  424MOL0     C55897  11.738   8.772   9.309 -0.4691 -0.0315  0.2421
  424MOL0     C55898  11.795   8.751   9.446  0.0278 -0.1100 -0.4695
  424MOL0     C55899  11.928   8.698   9.432  0.1210  0.8415  0.8559
  424MOL0     C55900  12.040   8.657   9.416  0.3039 -0.3631 -0.4230
  424MOL0     C55901  11.280   8.854   9.033 -0.8265 -0.2540 -0.8701
  424MOL0     C55902  11.142   8.849   9.012  0.6260 -0.2381 -0.3091
  424MOL0     H55903  10.697   8.663   9.229 -2.4170  1.5471  0.8058
  424MOL0     H55904  10.476   8.646   9.219 -0.3207 -0.9117 -0.3453
  424MOL0     H55905  10.285   8.561   8.857 -1.3174  0.2743 -2.2146
  424MOL0     H55906  10.263   8.723   8.804  2.3620  2.1036  0.3430
  424MOL0     H55907  10.080   8.756   8.963  0.0944  0.2520 -0.8631
  424MOL0     H55908  10.082   8.588   9.014 -1.7516 -0.3712 -0.6967
  424MOL0     H55909  10.048   8.505   8.773  0.9754  0.7966 -1.2385
  424MOL0     H55910  10.025   8.671   8.723  2.6618  1.4021  0.9681
  424MOL0     H55911   9.820   8.516   8.874  1.1153  0.3792  2.0698
  424MOL0     H55912   9.844   8.675   8.925 -2.4811 -0.7290  1.0418
  424MOL0     H55913   9.829   8.633   8.623 -2.3690 -2.0348 -0.4456
  424MOL0     H55914   9.784   8.771   8.710 -0.4458 -0.3108 -3.9924
  424MOL0     H55915   9.650   8.500   8.694 -0.9422  0.5486  1.4301
  424MOL0     H55916   9.604   8.642   8.608  0.5600 -1.4451 -0.9280
  424MOL0     H55917   9.621   8.667   8.912 -2.1344 -0.8962  1.3757
  424MOL0     H55918   9.515   8.754   8.791 -1.9376 -0.4182  1.3177
  424MOL0     H55919   9.387   8.603   8.937 -2.5859 -0.0575 -1.6051
  424MOL0     H55920   9.483   8.458   8.879 -0.5739 -0.0764 -0.0693
  424MOL0     H55921   9.258   8.743   8.715 -0.5396 -0.6017 -0.0262
  424MOL0     H55922   9.163   8.587   8.371 -1.8275 -1.2218 -0.1858
  424MOL0     H55923   9.113   8.733   8.458 -1.8843 -0.5229 -1.8660
  424MOL0     H55924   8.959   8.598   8.597  0.3118 -0.5139 -0.2401
  424MOL0     H55925   9.002   8.457   8.513 -2.3070 -0.7431 -0.8649
  424MOL0     H55926   8.794   8.533   8.426  0.3571 -1.7272 -0.5179
  424MOL0     H55927   8.867   8.697   8.390 -3.9389 -1.0691  0.8745
  424MOL0     H55928   8.928   8.429   8.240 -2.3290  0.1379 -1.9305
  424MOL0     H55929   9.004   8.570   8.203 -1.5151  0.1903 -2.5783
  424MOL0     H55930   8.687   8.647   7.967 -1.8041  0.5977  0.1870
  424MOL0     H55931   8.467   8.579   7.896  2.6800  1.3278 -0.2312
  424MOL0     H55932   8.150   8.116   8.242 -1.0819 -0.5766  0.4198
  424MOL0     H55933   7.917   8.037   8.232 -0.1380  3.0888  1.6394
  424MOL0     H55934   7.694   8.015   7.829  0.7373  0.0108  1.3998
  424MOL0     H55935   7.669   8.186   7.899 -0.1782  0.4213 -0.3635
  424MOL0     H55936   7.461   8.105   7.902 -0.1288 -0.2047  0.1476
  424MOL0     H55937   7.519   8.043   8.066 -1.0465  1.3287 -0.0438
  424MOL0     H55938   7.564   7.818   7.947  0.8250  0.1333 -2.8706
  424MOL0     H55939   7.477   7.888   7.818 -0.7934 -1.6100  0.7519
  424MOL0     H55940   7.372   7.822   8.094 -0.8393 -0.5317  0.1476
  424MOL0     H55941   7.299   7.950   8.008  1.0375  1.0683 -3.1955
  424MOL0     H55942   7.328   7.661   7.886  0.3594 -1.0935  1.9184
  424MOL0     H55943   7.274   7.803   7.803 -0.5888 -0.2668  0.8402
  424MOL0     H55944   7.093   7.847   7.965  1.9693  0.2689  0.3211
  424MOL0     H55945   7.131   7.687   8.046 -1.1159 -1.3166  0.0639
  424MOL0     H55946   7.031   7.740   7.765  1.0766  0.3232  1.0109
  424MOL0     H55947   7.101   7.581   7.807 -0.4107  1.2967 -0.3911
  424MOL0     H55948   6.930   7.565   7.987 -0.3865  0.5120  1.2129
  424MOL0     H55949   6.863   7.568   7.825 -1.3784  1.1775  0.0138
  424MOL0     H55950   7.893   8.152   7.815  0.6614 -0.2147 -0.3430
  424MOL0     H55951   8.117   8.246   7.833 -0.3112 -1.4166 -1.1288
  424MOL0     H55952   8.481   8.262   8.183 -2.0185 -0.5368 -2.9568
  424MOL0     H55953   8.699   8.367   8.275 -1.9309 -2.7089 -0.8888
  424MOL0     H55954  10.474   8.818   8.819  1.2718 -1.7470 -2.2714
  424MOL0     H55955  10.700   8.875   8.846 -0.2448  0.7147  0.4508
  424MOL0     H55956  11.046   9.130   9.171  1.0365  1.4695 -0.8371
  424MOL0     H55957  11.268   9.155   9.194 -0.0668  0.2745  0.6581
  424MOL0     H55958  11.617   8.835   9.093 -1.9573 -2.2714 -1.4076
  424MOL0     H55959  11.495   8.744   9.170  3.6454 -2.7300 -1.9556
  424MOL0     H55960  11.632   8.955   9.318 -1.2206  0.1435 -1.0005
  424MOL0     H55961  11.547   8.828   9.398  0.7814  1.0031  0.7874
  424MOL0     H55962  11.807   8.828   9.246  2.2090 -0.9473  2.1750
  424MOL0     H55963  11.730   8.678   9.252  1.0240 -1.1366  1.7599
  424MOL0     H55964  11.800   8.846   9.500  0.0019  0.4526 -1.4392
  424MOL0     H55965  11.725   8.685   9.499  0.8112  1.5878  3.0166
  424MOL0     H55966  12.146   8.653   9.398  0.2732 -1.8267 -0.4037
  424MOL0     H55967  11.349   8.779   8.996  1.6959  0.8129  1.3004
  424MOL0     H55968  11.103   8.765   8.955  1.1704 -0.7216  0.0260
  425MOL0     O55969   1.419  10.927  10.820  0.4523 -0.5535  0.2699
  425MOL0     C55970   1.332  10.890  10.902 -0.0578 -0.3530 -0.0518
  425MOL0     O55971   1.200  10.869  10.872  0.2306  0.0160 -0.8808
  425MOL0     C55972   1.157  10.924  10.752  0.4417  0.2961  0.0950
  425MOL0     C55973   1.173  11.060  10.727 -0.8688 -0.2953  0.3953
  425MOL0     C55974   1.129  11.114  10.612 -0.1097  0.6409 -0.0231
  425MOL0     C55975   1.073  11.026  10.514  1.4268  0.3255 -0.3484
  425MOL0     O55976   1.028  11.072  10.391  0.2345  0.3882  0.4492
  425MOL0     C55977   1.112  11.154  10.301 -0.5930 -0.1354 -0.2408
  425MOL0     C55978   1.041  11.183  10.174 -0.4657 -0.3643  0.7904
  425MOL0     C55979   1.023  11.045  10.096 -0.3315  0.7757 -0.8002
  425MOL0     C55980   0.980  11.071   9.954  0.3063 -0.0392  0.2070
  425MOL0     C55981   0.937  10.931   9.906  0.0151 -0.0676  0.0328
  425MOL0     C55982   0.856  10.944   9.777 -0.1068 -0.1867 -0.0182
  425MOL0     C55983   0.932  10.982   9.657 -0.1897  0.0123  0.6570
  425MOL0     C55984   1.000  10.865   9.589  0.7465 -0.0136  0.4327
  425MOL0     N55985   0.918  10.785   9.495  0.6209 -0.6561 -0.2756
  425MOL0     C55986   0.860  10.828   9.377  0.0928 -0.2105 -0.0349
  425MOL0     C55987   0.769  10.727   9.347  0.1832  1.0446  0.2235
  425MOL0     C55988   0.666  10.711   9.233  0.3876  0.4299 -0.2147
  425MOL0     C55989   0.535  10.762   9.280 -0.7135  0.1023  0.3945
  425MOL0     C55990   0.465  10.676   9.389  0.0208  0.5394 -0.2957
  425MOL0     C55991   0.319  10.714   9.399 -0.6679 -0.0010 -0.3897
  425MOL0     O55992   0.261  10.636   9.503 -0.4515 -0.6392  0.3297
  425MOL0     C55993   0.127  10.624   9.512 -0.0292  0.4380  0.1348
  425MOL0     C55994   0.032  10.704   9.440 -1.2176  0.4978  0.6196
  425MOL0     C55995  -0.107  10.697   9.453  0.3270  0.2507 -1.2976
  425MOL0     C55996  -0.157  10.601   9.542  0.4723 -0.4829 -0.2423
  425MOL0     C55997  -0.306  10.589   9.566  0.4530 -0.4202 -0.7737
  425MOL0     O55998  -0.385  10.691   9.523  0.5739 -0.6872 -0.4970
  425MOL0     C55999  -0.520  10.702   9.551 -0.5447 -0.1627  0.8000
  425MOL0     C56000  -0.592  10.661   9.664  0.3948  0.0695 -0.4161
  425MOL0     C56001  -0.729  10.678   9.671  0.5369 -0.2819  0.3902
  425MOL0     C56002  -0.800  10.748   9.570 -0.2025  0.8012  0.1097
  425MOL0     O56003  -0.937  10.776   9.582  0.0426 -0.3516  0.2480
  425MOL0     C56004  -1.004  10.763   9.707  0.8436 -0.1443 -0.8116
  425MOL0     C56005  -1.138  10.786   9.676  0.6366  0.3024 -0.2041
  425MOL0     C56006  -1.224  10.748   9.792 -1.0915 -0.4185 -1.4051
  425MOL0     C56007  -1.374  10.766   9.758  0.8718  0.9323  1.1110
  425MOL0     C56008  -1.461  10.736   9.887 -0.9096 -0.9306  0.0489
  425MOL0     C56009  -1.604  10.785   9.899 -0.0139 -0.2517 -0.2287
  425MOL0     C56010  -1.701  10.680   9.851  0.1771  0.4406 -0.0177
  425MOL0     C56011  -1.836  10.744   9.857  0.4672  0.6455  0.6690
  425MOL0    Cl56012  -1.945  10.613   9.790  0.3969  0.2168  0.4037
  425MOL0     C56013  -0.729  10.787   9.461  0.8264  0.6853 -0.2415
  425MOL0     C56014  -0.591  10.767   9.452 -0.3938  0.7249 -0.2975
  425MOL0     O56015  -0.346  10.488   9.609  0.1781  0.1876 -0.4323
  425MOL0     C56016  -0.069  10.525   9.616  0.1644 -0.1858  0.0519
  425MOL0     C56017   0.071  10.526   9.604 -0.0388 -0.7856 -0.3689
  425MOL0     N56018   0.785  10.629   9.435  0.5924 -0.6659 -0.7402
  425MOL0     N56019   0.871  10.660   9.522  0.5310 -0.4277  0.1416
  425MOL0     C56020   1.058  10.889  10.539 -0.3723  0.4282 -0.3167
  425MOL0     C56021   1.106  10.835  10.658 -1.0159  0.0206  1.5073
  425MOL0     C56022   1.381  10.871  11.045 -0.0273 -0.3261 -0.3791
  425MOL0     C56023   1.287  10.879  11.150 -1.0752 -0.0554 -0.5864
  425MOL0     C56024   1.336  10.861  11.282  0.1975  0.6175  0.0607
  425MOL0     C56025   1.466  10.830  11.310 -0.0381  0.2525  0.1250
  425MOL0     O56026   1.490  10.805  11.444 -0.0014 -0.4062 -0.1013
  425MOL0     C56027   1.630  10.797  11.479 -0.3236 -0.4152  1.1284
  425MOL0     C56028   1.705  10.933  11.484 -0.1137 -0.2738  0.0974
  425MOL0     C56029   1.621  11.023  11.583 -0.6014  0.5382 -0.1739
  425MOL0     C56030   1.665  11.169  11.600 -0.6597  0.5603 -0.3960
  425MOL0     C56031   1.798  11.173  11.656  0.0884  0.3861 -1.0659
  425MOL0     C56032   1.916  11.171  11.688  0.2175 -0.9253  0.1215
  425MOL0     C56033   1.548  10.812  11.198  0.5112  1.3189 -0.2613
  425MOL0     C56034   1.509  10.822  11.069  0.3469 -0.3966  0.0501
  425MOL0     H56035   1.224  11.125  10.796  0.3015  0.0833 -0.7793
  425MOL0     H56036   1.149  11.221  10.609  0.4654  0.6630  2.3673
  425MOL0     H56037   1.209  11.110  10.277  0.4384  1.1369  1.3333
  425MOL0     H56038   1.142  11.247  10.350 -0.4183  0.0736 -0.7442
  425MOL0     H56039   1.096  11.252  10.108 -0.4736  0.8893  2.0413
  425MOL0     H56040   0.945  11.228  10.200 -0.5788 -0.6906  0.9441
  425MOL0     H56041   0.949  10.986  10.152  0.0537  1.1937  0.1756
  425MOL0     H56042   1.119  10.993  10.092 -0.8688 -0.4291  0.8130
  425MOL0     H56043   0.891  11.133   9.964  0.7538  0.7780 -0.7711
  425MOL0     H56044   1.061  11.125   9.904  1.7156 -0.7364  1.6356
  425MOL0     H56045   0.877  10.877   9.980 -1.6008  1.5327 -0.0424
  425MOL0     H56046   1.029  10.876   9.885 -0.6274 -0.7902 -1.0179
  425MOL0     H56047   0.779  11.020   9.792 -2.3311 -2.0237 -1.4603
  425MOL0     H56048   0.799  10.851   9.766  0.4981 -0.4684 -0.8886
  425MOL0     H56049   0.856  11.020   9.588  0.3217 -0.0039  0.0787
  425MOL0     H56050   1.011  11.051   9.687  2.0412 -2.2259  0.2713
  425MOL0     H56051   1.036  10.800   9.669 -0.9365  0.0404  1.2740
  425MOL0     H56052   1.090  10.901   9.539 -0.0263 -0.8287 -1.6722
  425MOL0     H56053   0.865  10.925   9.328 -1.9638  0.7101  1.4508
  425MOL0     H56054   0.667  10.609   9.193  0.8444  1.1751 -2.2544
  425MOL0     H56055   0.692  10.775   9.148  0.2020 -2.4563 -2.6034
  425MOL0     H56056   0.483  10.769   9.185 -0.6636 -0.1137  0.3513
  425MOL0     H56057   0.553  10.866   9.310  0.5371  1.4046 -4.0910
  425MOL0     H56058   0.476  10.567   9.378 -0.7600  0.2953  1.0989
  425MOL0     H56059   0.511  10.698   9.485  1.3741 -0.2130 -0.7456
  425MOL0     H56060   0.263  10.697   9.306 -1.6751 -0.7731  0.3383
  425MOL0     H56061   0.304  10.822   9.406  2.7111  0.4958  1.0389
  425MOL0     H56062   0.075  10.777   9.373  0.2057 -2.4386 -1.9208
  425MOL0     H56063  -0.181  10.763   9.409 -2.0866 -0.2701  1.6149
  425MOL0     H56064  -0.538  10.609   9.742  0.2042 -1.2449 -1.1264
  425MOL0     H56065  -0.776  10.634   9.759 -1.0314 -0.6483 -0.5831
  425MOL0     H56066  -0.983  10.847   9.774  0.5215  0.3762 -1.3479
  425MOL0     H56067  -0.997  10.663   9.749 -4.0561  0.0650  1.1249
  425MOL0     H56068  -1.161  10.722   9.590 -1.4061 -0.1186  0.6066
  425MOL0     H56069  -1.158  10.891   9.651  0.2129 -0.0438 -1.3897
  425MOL0     H56070  -1.199  10.819   9.871 -2.7348 -1.0954 -0.2027
  425MOL0     H56071  -1.191  10.646   9.812 -0.2682 -0.8839 -4.6105
  425MOL0     H56072  -1.405  10.863   9.718 -1.3892 -0.6442 -1.2867
  425MOL0     H56073  -1.406  10.693   9.684 -2.6871  3.1692  0.2074
  425MOL0     H56074  -1.406  10.778   9.972  0.4967 -2.2863 -0.1520
  425MOL0     H56075  -1.458  10.628   9.903 -1.8132 -1.2213 -1.5106
  425MOL0     H56076  -1.613  10.875   9.837 -1.0497  0.6565  1.1639
  425MOL0     H56077  -1.630  10.827   9.997  4.4055 -0.2304  1.1356
  425MOL0     H56078  -1.678  10.661   9.746 -0.3743  2.5348 -0.5658
  425MOL0     H56079  -1.707  10.587   9.909 -0.4002  1.1515  1.0999
  425MOL0     H56080  -1.840  10.833   9.793 -0.3775 -0.4830 -0.8871
  425MOL0     H56081  -1.881  10.758   9.956 -0.9454  0.7765  0.0248
  425MOL0     H56082  -0.784  10.849   9.392 -0.3596  0.0357  0.1030
  425MOL0     H56083  -0.523  10.800   9.374  0.8032 -2.3049 -0.6738
  425MOL0     H56084  -0.108  10.455   9.690 -0.3545 -1.4371 -1.3689
  425MOL0     H56085   0.144  10.455   9.643  3.1529  1.9906 -0.7616
  425MOL0     H56086   1.022  10.818  10.465 -0.2776  2.0009 -1.9416
  425MOL0     H56087   1.103  10.727  10.670  0.3564 -0.1771  0.3385
  425MOL0     H56088   1.183  10.896  11.125 -1.7258 -0.0021  1.9045
  425MOL0     H56089   1.264  10.864  11.363  0.4115 -3.2292  0.5818
  425MOL0     H56090   1.688  10.735  11.409 -0.8929  0.3330 -0.0366
  425MOL0     H56091   1.646  10.751  11.577 -0.1252 -1.3042  0.6899
  425MOL0     H56092   1.809  10.923  11.516  0.2817 -1.6476 -1.4655
  425MOL0     H56093   1.704  10.980  11.385 -1.6733 -0.1961  0.1239
  425MOL0     H56094   1.623  10.979  11.683 -3.6210 -0.5685 -0.5074
  425MOL0     H56095   1.519  11.035  11.547  0.3864  0.7557 -3.1669
  425MOL0     H56096   1.668  11.224  11.505 -1.3340  2.1604  0.4576
  425MOL0     H56097   1.592  11.217  11.665  0.1213 -0.3059  1.1547
  425MOL0     H56098   2.020  11.153  11.703  0.1187  0.0096  2.3250
  425MOL0     H56099   1.651  10.789  11.220 -0.6052 -1.7520  2.5886
  425MOL0     H56100   1.577  10.813  10.985  0.7606  0.7561  0.2277
  426MOL0     O56101   8.890   5.131   5.491  0.6672 -0.1812  0.1003
  426MOL0     C56102   8.923   5.057   5.584  0.4138 -0.3208  0.3338
  426MOL0     O56103   8.842   4.959   5.633  0.7768 -0.3357  0.0060
  426MOL0     C56104   8.721   4.956   5.576 -0.1214  0.4354 -0.2285
  426MOL0     C56105   8.612   5.018   5.640  0.2162  0.6288  0.1914
  426MOL0     C56106   8.495   5.019   5.562 -0.3005 -1.1432  0.3576
  426MOL0     C56107   8.483   4.958   5.434 -0.2534 -0.2323 -0.3787
  426MOL0     O56108   8.370   4.963   5.353 -0.0776  0.4586 -0.4686
  426MOL0     C56109   8.247   5.004   5.410 -0.3532 -0.2197  0.1284
  426MOL0     C56110   8.140   4.950   5.316  0.5621  0.6399  0.0172
  426MOL0     C56111   8.001   4.986   5.378 -0.5606  0.5286  0.6990
  426MOL0     C56112   7.971   5.131   5.351  0.1577  0.3202 -0.4463
  426MOL0     C56113   7.855   5.181   5.449  0.1606  0.1163  0.3171
  426MOL0     C56114   7.821   5.323   5.427  0.0557 -0.0428 -0.5594
  426MOL0     C56115   7.773   5.344   5.279  0.0607 -0.6899 -0.7608
  426MOL0     C56116   7.710   5.484   5.256 -0.1026  0.1612 -0.0245
  426MOL0     N56117   7.806   5.589   5.275  0.0268 -0.2719  0.0536
  426MOL0     C56118   7.919   5.613   5.194 -0.8922 -0.4020  0.1580
  426MOL0     C56119   7.981   5.718   5.240  1.2950  0.1019  0.4169
  426MOL0     C56120   8.099   5.798   5.182 -0.0302  0.7730 -0.9441
  426MOL0     C56121   8.223   5.772   5.282  0.1898  0.3901  0.1943
  426MOL0     C56122   8.346   5.840   5.224  0.5713  1.1630 -0.5950
  426MOL0     C56123   8.464   5.838   5.312 -0.2618 -0.1375 -0.0419
  426MOL0     O56124   8.465   5.937   5.413  0.1711 -0.6451 -0.2913
  426MOL0     C56125   8.579   5.957   5.487 -0.6109  0.0822 -0.0524
  426MOL0     C56126   8.588   6.078   5.553 -0.2982 -0.0161 -0.5577
  426MOL0     C56127   8.694   6.109   5.626  0.0503  0.6843 -0.6924
  426MOL0     C56128   8.797   6.020   5.654  0.1846  0.6943 -0.2404
  426MOL0     C56129   8.911   6.048   5.749  0.4419 -0.1658  0.1534
  426MOL0     O56130   8.992   5.948   5.790  0.5020 -0.1960  0.7098
  426MOL0     C56131   9.078   5.960   5.895  0.2057  0.2338 -0.6925
  426MOL0     C56132   9.052   5.890   6.020 -0.3121  0.0363 -0.4197
  426MOL0     C56133   9.144   5.883   6.119  0.0420  0.0247 -0.2715
  426MOL0     C56134   9.268   5.949   6.104 -0.1485 -0.0328  0.3959
  426MOL0     O56135   9.348   5.943   6.209 -0.8787 -1.0551  0.9514
  426MOL0     C56136   9.489   5.985   6.187 -0.1765  0.2464 -0.9197
  426MOL0     C56137   9.571   5.965   6.324 -1.2934 -0.2727  0.5485
  426MOL0     C56138   9.722   5.935   6.297  0.3027  0.5557 -1.0444
  426MOL0     C56139   9.793   5.883   6.424  0.1012 -1.2477 -0.2032
  426MOL0     C56140   9.923   5.809   6.387 -0.2224 -0.0787 -0.6769
  426MOL0     C56141   9.909   5.673   6.307  0.3734 -0.0082  0.8117
  426MOL0     C56142  10.045   5.599   6.282  0.0352  0.3041 -0.0532
  426MOL0     C56143  10.034   5.447   6.305 -0.1935 -0.3822  0.4456
  426MOL0    Cl56144   9.936   5.364   6.165  0.1836  0.0508 -0.3836
  426MOL0     C56145   9.296   6.012   5.982  0.2678 -0.2577  0.2244
  426MOL0     C56146   9.198   6.022   5.878 -0.5884 -0.8679 -0.6217
  426MOL0     O56147   8.923   6.162   5.785 -0.2583  0.1957 -0.5126
  426MOL0     C56148   8.789   5.894   5.588  0.1668 -0.1864  0.8280
  426MOL0     C56149   8.685   5.872   5.492  0.2440  0.0082 -0.1591
  426MOL0     N56150   7.898   5.768   5.343 -0.3745 -0.2204  0.8236
  426MOL0     N56151   7.806   5.691   5.366  0.2378  0.5400 -0.1267
  426MOL0     C56152   8.589   4.888   5.383  0.0075  0.5776  0.1441
  426MOL0     C56153   8.709   4.882   5.455 -0.7985 -0.1965  0.1976
  426MOL0     C56154   9.058   5.074   5.641 -0.2591 -0.1739  0.2018
  426MOL0     C56155   9.100   4.995   5.749 -0.7088  0.3487  0.2252
  426MOL0     C56156   9.226   5.015   5.801  0.7288 -0.2330 -0.5049
  426MOL0     C56157   9.316   5.110   5.755 -0.2951 -1.0355 -0.4941
  426MOL0     O56158   9.443   5.109   5.810  0.4720 -0.2428 -0.9994
  426MOL0     C56159   9.517   5.230   5.818  0.0913  0.9557 -0.0010
  426MOL0     C56160   9.635   5.231   5.709  0.0920  0.3697 -0.0524
  426MOL0     C56161   9.720   5.362   5.720  0.0662  0.9144  0.0960
  426MOL0     C56162   9.708   5.440   5.597 -0.1066  0.7672 -0.1955
  426MOL0     C56163   9.581   5.508   5.577  0.1168  0.3842  0.0862
  426MOL0     C56164   9.478   5.568   5.586 -0.2341  0.5942  0.2577
  426MOL0     C56165   9.275   5.191   5.656 -0.4309 -0.0841  0.5478
  426MOL0     C56166   9.150   5.177   5.591  0.3862 -0.1893 -0.2027
  426MOL0     H56167   8.631   5.075   5.731 -0.9839  1.2933  0.0468
  426MOL0     H56168   8.405   5.062   5.606 -1.4080 -0.6918 -2.1618
  426MOL0     H56169   8.244   5.113   5.413  0.6309 -0.2061  1.1226
  426MOL0     H56170   8.231   4.965   5.511  0.8302 -0.0458  0.4034
  426MOL0     H56171   8.153   4.841   5.323  0.5954  0.4701 -1.9902
  426MOL0     H56172   8.154   4.980   5.212  3.5036  2.0933  0.7102
  426MOL0     H56173   7.999   4.953   5.483 -0.6966 -1.2979  0.1559
  426MOL0     H56174   7.929   4.932   5.316  0.7306 -0.8775  0.3531
  426MOL0     H56175   8.058   5.195   5.366 -1.6392  2.4595  1.9281
  426MOL0     H56176   7.946   5.144   5.245 -0.1817 -1.1102 -0.5597
  426MOL0     H56177   7.888   5.155   5.550  1.3761 -3.5298 -0.8596
  426MOL0     H56178   7.765   5.124   5.424  1.2667 -0.7380 -1.9994
  426MOL0     H56179   7.909   5.388   5.432  0.6835 -0.9600  0.8977
  426MOL0     H56180   7.754   5.364   5.502 -1.8737 -1.8511 -1.2123
  426MOL0     H56181   7.866   5.332   5.223  0.2122 -0.9992 -0.4488
  426MOL0     H56182   7.693   5.272   5.258 -0.4671 -1.0425  2.0307
  426MOL0     H56183   7.629   5.507   5.326 -1.7983 -2.3949 -1.0215
  426MOL0     H56184   7.670   5.495   5.155 -1.5901 -0.2200  0.5076
  426MOL0     H56185   7.945   5.555   5.106 -0.3798  3.1590 -2.2291
  426MOL0     H56186   8.080   5.906   5.179 -2.7371  0.5385  2.1772
  426MOL0     H56187   8.114   5.762   5.080  1.8827  0.2288 -0.5186
  426MOL0     H56188   8.236   5.666   5.305  1.7448  0.0835 -1.8358
  426MOL0     H56189   8.198   5.828   5.372  1.3968 -0.7877  1.2909
  426MOL0     H56190   8.378   5.786   5.135  0.6965  1.0754 -0.4962
  426MOL0     H56191   8.309   5.937   5.191 -0.3848  0.0932 -2.9479
  426MOL0     H56192   8.558   5.850   5.257 -0.3247 -1.4120 -0.4537
  426MOL0     H56193   8.469   5.737   5.354 -0.5050  0.5354  1.6651
  426MOL0     H56194   8.504   6.147   5.558 -0.4889 -0.2271 -0.7730
  426MOL0     H56195   8.707   6.204   5.678  0.9008  0.8964 -1.2669
  426MOL0     H56196   8.962   5.835   6.046 -0.9558  1.2444  0.0410
  426MOL0     H56197   9.121   5.831   6.212  0.4588 -0.3341 -0.3655
  426MOL0     H56198   9.490   6.093   6.170  0.1259  0.5020  0.5996
  426MOL0     H56199   9.546   5.925   6.115 -0.3335 -0.4228 -0.4937
  426MOL0     H56200   9.518   5.897   6.392 -1.3559 -0.4814  0.2932
  426MOL0     H56201   9.565   6.060   6.378  0.9976 -1.7207  3.7053
  426MOL0     H56202   9.782   6.022   6.270 -0.6327  1.9345  1.1167
  426MOL0     H56203   9.728   5.863   6.214  0.2668  0.5736 -1.0625
  426MOL0     H56204   9.819   5.971   6.483 -2.0220  0.9126 -2.2470
  426MOL0     H56205   9.716   5.828   6.479 -2.1984 -0.0253 -2.0351
  426MOL0     H56206   9.992   5.783   6.469 -1.4809 -2.0661 -0.1748
  426MOL0     H56207   9.977   5.882   6.327  0.7435  0.6640  1.0198
  426MOL0     H56208   9.859   5.690   6.212 -0.0373 -0.6569  0.9011
  426MOL0     H56209   9.839   5.605   6.357  0.6917  0.0119  1.2969
  426MOL0     H56210  10.099   5.614   6.188  2.4476 -1.2449  0.9703
  426MOL0     H56211  10.113   5.632   6.361  0.2165 -2.2303  0.9614
  426MOL0     H56212   9.996   5.433   6.406  0.9967 -0.3522  0.9172
  426MOL0     H56213  10.139   5.418   6.306  0.1388  0.7212  2.5176
  426MOL0     H56214   9.391   6.065   5.976  0.2053  0.1349  2.0663
  426MOL0     H56215   9.199   6.066   5.779 -0.3236  0.9995  0.1773
  426MOL0     H56216   8.862   5.817   5.606 -0.4329 -0.9411  0.0900
  426MOL0     H56217   8.684   5.770   5.454  0.2921 -0.4906  1.1133
  426MOL0     H56218   8.568   4.844   5.286 -1.0491 -2.1470  1.4948
  426MOL0     H56219   8.793   4.844   5.398 -1.4933  0.9985 -1.7104
  426MOL0     H56220   9.031   4.919   5.786  0.1187 -0.8199 -0.5392
  426MOL0     H56221   9.241   4.947   5.884 -1.5552 -0.3137 -0.0974
  426MOL0     H56222   9.564   5.230   5.917  1.3341  1.8488 -0.5519
  426MOL0     H56223   9.463   5.325   5.814 -0.6329  0.5638  0.2960
  426MOL0     H56224   9.708   5.153   5.731  0.9264  1.0902 -0.2332
  426MOL0     H56225   9.599   5.213   5.607 -0.4936  0.5856  0.1095
  426MOL0     H56226   9.822   5.338   5.750 -0.2815  1.2234  1.5766
  426MOL0     H56227   9.679   5.422   5.802 -0.8715 -0.9321  1.0221
  426MOL0     H56228   9.783   5.519   5.612  2.3104 -1.5837  1.0072
  426MOL0     H56229   9.745   5.379   5.513  1.4275 -2.9884  2.8801
  426MOL0     H56230   9.387   5.625   5.589 -1.1909 -0.7386 -1.5345
  426MOL0     H56231   9.334   5.277   5.626 -1.5753  1.4846  2.5473
  426MOL0     H56232   9.112   5.237   5.508  0.2284  0.2784  0.2032
  427MOL0     O56233  10.072   5.436   3.764  0.0748 -0.1128 -0.0625
  427MOL0     C56234  10.132   5.426   3.875 -0.7360 -0.3979 -0.4188
  427MOL0     O56235  10.076   5.398   3.997  0.7153 -0.3167  0.5549
  427MOL0     C56236   9.941   5.381   3.992  0.0789  0.1840 -0.3245
  427MOL0     C56237   9.849   5.450   4.075  1.1476 -0.1035 -0.1350
  427MOL0     C56238   9.712   5.414   4.076 -0.8524  0.3209 -0.4546
  427MOL0     C56239   9.666   5.306   4.002  0.0073  0.3620  0.5820
  427MOL0     O56240   9.530   5.276   4.019  0.4624  0.9318 -0.6792
  427MOL0     C56241   9.469   5.180   3.931 -0.1896  1.0351  0.5633
  427MOL0     C56242   9.315   5.190   3.920 -0.0503  0.2191 -0.1904
  427MOL0     C56243   9.245   5.080   3.840 -0.3180  0.2972 -0.7266
  427MOL0     C56244   9.089   5.109   3.816 -0.1238 -0.3978 -0.3915
  427MOL0     C56245   9.020   4.989   3.745  0.9796 -0.9651 -0.4976
  427MOL0     C56246   8.872   5.009   3.749  0.6758  0.9905  0.5841
  427MOL0     C56247   8.822   4.882   3.669  0.5281  0.4402 -0.4549
  427MOL0     C56248   8.682   4.911   3.606 -0.0859  0.7295 -0.7168
  427MOL0     N56249   8.587   4.964   3.704  0.0012  0.3548 -0.5079
  427MOL0     C56250   8.513   4.899   3.795 -0.5982  0.6603  0.1233
  427MOL0     C56251   8.467   4.988   3.881 -0.0065 -0.5033  0.0362
  427MOL0     C56252   8.367   4.980   3.990  0.4531  0.6888 -0.3657
  427MOL0     C56253   8.226   5.057   3.972  0.2109 -0.0479  0.3682
  427MOL0     C56254   8.174   5.060   3.825 -0.1354 -0.4138 -0.0710
  427MOL0     C56255   8.054   5.143   3.811  0.2828  0.4931  0.2270
  427MOL0     O56256   7.935   5.055   3.819  0.4188 -0.5795  0.0796
  427MOL0     C56257   7.812   5.109   3.797  0.4313 -0.4433  0.9318
  427MOL0     C56258   7.762   5.223   3.836  1.3581  0.7129 -0.2877
  427MOL0     C56259   7.639   5.272   3.777 -0.0169  0.3163  0.2591
  427MOL0     C56260   7.559   5.199   3.692  0.1750  0.5724 -0.3307
  427MOL0     C56261   7.431   5.258   3.639  0.0354 -0.3227  0.3395
  427MOL0     O56262   7.395   5.382   3.681  0.8092  0.4978 -0.2474
  427MOL0     C56263   7.272   5.424   3.649  0.0846  0.0249 -0.6392
  427MOL0     C56264   7.174   5.442   3.741  0.3080 -0.7634  0.1746
  427MOL0     C56265   7.056   5.506   3.703 -0.6516 -0.0311  0.1206
  427MOL0     C56266   7.034   5.542   3.569  0.0044 -0.2882  0.0097
  427MOL0     O56267   6.936   5.620   3.525 -0.5099 -0.0158 -0.3630
  427MOL0     C56268   6.802   5.608   3.566  0.3877  0.4493  0.1258
  427MOL0     C56269   6.700   5.668   3.459  0.5859 -0.3800 -0.0510
  427MOL0     C56270   6.557   5.660   3.507 -0.4679 -0.7103 -0.8383
  427MOL0     C56271   6.446   5.714   3.416 -0.3134 -0.6443 -0.1350
  427MOL0     C56272   6.306   5.725   3.471  0.9935 -0.1798 -0.4687
  427MOL0     C56273   6.220   5.795   3.363  0.0953  0.1243 -0.4729
  427MOL0     C56274   6.070   5.809   3.410 -0.6504  1.2294  0.1696
  427MOL0     C56275   5.983   5.896   3.319  0.2368 -0.3137 -0.6924
  427MOL0    Cl56276   5.825   5.911   3.389 -0.0979  0.4142  0.1597
  427MOL0     C56277   7.145   5.527   3.480  0.1941 -0.3184 -0.4782
  427MOL0     C56278   7.263   5.465   3.521 -1.5071  0.5490 -0.0416
  427MOL0     O56279   7.378   5.187   3.554  0.2479  0.2656 -0.2947
  427MOL0     C56280   7.606   5.076   3.650 -0.5756  0.2989  0.6456
  427MOL0     C56281   7.736   5.043   3.698 -0.2523 -0.4684  0.2210
  427MOL0     N56282   8.511   5.120   3.840  0.5783 -0.1999  0.0773
  427MOL0     N56283   8.578   5.101   3.732  0.0131  0.2186 -0.2808
  427MOL0     C56284   9.760   5.224   3.928  0.8201 -0.7098 -0.3276
  427MOL0     C56285   9.891   5.261   3.931 -0.0573  0.7718 -0.0758
  427MOL0     C56286  10.277   5.429   3.880 -0.5395  0.7979 -0.1348
  427MOL0     C56287  10.360   5.424   3.767 -0.3535 -0.3669 -0.6173
  427MOL0     C56288  10.499   5.439   3.764 -0.5715 -0.4243  0.5282
  427MOL0     C56289  10.563   5.451   3.885  0.2589 -1.2105  0.2172
  427MOL0     O56290  10.697   5.472   3.874 -0.1382 -0.1185 -0.2189
  427MOL0     C56291  10.778   5.441   3.992  0.1770  0.0134 -0.2929
  427MOL0     C56292  10.925   5.447   3.959 -0.5814 -0.4701  0.4679
  427MOL0     C56293  10.972   5.584   3.920 -0.1603 -0.0051  0.3622
  427MOL0     C56294  11.121   5.619   3.955 -0.1182  0.2857 -0.4929
  427MOL0     C56295  11.174   5.748   3.906  0.4088 -0.0238  0.4493
  427MOL0     C56296  11.214   5.855   3.857 -0.1033  0.6184  0.3996
  427MOL0     C56297  10.491   5.442   4.004 -0.0829  0.7195 -0.0254
  427MOL0     C56298  10.347   5.430   4.005  0.6011 -0.3589  0.9130
  427MOL0     H56299   9.886   5.537   4.130 -1.5599  1.7036 -0.9444
  427MOL0     H56300   9.641   5.482   4.122  0.4350 -0.5047  3.0982
  427MOL0     H56301   9.489   5.081   3.973 -3.0957  0.1089  0.0154
  427MOL0     H56302   9.501   5.197   3.828 -1.9129 -2.8101 -0.7884
  427MOL0     H56303   9.296   5.279   3.860  1.4047 -0.7610 -2.2590
  427MOL0     H56304   9.270   5.196   4.020  0.1100  1.7090 -0.1804
  427MOL0     H56305   9.249   4.985   3.894  0.6556  2.0324  2.5106
  427MOL0     H56306   9.296   5.080   3.743  1.4881 -0.6898  0.1883
  427MOL0     H56307   9.037   5.137   3.908 -1.9310 -0.7465 -1.2729
  427MOL0     H56308   9.091   5.197   3.751  1.8466  1.1158  1.5570
  427MOL0     H56309   9.030   4.898   3.805  0.4728 -1.6741 -1.4720
  427MOL0     H56310   9.060   4.969   3.645  2.9442 -2.0142  0.4235
  427MOL0     H56311   8.854   5.106   3.702 -0.2290  0.4983 -0.1133
  427MOL0     H56312   8.833   5.008   3.851 -2.1366  0.2518 -0.4131
  427MOL0     H56313   8.890   4.862   3.586 -1.4937  0.0368 -2.0989
  427MOL0     H56314   8.815   4.796   3.737  1.1953  1.1021  0.4694
  427MOL0     H56315   8.639   4.815   3.574 -0.8972  1.0154 -0.5003
  427MOL0     H56316   8.703   4.982   3.526  0.8509  2.9227  1.3552
  427MOL0     H56317   8.495   4.792   3.791 -1.6363  0.7625  1.3756
  427MOL0     H56318   8.410   5.019   4.082 -0.8908  0.0196  0.5735
  427MOL0     H56319   8.340   4.875   4.005 -2.9556  1.5747  0.4764
  427MOL0     H56320   8.246   5.162   3.994 -0.6453  0.6529 -1.8751
  427MOL0     H56321   8.152   5.004   4.032 -0.8594 -1.5146 -2.0725
  427MOL0     H56322   8.251   5.106   3.762 -1.5114  0.3448 -1.2799
  427MOL0     H56323   8.150   4.962   3.782 -0.7944  0.1764 -1.1037
  427MOL0     H56324   8.066   5.205   3.723  1.5475 -0.5240 -0.3506
  427MOL0     H56325   8.052   5.215   3.894 -0.6359  1.1848 -0.3756
  427MOL0     H56326   7.818   5.282   3.908 -0.3372  0.0692  1.6563
  427MOL0     H56327   7.613   5.374   3.805 -3.9108 -0.2696 -0.7198
  427MOL0     H56328   7.189   5.418   3.846 -0.7899 -1.2919  0.2294
  427MOL0     H56329   6.974   5.520   3.771 -3.4068 -0.4059 -2.8719
  427MOL0     H56330   6.791   5.673   3.653 -0.1647  0.4859  0.0358
  427MOL0     H56331   6.778   5.502   3.582 -2.7434  1.1904  1.0122
  427MOL0     H56332   6.698   5.623   3.359 -1.2006  0.7391 -0.5759
  427MOL0     H56333   6.740   5.766   3.436  1.7058 -0.8949 -0.3514
  427MOL0     H56334   6.547   5.710   3.603 -0.2926 -3.0194  0.4697
  427MOL0     H56335   6.529   5.557   3.530 -0.0417 -1.3413 -2.9484
  427MOL0     H56336   6.467   5.811   3.371 -0.2795 -1.1052 -1.1276
  427MOL0     H56337   6.444   5.645   3.331  0.7603 -0.3658 -0.4001
  427MOL0     H56338   6.310   5.782   3.565 -1.2044  1.4458 -1.2623
  427MOL0     H56339   6.271   5.624   3.490 -0.6419  0.1895 -1.3034
  427MOL0     H56340   6.219   5.738   3.269  0.9512  1.9008 -1.6132
  427MOL0     H56341   6.253   5.898   3.346  0.4351 -0.0549 -0.9068
  427MOL0     H56342   6.026   5.710   3.426  3.6760 -1.1583 -1.0511
  427MOL0     H56343   6.076   5.855   3.509  0.9437  0.5665  0.4197
  427MOL0     H56344   5.981   5.849   3.220 -0.8591  0.1711 -0.9076
  427MOL0     H56345   6.029   5.996   3.314  1.6423 -0.2705  5.2469
  427MOL0     H56346   7.138   5.565   3.378 -1.0442  1.2455  0.1555
  427MOL0     H56347   7.339   5.446   3.446 -2.4529 -0.2224 -0.8314
  427MOL0     H56348   7.551   5.006   3.588  0.6555 -0.5663  0.4772
  427MOL0     H56349   7.777   4.953   3.652 -0.8952 -0.3075 -0.7024
  427MOL0     H56350   9.725   5.133   3.880  0.8417  0.4327 -2.6260
  427MOL0     H56351   9.963   5.199   3.878  1.3315  2.3756 -0.1621
  427MOL0     H56352  10.304   5.410   3.675  0.4769 -3.0500 -0.8193
  427MOL0     H56353  10.549   5.439   3.667  2.0889  1.1553  1.7744
  427MOL0     H56354  10.762   5.339   4.028 -0.2859  0.5575  1.0757
  427MOL0     H56355  10.764   5.503   4.080  1.4295 -0.1626  0.0438
  427MOL0     H56356  10.977   5.420   4.052  0.1806 -3.1749 -0.6549
  427MOL0     H56357  10.960   5.376   3.884  2.0995  1.0350  0.1857
  427MOL0     H56358  10.912   5.669   3.954  0.8382  1.4154 -1.2326
  427MOL0     H56359  10.964   5.597   3.812 -0.8002  2.4568  0.6314
  427MOL0     H56360  11.132   5.612   4.063  0.4764 -0.1378 -0.5784
  427MOL0     H56361  11.181   5.542   3.906 -2.4379 -0.9081 -1.6551
  427MOL0     H56362  11.250   5.951   3.826  0.8201 -0.6429 -2.9741
  427MOL0     H56363  10.536   5.454   4.101  2.9126 -1.7619 -0.9315
  427MOL0     H56364  10.306   5.431   4.105 -0.3028 -4.3979  0.7468
  428MOL0     O56365   4.475   8.340   3.010  0.6964  0.3601 -0.1688
  428MOL0     C56366   4.382   8.297   3.086 -0.1226  0.6445 -0.1481
  428MOL0     O56367   4.388   8.241   3.213  0.2848  0.1834  0.2913
  428MOL0     C56368   4.507   8.183   3.241 -0.6532  0.4707 -0.3132
  428MOL0     C56369   4.530   8.051   3.281  0.6502 -0.5339  0.3342
  428MOL0     C56370   4.662   8.007   3.319  0.2251 -0.2179 -0.6040
  428MOL0     C56371   4.780   8.078   3.321 -0.6869 -1.1505  0.0470
  428MOL0     O56372   4.914   8.050   3.349 -0.1491  0.3244 -0.0581
  428MOL0     C56373   4.937   7.905   3.355 -0.7422 -0.8841  0.1318
  428MOL0     C56374   5.084   7.877   3.377 -0.1286 -0.0104 -0.3283
  428MOL0     C56375   5.158   7.932   3.257 -0.2869 -0.8137 -0.3781
  428MOL0     C56376   5.312   7.923   3.284  0.8404  0.4620  0.3600
  428MOL0     C56377   5.383   7.955   3.157 -1.1277  0.4492  0.1316
  428MOL0     C56378   5.534   7.949   3.168 -0.2810 -0.8040  1.0135
  428MOL0     C56379   5.585   7.805   3.162 -0.0556  0.3974  0.7961
  428MOL0     C56380   5.740   7.791   3.140 -0.1691  0.2230 -0.2235
  428MOL0     N56381   5.796   7.866   3.026  1.0658 -0.1814  0.3113
  428MOL0     C56382   5.884   7.975   3.038  0.6355 -0.1331 -0.2295
  428MOL0     C56383   5.879   8.036   2.920 -1.1618 -0.5198 -0.0994
  428MOL0     C56384   5.944   8.164   2.883 -0.1658 -0.5635 -0.4249
  428MOL0     C56385   6.083   8.146   2.823 -0.2800 -0.3681  0.9770
  428MOL0     C56386   6.088   8.082   2.683 -0.7705 -0.6930  0.2960
  428MOL0     C56387   5.986   8.143   2.587 -0.0634  0.2498  0.0036
  428MOL0     O56388   5.987   8.288   2.579 -0.6134 -0.0193 -0.2776
  428MOL0     C56389   5.867   8.353   2.594  0.0626 -1.0865 -0.4408
  428MOL0     C56390   5.877   8.464   2.676  0.0147 -0.1001 -0.4662
  428MOL0     C56391   5.761   8.544   2.694  0.2138  0.8757 -0.3625
  428MOL0     C56392   5.634   8.497   2.650 -0.4167 -0.2012  0.4612
  428MOL0     C56393   5.521   8.578   2.671 -0.3003 -0.0895 -0.0666
  428MOL0     O56394   5.497   8.642   2.792  0.2150  0.8397 -1.1098
  428MOL0     C56395   5.384   8.718   2.805  0.2248 -0.2289 -0.4752
  428MOL0     C56396   5.363   8.760   2.942  0.2156 -0.2980  0.1249
  428MOL0     C56397   5.246   8.832   2.979 -0.2424  0.3760 -0.1376
  428MOL0     C56398   5.156   8.872   2.883  0.0252 -0.5035 -0.1411
  428MOL0     O56399   5.042   8.944   2.915 -0.3130  0.0595 -0.3153
  428MOL0     C56400   4.923   8.871   2.887 -1.0304 -0.5625 -0.4159
  428MOL0     C56401   4.860   8.920   2.759  0.5773  0.1639  0.0382
  428MOL0     C56402   4.704   8.897   2.765 -1.0696 -0.6179  0.1502
  428MOL0     C56403   4.635   9.016   2.827 -0.3002 -0.9199  0.0629
  428MOL0     C56404   4.484   9.020   2.807  0.3984  0.8533 -0.0347
  428MOL0     C56405   4.429   9.158   2.864 -0.4160  0.2994  0.1331
  428MOL0     C56406   4.284   9.183   2.817  0.2954 -0.0821  0.2748
  428MOL0     C56407   4.178   9.088   2.894 -0.2343  0.6585  0.2325
  428MOL0    Cl56408   4.020   9.128   2.835  0.0193 -0.0636  0.2249
  428MOL0     C56409   5.183   8.854   2.745  0.0420  0.5224  0.4081
  428MOL0     C56410   5.291   8.769   2.712 -0.4670  0.9311 -0.8141
  428MOL0     O56411   5.447   8.575   2.573  0.5495 -0.2369  0.2687
  428MOL0     C56412   5.625   8.381   2.578 -0.5624  1.2167 -0.8590
  428MOL0     C56413   5.746   8.312   2.546 -0.6368  0.1500  0.1412
  428MOL0     N56414   5.810   7.956   2.832  1.0441 -0.9153  0.3426
  428MOL0     N56415   5.765   7.851   2.887 -0.2135  0.3587 -0.0340
  428MOL0     C56416   4.750   8.218   3.286  0.3420 -0.9337 -0.4321
  428MOL0     C56417   4.624   8.264   3.263 -0.3411 -1.1348  0.6071
  428MOL0     C56418   4.239   8.311   3.043  0.7746  0.2866  0.4006
  428MOL0     C56419   4.212   8.350   2.913 -0.4837 -0.0170 -0.0373
  428MOL0     C56420   4.085   8.353   2.867  0.1100 -0.4194 -0.2017
  428MOL0     C56421   3.974   8.325   2.952 -0.4933 -0.0452  0.2189
  428MOL0     O56422   3.854   8.332   2.886  0.1574 -1.0049  0.9877
  428MOL0     C56423   3.728   8.321   2.953  0.5101  0.2990  0.6813
  428MOL0     C56424   3.598   8.308   2.865 -0.1529 -0.8205  0.8200
  428MOL0     C56425   3.586   8.436   2.771  0.0559  0.0638  0.0609
  428MOL0     C56426   3.535   8.561   2.848 -0.6130 -0.2590  0.0997
  428MOL0     C56427   3.394   8.546   2.892 -0.4264 -0.3715  0.2271
  428MOL0     C56428   3.275   8.535   2.906 -0.5975  0.4127  0.9281
  428MOL0     C56429   4.002   8.274   3.086  0.6681 -0.4881 -0.1990
  428MOL0     C56430   4.130   8.266   3.126 -0.1690 -0.7336  0.9435
  428MOL0     H56431   4.436   8.000   3.299 -1.7208  2.9329 -1.0531
  428MOL0     H56432   4.666   7.904   3.354 -0.2137 -0.3629 -0.9688
  428MOL0     H56433   4.908   7.847   3.266  3.3036 -1.2404 -1.1498
  428MOL0     H56434   4.876   7.867   3.437  1.2689 -0.3744  1.9401
  428MOL0     H56435   5.101   7.769   3.374  0.8817  0.1452 -0.5670
  428MOL0     H56436   5.124   7.917   3.471  0.3429 -0.7253 -0.2094
  428MOL0     H56437   5.133   8.034   3.228  2.1949  0.1050  0.5182
  428MOL0     H56438   5.136   7.866   3.172  0.7307  0.6109 -1.8123
  428MOL0     H56439   5.361   7.994   3.351 -0.5958  0.5391  1.3893
  428MOL0     H56440   5.333   7.824   3.324 -1.3769  0.4972  1.8190
  428MOL0     H56441   5.357   8.055   3.124 -0.0338  1.0673  1.0795
  428MOL0     H56442   5.354   7.888   3.075 -0.7208 -0.3571  0.6298
  428MOL0     H56443   5.570   8.008   3.253  1.7000  1.9068 -1.5012
  428MOL0     H56444   5.576   8.001   3.082 -1.1432 -0.0576  1.0256
  428MOL0     H56445   5.558   7.746   3.250 -2.3193 -0.5252 -0.4188
  428MOL0     H56446   5.530   7.770   3.074 -0.5780 -0.5365  1.4681
  428MOL0     H56447   5.752   7.684   3.116  2.0859 -0.1380  2.0143
  428MOL0     H56448   5.798   7.820   3.228 -1.0591 -0.1363  0.5022
  428MOL0     H56449   5.926   8.015   3.130  0.0295 -0.2794  0.1107
  428MOL0     H56450   5.963   8.227   2.970  0.8587 -1.2807 -0.1026
  428MOL0     H56451   5.876   8.224   2.822  1.0503 -0.0542 -1.3177
  428MOL0     H56452   6.144   8.088   2.893  0.2503 -1.0392 -0.0120
  428MOL0     H56453   6.128   8.246   2.821 -1.9241  0.4023  0.2876
  428MOL0     H56454   6.190   8.088   2.645  0.2988  3.4588  3.1681
  428MOL0     H56455   6.066   7.976   2.701  0.5865 -0.8859  0.9955
  428MOL0     H56456   5.888   8.097   2.604  0.4052 -1.8344 -2.3276
  428MOL0     H56457   6.015   8.103   2.489  2.8825 -1.5861  1.5080
  428MOL0     H56458   5.977   8.493   2.709  0.8920 -1.2176 -1.9964
  428MOL0     H56459   5.767   8.631   2.758  0.0463  1.2387 -0.8343
  428MOL0     H56460   5.427   8.714   3.017 -0.6775 -2.6545 -0.4807
  428MOL0     H56461   5.218   8.864   3.078  2.1581  1.8251  0.1587
  428MOL0     H56462   4.847   8.893   2.963  1.5467  1.3345  1.7957
  428MOL0     H56463   4.944   8.763   2.894  0.3451 -0.2580  0.8942
  428MOL0     H56464   4.896   8.854   2.680  3.2614  0.8126  0.6282
  428MOL0     H56465   4.882   9.020   2.722 -0.8918  0.7483  0.6717
  428MOL0     H56466   4.681   8.804   2.819 -0.9639 -0.2847  0.7845
  428MOL0     H56467   4.671   8.901   2.661 -2.0036  2.4653  0.4470
  428MOL0     H56468   4.643   9.020   2.936 -1.3406  1.0818  0.1325
  428MOL0     H56469   4.682   9.109   2.793 -3.5505  0.6392 -0.6555
  428MOL0     H56470   4.431   8.944   2.865 -1.2688  0.6216 -1.7728
  428MOL0     H56471   4.465   8.991   2.703 -0.2725 -1.9863  0.7924
  428MOL0     H56472   4.490   9.237   2.819  2.4350 -1.4608  0.6842
  428MOL0     H56473   4.435   9.160   2.973  1.5357 -1.1834  0.0945
  428MOL0     H56474   4.245   9.285   2.818 -0.9685 -0.5606  0.9963
  428MOL0     H56475   4.273   9.149   2.713 -0.6991  0.6712  0.1196
  428MOL0     H56476   4.174   9.108   3.001 -0.5085 -1.3242  0.6203
  428MOL0     H56477   4.207   8.985   2.874  0.8357  0.1286  3.7695
  428MOL0     H56478   5.119   8.891   2.665  1.5438  1.0466 -0.6002
  428MOL0     H56479   5.311   8.774   2.605  0.8485  2.1660 -0.5385
  428MOL0     H56480   5.528   8.347   2.544 -0.5123 -0.4425  0.4828
  428MOL0     H56481   5.754   8.234   2.471  0.4761 -0.3252  0.7356
  428MOL0     H56482   4.827   8.295   3.278  0.9831 -1.7624 -2.8827
  428MOL0     H56483   4.604   8.364   3.226 -1.2210 -1.2942  0.6335
  428MOL0     H56484   4.288   8.372   2.838 -1.7512  0.7651 -1.1441
  428MOL0     H56485   4.075   8.379   2.762  1.7349  0.6290 -0.1462
  428MOL0     H56486   3.715   8.403   3.024 -2.7976  0.8687 -0.4264
  428MOL0     H56487   3.730   8.232   3.017  1.9318  1.6139  2.5788
  428MOL0     H56488   3.616   8.222   2.800 -1.0286  1.0067 -2.0654
  428MOL0     H56489   3.508   8.287   2.922 -0.4735  2.3675  1.6865
  428MOL0     H56490   3.508   8.418   2.696  0.3164 -0.5730 -0.0577
  428MOL0     H56491   3.673   8.469   2.714 -0.2402 -0.4551 -0.7094
  428MOL0     H56492   3.603   8.579   2.932 -0.7372 -0.0516  0.1561
  428MOL0     H56493   3.534   8.651   2.785 -2.5890 -1.1667 -1.2788
  428MOL0     H56494   3.168   8.523   2.914 -0.6596 -0.0617 -0.3133
  428MOL0     H56495   3.918   8.244   3.147  0.4263  1.6128  0.5778
  428MOL0     H56496   4.157   8.212   3.217 -1.1737 -2.2548  0.3649
  429MOL0     O56497   8.548   2.614   5.595  0.0113 -0.1432 -0.0614
  429MOL0     C56498   8.596   2.650   5.491 -0.6926  0.6497  0.3465
  429MOL0     O56499   8.542   2.631   5.370 -0.2739 -0.5390  0.5906
  429MOL0     C56500   8.408   2.583   5.347 -0.1275  0.1804  0.5381
  429MOL0     C56501   8.382   2.485   5.255  0.0042 -0.2248  0.1129
  429MOL0     C56502   8.263   2.417   5.238 -0.4534  0.5153 -0.1116
  429MOL0     C56503   8.147   2.474   5.303  0.5705  0.1183  0.9338
  429MOL0     O56504   8.026   2.416   5.292  0.0504 -0.5581 -0.8431
  429MOL0     C56505   7.988   2.347   5.183  0.4238  0.3709 -0.0477
  429MOL0     C56506   7.842   2.302   5.195  0.5517  0.2090 -1.0400
  429MOL0     C56507   7.760   2.353   5.072  0.2148 -0.2419 -0.1270
  429MOL0     C56508   7.624   2.283   5.056 -0.5388 -0.3259  0.8724
  429MOL0     C56509   7.532   2.279   5.182  0.2600 -0.4804  0.7688
  429MOL0     C56510   7.387   2.296   5.130  0.6473 -0.2319 -0.2408
  429MOL0     C56511   7.280   2.285   5.245  0.0328 -0.7903  0.0230
  429MOL0     C56512   7.163   2.202   5.198  0.5352  0.6097 -0.5199
  429MOL0     N56513   7.110   2.239   5.075  0.0323 -0.4674 -0.3974
  429MOL0     C56514   7.079   2.371   5.040  0.0607  0.6024  0.1050
  429MOL0     C56515   6.972   2.368   4.951  0.0214  0.2162  0.6239
  429MOL0     C56516   6.877   2.473   4.894 -0.3423  0.0652  0.0869
  429MOL0     C56517   6.733   2.481   4.952  0.3549 -0.7864 -0.0392
  429MOL0     C56518   6.710   2.501   5.101  0.5655  0.3037  0.2039
  429MOL0     C56519   6.753   2.634   5.157 -0.6146 -0.7601 -0.6163
  429MOL0     O56520   6.694   2.740   5.082  0.2668 -0.1519  0.3510
  429MOL0     C56521   6.560   2.758   5.083 -0.2571 -0.0719  0.7274
  429MOL0     C56522   6.510   2.828   4.980 -0.5636 -0.0298 -0.2087
  429MOL0     C56523   6.373   2.858   4.960 -0.1281 -0.6262  0.7932
  429MOL0     C56524   6.284   2.807   5.052  0.5791 -0.0485 -0.1108
  429MOL0     C56525   6.141   2.815   5.023 -0.8138  1.5728 -0.6963
  429MOL0     O56526   6.064   2.767   5.119  0.0491 -0.6460  0.4774
  429MOL0     C56527   5.939   2.817   5.110 -0.3546 -0.1112 -0.3283
  429MOL0     C56528   5.913   2.952   5.138 -0.3061  0.0050 -0.1176
  429MOL0     C56529   5.780   2.993   5.117 -0.3366  0.2949 -0.6563
  429MOL0     C56530   5.679   2.907   5.086  0.6004  0.1288  1.1209
  429MOL0     O56531   5.548   2.950   5.069 -0.5009  0.1028  0.5429
  429MOL0     C56532   5.446   2.860   5.018 -0.6292 -0.8129 -0.2038
  429MOL0     C56533   5.313   2.923   4.991  0.6577  0.0684 -0.0837
  429MOL0     C56534   5.237   2.977   5.115 -0.5779  0.3957  0.3532
  429MOL0     C56535   5.090   2.982   5.084 -0.1968 -0.5003 -0.2130
  429MOL0     C56536   5.011   3.042   5.208  0.4532  0.6372  0.7717
  429MOL0     C56537   4.863   3.069   5.193 -0.1429  1.1443 -0.7631
  429MOL0     C56538   4.790   2.936   5.179 -0.2083  0.7307  0.0506
  429MOL0     C56539   4.639   2.953   5.212  0.3389  0.5380 -0.0295
  429MOL0    Cl56540   4.594   3.023   5.374 -0.4857 -0.0557  0.2769
  429MOL0     C56541   5.709   2.776   5.056 -0.1200  0.2028  0.9587
  429MOL0     C56542   5.844   2.729   5.062  0.1421 -0.5506 -0.8129
  429MOL0     O56543   6.104   2.833   4.906 -0.0987 -0.0089 -0.1956
  429MOL0     C56544   6.335   2.736   5.168 -0.0569 -0.9670 -0.6488
  429MOL0     C56545   6.475   2.712   5.182  1.2509  0.2445 -0.9360
  429MOL0     N56546   6.947   2.236   4.930  0.5185 -0.0134  0.3150
  429MOL0     N56547   7.023   2.164   5.002 -0.0840 -0.1220  0.1086
  429MOL0     C56548   8.164   2.585   5.386  1.0588  0.0543 -0.5362
  429MOL0     C56549   8.297   2.633   5.412  1.1466 -0.5363  0.4721
  429MOL0     C56550   8.738   2.697   5.507  0.5113  0.2225 -0.6610
  429MOL0     C56551   8.822   2.719   5.399  0.6404 -0.0437 -0.7504
  429MOL0     C56552   8.950   2.775   5.409 -1.3903 -0.1019  0.0596
  429MOL0     C56553   9.003   2.800   5.532 -0.2749  0.4547  0.0044
  429MOL0     O56554   9.128   2.853   5.521  0.2161 -0.4963 -0.2503
  429MOL0     C56555   9.203   2.883   5.644 -0.8569  0.1273 -0.2051
  429MOL0     C56556   9.188   3.028   5.696  0.0497  0.4218 -0.1682
  429MOL0     C56557   9.270   3.133   5.622  0.3506 -0.0514 -0.2446
  429MOL0     C56558   9.411   3.156   5.679 -0.7378  0.1610  0.0745
  429MOL0     C56559   9.450   3.277   5.614  0.4878 -0.5333  0.4191
  429MOL0     C56560   9.471   3.381   5.554  1.0123 -0.7082  1.0003
  429MOL0     C56561   8.925   2.775   5.649 -0.0075  0.7477 -0.1186
  429MOL0     C56562   8.796   2.725   5.634 -0.0601  0.0707  0.8224
  429MOL0     H56563   8.466   2.437   5.206  0.2053 -3.4472  3.1936
  429MOL0     H56564   8.274   2.337   5.166  1.2396  0.0605  0.5967
  429MOL0     H56565   8.041   2.253   5.166  1.9693  1.3953 -1.1608
  429MOL0     H56566   8.022   2.402   5.094 -1.0615  0.8269 -0.3506
  429MOL0     H56567   7.796   2.339   5.287  1.8372  1.5340 -0.8930
  429MOL0     H56568   7.841   2.192   5.197  0.6207  0.2181 -0.1098
  429MOL0     H56569   7.822   2.333   4.985  0.5426  1.1276 -0.2325
  429MOL0     H56570   7.765   2.462   5.082  0.0500 -0.2916  0.5818
  429MOL0     H56571   7.584   2.318   4.960  1.6043  3.2685  1.0942
  429MOL0     H56572   7.648   2.178   5.037 -1.1341  0.1054 -3.1322
  429MOL0     H56573   7.548   2.361   5.251  0.4167  3.6247 -3.6081
  429MOL0     H56574   7.546   2.182   5.231 -0.9605 -0.0861  1.9308
  429MOL0     H56575   7.358   2.220   5.056  3.0862 -1.8867  0.4049
  429MOL0     H56576   7.377   2.394   5.082 -0.8202 -0.1971  0.0744
  429MOL0     H56577   7.326   2.254   5.339 -0.0834  2.1863  1.1816
  429MOL0     H56578   7.237   2.382   5.274  2.3327  1.3047 -2.9192
  429MOL0     H56579   7.078   2.199   5.267  3.5396 -1.5702  3.5182
  429MOL0     H56580   7.190   2.096   5.185  1.4076  0.7989 -0.3084
  429MOL0     H56581   7.122   2.457   5.090 -2.8296  0.3354  3.4741
  429MOL0     H56582   6.873   2.458   4.785 -2.2999  1.6290 -0.1432
  429MOL0     H56583   6.920   2.573   4.907 -1.3063  0.7080 -1.3249
  429MOL0     H56584   6.674   2.392   4.928  2.1072 -1.2992 -2.8990
  429MOL0     H56585   6.676   2.553   4.893 -1.7561 -1.3376  1.2409
  429MOL0     H56586   6.606   2.503   5.135  0.8211  0.5117  0.9910
  429MOL0     H56587   6.762   2.422   5.156 -1.0743 -1.1414 -0.2144
  429MOL0     H56588   6.861   2.639   5.146 -0.6105 -0.8448 -0.6134
  429MOL0     H56589   6.732   2.641   5.264  2.3204 -0.2482 -0.0099
  429MOL0     H56590   6.585   2.874   4.915  3.4033 -0.3064  3.7265
  429MOL0     H56591   6.339   2.902   4.867  0.1226  0.6983  1.3001
  429MOL0     H56592   5.994   3.016   5.169  0.5596 -1.6243  1.1138
  429MOL0     H56593   5.756   3.094   5.148  1.0943 -0.1500  2.2862
  429MOL0     H56594   5.424   2.779   5.088  0.4084 -0.1969  0.8679
  429MOL0     H56595   5.483   2.804   4.931  2.0679 -1.5286  1.2941
  429MOL0     H56596   5.258   2.844   4.941  1.1123 -0.2887 -0.0276
  429MOL0     H56597   5.316   3.011   4.925  0.2508  1.4291  1.6238
  429MOL0     H56598   5.279   3.074   5.143  1.4608 -0.3732  0.1550
  429MOL0     H56599   5.268   2.918   5.203 -0.2140  2.1591  1.4605
  429MOL0     H56600   5.080   3.062   5.010 -0.5230 -0.5144 -0.1834
  429MOL0     H56601   5.048   2.892   5.039 -0.9495 -0.8619  1.1617
  429MOL0     H56602   5.068   3.134   5.226  0.5877  0.7820 -0.3058
  429MOL0     H56603   5.032   2.981   5.296 -0.3237  0.9934  1.2053
  429MOL0     H56604   4.846   3.120   5.097  0.0895 -2.4690 -2.9048
  429MOL0     H56605   4.834   3.129   5.279  1.5235  0.4108  0.3625
  429MOL0     H56606   4.812   2.901   5.078 -1.1371  0.4921 -0.0786
  429MOL0     H56607   4.843   2.866   5.245  2.3835  0.7097 -1.9283
  429MOL0     H56608   4.605   2.850   5.204 -1.5999  1.0834  0.6373
  429MOL0     H56609   4.588   3.007   5.132 -1.5451 -0.0755  0.6951
  429MOL0     H56610   5.635   2.703   5.023 -0.9525  0.9436  1.1327
  429MOL0     H56611   5.861   2.627   5.029 -1.9920 -0.9625 -0.8124
  429MOL0     H56612   6.267   2.687   5.237  0.4040 -2.3031 -1.1241
  429MOL0     H56613   6.493   2.654   5.272 -1.2658  2.6253  1.2927
  429MOL0     H56614   8.085   2.633   5.443 -0.5450 -1.2212 -1.6027
  429MOL0     H56615   8.307   2.724   5.471  1.3089  0.4103 -0.9543
  429MOL0     H56616   8.784   2.712   5.297 -2.9902  3.6292  0.0766
  429MOL0     H56617   9.012   2.801   5.324 -0.7215 -3.7543 -0.7262
  429MOL0     H56618   9.308   2.867   5.619 -0.0670  1.1166  2.1847
  429MOL0     H56619   9.184   2.806   5.719  1.8975 -0.7064 -0.2865
  429MOL0     H56620   9.082   3.054   5.692  0.0727  0.5652  0.0920
  429MOL0     H56621   9.210   3.040   5.803 -3.5501  1.2982  0.5889
  429MOL0     H56622   9.207   3.222   5.631  1.3640  0.5654  1.1456
  429MOL0     H56623   9.272   3.105   5.517  0.9989 -1.5564  0.1317
  429MOL0     H56624   9.424   3.163   5.787  0.4451  0.3275 -0.0742
  429MOL0     H56625   9.478   3.079   5.641  1.0934  0.9141  1.6233
  429MOL0     H56626   9.492   3.470   5.499 -3.0316 -0.0479  0.2091
  429MOL0     H56627   8.968   2.795   5.747  2.8987 -2.3675 -0.5563
  429MOL0     H56628   8.739   2.700   5.724 -1.4246 -2.6191 -0.6698
  430MOL0     O56629  10.499   1.779   8.176  0.5951 -0.1816  0.1886
  430MOL0     C56630  10.496   1.862   8.265  0.1231  0.3523  0.0285
  430MOL0     O56631  10.391   1.891   8.347  0.0163  0.1929  0.6284
  430MOL0     C56632  10.267   1.834   8.319 -0.3244  0.5236  0.0989
  430MOL0     C56633  10.212   1.749   8.411  0.2663  0.3880  0.5029
  430MOL0     C56634  10.085   1.683   8.387 -0.2999  0.0348 -0.2384
  430MOL0     C56635  10.015   1.712   8.268 -0.7000 -0.6621 -0.1358
  430MOL0     O56636   9.901   1.641   8.249  0.5117 -0.6165  0.8114
  430MOL0     C56637   9.835   1.648   8.116 -0.2136  0.8028  0.5441
  430MOL0     C56638   9.738   1.521   8.107 -0.1688  0.0179  0.0109
  430MOL0     C56639   9.617   1.545   8.015  0.4827 -0.4811  0.2692
  430MOL0     C56640   9.513   1.441   8.061  0.3813 -0.2545  0.4141
  430MOL0     C56641   9.393   1.454   7.966  0.3278 -0.0033 -0.1704
  430MOL0     C56642   9.266   1.401   8.033  0.4558  0.8464 -0.9579
  430MOL0     C56643   9.137   1.433   7.967 -0.6342 -0.5714 -0.6634
  430MOL0     C56644   9.028   1.349   8.037 -1.2516 -1.0616  0.1783
  430MOL0     N56645   8.902   1.365   7.967  0.0371  0.7592 -0.0203
  430MOL0     C56646   8.875   1.332   7.836 -0.0841 -0.3968  0.6281
  430MOL0     C56647   8.738   1.335   7.822 -0.5654 -0.0817  0.4454
  430MOL0     C56648   8.661   1.282   7.707  0.2492  0.2986 -0.0302
  430MOL0     C56649   8.645   1.389   7.595 -0.2378  0.6613  0.1531
  430MOL0     C56650   8.560   1.335   7.475 -1.0178 -0.5687  0.4033
  430MOL0     C56651   8.407   1.329   7.505 -0.1245 -0.0890  0.5188
  430MOL0     O56652   8.336   1.262   7.394  0.7424 -0.4214  0.2039
  430MOL0     C56653   8.194   1.265   7.393  0.7309  0.3097 -0.4223
  430MOL0     C56654   8.127   1.224   7.274  0.4812  0.6052 -0.5848
  430MOL0     C56655   7.986   1.223   7.276  0.1839  0.0368 -0.3027
  430MOL0     C56656   7.908   1.225   7.400  0.5798 -0.1864  0.9676
  430MOL0     C56657   7.762   1.206   7.405  0.0684  0.3764  0.5013
  430MOL0     O56658   7.701   1.196   7.535 -0.2190 -0.6019  0.8032
  430MOL0     C56659   7.571   1.155   7.553  1.6057  0.9096  0.3409
  430MOL0     C56660   7.510   1.201   7.669  0.2764  0.4916  0.4186
  430MOL0     C56661   7.388   1.153   7.708  0.2640 -0.9889  0.3787
  430MOL0     C56662   7.313   1.057   7.629 -0.7730 -0.0437  0.2702
  430MOL0     O56663   7.207   0.998   7.686 -0.1996 -0.3576  0.5198
  430MOL0     C56664   7.082   1.027   7.631  0.4990 -0.1410  0.5799
  430MOL0     C56665   6.979   0.958   7.724 -0.3113 -0.4165 -0.5961
  430MOL0     C56666   6.840   0.991   7.681  0.1281 -0.0504  0.4332
  430MOL0     C56667   6.743   0.914   7.770 -0.2812 -0.2802 -0.0351
  430MOL0     C56668   6.699   0.989   7.885  0.8604 -0.2511 -0.4389
  430MOL0     C56669   6.624   0.910   7.986  0.8028 -0.7130 -0.0758
  430MOL0     C56670   6.481   0.860   7.947  0.6888  0.6491 -0.5241
  430MOL0     C56671   6.375   0.968   7.925  0.2084  0.4609 -0.5629
  430MOL0    Cl56672   6.220   0.927   7.976  0.0505  0.2588  0.2297
  430MOL0     C56673   7.360   1.024   7.509 -0.0873 -1.7365  0.4288
  430MOL0     C56674   7.487   1.076   7.462 -0.8489 -0.5517 -0.2263
  430MOL0     O56675   7.708   1.190   7.297 -0.2975  0.6017 -0.0538
  430MOL0     C56676   7.980   1.252   7.518 -0.0147  0.6372 -0.0672
  430MOL0     C56677   8.119   1.275   7.510 -0.9852 -1.0507  0.2740
  430MOL0     N56678   8.690   1.360   7.954 -0.1276  0.3510 -0.1902
  430MOL0     N56679   8.789   1.390   8.032 -0.5606  0.1797 -0.2270
  430MOL0     C56680  10.074   1.804   8.178  0.0731 -0.0528  0.2801
  430MOL0     C56681  10.196   1.857   8.207  0.0935 -0.2416 -0.0822
  430MOL0     C56682  10.630   1.927   8.298  0.1291  0.2445 -0.6495
  430MOL0     C56683  10.640   2.010   8.409  0.5316 -0.0423  0.3278
  430MOL0     C56684  10.756   2.075   8.437  0.4832  0.4285 -0.2362
  430MOL0     C56685  10.876   2.050   8.368 -0.5425  0.3068  0.7738
  430MOL0     O56686  10.993   2.104   8.409 -0.2016 -0.4124 -0.8093
  430MOL0     C56687  11.108   2.125   8.320  0.9115  0.0955  0.0624
  430MOL0     C56688  11.233   2.130   8.403  0.5765 -0.2682  0.1190
  430MOL0     C56689  11.363   2.135   8.321  0.0443 -0.8052 -0.0170
  430MOL0     C56690  11.398   2.001   8.263 -0.1331  0.7198 -0.8206
  430MOL0     C56691  11.538   1.998   8.213  0.6326  0.6819 -0.0083
  430MOL0     C56692  11.649   1.975   8.180 -0.3156 -0.2197 -0.7281
  430MOL0     C56693  10.869   1.965   8.259 -0.6035 -0.0456  0.5151
  430MOL0     C56694  10.745   1.905   8.222  0.2965 -0.1924  0.9302
  430MOL0     H56695  10.262   1.740   8.507  1.5375  1.3227 -0.0450
  430MOL0     H56696  10.045   1.601   8.447  1.1823 -0.9662 -0.5777
  430MOL0     H56697   9.899   1.654   8.028 -0.9910 -2.7413 -0.4197
  430MOL0     H56698   9.769   1.734   8.128  0.1703  0.8211  3.1290
  430MOL0     H56699   9.708   1.492   8.209  0.8998  0.4345  0.4580
  430MOL0     H56700   9.792   1.438   8.062  0.6832  0.5471  0.0402
  430MOL0     H56701   9.647   1.529   7.912  3.1461 -0.7207  1.0201
  430MOL0     H56702   9.578   1.647   8.029 -2.9000 -1.7179  0.9161
  430MOL0     H56703   9.560   1.343   8.060  0.7347 -0.1360 -2.2666
  430MOL0     H56704   9.478   1.457   8.163 -0.1807 -2.8968  0.6860
  430MOL0     H56705   9.411   1.396   7.875  0.0088 -0.1327 -0.1535
  430MOL0     H56706   9.376   1.558   7.938  1.2370  0.0678 -0.4697
  430MOL0     H56707   9.261   1.441   8.135  0.2054  1.5375 -1.2392
  430MOL0     H56708   9.275   1.292   8.033 -1.2493  0.5397  2.3241
  430MOL0     H56709   9.119   1.540   7.976  0.6870 -0.4679  1.4219
  430MOL0     H56710   9.142   1.420   7.859 -0.3296  0.3500 -0.7666
  430MOL0     H56711   9.011   1.387   8.138 -0.2628 -0.7442  0.2342
  430MOL0     H56712   9.067   1.247   8.036  1.7371 -0.0275  0.6559
  430MOL0     H56713   8.945   1.286   7.767  2.0874 -1.0791  3.1064
  430MOL0     H56714   8.558   1.254   7.731 -0.7670  1.9964 -2.0541
  430MOL0     H56715   8.720   1.197   7.670 -0.8824 -0.7390  0.4900
  430MOL0     H56716   8.741   1.428   7.561  0.3039  0.5331  1.4908
  430MOL0     H56717   8.593   1.474   7.641 -0.1059  0.8560 -0.0589
  430MOL0     H56718   8.579   1.396   7.387  0.6580  0.5093  1.4500
  430MOL0     H56719   8.590   1.231   7.458 -0.0644 -0.5685  1.9049
  430MOL0     H56720   8.363   1.429   7.509 -0.1963 -0.0619 -0.7597
  430MOL0     H56721   8.403   1.276   7.601  0.0898 -1.9381 -0.4602
  430MOL0     H56722   8.190   1.208   7.187 -1.1167  1.3031 -1.9161
  430MOL0     H56723   7.927   1.204   7.187  1.3900 -0.4586 -1.0106
  430MOL0     H56724   7.563   1.264   7.739 -0.5386 -0.6855  2.1911
  430MOL0     H56725   7.355   1.176   7.809 -2.0662 -0.3298 -0.4528
  430MOL0     H56726   7.059   0.996   7.528 -4.4331 -0.4138  1.5116
  430MOL0     H56727   7.064   1.135   7.635  1.8213  0.2069 -1.3675
  430MOL0     H56728   6.999   1.000   7.823 -1.3904  1.4843 -1.1288
  430MOL0     H56729   7.001   0.851   7.722  2.1130 -0.0315  0.7001
  430MOL0     H56730   6.829   0.968   7.574  0.7188  3.2284 -0.4454
  430MOL0     H56731   6.819   1.097   7.696 -3.0449 -0.8748  2.9424
  430MOL0     H56732   6.651   0.893   7.715 -0.6363  1.3750 -0.0933
  430MOL0     H56733   6.789   0.816   7.791 -0.9304 -0.7716 -0.8467
  430MOL0     H56734   6.634   1.071   7.852  0.0271 -0.3467  0.9038
  430MOL0     H56735   6.785   1.024   7.944  0.7891 -1.3391  0.3335
  430MOL0     H56736   6.614   0.978   8.071 -0.9293 -0.7947 -0.1880
  430MOL0     H56737   6.679   0.819   8.012 -0.2521 -1.5282 -0.6183
  430MOL0     H56738   6.482   0.790   7.863  1.0893  0.9569 -0.7800
  430MOL0     H56739   6.450   0.811   8.039  0.2990  1.0503 -0.4400
  430MOL0     H56740   6.369   1.000   7.820 -0.0877  0.0266 -0.6802
  430MOL0     H56741   6.406   1.056   7.982 -2.3686  1.9252 -1.2556
  430MOL0     H56742   7.300   0.962   7.443 -2.4306  0.0110  0.7660
  430MOL0     H56743   7.526   1.035   7.369 -1.3773 -3.2916  0.6590
  430MOL0     H56744   7.928   1.264   7.613 -0.5774  1.5147 -0.4693
  430MOL0     H56745   8.175   1.293   7.601 -2.2485 -1.4090  1.1525
  430MOL0     H56746  10.019   1.813   8.084 -0.8747 -2.9301  0.4610
  430MOL0     H56747  10.244   1.928   8.141  2.8233  1.7020  3.6144
  430MOL0     H56748  10.549   2.035   8.464  0.8598  3.4627 -0.5527
  430MOL0     H56749  10.750   2.139   8.524 -0.6059  1.8956 -1.3417
  430MOL0     H56750  11.097   2.219   8.265  1.7810 -1.6584 -3.3757
  430MOL0     H56751  11.131   2.058   8.237 -1.7521  0.0838 -0.7645
  430MOL0     H56752  11.225   2.218   8.467  1.1436 -0.0660 -0.0805
  430MOL0     H56753  11.239   2.038   8.461 -4.3052 -1.5462 -0.9010
  430MOL0     H56754  11.434   2.181   8.390 -1.0916  4.5414 -1.9717
  430MOL0     H56755  11.358   2.217   8.249  1.1856  0.9541  1.8318
  430MOL0     H56756  11.386   1.925   8.341  0.4062 -1.7507 -3.0226
  430MOL0     H56757  11.325   1.979   8.185 -1.6798 -2.2794  1.2636
  430MOL0     H56758  11.752   1.960   8.155  0.1164 -0.5790  1.0905
  430MOL0     H56759  10.956   1.933   8.204 -1.1384  1.3277 -1.2312
  430MOL0     H56760  10.741   1.834   8.140 -0.2553 -0.0687  0.8484
  431MOL0     O56761   7.527   7.386   7.786  0.2859 -0.0858 -0.4096
  431MOL0     C56762   7.470   7.468   7.712  0.1035  0.0953 -0.2167
  431MOL0     O56763   7.337   7.472   7.693  0.5177 -0.3660  0.5626
  431MOL0     C56764   7.253   7.371   7.722  0.8053  0.7570  0.2802
  431MOL0     C56765   7.140   7.362   7.642 -0.1773 -0.5424 -0.0083
  431MOL0     C56766   7.057   7.248   7.656 -0.1141  0.0105 -0.0665
  431MOL0     C56767   7.068   7.157   7.765 -0.9516 -0.5497 -0.2391
  431MOL0     O56768   7.003   7.038   7.784 -0.5184 -0.1042 -0.0403
  431MOL0     C56769   6.885   7.006   7.706  0.7541  0.1710 -0.5093
  431MOL0     C56770   6.826   6.876   7.765  0.3494 -0.1482 -0.0829
  431MOL0     C56771   6.696   6.834   7.695  0.3793  1.0399 -0.4620
  431MOL0     C56772   6.634   6.713   7.770 -0.4620  0.1415  0.1365
  431MOL0     C56773   6.501   6.671   7.712  0.2140  1.0375  0.0053
  431MOL0     C56774   6.431   6.572   7.800 -0.3409 -0.3238 -0.2580
  431MOL0     C56775   6.286   6.568   7.769  0.2427 -0.4861 -0.3707
  431MOL0     C56776   6.214   6.461   7.860  0.8314 -0.3984  0.7880
  431MOL0     N56777   6.078   6.456   7.817  0.3317  0.0764 -1.2372
  431MOL0     C56778   5.985   6.550   7.782 -0.9159  0.4106  0.1232
  431MOL0     C56779   5.894   6.487   7.713  0.0691  0.0274 -0.6791
  431MOL0     C56780   5.790   6.571   7.634  0.3852  0.8585  0.2506
  431MOL0     C56781   5.650   6.499   7.634 -0.0835 -0.7110  0.5725
  431MOL0     C56782   5.586   6.516   7.766 -0.9337  0.3695  0.6036
  431MOL0     C56783   5.456   6.443   7.786  0.2204  0.9214  0.2909
  431MOL0     O56784   5.405   6.483   7.911  0.3623 -0.3168 -0.3948
  431MOL0     C56785   5.281   6.446   7.947  0.1004 -0.5263  0.5802
  431MOL0     C56786   5.248   6.446   8.078  0.5439 -0.1414  1.3697
  431MOL0     C56787   5.131   6.412   8.135  0.3627 -0.2112 -0.6416
  431MOL0     C56788   5.026   6.363   8.057  0.3503 -0.6688  0.1434
  431MOL0     C56789   4.900   6.318   8.117 -0.4358  0.2111 -0.2167
  431MOL0     O56790   4.793   6.288   8.034 -0.3336  0.5231 -0.4278
  431MOL0     C56791   4.676   6.224   8.070  0.1355 -0.0407  0.3637
  431MOL0     C56792   4.663   6.145   8.189  0.0912 -0.1398  0.1280
  431MOL0     C56793   4.539   6.081   8.225  0.8927 -0.3845  0.6933
  431MOL0     C56794   4.423   6.098   8.143  0.4219 -0.2501  0.3180
  431MOL0     O56795   4.305   6.037   8.165  0.1379  0.1049  0.0065
  431MOL0     C56796   4.293   5.917   8.245  0.1990  0.1641 -0.0145
  431MOL0     C56797   4.138   5.869   8.246 -0.1050  0.2097  0.7344
  431MOL0     C56798   4.095   5.790   8.371 -0.1838  0.2876  0.6863
  431MOL0     C56799   3.945   5.770   8.358  0.5367 -0.1824  0.3834
  431MOL0     C56800   3.870   5.736   8.489  0.0823 -0.2464 -0.4249
  431MOL0     C56801   3.720   5.741   8.463 -0.4867  0.6319 -0.1554
  431MOL0     C56802   3.649   5.659   8.580  0.1658  0.6813 -0.9511
  431MOL0     C56803   3.506   5.671   8.558 -0.5277  0.1529 -0.2396
  431MOL0    Cl56804   3.428   5.552   8.662  0.0184 -0.0761  0.0056
  431MOL0     C56805   4.435   6.182   8.027  0.9654 -0.0809  0.3902
  431MOL0     C56806   4.559   6.246   7.993 -0.5029  0.2924 -0.2052
  431MOL0     O56807   4.910   6.286   8.238 -0.3605  0.1743 -0.4553
  431MOL0     C56808   5.049   6.363   7.921 -0.4327 -0.3051 -0.3569
  431MOL0     C56809   5.178   6.402   7.867  0.9269 -0.5626 -0.3256
  431MOL0     N56810   5.919   6.350   7.716  0.1882  0.8209 -0.7877
  431MOL0     N56811   6.025   6.332   7.786  0.3164  0.1349  0.1033
  431MOL0     C56812   7.176   7.180   7.849 -0.7746 -0.2215  0.2773
  431MOL0     C56813   7.267   7.288   7.827  0.2805  0.2510  0.1719
  431MOL0     C56814   7.557   7.571   7.651  0.0868 -0.4758  0.7045
  431MOL0     C56815   7.495   7.669   7.572 -0.4570  0.4064 -0.6167
  431MOL0     C56816   7.564   7.778   7.515  0.0010 -0.2929  0.0072
  431MOL0     C56817   7.708   7.787   7.525  0.7354  0.2299 -0.1752
  431MOL0     O56818   7.793   7.882   7.473  0.7968  0.5641  0.6172
  431MOL0     C56819   7.751   7.972   7.368  0.5013  0.3710  0.1571
  431MOL0     C56820   7.876   8.060   7.337  1.0503  0.1446  0.5028
  431MOL0     C56821   7.914   8.137   7.472 -0.0356 -0.2503  0.3366
  431MOL0     C56822   7.993   8.266   7.449 -0.0551 -0.5255 -0.0866
  431MOL0     C56823   7.995   8.352   7.570  0.4314 -1.1633 -0.5070
  431MOL0     C56824   7.996   8.422   7.675  0.3905  0.0223  0.2275
  431MOL0     C56825   7.775   7.689   7.598  0.6958  0.1550 -0.8911
  431MOL0     C56826   7.697   7.579   7.663  0.1646 -0.3874 -1.0715
  431MOL0     H56827   7.119   7.426   7.557  0.1412  0.5201  0.6933
  431MOL0     H56828   6.977   7.233   7.584 -0.4148  0.2994  0.1994
  431MOL0     H56829   6.925   6.986   7.606  0.6156  1.1634 -0.7720
  431MOL0     H56830   6.810   7.085   7.703  2.4875  1.9835  0.8051
  431MOL0     H56831   6.798   6.888   7.870 -0.6258 -0.8584 -0.2464
  431MOL0     H56832   6.898   6.793   7.764 -1.0800 -1.4248 -0.8295
  431MOL0     H56833   6.717   6.822   7.588  0.1177  2.5247 -0.7114
  431MOL0     H56834   6.620   6.910   7.716  1.9998  2.6433 -0.1038
  431MOL0     H56835   6.709   6.634   7.771 -0.5357  0.0774  1.1782
  431MOL0     H56836   6.625   6.727   7.878  1.4055 -0.2125  0.3645
  431MOL0     H56837   6.517   6.628   7.612 -0.2251 -0.0825  0.4039
  431MOL0     H56838   6.429   6.754   7.712 -2.0391 -0.7770  2.3682
  431MOL0     H56839   6.435   6.600   7.906 -1.7055 -0.1940 -0.2187
  431MOL0     H56840   6.464   6.469   7.785 -0.6124 -0.8226  2.1523
  431MOL0     H56841   6.232   6.663   7.779 -3.2699 -2.2696 -0.6018
  431MOL0     H56842   6.279   6.533   7.666  0.2440 -0.6517 -0.3146
  431MOL0     H56843   6.228   6.490   7.965  2.4905 -0.3834  0.6025
  431MOL0     H56844   6.265   6.365   7.850  0.7005 -0.2264 -3.2675
  431MOL0     H56845   6.002   6.657   7.795  2.0663 -0.0936  1.0924
  431MOL0     H56846   5.822   6.574   7.529  1.0749 -0.3566  0.4089
  431MOL0     H56847   5.777   6.673   7.670  0.9120  0.0004  3.0715
  431MOL0     H56848   5.650   6.393   7.608  0.8568 -0.5969  0.0921
  431MOL0     H56849   5.596   6.554   7.555  2.9906  0.2269 -1.0316
  431MOL0     H56850   5.661   6.483   7.838  0.4721 -0.1824 -1.0352
  431MOL0     H56851   5.565   6.622   7.780  3.7671  1.3704  1.6501
  431MOL0     H56852   5.487   6.338   7.791  3.3323  1.8250  2.7037
  431MOL0     H56853   5.383   6.462   7.706 -1.1192 -0.0255  1.2541
  431MOL0     H56854   5.336   6.462   8.140  2.1271  1.2655 -1.0680
  431MOL0     H56855   5.117   6.416   8.243  2.7162 -2.3174 -0.1451
  431MOL0     H56856   4.748   6.136   8.255 -0.0784  2.2547  0.7464
  431MOL0     H56857   4.543   6.020   8.314  2.3639 -1.4989 -0.1087
  431MOL0     H56858   4.323   5.942   8.347 -0.1708 -0.0619  0.1492
  431MOL0     H56859   4.356   5.835   8.210  0.2452  0.6747 -1.1858
  431MOL0     H56860   4.118   5.811   8.155  0.2044  0.6941  0.3513
  431MOL0     H56861   4.081   5.961   8.235 -0.0966 -0.0888 -3.4750
  431MOL0     H56862   4.112   5.841   8.466  1.5823 -1.3536  1.3196
  431MOL0     H56863   4.150   5.697   8.387 -1.1695 -0.7353 -1.5046
  431MOL0     H56864   3.892   5.850   8.306 -0.9154 -1.9170 -0.9456
  431MOL0     H56865   3.926   5.694   8.281  0.1985  1.0813 -0.8102
  431MOL0     H56866   3.896   5.814   8.561 -0.2585 -0.1979 -0.3486
  431MOL0     H56867   3.911   5.642   8.527  0.1696 -0.7403 -1.6981
  431MOL0     H56868   3.687   5.688   8.373  2.0513 -1.1974 -0.1047
  431MOL0     H56869   3.680   5.842   8.471 -1.8032  0.1721 -0.5232
  431MOL0     H56870   3.685   5.555   8.583  0.9377  0.9057 -1.9951
  431MOL0     H56871   3.679   5.699   8.677  0.0025 -1.2545 -0.0404
  431MOL0     H56872   3.478   5.644   8.456 -1.7073  1.3740 -0.2766
  431MOL0     H56873   3.469   5.773   8.578 -1.2623  0.1540 -1.5010
  431MOL0     H56874   4.351   6.173   7.959  1.7866 -0.6336 -0.5781
  431MOL0     H56875   4.575   6.296   7.898 -0.9503 -0.5019 -0.7133
  431MOL0     H56876   4.963   6.335   7.859 -2.5833 -0.1685  2.3830
  431MOL0     H56877   5.183   6.379   7.761 -0.9789 -1.2565 -0.3148
  431MOL0     H56878   7.203   7.102   7.919 -0.6448  2.0062  2.8942
  431MOL0     H56879   7.352   7.289   7.894 -0.7724 -0.4354  1.5658
  431MOL0     H56880   7.387   7.666   7.560 -0.3790 -0.6899 -1.1144
  431MOL0     H56881   7.505   7.845   7.452  0.5497 -0.2560 -0.4753
  431MOL0     H56882   7.665   8.037   7.388  0.6091  0.6433 -0.2457
  431MOL0     H56883   7.731   7.917   7.275  0.7859  1.6020 -0.6640
  431MOL0     H56884   7.963   7.997   7.316  0.9258  0.2884 -0.4849
  431MOL0     H56885   7.854   8.127   7.253  0.2270 -1.0622 -0.2805
  431MOL0     H56886   7.969   8.068   7.535 -1.9032 -2.2443 -0.0837
  431MOL0     H56887   7.819   8.165   7.519 -0.3707  0.0448 -0.4990
  431MOL0     H56888   8.099   8.262   7.422  0.2539  0.7740  0.8620
  431MOL0     H56889   7.954   8.321   7.363  1.0965  0.6503  0.1050
  431MOL0     H56890   8.002   8.477   7.766  3.1356 -0.7892  0.6457
  431MOL0     H56891   7.880   7.698   7.623  0.1058 -1.5288  3.1440
  431MOL0     H56892   7.745   7.507   7.728 -1.1693  0.2259  0.6591
  432MOL0     O56893   0.805   5.863   9.388 -0.3681 -0.0792  0.0152
  432MOL0     C56894   0.730   5.906   9.476 -0.9055  0.1147 -0.9935
  432MOL0     O56895   0.756   5.899   9.613 -0.0211  0.3885 -0.3021
  432MOL0     C56896   0.896   5.897   9.634  0.5327 -0.5090  0.3335
  432MOL0     C56897   0.964   5.770   9.639 -0.1516 -0.3497  0.1301
  432MOL0     C56898   1.098   5.767   9.669  0.4258  0.6967 -0.1110
  432MOL0     C56899   1.162   5.881   9.714 -0.3417 -0.1933 -0.5515
  432MOL0     O56900   1.288   5.854   9.759 -0.2101 -0.4027 -0.4117
  432MOL0     C56901   1.384   5.961   9.786 -0.2601 -0.5154  0.1822
  432MOL0     C56902   1.527   5.893   9.787 -1.3181  0.0607 -0.8379
  432MOL0     C56903   1.629   5.982   9.859  0.0538 -0.1078  0.3593
  432MOL0     C56904   1.771   5.920   9.849  0.3103 -0.6723 -1.0599
  432MOL0     C56905   1.870   6.004   9.932  0.3597  0.6315  0.7566
  432MOL0     C56906   2.005   5.930   9.948  0.2560  0.2974 -0.2027
  432MOL0     C56907   2.102   6.016  10.046  1.0042  0.4987  0.7098
  432MOL0     C56908   2.109   5.983  10.199  0.4750  0.7144  0.2529
  432MOL0     N56909   1.988   5.938  10.268 -0.0263 -0.3244  0.2924
  432MOL0     C56910   1.927   5.816  10.256 -0.1401 -0.1436  0.5141
  432MOL0     C56911   1.807   5.829  10.311  0.4986 -0.5570  0.8840
  432MOL0     C56912   1.699   5.725  10.305 -0.5010 -0.1417  0.0120
  432MOL0     C56913   1.587   5.758  10.211  0.9439  0.2369  0.1239
  432MOL0     C56914   1.487   5.860  10.263  1.5084 -0.1229 -0.6253
  432MOL0     C56915   1.356   5.881  10.178 -0.1055 -1.2366  0.2409
  432MOL0     O56916   1.255   5.777  10.219 -1.0288  0.2718 -0.2831
  432MOL0     C56917   1.130   5.775  10.171 -0.3154 -0.0431  0.0118
  432MOL0     C56918   1.092   5.850  10.058  0.4332  0.1425  0.3921
  432MOL0     C56919   0.958   5.858  10.030  0.8780 -0.0369 -1.2388
  432MOL0     C56920   0.860   5.796  10.106  0.4773 -0.3262 -0.3712
  432MOL0     C56921   0.713   5.802  10.081 -0.0600 -0.1104  0.2809
  432MOL0     O56922   0.663   5.917  10.014  0.1416 -0.4532 -0.4227
  432MOL0     C56923   0.530   5.915  10.000  0.0905 -0.0247  0.2567
  432MOL0     C56924   0.436   5.936  10.101  0.0431  0.5452  0.0223
  432MOL0     C56925   0.302   5.943  10.069  0.0810 -0.4205  0.6041
  432MOL0     C56926   0.255   5.932   9.940 -0.0702  0.4125  0.5204
  432MOL0     O56927   0.124   5.940   9.922  0.7753 -0.7023 -0.5528
  432MOL0     C56928   0.070   5.894   9.793  0.3765 -0.3605  0.1233
  432MOL0     C56929  -0.086   5.890   9.780 -0.4737 -0.4400 -0.0249
  432MOL0     C56930  -0.128   5.774   9.694 -0.2330 -0.7940 -0.4186
  432MOL0     C56931  -0.279   5.781   9.659 -0.2348  0.1733 -0.3106
  432MOL0     C56932  -0.382   5.771   9.774 -0.4795 -1.1079 -0.1203
  432MOL0     C56933  -0.522   5.711   9.733 -0.2171  0.9751 -0.2418
  432MOL0     C56934  -0.596   5.805   9.639  0.0293  0.3398  0.7930
  432MOL0     C56935  -0.752   5.786   9.638  0.1008 -0.1763  0.3545
  432MOL0    Cl56936  -0.823   5.903   9.514 -0.4515 -0.4571 -0.0952
  432MOL0     C56937   0.344   5.917   9.832 -0.3169 -0.5182 -0.3944
  432MOL0     C56938   0.482   5.910   9.868  0.5415  0.1668  0.5531
  432MOL0     O56939   0.645   5.719  10.138  0.5521  0.4452  0.4228
  432MOL0     C56940   0.906   5.716  10.219  0.5782  0.2704  0.0450
  432MOL0     C56941   1.039   5.714  10.251 -0.0139  0.3800  0.2058
  432MOL0     N56942   1.794   5.958  10.348  0.1568 -0.8869  0.5970
  432MOL0     N56943   1.890   6.026  10.309 -0.3751  0.2278  0.6215
  432MOL0     C56944   1.092   6.008   9.724  0.4170 -0.2966  0.7804
  432MOL0     C56945   0.959   6.011   9.676 -0.2346 -0.0094 -0.2199
  432MOL0     C56946   0.610   5.973   9.433 -0.0315  0.0954  0.7452
  432MOL0     C56947   0.559   5.951   9.308 -0.1141  1.8248  0.1871
  432MOL0     C56948   0.441   6.005   9.263 -0.2456  0.1332 -0.6499
  432MOL0     C56949   0.370   6.090   9.340 -0.7211 -0.4080  0.0907
  432MOL0     O56950   0.262   6.137   9.279  0.4877  0.6506  0.9069
  432MOL0     C56951   0.168   6.213   9.355 -0.1065 -1.1812 -0.1445
  432MOL0     C56952   0.099   6.131   9.464 -0.0413  0.3078  0.6915
  432MOL0     C56953  -0.009   6.209   9.543  0.0497  0.2704  0.0190
  432MOL0     C56954  -0.117   6.281   9.469  0.5631 -0.9613 -0.3179
  432MOL0     C56955  -0.233   6.188   9.461  0.9735 -0.3829 -0.9698
  432MOL0     C56956  -0.332   6.127   9.460  0.4382 -0.1053  0.2559
  432MOL0     C56957   0.428   6.123   9.475 -0.0624  0.4119 -0.1262
  432MOL0     C56958   0.538   6.056   9.520 -0.2423  0.0927  0.1614
  432MOL0     H56959   0.912   5.679   9.609 -0.1459 -0.4544  0.4428
  432MOL0     H56960   1.154   5.674   9.678  0.0802  0.6402  1.8933
  432MOL0     H56961   1.352   6.013   9.877 -6.3315  1.0281 -2.3012
  432MOL0     H56962   1.377   6.046   9.718 -3.6762  1.6973  2.9079
  432MOL0     H56963   1.556   5.874   9.683 -1.0703 -2.8339 -0.3360
  432MOL0     H56964   1.526   5.797   9.841 -2.2074  0.0251 -0.9015
  432MOL0     H56965   1.607   6.004   9.964 -1.0945  3.2736 -0.4688
  432MOL0     H56966   1.635   6.077   9.805  0.8107  0.1122  0.8105
  432MOL0     H56967   1.774   5.818   9.887 -1.7750  0.2749  1.9366
  432MOL0     H56968   1.804   5.915   9.744  0.9406  0.0247 -0.9116
  432MOL0     H56969   1.824   6.003  10.032 -0.3084 -1.0795  0.4529
  432MOL0     H56970   1.892   6.107   9.901  4.2590 -1.0857 -3.2412
  432MOL0     H56971   2.037   5.914   9.844 -1.2840 -0.9235 -0.5309
  432MOL0     H56972   1.991   5.828   9.984 -2.2895  0.1763 -1.3601
  432MOL0     H56973   2.204   6.011  10.008 -0.3484  0.4944 -3.4271
  432MOL0     H56974   2.072   6.120  10.032  1.1750  0.2700 -1.7476
  432MOL0     H56975   2.151   6.067  10.256  0.3143  1.1710 -0.2952
  432MOL0     H56976   2.171   5.896  10.224 -0.7472 -0.0586  0.7051
  432MOL0     H56977   1.979   5.734  10.209  3.5208  2.0006  0.3875
  432MOL0     H56978   1.653   5.708  10.403 -1.4873  0.4344 -0.3326
  432MOL0     H56979   1.749   5.633  10.274 -0.2243  0.3302 -0.9902
  432MOL0     H56980   1.539   5.662  10.192  1.3065  0.1669 -0.4744
  432MOL0     H56981   1.631   5.796  10.118  1.6193  1.0141  0.7404
  432MOL0     H56982   1.454   5.842  10.366 -2.2977  0.4574 -1.5669
  432MOL0     H56983   1.538   5.955  10.278 -0.7295  0.7621  2.6482
  432MOL0     H56984   1.370   5.871  10.070 -0.4604  1.0539 -0.0709
  432MOL0     H56985   1.312   5.981  10.191 -0.3469 -1.0704 -1.5539
  432MOL0     H56986   1.169   5.904  10.004  1.8384  0.5657  2.6446
  432MOL0     H56987   0.930   5.926   9.950  2.2958  1.6540 -0.3591
  432MOL0     H56988   0.477   5.947  10.201  1.5619  0.4946 -0.5735
  432MOL0     H56989   0.226   5.946  10.146  0.5531 -0.0216  1.0654
  432MOL0     H56990   0.114   5.795   9.777  0.6555  0.2113 -3.4845
  432MOL0     H56991   0.098   5.960   9.710  2.2163 -0.5794  0.5232
  432MOL0     H56992  -0.120   5.983   9.733  1.1747 -0.7863 -2.0710
  432MOL0     H56993  -0.135   5.873   9.876 -2.8263  2.3041 -0.5992
  432MOL0     H56994  -0.113   5.676   9.740  1.0163 -0.2698  0.3150
  432MOL0     H56995  -0.079   5.783   9.596 -0.1589 -0.1707 -0.3244
  432MOL0     H56996  -0.295   5.872   9.602  5.0216  1.3960 -0.3356
  432MOL0     H56997  -0.302   5.697   9.592 -0.4870 -1.2678  1.4753
  432MOL0     H56998  -0.400   5.871   9.814  1.8415 -0.2583 -0.9968
  432MOL0     H56999  -0.338   5.721   9.860 -2.1658 -0.1860  1.3433
  432MOL0     H57000  -0.587   5.702   9.821 -1.8114  2.7611 -1.1677
  432MOL0     H57001  -0.512   5.612   9.687 -1.0964  1.5171 -1.6697
  432MOL0     H57002  -0.578   5.910   9.663 -4.8262  1.7479 -0.5394
  432MOL0     H57003  -0.566   5.786   9.536 -0.7007  2.2130  0.1967
  432MOL0     H57004  -0.795   5.815   9.734  0.8400  1.7259  0.1495
  432MOL0     H57005  -0.769   5.681   9.610 -1.3486  0.0001  0.4795
  432MOL0     H57006   0.315   5.920   9.727 -2.2374  1.9463  0.0962
  432MOL0     H57007   0.552   5.902   9.786 -1.0635  1.8289 -1.0873
  432MOL0     H57008   0.844   5.655  10.283 -0.8664 -0.4954 -1.9683
  432MOL0     H57009   1.069   5.660  10.340  2.0894  1.3909  0.1603
  432MOL0     H57010   1.146   6.094   9.762  0.3052  0.5311 -0.8849
  432MOL0     H57011   0.889   6.093   9.680 -2.5721 -1.7616 -2.0852
  432MOL0     H57012   0.625   5.897   9.240 -0.1992 -1.2463  2.3288
  432MOL0     H57013   0.408   5.996   9.160 -0.1871 -2.3820 -0.5189
  432MOL0     H57014   0.092   6.253   9.287  0.1903 -2.9496 -1.6126
  432MOL0     H57015   0.206   6.301   9.408 -0.7682  0.9005 -2.8896
  432MOL0     H57016   0.050   6.047   9.414 -1.7713 -0.0407  2.8065
  432MOL0     H57017   0.179   6.096   9.529 -0.4179 -0.5428  0.7186
  432MOL0     H57018   0.065   6.271   9.595  1.2697  0.1895 -1.5249
  432MOL0     H57019  -0.063   6.132   9.599 -1.0132  1.4092  0.5871
  432MOL0     H57020  -0.147   6.367   9.529 -0.8614 -1.1081 -0.7792
  432MOL0     H57021  -0.082   6.304   9.368  3.2555  0.0013  0.7383
  432MOL0     H57022  -0.421   6.070   9.477 -1.4124  2.9736  1.9896
  432MOL0     H57023   0.366   6.186   9.538 -1.9524 -0.9181 -0.5421
  432MOL0     H57024   0.557   6.078   9.624 -3.2932  2.1753  0.4156
  433MOL0     O57025   0.627   6.046   4.106  0.2397  1.5891  0.0666
  433MOL0     C57026   0.687   6.080   4.008  1.3137 -0.2441 -0.2919
  433MOL0     O57027   0.627   6.149   3.903  0.2085  0.1538 -0.4275
  433MOL0     C57028   0.490   6.150   3.899  0.3264 -0.3929  0.4812
  433MOL0     C57029   0.422   6.048   3.835  0.1011 -0.5441 -0.2495
  433MOL0     C57030   0.283   6.058   3.822 -0.0745  0.5087 -0.7611
  433MOL0     C57031   0.217   6.173   3.881  1.4922  0.9065 -0.1518
  433MOL0     O57032   0.084   6.183   3.850 -0.2784  0.3100 -0.1901
  433MOL0     C57033  -0.009   6.283   3.897  0.2866  0.6602 -0.3869
  433MOL0     C57034  -0.156   6.246   3.873 -0.4217  0.2577 -0.1853
  433MOL0     C57035  -0.181   6.203   3.725  0.5280  0.1039 -0.2819
  433MOL0     C57036  -0.322   6.148   3.727  0.1642  0.2664 -0.0167
  433MOL0     C57037  -0.339   6.075   3.589  0.0690  0.0408 -0.0403
  433MOL0     C57038  -0.395   5.928   3.607 -0.5358 -0.0199 -0.2441
  433MOL0     C57039  -0.525   5.921   3.678 -0.4490 -0.8075  0.9076
  433MOL0     C57040  -0.573   5.777   3.706  0.5071 -0.6861  0.1696
  433MOL0     N57041  -0.677   5.789   3.811 -0.1324  0.1142 -0.4067
  433MOL0     C57042  -0.812   5.786   3.797  0.4763  0.2886 -0.2799
  433MOL0     C57043  -0.875   5.824   3.912 -0.0231 -0.3185 -0.0847
  433MOL0     C57044  -1.030   5.821   3.926 -1.1331  0.2354  0.4006
  433MOL0     C57045  -1.105   5.834   3.795 -0.9341  0.0002 -0.5566
  433MOL0     C57046  -1.245   5.858   3.820 -0.5518 -0.0053 -0.5864
  433MOL0     C57047  -1.331   5.887   3.702 -0.8107 -0.2752 -0.4252
  433MOL0     O57048  -1.343   5.762   3.626 -0.1638 -0.7173  0.6857
  433MOL0     C57049  -1.461   5.700   3.627 -0.5021 -0.6423  0.7927
  433MOL0     C57050  -1.553   5.738   3.535  0.1041 -0.1596  0.9689
  433MOL0     C57051  -1.671   5.668   3.521  0.0636  0.3781  0.1892
  433MOL0     C57052  -1.711   5.571   3.614  1.0884  0.3750  0.0052
  433MOL0     C57053  -1.852   5.516   3.622  0.7997 -0.2270 -0.1686
  433MOL0     O57054  -1.935   5.572   3.536 -0.4847  0.3173 -0.4204
  433MOL0     C57055  -2.053   5.510   3.496 -0.2074  0.0931 -0.0987
  433MOL0     C57056  -2.143   5.588   3.439 -0.2807  0.2025  0.3590
  433MOL0     C57057  -2.263   5.546   3.381 -0.5275  0.2430  0.0399
  433MOL0     C57058  -2.302   5.413   3.393  0.9786 -0.1070 -0.0921
  433MOL0     O57059  -2.422   5.364   3.342 -0.0167 -0.1945 -0.6301
  433MOL0     C57060  -2.448   5.221   3.348 -0.6520 -0.2012  0.0253
  433MOL0     C57061  -2.593   5.187   3.294 -0.5670  0.0089 -0.0559
  433MOL0     C57062  -2.704   5.233   3.390  0.4105 -0.2615 -0.2789
  433MOL0     C57063  -2.831   5.163   3.355  0.1954 -0.2171  0.6620
  433MOL0     C57064  -2.858   5.026   3.424 -0.4691 -0.3275 -1.3869
  433MOL0     C57065  -2.970   4.947   3.350 -0.5259  0.4522  0.2611
  433MOL0     C57066  -2.974   4.814   3.410  0.3835  0.6599 -0.0671
  433MOL0     C57067  -3.100   4.744   3.370 -0.0826  0.1564  0.2871
  433MOL0    Cl57068  -3.245   4.788   3.474  0.0307 -0.0413 -0.2421
  433MOL0     C57069  -2.203   5.330   3.459  0.0295 -0.6155 -0.4367
  433MOL0     C57070  -2.074   5.374   3.498 -0.2898  0.8521  0.2826
  433MOL0     O57071  -1.873   5.431   3.708 -0.2006  0.0133 -0.0281
  433MOL0     C57072  -1.614   5.531   3.712 -0.6409  0.6084  0.1752
  433MOL0     C57073  -1.489   5.595   3.714 -0.3887 -0.7107 -0.3438
  433MOL0     N57074  -0.768   5.836   4.005 -0.6348 -0.2689 -0.9375
  433MOL0     N57075  -0.654   5.817   3.944 -0.1068  0.2226 -0.2043
  433MOL0     C57076   0.276   6.266   3.957 -0.4838 -0.4874  0.4822
  433MOL0     C57077   0.415   6.255   3.955 -0.1893  0.7583 -0.1184
  433MOL0     C57078   0.832   6.057   3.997 -0.6433 -0.2389  0.3230
  433MOL0     C57079   0.899   6.003   4.112 -0.0122 -0.1374 -0.9422
  433MOL0     C57080   1.038   5.976   4.103 -0.3792 -0.8754  0.4605
  433MOL0     C57081   1.105   6.005   3.973  0.6082 -0.8437 -1.1406
  433MOL0     O57082   1.238   5.968   3.950  0.5284 -0.2397 -0.4416
  433MOL0     C57083   1.323   6.054   4.033 -0.1533  0.2760  0.9520
  433MOL0     C57084   1.459   6.031   3.978 -0.5583  0.6111  0.2218
  433MOL0     C57085   1.470   6.070   3.828 -0.0703  0.8988  0.2196
  433MOL0     C57086   1.616   6.084   3.770 -0.2546 -0.1577 -0.1514
  433MOL0     C57087   1.682   6.212   3.816  0.7794 -0.1096  1.1237
  433MOL0     C57088   1.734   6.316   3.858  0.7850  0.0119 -0.2024
  433MOL0     C57089   1.028   6.055   3.868 -0.4618 -0.4623  0.0642
  433MOL0     C57090   0.900   6.097   3.875  0.9357  0.8132 -0.3210
  433MOL0     H57091   0.470   5.962   3.789  0.9386 -1.6723  2.5243
  433MOL0     H57092   0.238   5.983   3.758  1.2025  0.5876 -1.7917
  433MOL0     H57093   0.000   6.377   3.841  2.1854 -0.6499 -2.4690
  433MOL0     H57094   0.018   6.296   4.002  2.4629 -3.7134 -0.1667
  433MOL0     H57095  -0.215   6.335   3.898 -0.1059  1.1277 -2.3031
  433MOL0     H57096  -0.184   6.166   3.941  0.5670  0.0451 -0.0119
  433MOL0     H57097  -0.104   6.129   3.701  2.4444  2.2464 -1.1491
  433MOL0     H57098  -0.169   6.286   3.655 -1.0611  1.1333  0.6076
  433MOL0     H57099  -0.329   6.072   3.806 -3.1736  2.9843  2.5860
  433MOL0     H57100  -0.396   6.226   3.743 -1.9128 -1.8019  0.9641
  433MOL0     H57101  -0.242   6.064   3.540  0.4514 -3.6744  1.2520
  433MOL0     H57102  -0.392   6.144   3.523  0.6841  1.8516  1.2646
  433MOL0     H57103  -0.322   5.859   3.650 -0.7572 -0.6816 -0.9145
  433MOL0     H57104  -0.412   5.887   3.507  1.9564 -0.5659 -0.5072
  433MOL0     H57105  -0.530   5.992   3.761 -4.6020  1.6162 -1.0665
  433MOL0     H57106  -0.598   5.956   3.604  0.2730  3.8980  2.1125
  433MOL0     H57107  -0.486   5.725   3.747  1.5837 -0.4899 -1.7826
  433MOL0     H57108  -0.602   5.720   3.618  0.2640 -0.5496  0.1585
  433MOL0     H57109  -0.863   5.748   3.709  0.1837 -0.3411  0.1468
  433MOL0     H57110  -1.051   5.904   3.994 -2.4824 -0.6397  1.1140
  433MOL0     H57111  -1.058   5.731   3.981 -2.9999  0.8686  0.5656
  433MOL0     H57112  -1.076   5.747   3.735  1.9260  1.2891 -1.2427
  433MOL0     H57113  -1.070   5.923   3.741  0.6475  0.1395  0.6209
  433MOL0     H57114  -1.280   5.767   3.869 -0.1842  0.6738  0.9825
  433MOL0     H57115  -1.250   5.950   3.878 -3.4794  0.1347 -0.9386
  433MOL0     H57116  -1.275   5.964   3.647  1.7929  0.7925  3.3680
  433MOL0     H57117  -1.426   5.924   3.742 -0.0060  0.7125  0.6353
  433MOL0     H57118  -1.535   5.834   3.486  0.3916 -0.4219  0.5552
  433MOL0     H57119  -1.743   5.692   3.443 -1.2133 -2.6094  0.3133
  433MOL0     H57120  -2.104   5.689   3.431  1.6061 -0.5865 -0.9152
  433MOL0     H57121  -2.331   5.615   3.332 -0.4858 -0.1709 -0.6090
  433MOL0     H57122  -2.427   5.187   3.450  0.1326  0.5341  0.1188
  433MOL0     H57123  -2.389   5.173   3.270  0.5748  2.7141 -0.9906
  433MOL0     H57124  -2.584   5.080   3.275  3.3209 -0.2028  1.8642
  433MOL0     H57125  -2.593   5.235   3.196  1.2194 -1.0625 -0.6369
  433MOL0     H57126  -2.709   5.342   3.383 -1.8931  0.2666  4.9914
  433MOL0     H57127  -2.684   5.206   3.495 -0.5940  1.3210  0.3533
  433MOL0     H57128  -2.910   5.226   3.397 -0.3083 -0.3323 -0.1020
  433MOL0     H57129  -2.849   5.166   3.248 -0.1740  1.5755  0.7466
  433MOL0     H57130  -2.873   5.031   3.532  1.9814 -6.2315 -0.4074
  433MOL0     H57131  -2.760   4.978   3.419  0.5196  0.9510  2.3421
  433MOL0     H57132  -2.942   4.928   3.246  1.5156  0.2678  0.7878
  433MOL0     H57133  -3.067   4.995   3.363 -1.3436 -1.8183  5.3673
  433MOL0     H57134  -2.887   4.759   3.372 -0.5045  0.0967 -1.3454
  433MOL0     H57135  -2.964   4.822   3.519  3.2171 -0.9891 -0.1173
  433MOL0     H57136  -3.076   4.638   3.386 -1.3133  0.0906  2.0210
  433MOL0     H57137  -3.120   4.762   3.264  3.2375  0.7434 -0.3538
  433MOL0     H57138  -2.220   5.228   3.493  0.1373 -0.4595  0.1001
  433MOL0     H57139  -2.022   5.292   3.547 -0.3766  1.7314  1.9468
  433MOL0     H57140  -1.629   5.450   3.782 -0.7658 -0.1092 -0.6718
  433MOL0     H57141  -1.413   5.565   3.786 -0.8151 -0.2330  0.3151
  433MOL0     H57142   0.223   6.349   4.003  0.8093  1.3125 -1.1286
  433MOL0     H57143   0.472   6.334   4.004 -0.6033 -0.4324  2.4206
  433MOL0     H57144   0.848   5.998   4.208  2.6706 -0.7574  0.5658
  433MOL0     H57145   1.100   5.931   4.180  2.1532 -2.2447 -2.1436
  433MOL0     H57146   1.323   6.028   4.139  2.4094 -3.2439  0.2812
  433MOL0     H57147   1.296   6.156   4.004 -0.1866 -0.2658 -1.1021
  433MOL0     H57148   1.518   6.104   4.035  2.7588 -0.9476 -0.9862
  433MOL0     H57149   1.491   5.932   4.009  0.2203  1.2312  1.4900
  433MOL0     H57150   1.410   6.161   3.819 -1.9460 -0.4141 -1.3386
  433MOL0     H57151   1.417   6.000   3.764 -1.6153  0.6280  1.7408
  433MOL0     H57152   1.678   5.999   3.802  0.6794  0.6248  0.1719
  433MOL0     H57153   1.613   6.079   3.661  2.1999  0.0118 -0.2928
  433MOL0     H57154   1.786   6.408   3.877  1.5930 -0.5368  0.2525
  433MOL0     H57155   1.075   6.069   3.771 -2.6085  3.6247 -0.6147
  433MOL0     H57156   0.861   6.141   3.784  1.2220  0.9002 -0.4026
  434MOL0     O57157   1.280   9.788   4.244 -0.0298  0.8805 -1.3255
  434MOL0     C57158   1.289   9.667   4.286 -1.8822 -0.3598  0.5835
  434MOL0     O57159   1.188   9.590   4.324 -0.7912  0.3319  0.0527
  434MOL0     C57160   1.062   9.630   4.344  0.1866  0.0918 -0.1689
  434MOL0     C57161   1.007   9.760   4.348  0.7979 -0.2255 -0.0423
  434MOL0     C57162   0.863   9.778   4.351 -0.8385 -0.3207 -1.6629
  434MOL0     C57163   0.772   9.678   4.359  0.6375  0.7400  0.0736
  434MOL0     O57164   0.636   9.680   4.378 -0.1271 -0.7118  0.5108
  434MOL0     C57165   0.559   9.771   4.299  0.6745  0.6657 -0.1939
  434MOL0     C57166   0.410   9.751   4.337  0.2916  0.3551 -0.2594
  434MOL0     C57167   0.311   9.813   4.247  1.0357 -0.2148  0.4561
  434MOL0     C57168   0.168   9.795   4.315 -0.5461 -0.2139 -0.5087
  434MOL0     C57169   0.049   9.864   4.254 -0.9326 -0.5416  0.7334
  434MOL0     C57170  -0.079   9.785   4.285 -0.6245  0.1619  0.1235
  434MOL0     C57171  -0.209   9.865   4.263 -0.5487  0.7213  0.1540
  434MOL0     C57172  -0.328   9.768   4.264 -0.3055  0.1495  0.0449
  434MOL0     N57173  -0.353   9.691   4.392  0.5707 -0.2678 -0.6877
  434MOL0     C57174  -0.349   9.556   4.395 -0.2531 -0.1287  0.4787
  434MOL0     C57175  -0.458   9.517   4.470  0.0817 -0.0350 -0.6012
  434MOL0     C57176  -0.514   9.376   4.485  0.5882 -0.1991 -0.4465
  434MOL0     C57177  -0.661   9.358   4.417 -0.7117  0.3617  0.4391
  434MOL0     C57178  -0.724   9.220   4.458  0.6484 -1.0630  0.0473
  434MOL0     C57179  -0.846   9.183   4.372  0.3102 -0.3987  0.2713
  434MOL0     O57180  -0.921   9.299   4.340  0.2300  0.7194 -0.2193
  434MOL0     C57181  -1.049   9.281   4.292  0.3345 -0.1492  0.3685
  434MOL0     C57182  -1.141   9.385   4.280 -0.1732 -0.8499  0.0537
  434MOL0     C57183  -1.266   9.375   4.223 -0.1973 -0.1437  0.8261
  434MOL0     C57184  -1.314   9.253   4.186 -0.3109  0.2523 -0.5630
  434MOL0     C57185  -1.448   9.240   4.123 -0.6399  0.7580 -0.5046
  434MOL0     O57186  -1.498   9.358   4.094  0.1496 -0.0627  0.5612
  434MOL0     C57187  -1.631   9.373   4.069  0.8360 -0.3798  0.2835
  434MOL0     C57188  -1.702   9.304   3.971  0.3218  0.6210  0.5786
  434MOL0     C57189  -1.838   9.334   3.934 -0.2219 -0.1486 -0.1513
  434MOL0     C57190  -1.903   9.430   4.009  0.4235  0.4030  1.6378
  434MOL0     O57191  -2.041   9.467   3.982  0.1603 -0.5867 -0.2705
  434MOL0     C57192  -2.083   9.474   3.845 -0.4381  0.3884 -0.6186
  434MOL0     C57193  -2.225   9.436   3.843 -0.2795  0.0244  0.2632
  434MOL0     C57194  -2.309   9.554   3.894  0.6174  0.5021 -0.0753
  434MOL0     C57195  -2.444   9.521   3.830 -1.0006  0.6088  0.5331
  434MOL0     C57196  -2.551   9.623   3.871 -0.0361 -0.3605 -0.5756
  434MOL0     C57197  -2.685   9.587   3.809  0.1198  0.1553 -1.0099
  434MOL0     C57198  -2.793   9.690   3.855  0.0192 -0.6941 -1.1053
  434MOL0     C57199  -2.928   9.656   3.801 -0.4410 -0.2215  0.4634
  434MOL0    Cl57200  -2.939   9.668   3.622  0.0441 -0.0305 -0.2452
  434MOL0     C57201  -1.834   9.509   4.104 -1.0491 -0.0771 -0.6588
  434MOL0     C57202  -1.698   9.482   4.129  0.5141  0.6541  1.4446
  434MOL0     O57203  -1.497   9.128   4.122  0.4128 -0.2230 -0.0571
  434MOL0     C57204  -1.232   9.140   4.194 -0.1462  0.4581  0.3582
  434MOL0     C57205  -1.104   9.156   4.252  0.2884  0.9041  0.2717
  434MOL0     N57206  -0.519   9.627   4.517  0.3597  0.5764  0.0721
  434MOL0     N57207  -0.446   9.728   4.486  0.0664 -0.2568  0.8209
  434MOL0     C57208   0.833   9.547   4.362  0.6008  0.4516 -0.5995
  434MOL0     C57209   0.973   9.521   4.355  0.8800 -0.2908  0.2013
  434MOL0     C57210   1.432   9.606   4.297  0.4915 -0.0167 -0.3768
  434MOL0     C57211   1.542   9.670   4.233  0.1096 -0.1990 -0.3106
  434MOL0     C57212   1.673   9.622   4.255 -0.2710 -0.1874  0.7562
  434MOL0     C57213   1.684   9.511   4.329  0.1336  1.0151 -0.7209
  434MOL0     O57214   1.808   9.448   4.339  0.2697 -0.3367 -0.2907
  434MOL0     C57215   1.904   9.509   4.420 -0.1274  0.6579  0.0067
  434MOL0     C57216   2.021   9.414   4.435  0.6290  0.5254  0.3718
  434MOL0     C57217   1.990   9.292   4.527 -0.3957 -0.0204  0.1772
  434MOL0     C57218   2.110   9.204   4.560 -0.5614  0.2392  0.1139
  434MOL0     C57219   2.208   9.178   4.455 -0.4841  0.3044  0.2597
  434MOL0     C57220   2.306   9.141   4.394 -0.4651 -0.5988  0.0025
  434MOL0     C57221   1.574   9.445   4.401  0.1853 -0.2016 -0.1243
  434MOL0     C57222   1.449   9.495   4.384 -0.1249 -0.3363 -0.3314
  434MOL0     H57223   1.072   9.846   4.354 -1.5224  1.8632 -2.3095
  434MOL0     H57224   0.834   9.881   4.372  4.1026  0.3512  4.9802
  434MOL0     H57225   0.552   9.733   4.196 -1.1023 -0.4298  0.3068
  434MOL0     H57226   0.604   9.871   4.305  0.5809  0.7158 -0.3233
  434MOL0     H57227   0.398   9.795   4.437 -0.2299  0.2901 -0.2915
  434MOL0     H57228   0.389   9.644   4.347 -2.9616  0.5708 -2.8576
  434MOL0     H57229   0.297   9.764   4.150 -2.5142 -0.0505  0.7392
  434MOL0     H57230   0.320   9.919   4.220 -1.3057 -0.9327 -4.1164
  434MOL0     H57231   0.142   9.691   4.295  2.7665 -0.8512 -2.3115
  434MOL0     H57232   0.172   9.824   4.420  1.0523  2.7196 -1.2696
  434MOL0     H57233   0.056   9.884   4.147 -2.0864 -0.4500  0.6722
  434MOL0     H57234   0.054   9.966   4.291  1.0452 -1.1673  2.3908
  434MOL0     H57235  -0.085   9.762   4.392  1.3455  0.4502  0.3391
  434MOL0     H57236  -0.080   9.689   4.233  0.9391 -0.4518  1.1471
  434MOL0     H57237  -0.206   9.930   4.351 -0.2271  2.6877 -1.2460
  434MOL0     H57238  -0.202   9.928   4.174  1.0130  0.1733 -0.1506
  434MOL0     H57239  -0.326   9.702   4.178  1.3567  0.5651 -0.2705
  434MOL0     H57240  -0.420   9.825   4.249 -0.1117  0.0334 -1.7612
  434MOL0     H57241  -0.285   9.496   4.331  0.9959  2.9752 -1.3972
  434MOL0     H57242  -0.513   9.371   4.595 -3.8525 -1.0826 -0.2592
  434MOL0     H57243  -0.448   9.311   4.428 -1.3686 -1.6039 -1.2285
  434MOL0     H57244  -0.649   9.364   4.308 -2.0785 -0.2915  0.2364
  434MOL0     H57245  -0.730   9.438   4.447 -4.9282 -2.7044 -0.1886
  434MOL0     H57246  -0.662   9.131   4.445  0.7968 -0.9604  0.0512
  434MOL0     H57247  -0.748   9.220   4.564 -0.9789 -0.9686 -0.2819
  434MOL0     H57248  -0.912   9.116   4.426 -1.9142  0.0047 -1.7953
  434MOL0     H57249  -0.811   9.133   4.281  1.2087 -0.2947  0.5419
  434MOL0     H57250  -1.113   9.482   4.320 -0.9174 -0.7104  0.2678
  434MOL0     H57251  -1.317   9.471   4.218  0.9268  0.4540  0.4549
  434MOL0     H57252  -1.649   9.223   3.922 -2.1098 -0.9532  0.3842
  434MOL0     H57253  -1.903   9.282   3.865 -1.1711  1.0090 -0.1675
  434MOL0     H57254  -2.020   9.409   3.782  1.3923  0.6899  0.8327
  434MOL0     H57255  -2.068   9.576   3.809 -1.1850  0.9031  0.4922
  434MOL0     H57256  -2.245   9.345   3.901 -0.0722 -1.9245 -2.5435
  434MOL0     H57257  -2.238   9.409   3.738 -0.2092 -0.8631  0.4797
  434MOL0     H57258  -2.277   9.654   3.866 -0.6114  0.6987 -0.8406
  434MOL0     H57259  -2.312   9.554   4.004 -0.5236  2.4390 -0.0633
  434MOL0     H57260  -2.424   9.521   3.723  0.7072  1.5886  0.8295
  434MOL0     H57261  -2.479   9.422   3.864 -1.3423  0.9978  1.3417
  434MOL0     H57262  -2.522   9.725   3.843 -0.6049 -0.3243 -1.0573
  434MOL0     H57263  -2.560   9.622   3.980  0.3703  0.1660 -0.5325
  434MOL0     H57264  -2.705   9.481   3.828  1.7738  0.5044  4.3614
  434MOL0     H57265  -2.662   9.591   3.702  1.2264 -0.0291 -0.7830
  434MOL0     H57266  -2.793   9.685   3.964  2.4323  3.4533 -0.7303
  434MOL0     H57267  -2.762   9.791   3.827  1.0634 -0.8460 -0.5436
  434MOL0     H57268  -2.998   9.731   3.841  0.9687  1.4866 -0.1422
  434MOL0     H57269  -2.948   9.555   3.837  1.4856 -0.4542  1.0025
  434MOL0     H57270  -1.887   9.588   4.156 -4.2213 -2.1861 -0.4474
  434MOL0     H57271  -1.657   9.557   4.196 -0.2277 -0.1643  2.8544
  434MOL0     H57272  -1.279   9.045   4.174  0.3839 -0.2872  2.4055
  434MOL0     H57273  -1.052   9.060   4.254 -0.9167  0.2386  1.0863
  434MOL0     H57274   0.775   9.455   4.365 -0.0499  0.8211 -1.3235
  434MOL0     H57275   1.002   9.417   4.353 -1.4763 -1.0335 -2.5152
  434MOL0     H57276   1.524   9.749   4.161 -2.0051 -0.7878 -0.4979
  434MOL0     H57277   1.769   9.648   4.213  0.4625 -3.6756 -0.0689
  434MOL0     H57278   1.879   9.534   4.523 -1.6138  0.0138 -0.1705
  434MOL0     H57279   1.943   9.588   4.355  0.3001 -0.1294 -0.7245
  434MOL0     H57280   2.070   9.383   4.343  0.4741 -1.2864  0.8683
  434MOL0     H57281   2.096   9.469   4.494  1.4301  0.2682 -0.3789
  434MOL0     H57282   1.918   9.220   4.488  3.0654 -3.8115  0.1035
  434MOL0     H57283   1.951   9.331   4.622  1.5827 -0.9550  1.4288
  434MOL0     H57284   2.163   9.252   4.643  0.6466  1.0165 -1.0562
  434MOL0     H57285   2.070   9.113   4.605 -0.7157  1.7612  3.3532
  434MOL0     H57286   2.389   9.122   4.329  0.9903  2.0746  0.9185
  434MOL0     H57287   1.590   9.350   4.451 -2.5091 -0.4583  0.4395
  434MOL0     H57288   1.371   9.454   4.447  0.4297  0.6781  1.0682
  435MOL0     O57289  10.755   9.188   9.465 -0.4424  0.2955 -0.1784
  435MOL0     C57290  10.828   9.092   9.447  0.3215 -0.2915 -0.1855
  435MOL0     O57291  10.788   8.968   9.441  0.2619 -0.5944  0.0503
  435MOL0     C57292  10.653   8.934   9.464 -1.0645  0.6274  0.2606
  435MOL0     C57293  10.611   8.874   9.582  0.2324  0.0700  0.1681
  435MOL0     C57294  10.473   8.830   9.593 -0.4582  0.1407 -0.0579
  435MOL0     C57295  10.381   8.857   9.481 -0.2068  0.1876 -0.6171
  435MOL0     O57296  10.250   8.816   9.500 -0.7656  0.0496  0.6418
  435MOL0     C57297  10.163   8.809   9.392  0.5793  1.5631  0.9603
  435MOL0     C57298  10.039   8.720   9.420  0.6364  0.5158 -0.8822
  435MOL0     C57299   9.937   8.710   9.316  0.1434  0.3054  0.8417
  435MOL0     C57300   9.803   8.674   9.381 -0.2884 -0.1383 -0.2547
  435MOL0     C57301   9.701   8.665   9.267  0.8316 -0.1952 -0.1682
  435MOL0     C57302   9.559   8.638   9.325  0.2444 -0.2333 -0.2266
  435MOL0     C57303   9.445   8.611   9.234  0.0817  0.1716  0.3493
  435MOL0     C57304   9.348   8.728   9.237 -0.0546  0.5127  0.8221
  435MOL0     N57305   9.215   8.682   9.194 -0.4390  0.1455  0.1083
  435MOL0     C57306   9.098   8.719   9.246 -0.3026 -0.3493  0.7690
  435MOL0     C57307   8.998   8.657   9.183 -0.2837  0.6765  0.4898
  435MOL0     C57308   8.858   8.670   9.206  0.3686 -0.4957  0.6124
  435MOL0     C57309   8.764   8.640   9.083  0.0291  0.2943 -0.1815
  435MOL0     C57310   8.622   8.634   9.136  0.8651  0.1880  0.0001
  435MOL0     C57311   8.531   8.565   9.033 -0.5590 -0.3583 -0.1012
  435MOL0     O57312   8.397   8.595   9.080  0.2601  0.2932 -0.3684
  435MOL0     C57313   8.284   8.530   9.022 -0.3375 -0.3248  0.0783
  435MOL0     C57314   8.294   8.447   8.911  0.6277  1.0715  0.1094
  435MOL0     C57315   8.179   8.381   8.874  0.4654  0.1835  1.4308
  435MOL0     C57316   8.056   8.395   8.935 -0.3690 -0.3109  1.1646
  435MOL0     C57317   7.952   8.293   8.913 -0.2616 -0.4483  0.3697
  435MOL0     O57318   7.943   8.263   8.785 -0.1723 -0.4245  0.9368
  435MOL0     C57319   7.831   8.215   8.716  0.3858 -0.1940 -0.6016
  435MOL0     C57320   7.825   8.252   8.584 -0.3930 -0.1662 -0.4278
  435MOL0     C57321   7.705   8.232   8.512 -0.7827 -0.4059 -0.2803
  435MOL0     C57322   7.596   8.150   8.559 -0.6860 -0.4475  0.4368
  435MOL0     O57323   7.482   8.121   8.490 -0.4156 -0.4326 -0.1865
  435MOL0     C57324   7.447   8.189   8.367  0.0616  0.0903 -0.0835
  435MOL0     C57325   7.321   8.134   8.296  0.1014 -0.0376 -0.4594
  435MOL0     C57326   7.275   8.224   8.186 -0.1726  0.0238  0.4175
  435MOL0     C57327   7.149   8.177   8.125 -0.5095 -0.2090 -0.6405
  435MOL0     C57328   7.025   8.188   8.223 -0.0113 -0.7145  0.0455
  435MOL0     C57329   6.892   8.174   8.140  0.1896  0.4770  0.1325
  435MOL0     C57330   6.780   8.144   8.235 -0.2161 -0.0135  0.0856
  435MOL0     C57331   6.648   8.116   8.164 -0.5933  0.6550 -1.0310
  435MOL0    Cl57332   6.592   8.259   8.069  0.4053  0.2527  0.0271
  435MOL0     C57333   7.619   8.112   8.685  0.7565  1.3929  0.8193
  435MOL0     C57334   7.726   8.138   8.770 -0.2628 -0.9340 -0.1355
  435MOL0     O57335   7.885   8.248   8.998 -0.2527 -0.3447  0.0517
  435MOL0     C57336   8.051   8.490   9.032  0.0175 -0.3688  0.7314
  435MOL0     C57337   8.163   8.565   9.075  1.2302  0.4784  0.4508
  435MOL0     N57338   9.058   8.575   9.089  0.2063 -0.5843  0.2154
  435MOL0     N57339   9.187   8.590   9.095 -0.0847  0.0891  0.5227
  435MOL0     C57340  10.431   8.926   9.367 -0.4481  0.1624 -0.1023
  435MOL0     C57341  10.567   8.959   9.356 -0.3228  0.2274 -0.4443
  435MOL0     C57342  10.969   9.117   9.467 -0.2198 -0.3068 -0.5269
  435MOL0     C57343  11.016   9.232   9.531  0.1212 -0.2323 -0.2024
  435MOL0     C57344  11.150   9.252   9.546 -0.3734  0.4046 -0.6057
  435MOL0     C57345  11.244   9.153   9.523  0.6059 -0.4932  0.0287
  435MOL0     O57346  11.373   9.191   9.520  0.9212  0.1260  0.2421
  435MOL0     C57347  11.480   9.104   9.549  0.4598  0.4899 -0.4157
  435MOL0     C57348  11.612   9.181   9.570 -0.9967 -0.9341 -0.3691
  435MOL0     C57349  11.613   9.247   9.715 -0.5919  0.0800  0.1615
  435MOL0     C57350  11.634   9.143   9.825 -1.1651 -0.3343 -0.4978
  435MOL0     C57351  11.754   9.061   9.813  0.4553  0.1333 -0.2080
  435MOL0     C57352  11.856   8.993   9.809  0.7769  0.0802 -0.2215
  435MOL0     C57353  11.202   9.028   9.466 -0.3221 -0.2726  0.0988
  435MOL0     C57354  11.066   9.014   9.436  0.6903 -0.3928  1.2330
  435MOL0     H57355  10.684   8.863   9.662  1.8287 -1.1263 -1.3719
  435MOL0     H57356  10.429   8.784   9.681 -0.6939  0.4348 -0.0199
  435MOL0     H57357  10.225   8.769   9.310 -0.3551  2.6192 -0.2971
  435MOL0     H57358  10.126   8.907   9.362 -1.1754  0.0328 -2.4946
  435MOL0     H57359   9.995   8.751   9.516  0.9112 -0.6074 -0.3829
  435MOL0     H57360  10.073   8.619   9.443  0.3841  0.5851 -0.1778
  435MOL0     H57361   9.963   8.620   9.258 -0.5124  2.4383 -3.1203
  435MOL0     H57362   9.930   8.802   9.257  2.0850  0.5904  1.0153
  435MOL0     H57363   9.803   8.579   9.434 -1.2524 -1.5871 -2.6653
  435MOL0     H57364   9.761   8.750   9.447  0.7820 -0.0302  0.3275
  435MOL0     H57365   9.727   8.579   9.204  2.6551 -0.3624  0.7483
  435MOL0     H57366   9.705   8.757   9.209  1.2194  0.7254  1.2518
  435MOL0     H57367   9.542   8.721   9.394  1.4337 -0.2957  0.1588
  435MOL0     H57368   9.574   8.552   9.390 -2.3003 -1.5630 -1.2346
  435MOL0     H57369   9.481   8.578   9.136 -0.2832  1.4081 -0.2158
  435MOL0     H57370   9.396   8.528   9.288  0.2845  0.3064  0.7381
  435MOL0     H57371   9.380   8.809   9.171 -1.0936  0.3308  0.0721
  435MOL0     H57372   9.335   8.766   9.338 -1.1108 -1.4183  1.4759
  435MOL0     H57373   9.083   8.795   9.322  0.7301 -1.5802  2.2665
  435MOL0     H57374   8.844   8.773   9.241 -1.0661 -0.7561  0.8489
  435MOL0     H57375   8.831   8.625   9.301  1.5478  2.1108  2.3121
  435MOL0     H57376   8.791   8.539   9.049  3.4134  0.9690  0.1935
  435MOL0     H57377   8.788   8.705   8.999  1.4536 -0.1711 -0.1599
  435MOL0     H57378   8.630   8.571   9.225 -0.0168 -0.2278 -0.2034
  435MOL0     H57379   8.587   8.733   9.166  1.1370  0.0432  0.8113
  435MOL0     H57380   8.545   8.456   9.034 -3.0722 -0.7297 -0.1195
  435MOL0     H57381   8.561   8.598   8.933  1.5306 -1.8375 -0.0275
  435MOL0     H57382   8.388   8.443   8.857 -0.1798  2.2039 -1.4715
  435MOL0     H57383   8.190   8.327   8.780  2.6436  1.4981  0.8635
  435MOL0     H57384   7.894   8.322   8.537 -0.0175  0.0564  0.4242
  435MOL0     H57385   7.695   8.265   8.409 -0.9982  0.4640  0.0129
  435MOL0     H57386   7.524   8.182   8.289  2.6546 -3.4410  2.4830
  435MOL0     H57387   7.430   8.295   8.387  2.2616  1.3825 -3.9869
  435MOL0     H57388   7.246   8.130   8.376  0.9788  2.5903  0.6367
  435MOL0     H57389   7.328   8.039   8.243 -0.4188  0.2743 -1.1082
  435MOL0     H57390   7.351   8.227   8.107  1.2147 -1.7763  1.5803
  435MOL0     H57391   7.262   8.325   8.226  0.3235 -0.2217  1.2293
  435MOL0     H57392   7.134   8.221   8.026  1.4011 -2.2433 -1.9446
  435MOL0     H57393   7.159   8.071   8.099 -1.8989 -0.4848 -0.1199
  435MOL0     H57394   7.018   8.286   8.271 -3.7083 -1.6459  1.7609
  435MOL0     H57395   7.024   8.116   8.305 -0.8801  1.3908  2.0017
  435MOL0     H57396   6.889   8.091   8.068  0.1226 -0.2008  0.9074
  435MOL0     H57397   6.874   8.266   8.084  0.1169 -0.7114 -1.8968
  435MOL0     H57398   6.805   8.060   8.300 -0.0592  0.0612  0.1217
  435MOL0     H57399   6.763   8.223   8.308  1.2964 -2.9243  3.9048
  435MOL0     H57400   6.566   8.097   8.234 -1.4416  0.6093 -2.0153
  435MOL0     H57401   6.663   8.023   8.110 -0.4639 -2.2189  3.4079
  435MOL0     H57402   7.541   8.057   8.736  1.1038  1.7791  1.8115
  435MOL0     H57403   7.734   8.107   8.873  1.3348  1.3394  0.4878
  435MOL0     H57404   7.953   8.520   9.070 -2.2520  0.3122 -4.6751
  435MOL0     H57405   8.148   8.649   9.143 -0.1845 -0.3000  1.1608
  435MOL0     H57406  10.365   8.946   9.284  0.6777  1.0218 -0.8132
  435MOL0     H57407  10.608   9.005   9.267  2.2814  3.4702  2.1405
  435MOL0     H57408  10.948   9.309   9.565 -1.5126 -1.1264 -1.3082
  435MOL0     H57409  11.186   9.350   9.573 -0.8002  0.5613 -0.5995
  435MOL0     H57410  11.483   9.042   9.460  0.1260  1.2710 -0.9807
  435MOL0     H57411  11.457   9.040   9.634  1.4802  0.0866 -0.4315
  435MOL0     H57412  11.696   9.112   9.565  2.8795  3.3616 -1.5276
  435MOL0     H57413  11.625   9.256   9.491  0.3220 -1.1698 -0.3871
  435MOL0     H57414  11.525   9.311   9.726  0.3059  1.6238 -1.0689
  435MOL0     H57415  11.697   9.318   9.708 -0.4983 -0.1818 -2.1390
  435MOL0     H57416  11.641   9.196   9.920 -0.0735 -0.9830 -0.1984
  435MOL0     H57417  11.545   9.080   9.827 -1.1328 -0.7020 -4.0386
  435MOL0     H57418  11.932   8.921   9.830 -1.2618 -1.6606  1.7214
  435MOL0     H57419  11.279   8.956   9.442 -0.2225  1.0264 -4.3896
  435MOL0     H57420  11.040   8.917   9.394 -0.9196 -0.4742  2.3426
  436MOL0     O57421   1.663   1.747   1.243 -0.7543  0.0428  0.1399
  436MOL0     C57422   1.688   1.771   1.123  0.5249 -0.5162  0.2076
  436MOL0     O57423   1.592   1.779   1.025  0.0474  0.1807 -1.3845
  436MOL0     C57424   1.465   1.757   1.066  0.9677  0.4815 -0.1428
  436MOL0     C57425   1.401   1.641   1.059  0.8476  0.0360  0.5734
  436MOL0     C57426   1.263   1.631   1.058  0.0458 -0.4002  0.5302
  436MOL0     C57427   1.180   1.746   1.064 -0.9765  0.9754  0.0449
  436MOL0     O57428   1.047   1.743   1.074 -0.3845  0.4781 -0.4649
  436MOL0     C57429   1.008   1.792   1.205 -0.7003  0.0755 -0.2514
  436MOL0     C57430   0.863   1.767   1.226 -0.0886 -0.2585 -0.0750
  436MOL0     C57431   0.776   1.820   1.118 -1.0124  0.0413  0.6835
  436MOL0     C57432   0.635   1.869   1.156 -0.2272  0.7811  0.4505
  436MOL0     C57433   0.537   1.894   1.034  0.3701 -0.4969  0.1947
  436MOL0     C57434   0.601   2.002   0.944  0.8610  0.0194 -0.1101
  436MOL0     C57435   0.509   2.043   0.832  0.3353  0.9117 -0.0989
  436MOL0     C57436   0.379   2.109   0.876 -0.6061 -0.0148 -0.6922
  436MOL0     N57437   0.294   2.149   0.772 -0.2740  0.7822  0.5251
  436MOL0     C57438   0.248   2.065   0.670  0.0084 -0.1942  0.3885
  436MOL0     C57439   0.163   2.145   0.606  0.4427  0.1581 -0.0665
  436MOL0     C57440   0.083   2.112   0.488  0.4438 -0.1171 -0.2526
  436MOL0     C57441  -0.045   2.033   0.525  0.2085 -0.1481 -0.0041
  436MOL0     C57442  -0.012   1.882   0.570 -0.4178  0.6212 -0.0434
  436MOL0     C57443  -0.137   1.808   0.627  0.0181 -0.1597  0.2236
  436MOL0     O57444  -0.097   1.689   0.688 -0.3449 -0.7534 -0.0498
  436MOL0     C57445  -0.095   1.571   0.607 -0.7169  0.3731  0.4686
  436MOL0     C57446  -0.109   1.562   0.466 -0.1518  0.6658 -0.7492
  436MOL0     C57447  -0.099   1.439   0.399  0.0948  0.4118 -0.9067
  436MOL0     C57448  -0.091   1.318   0.480  0.2099 -0.6635 -0.1060
  436MOL0     C57449  -0.105   1.190   0.425  1.3336  0.2770  0.3276
  436MOL0     O57450  -0.133   1.198   0.293 -0.6852  0.9543 -0.6243
  436MOL0     C57451  -0.169   1.087   0.219 -0.7969  0.6572  0.6879
  436MOL0     C57452  -0.092   0.973   0.209 -0.1761 -0.6592 -0.2220
  436MOL0     C57453  -0.128   0.872   0.116  1.2388 -0.1939 -0.7464
  436MOL0     C57454  -0.252   0.878   0.054 -0.7184  0.2637  0.0096
  436MOL0     O57455  -0.273   0.777  -0.033  0.6461  0.2938 -0.0335
  436MOL0     C57456  -0.386   0.798  -0.126  0.5207  1.1139  0.2056
  436MOL0     C57457  -0.372   0.685  -0.228 -0.6145  0.9808 -0.1341
  436MOL0     C57458  -0.491   0.683  -0.320 -0.0404 -0.1983  1.1626
  436MOL0     C57459  -0.624   0.653  -0.249  1.7388  0.7746  0.2316
  436MOL0     C57460  -0.744   0.676  -0.335  1.0356  0.3766  0.1454
  436MOL0     C57461  -0.894   0.671  -0.277 -0.6061 -0.9897 -0.1419
  436MOL0     C57462  -0.928   0.788  -0.179  0.2663  0.4528 -0.3872
  436MOL0     C57463  -1.000   0.904  -0.254  0.2132  0.2588 -0.7909
  436MOL0    Cl57464  -1.168   0.872  -0.269  0.2499  0.0668  0.1569
  436MOL0     C57465  -0.335   0.990   0.075  0.6654 -0.1280  0.3002
  436MOL0     C57466  -0.290   1.102   0.154  0.6142  0.2720  0.2201
  436MOL0     O57467  -0.095   1.094   0.495 -0.5096  0.3067 -0.8405
  436MOL0     C57468  -0.080   1.334   0.622 -0.1509  0.1429  0.5040
  436MOL0     C57469  -0.078   1.457   0.686  0.2794  0.6108 -0.3101
  436MOL0     N57470   0.155   2.264   0.667 -0.0003 -0.6443 -0.2236
  436MOL0     N57471   0.233   2.271   0.770  0.0501  0.0335  0.6755
  436MOL0     C57472   1.245   1.869   1.070  0.1506  1.0070 -0.2225
  436MOL0     C57473   1.389   1.874   1.072 -0.8097 -0.3587 -0.8805
  436MOL0     C57474   1.823   1.811   1.077 -0.5630 -0.7178 -0.3764
  436MOL0     C57475   1.923   1.828   1.174 -0.5769 -0.0417 -0.5316
  436MOL0     C57476   2.046   1.876   1.135 -0.5286 -0.1088  0.7166
  436MOL0     C57477   2.076   1.907   1.002 -0.3480  0.0576 -0.0052
  436MOL0     O57478   2.186   1.966   0.967  0.1997  0.4760  0.0250
  436MOL0     C57479   2.290   1.874   0.972  0.3104 -1.1510  0.3879
  436MOL0     C57480   2.415   1.942   0.911  0.3387  0.6657 -0.0074
  436MOL0     C57481   2.388   2.020   0.779  0.8170 -0.8640  0.2799
  436MOL0     C57482   2.512   2.053   0.698  0.3561 -0.6996  0.5268
  436MOL0     C57483   2.606   2.124   0.782  0.3687 -0.1619  0.1292
  436MOL0     C57484   2.686   2.171   0.856  0.3395 -1.7594 -0.1472
  436MOL0     C57485   1.974   1.890   0.906  0.7587  0.1305  0.0663
  436MOL0     C57486   1.847   1.849   0.943 -0.5012  0.3355 -0.3387
  436MOL0     H57487   1.448   1.544   1.046  1.6218  0.1814  2.1128
  436MOL0     H57488   1.214   1.537   1.036  0.0475 -0.2632 -0.0885
  436MOL0     H57489   1.023   1.900   1.196  3.3288 -0.4232 -1.3336
  436MOL0     H57490   1.073   1.753   1.284 -3.7919 -2.9482  1.0529
  436MOL0     H57491   0.831   1.814   1.319 -0.6784 -1.1729  0.2009
  436MOL0     H57492   0.840   1.660   1.233  1.6797 -0.5579  2.6093
  436MOL0     H57493   0.766   1.733   1.053  0.9234  0.3073 -0.0465
  436MOL0     H57494   0.830   1.902   1.068 -2.4584  0.9782  0.5966
  436MOL0     H57495   0.586   1.795   1.222 -1.1904 -0.1213 -1.2057
  436MOL0     H57496   0.650   1.957   1.219  0.6180  1.3522 -0.5363
  436MOL0     H57497   0.438   1.928   1.067 -0.2036  0.0507 -1.9773
  436MOL0     H57498   0.537   1.805   0.971  0.1899 -1.4338  1.4739
  436MOL0     H57499   0.690   1.945   0.914  2.3725  0.6384  2.8007
  436MOL0     H57500   0.635   2.085   1.007  1.9919 -1.7971  1.8278
  436MOL0     H57501   0.562   2.125   0.783 -0.1684  2.7099  2.1843
  436MOL0     H57502   0.475   1.966   0.763 -1.3050  1.7852 -0.2977
  436MOL0     H57503   0.394   2.200   0.935  3.1509 -2.3740  2.4608
  436MOL0     H57504   0.326   2.044   0.946  0.3032  1.2062  1.2283
  436MOL0     H57505   0.273   1.961   0.652 -0.4227 -0.1245 -0.7170
  436MOL0     H57506   0.142   2.054   0.416 -1.8368 -3.2718  0.1883
  436MOL0     H57507   0.057   2.200   0.428 -2.5686 -1.2570 -0.8037
  436MOL0     H57508  -0.109   2.035   0.437  1.1679 -2.7852 -0.8629
  436MOL0     H57509  -0.084   2.086   0.612  2.8169  1.2650  0.3970
  436MOL0     H57510   0.019   1.832   0.478  1.4315  2.6336 -0.6053
  436MOL0     H57511   0.074   1.877   0.638 -1.9073 -2.2606  1.7940
  436MOL0     H57512  -0.210   1.792   0.547 -1.2226  2.3000  0.7689
  436MOL0     H57513  -0.187   1.867   0.705  0.1628  0.8928 -0.4680
  436MOL0     H57514  -0.124   1.646   0.399  2.1043  0.3324 -1.8077
  436MOL0     H57515  -0.113   1.426   0.292  1.2746  0.3663 -1.0624
  436MOL0     H57516   0.006   0.973   0.256  0.4934 -1.9762 -1.5188
  436MOL0     H57517  -0.064   0.787   0.095 -0.1219 -1.3737 -0.2983
  436MOL0     H57518  -0.387   0.897  -0.174 -2.3799  1.9663  1.8000
  436MOL0     H57519  -0.482   0.789  -0.076  0.2460  0.2647 -0.4500
  436MOL0     H57520  -0.373   0.593  -0.170 -2.0277  2.0108  1.5842
  436MOL0     H57521  -0.282   0.693  -0.290  0.8465 -1.5714  1.5215
  436MOL0     H57522  -0.479   0.612  -0.402 -5.8601  0.1836 -0.4755
  436MOL0     H57523  -0.499   0.782  -0.366  2.6509 -0.1088  0.7479
  436MOL0     H57524  -0.623   0.546  -0.229  3.1182  1.0617  1.8849
  436MOL0     H57525  -0.640   0.691  -0.148 -0.1196 -0.9277  0.6520
  436MOL0     H57526  -0.747   0.589  -0.402 -1.3328  0.7739 -0.3615
  436MOL0     H57527  -0.732   0.765  -0.397  2.7055  1.4262  1.8748
  436MOL0     H57528  -0.912   0.576  -0.226 -1.7323  0.4861  2.3872
  436MOL0     H57529  -0.972   0.667  -0.354 -2.7725  1.3037  1.7701
  436MOL0     H57530  -0.990   0.739  -0.103  2.4966 -0.7878  0.7341
  436MOL0     H57531  -0.848   0.836  -0.122 -1.6103  0.3791  2.5811
  436MOL0     H57532  -0.938   0.920  -0.343 -0.2178 -1.6016 -1.4826
  436MOL0     H57533  -0.986   0.993  -0.192 -1.0780 -0.4423  0.5662
  436MOL0     H57534  -0.428   1.016   0.026  1.2732 -0.3240 -1.0067
  436MOL0     H57535  -0.353   1.191   0.159  0.4474  0.0887  1.8278
  436MOL0     H57536  -0.097   1.247   0.684 -0.0448 -0.2754 -0.0534
  436MOL0     H57537  -0.086   1.461   0.795  5.2239 -0.2094  0.3060
  436MOL0     H57538   1.196   1.965   1.082  1.8632  1.6385  2.8136
  436MOL0     H57539   1.429   1.973   1.053  0.3368 -0.5897  0.2008
  436MOL0     H57540   1.900   1.801   1.276 -0.2676 -4.6427 -1.4672
  436MOL0     H57541   2.118   1.889   1.215 -2.2325 -2.8021  2.8320
  436MOL0     H57542   2.272   1.785   0.911 -1.0883  0.7127 -2.0662
  436MOL0     H57543   2.315   1.853   1.077 -1.6180  1.0172  1.3706
  436MOL0     H57544   2.471   2.004   0.982  0.0032  3.0305 -1.7219
  436MOL0     H57545   2.480   1.856   0.891  1.6205  1.5762  0.1029
  436MOL0     H57546   2.343   2.115   0.808  1.8417  0.5922 -2.5748
  436MOL0     H57547   2.312   1.977   0.714  0.7363 -0.0347 -0.1850
  436MOL0     H57548   2.563   1.958   0.678 -0.7428 -1.3421  0.6504
  436MOL0     H57549   2.489   2.123   0.618 -0.4190 -1.1394  0.3553
  436MOL0     H57550   2.764   2.210   0.918 -0.3113 -1.1558  0.3021
  436MOL0     H57551   1.984   1.930   0.806  0.5230  0.1616  0.0531
  436MOL0     H57552   1.762   1.846   0.875 -1.3835 -2.2860  0.7402
  437MOL0     O57553   7.296   0.669  10.608  0.2683 -0.0258  0.4915
  437MOL0     C57554   7.345   0.574  10.664 -0.3993  0.0822  0.5691
  437MOL0     O57555   7.280   0.472  10.731  0.6257 -0.7476 -0.6787
  437MOL0     C57556   7.149   0.486  10.756  0.4793  0.7177  0.2342
  437MOL0     C57557   7.049   0.450  10.660 -0.0232 -0.1727  0.3023
  437MOL0     C57558   6.915   0.465  10.702 -0.3575 -0.1338  0.3878
  437MOL0     C57559   6.879   0.527  10.824  0.0580  0.6467  0.9701
  437MOL0     O57560   6.748   0.539  10.857  0.3812 -0.3909 -0.0020
  437MOL0     C57561   6.655   0.553  10.750  0.1083 -0.0359 -0.5617
  437MOL0     C57562   6.520   0.614  10.798  0.0044  0.2192  0.0481
  437MOL0     C57563   6.406   0.603  10.690 -0.0785 -0.0555 -0.0125
  437MOL0     C57564   6.276   0.674  10.731  0.5024 -0.3820 -0.2116
  437MOL0     C57565   6.168   0.674  10.630 -0.3855 -0.2344 -0.2690
  437MOL0     C57566   6.201   0.785  10.534  0.3495 -0.0481  0.6872
  437MOL0     C57567   6.102   0.783  10.411 -0.3890 -0.4833 -0.0529
  437MOL0     C57568   6.136   0.894  10.315 -0.1867  0.3826 -0.1483
  437MOL0     N57569   6.026   0.923  10.217 -0.0132  0.3670  0.0020
  437MOL0     C57570   5.909   0.993  10.246  0.1833  0.1745 -0.1388
  437MOL0     C57571   5.830   0.982  10.135 -0.1046  0.2534  1.1568
  437MOL0     C57572   5.702   1.047  10.115  0.5893 -0.0558 -0.8973
  437MOL0     C57573   5.571   0.956  10.092 -0.0963 -0.2880  0.9476
  437MOL0     C57574   5.545   0.847  10.200 -0.3055 -0.9389 -0.4853
  437MOL0     C57575   5.404   0.792  10.183 -0.3202 -0.0277 -0.5648
  437MOL0     O57576   5.309   0.901  10.189 -0.6040  0.0108 -0.2837
  437MOL0     C57577   5.184   0.892  10.145 -0.5614 -0.4380  0.2380
  437MOL0     C57578   5.114   0.774  10.140 -0.5255  0.6214 -0.8162
  437MOL0     C57579   4.985   0.774  10.096  0.3476 -0.1978 -0.2002
  437MOL0     C57580   4.934   0.889  10.037  0.2695  0.4382  0.5257
  437MOL0     C57581   4.793   0.897   9.965  0.3683 -0.7971  0.0928
  437MOL0     O57582   4.729   0.772   9.973  0.1917 -0.5963  0.5641
  437MOL0     C57583   4.621   0.756   9.884 -0.2350 -0.1055  0.0804
  437MOL0     C57584   4.492   0.798   9.908  0.9719 -0.8267 -1.5423
  437MOL0     C57585   4.397   0.770   9.812  0.2122 -0.7129  1.0948
  437MOL0     C57586   4.427   0.699   9.699  0.2232 -0.6067 -0.3893
  437MOL0     O57587   4.333   0.656   9.609  0.1912  0.4195  0.1683
  437MOL0     C57588   4.196   0.693   9.627 -0.3112  0.0336  0.3030
  437MOL0     C57589   4.118   0.667   9.499  0.5275 -0.5604  0.1677
  437MOL0     C57590   3.976   0.710   9.500  0.6507 -0.7133 -0.2173
  437MOL0     C57591   3.901   0.668   9.635 -0.5544  0.5624  0.6185
  437MOL0     C57592   3.746   0.670   9.618  0.5267 -0.0277  0.2857
  437MOL0     C57593   3.685   0.548   9.564 -0.1828  0.6964  1.1327
  437MOL0     C57594   3.529   0.531   9.579 -0.1011 -0.3305  1.2855
  437MOL0     C57595   3.473   0.514   9.717  0.0009 -0.1260 -0.5442
  437MOL0    Cl57596   3.320   0.425   9.714  0.1404  0.3467  0.5949
  437MOL0     C57597   4.553   0.653   9.677 -0.0709 -0.7259  0.3135
  437MOL0     C57598   4.648   0.681   9.769  0.4699  0.0309  0.5303
  437MOL0     O57599   4.754   1.003   9.914 -0.0833  0.2692 -0.2627
  437MOL0     C57600   5.009   1.008  10.038 -0.2335 -0.1378  0.0282
  437MOL0     C57601   5.131   1.010  10.100  0.1617 -0.0883 -0.2244
  437MOL0     N57602   5.906   0.917  10.041  0.0544 -0.0741  0.2582
  437MOL0     N57603   6.022   0.876  10.089  0.2425  0.0348  0.1757
  437MOL0     C57604   6.970   0.563  10.919  0.2957 -0.4006  0.6504
  437MOL0     C57605   7.100   0.535  10.875 -0.0128 -0.6356 -0.6366
  437MOL0     C57606   7.493   0.550  10.638  0.9438  0.7951  0.2540
  437MOL0     C57607   7.562   0.630  10.548 -0.2765  0.2239 -0.4250
  437MOL0     C57608   7.695   0.600  10.508 -0.6861  0.8366 -0.3616
  437MOL0     C57609   7.759   0.490  10.572 -0.4208 -0.6079  0.3487
  437MOL0     O57610   7.888   0.452  10.538 -0.2571 -0.0085 -0.1407
  437MOL0     C57611   7.957   0.522  10.440 -0.2276 -0.4483  0.5218
  437MOL0     C57612   8.107   0.486  10.442 -0.1708 -0.5857  0.0738
  437MOL0     C57613   8.164   0.503  10.579 -1.0816  0.0447  0.5663
  437MOL0     C57614   8.316   0.527  10.577  0.7065  0.1436  0.1409
  437MOL0     C57615   8.391   0.413  10.518  0.1230 -0.4840 -1.0800
  437MOL0     C57616   8.451   0.312  10.495 -0.4836 -0.4204  0.4451
  437MOL0     C57617   7.692   0.413  10.661  0.6407 -0.1176  0.6021
  437MOL0     C57618   7.560   0.441  10.698 -0.4170  0.2917  0.1560
  437MOL0     H57619   7.078   0.398  10.569  0.8030 -1.0322  1.0250
  437MOL0     H57620   6.839   0.416  10.642 -0.5917 -0.9194  1.3049
  437MOL0     H57621   6.639   0.454  10.707  2.2897 -0.2578 -1.0139
  437MOL0     H57622   6.699   0.611  10.668  1.2886 -1.1666 -0.7694
  437MOL0     H57623   6.539   0.720  10.818  1.0248  0.0520  0.0427
  437MOL0     H57624   6.484   0.555  10.883 -1.2199  0.8420 -0.0235
  437MOL0     H57625   6.381   0.497  10.679 -3.9173  0.7440 -0.0591
  437MOL0     H57626   6.442   0.633  10.591 -2.4047 -1.4157 -1.3489
  437MOL0     H57627   6.237   0.624  10.819  0.5214  3.5205  2.2884
  437MOL0     H57628   6.293   0.779  10.759 -4.0136  0.5504 -0.1655
  437MOL0     H57629   6.070   0.696  10.673 -0.5443  0.6876 -1.0500
  437MOL0     H57630   6.166   0.576  10.582  2.1314 -0.8271  0.6544
  437MOL0     H57631   6.305   0.781  10.503  0.4667  0.5465  1.0066
  437MOL0     H57632   6.183   0.876  10.592 -0.5654  0.1787  0.0815
  437MOL0     H57633   6.098   0.686  10.360  2.2894 -0.6410 -0.1236
  437MOL0     H57634   6.001   0.805  10.444 -0.9132 -2.4546 -0.2392
  437MOL0     H57635   6.228   0.861  10.264  0.4844 -1.0130  1.8401
  437MOL0     H57636   6.163   0.984  10.371  0.2905 -0.7494  1.5043
  437MOL0     H57637   5.887   1.040  10.341 -1.9395  1.2865 -1.1020
  437MOL0     H57638   5.713   1.117  10.031  0.7355  2.2173  0.9080
  437MOL0     H57639   5.682   1.122  10.192 -1.1370  1.3326 -2.5917
  437MOL0     H57640   5.585   0.903   9.997  1.9063  0.5576  0.7216
  437MOL0     H57641   5.482   1.020  10.084  0.4039  0.4671  1.3110
  437MOL0     H57642   5.632   0.781  10.191  2.5728  2.3557  0.4979
  437MOL0     H57643   5.563   0.896  10.296  3.9079  1.2030 -2.0965
  437MOL0     H57644   5.388   0.711  10.254  2.1613 -0.6594 -0.6178
  437MOL0     H57645   5.409   0.756  10.080  2.1105 -0.7813 -0.2537
  437MOL0     H57646   5.158   0.677  10.162 -0.8110  0.5840 -0.4117
  437MOL0     H57647   4.928   0.682  10.100  1.1415 -0.7132 -0.4473
  437MOL0     H57648   4.464   0.850   9.999  0.4315 -0.8308 -1.7045
  437MOL0     H57649   4.292   0.793   9.828  0.6622  0.8241  2.0464
  437MOL0     H57650   4.185   0.801   9.639 -1.5760  0.2300 -1.9252
  437MOL0     H57651   4.154   0.645   9.715  1.0041  0.4968  1.2084
  437MOL0     H57652   4.139   0.564   9.468  2.0638 -0.2444  0.0865
  437MOL0     H57653   4.175   0.724   9.426  0.4949 -1.5699 -0.6769
  437MOL0     H57654   3.931   0.667   9.409  2.2672 -0.6542 -1.0769
  437MOL0     H57655   3.971   0.818   9.488 -1.7518 -0.7104  0.2372
  437MOL0     H57656   3.935   0.572   9.675  1.9947  0.3124 -1.8107
  437MOL0     H57657   3.923   0.747   9.707 -0.5274 -0.7051  2.0570
  437MOL0     H57658   3.710   0.756   9.561 -2.3579 -1.5984 -0.4416
  437MOL0     H57659   3.703   0.680   9.718  1.3209  0.9639  0.5498
  437MOL0     H57660   3.747   0.472   9.612  0.3041  1.0839  1.1256
  437MOL0     H57661   3.709   0.541   9.457  0.8274  0.0513  1.3955
  437MOL0     H57662   3.479   0.612   9.527 -2.1927 -1.5873  1.2347
  437MOL0     H57663   3.497   0.445   9.518  1.7953  0.9019 -1.6826
  437MOL0     H57664   3.443   0.610   9.761  0.7280 -0.9148  1.8120
  437MOL0     H57665   3.546   0.472   9.786 -0.6330  0.0902  0.2792
  437MOL0     H57666   4.579   0.606   9.582  1.9722  1.6795 -0.4489
  437MOL0     H57667   4.747   0.648   9.738  0.0484 -0.0338 -0.8336
  437MOL0     H57668   4.959   1.099  10.005  4.1184  3.0754  1.2667
  437MOL0     H57669   5.198   1.095  10.093  0.1737 -0.1442 -0.8070
  437MOL0     H57670   6.935   0.609  11.011 -1.5560  0.0142 -0.2006
  437MOL0     H57671   7.180   0.574  10.937 -1.3413 -0.9332  1.3649
  437MOL0     H57672   7.519   0.723  10.512 -1.3146  0.0074  0.2001
  437MOL0     H57673   7.748   0.659  10.434  0.7487  0.1347  0.0707
  437MOL0     H57674   7.961   0.629  10.462  1.2368 -0.9115  2.7495
  437MOL0     H57675   7.922   0.492  10.341 -1.3558 -0.0646  0.7883
  437MOL0     H57676   8.129   0.390  10.394 -1.5072  0.4603 -2.8702
  437MOL0     H57677   8.165   0.554  10.378 -0.3320  0.0521  0.5893
  437MOL0     H57678   8.138   0.423  10.650 -2.0509  1.4554  1.8725
  437MOL0     H57679   8.121   0.596  10.617  0.1941  0.0508  2.0777
  437MOL0     H57680   8.333   0.618  10.519 -1.6071 -0.3019 -1.3851
  437MOL0     H57681   8.353   0.547  10.677 -0.2820 -0.5845  0.6770
  437MOL0     H57682   8.512   0.228  10.470  1.5662  0.7316  1.3628
  437MOL0     H57683   7.727   0.321  10.705  0.3164 -2.6125 -3.7356
  437MOL0     H57684   7.512   0.372  10.766  2.4367  0.0008  2.0353
  438MOL0     O57685  11.113   9.898   3.894 -0.3366 -0.2024 -0.2775
  438MOL0     C57686  11.112   9.879   3.773  0.0146 -0.5593  0.4388
  438MOL0     O57687  10.997   9.871   3.694  1.1212 -0.3256  0.7774
  438MOL0     C57688  10.870   9.889   3.756  0.3299  0.5055  0.1531
  438MOL0     C57689  10.847   9.987   3.853  0.4484 -0.7901  0.9461
  438MOL0     C57690  10.713   9.995   3.903  1.0745 -1.3104  0.5041
  438MOL0     C57691  10.605   9.921   3.855 -0.3156  0.0017 -0.4197
  438MOL0     O57692  10.481   9.951   3.914 -0.6404  0.5191  0.2249
  438MOL0     C57693  10.364   9.884   3.853  0.0234 -0.8387  0.0905
  438MOL0     C57694  10.257   9.984   3.866  0.0917 -0.1296 -0.0666
  438MOL0     C57695  10.137   9.937   3.794  0.3131 -0.1915 -0.2423
  438MOL0     C57696  10.025  10.023   3.834  0.4083  0.1345 -0.0043
  438MOL0     C57697   9.898  10.004   3.752 -0.0420 -0.3039  0.6183
  438MOL0     C57698   9.805  10.122   3.770 -0.1564 -0.1602 -0.5325
  438MOL0     C57699   9.695  10.107   3.674  0.2863  0.1222  0.2813
  438MOL0     C57700   9.595  10.218   3.680 -1.1230  0.9362 -0.3632
  438MOL0     N57701   9.475  10.183   3.591 -0.7335 -1.0153  0.0523
  438MOL0     C57702   9.475  10.152   3.457  0.2151  0.3540  0.1959
  438MOL0     C57703   9.337  10.129   3.431  0.5373 -0.9669  0.0224
  438MOL0     C57704   9.299  10.063   3.292 -0.6337 -0.4303  0.6113
  438MOL0     C57705   9.167  10.124   3.238  0.1464  0.2337  0.8132
  438MOL0     C57706   9.166  10.275   3.231 -0.2095 -0.7268  0.1567
  438MOL0     C57707   9.054  10.337   3.148 -0.1507 -0.0625 -0.2532
  438MOL0     O57708   8.931  10.273   3.177  0.0513 -0.5225  0.5328
  438MOL0     C57709   8.829  10.315   3.097  0.4151 -0.1145 -0.0479
  438MOL0     C57710   8.727  10.227   3.056 -0.6979 -0.5794  0.4711
  438MOL0     C57711   8.617  10.270   2.987  0.0181 -0.4131  1.1331
  438MOL0     C57712   8.598  10.411   2.967  0.2242  0.0966 -0.9814
  438MOL0     C57713   8.471  10.462   2.919 -0.3610  0.2249 -0.4781
  438MOL0     O57714   8.442  10.596   2.952 -0.0539 -0.3159  0.0209
  438MOL0     C57715   8.319  10.646   2.939 -0.2101 -0.7697  0.3116
  438MOL0     C57716   8.241  10.633   2.823 -0.3164 -0.1122 -0.0857
  438MOL0     C57717   8.115  10.691   2.814  0.5871  0.4730  0.1636
  438MOL0     C57718   8.060  10.761   2.917 -0.0173  0.1598  0.0237
  438MOL0     O57719   7.938  10.826   2.904  0.6252 -0.9843 -0.8351
  438MOL0     C57720   7.846  10.857   3.016  0.4621  0.8770  0.9105
  438MOL0     C57721   7.722  10.910   2.953  0.4282 -0.1767 -0.8718
  438MOL0     C57722   7.603  10.940   3.043 -0.2349 -1.0624 -0.1632
  438MOL0     C57723   7.475  10.958   2.953 -0.2063 -0.2041 -0.8763
  438MOL0     C57724   7.345  10.969   3.034  0.5485 -0.0301  0.2433
  438MOL0     C57725   7.218  10.991   2.942  0.6062  0.6942  0.5203
  438MOL0     C57726   7.084  10.980   3.014 -0.2076  0.0783 -0.9681
  438MOL0     C57727   6.951  10.992   2.931 -0.8015  0.3222 -0.3145
  438MOL0    Cl57728   6.948  10.890   2.779  0.0473 -0.0312  0.1347
  438MOL0     C57729   8.136  10.774   3.035 -0.1504  0.0344 -0.1127
  438MOL0     C57730   8.259  10.708   3.047 -0.5515 -0.1091 -0.0260
  438MOL0     O57731   8.389  10.381   2.877 -0.5092 -0.6185 -0.5902
  438MOL0     C57732   8.701  10.497   2.995  0.4469 -0.8350 -0.5997
  438MOL0     C57733   8.812  10.450   3.060 -0.4149 -0.8037 -1.0847
  438MOL0     N57734   9.260  10.165   3.542  0.2019  0.2434 -0.3078
  438MOL0     N57735   9.344  10.191   3.633 -0.2443  0.0215  0.2517
  438MOL0     C57736  10.630   9.827   3.747  0.5212  0.5356 -0.0198
  438MOL0     C57737  10.762   9.819   3.700  0.5572  0.2051 -0.0722
  438MOL0     C57738  11.237   9.869   3.710  0.9206 -0.7651 -0.8957
  438MOL0     C57739  11.357   9.912   3.767  0.2038  0.2561 -0.0931
  438MOL0     C57740  11.477   9.917   3.690 -0.4144 -0.2978 -0.7300
  438MOL0     C57741  11.483   9.876   3.556 -0.4795 -0.8339 -1.2929
  438MOL0     O57742  11.608   9.864   3.493  0.1511  0.5299 -0.2599
  438MOL0     C57743  11.618   9.877   3.348 -0.0861 -0.3827 -0.6794
  438MOL0     C57744  11.765   9.882   3.305  0.3538 -0.5321 -0.4867
  438MOL0     C57745  11.851   9.776   3.358 -0.1726  0.1894  0.6211
  438MOL0     C57746  11.997   9.800   3.306 -0.8604  0.6706  0.1847
  438MOL0     C57747  12.092   9.690   3.341 -0.3492 -0.3661 -0.1764
  438MOL0     C57748  12.177   9.605   3.363 -0.1665  0.0642  0.2302
  438MOL0     C57749  11.370   9.839   3.497  0.2493  0.4819 -0.0650
  438MOL0     C57750  11.251   9.829   3.572  0.2344  0.1989 -0.9042
  438MOL0     H57751  10.914  10.062   3.893 -0.3489  1.5152 -1.7323
  438MOL0     H57752  10.681  10.072   3.972 -1.1344 -0.0531 -1.7141
  438MOL0     H57753  10.339   9.788   3.898  0.2637 -0.9605 -0.0364
  438MOL0     H57754  10.374   9.862   3.746 -0.5798  0.2699 -0.2172
  438MOL0     H57755  10.277  10.076   3.811  3.4783 -2.3451 -2.9885
  438MOL0     H57756  10.248  10.003   3.973 -2.0644  0.6268 -0.3263
  438MOL0     H57757  10.109   9.838   3.830  1.7970 -2.1616 -3.9761
  438MOL0     H57758  10.150   9.928   3.685 -2.4736 -0.2571 -0.6536
  438MOL0     H57759  10.005  10.009   3.941 -1.3149 -1.0547 -0.4418
  438MOL0     H57760  10.063  10.125   3.830 -0.3547  0.5894  2.3955
  438MOL0     H57761   9.845   9.911   3.777  2.1318 -2.6969 -2.9390
  438MOL0     H57762   9.932   9.995   3.649  0.2259  2.7096  0.3535
  438MOL0     H57763   9.864  10.212   3.748  1.5916 -0.6668  1.7474
  438MOL0     H57764   9.773  10.112   3.874  2.2411 -0.4673  0.2337
  438MOL0     H57765   9.741  10.100   3.575  0.8113  0.2311  0.5140
  438MOL0     H57766   9.641  10.014   3.696  0.7561  0.2201  2.0476
  438MOL0     H57767   9.638  10.318   3.665  1.9493  0.0628  1.6687
  438MOL0     H57768   9.554  10.230   3.781 -1.6949  1.2595 -0.6280
  438MOL0     H57769   9.560  10.141   3.391 -1.0148 -2.4918 -1.0810
  438MOL0     H57770   9.294   9.954   3.299  2.6032 -0.8015 -1.1158
  438MOL0     H57771   9.377  10.080   3.218 -0.2469  2.8304  1.6241
  438MOL0     H57772   9.087  10.097   3.307 -1.6172  0.3782 -1.0696
  438MOL0     H57773   9.140  10.086   3.139 -0.7836  2.0194  0.3500
  438MOL0     H57774   9.154  10.321   3.330  0.2647 -0.4166  0.0736
  438MOL0     H57775   9.256  10.316   3.185  0.3595 -2.3679 -0.2553
  438MOL0     H57776   9.082  10.326   3.043 -0.4490  3.0666 -0.7515
  438MOL0     H57777   9.044  10.443   3.174 -2.6014 -0.4896  0.8889
  438MOL0     H57778   8.740  10.123   3.084  2.8061  0.0879  1.8692
  438MOL0     H57779   8.541  10.193   2.982  0.7420 -1.5290  4.6405
  438MOL0     H57780   8.270  10.593   2.727 -1.1615 -0.7943 -0.0610
  438MOL0     H57781   8.057  10.687   2.722 -0.2088  0.7963  0.6421
  438MOL0     H57782   7.884  10.932   3.087  0.8086 -1.1405  3.0002
  438MOL0     H57783   7.822  10.767   3.073  0.1964  1.8862  2.4614
  438MOL0     H57784   7.685  10.840   2.877 -0.4406 -0.1228 -0.5058
  438MOL0     H57785   7.748  11.003   2.900 -0.7226 -0.0154 -1.1807
  438MOL0     H57786   7.622  11.035   3.093  3.3411 -0.9904 -1.3425
  438MOL0     H57787   7.593  10.856   3.113  1.3922 -1.0298  0.1471
  438MOL0     H57788   7.501  11.047   2.896  1.6984 -0.9607 -1.2564
  438MOL0     H57789   7.459  10.879   2.880  2.3597 -1.7888  0.1383
  438MOL0     H57790   7.354  11.052   3.105  3.5994  0.1919 -0.2467
  438MOL0     H57791   7.336  10.879   3.095 -2.0694  0.5659  0.8654
  438MOL0     H57792   7.216  10.914   2.865  0.1489 -0.9159  2.0845
  438MOL0     H57793   7.230  11.087   2.890  2.3170  0.0013 -0.4191
  438MOL0     H57794   7.081  10.888   3.074 -1.3784  0.5554 -0.2642
  438MOL0     H57795   7.092  11.061   3.087  0.5264 -0.3446 -0.5683
  438MOL0     H57796   6.936  11.099   2.915  2.6343  0.8836 -0.4506
  438MOL0     H57797   6.876  10.952   3.000  1.9821 -3.1598  0.9628
  438MOL0     H57798   8.090  10.809   3.128 -0.1671 -0.5566  0.1033
  438MOL0     H57799   8.316  10.726   3.137 -0.9880  1.8440 -0.0899
  438MOL0     H57800   8.685  10.603   2.978 -2.5286 -0.0224  4.6694
  438MOL0     H57801   8.882  10.523   3.098  0.1754 -1.9045  0.0198
  438MOL0     H57802  10.546   9.770   3.708 -0.2746  1.0082  0.9511
  438MOL0     H57803  10.782   9.747   3.622 -0.4752  0.3188 -0.4542
  438MOL0     H57804  11.366   9.949   3.868 -1.1417  0.0265  0.1301
  438MOL0     H57805  11.575   9.938   3.732 -1.2244 -2.7936  2.8377
  438MOL0     H57806  11.581   9.974   3.312 -1.2433 -1.7482 -3.4089
  438MOL0     H57807  11.569   9.793   3.298  2.4559 -2.5326  0.1799
  438MOL0     H57808  11.764   9.880   3.196  1.4288 -0.5373 -0.5106
  438MOL0     H57809  11.808   9.970   3.353  0.2817 -1.9024  2.3312
  438MOL0     H57810  11.819   9.677   3.326  0.3256  0.3614 -0.4950
  438MOL0     H57811  11.853   9.784   3.467  3.1223  1.6020  0.5900
  438MOL0     H57812  12.001   9.816   3.198  3.2555  0.0188  0.0720
  438MOL0     H57813  12.030   9.893   3.352  0.7587  1.8384 -3.0365
  438MOL0     H57814  12.244   9.524   3.386  1.2886  1.1329 -0.1618
  438MOL0     H57815  11.368   9.812   3.392 -1.6829  1.5905 -0.3577
  438MOL0     H57816  11.161   9.799   3.518 -1.3274  1.7614  0.6713
  439MOL0     O57817   1.228   7.629   3.808 -0.3448  0.6886  0.8225
  439MOL0     C57818   1.314   7.543   3.841  0.5937  1.0075  0.1303
  439MOL0     O57819   1.367   7.524   3.964 -0.1400  0.0010 -0.5203
  439MOL0     C57820   1.302   7.584   4.071  0.3907  0.2112 -0.3534
  439MOL0     C57821   1.188   7.525   4.115 -0.0162 -0.1338  0.3767
  439MOL0     C57822   1.114   7.579   4.223  0.4014 -0.6229 -0.1496
  439MOL0     C57823   1.162   7.688   4.299 -0.6111  0.0415  0.1087
  439MOL0     O57824   1.091   7.737   4.406 -0.1296 -0.2911 -0.3087
  439MOL0     C57825   1.155   7.848   4.486 -0.7751  0.5227  0.4798
  439MOL0     C57826   1.055   7.916   4.580  0.2707  0.7862  0.5942
  439MOL0     C57827   0.934   7.970   4.495  0.1950 -0.1430 -0.1960
  439MOL0     C57828   0.874   8.096   4.576 -0.1587  0.1172 -0.3092
  439MOL0     C57829   0.744   8.134   4.499 -0.2732 -0.7947 -0.1722
  439MOL0     C57830   0.669   8.255   4.565  0.4066  0.2061  0.3860
  439MOL0     C57831   0.526   8.265   4.505  0.0201 -0.3102 -0.0476
  439MOL0     C57832   0.512   8.251   4.351 -0.6506  0.9704  0.5953
  439MOL0     N57833   0.376   8.272   4.314  0.0268  0.4607 -0.0720
  439MOL0     C57834   0.268   8.201   4.355  0.0115 -0.5480 -0.4146
  439MOL0     C57835   0.161   8.281   4.344  0.9024 -0.5239  0.1177
  439MOL0     C57836   0.025   8.261   4.403  0.4484 -0.3219  0.1851
  439MOL0     C57837  -0.087   8.257   4.300  0.0505  0.3071  0.4758
  439MOL0     C57838  -0.225   8.252   4.368  0.3265  1.1098 -0.8598
  439MOL0     C57839  -0.325   8.198   4.267 -0.5504 -0.4235 -0.3051
  439MOL0     O57840  -0.443   8.145   4.337  0.2626  0.0456  0.3051
  439MOL0     C57841  -0.571   8.160   4.289  0.1686  0.7641 -0.5997
  439MOL0     C57842  -0.676   8.121   4.370  0.2615 -0.1063 -0.1736
  439MOL0     C57843  -0.814   8.120   4.336 -0.9865 -0.4389  0.4019
  439MOL0     C57844  -0.852   8.176   4.212 -0.5665  0.0565 -0.0650
  439MOL0     C57845  -0.990   8.170   4.171  0.4536 -0.1774 -0.6222
  439MOL0     O57846  -1.076   8.149   4.275 -0.0072  0.0015 -0.4514
  439MOL0     C57847  -1.213   8.152   4.250 -0.1946  0.3082 -0.5462
  439MOL0     C57848  -1.274   8.047   4.193  0.1917  0.2131 -0.2165
  439MOL0     C57849  -1.418   8.035   4.193 -0.0896  0.0989  0.0689
  439MOL0     C57850  -1.495   8.143   4.242 -0.2368 -0.4097  0.2112
  439MOL0     O57851  -1.627   8.156   4.231  0.1578 -0.1707  0.1810
  439MOL0     C57852  -1.702   8.059   4.159 -0.0030 -0.5739  0.3803
  439MOL0     C57853  -1.824   8.117   4.109  0.3213  0.4134 -0.3077
  439MOL0     C57854  -1.922   8.020   4.037  0.5934  0.4794 -0.1124
  439MOL0     C57855  -1.965   7.906   4.133 -0.3174  1.6655  0.0937
  439MOL0     C57856  -2.096   7.838   4.093 -0.5574  0.3921  0.2758
  439MOL0     C57857  -2.129   7.729   4.198  0.2840  0.0515  0.1436
  439MOL0     C57858  -2.252   7.639   4.155 -0.4149 -0.0489 -0.4835
  439MOL0     C57859  -2.263   7.525   4.258  0.4012  0.2988  0.0606
  439MOL0    Cl57860  -2.399   7.409   4.208  0.2739  0.0609  0.0710
  439MOL0     C57861  -1.426   8.242   4.322 -0.0828  0.5917  0.1501
  439MOL0     C57862  -1.289   8.247   4.322 -0.5064  0.1483  0.2415
  439MOL0     O57863  -1.024   8.186   4.045  0.0446  0.1477 -0.8274
  439MOL0     C57864  -0.752   8.234   4.141  0.3145  0.3533 -0.0981
  439MOL0     C57865  -0.616   8.223   4.174  0.8127 -0.4588  1.0829
  439MOL0     N57866   0.205   8.395   4.278 -0.6093 -0.7406 -1.2079
  439MOL0     N57867   0.330   8.387   4.264 -0.5177 -0.3626  0.0662
  439MOL0     C57868   1.286   7.744   4.252 -0.3164  0.8509 -0.0630
  439MOL0     C57869   1.358   7.688   4.149 -0.0538 -0.1621  0.0508
  439MOL0     C57870   1.365   7.441   3.738  0.2257 -0.1202  0.1135
  439MOL0     C57871   1.308   7.433   3.612 -0.0763  0.2660 -0.0345
  439MOL0     C57872   1.328   7.327   3.522 -0.2199 -0.3254 -1.1567
  439MOL0     C57873   1.411   7.224   3.558  1.0758  0.3797  0.0036
  439MOL0     O57874   1.443   7.126   3.475  0.2270 -0.8349 -0.4234
  439MOL0     C57875   1.373   6.999   3.475  0.2727 -0.4714 -0.1555
  439MOL0     C57876   1.277   7.016   3.354  0.6470 -0.3916 -1.1076
  439MOL0     C57877   1.215   6.870   3.317  0.1337  0.2866 -0.0575
  439MOL0     C57878   1.121   6.809   3.428 -0.0681 -0.5877  0.5766
  439MOL0     C57879   1.013   6.907   3.445  0.3441 -0.0825  0.1220
  439MOL0     C57880   0.921   6.981   3.455  0.9036 -0.4761  0.4411
  439MOL0     C57881   1.476   7.232   3.681  0.0005  0.1442 -0.4061
  439MOL0     C57882   1.453   7.336   3.769 -0.3070 -0.2585  0.5904
  439MOL0     H57883   1.161   7.444   4.049  0.7287 -0.3811  0.3697
  439MOL0     H57884   1.026   7.522   4.252  0.1339 -0.6653 -1.0161
  439MOL0     H57885   1.191   7.922   4.413 -1.8299  0.6738  0.1037
  439MOL0     H57886   1.239   7.808   4.544 -2.2995 -0.8536  1.8020
  439MOL0     H57887   1.098   8.001   4.635 -1.0457  1.4254  0.6725
  439MOL0     H57888   1.013   7.846   4.653 -1.8135 -2.2919 -3.1910
  439MOL0     H57889   0.858   7.892   4.481  1.4920 -1.1822 -1.7124
  439MOL0     H57890   0.966   8.003   4.396 -1.2166  0.4649 -0.4798
  439MOL0     H57891   0.857   8.063   4.678  0.4864 -3.0753 -1.1203
  439MOL0     H57892   0.940   8.183   4.573  2.3726 -1.6979 -0.1789
  439MOL0     H57893   0.673   8.051   4.505  0.7643 -1.6174  1.3132
  439MOL0     H57894   0.774   8.145   4.395 -0.8974  2.1735 -0.1304
  439MOL0     H57895   0.725   8.347   4.547 -0.7998  1.0712  0.9314
  439MOL0     H57896   0.662   8.232   4.671 -0.7349 -0.7706  0.1207
  439MOL0     H57897   0.460   8.195   4.558  0.1111 -1.4196 -1.3459
  439MOL0     H57898   0.494   8.365   4.535  1.6161  0.1949  0.0898
  439MOL0     H57899   0.536   8.148   4.323 -0.0658  0.6828  2.0847
  439MOL0     H57900   0.575   8.323   4.299  0.3988 -0.5922 -0.3824
  439MOL0     H57901   0.271   8.103   4.402  0.1986 -0.4602 -0.2389
  439MOL0     H57902   0.011   8.339   4.478  0.3867  0.8511 -1.0268
  439MOL0     H57903   0.030   8.167   4.460  0.2233 -1.2344 -1.2389
  439MOL0     H57904  -0.070   8.176   4.229  0.1406  0.9679 -0.2660
  439MOL0     H57905  -0.093   8.348   4.239  1.8040  0.2003  0.0946
  439MOL0     H57906  -0.226   8.189   4.457 -0.9091  3.1561  0.6568
  439MOL0     H57907  -0.246   8.357   4.391  0.1002  0.6150  1.4347
  439MOL0     H57908  -0.288   8.105   4.223 -1.2963 -0.7493 -0.2707
  439MOL0     H57909  -0.353   8.271   4.190 -0.5075 -0.1966 -0.1060
  439MOL0     H57910  -0.659   8.090   4.473 -0.4592  1.5525  0.4784
  439MOL0     H57911  -0.894   8.084   4.400  0.2595 -1.9181  1.2008
  439MOL0     H57912  -1.211   7.968   4.155 -0.6691 -0.8318  0.4712
  439MOL0     H57913  -1.459   7.949   4.140  0.7975  0.4650 -1.2758
  439MOL0     H57914  -1.732   7.986   4.235  2.5262  0.2742  2.3646
  439MOL0     H57915  -1.640   8.017   4.079  1.4228  0.1417  1.0608
  439MOL0     H57916  -1.783   8.189   4.037 -0.3911  0.7877 -0.3425
  439MOL0     H57917  -1.878   8.158   4.194 -0.5534 -2.7962  0.8148
  439MOL0     H57918  -1.888   7.976   3.942 -3.5090  0.6362 -1.8869
  439MOL0     H57919  -2.015   8.065   4.003 -0.8867 -2.3800 -0.1783
  439MOL0     H57920  -1.887   7.830   4.144 -1.2028  0.7368  0.0906
  439MOL0     H57921  -1.982   7.937   4.236 -2.1742 -0.1863  0.4131
  439MOL0     H57922  -2.059   7.789   4.003  7.5044  3.3352  1.2164
  439MOL0     H57923  -2.182   7.904   4.074 -0.5640  0.3990  0.3212
  439MOL0     H57924  -2.156   7.770   4.296  1.7436 -1.2479  1.1532
  439MOL0     H57925  -2.037   7.670   4.211  0.2421  0.1280  0.8387
  439MOL0     H57926  -2.344   7.697   4.169 -0.4596 -0.3756  0.7004
  439MOL0     H57927  -2.239   7.609   4.051  1.5909 -4.7746  0.8711
  439MOL0     H57928  -2.296   7.573   4.351  0.9316  0.5990  0.1000
  439MOL0     H57929  -2.171   7.467   4.274  0.4586 -0.2527 -1.9479
  439MOL0     H57930  -1.486   8.320   4.366 -0.0863  0.6448  0.0514
  439MOL0     H57931  -1.241   8.324   4.381 -3.6739  1.3345  1.4763
  439MOL0     H57932  -0.772   8.287   4.048 -0.5864 -1.3233 -0.9173
  439MOL0     H57933  -0.548   8.263   4.099 -0.7477 -0.9328 -0.6686
  439MOL0     H57934   1.342   7.823   4.302  1.0645 -0.3185  0.2984
  439MOL0     H57935   1.449   7.739   4.116 -0.1267 -0.8896 -1.3754
  439MOL0     H57936   1.245   7.515   3.577  1.1672 -0.0092 -3.2810
  439MOL0     H57937   1.303   7.337   3.417 -0.7314  1.2987 -0.9156
  439MOL0     H57938   1.318   6.988   3.569  0.8723  2.2312  0.5675
  439MOL0     H57939   1.436   6.912   3.456 -1.2636 -1.5165 -0.7199
  439MOL0     H57940   1.206   7.094   3.383  2.5076 -0.3120  4.2510
  439MOL0     H57941   1.344   7.050   3.275  1.9870  2.7778  1.1817
  439MOL0     H57942   1.301   6.804   3.299  0.8525  0.7985  1.3415
  439MOL0     H57943   1.157   6.870   3.225 -1.3744 -0.3642  0.8625
  439MOL0     H57944   1.086   6.710   3.398  1.6924 -0.7955 -0.9556
  439MOL0     H57945   1.179   6.808   3.520  1.7770  1.4643 -0.4705
  439MOL0     H57946   0.829   7.036   3.448  1.1816  0.5941  3.6445
  439MOL0     H57947   1.538   7.146   3.708 -1.8737 -1.2412 -0.2787
  439MOL0     H57948   1.511   7.345   3.860  2.2990 -1.4270 -0.8302
  440MOL0     O57949   7.316   8.675   3.643 -0.0247 -0.2740 -0.0237
  440MOL0     C57950   7.281   8.632   3.536 -0.4052  0.0787  0.3506
  440MOL0     O57951   7.157   8.632   3.484 -0.7149  0.0875  0.3090
  440MOL0     C57952   7.045   8.672   3.548  0.2929 -0.3016  0.2749
  440MOL0     C57953   6.934   8.687   3.465 -0.5170  0.2009 -0.0851
  440MOL0     C57954   6.808   8.721   3.519 -0.3370  0.0362 -0.5265
  440MOL0     C57955   6.787   8.725   3.658 -0.1590  0.4369 -0.6792
  440MOL0     O57956   6.677   8.763   3.730  0.0978 -0.3548 -0.0637
  440MOL0     C57957   6.554   8.746   3.662  0.3951 -0.5060 -0.1638
  440MOL0     C57958   6.445   8.817   3.748  0.8130  0.3014  0.1375
  440MOL0     C57959   6.465   8.790   3.900 -1.0637 -0.5721 -0.2281
  440MOL0     C57960   6.477   8.648   3.954 -0.4350  0.9612 -0.5275
  440MOL0     C57961   6.346   8.595   4.009  0.0273 -0.3777  0.1442
  440MOL0     C57962   6.296   8.657   4.139  0.4069  1.4238  0.6064
  440MOL0     C57963   6.159   8.601   4.190 -0.0325  1.3609 -0.1378
  440MOL0     C57964   6.176   8.458   4.252 -0.2191 -0.2999 -0.1463
  440MOL0     N57965   6.041   8.422   4.292  0.6052 -1.1596  0.3866
  440MOL0     C57966   5.943   8.467   4.380 -0.0742 -0.7087  0.9113
  440MOL0     C57967   5.822   8.415   4.350  0.3831  0.2161  0.4239
  440MOL0     C57968   5.686   8.425   4.422 -0.4359 -0.2281 -0.2161
  440MOL0     C57969   5.581   8.337   4.357  0.0316  0.4123  0.1048
  440MOL0     C57970   5.586   8.183   4.396  0.2449  0.4116 -0.7077
  440MOL0     C57971   5.487   8.098   4.327  0.5363  0.2467  0.8564
  440MOL0     O57972   5.357   8.157   4.328  0.1724  0.2312 -0.5347
  440MOL0     C57973   5.247   8.090   4.299 -0.0268 -0.6746  0.1498
  440MOL0     C57974   5.236   7.967   4.235  0.8227 -0.0004 -0.2035
  440MOL0     C57975   5.107   7.915   4.210  0.2423  0.1949  0.2944
  440MOL0     C57976   4.993   7.989   4.232 -0.0724  0.2776 -0.3237
  440MOL0     C57977   4.857   7.942   4.220  0.3903  0.1897  0.0956
  440MOL0     O57978   4.829   7.821   4.291 -0.8498 -0.3147 -0.2465
  440MOL0     C57979   4.702   7.779   4.300  0.0638  0.5533  0.8678
  440MOL0     C57980   4.676   7.643   4.332  0.6240 -0.9475 -0.0442
  440MOL0     C57981   4.550   7.595   4.345  0.5426 -0.3192  0.1319
  440MOL0     C57982   4.439   7.684   4.318  0.0916  0.1869  0.2247
  440MOL0     O57983   4.317   7.621   4.327 -0.4103 -0.4243  0.1237
  440MOL0     C57984   4.198   7.687   4.283  0.8115 -0.5441  0.2975
  440MOL0     C57985   4.079   7.605   4.314  0.2675 -0.6815  0.5081
  440MOL0     C57986   3.951   7.679   4.285  0.9637 -0.4109  0.2588
  440MOL0     C57987   3.823   7.612   4.345  0.1182  0.2450 -1.5824
  440MOL0     C57988   3.680   7.645   4.303 -0.2557 -0.2661 -0.8498
  440MOL0     C57989   3.627   7.570   4.175 -1.3450  0.4289  0.0240
  440MOL0     C57990   3.489   7.627   4.113 -0.5272 -0.6016 -0.3046
  440MOL0     C57991   3.463   7.549   3.980 -0.1647  0.9175 -0.2318
  440MOL0    Cl57992   3.584   7.565   3.850  0.1604 -0.5894 -0.2439
  440MOL0     C57993   4.457   7.817   4.291 -0.4979 -0.8365 -0.2123
  440MOL0     C57994   4.589   7.863   4.290 -0.3254  0.4785  0.3335
  440MOL0     O57995   4.791   7.992   4.132 -0.2807 -0.3700 -0.4394
  440MOL0     C57996   5.004   8.113   4.296 -0.1911 -0.6483  0.0062
  440MOL0     C57997   5.130   8.167   4.323  0.4214 -0.0369  0.1314
  440MOL0     N57998   5.842   8.333   4.235  0.5579 -0.0663 -0.4737
  440MOL0     N57999   5.966   8.348   4.204 -0.1211 -0.0378 -0.2305
  440MOL0     C58000   6.899   8.708   3.743  0.0145  0.0914 -0.6603
  440MOL0     C58001   7.026   8.672   3.689  0.0470 -0.7218  0.1053
  440MOL0     C58002   7.376   8.584   3.437  0.3056  0.1477 -0.0659
  440MOL0     C58003   7.339   8.519   3.318 -0.2455  0.4994  0.4840
  440MOL0     C58004   7.430   8.467   3.225 -0.0527 -0.7024 -0.0815
  440MOL0     C58005   7.568   8.484   3.258  0.4173 -0.1215  0.7513
  440MOL0     O58006   7.655   8.415   3.178  0.0869  0.0583 -0.1721
  440MOL0     C58007   7.798   8.434   3.196  0.8427  0.2681  0.9505
  440MOL0     C58008   7.876   8.407   3.059  0.3548 -0.4699 -0.1248
  440MOL0     C58009   8.010   8.466   3.065 -0.2369 -0.7194 -0.0107
  440MOL0     C58010   8.073   8.476   2.923  0.2208  0.6171  0.2315
  440MOL0     C58011   8.030   8.602   2.859  0.1335  0.0924  0.1717
  440MOL0     C58012   8.007   8.701   2.784 -0.3082  0.3472 -0.6343
  440MOL0     C58013   7.611   8.548   3.372 -0.0197 -0.7181  0.3088
  440MOL0     C58014   7.518   8.611   3.462  0.3934  0.8243 -0.8468
  440MOL0     H58015   6.932   8.679   3.357  3.5265  3.2726 -0.6387
  440MOL0     H58016   6.732   8.745   3.446 -0.1347 -0.8207 -1.0322
  440MOL0     H58017   6.519   8.643   3.646  2.4022 -1.6430  2.0861
  440MOL0     H58018   6.553   8.797   3.565  1.5189  2.9854  1.5209
  440MOL0     H58019   6.349   8.769   3.731  2.3285 -2.3220 -1.7912
  440MOL0     H58020   6.446   8.924   3.723 -2.5238  0.8119  1.6424
  440MOL0     H58021   6.376   8.833   3.947  0.1104 -1.3973  3.0189
  440MOL0     H58022   6.550   8.847   3.939 -1.7400 -0.7994  1.7178
  440MOL0     H58023   6.510   8.580   3.875 -0.2693 -0.1460  0.4716
  440MOL0     H58024   6.550   8.634   4.034 -1.6140 -0.0191  0.4154
  440MOL0     H58025   6.365   8.490   4.031  1.5505 -0.4027 -1.1657
  440MOL0     H58026   6.266   8.599   3.935 -0.0814 -0.0830  0.2750
  440MOL0     H58027   6.280   8.765   4.136 -0.8864  1.2317 -0.6806
  440MOL0     H58028   6.382   8.628   4.199 -0.0485  0.4847  0.8361
  440MOL0     H58029   6.121   8.662   4.272 -3.0140  0.3916 -0.6944
  440MOL0     H58030   6.081   8.608   4.114 -3.4876 -1.9958  2.6866
  440MOL0     H58031   6.236   8.459   4.344  0.7852 -1.6284 -0.7453
  440MOL0     H58032   6.216   8.385   4.181 -1.7722 -1.6288  0.2890
  440MOL0     H58033   5.969   8.528   4.466  1.7073 -0.4959  0.2699
  440MOL0     H58034   5.669   8.528   4.391  2.9436 -0.1449 -2.2886
  440MOL0     H58035   5.702   8.416   4.530  2.3421  1.5345 -0.3716
  440MOL0     H58036   5.589   8.342   4.248  0.6157 -1.1755  0.0401
  440MOL0     H58037   5.484   8.378   4.384 -1.6127 -1.7484 -2.1132
  440MOL0     H58038   5.688   8.148   4.382  1.0449  2.4805 -0.3753
  440MOL0     H58039   5.571   8.183   4.504  2.0968  0.8014 -0.4159
  440MOL0     H58040   5.471   7.999   4.370  1.3004 -0.9401 -1.3920
  440MOL0     H58041   5.517   8.073   4.225  0.8001  0.2267  0.9387
  440MOL0     H58042   5.311   7.897   4.198 -0.7255 -1.5350 -0.5451
  440MOL0     H58043   5.100   7.809   4.190 -0.5035  0.2748  0.1007
  440MOL0     H58044   4.767   7.584   4.341  1.5552  0.3420 -0.7651
  440MOL0     H58045   4.541   7.488   4.359  1.9969 -0.1962  2.9237
  440MOL0     H58046   4.199   7.695   4.174 -1.8847 -2.6293  0.0106
  440MOL0     H58047   4.186   7.786   4.330 -0.3974 -0.0981 -0.8824
  440MOL0     H58048   4.081   7.576   4.420  4.1265  0.5857  0.9202
  440MOL0     H58049   4.074   7.509   4.262 -1.8245 -1.2135  1.5476
  440MOL0     H58050   3.936   7.702   4.179  0.5909 -0.6699  0.2533
  440MOL0     H58051   3.969   7.771   4.341  3.7488 -1.7608  1.8189
  440MOL0     H58052   3.824   7.503   4.341 -2.4929  0.1556 -1.4739
  440MOL0     H58053   3.837   7.633   4.452 -1.1759 -0.1430 -1.3208
  440MOL0     H58054   3.683   7.753   4.286  0.0401  0.1341  1.3767
  440MOL0     H58055   3.615   7.635   4.391  0.6909  1.2683  0.0665
  440MOL0     H58056   3.613   7.462   4.185 -0.1111  0.2809  0.2023
  440MOL0     H58057   3.710   7.587   4.106 -1.0689  0.4443  0.3606
  440MOL0     H58058   3.404   7.614   4.181 -1.0400 -0.7961 -0.9770
  440MOL0     H58059   3.489   7.734   4.090 -2.1786  0.5296  3.9790
  440MOL0     H58060   3.363   7.583   3.953 -0.4044  1.0698  0.7867
  440MOL0     H58061   3.461   7.442   4.004 -0.7046  0.9839  0.0529
  440MOL0     H58062   4.375   7.885   4.270  1.2023  2.6489  3.1835
  440MOL0     H58063   4.598   7.971   4.284  0.6283  0.4324  0.7402
  440MOL0     H58064   4.918   8.177   4.313  0.9624  2.4921 -4.1611
  440MOL0     H58065   5.150   8.265   4.365  0.7678  0.5524 -1.3311
  440MOL0     H58066   6.887   8.707   3.850 -1.8457 -1.7555 -0.8321
  440MOL0     H58067   7.111   8.653   3.753  0.3347  0.7125  0.1767
  440MOL0     H58068   7.236   8.495   3.292 -1.0893  2.4940  1.7609
  440MOL0     H58069   7.400   8.398   3.147  1.3043 -3.4121  1.5836
  440MOL0     H58070   7.829   8.364   3.274 -0.4834  0.5409  1.7403
  440MOL0     H58071   7.824   8.534   3.233 -2.1764  2.2415 -1.7710
  440MOL0     H58072   7.877   8.300   3.038 -1.5593 -0.5761  0.1378
  440MOL0     H58073   7.818   8.455   2.979 -0.4622  1.2434  1.4262
  440MOL0     H58074   8.086   8.406   3.118 -0.0319 -1.3794 -1.0287
  440MOL0     H58075   7.998   8.566   3.107  1.1257  0.2493 -1.8064
  440MOL0     H58076   8.181   8.469   2.940 -0.1591 -0.6503  2.5512
  440MOL0     H58077   8.049   8.382   2.872 -1.6728 -1.0353  3.8083
  440MOL0     H58078   7.990   8.773   2.706 -1.3010 -1.4381 -2.1425
  440MOL0     H58079   7.712   8.569   3.406  0.6274 -0.4578 -1.6324
  440MOL0     H58080   7.547   8.673   3.546  0.3839 -2.7827  2.0913
  441MOL0     O58081   6.378   7.479   4.613  0.0276  0.1495 -0.1199
  441MOL0     C58082   6.402   7.373   4.669  0.4003 -0.1642  0.3483
  441MOL0     O58083   6.317   7.317   4.763 -0.2701  0.1580 -0.3327
  441MOL0     C58084   6.189   7.299   4.749  0.2258  0.0063  0.3536
  441MOL0     C58085   6.125   7.289   4.625 -0.1792 -0.6324 -0.0100
  441MOL0     C58086   5.990   7.267   4.620  0.9335 -0.6622 -0.3658
  441MOL0     C58087   5.910   7.257   4.734 -1.1690 -0.4228 -0.7845
  441MOL0     O58088   5.777   7.233   4.730 -0.3510  0.0357  0.3658
  441MOL0     C58089   5.704   7.272   4.616  0.8441 -1.0407  0.0021
  441MOL0     C58090   5.552   7.262   4.624 -0.1226 -0.1593  0.3579
  441MOL0     C58091   5.472   7.312   4.494 -0.7824 -0.1796 -0.5755
  441MOL0     C58092   5.370   7.201   4.457 -0.5499  0.4088  0.0700
  441MOL0     C58093   5.264   7.183   4.574 -0.5301 -0.2143 -0.5230
  441MOL0     C58094   5.161   7.074   4.534 -0.1615  0.8193  0.2870
  441MOL0     C58095   5.059   7.062   4.653 -0.6666 -0.1894  0.3790
  441MOL0     C58096   4.953   6.953   4.611 -0.5121  0.2196 -0.3049
  441MOL0     N58097   4.872   6.918   4.730  0.2263  0.0004  0.1561
  441MOL0     C58098   4.894   6.815   4.830  0.6101 -0.3340  0.2403
  441MOL0     C58099   4.775   6.815   4.895 -0.5641  0.2825 -0.2027
  441MOL0     C58100   4.729   6.724   5.005  0.8731  0.2323  0.1753
  441MOL0     C58101   4.805   6.729   5.135  0.4551 -0.4744 -1.0834
  441MOL0     C58102   4.926   6.631   5.131 -0.2408 -0.2515  0.2491
  441MOL0     C58103   4.970   6.584   5.272  0.3585  0.6690  0.6528
  441MOL0     O58104   5.079   6.492   5.273 -0.3558 -0.2632 -0.3183
  441MOL0     C58105   5.187   6.538   5.208 -0.7614 -0.9331 -0.5035
  441MOL0     C58106   5.239   6.455   5.117  0.6624  0.4248  0.9239
  441MOL0     C58107   5.355   6.498   5.046 -0.1895  0.5040 -0.3467
  441MOL0     C58108   5.416   6.620   5.075 -0.6209 -0.0877 -0.0769
  441MOL0     C58109   5.534   6.668   4.988  0.0860  0.0465 -0.1024
  441MOL0     O58110   5.574   6.796   5.011  0.4176  0.8030  0.7222
  441MOL0     C58111   5.682   6.838   4.935  0.2239 -0.4151 -0.2710
  441MOL0     C58112   5.803   6.859   5.005 -0.0671  0.5624 -0.2018
  441MOL0     C58113   5.923   6.892   4.939  0.3212  0.6696 -0.7668
  441MOL0     C58114   5.915   6.904   4.797  0.1757  0.7346  0.1619
  441MOL0     O58115   6.020   6.902   4.718 -0.5120  0.2369 -0.6447
  441MOL0     C58116   6.153   6.874   4.780 -0.7493  0.5674  0.6417
  441MOL0     C58117   6.248   6.879   4.658  0.2174  0.4421  0.0827
  441MOL0     C58118   6.383   6.822   4.688 -0.8181 -0.6426  0.3989
  441MOL0     C58119   6.468   6.815   4.570 -0.0788  0.6048  0.4309
  441MOL0     C58120   6.616   6.769   4.593 -0.5046  0.5410  0.1918
  441MOL0     C58121   6.696   6.824   4.478  0.0932  0.4896 -0.4356
  441MOL0     C58122   6.852   6.810   4.499  0.5854 -0.4780  0.1014
  441MOL0     C58123   6.916   6.876   4.375 -0.5582 -0.1118 -1.3817
  441MOL0    Cl58124   7.067   6.799   4.336 -0.2248 -0.1998 -0.3497
  441MOL0     C58125   5.792   6.906   4.734 -1.0852 -0.5386  0.6101
  441MOL0     C58126   5.675   6.873   4.804  0.6849  0.1089  0.0584
  441MOL0     O58127   5.592   6.579   4.924  0.2305 -0.4116 -0.6349
  441MOL0     C58128   5.366   6.693   5.183 -0.1519  0.6038  0.0826
  441MOL0     C58129   5.252   6.658   5.250 -0.6374 -0.5985  0.0808
  441MOL0     N58130   4.693   6.916   4.847 -0.7697  0.1084 -0.2870
  441MOL0     N58131   4.746   6.973   4.744  0.6440 -0.1376  0.3103
  441MOL0     C58132   5.973   7.257   4.858 -0.0245 -0.3300  0.5873
  441MOL0     C58133   6.108   7.288   4.868  0.0825 -0.0043 -0.7395
  441MOL0     C58134   6.537   7.308   4.657 -0.6509  0.3619 -1.2485
  441MOL0     C58135   6.560   7.175   4.704 -0.3722  0.1475  0.6633
  441MOL0     C58136   6.690   7.126   4.682 -0.7072  0.3802  0.2043
  441MOL0     C58137   6.797   7.197   4.624 -0.4949  0.9979  0.3150
  441MOL0     O58138   6.919   7.138   4.613  0.2541  0.0084 -0.1737
  441MOL0     C58139   7.030   7.212   4.576  0.2979 -0.2215  0.4289
  441MOL0     C58140   7.161   7.141   4.591  0.4694  0.2840  0.2568
  441MOL0     C58141   7.165   7.067   4.734 -0.3579  0.0791  0.1426
  441MOL0     C58142   7.294   6.989   4.720 -0.9500  0.0895 -0.2795
  441MOL0     C58143   7.414   7.078   4.725  0.0040 -0.3712  0.8664
  441MOL0     C58144   7.501   7.162   4.721 -0.5422  0.4132  0.0374
  441MOL0     C58145   6.763   7.326   4.584 -0.2435  1.2955 -0.3154
  441MOL0     C58146   6.640   7.383   4.603 -0.2476  0.7260  0.0480
  441MOL0     H58147   6.175   7.316   4.532 -1.4777  0.9738 -0.2963
  441MOL0     H58148   5.939   7.246   4.527  1.1397 -1.2307 -0.3568
  441MOL0     H58149   5.741   7.211   4.533 -0.2414  0.0252 -1.3200
  441MOL0     H58150   5.734   7.372   4.584  0.6492 -0.6239  1.1055
  441MOL0     H58151   5.517   7.323   4.708  0.1801  0.8935 -0.2530
  441MOL0     H58152   5.545   7.154   4.639  2.8989 -0.9251 -2.6038
  441MOL0     H58153   5.545   7.318   4.413 -1.1797 -1.4933 -1.0599
  441MOL0     H58154   5.420   7.407   4.510 -1.5184 -0.1138 -3.0085
  441MOL0     H58155   5.322   7.220   4.361  0.3573 -0.4460 -0.5615
  441MOL0     H58156   5.424   7.106   4.451 -1.6153 -0.3093  1.0957
  441MOL0     H58157   5.217   7.281   4.585  3.2559  1.9592 -1.9401
  441MOL0     H58158   5.314   7.158   4.668  1.4754  1.2225 -1.1393
  441MOL0     H58159   5.219   6.982   4.522 -0.7512  0.2561  1.5154
  441MOL0     H58160   5.098   7.108   4.452  0.3490  0.9877 -0.0362
  441MOL0     H58161   5.109   7.025   4.743 -0.5495 -0.8688  0.0506
  441MOL0     H58162   5.008   7.157   4.667  0.2644  0.0978  2.0842
  441MOL0     H58163   4.991   6.854   4.584  0.9763  0.3849  1.0011
  441MOL0     H58164   4.889   6.977   4.526  1.4004 -1.3231 -2.3057
  441MOL0     H58165   4.982   6.753   4.845  0.7479  0.0588  1.1019
  441MOL0     H58166   4.717   6.621   4.970  0.2168  0.6204 -0.8205
  441MOL0     H58167   4.629   6.756   5.035  1.6118  1.7177  1.1757
  441MOL0     H58168   4.743   6.714   5.223  0.3601 -0.1036 -1.0844
  441MOL0     H58169   4.850   6.824   5.166 -0.2454 -1.2151  2.6295
  441MOL0     H58170   4.879   6.545   5.081  0.7197 -0.7756  0.2165
  441MOL0     H58171   5.004   6.675   5.068  0.0640 -1.1488 -0.0144
  441MOL0     H58172   4.881   6.542   5.320  0.4259  1.7478  1.7751
  441MOL0     H58173   4.993   6.667   5.340  0.7918  0.7864  0.3698
  441MOL0     H58174   5.194   6.357   5.107  0.9535  0.0990  2.6296
  441MOL0     H58175   5.397   6.432   4.970 -0.9322 -0.1807 -0.1803
  441MOL0     H58176   5.792   6.852   5.113 -1.4746 -0.4739 -0.3852
  441MOL0     H58177   6.019   6.904   4.989  0.2499  2.2951 -0.9659
  441MOL0     H58178   6.171   6.780   4.832  0.6529 -0.0346 -0.8173
  441MOL0     H58179   6.185   6.961   4.839  2.4961  0.4445 -0.6990
  441MOL0     H58180   6.257   6.986   4.638 -0.2028  0.4625 -0.0057
  441MOL0     H58181   6.198   6.826   4.576  1.0729  1.8714 -1.4379
  441MOL0     H58182   6.381   6.715   4.714  0.7072 -0.4310  1.5219
  441MOL0     H58183   6.440   6.874   4.766 -1.5136 -2.7129  2.4256
  441MOL0     H58184   6.412   6.750   4.502 -1.8893  0.2012  2.2062
  441MOL0     H58185   6.465   6.918   4.533  0.3022  1.2915  2.2295
  441MOL0     H58186   6.620   6.660   4.596 -2.7637  0.2076 -3.0240
  441MOL0     H58187   6.649   6.807   4.690 -4.4357 -0.4688  2.1473
  441MOL0     H58188   6.687   6.932   4.468  2.3885  0.9539  1.5599
  441MOL0     H58189   6.669   6.777   4.383  0.8353  2.9113 -1.9305
  441MOL0     H58190   6.892   6.866   4.584 -1.1034  0.1147  0.5573
  441MOL0     H58191   6.878   6.704   4.493  0.2215 -0.6521  1.2938
  441MOL0     H58192   6.926   6.984   4.381 -2.2256  0.0062  0.1337
  441MOL0     H58193   6.851   6.867   4.287 -2.2902  0.9548 -0.2615
  441MOL0     H58194   5.789   6.923   4.627 -0.1867  1.3246  0.8469
  441MOL0     H58195   5.593   6.849   4.737  2.2431 -0.7347 -1.6402
  441MOL0     H58196   5.409   6.792   5.196 -0.1618  0.6618 -0.3266
  441MOL0     H58197   5.225   6.721   5.334 -0.8621 -0.6231  0.0266
  441MOL0     H58198   5.911   7.234   4.944 -0.1733  1.5013  1.0201
  441MOL0     H58199   6.166   7.296   4.959 -0.5780 -1.3334 -0.1755
  441MOL0     H58200   6.483   7.119   4.758  3.4480 -3.7061  2.6915
  441MOL0     H58201   6.708   7.025   4.720 -0.1300 -0.6183 -2.5430
  441MOL0     H58202   7.035   7.306   4.632  4.0288 -0.6664  1.1159
  441MOL0     H58203   7.008   7.228   4.470 -0.2237 -3.9483 -0.1741
  441MOL0     H58204   7.176   7.067   4.513  0.4276  0.9697 -0.4117
  441MOL0     H58205   7.232   7.224   4.586  0.9844 -0.2233 -1.1522
  441MOL0     H58206   7.085   6.995   4.753 -1.1460  1.1752  1.1326
  441MOL0     H58207   7.167   7.136   4.819 -0.0533 -0.0380  0.2333
  441MOL0     H58208   7.300   6.915   4.801 -1.2220  2.3306  1.8988
  441MOL0     H58209   7.291   6.932   4.627  0.3277  2.4261 -1.8335
  441MOL0     H58210   7.580   7.234   4.723 -0.9591  0.8740  0.0312
  441MOL0     H58211   6.824   7.383   4.515 -1.4505  0.6658 -1.9791
  441MOL0     H58212   6.620   7.481   4.561 -1.6238  1.1230  1.5147
  442MOL0     O58213   6.578   2.098   8.461  0.3026  0.3937 -0.1643
  442MOL0     C58214   6.534   1.987   8.437 -0.2535  0.3976  0.9697
  442MOL0     O58215   6.597   1.890   8.364 -0.5630  0.2186  0.5350
  442MOL0     C58216   6.732   1.898   8.345  0.1201 -0.3160  0.4492
  442MOL0     C58217   6.826   1.964   8.434  0.7057 -0.2667  0.3018
  442MOL0     C58218   6.963   1.952   8.401 -0.1822 -0.1538  0.1209
  442MOL0     C58219   7.003   1.909   8.279  0.4689  0.2059  0.4306
  442MOL0     O58220   7.142   1.911   8.270  0.6406 -0.4145  0.0076
  442MOL0     C58221   7.200   1.840   8.162  0.3886 -0.0612  0.1987
  442MOL0     C58222   7.354   1.839   8.190 -0.5942  0.9230  0.4484
  442MOL0     C58223   7.380   1.750   8.318  1.2044  0.0816  0.1522
  442MOL0     C58224   7.526   1.699   8.336 -0.7171 -0.4649  0.2402
  442MOL0     C58225   7.584   1.613   8.218  0.8748 -0.1456 -0.3621
  442MOL0     C58226   7.703   1.535   8.271 -0.2499  0.0689  0.1461
  442MOL0     C58227   7.824   1.638   8.285  0.3408 -0.0679 -0.5181
  442MOL0     C58228   7.879   1.655   8.145 -0.3349 -0.9020 -0.8261
  442MOL0     N58229   7.994   1.738   8.147 -0.4607 -0.8984 -0.3565
  442MOL0     C58230   8.022   1.838   8.045  0.7876  0.5670 -0.2066
  442MOL0     C58231   8.134   1.897   8.092 -0.3651 -0.3722  0.7568
  442MOL0     C58232   8.213   2.003   8.021 -0.3012  0.9105 -0.4851
  442MOL0     C58233   8.352   2.012   8.079  0.1022  0.1334  0.0829
  442MOL0     C58234   8.433   2.118   7.985  0.4077  0.4197 -1.7039
  442MOL0     C58235   8.561   2.174   8.052  0.0583  0.3319  0.2200
  442MOL0     O58236   8.546   2.283   8.144 -0.3780 -0.0029  0.0268
  442MOL0     C58237   8.651   2.323   8.220 -0.3530 -0.2597 -0.4384
  442MOL0     C58238   8.782   2.287   8.225 -0.2287  0.8495 -0.3918
  442MOL0     C58239   8.870   2.354   8.310 -0.0146 -1.0481  0.4626
  442MOL0     C58240   8.834   2.465   8.383 -0.7246 -0.2237  0.9059
  442MOL0     C58241   8.934   2.531   8.455 -0.0841 -0.4637 -0.4007
  442MOL0     O58242   9.064   2.533   8.407  0.2953  0.1639  0.4064
  442MOL0     C58243   9.177   2.588   8.462  0.8850 -0.7566  0.7005
  442MOL0     C58244   9.170   2.670   8.577  0.7910  0.4621  0.1095
  442MOL0     C58245   9.286   2.730   8.621  0.4492 -1.0194  0.0077
  442MOL0     C58246   9.411   2.699   8.561  0.1513  0.2610 -0.1859
  442MOL0     O58247   9.531   2.753   8.602  0.5490  0.3581 -1.3650
  442MOL0     C58248   9.569   2.728   8.739 -0.3744  0.0171 -0.7603
  442MOL0     C58249   9.715   2.752   8.765 -0.9081 -1.2089  0.7438
  442MOL0     C58250   9.818   2.643   8.715  0.7359 -0.6876  0.8797
  442MOL0     C58251   9.958   2.675   8.763 -0.4146 -0.3437  0.0908
  442MOL0     C58252  10.049   2.571   8.687  0.4679 -0.3438  0.0349
  442MOL0     C58253  10.186   2.553   8.755 -0.3038  0.5231  0.2242
  442MOL0     C58254  10.268   2.440   8.689 -0.1035  0.8100  0.5322
  442MOL0     C58255  10.408   2.432   8.764  0.7765 -0.0078  0.0092
  442MOL0    Cl58256  10.494   2.583   8.782 -0.7491 -0.0021  0.0767
  442MOL0     C58257   9.419   2.614   8.455  0.5835  0.1421 -1.4257
  442MOL0     C58258   9.300   2.559   8.399  0.1120  0.0566 -0.3079
  442MOL0     O58259   8.896   2.585   8.557  0.1862 -0.1798 -0.0881
  442MOL0     C58260   8.702   2.497   8.387  0.0039 -0.2930 -0.5497
  442MOL0     C58261   8.609   2.432   8.304  0.6619  0.1501 -0.6429
  442MOL0     N58262   8.169   1.849   8.211 -0.2778  0.9102 -0.6278
  442MOL0     N58263   8.091   1.741   8.242  0.0419  0.4154  0.1550
  442MOL0     C58264   6.913   1.848   8.189  0.0608 -0.3428 -0.6477
  442MOL0     C58265   6.777   1.841   8.226 -0.3141  0.2739 -0.2740
  442MOL0     C58266   6.393   1.968   8.480 -0.5101 -0.6878  0.9776
  442MOL0     C58267   6.326   1.867   8.417  0.4442 -0.1619  0.0429
  442MOL0     C58268   6.187   1.844   8.446 -0.3533  0.0966 -0.4512
  442MOL0     C58269   6.121   1.911   8.537 -0.1173 -0.0817 -0.3197
  442MOL0     O58270   5.992   1.893   8.560  0.3522 -0.3552  0.2142
  442MOL0     C58271   5.906   1.792   8.505  0.0696  0.7533  0.3193
  442MOL0     C58272   5.777   1.818   8.584  0.7121  0.6376 -0.3583
  442MOL0     C58273   5.686   1.697   8.611  0.0564 -0.3055 -0.6082
  442MOL0     C58274   5.582   1.658   8.503 -0.2918 -0.2272  0.0856
  442MOL0     C58275   5.504   1.534   8.534 -0.6241  0.6712  0.2479
  442MOL0     C58276   5.439   1.436   8.553  0.8602  0.1087  0.7255
  442MOL0     C58277   6.184   2.016   8.599  0.1755 -0.0408  1.0781
  442MOL0     C58278   6.320   2.048   8.563  0.4533  0.0583 -0.9232
  442MOL0     H58279   6.789   2.014   8.523  1.2905  3.1638 -1.2583
  442MOL0     H58280   7.031   2.002   8.470  0.2349 -0.0102 -0.3822
  442MOL0     H58281   7.178   1.898   8.073  0.7883 -0.0213  0.1255
  442MOL0     H58282   7.161   1.738   8.153 -1.0709  0.2759  1.9675
  442MOL0     H58283   7.386   1.939   8.219  2.5148  0.6633 -1.5756
  442MOL0     H58284   7.402   1.813   8.095 -1.1191 -0.7184  0.5954
  442MOL0     H58285   7.313   1.664   8.318  0.0010  0.9808 -0.6008
  442MOL0     H58286   7.370   1.817   8.404 -0.8708  0.2648 -0.1789
  442MOL0     H58287   7.590   1.785   8.355  4.8114 -4.1567  0.4891
  442MOL0     H58288   7.542   1.643   8.429 -1.6239 -0.1148  0.6223
  442MOL0     H58289   7.618   1.677   8.137 -0.5329  1.0691 -0.0340
  442MOL0     H58290   7.510   1.543   8.177 -0.8881  1.6069 -0.2821
  442MOL0     H58291   7.712   1.450   8.202  4.3086  0.0367  0.4786
  442MOL0     H58292   7.667   1.498   8.367 -0.3259  1.4515  0.6735
  442MOL0     H58293   7.803   1.735   8.331 -0.3878  0.7077 -2.3948
  442MOL0     H58294   7.900   1.595   8.351  0.5373 -1.7904 -1.7865
  442MOL0     H58295   7.806   1.711   8.086  1.4576  2.5022 -0.0834
  442MOL0     H58296   7.902   1.559   8.098 -1.3205 -0.1228 -3.0127
  442MOL0     H58297   7.973   1.858   7.951  2.5072 -1.0846 -1.5456
  442MOL0     H58298   8.153   2.094   8.026 -2.9388 -0.6735 -1.4141
  442MOL0     H58299   8.232   1.987   7.914  0.6499 -0.9366 -0.0861
  442MOL0     H58300   8.408   1.919   8.069 -1.8220 -0.9978 -0.6086
  442MOL0     H58301   8.350   2.042   8.184  1.0966  0.8570 -0.0897
  442MOL0     H58302   8.457   2.064   7.893  1.3785 -2.2856  0.0223
  442MOL0     H58303   8.369   2.204   7.964 -0.3831 -0.3330 -2.4553
  442MOL0     H58304   8.621   2.211   7.968  0.4461  2.0942  1.2331
  442MOL0     H58305   8.618   2.093   8.099  1.5858  3.0971  3.5637
  442MOL0     H58306   8.828   2.211   8.162 -0.1368  0.2984  0.3184
  442MOL0     H58307   8.976   2.338   8.296 -0.3696 -1.3985 -2.4830
  442MOL0     H58308   9.076   2.689   8.628 -0.0124  2.1104 -1.8872
  442MOL0     H58309   9.305   2.789   8.710  2.5497 -0.5229 -0.7105
  442MOL0     H58310   9.550   2.626   8.771  0.4181  0.3312  0.8020
  442MOL0     H58311   9.510   2.791   8.806 -2.8081 -1.3880 -1.4695
  442MOL0     H58312   9.732   2.762   8.872 -4.1698  0.8179  1.2283
  442MOL0     H58313   9.740   2.844   8.710 -1.3604 -0.2241  2.1318
  442MOL0     H58314   9.823   2.630   8.606 -0.2556 -0.0732  0.7489
  442MOL0     H58315   9.789   2.553   8.771 -0.5559 -0.7667  0.1283
  442MOL0     H58316   9.990   2.775   8.731 -1.0764 -0.4721 -1.0447
  442MOL0     H58317   9.963   2.677   8.872 -0.5952 -1.1848  0.1212
  442MOL0     H58318  10.069   2.602   8.584  1.2158  0.3471  0.3703
  442MOL0     H58319   9.995   2.476   8.687 -1.3969  0.6573 -0.8301
  442MOL0     H58320  10.167   2.520   8.857 -1.6658 -2.6393 -0.9344
  442MOL0     H58321  10.244   2.645   8.744 -1.4015  0.9354 -3.6218
  442MOL0     H58322  10.224   2.340   8.695  0.4748  0.3337 -2.1141
  442MOL0     H58323  10.283   2.460   8.583 -2.2098 -0.3719 -0.0386
  442MOL0     H58324  10.481   2.361   8.725  1.0907 -0.3250  1.1618
  442MOL0     H58325  10.380   2.396   8.863 -0.9794 -2.4556 -1.2557
  442MOL0     H58326   9.515   2.589   8.411 -0.4020 -1.7399 -2.6744
  442MOL0     H58327   9.290   2.495   8.313 -0.8227 -1.4886  0.8992
  442MOL0     H58328   8.676   2.586   8.444  4.1175  0.5897  0.2435
  442MOL0     H58329   8.508   2.470   8.304 -0.9576 -3.6767 -0.4025
  442MOL0     H58330   6.950   1.816   8.092 -0.4880  1.4008 -1.4744
  442MOL0     H58331   6.713   1.784   8.159  1.0494 -3.0287  1.0035
  442MOL0     H58332   6.365   1.812   8.332  2.3152  0.4852  0.4245
  442MOL0     H58333   6.139   1.765   8.389 -0.4427 -0.7202  0.7169
  442MOL0     H58334   5.945   1.691   8.519 -1.5358  0.0937  0.2114
  442MOL0     H58335   5.893   1.792   8.396  1.3032 -2.1506  0.0857
  442MOL0     H58336   5.809   1.860   8.680 -1.6109  1.0865  0.2615
  442MOL0     H58337   5.716   1.896   8.538  1.5371  1.3255 -0.3201
  442MOL0     H58338   5.631   1.699   8.705 -0.9015  0.1830 -1.1568
  442MOL0     H58339   5.746   1.606   8.622  0.5797 -0.1601 -2.0881
  442MOL0     H58340   5.515   1.744   8.517  1.2976  1.4963 -2.0168
  442MOL0     H58341   5.625   1.663   8.402 -0.0978 -0.4223  0.1603
  442MOL0     H58342   5.386   1.345   8.568 -3.2746  2.2875  0.8883
  442MOL0     H58343   6.137   2.065   8.684  1.2756  2.0991  0.5474
  442MOL0     H58344   6.370   2.139   8.595  0.0775 -0.3615  0.9869
  443MOL0     O58345   3.894   8.131   5.793 -1.0376 -0.1918  0.7359
  443MOL0     C58346   3.885   8.082   5.904  0.9568 -0.1602 -0.3192
  443MOL0     O58347   3.994   8.055   5.990 -0.1448  0.0315  0.2049
  443MOL0     C58348   4.127   8.111   5.969  0.7938  0.0970  0.3310
  443MOL0     C58349   4.233   8.061   6.039  0.1123  0.2435  0.4819
  443MOL0     C58350   4.363   8.112   6.036 -0.2270  0.7395 -0.2541
  443MOL0     C58351   4.386   8.227   5.966 -0.4650 -0.1214  0.2250
  443MOL0     O58352   4.507   8.279   5.995 -0.7358 -0.4933 -0.9179
  443MOL0     C58353   4.594   8.285   5.883  0.6886 -0.4049 -0.4201
  443MOL0     C58354   4.683   8.405   5.883  0.2649  0.3558 -0.4399
  443MOL0     C58355   4.808   8.391   5.968 -0.4128 -0.1014 -0.0068
  443MOL0     C58356   4.906   8.281   5.907 -0.3474 -0.2346 -1.2828
  443MOL0     C58357   5.050   8.313   5.954  0.0879 -0.3518  1.2933
  443MOL0     C58358   5.085   8.287   6.102 -0.3679 -0.1337  0.4520
  443MOL0     C58359   5.088   8.139   6.127  0.0417 -0.5502 -0.1293
  443MOL0     C58360   5.130   8.118   6.273 -0.5569  0.3332  0.4334
  443MOL0     N58361   5.107   7.978   6.302 -0.0528 -0.2379  0.9245
  443MOL0     C58362   5.011   7.923   6.380  0.4075 -0.0407 -0.2556
  443MOL0     C58363   5.031   7.795   6.359 -0.1052 -0.9886 -0.1467
  443MOL0     C58364   4.944   7.696   6.426  0.0370 -0.4479  0.2185
  443MOL0     C58365   5.011   7.646   6.559 -0.3728 -0.5394  0.6152
  443MOL0     C58366   4.919   7.548   6.630 -1.2530  0.4072 -0.1484
  443MOL0     C58367   4.820   7.478   6.544 -0.2858  0.0352  0.5407
  443MOL0     O58368   4.755   7.393   6.634  0.0156 -0.4353  0.2289
  443MOL0     C58369   4.638   7.335   6.596  1.4259 -0.0173  0.4556
  443MOL0     C58370   4.609   7.214   6.659  0.4261  0.3530  0.7198
  443MOL0     C58371   4.492   7.141   6.627  0.1523  0.1868  0.6073
  443MOL0     C58372   4.410   7.184   6.531 -0.5440 -0.0930  0.5462
  443MOL0     C58373   4.296   7.101   6.495  0.9269  0.5252 -0.1717
  443MOL0     O58374   4.281   6.973   6.534 -0.4320 -0.2914  0.0962
  443MOL0     C58375   4.155   6.919   6.544 -0.1943  0.0338 -0.4813
  443MOL0     C58376   4.040   6.992   6.588  0.1177 -0.1480  0.0040
  443MOL0     C58377   3.917   6.918   6.603  0.5326  0.0346 -0.2979
  443MOL0     C58378   3.906   6.777   6.568  0.6246 -0.3135 -0.0068
  443MOL0     O58379   3.782   6.714   6.577 -0.4177  1.0310  0.5175
  443MOL0     C58380   3.758   6.587   6.505  0.5180  0.3870 -0.5771
  443MOL0     C58381   3.620   6.528   6.534  0.3838 -0.0429  0.1196
  443MOL0     C58382   3.609   6.381   6.474  0.7064 -0.8827 -0.2140
  443MOL0     C58383   3.478   6.319   6.506 -0.1550 -0.0432  0.3343
  443MOL0     C58384   3.480   6.164   6.493 -0.5641 -0.2456 -0.6016
  443MOL0     C58385   3.337   6.102   6.519 -0.0091 -0.7966 -0.0720
  443MOL0     C58386   3.346   5.951   6.504  0.6598 -0.0985 -0.2075
  443MOL0     C58387   3.206   5.902   6.528 -0.8784  0.7287  0.3103
  443MOL0    Cl58388   3.189   5.731   6.511 -0.0513  0.1871  0.1465
  443MOL0     C58389   4.019   6.715   6.521  0.0509 -0.6129  0.3635
  443MOL0     C58390   4.138   6.782   6.513 -0.5448  0.4633 -0.8587
  443MOL0     O58391   4.217   7.158   6.422 -0.6245  0.5140 -0.0489
  443MOL0     C58392   4.447   7.297   6.455 -0.2479 -0.1755  0.6182
  443MOL0     C58393   4.554   7.373   6.488 -0.0862  0.7450  0.5518
  443MOL0     N58394   5.134   7.767   6.265 -0.3104 -0.1069 -0.2102
  443MOL0     N58395   5.188   7.884   6.238 -0.9491 -1.2028 -0.0029
  443MOL0     C58396   4.281   8.281   5.889 -0.1667  0.1147 -0.7201
  443MOL0     C58397   4.154   8.220   5.887 -0.5432 -0.0620 -0.4598
  443MOL0     C58398   3.751   8.041   5.957 -1.3121  0.8985 -0.3003
  443MOL0     C58399   3.637   8.077   5.888 -0.2813 -0.3546 -0.0244
  443MOL0     C58400   3.507   8.045   5.935 -0.1532 -0.3982  0.5913
  443MOL0     C58401   3.501   7.958   6.045  0.1360  0.0718  0.3011
  443MOL0     O58402   3.376   7.918   6.079 -0.1178  0.3206 -0.3528
  443MOL0     C58403   3.359   7.778   6.074  0.6597  0.3374 -0.4978
  443MOL0     C58404   3.226   7.741   6.158 -0.1477 -0.1300 -0.3902
  443MOL0     C58405   3.194   7.591   6.172 -0.2098  0.0157 -0.0452
  443MOL0     C58406   3.066   7.563   6.254  0.0098 -0.5713  0.4375
  443MOL0     C58407   2.948   7.558   6.163  0.4790 -0.2717 -0.2367
  443MOL0     C58408   2.848   7.562   6.089 -0.0172  0.2930 -0.6724
  443MOL0     C58409   3.617   7.924   6.117  0.0577 -0.2109  0.0111
  443MOL0     C58410   3.738   7.986   6.081 -0.5768 -0.0524  0.5481
  443MOL0     H58411   4.219   7.960   6.078  1.2299 -0.2470 -0.3373
  443MOL0     H58412   4.442   8.061   6.090 -1.7817 -1.0110  0.4790
  443MOL0     H58413   4.528   8.290   5.797 -1.0930  1.8484  0.9713
  443MOL0     H58414   4.636   8.184   5.876 -0.5443 -0.8513 -1.9101
  443MOL0     H58415   4.617   8.490   5.905  0.8088  0.6125  0.2459
  443MOL0     H58416   4.718   8.423   5.781  1.6108 -0.6706 -0.1873
  443MOL0     H58417   4.767   8.375   6.068 -1.0210  0.0633 -0.2274
  443MOL0     H58418   4.866   8.484   5.962  2.2819 -1.6896 -0.2446
  443MOL0     H58419   4.884   8.179   5.939  1.3895 -1.0172 -2.3965
  443MOL0     H58420   4.903   8.297   5.799 -1.2359 -0.2941 -1.2689
  443MOL0     H58421   5.082   8.414   5.927  1.7248 -0.5135  2.4484
  443MOL0     H58422   5.114   8.251   5.890 -0.4530  0.8868 -0.5390
  443MOL0     H58423   5.014   8.340   6.165 -2.7968 -1.3701 -1.0639
  443MOL0     H58424   5.186   8.326   6.118 -0.1449 -0.2262 -0.6485
  443MOL0     H58425   4.986   8.102   6.112 -0.1289 -0.1913  0.1302
  443MOL0     H58426   5.151   8.089   6.053 -1.1089 -1.5829 -0.4528
  443MOL0     H58427   5.077   8.181   6.344  1.5204 -0.0592  2.4543
  443MOL0     H58428   5.239   8.124   6.282 -0.1306 -1.9327 -1.8158
  443MOL0     H58429   4.937   7.968   6.445  2.2184  0.1439  1.8092
  443MOL0     H58430   4.932   7.614   6.354  1.9097 -1.7473  1.2848
  443MOL0     H58431   4.849   7.738   6.461  0.6261  0.0929  1.2083
  443MOL0     H58432   5.042   7.730   6.622  3.3706 -0.1459 -1.4693
  443MOL0     H58433   5.109   7.605   6.533  0.9215  1.2345  2.3688
  443MOL0     H58434   4.985   7.477   6.681 -0.2267  2.6201  1.7858
  443MOL0     H58435   4.868   7.609   6.705  0.1410  1.1630  0.2162
  443MOL0     H58436   4.838   7.426   6.450  0.3118  3.3728 -1.3737
  443MOL0     H58437   4.742   7.552   6.523  1.2995  1.7166  0.3319
  443MOL0     H58438   4.687   7.177   6.725  3.1524  1.5514 -1.5585
  443MOL0     H58439   4.461   7.055   6.686 -0.1618 -1.3191 -1.6195
  443MOL0     H58440   4.039   7.095   6.622 -0.2807  0.1498 -0.8834
  443MOL0     H58441   3.830   6.971   6.640  1.5975  2.5846 -1.2296
  443MOL0     H58442   3.830   6.514   6.544  1.1795  0.1443 -2.1810
  443MOL0     H58443   3.763   6.590   6.396  3.0833  1.9035 -0.4965
  443MOL0     H58444   3.541   6.582   6.481  0.1861  0.5034  0.9621
  443MOL0     H58445   3.590   6.529   6.639 -0.0819 -0.6554 -0.0038
  443MOL0     H58446   3.695   6.327   6.515 -0.3630 -0.9913  1.9688
  443MOL0     H58447   3.623   6.377   6.365 -1.8256 -1.2195 -0.5703
  443MOL0     H58448   3.436   6.345   6.604 -2.3357 -0.8039 -0.3359
  443MOL0     H58449   3.404   6.355   6.434 -0.2325  1.1386  0.9687
  443MOL0     H58450   3.548   6.124   6.569 -2.8604 -1.1726  1.0485
  443MOL0     H58451   3.520   6.144   6.393  0.5943  1.5207 -0.5515
  443MOL0     H58452   3.273   6.142   6.439  0.7208  0.7999  0.0985
  443MOL0     H58453   3.286   6.120   6.614 -0.3058 -2.2458  0.0749
  443MOL0     H58454   3.375   5.921   6.403  0.6609 -3.5063  0.6999
  443MOL0     H58455   3.408   5.899   6.577 -1.1537 -0.3522  1.2277
  443MOL0     H58456   3.137   5.962   6.467 -3.3877 -1.6185  0.6092
  443MOL0     H58457   3.170   5.907   6.631 -3.9939 -0.4312 -0.6078
  443MOL0     H58458   4.013   6.614   6.482  0.1237  0.0107 -1.3804
  443MOL0     H58459   4.228   6.730   6.481 -1.1060 -2.1396  1.4865
  443MOL0     H58460   4.383   7.331   6.375  0.1307  0.4624  0.5780
  443MOL0     H58461   4.564   7.463   6.427 -0.8004 -0.0174 -0.7349
  443MOL0     H58462   4.289   8.363   5.819 -2.2426 -1.3290 -2.7841
  443MOL0     H58463   4.082   8.274   5.826  1.1948  0.9659 -1.6600
  443MOL0     H58464   3.642   8.126   5.791 -0.3121  1.0969  0.6802
  443MOL0     H58465   3.419   8.097   5.900  0.1119  1.5361  2.5843
  443MOL0     H58466   3.442   7.716   6.106  1.7735  1.4841 -1.0645
  443MOL0     H58467   3.342   7.753   5.969  2.1435 -1.0819 -0.4276
  443MOL0     H58468   3.245   7.784   6.257  0.7177 -0.0821 -0.5761
  443MOL0     H58469   3.140   7.795   6.118 -1.1886 -1.2174  0.2860
  443MOL0     H58470   3.276   7.546   6.229  1.6971  1.9433 -1.1518
  443MOL0     H58471   3.191   7.537   6.077 -0.9321 -1.6949  0.8967
  443MOL0     H58472   3.067   7.465   6.303 -1.1146  0.3660  2.4591
  443MOL0     H58473   3.049   7.640   6.330  3.3782  0.0506  0.7319
  443MOL0     H58474   2.765   7.582   6.024 -2.3802 -2.3512  1.2905
  443MOL0     H58475   3.605   7.856   6.201 -0.1368  0.7884  0.8048
  443MOL0     H58476   3.826   7.967   6.141 -0.4379  1.7695  0.9883
  444MOL0     O58477   2.230   8.514   2.328  0.0552 -0.1891  0.4126
  444MOL0     C58478   2.286   8.566   2.421 -0.5127  0.1661 -0.0562
  444MOL0     O58479   2.315   8.507   2.538 -0.3559  0.2009 -0.0699
  444MOL0     C58480   2.311   8.370   2.556 -0.8278  0.2312 -0.0104
  444MOL0     C58481   2.186   8.317   2.553  0.2698  0.1801 -0.2765
  444MOL0     C58482   2.172   8.180   2.582  0.4534  0.4787 -0.4579
  444MOL0     C58483   2.282   8.100   2.600 -0.6025 -0.9806  0.4886
  444MOL0     O58484   2.255   7.969   2.619 -0.0864  0.0467 -0.4199
  444MOL0     C58485   2.356   7.862   2.613  0.2829 -0.6097 -0.2303
  444MOL0     C58486   2.279   7.735   2.644  0.1255 -0.3808 -0.9117
  444MOL0     C58487   2.203   7.680   2.521 -0.5328 -0.5037  0.4280
  444MOL0     C58488   2.109   7.556   2.554 -0.4961 -0.4915 -0.7565
  444MOL0     C58489   2.177   7.439   2.613 -0.8132 -0.1317  0.0371
  444MOL0     C58490   2.060   7.342   2.642 -0.6925 -0.3917  0.8599
  444MOL0     C58491   2.042   7.339   2.799  0.0731  0.5021  0.5113
  444MOL0     C58492   1.926   7.257   2.851 -0.3317  0.7876  0.3794
  444MOL0     N58493   1.947   7.119   2.798 -0.1285  0.2955  0.3449
  444MOL0     C58494   1.858   7.046   2.727  0.5068 -0.2138 -0.1605
  444MOL0     C58495   1.912   6.923   2.716 -0.1826  0.2419  0.4872
  444MOL0     C58496   1.837   6.807   2.656 -0.4817 -0.3763 -0.3349
  444MOL0     C58497   1.719   6.767   2.744 -0.2938  0.6339  0.0252
  444MOL0     C58498   1.641   6.641   2.691  0.8146  0.1940 -0.7497
  444MOL0     C58499   1.721   6.513   2.684 -0.6631  0.6689  0.3993
  444MOL0     O58500   1.728   6.444   2.811  0.4014 -0.1669 -0.1042
  444MOL0     C58501   1.626   6.352   2.836  0.6181 -0.2771  0.7190
  444MOL0     C58502   1.634   6.307   2.965 -0.8016 -0.2556  0.1344
  444MOL0     C58503   1.534   6.218   3.016  0.1409  0.3807  0.0425
  444MOL0     C58504   1.426   6.177   2.938 -0.0300 -0.2989  0.1611
  444MOL0     C58505   1.336   6.072   2.985  0.2910 -0.3339  0.1200
  444MOL0     O58506   1.241   6.024   2.901 -0.8906 -0.1864  0.0865
  444MOL0     C58507   1.166   5.910   2.928 -0.4421 -0.6636 -0.6402
  444MOL0     C58508   1.071   5.920   3.024  0.1476 -0.6758 -0.3611
  444MOL0     C58509   0.990   5.815   3.070  0.2789  0.0248  0.2941
  444MOL0     C58510   1.002   5.686   3.000 -0.1126 -1.2811  0.2132
  444MOL0     O58511   0.918   5.576   3.018  0.1859  0.3311  0.4874
  444MOL0     C58512   0.785   5.608   3.061 -0.0038  0.2077  0.2828
  444MOL0     C58513   0.696   5.494   3.053 -0.3692 -0.2137  0.1171
  444MOL0     C58514   0.552   5.520   3.100 -0.2800  0.6099  0.0187
  444MOL0     C58515   0.459   5.399   3.109 -0.1972 -0.2271  0.2920
  444MOL0     C58516   0.317   5.447   3.164 -0.5987  0.4350 -1.1525
  444MOL0     C58517   0.229   5.520   3.059 -1.1165  0.4168  0.8846
  444MOL0     C58518   0.096   5.567   3.104  0.1575 -0.1064  0.0296
  444MOL0     C58519   0.009   5.445   3.138  0.1213  0.5245 -0.7035
  444MOL0    Cl58520  -0.166   5.494   3.149  0.1425  0.1625  0.0030
  444MOL0     C58521   1.112   5.673   2.919 -1.0293 -0.6679  0.8812
  444MOL0     C58522   1.191   5.785   2.882  0.0608  0.2186 -0.9610
  444MOL0     O58523   1.362   6.025   3.095 -0.8123 -0.0986  0.6781
  444MOL0     C58524   1.422   6.224   2.803 -0.4972 -0.5310  0.1969
  444MOL0     C58525   1.518   6.310   2.750 -0.2598 -0.1541 -0.3900
  444MOL0     N58526   2.035   6.927   2.774  0.2612 -0.8062 -0.1073
  444MOL0     N58527   2.057   7.043   2.817  0.7535  0.1588  0.0521
  444MOL0     C58528   2.411   8.155   2.590  0.8827  0.3261 -0.0294
  444MOL0     C58529   2.427   8.293   2.575 -0.7907  0.8198 -1.2029
  444MOL0     C58530   2.322   8.711   2.409 -0.1949 -0.5719 -0.0139
  444MOL0     C58531   2.307   8.777   2.284  0.0774  0.0767 -0.2025
  444MOL0     C58532   2.347   8.910   2.270  0.2788  0.2334 -0.1148
  444MOL0     C58533   2.384   8.984   2.382  0.0876 -0.4238 -0.6869
  444MOL0     O58534   2.403   9.117   2.370  0.6813  0.2112  0.6357
  444MOL0     C58535   2.528   9.163   2.411 -0.2525 -0.8686  0.7083
  444MOL0     C58536   2.525   9.311   2.371 -0.4291  0.3258 -0.3532
  444MOL0     C58537   2.562   9.329   2.223 -0.2009 -0.8440 -0.3129
  444MOL0     C58538   2.477   9.256   2.121  1.1072 -0.0189  0.1092
  444MOL0     C58539   2.519   9.268   1.983  0.0144  0.2580 -0.5369
  444MOL0     C58540   2.543   9.283   1.865 -0.1022 -0.0465  0.0100
  444MOL0     C58541   2.388   8.921   2.513 -0.0501  0.6001  0.2493
  444MOL0     C58542   2.364   8.785   2.521  0.2327  0.3074  0.3687
  444MOL0     H58543   2.095   8.373   2.534 -1.7323 -2.3615  1.1149
  444MOL0     H58544   2.074   8.133   2.578 -0.7524  2.6117  1.7036
  444MOL0     H58545   2.437   7.882   2.684 -1.6378  0.8691  1.6444
  444MOL0     H58546   2.400   7.853   2.513 -1.1102  2.9778 -1.3056
  444MOL0     H58547   2.200   7.743   2.719 -0.0216  0.7323 -1.1717
  444MOL0     H58548   2.357   7.666   2.678  2.0772  1.5526 -1.2941
  444MOL0     H58549   2.281   7.663   2.447 -0.5961  1.0045 -0.0258
  444MOL0     H58550   2.140   7.762   2.485  0.8980  1.5796  2.3182
  444MOL0     H58551   2.035   7.595   2.624  1.9774  2.3468  0.4586
  444MOL0     H58552   2.062   7.530   2.458 -1.6003  0.2072 -0.4287
  444MOL0     H58553   2.235   7.466   2.702  0.2895 -0.9427 -0.4161
  444MOL0     H58554   2.253   7.407   2.542  1.1319 -0.3313  2.1067
  444MOL0     H58555   2.082   7.243   2.602 -0.5361 -0.1069  0.2297
  444MOL0     H58556   1.967   7.376   2.597  0.8056  0.4187 -1.8122
  444MOL0     H58557   2.128   7.288   2.841  0.0373 -0.4270 -0.4872
  444MOL0     H58558   2.044   7.445   2.827  1.2258  1.3835 -2.4590
  444MOL0     H58559   1.834   7.295   2.806  0.9448  0.7708 -2.4554
  444MOL0     H58560   1.922   7.259   2.961  2.4773  0.5772  0.5587
  444MOL0     H58561   1.765   7.093   2.696  1.8468  1.3828 -2.0703
  444MOL0     H58562   1.906   6.721   2.653 -0.1908 -0.1240 -1.0539
  444MOL0     H58563   1.804   6.830   2.554  1.9977 -0.9272 -1.3398
  444MOL0     H58564   1.654   6.854   2.756  0.3970  0.7735  5.4096
  444MOL0     H58565   1.760   6.742   2.842  1.7210 -1.0970 -1.1676
  444MOL0     H58566   1.568   6.622   2.771  0.1569  2.1165 -0.8312
  444MOL0     H58567   1.588   6.665   2.598 -0.2214  0.1955 -0.1788
  444MOL0     H58568   1.826   6.528   2.656 -0.9827  0.4145 -1.0367
  444MOL0     H58569   1.679   6.450   2.605 -0.6562  1.5953 -0.3698
  444MOL0     H58570   1.721   6.347   3.015  0.2815 -1.8942 -0.3747
  444MOL0     H58571   1.545   6.182   3.118 -0.2770  3.8884  1.4583
  444MOL0     H58572   1.063   6.016   3.075  2.3183 -1.3152  1.3366
  444MOL0     H58573   0.920   5.838   3.148  0.3072  0.3269  0.2323
  444MOL0     H58574   0.741   5.687   3.000 -0.9693  0.8045  1.6904
  444MOL0     H58575   0.787   5.647   3.163 -2.0502  0.0303  0.4155
  444MOL0     H58576   0.729   5.403   3.105 -1.5874 -1.3173 -0.9682
  444MOL0     H58577   0.692   5.462   2.949 -0.2059 -2.0240  0.6224
  444MOL0     H58578   0.518   5.592   3.025 -0.8642 -1.5606 -1.9178
  444MOL0     H58579   0.548   5.555   3.203  1.0754 -2.4189  1.2352
  444MOL0     H58580   0.445   5.346   3.014  0.6479 -0.7916  0.4725
  444MOL0     H58581   0.504   5.324   3.175 -1.1789 -1.0656  0.0357
  444MOL0     H58582   0.324   5.508   3.255  3.0346  2.1582 -2.4029
  444MOL0     H58583   0.266   5.356   3.197 -4.2799  2.7696  0.2925
  444MOL0     H58584   0.214   5.444   2.981 -1.0549 -0.7238  1.9431
  444MOL0     H58585   0.283   5.608   3.024 -0.7454  0.9314  2.6568
  444MOL0     H58586   0.105   5.631   3.193  0.4029 -0.6985  0.4437
  444MOL0     H58587   0.052   5.621   3.021  1.9670  1.0300 -0.2441
  444MOL0     H58588   0.037   5.407   3.236 -0.3652  1.3785 -0.2159
  444MOL0     H58589   0.021   5.360   3.070  1.4901 -0.0595  0.2378
  444MOL0     H58590   1.135   5.580   2.870  0.2442  0.1381 -0.1040
  444MOL0     H58591   1.266   5.775   2.804  0.3579  1.5542 -0.8698
  444MOL0     H58592   1.336   6.198   2.742 -1.1554  1.4446  0.2058
  444MOL0     H58593   1.513   6.343   2.647 -0.4525 -2.7077 -1.2708
  444MOL0     H58594   2.500   8.093   2.591  2.5687  2.6351  1.5492
  444MOL0     H58595   2.524   8.343   2.574 -1.0280  1.2939 -0.7599
  444MOL0     H58596   2.269   8.724   2.197  2.1929 -0.5437 -0.8065
  444MOL0     H58597   2.339   8.957   2.172  0.0959  0.7116  0.1274
  444MOL0     H58598   2.606   9.107   2.358 -0.1633  0.7958 -1.0199
  444MOL0     H58599   2.543   9.155   2.519 -0.6062 -1.7296  0.6961
  444MOL0     H58600   2.429   9.345   2.412 -1.1971 -4.1022  2.1479
  444MOL0     H58601   2.611   9.352   2.426  0.8271 -1.0671 -1.2193
  444MOL0     H58602   2.663   9.289   2.209 -0.5046 -1.0687 -1.9943
  444MOL0     H58603   2.567   9.436   2.201  2.7861 -0.6508  0.9010
  444MOL0     H58604   2.491   9.148   2.133  1.2677 -0.2294 -1.6762
  444MOL0     H58605   2.372   9.278   2.142  0.6668 -0.3060 -1.6254
  444MOL0     H58606   2.568   9.305   1.763 -3.6020 -1.6023 -1.3577
  444MOL0     H58607   2.409   8.980   2.601 -2.0054 -0.6081  1.6164
  444MOL0     H58608   2.386   8.746   2.620  2.0753 -0.2170 -0.2030
  445MOL0     O58609   7.261   9.922   6.862 -0.1468 -0.3091  0.7003
  445MOL0     C58610   7.327   9.861   6.950  0.4068  0.9503  0.6470
  445MOL0     O58611   7.346   9.899   7.076  1.1353  0.1986  0.0498
  445MOL0     C58612   7.256   9.972   7.147  0.1549  0.0164  0.4763
  445MOL0     C58613   7.125   9.968   7.113  0.3635 -0.3064  0.1007
  445MOL0     C58614   7.027  10.049   7.171 -0.0831  0.0656  0.5248
  445MOL0     C58615   7.085  10.152   7.256  0.2832 -0.2618  0.5243
  445MOL0     O58616   7.000  10.254   7.298  0.1664  0.4009  0.1927
  445MOL0     C58617   7.048  10.387   7.297 -0.3856  0.1308  0.2811
  445MOL0     C58618   6.983  10.471   7.406 -0.2278 -0.4426 -1.2985
  445MOL0     C58619   6.845  10.526   7.373 -0.2634  0.7101  0.0008
  445MOL0     C58620   6.774  10.610   7.481 -0.2144 -0.9027 -1.0798
  445MOL0     C58621   6.641  10.653   7.418 -0.2999  0.0435  0.5938
  445MOL0     C58622   6.545  10.741   7.498 -0.5065 -0.3669 -0.4030
  445MOL0     C58623   6.600  10.886   7.520 -0.8668  0.7134  0.4029
  445MOL0     C58624   6.499  10.992   7.565  0.3665  0.2578 -0.7957
  445MOL0     N58625   6.420  11.031   7.452  0.7312 -0.8097  0.5647
  445MOL0     C58626   6.330  10.962   7.371 -0.0476  0.3186 -0.4836
  445MOL0     C58627   6.308  11.044   7.275 -0.6893 -0.5834 -0.9513
  445MOL0     C58628   6.208  11.036   7.171  0.3517  0.4390  0.2818
  445MOL0     C58629   6.262  10.967   7.050 -0.6018 -0.9968 -0.4378
  445MOL0     C58630   6.173  10.926   6.932 -0.1602 -0.8492  0.1585
  445MOL0     C58631   6.042  10.855   6.978  0.4682  0.3743 -1.2430
  445MOL0     O58632   5.988  10.803   6.857  0.3485  0.1381 -0.1754
  445MOL0     C58633   5.863  10.750   6.861 -0.0870 -0.0596 -0.1040
  445MOL0     C58634   5.773  10.752   6.966  0.1379 -0.2689  0.0095
  445MOL0     C58635   5.642  10.691   6.954 -0.4272 -0.1608  0.1159
  445MOL0     C58636   5.603  10.628   6.833  0.9709  0.1494  0.6193
  445MOL0     C58637   5.474  10.552   6.827  0.2977 -0.9168  0.3214
  445MOL0     O58638   5.424  10.519   6.952  0.7676 -0.0072  0.2427
  445MOL0     C58639   5.315  10.447   6.975 -0.3784  0.0725 -0.9422
  445MOL0     C58640   5.216  10.406   6.882 -1.1585  0.6795 -0.2218
  445MOL0     C58641   5.114  10.318   6.922  1.0997  0.1403 -0.3887
  445MOL0     C58642   5.092  10.279   7.051 -0.3345 -0.1515 -0.0230
  445MOL0     O58643   4.990  10.188   7.094 -0.3386  0.0220  0.1014
  445MOL0     C58644   4.878  10.179   7.013  0.8097  0.3841 -0.0395
  445MOL0     C58645   4.770  10.113   7.092 -0.4993  0.4612  0.8235
  445MOL0     C58646   4.637  10.129   7.013 -0.4304  0.1450  0.2102
  445MOL0     C58647   4.523  10.051   7.088  0.0408 -0.8407 -1.1872
  445MOL0     C58648   4.393  10.053   7.010 -0.1299 -0.1085 -0.2566
  445MOL0     C58649   4.278   9.976   7.078  0.2370 -0.3469  0.2888
  445MOL0     C58650   4.238  10.024   7.217  0.4328 -0.3590  0.0443
  445MOL0     C58651   4.114   9.962   7.263 -0.8956 -0.2592 -0.3485
  445MOL0    Cl58652   4.052  10.000   7.417 -0.0513 -0.7864  0.2001
  445MOL0     C58653   5.184  10.312   7.144  0.3175 -0.4019 -0.3549
  445MOL0     C58654   5.295  10.391   7.107 -0.5749 -0.3620 -0.2521
  445MOL0     O58655   5.435  10.503   6.721  0.6153 -0.1608  0.4369
  445MOL0     C58656   5.692  10.641   6.728  0.8406  0.6672 -0.6479
  445MOL0     C58657   5.817  10.690   6.741 -0.3728  0.7123  0.4332
  445MOL0     N58658   6.386  11.161   7.285  0.1312 -0.3103 -0.5111
  445MOL0     N58659   6.450  11.148   7.391 -0.3113 -0.0620 -0.4577
  445MOL0     C58660   7.218  10.154   7.299 -0.2932  0.9721 -0.2945
  445MOL0     C58661   7.306  10.065   7.237 -0.1741 -0.2186  0.1480
  445MOL0     C58662   7.406   9.749   6.890  1.1380 -0.1810 -0.9078
  445MOL0     C58663   7.400   9.719   6.755 -0.2842  0.1577  0.3748
  445MOL0     C58664   7.485   9.621   6.700  0.6290  0.0294  0.4375
  445MOL0     C58665   7.572   9.548   6.770 -0.1148  0.1787 -0.3409
  445MOL0     O58666   7.661   9.463   6.711  0.6579 -0.4246  0.0199
  445MOL0     C58667   7.620   9.326   6.717  0.2116  0.1971  0.9103
  445MOL0     C58668   7.696   9.245   6.616  0.2023  0.3043 -1.2519
  445MOL0     C58669   7.709   9.305   6.472  0.9546  0.5442 -0.8149
  445MOL0     C58670   7.575   9.289   6.393 -0.1054  0.7760 -0.1187
  445MOL0     C58671   7.569   9.371   6.266  0.2104  0.9389  0.5100
  445MOL0     C58672   7.554   9.488   6.107  0.2582  0.1127 -0.7206
  445MOL0     C58673   7.581   9.582   6.902  0.1835  0.8802  0.5185
  445MOL0     C58674   7.502   9.672   6.962  0.2078  0.1771  0.4218
  445MOL0     H58675   7.087   9.899   7.038  1.6063  1.7914 -2.6526
  445MOL0     H58676   6.925  10.033   7.140  0.4461 -1.9472 -0.3629
  445MOL0     H58677   7.025  10.415   7.194 -2.2003  0.3403  0.7096
  445MOL0     H58678   7.157  10.393   7.304 -0.3798 -0.7159  1.0752
  445MOL0     H58679   7.043  10.560   7.428 -3.2147  0.8238  3.0442
  445MOL0     H58680   6.979  10.420   7.502  0.6230  3.1079  0.8140
  445MOL0     H58681   6.781  10.440   7.352 -1.3834  0.6833  3.0103
  445MOL0     H58682   6.846  10.581   7.278  0.5170 -2.1778 -1.7979
  445MOL0     H58683   6.763  10.552   7.573  0.4056 -1.2335 -1.2070
  445MOL0     H58684   6.836  10.697   7.507  1.0088 -1.9282 -0.4253
  445MOL0     H58685   6.586  10.563   7.390 -0.1286 -0.5465  2.0760
  445MOL0     H58686   6.659  10.706   7.324  0.0919 -3.0197 -1.1869
  445MOL0     H58687   6.532  10.691   7.595 -0.0059 -2.4446 -1.3441
  445MOL0     H58688   6.446  10.735   7.451 -0.0775 -1.2986 -1.2227
  445MOL0     H58689   6.684  10.883   7.590 -0.0674 -0.6315 -0.5573
  445MOL0     H58690   6.655  10.921   7.431 -0.5185 -1.8316 -0.4481
  445MOL0     H58691   6.555  11.080   7.597 -0.9149  0.6358  0.5128
  445MOL0     H58692   6.434  10.957   7.645  3.3429 -0.3265  1.5583
  445MOL0     H58693   6.291  10.862   7.384 -0.7173  0.6942  0.4676
  445MOL0     H58694   6.171  11.138   7.155  0.7113  0.3422 -1.3745
  445MOL0     H58695   6.131  10.970   7.211 -0.9635  1.1159 -1.0284
  445MOL0     H58696   6.315  10.875   7.076 -0.9312 -1.2905 -0.7829
  445MOL0     H58697   6.333  11.035   7.002 -1.2956 -0.3960 -0.6512
  445MOL0     H58698   6.147  11.008   6.865 -1.6880  0.0389  1.7392
  445MOL0     H58699   6.237  10.856   6.879  1.5173  0.5227  0.2785
  445MOL0     H58700   5.973  10.931   7.017 -0.0734 -0.3894 -0.6874
  445MOL0     H58701   6.068  10.787   7.060 -0.2723  1.8929  0.3109
  445MOL0     H58702   5.797  10.809   7.055  1.1921 -2.3967  1.1650
  445MOL0     H58703   5.581  10.684   7.043  1.6000 -0.5772  1.5298
  445MOL0     H58704   5.221  10.443   6.780  0.5318 -1.6248 -1.0542
  445MOL0     H58705   5.043  10.288   6.846 -1.1182  0.4253  1.4619
  445MOL0     H58706   4.909  10.127   6.922 -4.6776  1.5096 -2.9666
  445MOL0     H58707   4.833  10.272   6.977 -0.2811 -0.5113 -1.0846
  445MOL0     H58708   4.760  10.157   7.192 -1.0581  0.6460  0.6928
  445MOL0     H58709   4.792  10.006   7.101 -4.0314 -0.8651 -3.1241
  445MOL0     H58710   4.642  10.099   6.908 -1.5107  1.7332 -0.3345
  445MOL0     H58711   4.613  10.235   7.017  0.0894  0.2676  4.1297
  445MOL0     H58712   4.554   9.947   7.101  0.2895 -0.5293  1.1926
  445MOL0     H58713   4.517  10.089   7.190  2.9843 -0.0885 -1.2091
  445MOL0     H58714   4.410  10.012   6.910 -1.0767  3.8878 -2.2449
  445MOL0     H58715   4.365  10.158   7.005  0.1093  0.0446  1.1587
  445MOL0     H58716   4.298   9.868   7.079 -1.4575 -0.8000 -2.8901
  445MOL0     H58717   4.188   9.993   7.019  0.8857  2.3162 -0.0285
  445MOL0     H58718   4.318   9.999   7.287 -0.9477 -0.0730  1.7776
  445MOL0     H58719   4.218  10.131   7.222 -0.6443 -0.5424 -0.0270
  445MOL0     H58720   4.133   9.854   7.264 -1.0320 -0.4331 -4.0680
  445MOL0     H58721   4.025   9.966   7.199 -1.3313 -1.8402  0.0902
  445MOL0     H58722   5.183  10.265   7.242 -2.5731  1.7992  0.8103
  445MOL0     H58723   5.375  10.403   7.180 -0.4824  1.3616 -0.6120
  445MOL0     H58724   5.658  10.582   6.643 -1.4755 -2.1129  1.9715
  445MOL0     H58725   5.878  10.689   6.651 -3.5373 -2.4962 -2.0095
  445MOL0     H58726   7.264  10.221   7.370  1.8314 -0.5225 -0.1900
  445MOL0     H58727   7.411  10.080   7.260 -0.1805  1.4026 -0.7594
  445MOL0     H58728   7.346   9.782   6.686 -1.8186 -0.7115  0.7412
  445MOL0     H58729   7.474   9.596   6.595  2.0549  0.4681  0.1511
  445MOL0     H58730   7.514   9.321   6.691  0.8653 -1.1974 -1.8837
  445MOL0     H58731   7.629   9.292   6.821 -0.6678  2.6685  1.8837
  445MOL0     H58732   7.795   9.222   6.658 -0.3465  0.6480  0.2778
  445MOL0     H58733   7.650   9.147   6.602  0.5111 -0.5224  2.5388
  445MOL0     H58734   7.789   9.253   6.418  2.7550  2.4975 -0.1303
  445MOL0     H58735   7.743   9.408   6.474  1.0023  0.5499  2.6111
  445MOL0     H58736   7.569   9.185   6.361 -1.5673  1.2389 -1.4906
  445MOL0     H58737   7.486   9.306   6.454  0.1614  1.3810  0.1101
  445MOL0     H58738   7.566   9.548   6.019  1.0065  0.5722 -0.3183
  445MOL0     H58739   7.644   9.513   6.959 -1.8416 -0.9686  0.6261
  445MOL0     H58740   7.506   9.689   7.069  4.5177 -1.2729  0.7193
  446MOL0     O58741   5.404   0.061   4.525 -0.4979 -0.2687 -0.0293
  446MOL0     C58742   5.326   0.103   4.606  0.4012  0.2740 -0.7206
  446MOL0     O58743   5.361   0.156   4.720 -0.7121 -0.5690  0.1257
  446MOL0     C58744   5.485   0.151   4.761 -0.0954 -0.1063  0.2170
  446MOL0     C58745   5.552   0.274   4.797  0.0617 -0.1779 -0.4152
  446MOL0     C58746   5.681   0.270   4.848 -0.8313  0.4658  0.2771
  446MOL0     C58747   5.749   0.150   4.870 -0.0110 -0.1376  0.1275
  446MOL0     O58748   5.874   0.143   4.928  0.2164  0.2650  0.0598
  446MOL0     C58749   5.963   0.255   4.907  0.4979 -0.8105  1.0767
  446MOL0     C58750   6.106   0.222   4.927 -0.5311 -0.8106 -0.1055
  446MOL0     C58751   6.153   0.085   4.870 -0.5786 -0.4301 -0.5164
  446MOL0     C58752   6.118   0.067   4.721  0.7518  0.7484  0.1981
  446MOL0     C58753   6.105  -0.089   4.697 -0.0899 -0.1657  0.1829
  446MOL0     C58754   6.149  -0.141   4.557  1.0249  0.6885  0.4015
  446MOL0     C58755   6.082  -0.275   4.538 -0.2948  0.1122  0.5928
  446MOL0     C58756   6.132  -0.342   4.408  0.0694 -0.0178  0.8452
  446MOL0     N58757   6.083  -0.473   4.399  0.9314 -0.0787 -0.5021
  446MOL0     C58758   5.952  -0.507   4.400 -0.2699  0.1791  1.3771
  446MOL0     C58759   5.946  -0.639   4.371  0.4970  0.7588 -0.2773
  446MOL0     C58760   5.830  -0.730   4.374  0.0884  0.0191 -0.3658
  446MOL0     C58761   5.758  -0.746   4.236 -0.4842 -0.3671 -0.8539
  446MOL0     C58762   5.843  -0.837   4.147  0.2820  0.0135  0.0167
  446MOL0     C58763   5.764  -0.863   4.015 -0.5086  0.5364 -0.3325
  446MOL0     O58764   5.718  -0.740   3.958  0.5158  0.6657 -0.0451
  446MOL0     C58765   5.614  -0.752   3.869 -0.3078 -0.2790  0.0677
  446MOL0     C58766   5.511  -0.662   3.876  0.4879  0.6760  0.2929
  446MOL0     C58767   5.383  -0.684   3.824 -0.7564 -0.0654  0.6542
  446MOL0     C58768   5.360  -0.789   3.736  0.5678 -0.1614  0.6770
  446MOL0     C58769   5.231  -0.811   3.670 -0.9579  1.4799 -0.2187
  446MOL0     O58770   5.128  -0.730   3.709 -0.8415  0.3072  0.5166
  446MOL0     C58771   4.997  -0.762   3.678  0.3432 -0.0138  0.3284
  446MOL0     C58772   4.930  -0.841   3.771 -0.5043 -0.3998 -0.6468
  446MOL0     C58773   4.794  -0.870   3.752 -0.4314  0.2105  0.3791
  446MOL0     C58774   4.716  -0.799   3.657 -0.0196  0.0015  0.4113
  446MOL0     O58775   4.582  -0.824   3.641  0.0932 -0.0485  0.1312
  446MOL0     C58776   4.517  -0.729   3.729 -0.2863  0.0365  0.2336
  446MOL0     C58777   4.374  -0.745   3.711  0.9398 -0.8186 -0.4376
  446MOL0     C58778   4.319  -0.883   3.762  0.1645  0.8579  0.0192
  446MOL0     C58779   4.164  -0.885   3.751 -0.3482  0.6788  0.1433
  446MOL0     C58780   4.092  -0.816   3.864 -0.6296  0.1573 -0.3110
  446MOL0     C58781   3.944  -0.785   3.835 -0.2974  0.0277  0.1662
  446MOL0     C58782   3.860  -0.903   3.883 -0.5007  0.1586  0.0886
  446MOL0     C58783   3.712  -0.880   3.854  0.2119  0.9547 -0.5117
  446MOL0    Cl58784   3.612  -0.987   3.957 -0.3977  0.1010  0.4119
  446MOL0     C58785   4.786  -0.703   3.572 -0.3276  0.4426  0.1055
  446MOL0     C58786   4.926  -0.693   3.581  0.0435  0.3692  0.4290
  446MOL0     O58787   5.222  -0.910   3.594  0.4073  0.0686 -0.5471
  446MOL0     C58788   5.467  -0.875   3.713 -0.1039 -0.4584  0.1650
  446MOL0     C58789   5.600  -0.858   3.778  0.9881 -0.1552  0.8097
  446MOL0     N58790   6.079  -0.683   4.364  0.2085  0.1614 -0.4629
  446MOL0     N58791   6.163  -0.579   4.382  0.1659 -0.8019  0.5354
  446MOL0     C58792   5.682   0.028   4.837 -0.5144  0.5507  0.1539
  446MOL0     C58793   5.555   0.031   4.791 -0.7814  0.0491  0.5885
  446MOL0     C58794   5.180   0.089   4.582 -0.1323  0.0952  0.4855
  446MOL0     C58795   5.073   0.126   4.661 -0.2701 -0.3280 -0.3422
  446MOL0     C58796   4.943   0.092   4.632  0.5308 -0.1760  0.4094
  446MOL0     C58797   4.910   0.007   4.522  0.4952 -0.2899 -0.1584
  446MOL0     O58798   4.794  -0.064   4.514 -0.1736 -0.1643  0.4717
  446MOL0     C58799   4.692   0.022   4.457 -0.0942 -0.0869 -0.2212
  446MOL0     C58800   4.556  -0.054   4.442  0.2077  0.2586  0.3079
  446MOL0     C58801   4.427   0.032   4.412 -0.1936 -0.0431 -0.2153
  446MOL0     C58802   4.327   0.034   4.529  0.0143 -0.4486  0.0899
  446MOL0     C58803   4.271  -0.095   4.567 -0.0974  0.0992  0.4919
  446MOL0     C58804   4.224  -0.203   4.605  0.1191 -0.2063  0.4189
  446MOL0     C58805   5.012  -0.029   4.437 -0.0158  0.5431  0.1959
  446MOL0     C58806   5.145   0.020   4.462 -0.6219  0.3541 -0.4410
  446MOL0     H58807   5.505   0.370   4.784 -0.2391  0.5312  4.1907
  446MOL0     H58808   5.723   0.368   4.869  2.9280 -1.2612  1.8181
  446MOL0     H58809   5.941   0.329   4.984 -1.0186 -0.8064  0.6718
  446MOL0     H58810   5.952   0.293   4.805  1.3250 -2.6257  0.2569
  446MOL0     H58811   6.119   0.222   5.036 -0.0108 -0.7046 -0.1670
  446MOL0     H58812   6.165   0.302   4.881 -1.9435 -0.2545 -1.0310
  446MOL0     H58813   6.120   0.004   4.934  0.0902 -1.0737 -0.9667
  446MOL0     H58814   6.261   0.085   4.887 -0.9008 -0.1820  1.7670
  446MOL0     H58815   6.025   0.114   4.688  0.6916  2.1105  2.1299
  446MOL0     H58816   6.190   0.120   4.657  0.3589  0.7060 -0.2903
  446MOL0     H58817   6.002  -0.119   4.715 -0.4740 -0.1449 -1.7894
  446MOL0     H58818   6.171  -0.139   4.769 -1.8076 -0.5986  1.5240
  446MOL0     H58819   6.258  -0.150   4.557  0.9097 -2.3651  2.2950
  446MOL0     H58820   6.110  -0.072   4.482 -0.8848 -0.9032 -0.1606
  446MOL0     H58821   6.106  -0.336   4.625 -0.0769 -1.1259 -0.3035
  446MOL0     H58822   5.975  -0.256   4.534 -0.1457  1.2180  1.3661
  446MOL0     H58823   6.240  -0.326   4.405 -0.2274  2.1440 -0.9320
  446MOL0     H58824   6.102  -0.285   4.319 -0.6675 -0.2015  0.9655
  446MOL0     H58825   5.875  -0.433   4.419  0.7689  1.1877  1.8509
  446MOL0     H58826   5.761  -0.702   4.455  0.9841 -2.2154  1.2791
  446MOL0     H58827   5.869  -0.825   4.411  0.5868  0.0619 -0.7875
  446MOL0     H58828   5.739  -0.651   4.186  1.3183 -0.8800 -2.6995
  446MOL0     H58829   5.665  -0.801   4.249 -0.4821 -0.5057 -1.3767
  446MOL0     H58830   5.934  -0.786   4.114 -0.8713  1.4186 -1.1821
  446MOL0     H58831   5.868  -0.925   4.207 -1.4366 -0.2848  0.3586
  446MOL0     H58832   5.685  -0.938   4.027  2.2991 -2.7611 -0.8823
  446MOL0     H58833   5.833  -0.919   3.952  0.3411 -1.1012  1.9280
  446MOL0     H58834   5.519  -0.573   3.938  0.8576  0.1128  1.0770
  446MOL0     H58835   5.304  -0.612   3.838 -0.6947  0.2956 -0.6953
  446MOL0     H58836   4.989  -0.877   3.854 -0.5610 -0.9441 -0.8396
  446MOL0     H58837   4.747  -0.940   3.820 -2.2402 -0.0336 -1.0597
  446MOL0     H58838   4.548  -0.624   3.715  3.0120 -0.9034 -0.4436
  446MOL0     H58839   4.545  -0.749   3.832  1.0263 -0.2699 -0.1590
  446MOL0     H58840   4.360  -0.737   3.603  1.5419 -0.7281 -0.5107
  446MOL0     H58841   4.313  -0.667   3.756  1.4582 -1.3042  1.1713
  446MOL0     H58842   4.364  -0.905   3.859  1.0375  0.7027 -0.4082
  446MOL0     H58843   4.355  -0.958   3.692 -0.0159  0.6940  0.1006
  446MOL0     H58844   4.144  -0.829   3.659  0.0799  0.1681 -0.2628
  446MOL0     H58845   4.132  -0.989   3.744  2.2102 -0.0731 -1.7165
  446MOL0     H58846   4.133  -0.718   3.887  0.2700 -0.6240  1.6594
  446MOL0     H58847   4.104  -0.867   3.961 -3.9939  2.8445  1.7638
  446MOL0     H58848   3.930  -0.779   3.726  1.1184 -0.1064 -0.0486
  446MOL0     H58849   3.904  -0.700   3.890 -1.8522 -0.4675 -0.1612
  446MOL0     H58850   3.893  -1.002   3.850 -1.9326 -0.5632  0.7214
  446MOL0     H58851   3.859  -0.913   3.992 -0.1817  0.1452  0.0931
  446MOL0     H58852   3.701  -0.902   3.747  0.3165 -2.5839  0.0604
  446MOL0     H58853   3.685  -0.780   3.888  1.0790  0.7577  0.8717
  446MOL0     H58854   4.728  -0.651   3.497  0.4567  2.0325  0.5695
  446MOL0     H58855   4.980  -0.629   3.512  1.0948 -1.0429 -0.1139
  446MOL0     H58856   5.446  -0.956   3.644 -0.9940 -0.1869  0.0967
  446MOL0     H58857   5.684  -0.923   3.752  2.3328  1.5718  0.6579
  446MOL0     H58858   5.734  -0.067   4.842  0.1829  0.8923 -0.3106
  446MOL0     H58859   5.527  -0.071   4.767  0.5538 -0.2070  0.0455
  446MOL0     H58860   5.095   0.173   4.756  0.9818 -0.8501 -0.3476
  446MOL0     H58861   4.866   0.142   4.690  0.7513 -1.0743  1.5100
  446MOL0     H58862   4.732   0.065   4.365  0.0403  1.2618  0.4459
  446MOL0     H58863   4.665   0.097   4.531  1.2818 -2.0915  2.4751
  446MOL0     H58864   4.578  -0.128   4.365 -0.2889  0.8893 -0.4496
  446MOL0     H58865   4.557  -0.116   4.532  1.6556 -2.4898 -1.4679
  446MOL0     H58866   4.380  -0.019   4.328 -1.6755 -2.1334  1.7630
  446MOL0     H58867   4.454   0.131   4.372 -2.3355  1.0304  0.8413
  446MOL0     H58868   4.371   0.092   4.610 -0.8821  2.0779 -1.0976
  446MOL0     H58869   4.251   0.106   4.499  0.7987  0.1381 -0.5498
  446MOL0     H58870   4.186  -0.294   4.646  0.2462 -0.6858 -0.5210
  446MOL0     H58871   4.985  -0.085   4.348 -0.7978  0.6633  0.3513
  446MOL0     H58872   5.227  -0.004   4.396 -0.0814  1.8457 -0.3617
  447MOL0     O58873   8.417   2.278   6.882  0.1277  0.3468 -0.9340
  447MOL0     C58874   8.480   2.191   6.941 -0.7022  0.1360  0.2046
  447MOL0     O58875   8.422   2.099   7.024  0.3760 -0.1441  0.8011
  447MOL0     C58876   8.283   2.096   7.048 -0.2319 -1.1797  0.5059
  447MOL0     C58877   8.238   1.979   7.103  0.3178 -0.4405  0.1790
  447MOL0     C58878   8.097   1.953   7.130  0.5661  0.8885 -0.9992
  447MOL0     C58879   7.999   2.057   7.115 -0.4853 -0.0892 -0.0268
  447MOL0     O58880   7.868   2.017   7.150 -0.0326 -1.2009  0.3828
  447MOL0     C58881   7.762   2.109   7.131 -0.0954  0.1304 -0.6796
  447MOL0     C58882   7.635   2.032   7.154  0.0290  0.3617 -0.2671
  447MOL0     C58883   7.507   2.107   7.128 -0.2734 -0.1721 -0.0839
  447MOL0     C58884   7.391   2.033   7.195 -0.4033  0.8021  0.5108
  447MOL0     C58885   7.258   2.102   7.182  0.2227  0.0965 -0.1196
  447MOL0     C58886   7.146   2.026   7.266  0.8482  0.4479  0.3967
  447MOL0     C58887   7.054   2.111   7.360  0.0101  0.3383 -0.3355
  447MOL0     C58888   6.961   2.026   7.430  1.2753  0.6690  0.1590
  447MOL0     N58889   6.867   1.956   7.349 -0.7025  0.2112 -0.5721
  447MOL0     C58890   6.735   1.977   7.333  0.0672 -0.2815 -0.4555
  447MOL0     C58891   6.695   1.901   7.230 -0.2439 -0.2885  0.1025
  447MOL0     C58892   6.570   1.907   7.153 -0.5906  0.0360 -0.0929
  447MOL0     C58893   6.588   1.970   7.010 -0.0447  0.2266 -1.0228
  447MOL0     C58894   6.452   2.010   6.969 -0.0002 -0.3160  0.2254
  447MOL0     C58895   6.460   2.064   6.827  0.4998  0.5991  0.0142
  447MOL0     O58896   6.357   2.150   6.788 -0.1750 -0.1282  0.0290
  447MOL0     C58897   6.232   2.102   6.820  0.0285 -0.4200 -0.4972
  447MOL0     C58898   6.188   1.983   6.758 -0.2513  0.1124 -0.3900
  447MOL0     C58899   6.065   1.923   6.799 -0.0215 -0.6405 -0.5062
  447MOL0     C58900   5.976   1.994   6.891  0.3611 -0.1218  0.3262
  447MOL0     C58901   5.836   1.947   6.925  0.4019  0.3167  0.6174
  447MOL0     O58902   5.802   1.822   6.876  0.1729 -0.3956 -0.1519
  447MOL0     C58903   5.676   1.773   6.885  0.1495 -0.2237  0.6795
  447MOL0     C58904   5.657   1.638   6.920 -1.3059  0.1138  0.1353
  447MOL0     C58905   5.539   1.577   6.949 -0.2079 -0.3430  0.1294
  447MOL0     C58906   5.420   1.644   6.938  0.9028  0.3701 -1.0416
  447MOL0     O58907   5.296   1.573   6.967  0.7800  0.7289  1.0475
  447MOL0     C58908   5.200   1.636   7.064  0.2940 -0.4239 -0.1582
  447MOL0     C58909   5.062   1.580   7.062  0.4664  0.5001  0.5130
  447MOL0     C58910   5.006   1.634   6.930  0.0660 -0.4078  0.2113
  447MOL0     C58911   4.856   1.603   6.911  1.0565  0.0166 -0.2144
  447MOL0     C58912   4.807   1.652   6.774 -0.1422 -0.2963 -0.1009
  447MOL0     C58913   4.667   1.597   6.747 -0.4203 -0.2194  0.1073
  447MOL0     C58914   4.607   1.640   6.607 -1.0172  0.8503  0.1529
  447MOL0     C58915   4.466   1.594   6.578  0.1065  0.0347 -0.3282
  447MOL0    Cl58916   4.474   1.414   6.549  0.0506 -0.5970 -0.1204
  447MOL0     C58917   5.426   1.782   6.897  0.1622 -0.1512  0.4855
  447MOL0     C58918   5.556   1.844   6.860  0.4704  0.6483  0.3532
  447MOL0     O58919   5.768   2.016   6.998  0.1078 -0.1234 -0.3698
  447MOL0     C58920   6.027   2.115   6.941  0.3908  0.4847  0.4244
  447MOL0     C58921   6.153   2.162   6.913  0.2294 -0.8483 -0.8304
  447MOL0     N58922   6.799   1.816   7.202  0.4743 -0.5043  0.2194
  447MOL0     N58923   6.899   1.849   7.266  0.0468  0.0813  0.9004
  447MOL0     C58924   8.047   2.182   7.080  0.2161  0.1316  0.5992
  447MOL0     C58925   8.183   2.205   7.035 -0.7343  0.3233  0.3013
  447MOL0     C58926   8.626   2.170   6.901  0.2577 -0.0126 -0.2659
  447MOL0     C58927   8.684   2.246   6.804  0.3977 -0.7042 -0.2570
  447MOL0     C58928   8.816   2.215   6.758 -0.1994  0.0708  0.3604
  447MOL0     C58929   8.896   2.120   6.823 -0.0096  0.7286  0.1290
  447MOL0     O58930   9.032   2.108   6.789 -0.6003  0.8191  0.4229
  447MOL0     C58931   9.124   2.066   6.892 -0.5173 -0.4257 -0.0088
  447MOL0     C58932   9.121   2.149   7.023 -0.0494 -0.1485 -0.5280
  447MOL0     C58933   9.198   2.079   7.127  0.2015  0.2207 -0.3046
  447MOL0     C58934   9.353   2.078   7.109 -0.5449 -0.3246 -0.1949
  447MOL0     C58935   9.423   2.037   7.233 -0.4711 -0.3620  1.7818
  447MOL0     C58936   9.481   1.993   7.331  0.3522  0.4558 -0.8196
  447MOL0     C58937   8.836   2.050   6.931 -0.3384  0.2830  1.0960
  447MOL0     C58938   8.703   2.071   6.963 -0.4424  0.0008  0.0830
  447MOL0     H58939   8.308   1.902   7.133  1.1147  0.9327  2.0721
  447MOL0     H58940   8.050   1.858   7.156 -2.6538  2.2041 -1.5759
  447MOL0     H58941   7.767   2.140   7.026  0.4057  1.5752 -0.2620
  447MOL0     H58942   7.760   2.198   7.195 -0.0446 -0.7647  0.6102
  447MOL0     H58943   7.635   2.017   7.262 -0.9002 -0.2747 -0.3473
  447MOL0     H58944   7.629   1.938   7.099 -2.9581 -0.3180  1.0573
  447MOL0     H58945   7.483   2.131   7.024  1.9235  2.1126 -0.1644
  447MOL0     H58946   7.518   2.207   7.169  4.0218 -0.7600  0.6060
  447MOL0     H58947   7.392   1.936   7.146 -0.4049  1.4228 -0.7434
  447MOL0     H58948   7.403   2.015   7.303 -2.2678 -0.3802  0.5654
  447MOL0     H58949   7.227   2.109   7.077 -0.5105  1.0925  0.1528
  447MOL0     H58950   7.272   2.201   7.225  3.6958 -0.8697  1.2462
  447MOL0     H58951   7.197   1.956   7.332  1.7196  1.5334  0.9160
  447MOL0     H58952   7.083   1.976   7.193  0.5277 -1.8228  2.1244
  447MOL0     H58953   7.110   2.166   7.435  0.1783 -2.8384  2.1035
  447MOL0     H58954   6.994   2.181   7.301  0.3980  0.4815 -0.5571
  447MOL0     H58955   6.897   2.087   7.494 -1.3988 -2.7086  0.9923
  447MOL0     H58956   7.018   1.950   7.485  0.6861  1.7137  2.3208
  447MOL0     H58957   6.678   2.053   7.385  0.4495  0.3134 -0.8940
  447MOL0     H58958   6.497   1.960   7.216  1.6490  0.9532  1.8778
  447MOL0     H58959   6.540   1.804   7.133  1.1197 -0.2825 -1.2737
  447MOL0     H58960   6.620   1.891   6.942 -2.9115  0.3596 -2.6791
  447MOL0     H58961   6.653   2.058   7.015  1.9312 -1.1414 -1.4611
  447MOL0     H58962   6.384   1.925   6.977 -0.9654  0.4603  0.4049
  447MOL0     H58963   6.409   2.085   7.035 -2.0514 -0.6517 -0.6603
  447MOL0     H58964   6.461   1.976   6.763 -0.6947  0.1921  0.5298
  447MOL0     H58965   6.555   2.116   6.814 -0.2466  2.0788  0.1876
  447MOL0     H58966   6.255   1.938   6.686 -0.0758 -1.4934  0.7282
  447MOL0     H58967   6.040   1.825   6.760  1.4068 -1.0948 -0.3056
  447MOL0     H58968   5.751   1.583   6.926 -0.5718  1.3648  0.6013
  447MOL0     H58969   5.528   1.474   6.982 -1.4348 -0.2274  0.1384
  447MOL0     H58970   5.204   1.743   7.042 -1.2493 -0.7397 -2.4095
  447MOL0     H58971   5.247   1.608   7.158  1.6878 -1.6977 -1.1972
  447MOL0     H58972   5.003   1.619   7.146 -0.3635 -0.1715  0.2558
  447MOL0     H58973   5.064   1.471   7.065  0.9202  0.4203 -1.3716
  447MOL0     H58974   5.071   1.604   6.847 -0.0693 -0.0065 -0.0425
  447MOL0     H58975   5.012   1.743   6.927  1.1477 -0.4723 -0.7622
  447MOL0     H58976   4.836   1.496   6.915 -1.0261 -0.0982 -5.4368
  447MOL0     H58977   4.805   1.655   6.993 -1.3473 -1.7106 -0.5185
  447MOL0     H58978   4.867   1.612   6.692 -1.0143 -0.7006 -0.5523
  447MOL0     H58979   4.804   1.761   6.761 -0.8334 -0.3363 -0.3189
  447MOL0     H58980   4.600   1.621   6.830 -1.0558  0.2725 -0.5334
  447MOL0     H58981   4.667   1.487   6.750 -1.4944 -0.2041  1.7602
  447MOL0     H58982   4.600   1.749   6.613 -0.2057  0.8749  0.8586
  447MOL0     H58983   4.675   1.603   6.529 -0.2804 -0.7682  1.4840
  447MOL0     H58984   4.421   1.657   6.501 -1.5316  2.3762  2.3180
  447MOL0     H58985   4.401   1.611   6.665 -0.3988  0.0145 -0.6945
  447MOL0     H58986   5.335   1.841   6.891 -1.1236 -2.1703 -1.1223
  447MOL0     H58987   5.561   1.947   6.828 -0.4662  2.1773  4.5924
  447MOL0     H58988   5.985   2.177   7.019 -1.4740  0.4539 -0.5014
  447MOL0     H58989   6.176   2.255   6.964 -2.6389 -1.2084  1.3492
  447MOL0     H58990   7.977   2.265   7.073  0.5025  0.3098 -0.2311
  447MOL0     H58991   8.211   2.305   7.004  1.6224 -0.2906  0.2046
  447MOL0     H58992   8.625   2.325   6.759  0.7518  0.3209  1.0253
  447MOL0     H58993   8.865   2.276   6.683 -1.3766  1.9779  1.0650
  447MOL0     H58994   9.225   2.063   6.849  0.3331 -1.6764  1.9389
  447MOL0     H58995   9.086   1.965   6.914  3.7841 -2.1358  0.5446
  447MOL0     H58996   9.165   2.248   7.012 -1.1205  0.7958  2.6299
  447MOL0     H58997   9.021   2.167   7.064  0.7524  0.3087  1.3687
  447MOL0     H58998   9.160   1.976   7.129  1.0077 -0.0767  1.6876
  447MOL0     H58999   9.187   2.122   7.227  0.8164  1.5560 -0.7971
  447MOL0     H59000   9.378   2.007   7.030  1.4796 -1.4099  1.3385
  447MOL0     H59001   9.387   2.179   7.081 -2.3354 -0.1810 -2.0603
  447MOL0     H59002   9.531   1.959   7.419  1.3825  2.4732 -0.5563
  447MOL0     H59003   8.884   1.969   6.985  0.0806 -0.2100  0.0020
  447MOL0     H59004   8.663   2.009   7.042 -1.9666 -1.0116 -1.3896
  448MOL0     O59005   5.667  10.722   8.551 -0.1146 -0.8028 -1.2804
  448MOL0     C59006   5.750  10.740   8.467  0.0390 -0.7613 -0.1639
  448MOL0     O59007   5.740  10.710   8.333 -0.3971  0.5095  0.3791
  448MOL0     C59008   5.617  10.693   8.276 -0.5026  0.5100  0.0913
  448MOL0     C59009   5.495  10.767   8.312 -0.4753 -0.0385  0.6373
  448MOL0     C59010   5.380  10.760   8.234 -1.1260 -0.2752  0.1949
  448MOL0     C59011   5.376  10.678   8.126  0.2443 -0.5680  0.2792
  448MOL0     O59012   5.262  10.654   8.061  0.7184  0.0804 -0.0257
  448MOL0     C59013   5.170  10.763   8.032 -1.5082 -0.2847  0.3272
  448MOL0     C59014   5.068  10.759   8.144 -0.5321  0.1841 -1.3110
  448MOL0     C59015   4.982  10.883   8.138 -0.3711 -0.0375 -0.1180
  448MOL0     C59016   4.862  10.887   8.232  1.0685 -0.6494  0.1605
  448MOL0     C59017   4.788  11.028   8.249  0.6023  0.4777 -1.6644
  448MOL0     C59018   4.883  11.138   8.315  0.5683 -0.1234  0.2496
  448MOL0     C59019   4.803  11.261   8.355 -0.5701  0.0313  1.0214
  448MOL0     C59020   4.759  11.350   8.232  0.1362 -0.1752 -0.8625
  448MOL0     N59021   4.725  11.493   8.276 -0.3503 -0.0121  0.5232
  448MOL0     C59022   4.598  11.528   8.322  0.8726 -0.5308 -0.3981
  448MOL0     C59023   4.605  11.664   8.348 -1.0926  0.2180 -0.5197
  448MOL0     C59024   4.497  11.753   8.388  1.0590 -0.5250 -0.1245
  448MOL0     C59025   4.361  11.675   8.357 -0.9824 -0.6932  0.6628
  448MOL0     C59026   4.250  11.777   8.357 -0.2071 -0.8291  0.3565
  448MOL0     C59027   4.119  11.724   8.314 -0.2770  0.5907 -0.5269
  448MOL0     O59028   4.102  11.587   8.363  0.1541 -0.1574  0.7326
  448MOL0     C59029   3.985  11.522   8.326  0.0432 -0.5040 -0.6622
  448MOL0     C59030   3.966  11.408   8.385 -0.6003 -0.4428 -1.0742
  448MOL0     C59031   3.843  11.335   8.366  0.3700  0.0088 -0.0399
  448MOL0     C59032   3.737  11.393   8.295  0.0516 -0.0493 -0.0915
  448MOL0     C59033   3.604  11.329   8.284  0.3137 -0.2840 -0.9932
  448MOL0     O59034   3.508  11.374   8.196  0.0167  0.9938  0.3638
  448MOL0     C59035   3.387  11.311   8.193  0.9050 -0.0991 -0.9252
  448MOL0     C59036   3.308  11.374   8.093 -0.0167 -0.1807  0.1097
  448MOL0     C59037   3.176  11.328   8.078 -0.2237  0.0487  0.7343
  448MOL0     C59038   3.115  11.229   8.156 -0.4189 -0.9068 -0.4833
  448MOL0     O59039   2.981  11.197   8.144  0.1908 -0.2874  0.7556
  448MOL0     C59040   2.921  11.195   8.012  0.0484 -0.0188  0.0425
  448MOL0     C59041   2.780  11.149   8.022 -0.3050  1.1407 -0.6581
  448MOL0     C59042   2.704  11.164   7.890 -0.2704 -0.0334  0.8201
  448MOL0     C59043   2.562  11.095   7.881  0.1128 -0.2073  0.0479
  448MOL0     C59044   2.492  11.155   7.769  0.8471 -0.6769  0.3651
  448MOL0     C59045   2.364  11.090   7.726  0.9910  0.3290 -0.0466
  448MOL0     C59046   2.294  11.178   7.621 -0.7839  0.9925  0.5527
  448MOL0     C59047   2.150  11.145   7.599  0.0626 -0.6573 -1.2771
  448MOL0    Cl59048   2.093  11.215   7.442 -0.0582 -0.0693 -0.2118
  448MOL0     C59049   3.190  11.167   8.255  0.5062 -0.9362  0.1478
  448MOL0     C59050   3.325  11.199   8.272  0.3275 -0.2235 -0.5009
  448MOL0     O59051   3.592  11.234   8.361 -0.0915 -0.1259  0.2303
  448MOL0     C59052   3.757  11.514   8.231 -0.2272 -1.6710  0.2022
  448MOL0     C59053   3.882  11.576   8.248 -0.1364  0.1889 -0.4801
  448MOL0     N59054   4.738  11.701   8.327 -0.2285  0.7883 -0.1207
  448MOL0     N59055   4.814  11.603   8.283  0.2036 -0.5090 -0.2700
  448MOL0     C59056   5.481  10.602   8.099  0.3136  0.5828 -0.1125
  448MOL0     C59057   5.604  10.613   8.168  0.1739 -0.1926  0.2355
  448MOL0     C59058   5.878  10.787   8.527  0.4646  0.1899  0.0522
  448MOL0     C59059   5.894  10.827   8.666  0.9494  0.8685  0.5308
  448MOL0     C59060   6.017  10.855   8.732  0.1453  0.8250 -0.2463
  448MOL0     C59061   6.131  10.830   8.658 -0.0776 -0.3238 -0.2759
  448MOL0     O59062   6.252  10.834   8.721  0.2413 -0.1596 -0.5509
  448MOL0     C59063   6.366  10.864   8.642 -0.0938  0.4042  0.4912
  448MOL0     C59064   6.360  11.018   8.586 -0.7742  0.3248  0.2129
  448MOL0     C59065   6.498  11.069   8.539 -0.4421  0.4807  0.8379
  448MOL0     C59066   6.497  11.211   8.491 -0.1390 -0.0825  0.1645
  448MOL0     C59067   6.472  11.300   8.607 -0.3196  0.2711  0.2032
  448MOL0     C59068   6.461  11.356   8.718  0.2165  0.5994 -0.2360
  448MOL0     C59069   6.122  10.798   8.521  0.9082 -1.2171  0.4481
  448MOL0     C59070   5.995  10.774   8.457 -0.5203 -0.2362  0.3810
  448MOL0     H59071   5.502  10.836   8.396 -1.3558  0.6374  0.1834
  448MOL0     H59072   5.294  10.820   8.263 -2.2544 -1.5636 -0.3420
  448MOL0     H59073   5.107  10.748   7.944 -2.8113  0.8802  1.0142
  448MOL0     H59074   5.222  10.860   8.030  0.9701 -1.5249  0.4511
  448MOL0     H59075   5.108  10.736   8.243 -2.0068  1.8473 -0.2935
  448MOL0     H59076   5.005  10.672   8.124  2.2071 -1.4807 -3.5086
  448MOL0     H59077   4.935  10.875   8.040  0.0252 -5.6366 -0.1795
  448MOL0     H59078   5.044  10.972   8.155 -2.7836  1.9200 -1.0230
  448MOL0     H59079   4.778  10.823   8.204  0.3813  0.5130 -0.5248
  448MOL0     H59080   4.887  10.858   8.334  1.1187 -1.6585 -0.1266
  448MOL0     H59081   4.712  11.015   8.326  1.6442  0.7385 -0.5569
  448MOL0     H59082   4.739  11.062   8.157  1.0610  0.0138 -2.0851
  448MOL0     H59083   4.958  11.171   8.242  0.3103  2.3274  1.0297
  448MOL0     H59084   4.931  11.094   8.403  0.1433 -0.1806  0.4538
  448MOL0     H59085   4.717  11.236   8.419  2.0752 -2.2903  3.9975
  448MOL0     H59086   4.851  11.332   8.423 -1.0605  2.0100 -0.6031
  448MOL0     H59087   4.669  11.305   8.189 -1.1260  2.5508 -1.2919
  448MOL0     H59088   4.840  11.362   8.160  2.2360  1.2882  1.5676
  448MOL0     H59089   4.508  11.468   8.331  0.4823  0.3158  2.0146
  448MOL0     H59090   4.504  11.848   8.335 -2.7845 -0.3377 -0.5931
  448MOL0     H59091   4.500  11.769   8.496  2.7131  0.5204 -0.2872
  448MOL0     H59092   4.340  11.598   8.431 -1.7726 -0.5327  0.6198
  448MOL0     H59093   4.368  11.630   8.257  0.3300 -0.1154  0.4747
  448MOL0     H59094   4.235  11.804   8.462  0.5544 -2.1217  0.8212
  448MOL0     H59095   4.277  11.865   8.299  2.4634 -1.6758  0.1693
  448MOL0     H59096   4.116  11.713   8.205  1.1568  0.4306 -0.5592
  448MOL0     H59097   4.039  11.792   8.346  0.5548  0.1124  2.8607
  448MOL0     H59098   4.048  11.369   8.445  0.0430  3.4963  0.9608
  448MOL0     H59099   3.840  11.236   8.409  4.8225 -0.1845  0.1895
  448MOL0     H59100   3.354  11.451   8.032  1.3367  0.8177  2.2695
  448MOL0     H59101   3.122  11.373   7.995  2.6769  0.1577 -1.2373
  448MOL0     H59102   2.969  11.125   7.942  1.8370  1.0332  0.1479
  448MOL0     H59103   2.914  11.300   7.982  3.5255  0.0927 -0.7908
  448MOL0     H59104   2.729  11.195   8.107  0.2129 -0.3763  0.5394
  448MOL0     H59105   2.773  11.044   8.051 -0.3361  1.6497  1.3247
  448MOL0     H59106   2.771  11.122   7.815  1.9143  1.2893  1.9024
  448MOL0     H59107   2.701  11.273   7.876 -0.7135 -0.3911 -2.9306
  448MOL0     H59108   2.563  10.986   7.872 -1.5320 -0.2009 -0.5599
  448MOL0     H59109   2.523  11.135   7.975  1.8435  3.0729 -0.5006
  448MOL0     H59110   2.565  11.152   7.688  1.1633 -0.2006  0.6301
  448MOL0     H59111   2.471  11.259   7.794 -0.5036 -0.9977  0.6930
  448MOL0     H59112   2.291  11.078   7.806  1.5893 -1.3350  0.3045
  448MOL0     H59113   2.386  10.997   7.673  0.8591  1.0906 -1.4834
  448MOL0     H59114   2.303  11.282   7.653 -0.3063  1.3237 -0.5714
  448MOL0     H59115   2.348  11.160   7.527 -2.6079  1.6425 -0.6673
  448MOL0     H59116   2.093  11.203   7.672  1.9936  0.4685 -0.6055
  448MOL0     H59117   2.134  11.038   7.615  0.4564 -0.5827 -0.3628
  448MOL0     H59118   3.145  11.089   8.315 -4.0465 -0.1448 -1.8288
  448MOL0     H59119   3.387  11.135   8.334  3.9482  3.7020  0.4070
  448MOL0     H59120   3.684  11.547   8.158  1.2514 -0.1051 -0.6399
  448MOL0     H59121   3.882  11.668   8.190 -0.7819 -1.3717 -3.1543
  448MOL0     H59122   5.480  10.547   8.006 -1.0870  2.1597 -1.0883
  448MOL0     H59123   5.695  10.558   8.146  0.5143  0.4282  0.0907
  448MOL0     H59124   5.806  10.856   8.722 -0.7071 -0.3726 -1.2671
  448MOL0     H59125   6.027  10.881   8.836 -0.1946 -3.0691  0.9100
  448MOL0     H59126   6.389  10.782   8.573  0.6453 -0.3572  1.6168
  448MOL0     H59127   6.453  10.868   8.708  0.3467  1.7706 -0.1422
  448MOL0     H59128   6.284  11.020   8.507 -0.6267 -0.2967  0.0468
  448MOL0     H59129   6.330  11.085   8.666 -3.5011  0.2419 -0.6159
  448MOL0     H59130   6.551  11.007   8.466  0.3301 -0.2944  2.0273
  448MOL0     H59131   6.570  11.058   8.621 -0.1298  1.2689  0.6814
  448MOL0     H59132   6.588  11.223   8.432  0.7714 -0.8788  1.3513
  448MOL0     H59133   6.406  11.213   8.431 -0.7640 -0.1692  1.0797
  448MOL0     H59134   6.465  11.411   8.810 -2.0239  2.9676 -1.4346
  448MOL0     H59135   6.209  10.793   8.456 -0.6154 -0.8250 -1.7386
  448MOL0     H59136   5.992  10.726   8.360 -1.0351 -1.2354  0.8822
  449MOL0     O59137   6.995   3.101   8.753  0.5442 -0.3658 -0.4573
  449MOL0     C59138   7.054   3.166   8.666 -0.1736 -0.1213 -0.1452
  449MOL0     O59139   6.994   3.217   8.552  0.0480 -0.5742  0.0322
  449MOL0     C59140   6.863   3.171   8.528 -0.3086 -0.0607  0.1395
  449MOL0     C59141   6.831   3.107   8.408  0.2922 -0.0472  0.0440
  449MOL0     C59142   6.701   3.069   8.380 -1.4106  0.0756 -0.0517
  449MOL0     C59143   6.587   3.095   8.458 -0.9490  0.5456 -0.3966
  449MOL0     O59144   6.459   3.058   8.433 -0.2318  0.1465 -0.5037
  449MOL0     C59145   6.438   2.964   8.324  0.2123 -0.4748 -0.2533
  449MOL0     C59146   6.310   2.912   8.347  0.5686 -0.3009  0.0391
  449MOL0     C59147   6.184   3.007   8.377 -0.8704 -0.2897 -0.4227
  449MOL0     C59148   6.069   2.925   8.435 -0.4050  0.1119 -0.2846
  449MOL0     C59149   5.966   3.019   8.489  0.4172  1.0842 -0.6937
  449MOL0     C59150   5.892   3.100   8.390 -0.4092  1.0561 -0.1412
  449MOL0     C59151   5.793   3.200   8.457 -0.1692 -0.2271 -0.8612
  449MOL0     C59152   5.714   3.296   8.353  0.0802  1.7538 -0.6749
  449MOL0     N59153   5.654   3.202   8.256  0.1699 -0.0015 -0.6173
  449MOL0     C59154   5.585   3.083   8.281  0.0255  0.2619  0.0903
  449MOL0     C59155   5.544   3.031   8.156 -1.1865  0.4797 -0.5334
  449MOL0     C59156   5.463   2.907   8.133  0.3036 -0.2018 -0.2788
  449MOL0     C59157   5.341   2.943   8.054 -0.1775  0.0417 -0.3297
  449MOL0     C59158   5.238   2.833   8.077 -0.2663  0.8789  0.0087
  449MOL0     C59159   5.103   2.850   8.007 -0.2084 -0.4603  0.3369
  449MOL0     O59160   5.020   2.933   8.090  0.2190  0.9584  0.1108
  449MOL0     C59161   4.935   2.862   8.174 -0.9194 -0.7618  0.2607
  449MOL0     C59162   4.944   2.732   8.229  0.4285 -0.2708  0.2358
  449MOL0     C59163   4.848   2.687   8.325 -0.3249  0.0135 -0.5779
  449MOL0     C59164   4.731   2.759   8.347 -0.3318 -0.0772  0.4173
  449MOL0     C59165   4.634   2.715   8.444 -1.3825 -0.3492  0.5400
  449MOL0     O59166   4.509   2.771   8.447  0.3850 -0.2493 -1.1085
  449MOL0     C59167   4.412   2.731   8.536  0.3696  0.2110 -0.1275
  449MOL0     C59168   4.353   2.841   8.602  0.3388  0.1090 -0.7457
  449MOL0     C59169   4.246   2.821   8.684  0.1704  0.5358 -0.5519
  449MOL0     C59170   4.187   2.699   8.713 -0.7658 -0.1590 -0.5065
  449MOL0     O59171   4.083   2.696   8.807 -0.3077 -0.1707  0.3210
  449MOL0     C59172   4.011   2.571   8.820  0.9513  0.3332 -0.0674
  449MOL0     C59173   3.892   2.579   8.908 -0.5497 -0.3633  0.2043
  449MOL0     C59174   3.789   2.466   8.885 -0.1107 -0.2769  0.5578
  449MOL0     C59175   3.672   2.484   8.985 -0.0377 -0.9267  0.0842
  449MOL0     C59176   3.558   2.382   8.962  0.4910 -0.2805  0.7575
  449MOL0     C59177   3.440   2.398   9.059  0.0329 -0.5686 -0.3568
  449MOL0     C59178   3.320   2.330   8.991  0.3398 -1.1820 -0.5238
  449MOL0     C59179   3.185   2.331   9.065  0.0296 -0.7521  0.0572
  449MOL0    Cl59180   3.045   2.280   8.953 -0.5049 -0.0826  0.2106
  449MOL0     C59181   4.248   2.590   8.641 -0.6229  0.6253 -0.2307
  449MOL0     C59182   4.346   2.606   8.551 -0.7776  0.0491  0.6299
  449MOL0     O59183   4.683   2.639   8.530  0.6268 -0.1307  1.2510
  449MOL0     C59184   4.724   2.892   8.292 -0.0706  0.1444 -0.4299
  449MOL0     C59185   4.831   2.944   8.219 -0.6961  0.2190 -0.0559
  449MOL0     N59186   5.588   3.127   8.064 -0.5930 -0.1879  0.7257
  449MOL0     N59187   5.655   3.225   8.122 -0.1738  0.6432 -0.2805
  449MOL0     C59188   6.619   3.150   8.585  0.5760 -0.6177  0.4175
  449MOL0     C59189   6.755   3.193   8.621  0.4346 -0.5267  1.0051
  449MOL0     C59190   7.194   3.194   8.688 -0.0825  0.7415 -0.7226
  449MOL0     C59191   7.250   3.155   8.815  0.7822  0.2010 -0.4786
  449MOL0     C59192   7.379   3.188   8.839 -0.5577 -0.3890 -0.7338
  449MOL0     C59193   7.450   3.267   8.752 -0.2603  0.0081  0.2849
  449MOL0     O59194   7.587   3.278   8.777 -0.0231 -0.5763  0.7739
  449MOL0     C59195   7.668   3.358   8.698 -1.0563  0.5284  0.2210
  449MOL0     C59196   7.807   3.376   8.767  1.0751  0.3597  0.1535
  449MOL0     C59197   7.890   3.467   8.681 -0.6624 -0.5333 -0.5554
  449MOL0     C59198   8.035   3.473   8.727 -0.2142  0.2417  0.6472
  449MOL0     C59199   8.121   3.472   8.609  0.7593 -0.0392 -0.5417
  449MOL0     C59200   8.176   3.502   8.501 -0.3923 -1.1272  0.4547
  449MOL0     C59201   7.392   3.313   8.640  0.0814 -0.2519  0.0987
  449MOL0     C59202   7.262   3.279   8.607 -0.6889 -0.5068 -0.4691
  449MOL0     H59203   6.909   3.072   8.341 -1.6106 -2.1955 -1.2195
  449MOL0     H59204   6.687   3.009   8.291  0.7660 -0.1104 -0.3190
  449MOL0     H59205   6.508   2.880   8.321  0.4118 -0.5011  2.6574
  449MOL0     H59206   6.442   3.018   8.229 -1.3136  2.3088  1.1414
  449MOL0     H59207   6.317   2.855   8.439 -0.3673 -1.2618 -0.4595
  449MOL0     H59208   6.297   2.844   8.262  1.0425 -3.0800  2.0772
  449MOL0     H59209   6.158   3.048   8.279  0.5812 -2.4111 -1.7837
  449MOL0     H59210   6.218   3.080   8.451  2.5112 -0.7730 -1.3030
  449MOL0     H59211   6.023   2.860   8.360  0.7875 -0.6690 -0.3615
  449MOL0     H59212   6.093   2.847   8.508 -1.2250 -0.1328 -0.2585
  449MOL0     H59213   6.010   3.079   8.570 -2.2960  3.8775 -1.0706
  449MOL0     H59214   5.883   2.957   8.525 -0.6616  2.4868 -0.6519
  449MOL0     H59215   5.853   3.026   8.319  0.5219  0.4607 -0.0576
  449MOL0     H59216   5.963   3.161   8.335 -0.8324  2.0631  0.4114
  449MOL0     H59217   5.732   3.153   8.535  0.5405  0.9921  0.4715
  449MOL0     H59218   5.855   3.268   8.516 -2.3855  0.9306  0.2594
  449MOL0     H59219   5.787   3.361   8.304  0.3587  1.3806 -0.7628
  449MOL0     H59220   5.647   3.366   8.403  1.0112  2.7212 -0.7530
  449MOL0     H59221   5.542   3.048   8.375 -1.2933 -2.5184 -1.4189
  449MOL0     H59222   5.442   2.870   8.233  1.1564 -0.2332 -0.0991
  449MOL0     H59223   5.522   2.831   8.080  0.1894  0.1968 -0.9964
  449MOL0     H59224   5.361   2.949   7.947  1.8850 -3.4649 -0.2904
  449MOL0     H59225   5.294   3.039   8.076 -0.3383 -0.0331 -0.3435
  449MOL0     H59226   5.281   2.736   8.050 -2.0194  0.5783 -1.9055
  449MOL0     H59227   5.227   2.819   8.185 -2.2637  0.6160 -0.1894
  449MOL0     H59228   5.056   2.751   7.998  1.0233 -1.5087  3.6632
  449MOL0     H59229   5.118   2.889   7.906 -0.7979  0.1491  0.4785
  449MOL0     H59230   5.026   2.665   8.206  0.1071 -0.4141 -0.4993
  449MOL0     H59231   4.855   2.590   8.372  1.5633  0.5369  0.2994
  449MOL0     H59232   4.407   2.935   8.603  2.6845 -1.1641 -0.4469
  449MOL0     H59233   4.203   2.897   8.748  1.2698  1.7959 -1.2536
  449MOL0     H59234   4.082   2.498   8.860  1.3942 -0.0849 -1.5529
  449MOL0     H59235   3.967   2.537   8.726  1.2449  0.0157 -0.0928
  449MOL0     H59236   3.843   2.676   8.900 -3.8819 -1.2421  5.1756
  449MOL0     H59237   3.930   2.570   9.010 -2.9027  2.0985  1.4096
  449MOL0     H59238   3.838   2.372   8.913  0.5350 -0.0347  0.2769
  449MOL0     H59239   3.758   2.465   8.780 -0.3899 -1.8585  0.6238
  449MOL0     H59240   3.707   2.474   9.089  2.1025  1.2181 -0.3547
  449MOL0     H59241   3.630   2.584   8.971  0.9641 -0.3191  1.2138
  449MOL0     H59242   3.599   2.281   8.972  1.9318  0.2975  0.9392
  449MOL0     H59243   3.522   2.408   8.863  1.8807  2.4842  0.8597
  449MOL0     H59244   3.426   2.504   9.078  1.5538 -0.8336  2.9006
  449MOL0     H59245   3.464   2.348   9.153 -2.1711  0.8897  1.0592
  449MOL0     H59246   3.306   2.367   8.889  0.1786 -4.6675 -1.9130
  449MOL0     H59247   3.360   2.228   8.982  0.4157 -1.1897 -0.1098
  449MOL0     H59248   3.161   2.423   9.120  0.1511  0.9775 -2.5693
  449MOL0     H59249   3.199   2.255   9.142  0.8256 -0.8170 -0.1417
  449MOL0     H59250   4.196   2.498   8.665 -3.5305  2.0232 -0.7483
  449MOL0     H59251   4.381   2.526   8.486  1.9289  1.1709  0.5905
  449MOL0     H59252   4.646   2.955   8.335 -1.6080 -0.3461 -2.3726
  449MOL0     H59253   4.839   3.044   8.178  2.8982  0.0663  0.0115
  449MOL0     H59254   6.549   3.181   8.662  0.3164  2.6521 -0.9380
  449MOL0     H59255   6.776   3.237   8.718  0.0390  0.0835  0.8211
  449MOL0     H59256   7.198   3.108   8.897  0.4332  2.4965  0.7092
  449MOL0     H59257   7.421   3.159   8.935 -0.3579 -1.3424 -1.1036
  449MOL0     H59258   7.615   3.453   8.689 -0.7124  0.5280 -3.5242
  449MOL0     H59259   7.676   3.309   8.600 -2.2185 -2.7493  1.6117
  449MOL0     H59260   7.797   3.422   8.866 -0.0850 -0.2589  0.3348
  449MOL0     H59261   7.847   3.274   8.766 -0.4859 -0.2814 -0.0991
  449MOL0     H59262   7.846   3.567   8.693  1.7754  0.5596 -0.0880
  449MOL0     H59263   7.880   3.440   8.576  2.7542 -0.8590 -0.9060
  449MOL0     H59264   8.048   3.561   8.791  1.9979  0.9384 -0.6391
  449MOL0     H59265   8.055   3.391   8.797  1.1737 -1.6209 -1.8081
  449MOL0     H59266   8.232   3.519   8.411  0.1682 -0.4658  0.9262
  449MOL0     H59267   7.441   3.377   8.568 -1.4989  1.6032  0.5980
  449MOL0     H59268   7.222   3.313   8.512  0.5213 -2.2075 -1.6438
  450MOL0     O59269   5.048   1.066   8.576  0.1825 -0.0158  0.5260
  450MOL0     C59270   5.059   0.978   8.494  0.2938  0.3782 -0.0211
  450MOL0     O59271   4.956   0.911   8.441 -0.2431  0.6866 -0.0589
  450MOL0     C59272   4.827   0.960   8.429 -0.1452 -0.3589  0.5528
  450MOL0     C59273   4.747   0.896   8.342  0.1188  0.9831 -0.1670
  450MOL0     C59274   4.611   0.928   8.316 -0.1692  0.0420 -0.6235
  450MOL0     C59275   4.552   1.030   8.390  0.1747 -0.8988  0.5124
  450MOL0     O59276   4.415   1.064   8.398  0.1651 -0.9536  0.1889
  450MOL0     C59277   4.323   0.986   8.330  0.4485  0.0654 -0.3912
  450MOL0     C59278   4.189   1.000   8.403 -0.5354  0.6616 -0.4076
  450MOL0     C59279   4.096   0.884   8.361 -0.6977 -0.4685 -0.3886
  450MOL0     C59280   3.953   0.918   8.363 -0.4454 -0.0729 -1.3678
  450MOL0     C59281   3.856   0.794   8.374  0.5029 -0.2513  0.6243
  450MOL0     C59282   3.697   0.815   8.357 -0.8403  0.4573  0.8886
  450MOL0     C59283   3.619   0.690   8.396 -0.3587  0.0775  0.3579
  450MOL0     C59284   3.472   0.730   8.404 -0.0473  0.0808  0.8399
  450MOL0     N59285   3.388   0.611   8.396 -0.4853 -0.3603 -0.0230
  450MOL0     C59286   3.345   0.536   8.506  1.4573 -0.1919  0.1985
  450MOL0     C59287   3.270   0.448   8.446  0.4027 -0.5339  0.3071
  450MOL0     C59288   3.195   0.340   8.525 -0.7130 -0.6428 -0.9423
  450MOL0     C59289   3.291   0.263   8.630 -0.0030  0.5597  1.1590
  450MOL0     C59290   3.408   0.195   8.549  0.0141 -0.5156  0.4303
  450MOL0     C59291   3.537   0.180   8.626 -0.9732  0.3475 -0.2358
  450MOL0     O59292   3.563   0.316   8.668  0.3123  0.1682 -0.1089
  450MOL0     C59293   3.690   0.356   8.697  0.7430  0.0343  0.5145
  450MOL0     C59294   3.806   0.277   8.703 -1.0552 -0.0747 -0.2454
  450MOL0     C59295   3.932   0.339   8.721 -0.1474  0.4471  0.0789
  450MOL0     C59296   3.944   0.482   8.729  0.6483 -0.1923 -0.3950
  450MOL0     C59297   4.079   0.544   8.730  0.1621 -0.1332 -0.3981
  450MOL0     O59298   4.181   0.461   8.749 -0.4604 -0.2094  0.0185
  450MOL0     C59299   4.314   0.493   8.743  0.5451  0.1542 -0.4156
  450MOL0     C59300   4.397   0.386   8.712 -0.7528  0.3514 -0.5006
  450MOL0     C59301   4.542   0.401   8.727 -0.3391 -0.0356  0.0004
  450MOL0     C59302   4.589   0.524   8.766 -0.5361  0.0869  0.2189
  450MOL0     O59303   4.724   0.528   8.770 -0.7464  0.5041 -0.1262
  450MOL0     C59304   4.791   0.637   8.699 -0.6658  0.3002 -0.3696
  450MOL0     C59305   4.924   0.580   8.639 -0.2697 -0.3397 -0.2365
  450MOL0     C59306   5.030   0.543   8.738  0.3207  0.1638 -0.1341
  450MOL0     C59307   5.167   0.508   8.672  0.2693  0.7407 -0.3214
  450MOL0     C59308   5.276   0.476   8.781 -0.9731 -0.2447 -0.1576
  450MOL0     C59309   5.421   0.477   8.741  0.9760  0.1557  0.9028
  450MOL0     C59310   5.454   0.370   8.636 -0.5485 -0.7809  0.1497
  450MOL0     C59311   5.599   0.352   8.621 -0.7773 -0.6486 -0.1815
  450MOL0    Cl59312   5.628   0.250   8.476 -0.2826  0.1020  0.2380
  450MOL0     C59313   4.500   0.637   8.784 -0.1321 -0.3051 -0.2354
  450MOL0     C59314   4.361   0.620   8.771 -0.0350 -0.3763 -0.8908
  450MOL0     O59315   4.086   0.664   8.683  0.2701  0.7415  0.4631
  450MOL0     C59316   3.824   0.551   8.723 -0.0542  0.2896 -0.4365
  450MOL0     C59317   3.703   0.495   8.709 -0.6335  1.1026  0.3512
  450MOL0     N59318   3.271   0.456   8.306 -0.1148  0.4314  0.0212
  450MOL0     N59319   3.350   0.552   8.278 -0.1580 -0.7205  0.0111
  450MOL0     C59320   4.633   1.102   8.484 -0.4893  0.0623  0.1911
  450MOL0     C59321   4.768   1.072   8.507 -0.2353  0.2144  0.2613
  450MOL0     C59322   5.191   0.920   8.475  0.3828 -0.0650 -0.0094
  450MOL0     C59323   5.279   0.928   8.580 -0.3649  1.2250  0.4002
  450MOL0     C59324   5.410   0.888   8.566  0.1887  0.0130  0.2577
  450MOL0     C59325   5.459   0.845   8.446  0.4481 -0.6336  0.0932
  450MOL0     O59326   5.589   0.810   8.420  0.8139 -0.3856  0.2135
  450MOL0     C59327   5.659   0.770   8.532 -0.1896 -0.1797  0.2669
  450MOL0     C59328   5.793   0.711   8.482  0.0877 -0.1342 -0.3164
  450MOL0     C59329   5.882   0.653   8.589  0.2908 -0.0351 -0.0524
  450MOL0     C59330   6.023   0.642   8.540 -0.4942  0.1750  0.0844
  450MOL0     C59331   6.088   0.764   8.490  0.4832  0.1524 -0.6648
  450MOL0     C59332   6.141   0.864   8.445  0.2076 -0.0642 -0.1965
  450MOL0     C59333   5.375   0.835   8.334  0.3935 -0.4110 -0.7612
  450MOL0     C59334   5.237   0.868   8.353  0.5412 -0.0848 -0.5548
  450MOL0     H59335   4.788   0.804   8.301 -1.9837  0.2166 -0.6528
  450MOL0     H59336   4.549   0.860   8.258  0.8633 -2.0806  0.6232
  450MOL0     H59337   4.351   0.881   8.319 -0.8798 -0.1081 -2.7891
  450MOL0     H59338   4.315   1.023   8.227 -3.4763  0.2801 -0.1369
  450MOL0     H59339   4.139   1.089   8.364 -1.8938  0.1115  0.0405
  450MOL0     H59340   4.208   1.006   8.511 -2.1280 -0.0819 -0.0616
  450MOL0     H59341   4.118   0.798   8.425 -0.8155  0.0661  0.3779
  450MOL0     H59342   4.110   0.868   8.253 -0.4528 -1.1155 -0.2670
  450MOL0     H59343   3.930   0.999   8.432 -0.7189  0.3969 -2.0115
  450MOL0     H59344   3.922   0.961   8.268  0.3926 -1.0078 -2.0977
  450MOL0     H59345   3.878   0.747   8.470 -0.6739 -0.6970  0.6934
  450MOL0     H59346   3.878   0.719   8.297 -0.7965  0.8422 -0.8539
  450MOL0     H59347   3.668   0.828   8.253 -1.7093 -2.8087  0.5989
  450MOL0     H59348   3.676   0.903   8.418  0.4706  0.5408  1.2652
  450MOL0     H59349   3.630   0.619   8.314  0.2574  1.0245 -0.4023
  450MOL0     H59350   3.643   0.652   8.496 -2.1141  2.7534  1.9307
  450MOL0     H59351   3.456   0.796   8.319 -0.0621 -3.8379 -2.5261
  450MOL0     H59352   3.452   0.781   8.499  1.5965 -0.6287  1.6154
  450MOL0     H59353   3.373   0.556   8.609  1.4950  1.0525 -0.0382
  450MOL0     H59354   3.160   0.261   8.458 -0.7674 -0.7968 -0.7335
  450MOL0     H59355   3.109   0.390   8.572 -0.1132  0.2998 -0.8155
  450MOL0     H59356   3.244   0.187   8.694  2.2240 -1.5086  0.4927
  450MOL0     H59357   3.335   0.336   8.699 -0.6928  1.0614  1.0730
  450MOL0     H59358   3.366   0.096   8.528  1.1615 -0.9672  0.1833
  450MOL0     H59359   3.417   0.244   8.452  2.1792  0.9461  1.2816
  450MOL0     H59360   3.620   0.141   8.567 -0.4210 -2.1441  2.0179
  450MOL0     H59361   3.533   0.110   8.710  5.5032 -1.0209 -0.6220
  450MOL0     H59362   3.801   0.169   8.693 -0.3671  0.0169 -1.8056
  450MOL0     H59363   4.017   0.272   8.729  1.5147  2.3852 -0.3790
  450MOL0     H59364   4.357   0.291   8.677 -3.1187  0.7590  0.8812
  450MOL0     H59365   4.610   0.320   8.703  1.3596  1.2982  0.0574
  450MOL0     H59366   4.811   0.718   8.770 -2.5974  1.7031 -1.3217
  450MOL0     H59367   4.725   0.675   8.621 -2.2581 -0.4674  0.5576
  450MOL0     H59368   4.954   0.656   8.565 -1.9256 -0.4463 -1.0570
  450MOL0     H59369   4.894   0.490   8.585  0.2462  0.1788 -1.4325
  450MOL0     H59370   4.992   0.459   8.797 -0.1915  0.0371 -0.6320
  450MOL0     H59371   5.049   0.625   8.808 -1.2500  0.5844 -0.1490
  450MOL0     H59372   5.154   0.421   8.606 -1.1553  1.8763 -1.6417
  450MOL0     H59373   5.202   0.586   8.603 -1.5970  1.0996 -0.9186
  450MOL0     H59374   5.259   0.383   8.838 -2.0240  0.1115  0.1313
  450MOL0     H59375   5.274   0.559   8.852 -0.7022 -0.5780  0.2475
  450MOL0     H59376   5.473   0.465   8.836  0.9112  1.0626  1.0646
  450MOL0     H59377   5.441   0.577   8.702 -1.6335  0.5156  0.2726
  450MOL0     H59378   5.419   0.270   8.665  0.9407 -1.2016  0.5697
  450MOL0     H59379   5.412   0.401   8.539  1.7096  1.7249 -0.1336
  450MOL0     H59380   5.645   0.316   8.713  2.3980 -0.4672 -1.5843
  450MOL0     H59381   5.644   0.447   8.591 -0.8804 -0.8130 -0.8830
  450MOL0     H59382   4.553   0.729   8.805  1.8224 -1.4011 -0.0620
  450MOL0     H59383   4.302   0.712   8.774  0.1668 -0.2738  0.6659
  450MOL0     H59384   3.822   0.659   8.734 -0.8688  0.7732 -4.1177
  450MOL0     H59385   3.615   0.559   8.716 -0.6510  0.8945  3.5785
  450MOL0     H59386   4.577   1.175   8.542 -3.0439 -2.4998  1.2056
  450MOL0     H59387   4.808   1.121   8.595 -2.2034  0.0416  1.2982
  450MOL0     H59388   5.255   0.961   8.681  0.2315  0.6535  0.7296
  450MOL0     H59389   5.465   0.880   8.659 -0.8171  1.9975  1.0716
  450MOL0     H59390   5.603   0.705   8.600 -2.7560  0.1127 -1.4312
  450MOL0     H59391   5.693   0.858   8.587 -1.0012  0.0385  0.4227
  450MOL0     H59392   5.754   0.637   8.412 -2.9026  4.9316 -4.7270
  450MOL0     H59393   5.840   0.786   8.418 -0.2061  0.2135 -0.1297
  450MOL0     H59394   5.857   0.549   8.613  0.8439 -0.2800 -0.5110
  450MOL0     H59395   5.878   0.715   8.678  5.7060  0.2705  0.3337
  450MOL0     H59396   6.082   0.604   8.623 -1.6151 -1.1255  0.3097
  450MOL0     H59397   6.024   0.563   8.464  3.3485  2.3160 -2.4488
  450MOL0     H59398   6.192   0.952   8.412  2.5433 -1.5741 -0.8644
  450MOL0     H59399   5.411   0.798   8.238 -1.6837 -3.8076 -0.4273
  450MOL0     H59400   5.167   0.866   8.270  1.3904 -1.0361 -1.2852
  451MOL0     O59401   4.870   1.003   2.235 -0.1662 -0.1170  0.5137
  451MOL0     C59402   4.904   1.122   2.256  0.0919  0.3494  0.4322
  451MOL0     O59403   4.826   1.227   2.275 -0.2999 -0.1803  0.1174
  451MOL0     C59404   4.689   1.233   2.286  0.2281  0.9676 -0.1162
  451MOL0     C59405   4.601   1.125   2.324 -0.2422  0.3362  0.0226
  451MOL0     C59406   4.458   1.149   2.349 -0.9400 -0.0950  0.0292
  451MOL0     C59407   4.415   1.281   2.326  0.0143 -0.7318  0.4945
  451MOL0     O59408   4.285   1.321   2.352 -0.4655 -0.5030 -0.2053
  451MOL0     C59409   4.175   1.238   2.288  0.2319  0.2810 -0.0300
  451MOL0     C59410   4.055   1.227   2.370 -0.4006  0.2771  0.2767
  451MOL0     C59411   4.061   1.172   2.515 -0.0413 -1.0176 -0.5321
  451MOL0     C59412   3.933   1.170   2.586 -0.4129 -0.7416 -0.1707
  451MOL0     C59413   3.942   1.069   2.699 -0.5671  0.7411  0.2369
  451MOL0     C59414   3.818   1.044   2.775 -0.2401 -0.8095 -0.2556
  451MOL0     C59415   3.829   0.940   2.893  0.0451  0.1173  0.7094
  451MOL0     C59416   3.696   0.941   2.973  0.3379 -0.1074  0.8226
  451MOL0     N59417   3.694   0.831   3.069  0.4412  0.3055 -0.4905
  451MOL0     C59418   3.786   0.811   3.179 -0.0733  0.8046 -0.0418
  451MOL0     C59419   3.727   0.710   3.247 -0.2718 -0.3142  0.4160
  451MOL0     C59420   3.775   0.618   3.342  0.1230  0.3479  0.5787
  451MOL0     C59421   3.909   0.548   3.301 -0.0463  0.1900 -0.1184
  451MOL0     C59422   4.041   0.618   3.336  0.1321  0.4585  0.1860
  451MOL0     C59423   4.156   0.530   3.309  0.1897 -0.8434 -0.6552
  451MOL0     O59424   4.274   0.612   3.322  0.0947 -0.0991  0.2674
  451MOL0     C59425   4.402   0.573   3.278  0.6335 -0.4237 -0.2135
  451MOL0     C59426   4.485   0.661   3.208  0.4531 -0.1801  0.0337
  451MOL0     C59427   4.612   0.627   3.168 -0.2785  0.6291 -0.2532
  451MOL0     C59428   4.664   0.497   3.203 -0.9384  0.1100  0.2279
  451MOL0     C59429   4.796   0.450   3.155 -0.0699  0.2223  0.5866
  451MOL0     O59430   4.891   0.546   3.117 -0.0628 -0.7537  0.3227
  451MOL0     C59431   5.011   0.515   3.066  0.1623 -0.0462  1.2376
  451MOL0     C59432   5.115   0.451   3.135 -0.0473  0.3748  0.0455
  451MOL0     C59433   5.241   0.417   3.076  0.6936  0.1499  0.1679
  451MOL0     C59434   5.266   0.450   2.936  0.5637  0.0537 -0.9376
  451MOL0     O59435   5.388   0.426   2.872 -0.2322 -0.4479  0.2023
  451MOL0     C59436   5.425   0.465   2.740 -0.3104  0.4338 -0.5822
  451MOL0     C59437   5.580   0.434   2.725  0.8166 -0.6252  0.2535
  451MOL0     C59438   5.671   0.495   2.843  0.3703 -0.3763 -0.6320
  451MOL0     C59439   5.798   0.420   2.848 -0.4488 -0.2534 -0.6230
  451MOL0     C59440   5.898   0.475   2.948  0.0214 -0.2616  0.8190
  451MOL0     C59441   6.029   0.400   2.939 -0.3409  0.3540  0.2550
  451MOL0     C59442   6.098   0.410   2.802  0.1952 -0.5214 -0.0998
  451MOL0     C59443   6.243   0.386   2.823  0.7131  0.6375 -0.3620
  451MOL0    Cl59444   6.263   0.204   2.856  0.0111 -0.3444  0.2260
  451MOL0     C59445   5.154   0.513   2.871 -1.0038 -0.0336 -0.3806
  451MOL0     C59446   5.035   0.544   2.933  0.0437  0.1262 -0.4113
  451MOL0     O59447   4.819   0.333   3.154 -0.1547 -0.2479 -0.2590
  451MOL0     C59448   4.575   0.402   3.255  0.6792 -0.4118 -0.8560
  451MOL0     C59449   4.448   0.443   3.304  0.2615 -0.3211  0.3217
  451MOL0     N59450   3.609   0.671   3.183 -0.0687 -0.4829 -0.4664
  451MOL0     N59451   3.587   0.745   3.087  0.9654  0.3690  0.1757
  451MOL0     C59452   4.500   1.386   2.283  0.5284 -0.0671 -0.2879
  451MOL0     C59453   4.638   1.364   2.268  0.1390  0.6911  0.1573
  451MOL0     C59454   5.051   1.134   2.257  0.0738  0.0459  0.4553
  451MOL0     C59455   5.111   1.248   2.302 -1.0632  0.3598  0.4035
  451MOL0     C59456   5.249   1.263   2.290  0.3026 -0.9085  0.9262
  451MOL0     C59457   5.337   1.171   2.240  0.3194  0.5661  0.1576
  451MOL0     O59458   5.474   1.194   2.236  0.1585 -0.1517 -0.0405
  451MOL0     C59459   5.574   1.097   2.200  0.2371  0.3415  0.2972
  451MOL0     C59460   5.700   1.164   2.168  0.2438 -0.1280  0.1110
  451MOL0     C59461   5.753   1.248   2.288  0.3734  0.1164 -0.8193
  451MOL0     C59462   5.878   1.347   2.264  0.1800  0.7080 -0.0249
  451MOL0     C59463   6.002   1.271   2.257  0.4376 -1.7218 -1.1497
  451MOL0     C59464   6.099   1.195   2.277  0.6436  0.0595 -0.3288
  451MOL0     C59465   5.277   1.053   2.187  0.2161 -0.7359  0.9497
  451MOL0     C59466   5.139   1.029   2.209 -0.2031 -0.6175  0.4862
  451MOL0     H59467   4.630   1.021   2.327 -0.4204  0.2958  0.5190
  451MOL0     H59468   4.383   1.075   2.375  0.6916 -1.7085  0.3580
  451MOL0     H59469   4.209   1.138   2.261 -2.7862 -1.5474  2.2880
  451MOL0     H59470   4.138   1.290   2.199 -2.4070 -1.2148  0.0924
  451MOL0     H59471   3.984   1.165   2.315  0.5531  0.7329 -1.5377
  451MOL0     H59472   4.002   1.323   2.374 -0.3917  0.3864 -1.6022
  451MOL0     H59473   4.134   1.237   2.564 -0.0781 -0.7879 -0.7839
  451MOL0     H59474   4.107   1.072   2.519  0.2783 -0.8763  3.6109
  451MOL0     H59475   3.922   1.275   2.612 -0.1043 -0.9392  0.8018
  451MOL0     H59476   3.855   1.136   2.517  0.8621  0.6420 -2.4280
  451MOL0     H59477   4.029   1.098   2.759  1.5711 -0.2617 -2.2011
  451MOL0     H59478   3.963   0.972   2.654  1.0131  0.2074  1.9823
  451MOL0     H59479   3.733   1.021   2.710 -2.6723  1.6105  1.7915
  451MOL0     H59480   3.788   1.136   2.827 -0.3437 -1.6389  1.1896
  451MOL0     H59481   3.842   0.841   2.847 -0.0020  0.1876  0.5436
  451MOL0     H59482   3.913   0.962   2.959 -0.2312 -4.5501  3.0715
  451MOL0     H59483   3.616   0.913   2.904 -0.0401 -0.4201  1.3818
  451MOL0     H59484   3.666   1.032   3.027 -1.0539 -1.3118  2.2069
  451MOL0     H59485   3.883   0.858   3.190  0.9005 -0.8153 -1.1807
  451MOL0     H59486   3.703   0.540   3.366 -0.0443  0.6758  1.1470
  451MOL0     H59487   3.784   0.672   3.436 -3.4461  0.2899  1.0617
  451MOL0     H59488   3.912   0.546   3.191  0.9775 -1.4103 -0.0944
  451MOL0     H59489   3.901   0.445   3.338  3.0510 -1.0715 -2.4574
  451MOL0     H59490   4.047   0.716   3.286  0.7581 -0.9832 -2.7730
  451MOL0     H59491   4.050   0.626   3.445  1.5841 -2.3585  0.3666
  451MOL0     H59492   4.146   0.500   3.204 -0.6168 -0.5309 -0.6716
  451MOL0     H59493   4.149   0.443   3.375 -1.2141  0.7646  1.4642
  451MOL0     H59494   4.458   0.764   3.188 -2.2578 -0.6996  0.6067
  451MOL0     H59495   4.682   0.687   3.111 -1.0544  0.3926 -1.5102
  451MOL0     H59496   5.106   0.413   3.236  0.0847  0.6895  0.1783
  451MOL0     H59497   5.322   0.373   3.133  0.5711 -1.7644 -1.0650
  451MOL0     H59498   5.409   0.570   2.716  0.5382  0.3690 -1.4876
  451MOL0     H59499   5.372   0.409   2.663  0.5299  0.2271 -1.0168
  451MOL0     H59500   5.610   0.484   2.633 -0.7608 -0.7062 -0.3192
  451MOL0     H59501   5.601   0.329   2.703  1.5791 -0.5471  0.5599
  451MOL0     H59502   5.623   0.478   2.940 -1.4830 -0.0822 -1.4507
  451MOL0     H59503   5.682   0.601   2.820  1.1534 -0.1261  0.7586
  451MOL0     H59504   5.783   0.314   2.874  3.3334  0.0631  4.3717
  451MOL0     H59505   5.850   0.419   2.751 -2.3438 -0.3047 -1.6931
  451MOL0     H59506   5.850   0.466   3.045 -4.8880 -1.4416 -1.4285
  451MOL0     H59507   5.903   0.583   2.931 -0.4874 -0.2939  0.4314
  451MOL0     H59508   6.012   0.296   2.968 -2.8444  0.2087 -1.4109
  451MOL0     H59509   6.085   0.448   3.019 -0.0899 -0.8209  0.8110
  451MOL0     H59510   6.057   0.337   2.732  1.4581  0.1215 -1.5579
  451MOL0     H59511   6.092   0.510   2.759  0.8442 -0.9199 -1.1547
  451MOL0     H59512   6.281   0.441   2.909  0.5666  0.6148 -0.2824
  451MOL0     H59513   6.306   0.410   2.737 -1.3001  1.4545 -1.6595
  451MOL0     H59514   5.163   0.534   2.765 -0.5242  0.6154 -0.2189
  451MOL0     H59515   4.956   0.589   2.873  1.6686 -0.3125 -3.0367
  451MOL0     H59516   4.603   0.298   3.270 -0.7938 -0.8122 -0.7207
  451MOL0     H59517   4.386   0.365   3.348  2.4179 -1.7300  1.0489
  451MOL0     H59518   4.462   1.486   2.263 -0.1886 -0.8682 -3.4355
  451MOL0     H59519   4.711   1.443   2.255  0.6045  0.2288 -0.1019
  451MOL0     H59520   5.062   1.324   2.361 -4.0555 -2.1807  1.4449
  451MOL0     H59521   5.287   1.361   2.319 -1.7535 -0.1397  1.2041
  451MOL0     H59522   5.544   1.043   2.110  1.0772 -2.3540  1.5179
  451MOL0     H59523   5.594   1.028   2.283 -0.3475  0.5281  0.5993
  451MOL0     H59524   5.773   1.087   2.142  1.3387  1.6054 -2.2326
  451MOL0     H59525   5.683   1.212   2.072 -6.0398  2.2399  1.9264
  451MOL0     H59526   5.781   1.179   2.368 -0.8070  0.8246  0.2400
  451MOL0     H59527   5.676   1.313   2.330  1.6070  2.3076 -1.7657
  451MOL0     H59528   5.870   1.406   2.172  2.2850 -1.2684 -1.5812
  451MOL0     H59529   5.887   1.421   2.344  2.5000 -1.2896  1.7067
  451MOL0     H59530   6.181   1.127   2.291  0.9460 -0.4450 -3.7436
  451MOL0     H59531   5.341   0.989   2.127  2.1263  1.8852  0.0031
  451MOL0     H59532   5.087   0.939   2.179 -2.8000  0.4684  1.4220
  452MOL0     O59533   9.263  10.431   5.540  0.0043 -0.1319  0.2478
  452MOL0     C59534   9.330  10.535   5.571  0.0068  0.3686  0.0882
  452MOL0     O59535   9.280  10.667   5.559 -0.2588  0.0006  0.2079
  452MOL0     C59536   9.147  10.667   5.528 -0.0761  0.1026  0.1203
  452MOL0     C59537   9.058  10.634   5.635  0.1162  1.1626  0.0863
  452MOL0     C59538   8.918  10.653   5.619 -0.7465 -0.5967 -0.0020
  452MOL0     C59539   8.873  10.712   5.495 -0.1025  0.1162 -1.1941
  452MOL0     O59540   8.744  10.742   5.481  0.3354  0.8610  0.0039
  452MOL0     C59541   8.668  10.640   5.426 -0.4370 -0.9273 -0.0729
  452MOL0     C59542   8.541  10.692   5.353  0.2605  0.6394  0.1923
  452MOL0     C59543   8.567  10.787   5.230  0.5118 -0.3941  0.7380
  452MOL0     C59544   8.454  10.825   5.136 -0.4760  1.0600  0.7172
  452MOL0     C59545   8.508  10.891   5.006  0.0903 -0.0742  0.1649
  452MOL0     C59546   8.562  10.783   4.912  0.3784 -0.1767 -0.0119
  452MOL0     C59547   8.535  10.815   4.769  0.3458  0.0761  0.1775
  452MOL0     C59548   8.564  10.686   4.688 -0.1643 -0.0554  0.8923
  452MOL0     N59549   8.553  10.698   4.542 -0.1930 -0.2419  0.3567
  452MOL0     C59550   8.569  10.585   4.466  0.0251 -0.2088  0.8358
  452MOL0     C59551   8.584  10.644   4.340 -0.0348  0.5401 -0.7676
  452MOL0     C59552   8.588  10.565   4.215 -0.5020 -0.1655  0.0850
  452MOL0     C59553   8.729  10.546   4.189 -0.4471  0.3805 -0.2448
  452MOL0     C59554   8.742  10.500   4.045  0.3828 -0.2531 -0.6906
  452MOL0     C59555   8.886  10.473   4.019  0.2059  0.2967  0.2874
  452MOL0     O59556   8.945  10.354   4.083  0.3532  0.1696  0.1358
  452MOL0     C59557   9.081  10.352   4.111  0.4658 -0.4754  0.0707
  452MOL0     C59558   9.173  10.451   4.076 -0.3958 -0.4717 -0.0610
  452MOL0     C59559   9.306  10.439   4.109  0.2120 -0.1724  0.9081
  452MOL0     C59560   9.362  10.321   4.170  0.5783 -0.4138 -0.1646
  452MOL0     C59561   9.505  10.315   4.188  0.2056 -0.0545 -0.7814
  452MOL0     O59562   9.554  10.206   4.242 -0.5957  1.0810 -0.5888
  452MOL0     C59563   9.684  10.211   4.288  0.7523  1.2040  0.0743
  452MOL0     C59564   9.782  10.173   4.202 -0.1283  0.0072  0.9088
  452MOL0     C59565   9.914  10.175   4.245  0.1054  0.5884  0.1421
  452MOL0     C59566   9.953  10.206   4.372 -0.1590 -0.1699 -0.5394
  452MOL0     O59567  10.086  10.222   4.380  0.1373 -0.1884  0.5442
  452MOL0     C59568  10.148  10.151   4.489  0.0490  0.1661  0.0102
  452MOL0     C59569  10.228  10.025   4.453 -0.2165 -0.1543 -0.3168
  452MOL0     C59570  10.370  10.057   4.398  0.2800 -0.6046  0.4797
  452MOL0     C59571  10.468   9.933   4.384  0.2240  0.1023  0.3101
  452MOL0     C59572  10.413   9.841   4.269 -0.2716  0.7734 -0.0630
  452MOL0     C59573  10.511   9.727   4.242  0.1873  0.4368 -0.2659
  452MOL0     C59574  10.448   9.633   4.141 -0.5160 -0.3837 -0.1576
  452MOL0     C59575  10.568   9.575   4.061  0.5074 -0.0388  0.6030
  452MOL0    Cl59576  10.713   9.508   4.142 -0.2611 -0.2348  0.0634
  452MOL0     C59577   9.855  10.258   4.457  0.4415  0.1893 -0.4011
  452MOL0     C59578   9.720  10.261   4.421  0.4225  0.9089 -0.5868
  452MOL0     O59579   9.569  10.419   4.158 -0.0054 -0.1059 -0.0631
  452MOL0     C59580   9.268  10.219   4.208  0.2713  0.3306 -0.3914
  452MOL0     C59581   9.136  10.244   4.179 -0.7223  0.1092  0.8063
  452MOL0     N59582   8.570  10.780   4.343 -0.1279  0.1614 -0.8186
  452MOL0     N59583   8.572  10.810   4.470  0.7895  0.2292 -0.1724
  452MOL0     C59584   8.963  10.746   5.391 -0.7831  0.9633  0.1166
  452MOL0     C59585   9.094  10.731   5.415 -0.4788 -0.3608  0.7469
  452MOL0     C59586   9.467  10.519   5.615  0.2329 -0.7915  0.0726
  452MOL0     C59587   9.537  10.396   5.605  0.9013  0.2830  0.6101
  452MOL0     C59588   9.659  10.370   5.657 -0.6209 -0.1026  0.6277
  452MOL0     C59589   9.731  10.477   5.713  0.7698  0.3720  0.2809
  452MOL0     O59590   9.856  10.466   5.762 -0.0710  0.4614 -0.4962
  452MOL0     C59591   9.955  10.396   5.684  0.3152 -0.9618 -0.2239
  452MOL0     C59592  10.099  10.451   5.697  0.5316  0.0026  0.0397
  452MOL0     C59593  10.158  10.439   5.841 -0.0515  0.2231 -0.0887
  452MOL0     C59594  10.301  10.480   5.850 -0.9337 -0.9074  0.9896
  452MOL0     C59595  10.395  10.381   5.800 -0.0069 -0.3341 -0.1175
  452MOL0     C59596  10.473  10.307   5.763  0.4997  0.5973  0.4147
  452MOL0     C59597   9.667  10.605   5.712 -0.0291 -0.6751  0.2459
  452MOL0     C59598   9.534  10.628   5.664  0.4830 -0.3781  0.5066
  452MOL0     H59599   9.096  10.607   5.733  1.2437 -0.4932 -0.7569
  452MOL0     H59600   8.850  10.636   5.701  0.3936  0.8144  1.2870
  452MOL0     H59601   8.645  10.566   5.504 -3.0247 -0.3632 -0.1853
  452MOL0     H59602   8.728  10.582   5.356  0.0801 -0.4856  0.0037
  452MOL0     H59603   8.476  10.751   5.418  0.9060  1.5093  0.0696
  452MOL0     H59604   8.486  10.601   5.326  0.3422  1.0629 -1.5154
  452MOL0     H59605   8.647  10.747   5.167  1.5217  0.5524  1.3717
  452MOL0     H59606   8.599  10.883   5.271 -1.6203  0.0267  1.5583
  452MOL0     H59607   8.398  10.733   5.120  1.8789 -0.3783  0.1554
  452MOL0     H59608   8.398  10.901   5.190  0.9351  2.8348 -0.1980
  452MOL0     H59609   8.589  10.961   5.029  0.0944  0.5491 -1.5929
  452MOL0     H59610   8.419  10.941   4.968 -0.2813 -0.1880  0.8689
  452MOL0     H59611   8.510  10.687   4.918 -1.2242  0.4414 -2.3389
  452MOL0     H59612   8.666  10.764   4.937 -0.3491 -2.2883  1.6774
  452MOL0     H59613   8.430  10.847   4.764 -0.2037 -0.8841  3.3611
  452MOL0     H59614   8.604  10.895   4.742 -0.6604  1.0954  0.5510
  452MOL0     H59615   8.488  10.611   4.713  2.0098 -2.1060  1.7880
  452MOL0     H59616   8.662  10.639   4.703 -0.2442 -0.6587 -0.3740
  452MOL0     H59617   8.575  10.481   4.499  0.1191 -1.7992 -3.5057
  452MOL0     H59618   8.545  10.633   4.142  1.5862  1.5897  0.3774
  452MOL0     H59619   8.544  10.465   4.221 -0.1804 -0.2450  1.5930
  452MOL0     H59620   8.772  10.484   4.267 -1.7618 -0.9479 -0.5432
  452MOL0     H59621   8.787  10.639   4.197  0.1275  0.3772 -3.0944
  452MOL0     H59622   8.686  10.408   4.026 -0.2186  0.2185 -1.2050
  452MOL0     H59623   8.700  10.575   3.978  2.1488  1.7109  0.2598
  452MOL0     H59624   8.941  10.561   4.053  0.9389 -0.8216  2.1211
  452MOL0     H59625   8.908  10.467   3.912  2.2705  1.8886  0.5486
  452MOL0     H59626   9.148  10.538   4.017  1.3246  1.1688  1.5038
  452MOL0     H59627   9.374  10.516   4.075  0.7266 -0.6978  0.7317
  452MOL0     H59628   9.755  10.139   4.103 -0.0775 -0.0619  0.9184
  452MOL0     H59629   9.982  10.144   4.167 -3.0506  1.3560 -3.2011
  452MOL0     H59630  10.076  10.111   4.561  0.2098 -0.9398 -0.4224
  452MOL0     H59631  10.217  10.212   4.547  0.7309 -0.1300 -0.4731
  452MOL0     H59632  10.169   9.959   4.390 -1.2620  0.8089 -0.3846
  452MOL0     H59633  10.239   9.971   4.548 -3.7599 -2.6235 -1.1115
  452MOL0     H59634  10.420  10.130   4.462  1.2364 -1.1654  0.3992
  452MOL0     H59635  10.358  10.099   4.298 -1.6785  2.2981  1.7968
  452MOL0     H59636  10.565   9.970   4.348  0.7739  0.0463  1.6815
  452MOL0     H59637  10.487   9.875   4.475  1.4861  0.5675  0.3637
  452MOL0     H59638  10.388   9.896   4.179 -0.8117 -0.1560 -0.4974
  452MOL0     H59639  10.318   9.789   4.283 -1.0176  1.1204 -3.1734
  452MOL0     H59640  10.526   9.672   4.335 -1.0794  1.5367  0.6246
  452MOL0     H59641  10.612   9.760   4.214  1.0197 -1.5062  0.2805
  452MOL0     H59642  10.395   9.548   4.186  0.5344 -0.5010  0.8885
  452MOL0     H59643  10.379   9.684   4.073  0.1972  0.3552 -0.3517
  452MOL0     H59644  10.610   9.646   3.990  2.2111 -0.3422  1.2535
  452MOL0     H59645  10.523   9.488   4.012 -2.8637  1.2818  1.0537
  452MOL0     H59646   9.872  10.303   4.554 -3.2541 -0.4412  0.7231
  452MOL0     H59647   9.650  10.312   4.486  1.3831  2.2051 -0.5215
  452MOL0     H59648   9.297  10.126   4.256 -0.1442  1.4273  2.1882
  452MOL0     H59649   9.063  10.165   4.194 -1.8144  0.9753  0.2019
  452MOL0     H59650   8.940  10.775   5.289 -0.6943  0.3424 -0.0885
  452MOL0     H59651   9.158  10.768   5.335 -0.2909  1.6451  1.7580
  452MOL0     H59652   9.484  10.313   5.560 -0.7291  0.0552  2.8041
  452MOL0     H59653   9.707  10.277   5.628  1.4331  1.2872 -0.6581
  452MOL0     H59654   9.929  10.391   5.578  2.0896 -1.6397 -0.6529
  452MOL0     H59655   9.944  10.293   5.720 -1.4761 -0.7664 -0.1064
  452MOL0     H59656  10.161  10.379   5.643 -0.6642 -2.2071  1.4123
  452MOL0     H59657  10.107  10.557   5.672  2.6030  0.4546  2.2070
  452MOL0     H59658  10.143  10.340   5.884  1.5463 -0.1662 -0.3903
  452MOL0     H59659  10.100  10.505   5.906 -1.1176 -3.9425  3.6361
  452MOL0     H59660  10.323  10.581   5.813  0.3804 -0.9878  1.5148
  452MOL0     H59661  10.328  10.495   5.955 -0.2266  0.6389  0.6243
  452MOL0     H59662  10.544  10.243   5.715 -2.3408 -0.8988 -2.0835
  452MOL0     H59663   9.729  10.685   5.752 -1.1027  0.6510 -0.6307
  452MOL0     H59664   9.485  10.723   5.682  0.1711 -0.3562 -0.4335
  453MOL0     O59665  10.270   6.648   6.194 -0.6002 -0.8223 -0.9341
  453MOL0     C59666  10.187   6.718   6.256 -0.2879  0.0012 -0.0766
  453MOL0     O59667  10.198   6.779   6.375 -0.0735 -0.2345 -0.1070
  453MOL0     C59668  10.316   6.782   6.448 -0.4623  0.0931  0.6008
  453MOL0     C59669  10.370   6.663   6.505 -0.0073 -0.4315 -0.8286
  453MOL0     C59670  10.482   6.669   6.597  0.4183  0.1702 -0.2952
  453MOL0     C59671  10.542   6.793   6.610  0.2239 -0.9163 -1.5851
  453MOL0     O59672  10.651   6.802   6.691 -0.2604  0.3633 -0.2189
  453MOL0     C59673  10.702   6.927   6.716  0.3785  0.4361  0.7186
  453MOL0     C59674  10.844   6.918   6.772  0.4191 -0.8858  0.4143
  453MOL0     C59675  10.905   7.060   6.789 -0.1079  0.6307 -0.6594
  453MOL0     C59676  11.036   7.053   6.861  0.5877  1.1087  0.0466
  453MOL0     C59677  11.106   7.178   6.889  0.0710 -0.7525  0.0707
  453MOL0     C59678  11.165   7.231   6.752 -0.2846  0.2054  0.0100
  453MOL0     C59679  11.271   7.339   6.762  0.2830 -0.1976  0.2321
  453MOL0     C59680  11.406   7.277   6.787  0.8605  0.6974 -0.5913
  453MOL0     N59681  11.518   7.376   6.788  0.4496  0.2717 -0.2322
  453MOL0     C59682  11.630   7.368   6.706 -0.4669 -0.4321 -0.4618
  453MOL0     C59683  11.728   7.442   6.757 -0.3797 -0.4111 -0.2362
  453MOL0     C59684  11.874   7.454   6.716  0.2477  0.1698  0.2464
  453MOL0     C59685  11.903   7.573   6.630  0.1539 -0.6998  0.9823
  453MOL0     C59686  11.887   7.704   6.707  0.0715 -0.1305  0.2997
  453MOL0     C59687  11.897   7.823   6.614 -0.5806  0.7261  0.1221
  453MOL0     O59688  11.771   7.893   6.623 -0.1519  0.6960 -0.6112
  453MOL0     C59689  11.702   7.926   6.506 -1.0039 -0.4379  0.0034
  453MOL0     C59690  11.777   7.971   6.395 -0.1883 -0.9729 -1.1762
  453MOL0     C59691  11.707   8.012   6.281 -0.2172  0.0408  0.5785
  453MOL0     C59692  11.565   8.013   6.268  0.1783  0.6672  1.1560
  453MOL0     C59693  11.491   8.066   6.157 -0.7313 -0.5657 -0.1712
  453MOL0     O59694  11.353   8.058   6.155  0.7844 -0.5526 -0.1065
  453MOL0     C59695  11.275   8.123   6.065  0.2216  0.4127  1.3786
  453MOL0     C59696  11.172   8.053   5.990 -0.2066 -0.1593 -0.0988
  453MOL0     C59697  11.084   8.125   5.917  0.2574  0.2693  0.3798
  453MOL0     C59698  11.092   8.262   5.902  0.1494  0.2368 -0.2690
  453MOL0     O59699  11.009   8.334   5.814 -0.0375  0.0017  0.3573
  453MOL0     C59700  10.862   8.307   5.805 -0.4271  0.4221  0.9039
  453MOL0     C59701  10.808   8.355   5.671  0.2318 -0.3504  0.1095
  453MOL0     C59702  10.663   8.313   5.658  1.1499 -0.1194  0.0941
  453MOL0     C59703  10.607   8.367   5.522  0.0924  0.4338 -0.2304
  453MOL0     C59704  10.451   8.383   5.520  0.3717 -0.7024  0.3600
  453MOL0     C59705  10.379   8.254   5.535  0.3174  0.9060  0.0176
  453MOL0     C59706  10.229   8.292   5.542 -0.4674  0.7335  0.1721
  453MOL0     C59707  10.153   8.182   5.614 -0.2566 -0.5366  0.4313
  453MOL0    Cl59708  10.154   8.026   5.528  0.2084 -0.6525 -0.4124
  453MOL0     C59709  11.206   8.326   5.957  0.0451 -0.6500  0.5457
  453MOL0     C59710  11.294   8.263   6.038 -0.6755  0.9533  0.3218
  453MOL0     O59711  11.556   8.120   6.072 -0.1554  0.2300 -0.1379
  453MOL0     C59712  11.494   7.956   6.378 -0.6940 -0.3386  0.3738
  453MOL0     C59713  11.561   7.917   6.492 -0.6688  0.5410 -1.2986
  453MOL0     N59714  11.680   7.503   6.868 -0.4446 -1.1601  0.2127
  453MOL0     N59715  11.556   7.457   6.890  0.2172 -0.4371  0.6339
  453MOL0     C59716  10.496   6.903   6.532  0.9480 -0.6282 -0.0446
  453MOL0     C59717  10.384   6.900   6.451  0.3926  0.6888  0.6871
  453MOL0     C59718  10.051   6.725   6.189  0.1462  0.6747 -0.1565
  453MOL0     C59719   9.939   6.755   6.268  0.6074 -0.0586  0.6353
  453MOL0     C59720   9.812   6.751   6.213 -0.7516 -0.3508 -0.3712
  453MOL0     C59721   9.786   6.719   6.080 -0.6650  0.4136  0.1436
  453MOL0     O59722   9.657   6.713   6.029 -0.1203 -0.0721 -0.6026
  453MOL0     C59723   9.563   6.655   6.131 -0.9192 -0.7973  0.3466
  453MOL0     C59724   9.466   6.772   6.166 -0.1523  0.4796 -0.0736
  453MOL0     C59725   9.433   6.872   6.055  0.1637  1.6265 -0.0128
  453MOL0     C59726   9.334   6.976   6.096  0.4706 -0.2428  0.0834
  453MOL0     C59727   9.197   6.922   6.094  0.0442  0.3742  0.1468
  453MOL0     C59728   9.089   6.879   6.097  0.0217 -0.1335 -0.7811
  453MOL0     C59729   9.900   6.687   5.996 -0.0962  0.3930  0.2790
  453MOL0     C59730  10.027   6.690   6.057  0.3300  0.4995 -0.0550
  453MOL0     H59731  10.325   6.564   6.502  1.4035 -1.2161  1.0906
  453MOL0     H59732  10.513   6.589   6.663 -0.0909 -1.2750 -1.7223
  453MOL0     H59733  10.628   6.979   6.778  0.4175  3.0952 -1.2653
  453MOL0     H59734  10.716   6.983   6.623 -0.8768  1.1484  0.9228
  453MOL0     H59735  10.908   6.853   6.712 -2.9049 -1.1191 -3.2901
  453MOL0     H59736  10.831   6.883   6.875 -0.2963 -2.9142 -0.3150
  453MOL0     H59737  10.836   7.123   6.847 -0.9207 -0.7193 -0.1186
  453MOL0     H59738  10.918   7.108   6.692  1.2289  0.6534 -0.4872
  453MOL0     H59739  11.016   7.001   6.955 -1.9160 -0.8931 -1.4815
  453MOL0     H59740  11.099   6.986   6.802 -1.1994  0.8247 -1.6527
  453MOL0     H59741  11.185   7.163   6.962  0.0425 -1.8216 -0.0955
  453MOL0     H59742  11.032   7.244   6.935  1.2906  1.2615 -0.7149
  453MOL0     H59743  11.081   7.270   6.693  0.4965  2.1817  0.0979
  453MOL0     H59744  11.211   7.154   6.690 -0.0425  0.2764  0.1021
  453MOL0     H59745  11.272   7.398   6.670  1.6218 -0.9637 -0.2783
  453MOL0     H59746  11.254   7.410   6.843 -0.2030 -0.4149  0.3215
  453MOL0     H59747  11.423   7.194   6.717 -0.4805  0.6848 -0.9320
  453MOL0     H59748  11.391   7.234   6.886  1.4399 -0.6247 -1.0513
  453MOL0     H59749  11.639   7.300   6.622  0.3905 -1.6181  0.5525
  453MOL0     H59750  11.899   7.362   6.663  2.0738 -0.2249  1.6673
  453MOL0     H59751  11.941   7.453   6.803  1.5572 -1.7718 -0.7107
  453MOL0     H59752  11.841   7.568   6.540  0.1594  1.1122  0.8339
  453MOL0     H59753  12.006   7.577   6.592 -0.1903 -0.2392  0.0599
  453MOL0     H59754  11.792   7.708   6.761  0.3377  1.5282  0.7062
  453MOL0     H59755  11.969   7.720   6.778 -0.0953 -1.0481  0.7147
  453MOL0     H59756  11.910   7.789   6.511 -0.8402 -0.6356  0.5189
  453MOL0     H59757  11.976   7.889   6.651 -0.5678  0.0284  1.3837
  453MOL0     H59758  11.883   7.993   6.397 -0.5393  0.8443 -0.7652
  453MOL0     H59759  11.768   8.047   6.198  0.9743 -2.8898  0.0885
  453MOL0     H59760  11.167   7.947   6.010  1.9530 -0.3019 -0.0132
  453MOL0     H59761  11.003   8.078   5.863  0.8619  0.2727 -0.5533
  453MOL0     H59762  10.824   8.365   5.890  1.3520  1.4405  1.0585
  453MOL0     H59763  10.845   8.199   5.803 -0.8378  0.4985 -0.0551
  453MOL0     H59764  10.857   8.304   5.587  0.3671  3.6620 -2.4917
  453MOL0     H59765  10.816   8.463   5.659  0.7858 -0.2434  1.2805
  453MOL0     H59766  10.613   8.344   5.750  0.4597  1.2836 -0.7272
  453MOL0     H59767  10.658   8.204   5.648 -2.2516 -0.1496  0.7236
  453MOL0     H59768  10.652   8.463   5.497  1.1823  0.3650  1.3610
  453MOL0     H59769  10.626   8.292   5.444 -0.3290 -0.4131  0.4595
  453MOL0     H59770  10.429   8.428   5.422  1.3343  0.1462  0.5246
  453MOL0     H59771  10.419   8.455   5.595  0.6769  0.7482 -0.8594
  453MOL0     H59772  10.416   8.202   5.624 -1.5580  1.3789  1.1266
  453MOL0     H59773  10.396   8.186   5.450 -1.0044  0.6909 -0.0972
  453MOL0     H59774  10.205   8.384   5.596 -1.0906 -0.8610  2.7757
  453MOL0     H59775  10.201   8.316   5.439  2.1209 -0.0936 -0.8066
  453MOL0     H59776  10.048   8.211   5.623 -0.7401 -2.5765  2.0716
  453MOL0     H59777  10.185   8.176   5.719  2.7722  0.2030 -0.3586
  453MOL0     H59778  11.225   8.427   5.921 -0.1193 -1.5777 -2.4588
  453MOL0     H59779  11.378   8.314   6.086 -2.0578  3.0325  0.6321
  453MOL0     H59780  11.388   7.935   6.370 -1.1820  2.0009  0.0524
  453MOL0     H59781  11.495   7.869   6.564 -1.4771 -0.4174 -2.6379
  453MOL0     H59782  10.539   7.001   6.548 -0.0055 -0.4631  1.7652
  453MOL0     H59783  10.354   6.981   6.384 -2.2389 -0.5206  0.2718
  453MOL0     H59784   9.961   6.773   6.373 -0.1739 -1.0466  0.9863
  453MOL0     H59785   9.741   6.780   6.290  0.7179  0.6945  0.6459
  453MOL0     H59786   9.599   6.608   6.223  0.3643  1.0625  0.8662
  453MOL0     H59787   9.517   6.580   6.066 -0.7505 -1.2760  0.7762
  453MOL0     H59788   9.377   6.732   6.215  0.2249  2.5812  2.4717
  453MOL0     H59789   9.502   6.834   6.248  1.8322 -0.3984 -0.2175
  453MOL0     H59790   9.400   6.827   5.961  1.8510 -1.0200  0.5795
  453MOL0     H59791   9.512   6.937   6.017 -0.9346  2.1311 -1.5635
  453MOL0     H59792   9.359   7.010   6.197 -0.3413 -2.3195  1.0243
  453MOL0     H59793   9.336   7.061   6.027  0.0348 -0.8432 -0.6908
  453MOL0     H59794   8.989   6.841   6.100  0.5562 -1.6415  2.7937
  453MOL0     H59795   9.901   6.658   5.891  2.7543  2.1947 -0.3178
  453MOL0     H59796  10.115   6.662   5.999 -1.6952  0.7992 -3.4843
  454MOL0     O59797   3.231   4.184   6.972  0.4012  0.1474 -0.5476
  454MOL0     C59798   3.227   4.245   6.867 -0.2392  0.3567  0.8980
  454MOL0     O59799   3.119   4.248   6.779 -0.1263 -0.1837 -0.0786
  454MOL0     C59800   2.995   4.196   6.825 -0.7694  0.3784 -0.3520
  454MOL0     C59801   2.932   4.234   6.945 -0.2931  0.7564 -0.4713
  454MOL0     C59802   2.807   4.185   6.981  0.6185  0.3402 -0.6921
  454MOL0     C59803   2.741   4.097   6.894  0.0229  0.1590 -0.4943
  454MOL0     O59804   2.618   4.037   6.919 -0.1345  0.3115 -0.4870
  454MOL0     C59805   2.579   4.036   7.059 -0.5078  0.4745  0.4929
  454MOL0     C59806   2.455   3.954   7.099  0.2242 -0.1828  1.0619
  454MOL0     C59807   2.371   4.035   7.193 -0.1664 -0.0586 -0.0722
  454MOL0     C59808   2.247   3.962   7.233  0.4870 -0.3977 -0.6420
  454MOL0     C59809   2.140   4.044   7.309 -0.5617  0.1451 -0.3191
  454MOL0     C59810   2.016   3.964   7.320 -0.3736  0.1038  0.1336
  454MOL0     C59811   1.906   4.045   7.387 -0.4282 -0.0419 -0.3783
  454MOL0     C59812   1.781   3.954   7.393  0.1335 -0.3338 -0.1461
  454MOL0     N59813   1.658   4.029   7.434 -0.4741  0.1794  0.3197
  454MOL0     C59814   1.615   4.160   7.394 -0.7827  0.5856  0.3633
  454MOL0     C59815   1.487   4.167   7.426  0.3195 -0.2798 -0.0458
  454MOL0     C59816   1.409   4.297   7.399  0.5722  0.7941  0.3195
  454MOL0     C59817   1.271   4.301   7.463  0.2453  0.1244 -0.3603
  454MOL0     C59818   1.184   4.391   7.376  0.6637 -0.7482 -0.2212
  454MOL0     C59819   1.052   4.431   7.446 -0.4950 -0.5255  0.2192
  454MOL0     O59820   0.986   4.507   7.345  0.5168 -0.4439  0.5165
  454MOL0     C59821   0.854   4.544   7.363  0.3739 -1.0434 -0.2231
  454MOL0     C59822   0.781   4.597   7.250  0.4604 -0.6503  0.3121
  454MOL0     C59823   0.658   4.644   7.262  1.4551 -0.6512  0.3273
  454MOL0     C59824   0.589   4.641   7.389  0.1771 -0.6630  0.5138
  454MOL0     C59825   0.457   4.705   7.395  0.0467 -0.3866 -0.6681
  454MOL0     O59826   0.403   4.748   7.276  0.1751  0.0586 -0.3753
  454MOL0     C59827   0.271   4.772   7.274 -0.5592 -0.4668  1.0869
  454MOL0     C59828   0.223   4.907   7.288  0.0966  0.0026  0.2490
  454MOL0     C59829   0.084   4.927   7.293  0.6671  0.3387 -0.0696
  454MOL0     C59830  -0.003   4.816   7.283  0.1594  0.3054 -0.2344
  454MOL0     O59831  -0.137   4.847   7.296  0.6645  0.1142  0.1427
  454MOL0     C59832  -0.232   4.749   7.261 -0.1613  0.1276 -0.0618
  454MOL0     C59833  -0.371   4.783   7.274  0.3393  0.1174 -0.4354
  454MOL0     C59834  -0.404   4.881   7.165  0.4902 -0.6349  0.7890
  454MOL0     C59835  -0.542   4.933   7.188  0.1574  0.5181  0.0155
  454MOL0     C59836  -0.568   5.032   7.072  0.5064 -0.2195  0.2975
  454MOL0     C59837  -0.686   5.128   7.082  0.1419  0.1467  0.4443
  454MOL0     C59838  -0.726   5.165   7.221 -0.3392 -0.0522  0.6703
  454MOL0     C59839  -0.837   5.265   7.208  0.0795  0.7314 -0.5122
  454MOL0    Cl59840  -0.991   5.187   7.156  0.3001  0.3153  0.1551
  454MOL0     C59841   0.047   4.692   7.238 -0.2395 -0.3213  0.1254
  454MOL0     C59842   0.185   4.672   7.247 -0.0101  0.5234  0.1402
  454MOL0     O59843   0.403   4.717   7.505 -0.1532 -0.1622  0.9221
  454MOL0     C59844   0.656   4.593   7.503  1.1116 -0.4777  1.1259
  454MOL0     C59845   0.781   4.540   7.486  1.2466  0.6753  0.3357
  454MOL0     N59846   1.451   4.054   7.501  0.0215 -0.1590 -0.1972
  454MOL0     N59847   1.555   3.964   7.498 -0.0377  0.8133 -0.2216
  454MOL0     C59848   2.796   4.065   6.768 -0.6391  1.2166  0.1128
  454MOL0     C59849   2.929   4.121   6.729  0.0202  0.1229  1.0097
  454MOL0     C59850   3.336   4.333   6.827 -0.3850  0.3760  0.6219
  454MOL0     C59851   3.429   4.379   6.930  0.2823  0.1839 -0.3313
  454MOL0     C59852   3.529   4.466   6.889  0.3993  0.0548 -0.4397
  454MOL0     C59853   3.550   4.490   6.748 -0.3016  0.4403 -0.0213
  454MOL0     O59854   3.653   4.559   6.698  0.1326 -0.3793 -0.4534
  454MOL0     C59855   3.741   4.612   6.799  0.4393 -0.0860  0.1504
  454MOL0     C59856   3.853   4.689   6.731  0.3181 -0.4722 -0.1597
  454MOL0     C59857   3.953   4.602   6.651  0.5968  0.7866 -1.1742
  454MOL0     C59858   4.008   4.663   6.514 -0.3339  0.2963  0.6816
  454MOL0     C59859   4.083   4.790   6.522 -0.0738  0.5669 -0.0447
  454MOL0     C59860   4.156   4.889   6.513  0.0128 -0.0260  0.0987
  454MOL0     C59861   3.469   4.434   6.651 -0.0558  0.4954  0.2340
  454MOL0     C59862   3.363   4.352   6.690 -0.0334  0.1887  0.1316
  454MOL0     H59863   2.973   4.305   7.016  3.3356 -1.2792 -0.2473
  454MOL0     H59864   2.762   4.211   7.076  2.7003 -1.0871  0.7705
  454MOL0     H59865   2.541   4.139   7.066 -2.9723  0.0055 -2.9231
  454MOL0     H59866   2.657   4.020   7.134  0.8293 -0.3133 -1.0146
  454MOL0     H59867   2.490   3.859   7.139 -3.3605 -1.3096  1.8855
  454MOL0     H59868   2.395   3.947   7.008 -1.4269 -0.2779  2.1106
  454MOL0     H59869   2.336   4.121   7.135  3.3822  1.0436 -0.8038
  454MOL0     H59870   2.420   4.069   7.284 -1.7107  0.2597  0.6822
  454MOL0     H59871   2.195   3.917   7.147 -1.6740 -2.2064  1.4519
  454MOL0     H59872   2.277   3.876   7.293  1.7705 -0.0456 -0.7620
  454MOL0     H59873   2.123   4.128   7.240  1.3059  0.4484 -0.4595
  454MOL0     H59874   2.172   4.076   7.408 -1.8637  0.5186 -0.0050
  454MOL0     H59875   2.030   3.870   7.373 -1.7930  0.1759  0.6752
  454MOL0     H59876   1.992   3.939   7.216 -0.3543  1.5982 -0.2603
  454MOL0     H59877   1.939   4.083   7.484 -0.5620  0.2727 -0.4550
  454MOL0     H59878   1.878   4.131   7.325 -0.1086 -0.7051 -1.4574
  454MOL0     H59879   1.800   3.870   7.460  1.8167 -0.4387 -0.6990
  454MOL0     H59880   1.773   3.910   7.293  1.6866  1.3029 -1.0575
  454MOL0     H59881   1.681   4.238   7.359 -1.5864  1.7884  1.4031
  454MOL0     H59882   1.404   4.307   7.290 -1.8644  0.2138  0.3273
  454MOL0     H59883   1.465   4.381   7.442  0.4413  1.3319 -0.5302
  454MOL0     H59884   1.281   4.344   7.563 -2.2787  1.1048 -0.4603
  454MOL0     H59885   1.218   4.206   7.470  1.0218 -0.3236 -0.4543
  454MOL0     H59886   1.235   4.485   7.352 -0.4555 -0.4524 -1.5650
  454MOL0     H59887   1.154   4.342   7.283 -1.6157  0.8080 -0.4056
  454MOL0     H59888   1.053   4.486   7.541  1.5058 -2.7073  1.5825
  454MOL0     H59889   0.996   4.340   7.468  0.2875 -0.8284  1.0197
  454MOL0     H59890   0.838   4.621   7.161 -0.3249 -0.3619 -0.1177
  454MOL0     H59891   0.605   4.700   7.186  0.8328  0.7204  1.7264
  454MOL0     H59892   0.280   4.997   7.310 -1.5882  0.7970  1.6604
  454MOL0     H59893   0.042   5.025   7.311  3.1989  1.1505  2.1116
  454MOL0     H59894  -0.219   4.661   7.326 -1.3767  1.8477  2.7192
  454MOL0     H59895  -0.212   4.713   7.160 -1.0264 -1.5955  0.3394
  454MOL0     H59896  -0.387   4.815   7.378 -1.4453  1.0625 -0.9574
  454MOL0     H59897  -0.427   4.691   7.261 -0.3597  0.6941 -1.6580
  454MOL0     H59898  -0.404   4.825   7.071 -2.4867  0.7729 -0.1816
  454MOL0     H59899  -0.336   4.967   7.165  0.0612 -0.2948  0.7558
  454MOL0     H59900  -0.613   4.852   7.206  0.3449  1.0599  4.0937
  454MOL0     H59901  -0.539   4.988   7.282  1.1609 -1.2175  1.0426
  454MOL0     H59902  -0.574   4.973   6.980 -0.3773 -0.9660  0.8230
  454MOL0     H59903  -0.482   5.097   7.054 -1.4217  2.0732 -1.4863
  454MOL0     H59904  -0.757   5.062   7.030  1.6369 -0.3310 -1.1057
  454MOL0     H59905  -0.673   5.220   7.025 -3.3248 -0.8264 -2.3233
  454MOL0     H59906  -0.768   5.081   7.276  0.1572 -0.9266 -0.2536
  454MOL0     H59907  -0.641   5.219   7.263  1.1321 -0.8128 -1.1821
  454MOL0     H59908  -0.818   5.349   7.139 -2.2054  0.2267 -1.8725
  454MOL0     H59909  -0.863   5.289   7.311  1.1833 -0.9355  0.1863
  454MOL0     H59910  -0.024   4.617   7.202 -0.6022  0.9520 -2.0174
  454MOL0     H59911   0.211   4.567   7.233 -2.9478 -0.5756  1.9467
  454MOL0     H59912   0.619   4.590   7.605  3.0063 -0.6741  1.8510
  454MOL0     H59913   0.824   4.503   7.578  3.2467  0.5904 -0.5712
  454MOL0     H59914   2.755   3.994   6.698  1.0937 -1.6269  1.7700
  454MOL0     H59915   2.979   4.105   6.634  0.7820  0.2133  1.3909
  454MOL0     H59916   3.398   4.365   7.034 -0.5657  0.8883 -0.4766
  454MOL0     H59917   3.585   4.503   6.974 -1.1283  1.3141  0.0804
  454MOL0     H59918   3.784   4.535   6.863  1.5121  0.9979  0.7788
  454MOL0     H59919   3.693   4.673   6.876 -2.6005 -1.9841 -0.0852
  454MOL0     H59920   3.795   4.762   6.675  0.3343 -0.7623 -0.5632
  454MOL0     H59921   3.909   4.736   6.812  0.6340  0.7441 -1.0555
  454MOL0     H59922   3.915   4.500   6.640  2.0686  0.2622 -1.6566
  454MOL0     H59923   4.046   4.597   6.709  1.4740 -1.2693 -2.6028
  454MOL0     H59924   4.071   4.588   6.465 -0.7194  1.7627 -2.2739
  454MOL0     H59925   3.919   4.679   6.452 -2.3104  1.6706  3.6198
  454MOL0     H59926   4.196   4.989   6.517  0.5598 -0.2840  2.0270
  454MOL0     H59927   3.516   4.436   6.553  2.7980 -1.1693  1.4312
  454MOL0     H59928   3.300   4.315   6.610  2.7315  1.2016 -2.7251
  455MOL0     O59929   0.631   4.617   8.928  0.0651 -0.1001 -0.7454
  455MOL0     C59930   0.625   4.715   8.852 -0.6776  0.7265  0.2093
  455MOL0     O59931   0.517   4.801   8.839 -0.1908  0.4319  0.1239
  455MOL0     C59932   0.398   4.757   8.859  0.4908 -0.5118  0.5484
  455MOL0     C59933   0.345   4.712   8.977  0.1891 -0.1234  0.3113
  455MOL0     C59934   0.213   4.667   8.974 -0.6805 -0.7067  0.8834
  455MOL0     C59935   0.129   4.685   8.864  0.1317 -0.5033 -0.6105
  455MOL0     O59936  -0.008   4.666   8.879  0.1726 -0.2447  0.2895
  455MOL0     C59937  -0.083   4.781   8.851  0.1096 -0.5643  0.4282
  455MOL0     C59938  -0.228   4.734   8.877 -0.2724 -0.0182  0.2132
  455MOL0     C59939  -0.334   4.820   8.800  0.3315 -0.0823  0.0345
  455MOL0     C59940  -0.325   4.799   8.645  0.3016 -0.1627 -0.1382
  455MOL0     C59941  -0.448   4.848   8.565  0.6587  0.1526  0.3911
  455MOL0     C59942  -0.583   4.801   8.619 -0.7423  0.9374 -0.0705
  455MOL0     C59943  -0.698   4.833   8.516  0.4022 -0.0058 -0.4983
  455MOL0     C59944  -0.831   4.792   8.573 -0.6981 -0.5609 -0.5711
  455MOL0     N59945  -0.943   4.810   8.479 -0.5716  0.5588 -0.0292
  455MOL0     C59946  -0.986   4.939   8.441  1.0849 -0.8863  0.5167
  455MOL0     C59947  -1.079   4.913   8.345  0.9138 -0.2881  0.0322
  455MOL0     C59948  -1.163   5.008   8.261 -0.1764 -0.0898  0.0442
  455MOL0     C59949  -1.232   5.109   8.346  0.4364  0.0434 -0.2309
  455MOL0     C59950  -1.332   5.189   8.262 -0.0607 -0.4061 -0.2718
  455MOL0     C59951  -1.410   5.306   8.333 -0.4936  0.6474  0.1334
  455MOL0     O59952  -1.509   5.253   8.421 -0.1317  0.7058 -0.3808
  455MOL0     C59953  -1.589   5.330   8.496  0.1284 -0.2306 -0.5419
  455MOL0     C59954  -1.686   5.268   8.567  0.3113  0.6561 -0.2967
  455MOL0     C59955  -1.766   5.331   8.663 -0.0790 -0.5028 -0.1540
  455MOL0     C59956  -1.747   5.461   8.693  0.1247 -0.6776  0.4048
  455MOL0     C59957  -1.837   5.542   8.787 -0.8701 -0.1471  0.2697
  455MOL0     O59958  -1.923   5.477   8.870 -0.1995  0.4520 -0.2958
  455MOL0     C59959  -2.017   5.548   8.936 -0.1508 -0.0210 -0.0957
  455MOL0     C59960  -2.092   5.654   8.878 -0.7927 -0.1540  0.9045
  455MOL0     C59961  -2.199   5.712   8.943 -0.3028 -0.2425 -1.0402
  455MOL0     C59962  -2.227   5.685   9.072 -0.3326  0.5098 -0.0580
  455MOL0     O59963  -2.322   5.766   9.136  0.7826  0.7276  0.3223
  455MOL0     C59964  -2.336   5.761   9.276  0.1942 -0.0690  0.2973
  455MOL0     C59965  -2.463   5.845   9.305  0.4285  0.2693  0.2709
  455MOL0     C59966  -2.486   5.846   9.455  0.6316  0.3128  0.2416
  455MOL0     C59967  -2.605   5.933   9.488 -0.0951  0.1920  0.8002
  455MOL0     C59968  -2.737   5.863   9.451 -0.5349  0.2192  0.3068
  455MOL0     C59969  -2.859   5.949   9.481  0.2607  0.3957  0.0505
  455MOL0     C59970  -2.999   5.884   9.458  0.8782 -0.5021 -0.4095
  455MOL0     C59971  -3.113   5.982   9.427 -0.0307  0.0477  0.6591
  455MOL0    Cl59972  -3.127   6.106   9.555 -0.1692 -0.2854 -0.0612
  455MOL0     C59973  -2.164   5.568   9.127  0.5362  0.2332  0.5759
  455MOL0     C59974  -2.054   5.502   9.061  0.4458  0.2167  0.0190
  455MOL0     O59975  -1.834   5.663   8.769  0.0869  0.3762  0.8529
  455MOL0     C59976  -1.649   5.536   8.613  0.1687  0.2547  1.1218
  455MOL0     C59977  -1.566   5.470   8.523 -0.7145  0.6328  0.4662
  455MOL0     N59978  -1.099   4.777   8.336  0.2189 -0.0004 -0.1704
  455MOL0     N59979  -1.019   4.712   8.412  0.3501  0.0532  0.4806
  455MOL0     C59980   0.184   4.735   8.746  0.2846  0.8776 -0.2361
  455MOL0     C59981   0.319   4.767   8.739  1.1934  0.0487  0.1212
  455MOL0     C59982   0.739   4.752   8.758  0.0468 -0.1441  0.5907
  455MOL0     C59983   0.869   4.721   8.800  0.3671  0.3862 -0.3644
  455MOL0     C59984   0.980   4.750   8.721 -0.4322 -0.1160 -0.5982
  455MOL0     C59985   0.965   4.817   8.603  0.2066  0.5284  1.0281
  455MOL0     O59986   1.058   4.859   8.507  0.5133  0.0909 -1.0487
  455MOL0     C59987   1.196   4.851   8.539  1.0166 -0.5904 -0.1620
  455MOL0     C59988   1.267   4.907   8.417  0.8875  0.5729 -0.5902
  455MOL0     C59989   1.413   4.906   8.437 -0.7625 -0.4389  0.2666
  455MOL0     C59990   1.481   4.977   8.319  0.2332  0.1438  0.1026
  455MOL0     C59991   1.457   4.902   8.192  0.3627  0.5485  0.2427
  455MOL0     C59992   1.436   4.844   8.086 -0.1947  0.0285  0.3220
  455MOL0     C59993   0.837   4.858   8.572  0.2765  0.2113 -0.5475
  455MOL0     C59994   0.727   4.835   8.645 -0.4526  0.8070 -0.0214
  455MOL0     H59995   0.417   4.702   9.058  1.6681 -4.3340 -1.2138
  455MOL0     H59996   0.174   4.608   9.057  1.0573 -1.6467  1.0827
  455MOL0     H59997  -0.073   4.801   8.744 -3.4205 -4.0466 -0.8099
  455MOL0     H59998  -0.063   4.868   8.914 -1.7245 -1.1001  1.8408
  455MOL0     H59999  -0.255   4.738   8.983 -0.6819 -2.6389  0.2716
  455MOL0     H60000  -0.242   4.628   8.852  1.1798 -0.4723  1.1584
  455MOL0     H60001  -0.323   4.924   8.833 -0.5510 -0.6658  2.3818
  455MOL0     H60002  -0.432   4.795   8.840  0.3151  1.1273  0.8134
  455MOL0     H60003  -0.241   4.853   8.600 -2.5064  2.0381 -3.2412
  455MOL0     H60004  -0.317   4.692   8.627  1.2048  0.2876 -2.9645
  455MOL0     H60005  -0.438   4.822   8.460  3.8709 -0.7522  0.8001
  455MOL0     H60006  -0.449   4.958   8.572 -1.6969  0.1468  1.0229
  455MOL0     H60007  -0.589   4.854   8.714 -0.3788  0.1324  0.4135
  455MOL0     H60008  -0.565   4.694   8.630 -2.9013  0.7118  1.8938
  455MOL0     H60009  -0.698   4.941   8.495 -1.4789  0.0865 -0.2363
  455MOL0     H60010  -0.675   4.781   8.423 -0.4833  0.0342 -0.7516
  455MOL0     H60011  -0.859   4.839   8.668 -0.1107 -1.4515  0.0501
  455MOL0     H60012  -0.825   4.687   8.600 -1.1396 -0.0881  1.5305
  455MOL0     H60013  -0.947   5.038   8.466  0.3771  0.2829 -2.6079
  455MOL0     H60014  -1.235   4.952   8.202 -2.2236  1.3225  1.0971
  455MOL0     H60015  -1.095   5.060   8.193 -1.4812 -0.4244 -1.5781
  455MOL0     H60016  -1.155   5.175   8.387 -1.9906  2.7691  0.3218
  455MOL0     H60017  -1.282   5.062   8.431 -2.1316  1.3261 -0.9015
  455MOL0     H60018  -1.269   5.235   8.187  2.3850 -0.4706  1.6215
  455MOL0     H60019  -1.401   5.120   8.212 -2.7059  1.3512  0.7343
  455MOL0     H60020  -1.470   5.363   8.261 -2.2207 -0.0556  0.9529
  455MOL0     H60021  -1.338   5.374   8.379  1.3283 -0.0463 -1.5273
  455MOL0     H60022  -1.712   5.165   8.545 -0.3396  0.7071  0.2248
  455MOL0     H60023  -1.843   5.271   8.709  1.1684 -1.1070  1.2141
  455MOL0     H60024  -2.064   5.698   8.783  1.3491  2.5131  2.6582
  455MOL0     H60025  -2.235   5.808   8.910  1.1209  0.8123  0.3135
  455MOL0     H60026  -2.247   5.794   9.331  0.9125  2.2402 -2.0590
  455MOL0     H60027  -2.348   5.658   9.310  0.0113 -0.2531 -0.3298
  455MOL0     H60028  -2.550   5.801   9.256 -0.5835  0.8081  1.5279
  455MOL0     H60029  -2.450   5.945   9.262  1.5954 -0.8797 -2.2274
  455MOL0     H60030  -2.389   5.875   9.497  1.8732 -0.4901 -1.9517
  455MOL0     H60031  -2.504   5.749   9.502  1.8772  1.0879  2.4633
  455MOL0     H60032  -2.601   5.948   9.596  1.3104 -0.5271  0.8799
  455MOL0     H60033  -2.599   6.020   9.421  1.4783 -0.6386 -0.1973
  455MOL0     H60034  -2.739   5.765   9.499  0.5635  1.0140  2.0904
  455MOL0     H60035  -2.750   5.845   9.344 -0.8906 -2.6776  0.7511
  455MOL0     H60036  -2.846   6.040   9.423  0.5923 -0.2780 -0.9453
  455MOL0     H60037  -2.855   5.979   9.586 -1.5525 -1.5358  0.7629
  455MOL0     H60038  -2.981   5.818   9.372 -0.9413  1.3542 -2.3346
  455MOL0     H60039  -3.030   5.824   9.544  1.1456 -0.8285 -0.5379
  455MOL0     H60040  -3.208   5.927   9.424 -0.4802  0.7241  1.8709
  455MOL0     H60041  -3.096   6.028   9.329 -1.5434  4.7968  2.3168
  455MOL0     H60042  -2.206   5.527   9.218  0.3018 -3.3911 -1.0040
  455MOL0     H60043  -2.016   5.408   9.102 -0.7524 -0.0667  0.5439
  455MOL0     H60044  -1.633   5.641   8.636 -2.0164  0.4714  1.8505
  455MOL0     H60045  -1.488   5.527   8.473 -0.7845 -1.6744 -2.5602
  455MOL0     H60046   0.128   4.739   8.653 -0.3940  0.0523  0.1203
  455MOL0     H60047   0.359   4.803   8.645 -0.5799 -1.2413 -1.2127
  455MOL0     H60048   0.875   4.671   8.896 -0.5604 -1.0162 -0.9950
  455MOL0     H60049   1.082   4.730   8.755 -1.2010 -1.3137  1.1573
  455MOL0     H60050   1.236   4.750   8.552  0.3439 -0.8000  0.3272
  455MOL0     H60051   1.218   4.903   8.632 -2.5268 -0.5788  0.8035
  455MOL0     H60052   1.237   4.856   8.325 -0.4424  1.8628 -0.9005
  455MOL0     H60053   1.214   5.001   8.407 -1.5063 -0.3497  2.1270
  455MOL0     H60054   1.459   4.808   8.451 -0.6791 -0.3688  0.5124
  455MOL0     H60055   1.448   4.968   8.521  1.9818 -0.1761 -0.9382
  455MOL0     H60056   1.438   5.078   8.314  0.1215  0.0887 -0.0592
  455MOL0     H60057   1.587   4.989   8.341  1.0826 -1.6513 -2.5363
  455MOL0     H60058   1.426   4.790   7.994  0.4410  2.2333 -1.1187
  455MOL0     H60059   0.828   4.914   8.480  1.6601  0.3739 -0.6107
  455MOL0     H60060   0.632   4.875   8.609 -1.8435 -2.4583 -0.3235
  456MOL0     O60061   2.857   6.920   1.637 -0.9180 -0.4375  0.5010
  456MOL0     C60062   2.875   7.034   1.676 -0.6165 -0.7538 -0.6860
  456MOL0     O60063   2.778   7.121   1.730 -0.8545 -0.2619  0.4551
  456MOL0     C60064   2.637   7.106   1.710  0.4302 -0.2470 -0.9738
  456MOL0     C60065   2.570   6.996   1.656 -0.3674 -0.3879 -0.3222
  456MOL0     C60066   2.437   6.989   1.661 -0.5222  0.2513 -0.0874
  456MOL0     C60067   2.350   7.079   1.722 -0.2747 -1.0636  0.6148
  456MOL0     O60068   2.215   7.056   1.719  0.1139  0.4645 -0.5741
  456MOL0     C60069   2.126   7.119   1.821  0.5336  0.5912 -0.6058
  456MOL0     C60070   1.982   7.099   1.780 -0.8702 -0.2633 -0.2354
  456MOL0     C60071   1.947   6.949   1.760 -0.0964 -0.1110  0.0581
  456MOL0     C60072   1.796   6.919   1.722  0.3090  0.1200 -0.0090
  456MOL0     C60073   1.776   6.763   1.690 -0.7189 -0.1540  0.2879
  456MOL0     C60074   1.836   6.681   1.803 -0.1433 -0.1641 -0.2220
  456MOL0     C60075   1.777   6.543   1.822 -0.0668  0.1418 -0.5361
  456MOL0     C60076   1.861   6.456   1.910  0.1857  0.6548  0.2123
  456MOL0     N60077   1.810   6.317   1.916  0.4251 -0.4537 -0.0782
  456MOL0     C60078   1.692   6.281   1.974 -0.0155 -0.0326  0.0858
  456MOL0     C60079   1.686   6.145   1.954  0.8118 -1.1157 -0.2716
  456MOL0     C60080   1.572   6.069   2.023 -0.8137  0.5570 -0.0759
  456MOL0     C60081   1.566   5.926   1.980 -0.3693 -1.1530  0.2969
  456MOL0     C60082   1.466   5.858   2.077  0.3995  0.0537 -0.8833
  456MOL0     C60083   1.419   5.730   2.019 -0.1214  0.0431 -0.3838
  456MOL0     O60084   1.357   5.661   2.121  0.2467  0.3601 -1.2040
  456MOL0     C60085   1.242   5.594   2.095  0.7026  0.2118 -0.5022
  456MOL0     C60086   1.129   5.662   2.043 -0.6941  0.3100 -0.3109
  456MOL0     C60087   1.006   5.590   2.026  0.5935  0.7422  0.6431
  456MOL0     C60088   0.997   5.450   2.056 -0.5591 -0.0778  0.0629
  456MOL0     C60089   0.874   5.371   2.036 -0.3615 -1.1589 -0.1938
  456MOL0     O60090   0.877   5.238   2.066  0.3210  0.6743 -0.7810
  456MOL0     C60091   0.762   5.167   2.029  0.5053 -0.3703 -0.1672
  456MOL0     C60092   0.662   5.137   2.118  0.0159  0.5417 -0.3559
  456MOL0     C60093   0.553   5.057   2.077 -1.1784 -0.7919 -0.4652
  456MOL0     C60094   0.545   5.005   1.949  0.4163 -0.0315 -0.3032
  456MOL0     O60095   0.446   4.920   1.928 -0.4516  0.0369 -1.0331
  456MOL0     C60096   0.418   4.888   1.794 -0.8202 -0.3114  0.1065
  456MOL0     C60097   0.282   4.824   1.785 -0.1372  0.4781  0.1411
  456MOL0     C60098   0.159   4.912   1.829 -0.0263  0.4895 -0.0507
  456MOL0     C60099   0.023   4.846   1.814  0.0204  0.7761  0.2310
  456MOL0     C60100  -0.095   4.926   1.862  0.2538 -0.6168  0.4517
  456MOL0     C60101  -0.223   4.853   1.842 -0.2414 -0.0804  0.0535
  456MOL0     C60102  -0.344   4.951   1.854 -0.3606 -0.6462  0.4739
  456MOL0     C60103  -0.349   5.061   1.747 -0.1799  0.7972  0.7132
  456MOL0    Cl60104  -0.523   5.091   1.757 -0.0634  0.5368  0.2408
  456MOL0     C60105   0.650   5.037   1.860 -0.1778 -0.6303 -0.7807
  456MOL0     C60106   0.752   5.119   1.902 -0.1458 -0.7786  0.8054
  456MOL0     O60107   0.775   5.430   1.992 -0.1657 -0.1832 -0.6942
  456MOL0     C60108   1.111   5.390   2.110  0.0692 -0.0492  0.6270
  456MOL0     C60109   1.230   5.458   2.140 -0.6522  0.2696  0.6651
  456MOL0     N60110   1.795   6.107   1.884  0.1022 -0.3092 -0.4331
  456MOL0     N60111   1.860   6.209   1.846 -0.1900  0.3451 -0.8248
  456MOL0     C60112   2.417   7.191   1.783 -0.6159  0.6992 -0.3667
  456MOL0     C60113   2.556   7.203   1.779  0.2760 -0.0106  0.2389
  456MOL0     C60114   3.019   7.067   1.670  0.4438 -0.1687 -0.2788
  456MOL0     C60115   3.112   7.023   1.565  0.2384 -0.3017 -0.3472
  456MOL0     C60116   3.243   7.059   1.582 -0.2043 -0.3375 -0.2110
  456MOL0     C60117   3.284   7.153   1.684 -0.7039 -0.8237  0.7101
  456MOL0     O60118   3.420   7.180   1.681 -0.5712 -0.0472 -0.3188
  456MOL0     C60119   3.470   7.269   1.784  1.2448  0.2689 -0.2013
  456MOL0     C60120   3.627   7.277   1.785  0.4028 -0.4792  0.1155
  456MOL0     C60121   3.684   7.142   1.808 -0.5938  0.7393 -0.5045
  456MOL0     C60122   3.838   7.153   1.823 -0.3915  0.3633 -0.0804
  456MOL0     C60123   3.906   7.184   1.698 -0.1390  0.3256  0.2728
  456MOL0     C60124   3.955   7.199   1.585 -0.2450  0.1005 -0.2844
  456MOL0     C60125   3.191   7.214   1.769 -0.4324  0.2065  0.2189
  456MOL0     C60126   3.065   7.163   1.771  0.0787  0.0234 -0.0255
  456MOL0     H60127   2.628   6.909   1.627  1.1183  0.1544  0.8795
  456MOL0     H60128   2.395   6.907   1.604  0.8433 -1.3845  1.1776
  456MOL0     H60129   2.140   7.227   1.830  1.4571  0.2932  2.7736
  456MOL0     H60130   2.141   7.071   1.918  1.7269 -0.1594 -1.1387
  456MOL0     H60131   1.958   7.163   1.695 -1.8436  0.6857  0.7058
  456MOL0     H60132   1.922   7.139   1.862 -0.0330  0.5740 -0.0054
  456MOL0     H60133   1.974   6.903   1.855 -1.8991 -1.9289 -0.2337
  456MOL0     H60134   2.005   6.908   1.677 -1.5768  1.6928 -1.9869
  456MOL0     H60135   1.728   6.945   1.804 -1.9069 -2.2189 -0.9630
  456MOL0     H60136   1.760   6.979   1.639 -0.7417  3.8279  2.8431
  456MOL0     H60137   1.826   6.744   1.595  2.4409  3.4115  0.9849
  456MOL0     H60138   1.668   6.749   1.682 -1.0551  1.5933  1.2712
  456MOL0     H60139   1.830   6.739   1.895  2.8899  1.3214 -0.8083
  456MOL0     H60140   1.941   6.674   1.772 -0.2748  1.4139 -1.1039
  456MOL0     H60141   1.678   6.559   1.865 -1.1356  1.7931 -3.4068
  456MOL0     H60142   1.762   6.499   1.723 -0.1983  1.1104 -0.9587
  456MOL0     H60143   1.874   6.505   2.007  0.8148 -1.4880  1.3034
  456MOL0     H60144   1.957   6.437   1.860 -0.2665 -1.5133  0.0418
  456MOL0     H60145   1.616   6.332   2.034 -1.0424 -1.7191  0.2931
  456MOL0     H60146   1.476   6.122   2.016 -0.4086  1.4197  0.5854
  456MOL0     H60147   1.599   6.076   2.129  0.8731  0.7917 -0.4860
  456MOL0     H60148   1.659   5.868   1.978  0.1440 -0.3486  0.3912
  456MOL0     H60149   1.516   5.925   1.883 -1.7788 -0.9518  0.9905
  456MOL0     H60150   1.525   5.830   2.165  0.9631  2.3747 -0.4594
  456MOL0     H60151   1.380   5.919   2.107  0.7483 -0.3500  1.0777
  456MOL0     H60152   1.500   5.670   1.978 -1.5600 -1.9128 -0.5124
  456MOL0     H60153   1.352   5.757   1.937  2.0292  3.5341 -1.1904
  456MOL0     H60154   1.139   5.769   2.030  0.3199  0.4160  1.1310
  456MOL0     H60155   0.921   5.637   1.978  0.3554 -3.7634 -4.3556
  456MOL0     H60156   0.677   5.172   2.219  1.3515  0.4629 -0.5075
  456MOL0     H60157   0.473   5.023   2.142  1.2415 -0.1303  3.1750
  456MOL0     H60158   0.487   4.806   1.773 -2.5831 -1.7800 -0.1304
  456MOL0     H60159   0.433   4.966   1.718 -2.7606  0.9808  0.9849
  456MOL0     H60160   0.295   4.731   1.840  0.2468 -0.2422 -1.1418
  456MOL0     H60161   0.257   4.787   1.685  0.4207 -3.2985  1.2530
  456MOL0     H60162   0.147   5.000   1.766 -3.2470  1.2034  1.3492
  456MOL0     H60163   0.180   4.951   1.929  3.1003 -2.3768  0.5998
  456MOL0     H60164   0.006   4.820   1.710  1.3593 -2.1282  0.6457
  456MOL0     H60165   0.034   4.753   1.871 -0.6252  0.6313  0.1221
  456MOL0     H60166  -0.101   5.023   1.813 -1.5966 -0.2542  1.2871
  456MOL0     H60167  -0.083   4.963   1.964  2.3359  0.0404  0.0012
  456MOL0     H60168  -0.235   4.776   1.919 -0.6631 -0.7725 -0.7019
  456MOL0     H60169  -0.235   4.808   1.743  1.0979  1.0189 -0.6421
  456MOL0     H60170  -0.432   4.890   1.832 -0.2352 -0.7185  0.1605
  456MOL0     H60171  -0.351   4.993   1.954  2.3721  0.7029  0.2003
  456MOL0     H60172  -0.316   5.018   1.652  1.9531  0.2150  1.6678
  456MOL0     H60173  -0.278   5.138   1.776  1.9061  0.0660 -2.0280
  456MOL0     H60174   0.651   4.994   1.760 -3.9054  0.8020 -1.5999
  456MOL0     H60175   0.819   5.161   1.828 -1.8315  0.4986 -0.0715
  456MOL0     H60176   1.107   5.284   2.130 -0.8615 -0.3139 -0.7966
  456MOL0     H60177   1.314   5.404   2.183 -1.9410 -2.8442 -0.4479
  456MOL0     H60178   2.357   7.268   1.831  0.3572  0.0001  2.0813
  456MOL0     H60179   2.610   7.285   1.826  0.9142  0.8997 -1.9261
  456MOL0     H60180   3.077   6.949   1.493 -2.8885  1.0457 -0.3501
  456MOL0     H60181   3.321   7.020   1.518 -1.5860 -0.9614 -1.5624
  456MOL0     H60182   3.421   7.231   1.874 -5.5685  1.4498 -2.7614
  456MOL0     H60183   3.428   7.368   1.766  0.6524  0.2680  1.0667
  456MOL0     H60184   3.658   7.312   1.686 -2.4137  1.2527 -0.2603
  456MOL0     H60185   3.664   7.345   1.862  1.1804  1.5686 -1.9481
  456MOL0     H60186   3.660   7.074   1.726 -1.7902 -0.4273  0.7683
  456MOL0     H60187   3.640   7.095   1.896 -1.6656 -1.5179 -2.1392
  456MOL0     H60188   3.858   7.241   1.886 -5.7098  2.2632 -0.5124
  456MOL0     H60189   3.876   7.061   1.867 -1.3207 -1.1931 -2.3852
  456MOL0     H60190   3.984   7.200   1.482 -0.1108 -1.8332 -0.3036
  456MOL0     H60191   3.219   7.285   1.846  0.1715 -1.3716  1.5098
  456MOL0     H60192   2.998   7.200   1.848  2.0563  0.2036  1.6847
  457MOL0     O60193   1.417   3.335  10.511 -0.3867 -0.0051  0.1967
  457MOL0     C60194   1.459   3.222  10.537 -0.9974 -0.1693  0.2846
  457MOL0     O60195   1.382   3.118  10.547  0.5008  0.6550 -0.5100
  457MOL0     C60196   1.249   3.140  10.568  0.7697  0.0739 -1.0153
  457MOL0     C60197   1.193   3.170  10.701 -0.0474 -0.0220  0.0446
  457MOL0     C60198   1.059   3.192  10.718  0.8244 -1.0238 -0.4039
  457MOL0     C60199   0.973   3.179  10.609 -0.1225 -0.0403  0.4458
  457MOL0     O60200   0.837   3.173  10.613  0.6586 -0.4924  0.7074
  457MOL0     C60201   0.767   3.226  10.724  0.4988 -0.3170 -0.9623
  457MOL0     C60202   0.613   3.219  10.706  0.0473  0.2985 -0.0187
  457MOL0     C60203   0.565   3.255  10.558  0.6167  0.3022  0.3620
  457MOL0     C60204   0.408   3.284  10.570  0.2625 -0.5205  0.1694
  457MOL0     C60205   0.363   3.354  10.441 -0.4238  0.3008 -0.5179
  457MOL0     C60206   0.340   3.254  10.328 -0.1945  0.0003  0.0888
  457MOL0     C60207   0.304   3.320  10.197  0.4761  0.0185  0.0559
  457MOL0     C60208   0.163   3.395  10.194 -0.2673 -0.4309 -0.2881
  457MOL0     N60209   0.122   3.406  10.064  0.1757  0.4782  0.1489
  457MOL0     C60210   0.042   3.322   9.994 -0.0835  0.0527 -0.2527
  457MOL0     C60211   0.021   3.368   9.867  0.2253 -0.1672 -0.2760
  457MOL0     C60212  -0.068   3.309   9.757 -0.4650  0.3039 -0.0284
  457MOL0     C60213  -0.047   3.359   9.616  0.1473  0.3586 -1.0134
  457MOL0     C60214  -0.089   3.508   9.588  0.3886  0.1561  0.5174
  457MOL0     C60215  -0.072   3.554   9.439  0.7822 -0.2186  0.4688
  457MOL0     O60216  -0.097   3.691   9.418  0.4126  0.9390  0.3918
  457MOL0     C60217  -0.236   3.730   9.414 -0.1727 -0.8893  0.9130
  457MOL0     C60218  -0.266   3.843   9.488 -0.6851 -0.2584  0.4034
  457MOL0     C60219  -0.396   3.899   9.487 -0.0169 -0.7555 -0.5086
  457MOL0     C60220  -0.499   3.844   9.423 -0.2792 -0.4346 -0.3321
  457MOL0     C60221  -0.643   3.896   9.428 -0.5209  0.1174 -0.2507
  457MOL0     O60222  -0.732   3.823   9.350 -0.5162 -0.6540 -0.8618
  457MOL0     C60223  -0.863   3.861   9.344 -0.1527  0.4739 -0.3293
  457MOL0     C60224  -0.935   3.929   9.447  0.1461 -0.7205 -0.5139
  457MOL0     C60225  -1.074   3.950   9.441 -1.1000 -1.6950  0.0475
  457MOL0     C60226  -1.144   3.917   9.337  0.5940 -0.3886  1.5119
  457MOL0     O60227  -1.283   3.912   9.320  0.6230 -0.1006 -0.2676
  457MOL0     C60228  -1.368   3.989   9.409 -0.4608  0.3720  0.8868
  457MOL0     C60229  -1.517   3.985   9.383 -0.2679 -0.6287  0.6743
  457MOL0     C60230  -1.583   4.035   9.502  1.0559  0.0232 -0.6901
  457MOL0     C60231  -1.733   4.041   9.483  0.3733 -0.7863 -0.0509
  457MOL0     C60232  -1.798   4.131   9.600 -0.8774  0.7063 -0.1590
  457MOL0     C60233  -1.950   4.131   9.588  0.8497  0.4665 -0.4675
  457MOL0     C60234  -2.018   4.238   9.678  0.5326  0.2476  0.0570
  457MOL0     C60235  -2.165   4.240   9.653 -0.3958  0.4154 -0.2061
  457MOL0    Cl60236  -2.239   4.377   9.755  0.0282  0.6415  0.0027
  457MOL0     C60237  -1.079   3.863   9.225  0.8017  1.1164  0.5920
  457MOL0     C60238  -0.944   3.825   9.232  0.3287  0.5158  0.1714
  457MOL0     O60239  -0.668   4.005   9.489 -0.0989  0.2121 -0.0866
  457MOL0     C60240  -0.466   3.730   9.341  0.2040  0.7004 -0.7628
  457MOL0     C60241  -0.338   3.673   9.338  0.3468 -0.2960 -0.6307
  457MOL0     N60242   0.098   3.484   9.869 -0.9277  0.1022  0.6269
  457MOL0     N60243   0.152   3.505   9.983  0.5494  0.6489  0.0127
  457MOL0     C60244   1.024   3.162  10.481  0.4227 -0.6813 -0.5899
  457MOL0     C60245   1.160   3.135  10.466  0.7599  0.2210  0.8152
  457MOL0     C60246   1.602   3.196  10.560  0.1887  0.2577  0.0305
  457MOL0     C60247   1.687   3.312  10.543  1.2489 -0.3923 -0.5420
  457MOL0     C60248   1.824   3.300  10.575 -0.9938 -0.0661  0.3293
  457MOL0     C60249   1.873   3.173  10.621 -0.5892  0.8572  0.8933
  457MOL0     O60250   2.002   3.154  10.660 -0.1998  0.1197 -0.1220
  457MOL0     C60251   2.106   3.215  10.584 -0.0905  0.1761  0.2421
  457MOL0     C60252   2.221   3.123  10.596 -0.8070 -0.1927  0.8003
  457MOL0     C60253   2.350   3.159  10.519 -0.5785  0.8137  0.1133
  457MOL0     C60254   2.417   3.043  10.461  0.2293  0.0208  0.2304
  457MOL0     C60255   2.446   2.925  10.556 -0.4592 -0.5061 -0.2608
  457MOL0     C60256   2.476   2.839  10.634 -0.1233 -0.6307 -0.5227
  457MOL0     C60257   1.786   3.061  10.622 -0.1397  0.7271 -0.7192
  457MOL0     C60258   1.656   3.072  10.587  0.1235  0.2326  0.0177
  457MOL0     H60259   1.270   3.174  10.778  1.7866 -1.7355 -1.5813
  457MOL0     H60260   1.013   3.200  10.816 -0.3057  0.0040 -0.9816
  457MOL0     H60261   0.798   3.328  10.750 -0.6043 -0.5875  1.6631
  457MOL0     H60262   0.793   3.172  10.816  0.5341 -2.0755 -1.9565
  457MOL0     H60263   0.580   3.296  10.776  1.0570 -1.0438  2.0441
  457MOL0     H60264   0.583   3.118  10.736  0.1737  0.7615  1.8055
  457MOL0     H60265   0.582   3.176  10.485 -1.8571  1.4585 -1.6195
  457MOL0     H60266   0.610   3.348  10.521 -0.8882  0.4534 -1.2438
  457MOL0     H60267   0.351   3.192  10.587 -0.3320 -0.4846 -1.4650
  457MOL0     H60268   0.381   3.347  10.655  1.6046 -0.9797  0.9647
  457MOL0     H60269   0.428   3.436  10.411  0.0271 -1.0617 -3.5912
  457MOL0     H60270   0.265   3.401  10.456 -1.2965 -1.3854 -0.6281
  457MOL0     H60271   0.263   3.184  10.361 -2.6170  2.6234  0.3719
  457MOL0     H60272   0.432   3.202  10.298  0.2146  0.3548  0.6965
  457MOL0     H60273   0.378   3.397  10.174 -0.5140  0.8394 -0.5102
  457MOL0     H60274   0.313   3.244  10.119  3.4326  0.7146 -0.3928
  457MOL0     H60275   0.160   3.490  10.248 -3.4264 -1.2612  1.2455
  457MOL0     H60276   0.099   3.322  10.246 -1.0441 -0.5632 -1.4071
  457MOL0     H60277  -0.001   3.228  10.027  0.2653  1.0172  3.3087
  457MOL0     H60278  -0.174   3.320   9.783 -0.4624  2.0027 -0.5968
  457MOL0     H60279  -0.047   3.203   9.769 -1.5982  0.3429  3.2546
  457MOL0     H60280  -0.101   3.291   9.551 -0.1972  0.3284 -0.6963
  457MOL0     H60281   0.058   3.364   9.584 -0.0071  0.4059 -1.5162
  457MOL0     H60282  -0.193   3.523   9.617 -0.0234 -2.4324  0.6459
  457MOL0     H60283  -0.035   3.579   9.652  2.0919 -0.0581 -0.6008
  457MOL0     H60284  -0.135   3.489   9.377 -3.6544  3.3452  0.7587
  457MOL0     H60285   0.036   3.552   9.417  0.5744  4.0400 -2.0179
  457MOL0     H60286  -0.181   3.885   9.542  1.1389 -1.3169 -1.5298
  457MOL0     H60287  -0.411   3.988   9.547  2.9802 -1.1576  1.0325
  457MOL0     H60288  -0.889   3.950   9.543 -0.7594 -0.0035 -0.2228
  457MOL0     H60289  -1.113   3.998   9.531 -3.1066 -0.9302 -1.1770
  457MOL0     H60290  -1.335   4.094   9.405 -1.7616  0.7613 -0.2636
  457MOL0     H60291  -1.351   3.948   9.510  2.7919  1.3822  0.8834
  457MOL0     H60292  -1.551   3.885   9.352  0.0309 -0.2535 -0.9255
  457MOL0     H60293  -1.541   4.051   9.299  1.3999 -0.9230 -0.0717
  457MOL0     H60294  -1.550   4.135   9.533 -0.1398 -0.0647  1.0429
  457MOL0     H60295  -1.561   3.964   9.582 -1.0668 -0.2398 -0.2754
  457MOL0     H60296  -1.747   4.110   9.399  0.3203 -0.7879 -0.0418
  457MOL0     H60297  -1.777   3.942   9.475 -0.7714 -0.6972  3.4570
  457MOL0     H60298  -1.758   4.233   9.601 -2.3046  1.3022 -0.4146
  457MOL0     H60299  -1.782   4.078   9.694 -2.4704  1.8982  0.8356
  457MOL0     H60300  -1.995   4.032   9.602  0.5155  0.9834  3.0547
  457MOL0     H60301  -1.953   4.167   9.485  2.2640 -0.3848 -0.8383
  457MOL0     H60302  -2.009   4.223   9.786  0.5221 -1.4443 -0.1570
  457MOL0     H60303  -1.979   4.333   9.639 -1.7921  1.1623 -0.1972
  457MOL0     H60304  -2.207   4.144   9.683  0.9334 -0.3751 -0.7852
  457MOL0     H60305  -2.196   4.253   9.549  0.9539 -2.7564 -1.1092
  457MOL0     H60306  -1.128   3.830   9.134  4.0121  1.3884 -1.3781
  457MOL0     H60307  -0.894   3.772   9.151  1.3373  2.0731 -0.2756
  457MOL0     H60308  -0.537   3.679   9.277  2.1308 -1.7132 -1.1322
  457MOL0     H60309  -0.315   3.588   9.274  2.9056 -1.9627  2.2652
  457MOL0     H60310   0.965   3.152  10.391 -1.3485 -0.1106  0.4724
  457MOL0     H60311   1.201   3.121  10.366  2.9293 -1.2785  1.8288
  457MOL0     H60312   1.642   3.407  10.520 -0.1196 -0.5491  1.3314
  457MOL0     H60313   1.892   3.383  10.565  0.2046 -1.2365 -1.9053
  457MOL0     H60314   2.124   3.316  10.620 -1.7281 -0.4962  3.2582
  457MOL0     H60315   2.078   3.217  10.478 -2.5664  0.7363  0.8434
  457MOL0     H60316   2.250   3.123  10.702  1.8948  0.4260  0.1505
  457MOL0     H60317   2.187   3.023  10.569 -0.2244 -1.3353  3.8296
  457MOL0     H60318   2.416   3.193  10.600  1.6886 -2.3244 -0.2105
  457MOL0     H60319   2.324   3.227  10.438  1.7046 -1.1416 -2.4522
  457MOL0     H60320   2.351   3.004  10.383  0.6293  1.8236 -1.0780
  457MOL0     H60321   2.509   3.066  10.407  0.3848  0.3078  0.6115
  457MOL0     H60322   2.505   2.751  10.688  1.5338  0.0873 -0.1879
  457MOL0     H60323   1.819   2.968  10.667  0.7925  0.7702 -1.2873
  457MOL0     H60324   1.588   2.990  10.604 -2.0017  2.4728  3.6110
  458MOL0     O60325  10.455   1.275   2.572 -0.2218 -0.0051  0.4212
  458MOL0     C60326  10.418   1.310   2.682  0.0742 -0.4282  0.1183
  458MOL0     O60327  10.303   1.372   2.708 -0.0603 -0.6850 -0.0162
  458MOL0     C60328  10.211   1.381   2.602  0.4608 -0.1835  0.7899
  458MOL0     C60329  10.132   1.269   2.575 -0.8393  0.3704  0.9810
  458MOL0     C60330  10.039   1.273   2.478  0.6096  0.5491 -0.2036
  458MOL0     C60331  10.025   1.390   2.396 -0.6895 -0.6873  0.3926
  458MOL0     O60332   9.950   1.397   2.286 -0.6703 -1.4615  0.3384
  458MOL0     C60333   9.869   1.288   2.261  0.3043  0.1338 -0.6351
  458MOL0     C60334   9.788   1.322   2.134 -0.2152 -0.4470  0.1553
  458MOL0     C60335   9.722   1.197   2.078 -0.0484 -1.3830  0.1207
  458MOL0     C60336   9.601   1.230   1.988 -0.4496 -0.3359 -0.0869
  458MOL0     C60337   9.538   1.093   1.942  0.2632  0.6938  0.1815
  458MOL0     C60338   9.437   1.102   1.834  1.4477 -0.3551  0.3977
  458MOL0     C60339   9.389   0.960   1.784 -0.4283  0.0206 -0.1324
  458MOL0     C60340   9.292   0.949   1.661  0.0053 -0.1739  0.1532
  458MOL0     N60341   9.182   1.047   1.677 -0.4584  0.1295  0.5577
  458MOL0     C60342   9.131   1.117   1.564  0.4626  0.0086 -0.2417
  458MOL0     C60343   9.023   1.186   1.615  0.5749 -0.6291  0.3986
  458MOL0     C60344   8.938   1.279   1.533  0.3971 -0.4711  0.3247
  458MOL0     C60345   8.815   1.228   1.467  0.5118 -0.2855 -0.8133
  458MOL0     C60346   8.766   1.310   1.351 -0.7722 -0.4490  0.4243
  458MOL0     C60347   8.642   1.397   1.391  0.0685 -0.2167  0.5301
  458MOL0     O60348   8.608   1.469   1.271 -0.2600  0.5001  0.2637
  458MOL0     C60349   8.498   1.547   1.293  0.6304  0.4846 -0.0527
  458MOL0     C60350   8.397   1.548   1.200  0.2019 -0.2920  0.1783
  458MOL0     C60351   8.277   1.625   1.213 -0.2639 -0.1569  0.4156
  458MOL0     C60352   8.255   1.696   1.333 -0.3125 -0.4178  1.3970
  458MOL0     C60353   8.119   1.757   1.364 -0.2080 -1.4408 -0.0721
  458MOL0     O60354   8.032   1.779   1.263  0.2883  0.4011  0.0245
  458MOL0     C60355   7.918   1.860   1.271  0.8601 -0.0218  0.9245
  458MOL0     C60356   7.795   1.805   1.234 -0.2466  0.7566 -1.2842
  458MOL0     C60357   7.673   1.872   1.238 -0.2587 -0.0102 -0.4190
  458MOL0     C60358   7.676   2.008   1.274 -0.3864 -0.0589 -0.5528
  458MOL0     O60359   7.552   2.060   1.287  0.2083 -0.1723  0.0384
  458MOL0     C60360   7.521   2.181   1.352  0.3462  0.0989 -1.6354
  458MOL0     C60361   7.382   2.166   1.409  0.0847  0.8388 -0.5538
  458MOL0     C60362   7.278   2.108   1.315  0.7970  0.2474 -0.6462
  458MOL0     C60363   7.152   2.083   1.388 -0.3709 -1.1102  0.1496
  458MOL0     C60364   7.041   2.034   1.287  0.1275 -0.2700  0.3387
  458MOL0     C60365   6.978   2.151   1.212 -0.1929  1.0882 -0.3415
  458MOL0     C60366   6.852   2.105   1.123  0.0770 -0.2327 -0.0524
  458MOL0     C60367   6.737   2.062   1.209 -0.1089  0.1968  0.0028
  458MOL0    Cl60368   6.610   2.030   1.076 -0.4020  0.1600 -0.0689
  458MOL0     C60369   7.793   2.071   1.304 -0.0263 -0.3274 -0.3505
  458MOL0     C60370   7.915   1.998   1.302  1.0544 -0.1522  0.1937
  458MOL0     O60371   8.095   1.790   1.481 -0.0951 -0.0833 -0.3652
  458MOL0     C60372   8.365   1.699   1.424  0.1284 -0.4498 -0.0875
  458MOL0     C60373   8.482   1.632   1.403  0.1065  0.6595  0.6585
  458MOL0     N60374   9.004   1.143   1.750  0.6070 -0.3319  0.1004
  458MOL0     N60375   9.096   1.063   1.779  0.1556 -0.9372  0.0006
  458MOL0     C60376  10.115   1.497   2.412  0.3247 -0.7256  0.6668
  458MOL0     C60377  10.209   1.498   2.516 -0.2665  0.3647 -0.0391
  458MOL0     C60378  10.495   1.265   2.790 -0.3860  0.1673  0.0520
  458MOL0     C60379  10.427   1.265   2.915  0.2176  0.2338 -0.8779
  458MOL0     C60380  10.500   1.235   3.036  0.0115 -0.2364  0.6917
  458MOL0     C60381  10.628   1.198   3.036  0.0681 -0.0077  0.2253
  458MOL0     O60382  10.702   1.180   3.149 -0.9056  0.0187  0.8069
  458MOL0     C60383  10.687   1.052   3.201 -0.0535  0.0721  0.3631
  458MOL0     C60384  10.804   0.957   3.166 -0.4396  0.5582  0.7047
  458MOL0     C60385  10.933   0.976   3.242 -0.1237  0.4382  0.1177
  458MOL0     C60386  11.006   1.107   3.194 -0.0760 -0.3102 -0.7029
  458MOL0     C60387  11.131   1.104   3.269  1.1275  0.2175  0.6803
  458MOL0     C60388  11.232   1.116   3.333  0.7945  0.0079  0.0727
  458MOL0     C60389  10.696   1.200   2.915 -0.4408  1.0681 -0.6780
  458MOL0     C60390  10.633   1.238   2.791 -0.6475  0.4244  0.4603
  458MOL0     H60391  10.140   1.185   2.643 -1.9556 -1.4009 -0.9752
  458MOL0     H60392   9.975   1.189   2.454  0.1601  1.6713 -3.3665
  458MOL0     H60393   9.798   1.270   2.343  0.6606 -0.1948 -0.3998
  458MOL0     H60394   9.933   1.202   2.242 -0.5518 -0.7812  0.4546
  458MOL0     H60395   9.864   1.361   2.066  1.5262 -4.8182 -0.7582
  458MOL0     H60396   9.705   1.386   2.162 -0.9103 -2.4672  3.3152
  458MOL0     H60397   9.697   1.133   2.163  0.8029 -0.8136  0.8232
  458MOL0     H60398   9.807   1.151   2.026  1.5591  1.4906 -0.0015
  458MOL0     H60399   9.529   1.292   2.042  0.5594  1.1954 -0.4324
  458MOL0     H60400   9.634   1.292   1.904 -2.6843 -0.0451 -0.8205
  458MOL0     H60401   9.501   1.038   2.029 -2.1136  1.5029 -0.2436
  458MOL0     H60402   9.620   1.037   1.895  1.2075  3.7254 -2.0703
  458MOL0     H60403   9.480   1.162   1.753 -2.1350  0.4389 -1.1373
  458MOL0     H60404   9.356   1.167   1.869  2.3961  1.4086 -0.4996
  458MOL0     H60405   9.470   0.888   1.769 -2.3520 -2.5880  1.1997
  458MOL0     H60406   9.340   0.922   1.874  1.2582  0.5013  1.0277
  458MOL0     H60407   9.261   0.844   1.661  0.6410 -0.4038 -2.0841
  458MOL0     H60408   9.337   0.966   1.564 -5.1258  0.6697 -2.4464
  458MOL0     H60409   9.171   1.115   1.463 -0.2465 -0.0673 -0.5273
  458MOL0     H60410   9.000   1.318   1.452  0.2953 -2.7448 -0.9253
  458MOL0     H60411   8.898   1.362   1.592 -2.9693 -1.6998 -0.0117
  458MOL0     H60412   8.735   1.231   1.541  1.1283  1.0298 -0.1725
  458MOL0     H60413   8.823   1.123   1.438  2.2509  0.3352 -2.8685
  458MOL0     H60414   8.839   1.375   1.303 -1.8299  0.2565 -0.2618
  458MOL0     H60415   8.729   1.245   1.271 -2.4978  0.3373  0.5314
  458MOL0     H60416   8.685   1.456   1.473 -0.8746  0.9775  0.1868
  458MOL0     H60417   8.564   1.333   1.433 -0.4290 -0.3215 -0.5145
  458MOL0     H60418   8.406   1.492   1.107 -0.4797  0.7681 -0.5325
  458MOL0     H60419   8.197   1.620   1.140 -0.6187 -0.1570  0.8040
  458MOL0     H60420   7.803   1.701   1.206  0.7159  0.4704 -0.0403
  458MOL0     H60421   7.583   1.819   1.207 -1.4462  1.4178  0.4343
  458MOL0     H60422   7.537   2.269   1.290  2.8670  1.9279  1.3086
  458MOL0     H60423   7.576   2.196   1.446  0.3098  0.2849 -1.6454
  458MOL0     H60424   7.343   2.258   1.456  2.8460  0.3899  3.0862
  458MOL0     H60425   7.399   2.097   1.492  0.9531 -1.8792 -2.8617
  458MOL0     H60426   7.315   2.019   1.264  0.6896  1.1987 -2.4646
  458MOL0     H60427   7.252   2.182   1.238 -1.6992 -1.5524 -1.6638
  458MOL0     H60428   7.146   2.010   1.469 -1.6479  0.3316  1.4145
  458MOL0     H60429   7.125   2.183   1.423  1.7288 -1.1768  2.2545
  458MOL0     H60430   6.965   1.987   1.349 -0.3864  0.9980  0.7063
  458MOL0     H60431   7.087   1.961   1.220 -1.7656 -3.5798  2.3910
  458MOL0     H60432   7.053   2.202   1.152 -0.6963  0.3497 -1.6442
  458MOL0     H60433   6.938   2.225   1.281  1.5122  0.9999  0.7816
  458MOL0     H60434   6.816   2.192   1.067 -1.5401  1.4945  3.3405
  458MOL0     H60435   6.888   2.020   1.064  2.9050 -0.9264  2.4206
  458MOL0     H60436   6.709   2.144   1.275 -0.0565  0.2210 -0.0049
  458MOL0     H60437   6.744   1.974   1.273 -3.1482  0.2781  0.6111
  458MOL0     H60438   7.789   2.175   1.335 -2.2578 -0.8087  1.1871
  458MOL0     H60439   8.007   2.051   1.324  1.0293 -0.1603  0.3164
  458MOL0     H60440   8.365   1.765   1.510  4.1724 -0.2923 -0.0245
  458MOL0     H60441   8.555   1.641   1.483  1.1965  1.3380 -0.3799
  458MOL0     H60442  10.098   1.576   2.340 -1.3075  0.3442  2.1219
  458MOL0     H60443  10.279   1.580   2.526 -0.9181  1.0219 -0.7112
  458MOL0     H60444  10.321   1.282   2.928  0.9365  4.8998  1.4065
  458MOL0     H60445  10.444   1.231   3.129 -1.1746  1.2706  0.0919
  458MOL0     H60446  10.599   0.995   3.169  2.4070 -3.9412 -0.0055
  458MOL0     H60447  10.690   1.079   3.307  1.2753 -1.1807  0.6823
  458MOL0     H60448  10.783   0.852   3.191  1.5492  0.1878  0.9821
  458MOL0     H60449  10.823   0.953   3.059  1.7168 -3.3985  1.0401
  458MOL0     H60450  11.003   0.893   3.229 -2.8317 -1.5060 -4.9887
  458MOL0     H60451  10.909   0.982   3.348  2.9273 -1.0525  1.0104
  458MOL0     H60452  11.022   1.095   3.087  0.6881  0.2762 -0.6643
  458MOL0     H60453  10.945   1.192   3.225 -0.3633 -1.2288  1.4313
  458MOL0     H60454  11.336   1.119   3.361  0.4597 -0.5889  1.4639
  458MOL0     H60455  10.800   1.173   2.907 -0.9277 -1.3844  0.3564
  458MOL0     H60456  10.687   1.252   2.698 -0.0842 -1.5175  0.4640
  459MOL0     O60457  10.670   2.651   4.089  0.2399  0.1171  0.5059
  459MOL0     C60458  10.689   2.718   4.188 -0.7716  0.4248  0.4781
  459MOL0     O60459  10.600   2.764   4.276 -0.3548 -0.5930 -0.3559
  459MOL0     C60460  10.470   2.725   4.240 -0.7503 -0.1529 -0.0355
  459MOL0     C60461  10.385   2.811   4.176 -0.2298  0.5416 -0.1844
  459MOL0     C60462  10.254   2.777   4.131 -0.0387  0.7101  0.1979
  459MOL0     C60463  10.207   2.646   4.168 -0.8971 -0.5695 -0.1968
  459MOL0     O60464  10.089   2.593   4.129  0.2040  0.1556  0.1460
  459MOL0     C60465  10.039   2.643   3.996  0.4891  0.0047 -0.8499
  459MOL0     C60466   9.902   2.570   3.964  0.3628  0.3007  0.3233
  459MOL0     C60467   9.851   2.611   3.816 -0.3942  0.4316  0.0431
  459MOL0     C60468   9.723   2.535   3.784  1.4564  1.1021  0.0588
  459MOL0     C60469   9.623   2.581   3.675 -0.2044  0.1872 -0.3430
  459MOL0     C60470   9.554   2.709   3.727 -0.3530 -0.1349 -0.1845
  459MOL0     C60471   9.447   2.753   3.638  0.0484  0.5699  0.1025
  459MOL0     C60472   9.318   2.675   3.663  0.5584 -0.1170  0.7350
  459MOL0     N60473   9.222   2.718   3.558  0.3100 -0.2155 -0.2872
  459MOL0     C60474   9.158   2.837   3.573 -0.0728 -0.6724  0.3712
  459MOL0     C60475   9.074   2.841   3.459  0.1843 -0.3916 -0.6734
  459MOL0     C60476   8.970   2.942   3.424 -0.1912  0.1975 -1.1303
  459MOL0     C60477   8.840   2.894   3.466 -0.3615 -0.3209 -0.6283
  459MOL0     C60478   8.732   2.983   3.404 -0.0901  0.0174 -0.5490
  459MOL0     C60479   8.590   2.955   3.446 -0.3009 -0.2640  0.2919
  459MOL0     O60480   8.508   3.035   3.355 -0.1887 -0.3135 -0.6231
  459MOL0     C60481   8.380   2.995   3.333 -0.4835 -0.7065 -0.8344
  459MOL0     C60482   8.301   3.089   3.269  0.7640 -0.1294 -0.1762
  459MOL0     C60483   8.161   3.078   3.281 -0.6553 -0.5709 -0.4760
  459MOL0     C60484   8.106   2.962   3.342 -0.7396 -0.2729  0.2830
  459MOL0     C60485   7.958   2.949   3.340 -0.1795 -0.4382 -0.4922
  459MOL0     O60486   7.887   3.036   3.260 -0.2733  0.1301  0.9057
  459MOL0     C60487   7.754   3.040   3.260  0.4405  0.5415  0.4997
  459MOL0     C60488   7.686   2.923   3.219 -0.2165 -0.6081 -0.8128
  459MOL0     C60489   7.550   2.926   3.235  0.6049 -0.4543  0.2965
  459MOL0     C60490   7.477   3.034   3.284 -0.7453  0.2348 -0.6643
  459MOL0     O60491   7.343   3.013   3.295  0.2317 -0.4882 -0.0409
  459MOL0     C60492   7.278   3.119   3.366 -0.2191 -0.1478 -0.0351
  459MOL0     C60493   7.131   3.087   3.386 -0.5062  1.4096  0.1585
  459MOL0     C60494   7.039   3.198   3.446 -0.8182 -0.4200  0.1793
  459MOL0     C60495   6.915   3.130   3.496 -0.2018 -0.1022  0.4653
  459MOL0     C60496   6.802   3.228   3.546 -0.4983  0.3779  0.2848
  459MOL0     C60497   6.706   3.279   3.431  0.8901 -0.5241 -0.7093
  459MOL0     C60498   6.629   3.155   3.375  0.3689 -0.3946  0.0358
  459MOL0     C60499   6.479   3.187   3.362  0.2816  0.4593 -0.3880
  459MOL0    Cl60500   6.425   3.194   3.536  0.2577  0.3382  0.1412
  459MOL0     C60501   7.548   3.155   3.322  1.3262  0.2930  0.2863
  459MOL0     C60502   7.684   3.151   3.314  0.2991  0.2520 -0.0754
  459MOL0     O60503   7.914   2.863   3.410 -0.5299  0.0098 -0.2595
  459MOL0     C60504   8.191   2.865   3.391 -0.4118 -0.0733 -0.5673
  459MOL0     C60505   8.322   2.882   3.393  0.3519 -0.4332 -0.2997
  459MOL0     N60506   9.088   2.716   3.400  0.3037  0.2017  0.0119
  459MOL0     N60507   9.181   2.645   3.455  0.7455 -0.6489 -0.4513
  459MOL0     C60508  10.291   2.571   4.250  0.5463 -0.0496 -0.0055
  459MOL0     C60509  10.416   2.603   4.283  0.6603  0.5122  0.4876
  459MOL0     C60510  10.840   2.739   4.217  0.0847  0.7827  0.1131
  459MOL0     C60511  10.930   2.738   4.105  0.2239  0.4667  0.4415
  459MOL0     C60512  11.066   2.762   4.115  0.1610  0.2204 -0.6892
  459MOL0     C60513  11.115   2.786   4.245  0.2110 -0.0932  0.0749
  459MOL0     O60514  11.245   2.821   4.271  0.3109 -0.1729 -0.3599
  459MOL0     C60515  11.326   2.837   4.152  0.4140 -0.7379 -0.5849
  459MOL0     C60516  11.462   2.888   4.178  0.2469  0.1188 -0.5440
  459MOL0     C60517  11.550   2.788   4.248  0.9506 -0.0750 -0.1765
  459MOL0     C60518  11.694   2.824   4.262  0.6168 -0.6879 -0.2825
  459MOL0     C60519  11.773   2.709   4.303  0.7373 -1.0091  1.0187
  459MOL0     C60520  11.849   2.617   4.333  0.2478 -0.5074 -0.5932
  459MOL0     C60521  11.030   2.789   4.354  0.5404 -0.2169 -0.0891
  459MOL0     C60522  10.895   2.762   4.341 -0.4059  0.6572 -0.1997
  459MOL0     H60523  10.430   2.906   4.151  2.5415 -0.3245  1.1424
  459MOL0     H60524  10.189   2.849   4.083  1.6123  1.1674 -1.4625
  459MOL0     H60525  10.112   2.618   3.918  0.3583 -3.5683 -0.0106
  459MOL0     H60526  10.017   2.749   4.012 -3.4562 -0.8556  0.6871
  459MOL0     H60527   9.835   2.609   4.041  0.6327  1.8308 -0.1968
  459MOL0     H60528   9.911   2.462   3.984  0.7361  0.3679  0.5198
  459MOL0     H60529   9.926   2.586   3.740 -0.4491 -1.2402  0.4945
  459MOL0     H60530   9.847   2.720   3.819 -0.5358  0.4662  4.1925
  459MOL0     H60531   9.755   2.431   3.771  1.4296  0.8928  1.5470
  459MOL0     H60532   9.665   2.528   3.877  3.1196  1.0831  1.1313
  459MOL0     H60533   9.553   2.501   3.651 -0.2930 -0.6906  2.4865
  459MOL0     H60534   9.672   2.605   3.580 -0.8248  1.3425 -0.3902
  459MOL0     H60535   9.626   2.791   3.738 -0.3921 -0.2266  0.9785
  459MOL0     H60536   9.509   2.698   3.826 -3.0478  2.5552 -0.9733
  459MOL0     H60537   9.443   2.861   3.654 -1.8594  0.2811  1.9164
  459MOL0     H60538   9.474   2.722   3.537  1.8516  1.6086  0.2162
  459MOL0     H60539   9.270   2.686   3.760 -1.7641 -4.2927  0.3316
  459MOL0     H60540   9.332   2.566   3.667 -1.6639 -0.6491 -2.2740
  459MOL0     H60541   9.176   2.908   3.653  3.2532  1.2110 -1.8218
  459MOL0     H60542   8.968   2.944   3.315  4.0290 -2.0915 -1.4727
  459MOL0     H60543   9.001   3.037   3.468  0.8276 -0.0193 -1.3525
  459MOL0     H60544   8.833   2.883   3.574  0.7855 -1.0492 -0.6118
  459MOL0     H60545   8.826   2.798   3.416  0.6843  0.2499 -2.0921
  459MOL0     H60546   8.748   3.091   3.408 -1.5857  0.2445 -0.4152
  459MOL0     H60547   8.735   2.955   3.298 -0.8134 -0.4860 -0.4417
  459MOL0     H60548   8.580   2.994   3.548 -1.5981  2.5097 -0.7984
  459MOL0     H60549   8.571   2.847   3.446  0.2113 -0.4140  2.6739
  459MOL0     H60550   8.346   3.165   3.207  1.9632 -0.2281  0.5476
  459MOL0     H60551   8.095   3.153   3.240 -1.4267 -1.5999 -1.1873
  459MOL0     H60552   7.739   2.835   3.186  2.6342  0.7388 -0.1462
  459MOL0     H60553   7.500   2.831   3.219 -1.6916  1.0188 -1.8453
  459MOL0     H60554   7.283   3.214   3.311 -0.4039  0.5228  1.0909
  459MOL0     H60555   7.315   3.140   3.467 -4.1785  1.2149  1.3094
  459MOL0     H60556   7.122   3.000   3.452 -0.3971  1.8955  0.8191
  459MOL0     H60557   7.106   3.062   3.283  5.0713  0.2283 -1.2412
  459MOL0     H60558   7.010   3.279   3.379  1.2933 -0.3630 -0.7250
  459MOL0     H60559   7.097   3.240   3.528  2.0597 -0.8275 -1.5263
  459MOL0     H60560   6.877   3.070   3.412 -0.4186 -0.0905  0.5577
  459MOL0     H60561   6.951   3.059   3.571  2.5784 -0.3039 -0.8899
  459MOL0     H60562   6.850   3.309   3.602 -1.4059 -0.4742  2.3936
  459MOL0     H60563   6.746   3.168   3.618 -2.4277  0.4832 -1.0667
  459MOL0     H60564   6.764   3.338   3.359  2.3164  0.2124  0.9619
  459MOL0     H60565   6.639   3.348   3.484 -0.6802 -2.3496 -0.2238
  459MOL0     H60566   6.673   3.129   3.278  0.9389  1.0843 -0.1406
  459MOL0     H60567   6.640   3.072   3.445  1.4131  0.2284  0.6382
  459MOL0     H60568   6.436   3.104   3.304 -0.9776  2.7678 -2.9935
  459MOL0     H60569   6.461   3.281   3.309 -0.5958 -0.2935 -1.4811
  459MOL0     H60570   7.491   3.238   3.362 -0.0540 -0.9622  1.0245
  459MOL0     H60571   7.748   3.235   3.337  0.1714 -0.1596  1.9583
  459MOL0     H60572   8.151   2.782   3.449  3.7019 -1.6281  0.4673
  459MOL0     H60573   8.374   2.801   3.443 -2.1865 -3.2079 -1.8443
  459MOL0     H60574  10.248   2.488   4.304  0.6508  0.1202  0.3412
  459MOL0     H60575  10.478   2.541   4.345  0.2417  0.5124  0.9120
  459MOL0     H60576  10.892   2.724   4.004  0.9315  1.3968  0.0366
  459MOL0     H60577  11.126   2.767   4.025  3.7432 -1.5866  1.3949
  459MOL0     H60578  11.289   2.911   4.080  0.4407 -1.3612 -1.2553
  459MOL0     H60579  11.331   2.735   4.111  0.7481 -0.4633 -1.2382
  459MOL0     H60580  11.515   2.910   4.085 -0.5765  1.1894 -0.7901
  459MOL0     H60581  11.456   2.981   4.236 -1.7101  0.1782 -0.7651
  459MOL0     H60582  11.545   2.694   4.193  2.1961  0.2617 -0.9299
  459MOL0     H60583  11.519   2.765   4.350  2.4196  1.7218  0.7535
  459MOL0     H60584  11.726   2.864   4.165 -0.5429  0.4807 -0.2161
  459MOL0     H60585  11.711   2.905   4.335  2.2426 -0.9132 -0.3730
  459MOL0     H60586  11.908   2.540   4.379 -1.1167 -1.6399 -0.6671
  459MOL0     H60587  11.069   2.794   4.455  0.4046 -2.1930  0.1022
  459MOL0     H60588  10.837   2.760   4.433  0.4279  2.0055  0.4010
  460MOL0     O60589   7.307   1.827   2.452  0.6590 -0.6024  0.2424
  460MOL0     C60590   7.358   1.717   2.427 -0.5910 -0.0243  0.3944
  460MOL0     O60591   7.289   1.598   2.419 -0.1098 -0.6688 -0.2518
  460MOL0     C60592   7.180   1.576   2.502  0.6544 -0.8157  1.0165
  460MOL0     C60593   7.091   1.478   2.467  0.3628  0.9456  0.3559
  460MOL0     C60594   6.984   1.440   2.556 -0.5288  0.3076 -0.0681
  460MOL0     C60595   6.953   1.512   2.671 -1.0081 -0.2766  0.9069
  460MOL0     O60596   6.836   1.480   2.737 -0.1289 -0.5390  0.2561
  460MOL0     C60597   6.812   1.554   2.864  0.2744  0.1870 -0.7346
  460MOL0     C60598   6.661   1.533   2.915 -0.0946 -1.0367 -0.2886
  460MOL0     C60599   6.562   1.536   2.805  0.1938 -0.6843  0.3229
  460MOL0     C60600   6.423   1.495   2.863 -0.1939  0.0723  0.3410
  460MOL0     C60601   6.316   1.534   2.757  0.9180  0.4372 -0.3389
  460MOL0     C60602   6.191   1.462   2.786 -0.2960 -0.3543 -0.4909
  460MOL0     C60603   6.096   1.492   2.670  0.2516 -0.6217  0.4715
  460MOL0     C60604   5.982   1.393   2.646  0.6238  0.7016  0.6494
  460MOL0     N60605   5.881   1.382   2.757 -0.5531 -0.6417 -0.2170
  460MOL0     C60606   5.904   1.290   2.859 -0.0778  0.3943  1.1306
  460MOL0     C60607   5.786   1.285   2.921 -0.6527 -0.1240 -0.2242
  460MOL0     C60608   5.736   1.203   3.042 -0.6493  0.2532  0.7523
  460MOL0     C60609   5.584   1.199   3.052  0.5735  0.1546 -0.2844
  460MOL0     C60610   5.554   1.099   3.175  0.4386 -0.8752 -0.4219
  460MOL0     C60611   5.411   1.089   3.226  0.3935  0.2459 -0.0384
  460MOL0     O60612   5.376   1.196   3.311 -0.1018 -0.7097 -0.3111
  460MOL0     C60613   5.246   1.209   3.353 -0.3618 -0.4949  0.3428
  460MOL0     C60614   5.211   1.331   3.400 -0.2209 -0.9322  0.0691
  460MOL0     C60615   5.093   1.356   3.472  0.5953 -0.4449  0.2816
  460MOL0     C60616   4.997   1.252   3.483  0.8205  0.3672 -0.4390
  460MOL0     C60617   4.866   1.269   3.558  0.4854 -0.0425 -0.2740
  460MOL0     O60618   4.836   1.397   3.592  0.3860 -0.3847 -0.1318
  460MOL0     C60619   4.723   1.443   3.659  0.2208  0.3169 -0.3591
  460MOL0     C60620   4.627   1.369   3.725 -0.0690  0.9002  0.2401
  460MOL0     C60621   4.497   1.413   3.753  0.0713  0.7435 -0.2962
  460MOL0     C60622   4.463   1.539   3.710  0.3603 -0.4957 -0.0005
  460MOL0     O60623   4.341   1.603   3.733 -0.3432 -0.3178  0.4024
  460MOL0     C60624   4.289   1.575   3.864 -0.3129  0.6532 -0.5765
  460MOL0     C60625   4.160   1.645   3.886  0.6561  0.4664 -0.2876
  460MOL0     C60626   4.082   1.602   4.016 -1.5470  0.5133  0.2809
  460MOL0     C60627   3.969   1.696   4.057 -1.2090 -0.5523  0.2419
  460MOL0     C60628   3.890   1.643   4.186  0.5395 -0.5640 -0.7142
  460MOL0     C60629   3.748   1.701   4.189  0.0888 -0.6910 -0.3180
  460MOL0     C60630   3.675   1.671   4.327 -0.1656  0.2674  0.0893
  460MOL0     C60631   3.689   1.528   4.388 -0.2553  0.6703  0.6357
  460MOL0    Cl60632   3.603   1.537   4.542 -0.2404  0.1634 -0.0615
  460MOL0     C60633   4.556   1.625   3.665 -0.7582 -0.6213 -0.5185
  460MOL0     C60634   4.688   1.574   3.641  0.4074  0.0084  0.0633
  460MOL0     O60635   4.788   1.176   3.572  0.7177 -0.4994 -0.2729
  460MOL0     C60636   5.025   1.123   3.424  0.0347  0.1041  0.3329
  460MOL0     C60637   5.157   1.102   3.366 -0.7782 -0.2087  0.8397
  460MOL0     N60638   5.702   1.382   2.871 -0.5272 -0.0483  0.3638
  460MOL0     N60639   5.762   1.446   2.772 -0.2849  0.1546 -0.0011
  460MOL0     C60640   7.038   1.617   2.705  0.1473 -1.0473  0.2368
  460MOL0     C60641   7.148   1.646   2.621  0.0837 -0.2224  0.3784
  460MOL0     C60642   7.504   1.709   2.395  0.1886  0.5093 -0.8083
  460MOL0     C60643   7.564   1.589   2.346  0.4906 -0.3711  0.2989
  460MOL0     C60644   7.695   1.582   2.322 -0.2291 -0.2484 -0.5697
  460MOL0     C60645   7.790   1.676   2.358  0.1497 -0.5957 -1.1174
  460MOL0     O60646   7.920   1.650   2.337  0.2125  0.0386 -0.0002
  460MOL0     C60647   8.012   1.750   2.377 -0.1753  0.1463  0.1087
  460MOL0     C60648   8.144   1.705   2.309 -0.3309 -0.0374  0.0234
  460MOL0     C60649   8.220   1.597   2.387  0.0112  0.0731 -0.2652
  460MOL0     C60650   8.338   1.525   2.315  0.6151 -0.0089  0.2379
  460MOL0     C60651   8.449   1.615   2.311  0.0298  0.1055  0.4516
  460MOL0     C60652   8.530   1.704   2.327  0.5940  0.3360  0.6550
  460MOL0     C60653   7.734   1.795   2.410  0.0718 -0.9241 -0.7492
  460MOL0     C60654   7.598   1.807   2.429  0.0802 -0.7936 -0.4851
  460MOL0     H60655   7.111   1.426   2.374 -2.1877 -0.1029  0.3228
  460MOL0     H60656   6.928   1.353   2.523  0.0812 -0.9397  1.9893
  460MOL0     H60657   6.807   1.662   2.847  2.2554  0.1401 -1.9569
  460MOL0     H60658   6.889   1.534   2.939  0.3788 -0.4158 -0.9991
  460MOL0     H60659   6.635   1.612   2.986 -3.2797 -2.3011  0.1035
  460MOL0     H60660   6.661   1.435   2.964  2.5205 -0.0988  1.8880
  460MOL0     H60661   6.587   1.463   2.729  0.9249 -0.6723  0.5396
  460MOL0     H60662   6.565   1.635   2.758  0.6507  0.5000  2.6734
  460MOL0     H60663   6.426   1.387   2.878 -0.0552  0.4526  3.9456
  460MOL0     H60664   6.409   1.536   2.963 -0.4823  1.7707 -0.3644
  460MOL0     H60665   6.343   1.514   2.653 -1.2104  2.2370 -1.3299
  460MOL0     H60666   6.283   1.638   2.766 -0.9872 -0.2442  1.2571
  460MOL0     H60667   6.142   1.484   2.881  0.3065  0.5248 -0.3720
  460MOL0     H60668   6.212   1.355   2.779 -0.4732 -0.2936 -2.8345
  460MOL0     H60669   6.048   1.586   2.699 -0.8632 -1.2050  0.5759
  460MOL0     H60670   6.149   1.506   2.575  2.3868  1.0912  1.8133
  460MOL0     H60671   6.026   1.295   2.626 -0.8973  0.2721 -0.8352
  460MOL0     H60672   5.926   1.430   2.560 -0.7002 -0.5116  0.9628
  460MOL0     H60673   5.993   1.227   2.859 -0.2272  0.1331 -0.2866
  460MOL0     H60674   5.785   1.229   3.136  1.4571  1.0212 -0.4807
  460MOL0     H60675   5.767   1.103   3.012  3.4184  1.7933 -0.8639
  460MOL0     H60676   5.539   1.163   2.959 -2.2243  0.9286  0.6688
  460MOL0     H60677   5.526   1.290   3.072 -0.4153 -0.5983  0.3551
  460MOL0     H60678   5.594   1.002   3.147  1.9241 -0.9945  1.8787
  460MOL0     H60679   5.608   1.127   3.266  1.0250  2.3101 -1.5909
  460MOL0     H60680   5.393   0.988   3.264  4.7264 -1.2968 -1.4866
  460MOL0     H60681   5.363   1.090   3.128 -1.3522 -1.0588  0.7468
  460MOL0     H60682   5.271   1.417   3.372 -0.4380  0.6385  3.8311
  460MOL0     H60683   5.072   1.453   3.515  1.2983 -0.1873  0.0488
  460MOL0     H60684   4.646   1.269   3.761 -1.2020  1.0229  1.2511
  460MOL0     H60685   4.434   1.349   3.813  0.9452  0.9579  0.8798
  460MOL0     H60686   4.367   1.604   3.935  0.5954  0.3442 -1.4173
  460MOL0     H60687   4.270   1.469   3.885  2.1604  0.3834  0.6904
  460MOL0     H60688   4.104   1.621   3.795  1.7211  0.4529 -0.9584
  460MOL0     H60689   4.173   1.753   3.879 -0.2100  0.6734  1.0163
  460MOL0     H60690   4.153   1.607   4.099 -1.0496 -1.8799  0.0700
  460MOL0     H60691   4.060   1.495   4.013  2.6501 -0.5047  0.1022
  460MOL0     H60692   4.013   1.796   4.064  0.0087 -0.9997 -0.5712
  460MOL0     H60693   3.895   1.695   3.977 -0.6604 -1.4297 -0.2695
  460MOL0     H60694   3.953   1.658   4.274  2.3823  0.2124 -2.0993
  460MOL0     H60695   3.879   1.535   4.174  2.0810 -0.7415 -0.7403
  460MOL0     H60696   3.705   1.657   4.098 -1.9714  0.8337 -0.1617
  460MOL0     H60697   3.745   1.809   4.174  1.0063 -0.2992  1.8675
  460MOL0     H60698   3.707   1.746   4.400 -0.0166  0.1543  0.1406
  460MOL0     H60699   3.567   1.690   4.318 -0.8904 -3.5682 -1.3352
  460MOL0     H60700   3.792   1.499   4.410 -1.4610 -4.4629  0.7584
  460MOL0     H60701   3.642   1.447   4.331 -0.8810  0.1461  1.8523
  460MOL0     H60702   4.521   1.727   3.650 -3.0312 -1.2005  0.4160
  460MOL0     H60703   4.760   1.638   3.591  2.5283 -1.7334  0.7199
  460MOL0     H60704   4.967   1.034   3.445  0.9601 -0.1177  2.1533
  460MOL0     H60705   5.197   1.002   3.350 -1.7201 -0.3862 -0.5131
  460MOL0     H60706   7.026   1.685   2.789  0.7366 -0.9448  0.2416
  460MOL0     H60707   7.204   1.730   2.660  0.8395 -0.2585 -0.5991
  460MOL0     H60708   7.500   1.504   2.323 -3.1574  2.1354  0.2763
  460MOL0     H60709   7.730   1.493   2.270  1.6781  1.0012 -1.5355
  460MOL0     H60710   8.017   1.774   2.484 -2.4600  2.1496 -0.1705
  460MOL0     H60711   7.982   1.845   2.333  1.1125  0.5127 -0.0337
  460MOL0     H60712   8.125   1.657   2.212  0.3672 -2.3984  0.9742
  460MOL0     H60713   8.220   1.780   2.288  1.0918 -1.3561  0.3278
  460MOL0     H60714   8.145   1.520   2.406  0.8253 -0.5557  0.5320
  460MOL0     H60715   8.257   1.638   2.482  0.8145 -0.6318 -0.2552
  460MOL0     H60716   8.374   1.431   2.357  0.5249 -0.6485 -1.0714
  460MOL0     H60717   8.314   1.512   2.209  1.1317  1.8401 -0.1531
  460MOL0     H60718   8.606   1.775   2.351  0.8080 -0.1827  1.5945
  460MOL0     H60719   7.798   1.882   2.420 -1.3291 -0.1602  3.6909
  460MOL0     H60720   7.566   1.902   2.471 -0.2356  0.1219 -2.6139
  461MOL0     O60721   4.264   8.963   3.193  0.2613 -0.0613 -0.3565
  461MOL0     C60722   4.296   8.852   3.143  0.4878  0.8577 -0.3467
  461MOL0     O60723   4.206   8.754   3.101 -0.0060 -0.1847 -0.3524
  461MOL0     C60724   4.070   8.774   3.106  0.3724  0.5866  0.3492
  461MOL0     C60725   3.991   8.857   3.189 -0.0515 -0.1384 -0.6922
  461MOL0     C60726   3.852   8.852   3.180 -0.3005 -0.8970  0.0654
  461MOL0     C60727   3.780   8.780   3.087  0.6216 -0.2377 -0.0316
  461MOL0     O60728   3.646   8.797   3.066  0.0448 -0.5098  0.7084
  461MOL0     C60729   3.559   8.847   3.171  0.0797 -0.5144 -0.1124
  461MOL0     C60730   3.419   8.828   3.128  0.3419 -0.0620 -0.4468
  461MOL0     C60731   3.317   8.822   3.241  0.8228  0.4246  0.3948
  461MOL0     C60732   3.183   8.776   3.179  0.1906 -0.3250  0.5176
  461MOL0     C60733   3.080   8.697   3.260  0.3852  0.4161 -0.0371
  461MOL0     C60734   2.936   8.699   3.200  0.2081  1.0260  0.4328
  461MOL0     C60735   2.840   8.604   3.271  0.4858  0.8813 -0.0566
  461MOL0     C60736   2.705   8.602   3.190  0.4580 -0.1472  0.2085
  461MOL0     N60737   2.593   8.550   3.269 -0.1024  0.4175 -0.4347
  461MOL0     C60738   2.470   8.575   3.243  0.0558 -0.0453  0.6220
  461MOL0     C60739   2.392   8.538   3.341  0.1221  0.3290 -0.9106
  461MOL0     C60740   2.247   8.553   3.362  0.2264  0.2425  0.1637
  461MOL0     C60741   2.182   8.538   3.235  0.0965 -0.6419  0.6651
  461MOL0     C60742   2.026   8.522   3.246  0.3354  0.3959  1.0255
  461MOL0     C60743   1.955   8.645   3.275 -0.7931 -0.4550 -0.3934
  461MOL0     O60744   1.816   8.637   3.307  0.3705  0.2482  0.5917
  461MOL0     C60745   1.730   8.743   3.287 -0.0460 -0.4016  1.0719
  461MOL0     C60746   1.769   8.874   3.240  0.7548 -0.0471  0.6739
  461MOL0     C60747   1.670   8.971   3.218  0.0717  0.7898  0.3148
  461MOL0     C60748   1.538   8.947   3.247  0.3509 -0.4478 -0.5185
  461MOL0     C60749   1.438   9.046   3.203  1.1659 -0.2718 -0.7229
  461MOL0     O60750   1.479   9.164   3.154  0.1642  0.6456  0.6722
  461MOL0     C60751   1.387   9.247   3.083 -0.0469  0.3034 -1.1462
  461MOL0     C60752   1.263   9.287   3.132  0.3694  0.7203 -0.7396
  461MOL0     C60753   1.185   9.379   3.055  0.1841  1.1616  0.4096
  461MOL0     C60754   1.216   9.406   2.920  0.6750 -0.0920  0.6464
  461MOL0     O60755   1.145   9.490   2.842  0.1234  0.0908 -0.0333
  461MOL0     C60756   1.033   9.564   2.895 -0.2417 -0.3397 -0.6994
  461MOL0     C60757   0.908   9.480   2.904  0.2465  0.3884 -0.3774
  461MOL0     C60758   0.788   9.553   2.953  0.4551 -0.2390  0.2346
  461MOL0     C60759   0.688   9.453   3.021  0.4638  1.2868  1.2246
  461MOL0     C60760   0.540   9.504   3.035 -0.6586 -0.1715 -0.4745
  461MOL0     C60761   0.444   9.441   2.929  0.0062  0.2171  0.3127
  461MOL0     C60762   0.484   9.449   2.784  0.2697 -0.1010 -0.9125
  461MOL0     C60763   0.430   9.334   2.695  0.6093  0.3238 -0.9290
  461MOL0    Cl60764   0.248   9.345   2.690  0.0597  0.1262  0.1226
  461MOL0     C60765   1.331   9.342   2.871 -0.2703  0.0774  0.4239
  461MOL0     C60766   1.417   9.276   2.953 -0.4081 -0.3592 -1.0785
  461MOL0     O60767   1.317   9.019   3.216  0.0946 -0.2937  0.0408
  461MOL0     C60768   1.503   8.822   3.292 -0.1393 -0.1382 -0.4620
  461MOL0     C60769   1.596   8.721   3.304  0.0604  0.6735  0.3213
  461MOL0     N60770   2.476   8.473   3.425 -0.5813 -0.4242 -0.2123
  461MOL0     N60771   2.601   8.499   3.391 -0.3099  0.2109 -0.8914
  461MOL0     C60772   3.851   8.676   3.041 -0.2421  1.2917  0.4869
  461MOL0     C60773   3.990   8.674   3.045  0.0115 -0.2757  0.6227
  461MOL0     C60774   4.441   8.816   3.151 -1.3781  0.2260  0.7355
  461MOL0     C60775   4.490   8.692   3.102 -0.4708 -0.2906 -0.6427
  461MOL0     C60776   4.625   8.654   3.124  0.2823  0.2992  0.3821
  461MOL0     C60777   4.718   8.753   3.168  0.1180 -0.5949 -0.1831
  461MOL0     O60778   4.842   8.710   3.158 -0.5334  0.2113 -0.3026
  461MOL0     C60779   4.938   8.768   3.233  0.2500  0.2410 -0.7356
  461MOL0     C60780   5.050   8.662   3.235  0.3057  0.0796  0.1322
  461MOL0     C60781   5.168   8.690   3.336  0.2316  0.2162  0.8728
  461MOL0     C60782   5.273   8.583   3.345  0.1798 -0.1946  0.1734
  461MOL0     C60783   5.227   8.449   3.386  0.1255  0.3817  1.4223
  461MOL0     C60784   5.196   8.329   3.401 -0.3558 -0.7768 -0.4269
  461MOL0     C60785   4.677   8.880   3.215  0.0188 -0.1591  0.3633
  461MOL0     C60786   4.536   8.900   3.212 -0.1447  0.3571  0.3457
  461MOL0     H60787   4.025   8.940   3.250 -1.7985 -1.0790  1.7515
  461MOL0     H60788   3.798   8.919   3.246  0.6755 -1.9605  2.0278
  461MOL0     H60789   3.585   8.947   3.210  1.5644  1.5076 -5.4412
  461MOL0     H60790   3.573   8.776   3.253  2.2409  2.2121  2.0928
  461MOL0     H60791   3.420   8.730   3.080  0.2202  0.9309 -2.5914
  461MOL0     H60792   3.401   8.898   3.046  0.8822 -2.7318 -3.0298
  461MOL0     H60793   3.292   8.919   3.284 -1.3000  1.2412 -2.3581
  461MOL0     H60794   3.351   8.756   3.321 -1.2920 -1.5165 -0.1789
  461MOL0     H60795   3.123   8.859   3.139 -1.4180 -1.0836  1.2578
  461MOL0     H60796   3.211   8.707   3.098  1.7665  0.0334  0.7299
  461MOL0     H60797   3.065   8.744   3.357 -2.1809  1.7619 -0.9979
  461MOL0     H60798   3.112   8.594   3.273  2.7678  1.0263 -0.4650
  461MOL0     H60799   2.944   8.671   3.095  1.3401 -5.5242  1.8007
  461MOL0     H60800   2.892   8.798   3.216 -5.6447 -1.2801  1.0599
  461MOL0     H60801   2.888   8.508   3.290 -3.3644 -1.0110  1.2608
  461MOL0     H60802   2.814   8.655   3.365  1.3689  0.6473  0.3200
  461MOL0     H60803   2.705   8.529   3.109 -2.1992 -0.8320  0.7351
  461MOL0     H60804   2.681   8.702   3.152  0.8566 -0.0852  0.1143
  461MOL0     H60805   2.436   8.615   3.148 -2.1215 -4.2343 -0.5881
  461MOL0     H60806   2.226   8.652   3.403  1.4625  1.3482 -1.7472
  461MOL0     H60807   2.218   8.473   3.431 -0.1858 -0.7613 -1.1308
  461MOL0     H60808   2.230   8.450   3.192  0.3124 -0.5300  0.6781
  461MOL0     H60809   2.204   8.626   3.174 -4.2844  1.0025  1.0367
  461MOL0     H60810   2.001   8.469   3.154  1.4966 -0.7733  1.3424
  461MOL0     H60811   1.998   8.452   3.325  1.7441 -1.4761 -0.0429
  461MOL0     H60812   1.970   8.707   3.186  1.5734 -2.4188 -1.4614
  461MOL0     H60813   2.002   8.692   3.362  0.5387  1.6203 -2.1078
  461MOL0     H60814   1.870   8.910   3.222 -0.4450  3.1473 -0.4471
  461MOL0     H60815   1.692   9.057   3.157 -0.2590  0.0021 -0.9532
  461MOL0     H60816   1.226   9.234   3.219  1.5517 -1.8077 -1.7014
  461MOL0     H60817   1.099   9.418   3.109  0.4926 -0.0081  1.8019
  461MOL0     H60818   1.004   9.644   2.827  0.1678 -0.5428 -1.1183
  461MOL0     H60819   1.054   9.606   2.994 -1.3975  0.4848 -0.7865
  461MOL0     H60820   0.928   9.404   2.980  1.0302  2.2508  1.3543
  461MOL0     H60821   0.886   9.435   2.806 -4.5820 -0.2622  0.7668
  461MOL0     H60822   0.740   9.600   2.867  0.4068 -0.4075  0.1693
  461MOL0     H60823   0.814   9.633   3.022  1.5106  0.0300 -0.4500
  461MOL0     H60824   0.684   9.356   2.970  1.9110  1.4892  0.6755
  461MOL0     H60825   0.712   9.437   3.126  1.1034  0.8341  1.0193
  461MOL0     H60826   0.541   9.612   3.021  0.7694 -0.2147 -0.8780
  461MOL0     H60827   0.513   9.485   3.139  1.7662 -0.0333  0.2283
  461MOL0     H60828   0.346   9.488   2.938 -1.2776 -2.1447 -0.5005
  461MOL0     H60829   0.432   9.334   2.947  0.8842  0.2657  1.2532
  461MOL0     H60830   0.432   9.538   2.747  1.4480 -0.5691 -4.0018
  461MOL0     H60831   0.591   9.468   2.767  0.5160 -1.4883 -1.0396
  461MOL0     H60832   0.454   9.238   2.742  1.6885  1.5685  1.1932
  461MOL0     H60833   0.475   9.334   2.595 -1.6090 -0.1195 -2.0025
  461MOL0     H60834   1.371   9.358   2.772  0.8379  1.3915  1.0500
  461MOL0     H60835   1.518   9.257   2.918 -0.1246 -0.0653 -0.4395
  461MOL0     H60836   1.399   8.802   3.315 -0.0030  0.7031  1.0286
  461MOL0     H60837   1.564   8.621   3.329 -1.4520  1.0809  0.0789
  461MOL0     H60838   3.801   8.600   2.981 -1.3060  0.3946  2.3890
  461MOL0     H60839   4.036   8.590   2.994 -0.1643 -0.3167  0.5333
  461MOL0     H60840   4.426   8.615   3.061 -2.3416 -0.0478  1.5631
  461MOL0     H60841   4.660   8.560   3.083  0.1441  0.8290 -1.0068
  461MOL0     H60842   4.910   8.782   3.338  1.7317 -2.6378  0.1555
  461MOL0     H60843   4.957   8.865   3.187 -2.7423  1.5584  0.5766
  461MOL0     H60844   5.000   8.566   3.253 -1.1124 -0.0897 -3.6803
  461MOL0     H60845   5.084   8.658   3.131  0.4642 -0.7373  0.2102
  461MOL0     H60846   5.123   8.710   3.434 -2.5541  0.8748 -0.4433
  461MOL0     H60847   5.210   8.780   3.289  0.5451  0.0274  0.7929
  461MOL0     H60848   5.324   8.579   3.248 -0.0321  0.6877  0.0205
  461MOL0     H60849   5.353   8.615   3.412  2.1766 -2.1282 -1.1181
  461MOL0     H60850   5.167   8.227   3.409  0.5376 -1.0218 -0.2434
  461MOL0     H60851   4.749   8.944   3.264  0.8765 -0.5210 -0.3862
  461MOL0     H60852   4.490   8.978   3.271  0.0901 -0.8874  2.2733
  462MOL0     O60853   7.595   2.858  10.843 -0.0884  0.1222 -0.5132
  462MOL0     C60854   7.650   2.783  10.929  0.1995  0.2782 -1.7113
  462MOL0     O60855   7.678   2.819  11.053  0.0431 -0.5279  0.4238
  462MOL0     C60856   7.644   2.944  11.101  0.4515 -0.3157 -0.1511
  462MOL0     C60857   7.576   2.952  11.220 -0.5538 -0.5398  0.6494
  462MOL0     C60858   7.540   3.070  11.283  0.2641 -0.1790  0.7284
  462MOL0     C60859   7.540   3.188  11.212  0.5451  0.6376 -0.8933
  462MOL0     O60860   7.471   3.291  11.273  0.2426 -0.9218 -0.0579
  462MOL0     C60861   7.554   3.391  11.331 -0.1851 -0.2253 -0.6223
  462MOL0     C60862   7.460   3.490  11.405 -0.4388 -0.5247 -0.3823
  462MOL0     C60863   7.381   3.411  11.515  0.4245 -0.5997 -0.4395
  462MOL0     C60864   7.301   3.517  11.594 -0.7235  0.5425 -0.0081
  462MOL0     C60865   7.174   3.562  11.520 -0.0004 -1.1341  0.1885
  462MOL0     C60866   7.084   3.658  11.589 -0.8230  0.4807 -0.1496
  462MOL0     C60867   6.950   3.701  11.533  0.2680 -0.4362 -0.0181
  462MOL0     C60868   6.862   3.805  11.608  0.4102 -0.0366  0.0506
  462MOL0     N60869   6.730   3.811  11.546  0.3857  1.3184  0.5008
  462MOL0     C60870   6.698   3.811  11.409 -0.0618 -0.0686  0.2498
  462MOL0     C60871   6.565   3.803  11.409 -0.0830 -0.3485  0.4699
  462MOL0     C60872   6.500   3.781  11.279 -0.1985 -0.6272  0.6021
  462MOL0     C60873   6.350   3.738  11.267 -0.6107 -0.1702 -0.3671
  462MOL0     C60874   6.270   3.826  11.181 -0.4957 -0.8085  0.2882
  462MOL0     C60875   6.124   3.773  11.175  0.2163 -0.1393 -0.1542
  462MOL0     O60876   6.064   3.843  11.063 -0.3930 -0.1801 -0.2095
  462MOL0     C60877   5.932   3.838  11.051  0.4985  0.2700  0.4673
  462MOL0     C60878   5.845   3.903  11.138 -0.6815 -0.9680  1.3506
  462MOL0     C60879   5.707   3.898  11.125  0.3218 -0.0135  0.0570
  462MOL0     C60880   5.647   3.829  11.021  0.0654 -0.4979  0.6537
  462MOL0     C60881   5.504   3.849  11.010 -0.2470  0.7466  0.2702
  462MOL0     O60882   5.432   3.774  10.917 -0.5644  0.2498  0.1855
  462MOL0     C60883   5.298   3.746  10.921 -0.4937  0.6129 -0.3473
  462MOL0     C60884   5.207   3.801  11.007  0.6336 -0.6624 -0.0595
  462MOL0     C60885   5.070   3.764  11.000 -0.3477 -0.7832 -0.6423
  462MOL0     C60886   5.019   3.673  10.908  0.2749  0.0222 -0.9433
  462MOL0     O60887   4.892   3.617  10.911 -0.3308 -0.0380 -0.6165
  462MOL0     C60888   4.784   3.708  10.929  0.1666  0.3447 -0.3593
  462MOL0     C60889   4.649   3.639  10.898  0.5867  0.7162  0.4716
  462MOL0     C60890   4.598   3.529  11.002  0.3564  0.0417  0.3918
  462MOL0     C60891   4.475   3.445  10.954  0.3288 -0.3576  0.6453
  462MOL0     C60892   4.418   3.330  11.045  0.0791  0.5758  0.2944
  462MOL0     C60893   4.387   3.377  11.186 -0.0567 -0.3875 -0.1029
  462MOL0     C60894   4.320   3.266  11.271 -0.0529  0.4216  0.4733
  462MOL0     C60895   4.285   3.306  11.416  0.7191 -0.2188  0.3883
  462MOL0    Cl60896   4.431   3.355  11.511 -0.0213  0.4811  0.6530
  462MOL0     C60897   5.110   3.620  10.820 -0.3432  0.0771  0.5161
  462MOL0     C60898   5.247   3.655  10.826  0.5972  0.0456  0.4381
  462MOL0     O60899   5.453   3.929  11.082 -0.2803 -0.2131  0.0932
  462MOL0     C60900   5.728   3.759  10.930 -0.2269  0.2057 -0.0596
  462MOL0     C60901   5.865   3.761  10.944  0.6137  0.5554 -0.7802
  462MOL0     N60902   6.513   3.791  11.538 -0.6648  0.1535 -0.0162
  462MOL0     N60903   6.611   3.810  11.615 -0.2259 -0.3223  0.4764
  462MOL0     C60904   7.600   3.189  11.090  0.1660 -0.5643  0.1924
  462MOL0     C60905   7.654   3.069  11.031 -0.1283  0.5440  0.7310
  462MOL0     C60906   7.697   2.650  10.876  0.4333 -0.1428 -0.5725
  462MOL0     C60907   7.677   2.617  10.742  0.1191 -0.3343 -0.7886
  462MOL0     C60908   7.706   2.482  10.700 -0.2270  0.0695  0.1291
  462MOL0     C60909   7.772   2.390  10.788 -0.6184 -0.2181  0.1878
  462MOL0     O60910   7.811   2.261  10.749  0.3212  0.5352  0.2652
  462MOL0     C60911   7.815   2.226  10.616  0.7684  0.1160  0.2856
  462MOL0     C60912   7.858   2.083  10.592 -0.4425 -1.4808 -0.5009
  462MOL0     C60913   7.744   1.983  10.629 -0.1071 -0.4959  0.3436
  462MOL0     C60914   7.786   1.837  10.615 -0.1023 -0.1987 -0.8834
  462MOL0     C60915   7.893   1.790  10.706 -0.8013  0.4966  0.9820
  462MOL0     C60916   7.974   1.746  10.785  0.3489  0.1641  0.3210
  462MOL0     C60917   7.798   2.431  10.918 -0.4493 -0.5464  0.2580
  462MOL0     C60918   7.761   2.557  10.962 -0.5162 -0.2396  0.1029
  462MOL0     H60919   7.570   2.860  11.276  2.4681 -1.3427 -0.1512
  462MOL0     H60920   7.486   3.064  11.377  1.2661  0.9631  1.4072
  462MOL0     H60921   7.601   3.449  11.250  2.2301 -0.9829  0.1514
  462MOL0     H60922   7.630   3.349  11.397 -0.3182  0.7733  0.2017
  462MOL0     H60923   7.390   3.538  11.336 -1.7570 -1.8115 -0.0076
  462MOL0     H60924   7.521   3.574  11.437  0.6200 -0.9871 -1.1133
  462MOL0     H60925   7.438   3.356  11.591  1.6257  1.4511  0.2516
  462MOL0     H60926   7.308   3.337  11.483 -1.4682  0.3594  1.3896
  462MOL0     H60927   7.279   3.485  11.696  2.1675  1.1124  0.8789
  462MOL0     H60928   7.355   3.613  11.590 -1.6096  1.3403  3.7377
  462MOL0     H60929   7.117   3.470  11.503 -0.8186 -0.3419 -1.6239
  462MOL0     H60930   7.191   3.604  11.421 -0.9986 -0.6458  0.1993
  462MOL0     H60931   7.148   3.747  11.597  0.2496 -0.4418  2.7655
  462MOL0     H60932   7.073   3.617  11.689 -1.0635  2.4719  0.6818
  462MOL0     H60933   6.982   3.754  11.443 -1.0916  2.7586  1.2302
  462MOL0     H60934   6.891   3.615  11.500  0.6896  0.7106 -4.5060
  462MOL0     H60935   6.899   3.907  11.597 -0.4427  0.3764  0.9040
  462MOL0     H60936   6.863   3.781  11.714  0.7940  3.1930  0.8966
  462MOL0     H60937   6.774   3.802  11.332  0.1330 -1.9438  0.6112
  462MOL0     H60938   6.554   3.700  11.230  0.8645 -0.9308  2.2305
  462MOL0     H60939   6.521   3.870  11.219 -2.3403  0.2383  1.0415
  462MOL0     H60940   6.304   3.727  11.365 -2.1528 -0.0112 -1.0442
  462MOL0     H60941   6.349   3.638  11.224 -1.1145 -0.5549  0.5244
  462MOL0     H60942   6.260   3.926  11.224  1.0426 -0.0877 -0.9577
  462MOL0     H60943   6.321   3.827  11.085  2.3478 -4.1979  1.5161
  462MOL0     H60944   6.079   3.772  11.275  2.6892 -1.4920  1.0482
  462MOL0     H60945   6.128   3.668  11.144  1.5620  0.1257 -0.9177
  462MOL0     H60946   5.897   3.962  11.213 -0.0299  2.0750 -1.3134
  462MOL0     H60947   5.655   3.961  11.196 -3.4401 -3.0317  0.2873
  462MOL0     H60948   5.235   3.859  11.094 -2.8071  2.1068 -0.5817
  462MOL0     H60949   5.004   3.804  11.077  1.0938  2.5278 -0.9318
  462MOL0     H60950   4.798   3.793  10.861 -0.0159  0.4968 -0.2054
  462MOL0     H60951   4.783   3.741  11.033 -0.1334 -0.1757 -0.1941
  462MOL0     H60952   4.658   3.587  10.802  2.8978 -0.9730  1.4932
  462MOL0     H60953   4.570   3.714  10.888 -0.1295  0.0598  1.0601
  462MOL0     H60954   4.558   3.585  11.087 -2.6761 -2.8603  1.0772
  462MOL0     H60955   4.675   3.458  11.030  0.3921 -0.2692 -0.4752
  462MOL0     H60956   4.395   3.512  10.921  1.7956 -1.1759 -6.1215
  462MOL0     H60957   4.502   3.402  10.857  1.2642  1.1929  0.1888
  462MOL0     H60958   4.492   3.249  11.050  1.3571  1.7696  1.5378
  462MOL0     H60959   4.332   3.294  10.988  1.7782 -0.6925 -1.6544
  462MOL0     H60960   4.334   3.472  11.182 -1.6216 -1.1548  1.0800
  462MOL0     H60961   4.485   3.400  11.231 -0.3999  2.1010 -0.5118
  462MOL0     H60962   4.230   3.230  11.221  1.9782 -1.4151 -2.2166
  462MOL0     H60963   4.387   3.180  11.273 -0.5654 -0.0898 -1.5738
  462MOL0     H60964   4.242   3.223  11.472  0.3810 -0.1598  0.2185
  462MOL0     H60965   4.212   3.387  11.406  0.9224 -0.1851 -0.9145
  462MOL0     H60966   5.068   3.555  10.744 -0.5843  0.9251 -0.1046
  462MOL0     H60967   5.303   3.614  10.742 -0.1132 -1.0471  0.4787
  462MOL0     H60968   5.680   3.719  10.842  0.0370  0.7862 -0.4760
  462MOL0     H60969   5.928   3.710  10.871 -0.1899 -2.1332  0.2603
  462MOL0     H60970   7.613   3.277  11.029 -1.8654  0.8854  1.7098
  462MOL0     H60971   7.715   3.065  10.941  2.6582  0.0110  2.5279
  462MOL0     H60972   7.634   2.680  10.665 -1.6266 -3.1592 -2.3131
  462MOL0     H60973   7.687   2.452  10.598 -0.5885  1.5812 -0.2831
  462MOL0     H60974   7.883   2.286  10.554 -2.1963  2.5042 -0.9359
  462MOL0     H60975   7.714   2.238  10.578 -0.2848  3.1989  3.4668
  462MOL0     H60976   7.883   2.085  10.485  2.8317  1.2566  0.1447
  462MOL0     H60977   7.951   2.062  10.645  0.0067  0.7996 -0.2789
  462MOL0     H60978   7.669   1.988  10.549  2.1788 -1.7566 -2.0468
  462MOL0     H60979   7.695   2.002  10.725  1.3408 -1.8499  1.3817
  462MOL0     H60980   7.697   1.777  10.638 -0.1721  0.0654 -0.4289
  462MOL0     H60981   7.819   1.814  10.514 -0.9958 -0.7808 -1.0511
  462MOL0     H60982   8.034   1.718  10.870  0.3058  0.0701  0.3194
  462MOL0     H60983   7.849   2.372  10.993  0.3055 -1.7310 -1.1543
  462MOL0     H60984   7.802   2.589  11.057  0.1011 -0.2602 -0.1515
  463MOL0     O60985   0.962   4.905   2.625 -0.2792  0.3564 -0.2717
  463MOL0     C60986   1.016   4.832   2.703 -0.5519 -0.5092 -0.7324
  463MOL0     O60987   0.972   4.706   2.731  0.3155 -0.1431 -0.3207
  463MOL0     C60988   0.839   4.677   2.699  0.8707  0.0992 -0.1724
  463MOL0     C60989   0.719   4.758   2.716  0.4922  0.6330  0.0992
  463MOL0     C60990   0.591   4.711   2.678 -0.0752  0.7583  0.6702
  463MOL0     C60991   0.585   4.581   2.617 -0.6015 -0.1237 -0.6928
  463MOL0     O60992   0.472   4.531   2.555  0.4336 -0.4451 -0.1059
  463MOL0     C60993   0.349   4.609   2.580  0.1244 -0.6929 -0.0939
  463MOL0     C60994   0.235   4.515   2.543  0.5216  0.1982 -0.0296
  463MOL0     C60995   0.097   4.587   2.537  0.2308 -0.5437  0.4621
  463MOL0     C60996  -0.037   4.501   2.539  0.5311  0.4430  0.1778
  463MOL0     C60997  -0.170   4.587   2.543  0.0106  0.2129  0.1428
  463MOL0     C60998  -0.296   4.502   2.554  0.0206  0.6531  0.1669
  463MOL0     C60999  -0.342   4.431   2.432 -0.0248  0.0632  0.0758
  463MOL0     C61000  -0.454   4.336   2.469  0.3946  0.4038  0.0974
  463MOL0     N61001  -0.578   4.406   2.502 -0.7047 -0.3817 -0.1384
  463MOL0     C61002  -0.635   4.507   2.428  0.6425  1.0277 -0.5707
  463MOL0     C61003  -0.747   4.539   2.493  0.1230 -0.7904  1.2317
  463MOL0     C61004  -0.849   4.634   2.448  0.0744  0.4838 -0.1752
  463MOL0     C61005  -0.953   4.558   2.360  0.8597 -0.4170  0.5782
  463MOL0     C61006  -0.953   4.579   2.206  0.3330  0.1644 -0.2440
  463MOL0     C61007  -1.056   4.497   2.136  0.4150  0.9055  0.2562
  463MOL0     O61008  -1.183   4.555   2.159  0.8228  0.1229 -0.6035
  463MOL0     C61009  -1.292   4.490   2.107 -0.2329 -0.1803  0.6003
  463MOL0     C61010  -1.293   4.391   2.012 -0.7139 -0.3476 -0.3781
  463MOL0     C61011  -1.404   4.344   1.944  0.4907 -0.4656  0.2914
  463MOL0     C61012  -1.528   4.389   1.992  0.1479 -0.2765 -0.8480
  463MOL0     C61013  -1.651   4.351   1.932 -0.1087 -0.2070  0.0277
  463MOL0     O61014  -1.640   4.265   1.831 -0.3617 -0.3482 -0.5809
  463MOL0     C61015  -1.738   4.230   1.740  0.7028 -1.0159 -0.7073
  463MOL0     C61016  -1.752   4.094   1.699 -0.1321 -0.0194 -0.3397
  463MOL0     C61017  -1.855   4.055   1.613 -0.1768  0.0503 -0.5486
  463MOL0     C61018  -1.942   4.154   1.556  0.0877 -0.4232  0.4828
  463MOL0     O61019  -2.033   4.125   1.456 -0.0258  0.5282  0.5713
  463MOL0     C61020  -2.152   4.048   1.497  0.1989 -0.1673 -1.0596
  463MOL0     C61021  -2.254   4.017   1.378 -0.7152 -0.0252  0.1666
  463MOL0     C61022  -2.359   4.123   1.355 -0.5407  0.1129 -0.7233
  463MOL0     C61023  -2.456   4.086   1.233 -0.9056  0.0130 -0.0872
  463MOL0     C61024  -2.553   4.198   1.203  1.4482 -0.3874 -0.5961
  463MOL0     C61025  -2.632   4.165   1.079 -0.2621  0.0703  0.4231
  463MOL0     C61026  -2.734   4.280   1.048  0.5937  0.8586  0.0203
  463MOL0     C61027  -2.828   4.238   0.938 -0.1551  1.0292 -0.4723
  463MOL0    Cl61028  -2.968   4.347   0.926 -0.2733  0.2941 -0.0567
  463MOL0     C61029  -1.929   4.282   1.604 -0.2768 -0.6034 -0.0633
  463MOL0     C61030  -1.834   4.320   1.693  0.3327  0.3290  0.3155
  463MOL0     O61031  -1.758   4.408   1.969 -0.4797  0.2812 -0.0404
  463MOL0     C61032  -1.529   4.487   2.095  0.6440  0.4730  0.2142
  463MOL0     C61033  -1.413   4.529   2.152 -0.4372 -0.6969  0.7528
  463MOL0     N61034  -0.758   4.461   2.602  0.3410  0.2960 -0.1237
  463MOL0     N61035  -0.654   4.376   2.605  0.6066  0.2281  0.1896
  463MOL0     C61036   0.696   4.499   2.616  0.3637 -0.0042  0.8909
  463MOL0     C61037   0.819   4.541   2.663 -0.0377 -0.7335  0.4118
  463MOL0     C61038   1.143   4.876   2.764 -0.4868 -0.4681  0.1384
  463MOL0     C61039   1.207   4.992   2.736  0.1073  0.1531  0.2552
  463MOL0     C61040   1.327   5.027   2.794 -0.0348 -0.0319 -0.0190
  463MOL0     C61041   1.390   4.936   2.884 -0.1717 -1.5391  0.1648
  463MOL0     O61042   1.518   4.948   2.927  0.1122 -0.1033 -0.1238
  463MOL0     C61043   1.608   5.053   2.876  0.4755  1.3079 -1.0684
  463MOL0     C61044   1.677   5.011   2.748  0.1132 -0.0873 -0.2178
  463MOL0     C61045   1.689   5.122   2.642  0.7553 -0.2354 -0.3603
  463MOL0     C61046   1.782   5.235   2.695 -0.4465  0.4069  0.2420
  463MOL0     C61047   1.918   5.197   2.711 -0.2917  0.2179  0.7407
  463MOL0     C61048   2.036   5.171   2.736  0.5514 -0.0269  1.0670
  463MOL0     C61049   1.327   4.813   2.908  0.1781  1.2994 -0.0334
  463MOL0     C61050   1.199   4.792   2.854 -0.3858 -0.2119  0.2259
  463MOL0     H61051   0.729   4.861   2.746 -1.0680  0.4880  1.2634
  463MOL0     H61052   0.510   4.784   2.672 -0.4139  0.3230 -0.3474
  463MOL0     H61053   0.337   4.707   2.534 -3.6727  1.2204  4.1260
  463MOL0     H61054   0.344   4.630   2.687 -3.2085 -1.3175 -0.0198
  463MOL0     H61055   0.227   4.440   2.623 -1.2518  1.0265  0.6141
  463MOL0     H61056   0.249   4.463   2.447 -3.1615  0.8532 -1.0510
  463MOL0     H61057   0.088   4.657   2.453  0.4661 -0.7375  0.2710
  463MOL0     H61058   0.087   4.643   2.630  0.0425  0.8386 -0.3656
  463MOL0     H61059  -0.037   4.445   2.446  0.7222  3.1018 -1.5192
  463MOL0     H61060  -0.049   4.428   2.620 -0.1079  0.2366 -0.0952
  463MOL0     H61061  -0.178   4.647   2.451  2.1607 -0.5172 -0.5953
  463MOL0     H61062  -0.153   4.660   2.622  2.2104  2.8741 -2.5141
  463MOL0     H61063  -0.381   4.567   2.577 -0.9293 -0.0666 -1.1783
  463MOL0     H61064  -0.288   4.429   2.635 -2.0126  1.2224  0.9391
  463MOL0     H61065  -0.371   4.504   2.357  1.1725 -0.3835 -0.8479
  463MOL0     H61066  -0.262   4.365   2.395  0.0804 -1.0308  2.0691
  463MOL0     H61067  -0.429   4.284   2.562 -0.8129 -2.4634 -1.0745
  463MOL0     H61068  -0.470   4.267   2.386 -1.2653  3.2254 -2.0798
  463MOL0     H61069  -0.594   4.554   2.340 -0.4603  2.0386 -0.5796
  463MOL0     H61070  -0.804   4.721   2.400  0.7663  0.4270  0.3480
  463MOL0     H61071  -0.892   4.673   2.541  2.3547 -0.5862  1.4139
  463MOL0     H61072  -1.042   4.605   2.404  1.6467  0.1898  1.5771
  463MOL0     H61073  -0.965   4.454   2.392  0.3126  0.5172  3.8029
  463MOL0     H61074  -0.975   4.683   2.181  2.5139  0.7709  0.1323
  463MOL0     H61075  -0.852   4.564   2.165  0.9033  4.1010 -0.6138
  463MOL0     H61076  -1.059   4.393   2.168  0.6788  0.7587 -0.1872
  463MOL0     H61077  -1.034   4.499   2.029 -1.2644  0.8304 -0.1170
  463MOL0     H61078  -1.199   4.342   1.988 -0.4176  0.8198 -1.7344
  463MOL0     H61079  -1.388   4.263   1.874 -0.3781 -1.2077  0.9236
  463MOL0     H61080  -1.684   4.014   1.727 -2.9111 -3.0195 -1.4827
  463MOL0     H61081  -1.860   3.948   1.598 -0.1274 -0.5082  2.6239
  463MOL0     H61082  -2.192   4.111   1.577  2.1495 -1.6386  1.2156
  463MOL0     H61083  -2.120   3.957   1.548  0.0182 -1.3261 -2.9392
  463MOL0     H61084  -2.315   3.931   1.408 -1.1836  0.6202  1.1343
  463MOL0     H61085  -2.195   4.004   1.287  1.9925  1.4049  1.6002
  463MOL0     H61086  -2.310   4.221   1.350 -0.6356  0.4645  2.7464
  463MOL0     H61087  -2.433   4.135   1.435 -1.6091 -2.1647 -1.2823
  463MOL0     H61088  -2.398   4.082   1.140 -3.8331 -0.1699 -2.0510
  463MOL0     H61089  -2.495   3.986   1.250  2.5912 -1.3623  0.8468
  463MOL0     H61090  -2.494   4.290   1.197  0.9418  0.0731  1.0130
  463MOL0     H61091  -2.618   4.227   1.287 -1.0278  0.4136 -2.6513
  463MOL0     H61092  -2.678   4.066   1.082 -3.1750  1.3170  0.8279
  463MOL0     H61093  -2.577   4.158   0.985 -1.0546  2.9143 -0.3431
  463MOL0     H61094  -2.794   4.296   1.138 -0.0735  2.4175 -0.6650
  463MOL0     H61095  -2.675   4.369   1.030  0.0717  1.8226  2.6196
  463MOL0     H61096  -2.866   4.136   0.951 -2.0067  1.9410  2.1048
  463MOL0     H61097  -2.778   4.244   0.841 -1.3917  1.1551 -1.1093
  463MOL0     H61098  -1.992   4.363   1.568 -2.3844 -1.7165  0.9040
  463MOL0     H61099  -1.830   4.424   1.724 -1.2793  0.4335  0.2280
  463MOL0     H61100  -1.619   4.534   2.131  0.6446 -0.9285  2.1704
  463MOL0     H61101  -1.425   4.616   2.217 -2.9678  2.0405 -2.9870
  463MOL0     H61102   0.675   4.409   2.560  0.8790  0.5392 -0.2136
  463MOL0     H61103   0.902   4.471   2.662  0.4988 -0.1731 -2.5712
  463MOL0     H61104   1.142   5.058   2.679 -0.7181  1.0118  2.0900
  463MOL0     H61105   1.370   5.115   2.746  0.1389 -0.6909 -1.1319
  463MOL0     H61106   1.683   5.076   2.952 -0.9020 -2.2640  1.6335
  463MOL0     H61107   1.540   5.138   2.860  0.3302  1.4117  0.0406
  463MOL0     H61108   1.772   4.971   2.785 -0.0883  2.3308  3.5402
  463MOL0     H61109   1.631   4.931   2.691  1.1551  0.1890 -1.4891
  463MOL0     H61110   1.589   5.162   2.623  1.5494  2.1160  0.1983
  463MOL0     H61111   1.729   5.084   2.547  0.6848 -3.9977  0.9443
  463MOL0     H61112   1.784   5.318   2.624  1.1520 -0.0585 -0.3002
  463MOL0     H61113   1.746   5.282   2.787  2.7302  0.3740  1.6294
  463MOL0     H61114   2.140   5.150   2.749  0.8249  0.3457 -0.4146
  463MOL0     H61115   1.378   4.743   2.973  1.7457  1.7472 -0.7458
  463MOL0     H61116   1.155   4.694   2.869  2.1624 -1.5035 -0.1926
  464MOL0     O61117   0.569   3.338   8.161  0.1155  0.3620  0.0514
  464MOL0     C61118   0.560   3.422   8.248 -0.1685  0.0165 -0.6879
  464MOL0     O61119   0.443   3.488   8.279  0.0150 -0.0814  0.8567
  464MOL0     C61120   0.329   3.465   8.201  1.0149  0.4005  0.2626
  464MOL0     C61121   0.260   3.574   8.145 -0.2039 -0.3957 -1.4129
  464MOL0     C61122   0.129   3.549   8.104 -0.3334  0.3401  0.1069
  464MOL0     C61123   0.064   3.428   8.095  0.1621 -0.3121 -0.9916
  464MOL0     O61124  -0.066   3.420   8.050  0.1508 -0.3388  0.4081
  464MOL0     C61125  -0.133   3.293   8.059 -0.7992  0.0691 -0.0919
  464MOL0     C61126  -0.286   3.318   8.042 -0.2361 -0.3022  0.2001
  464MOL0     C61127  -0.327   3.330   7.898  0.8454 -0.3113 -0.1005
  464MOL0     C61128  -0.479   3.349   7.901  0.4198 -0.8092  0.2108
  464MOL0     C61129  -0.548   3.321   7.763  0.0489 -0.3546 -0.1292
  464MOL0     C61130  -0.694   3.280   7.773  0.5054  0.2533  0.0015
  464MOL0     C61131  -0.753   3.225   7.652  0.6181  0.0917  0.2318
  464MOL0     C61132  -0.904   3.183   7.662 -0.2236  0.9153 -1.3618
  464MOL0     N61133  -0.993   3.289   7.659  0.5777  0.7282  0.0464
  464MOL0     C61134  -1.029   3.364   7.763 -0.2834 -0.0880 -0.0161
  464MOL0     C61135  -1.122   3.452   7.724  0.7980  0.4957  0.3465
  464MOL0     C61136  -1.160   3.569   7.811  0.3677  0.6098  0.2782
  464MOL0     C61137  -1.249   3.510   7.924  0.2216 -0.5260 -0.5652
  464MOL0     C61138  -1.280   3.624   8.031  0.7168 -0.1497  0.6824
  464MOL0     C61139  -1.376   3.570   8.147 -0.6460  0.0198  0.0864
  464MOL0     O61140  -1.477   3.487   8.078  0.0470  0.0202 -0.3640
  464MOL0     C61141  -1.588   3.449   8.148 -0.4695 -0.1187 -0.2473
  464MOL0     C61142  -1.669   3.360   8.088  0.4558  0.1113 -0.5628
  464MOL0     C61143  -1.798   3.325   8.136 -0.6926 -0.4962 -0.6530
  464MOL0     C61144  -1.852   3.382   8.255 -0.4917 -0.2733 -0.1109
  464MOL0     C61145  -1.989   3.367   8.297  0.0813  0.3116  0.4740
  464MOL0     O61146  -2.022   3.466   8.391  0.3100 -0.2340  0.0655
  464MOL0     C61147  -2.117   3.442   8.487  0.4939 -0.4692  0.2488
  464MOL0     C61148  -2.157   3.554   8.561 -0.4084  0.2147  0.2194
  464MOL0     C61149  -2.262   3.548   8.660 -0.3799  1.1576 -0.6946
  464MOL0     C61150  -2.327   3.425   8.683  0.1598 -0.0026  0.7453
  464MOL0     O61151  -2.437   3.408   8.762  0.3212  0.3222 -0.5857
  464MOL0     C61152  -2.510   3.531   8.783  0.2927  0.4845  0.0355
  464MOL0     C61153  -2.638   3.475   8.863 -0.0343  0.0980 -0.3183
  464MOL0     C61154  -2.697   3.346   8.818 -0.4000  0.6674 -0.1225
  464MOL0     C61155  -2.841   3.334   8.875  0.7952  0.0623  0.1324
  464MOL0     C61156  -2.926   3.244   8.787  0.1434 -0.0319 -0.4074
  464MOL0     C61157  -2.890   3.101   8.771 -0.5181  0.2899 -1.0527
  464MOL0     C61158  -2.942   3.046   8.636  0.0772  0.2915  1.0500
  464MOL0     C61159  -2.915   2.900   8.616 -0.8531 -0.8543  0.5321
  464MOL0    Cl61160  -2.945   2.864   8.441 -0.3201  0.0519  0.3888
  464MOL0     C61161  -2.287   3.312   8.607 -0.1495  0.2166 -0.0096
  464MOL0     C61162  -2.185   3.324   8.514  0.3808  0.4618 -0.3598
  464MOL0     O61163  -2.063   3.279   8.250 -1.0129 -0.2377  0.2681
  464MOL0     C61164  -1.762   3.464   8.329 -1.1644  0.3522 -0.2023
  464MOL0     C61165  -1.625   3.494   8.276 -0.2840 -0.0828 -0.3139
  464MOL0     N61166  -1.160   3.426   7.593  0.3526 -0.3529 -1.1421
  464MOL0     N61167  -1.078   3.323   7.554 -0.3227  0.0551 -0.1134
  464MOL0     C61168   0.141   3.314   8.147  0.4274  0.8841  0.2247
  464MOL0     C61169   0.275   3.334   8.195 -0.0916  0.7871 -0.3587
  464MOL0     C61170   0.671   3.437   8.344  0.6816  1.0146  0.6516
  464MOL0     C61171   0.795   3.380   8.324 -0.8550  0.7745 -0.0078
  464MOL0     C61172   0.896   3.398   8.419  0.5804 -0.2853  0.2069
  464MOL0     C61173   0.879   3.482   8.527 -0.0894  0.7259  0.1829
  464MOL0     O61174   0.981   3.496   8.608 -0.0688  0.2364  0.5360
  464MOL0     C61175   0.977   3.596   8.712 -0.6198 -0.6955 -0.1184
  464MOL0     C61176   1.100   3.592   8.811 -0.3421  0.0762 -0.2454
  464MOL0     C61177   1.227   3.587   8.726 -0.0869  0.0689 -0.2706
  464MOL0     C61178   1.355   3.614   8.805 -0.1156  1.4092 -0.4084
  464MOL0     C61179   1.370   3.747   8.868  0.0941  0.8948 -0.3325
  464MOL0     C61180   1.384   3.866   8.888  0.8652 -0.1594  0.0850
  464MOL0     C61181   0.753   3.546   8.536 -0.2446 -0.9256  0.2062
  464MOL0     C61182   0.649   3.525   8.451  0.6749 -0.2236  0.7105
  464MOL0     H61183   0.310   3.668   8.124  1.7146 -0.5515  1.8991
  464MOL0     H61184   0.080   3.628   8.048  1.0127 -0.7554 -2.8222
  464MOL0     H61185  -0.111   3.248   8.156  0.2019  0.6651 -0.0305
  464MOL0     H61186  -0.109   3.230   7.973  0.3419 -1.6851  1.4350
  464MOL0     H61187  -0.327   3.403   8.098  1.2261  2.0588 -2.0932
  464MOL0     H61188  -0.333   3.232   8.091  0.4213 -0.1267  1.1827
  464MOL0     H61189  -0.303   3.238   7.844 -1.5226 -1.2944  0.3934
  464MOL0     H61190  -0.267   3.411   7.855  1.9079 -1.9416 -1.8432
  464MOL0     H61191  -0.523   3.267   7.958 -1.2378  1.0169  1.6782
  464MOL0     H61192  -0.510   3.445   7.942 -4.1940 -2.1670  0.4144
  464MOL0     H61193  -0.488   3.252   7.703  1.3514  0.3966  0.2623
  464MOL0     H61194  -0.548   3.418   7.711  0.5890  0.3594  1.1687
  464MOL0     H61195  -0.759   3.357   7.815 -0.1729 -0.2001 -0.2003
  464MOL0     H61196  -0.705   3.191   7.835  0.9956  0.3099  0.1793
  464MOL0     H61197  -0.746   3.297   7.571  1.8701 -0.1980  0.0700
  464MOL0     H61198  -0.701   3.135   7.619  2.6631  0.9458  0.9799
  464MOL0     H61199  -0.927   3.119   7.748  0.8670  0.2940 -1.5141
  464MOL0     H61200  -0.928   3.113   7.581 -3.7658  0.2838  0.0516
  464MOL0     H61201  -0.980   3.376   7.859  3.9721 -2.0624 -1.6572
  464MOL0     H61202  -1.216   3.636   7.746 -0.5032  2.1462  2.4885
  464MOL0     H61203  -1.073   3.628   7.843 -0.0839  1.4472 -0.0263
  464MOL0     H61204  -1.205   3.425   7.976 -1.7437 -1.4755 -0.3554
  464MOL0     H61205  -1.345   3.482   7.881 -0.5580 -1.3795  1.5939
  464MOL0     H61206  -1.196   3.668   8.084  1.3966 -2.1832  1.4251
  464MOL0     H61207  -1.327   3.702   7.971  0.6149 -0.2406  0.6424
  464MOL0     H61208  -1.423   3.647   8.208 -0.2974 -1.2173  1.9830
  464MOL0     H61209  -1.329   3.500   8.216 -1.4185  1.1279  1.8047
  464MOL0     H61210  -1.645   3.317   7.992 -0.5766  0.6799 -1.0901
  464MOL0     H61211  -1.864   3.267   8.072 -0.8514  0.1409 -1.0768
  464MOL0     H61212  -2.101   3.643   8.537 -1.6823  1.1197  0.5352
  464MOL0     H61213  -2.298   3.635   8.714 -4.1214 -0.2375 -0.6088
  464MOL0     H61214  -2.536   3.561   8.681  4.0201  0.4824 -1.0979
  464MOL0     H61215  -2.465   3.613   8.840  0.9855  0.7377 -0.8418
  464MOL0     H61216  -2.717   3.550   8.872 -1.9691 -1.9137  0.4976
  464MOL0     H61217  -2.617   3.459   8.969 -0.3154 -2.3351 -0.5803
  464MOL0     H61218  -2.634   3.264   8.854  0.7668  0.3534 -2.6905
  464MOL0     H61219  -2.703   3.337   8.709  0.3509 -1.6927 -0.0337
  464MOL0     H61220  -2.836   3.295   8.978  4.0565 -1.5548 -0.5176
  464MOL0     H61221  -2.895   3.429   8.880 -0.2267 -0.4844 -0.3026
  464MOL0     H61222  -2.927   3.293   8.689 -2.0193  1.6518  0.3850
  464MOL0     H61223  -3.028   3.257   8.824  0.3552  3.2047 -0.6752
  464MOL0     H61224  -2.945   3.045   8.847  0.8034 -1.6177 -1.4295
  464MOL0     H61225  -2.781   3.098   8.785 -0.3289 -1.7811 -2.4662
  464MOL0     H61226  -3.048   3.068   8.622  0.0858  0.3112  1.0145
  464MOL0     H61227  -2.885   3.089   8.553 -1.0306 -1.9746 -1.0003
  464MOL0     H61228  -2.967   2.841   8.692  0.1002 -1.6637  0.5788
  464MOL0     H61229  -2.808   2.883   8.630 -0.5737 -1.2843 -1.7142
  464MOL0     H61230  -2.348   3.225   8.630 -1.7807  1.6047  1.1388
  464MOL0     H61231  -2.150   3.231   8.470  1.4153  1.1853 -1.1242
  464MOL0     H61232  -1.799   3.502   8.424  0.4053  2.6537 -0.4332
  464MOL0     H61233  -1.556   3.564   8.322 -0.7098  0.6878 -0.8286
  464MOL0     H61234   0.094   3.216   8.151 -0.0538  1.1376  2.0808
  464MOL0     H61235   0.324   3.246   8.236  0.1290  1.5979  1.1763
  464MOL0     H61236   0.835   3.320   8.242  1.1987  1.3772  0.4909
  464MOL0     H61237   0.990   3.344   8.416 -0.1724 -2.5331  5.4751
  464MOL0     H61238   0.892   3.584   8.781 -0.0920 -0.7482  0.5344
  464MOL0     H61239   0.969   3.698   8.673 -1.1986 -0.0994  1.4772
  464MOL0     H61240   1.102   3.681   8.874 -0.9430  0.2043 -0.4058
  464MOL0     H61241   1.093   3.504   8.876  3.6890  0.1591  0.5857
  464MOL0     H61242   1.220   3.653   8.640  0.3612 -1.3835 -1.4720
  464MOL0     H61243   1.249   3.491   8.678  0.6539  0.0335  0.1258
  464MOL0     H61244   1.362   3.532   8.877  0.2545  1.3233 -0.5425
  464MOL0     H61245   1.437   3.599   8.734  0.2700 -0.7882  0.4368
  464MOL0     H61246   1.397   3.972   8.899 -1.0295  0.0802  0.3113
  464MOL0     H61247   0.751   3.621   8.614  4.3493 -0.9224  0.6227
  464MOL0     H61248   0.556   3.577   8.474 -0.4038 -1.6397 -0.2912
  465MOL0     O61249   2.439  10.736   6.368 -0.1339 -0.1281  0.6263
  465MOL0     C61250   2.409  10.835   6.303 -0.0734 -0.4304  1.1472
  465MOL0     O61251   2.283  10.885   6.284 -0.1724  0.0383 -0.4205
  465MOL0     C61252   2.179  10.814   6.340 -0.3563 -0.3221  0.2497
  465MOL0     C61253   2.061  10.787   6.269 -0.0329 -0.0120  0.3876
  465MOL0     C61254   1.954  10.721   6.332  0.6690 -0.0795  0.6421
  465MOL0     C61255   1.966  10.668   6.465 -0.2277 -0.4641 -1.0209
  465MOL0     O61256   1.859  10.602   6.520 -0.0992  0.0651  0.1312
  465MOL0     C61257   1.882  10.532   6.643 -0.4391 -0.3418  0.6045
  465MOL0     C61258   1.761  10.450   6.685 -0.1222 -1.3752 -0.7827
  465MOL0     C61259   1.777  10.374   6.817 -0.0762 -0.6634 -0.2926
  465MOL0     C61260   1.637  10.316   6.854  1.0741 -0.2658 -0.3512
  465MOL0     C61261   1.652  10.191   6.944  0.3180 -0.4745 -0.6133
  465MOL0     C61262   1.526  10.163   7.023 -0.0132 -0.6390  0.0647
  465MOL0     C61263   1.538  10.036   7.107  0.2419  0.0767  0.1017
  465MOL0     C61264   1.416   9.969   7.157  0.7941 -0.2825 -0.1283
  465MOL0     N61265   1.367  10.036   7.281 -0.3569  0.2340  0.3272
  465MOL0     C61266   1.437  10.060   7.398 -0.1856  0.5209  0.1559
  465MOL0     C61267   1.359  10.123   7.482 -0.2040 -1.0703 -0.2554
  465MOL0     C61268   1.400  10.174   7.631  1.0644 -0.0346  1.1756
  465MOL0     C61269   1.292  10.268   7.697 -0.2848  0.8159  0.1595
  465MOL0     C61270   1.326  10.305   7.843  0.5205 -0.4364  0.4845
  465MOL0     C61271   1.306  10.192   7.939  0.2780  0.2582 -0.3481
  465MOL0     O61272   1.411  10.183   8.033  0.3595 -0.0082 -0.5361
  465MOL0     C61273   1.405  10.074   8.118 -0.7347 -0.1100 -0.3440
  465MOL0     C61274   1.517  10.065   8.198 -0.1613 -0.6679  0.5269
  465MOL0     C61275   1.536   9.964   8.287 -0.2143  0.0567 -0.1523
  465MOL0     C61276   1.436   9.866   8.304  0.1259 -0.0560 -0.1621
  465MOL0     C61277   1.453   9.757   8.404  0.2660  1.4787 -0.2774
  465MOL0     O61278   1.566   9.760   8.487 -0.4736  0.3099 -0.7654
  465MOL0     C61279   1.582   9.672   8.581 -0.9346  1.0203  0.0643
  465MOL0     C61280   1.695   9.586   8.564  0.0685 -0.5231  0.5893
  465MOL0     C61281   1.739   9.504   8.666  0.2102 -0.3033  0.1605
  465MOL0     C61282   1.685   9.515   8.796  1.5299  0.4258  0.4573
  465MOL0     O61283   1.728   9.435   8.899 -0.0104  0.2523 -0.6375
  465MOL0     C61284   1.859   9.391   8.900 -0.6636 -1.0244  0.3904
  465MOL0     C61285   1.894   9.315   9.022 -0.2697 -1.0309  1.2589
  465MOL0     C61286   2.037   9.262   9.008 -0.5041  0.0714  0.7867
  465MOL0     C61287   2.141   9.369   9.053 -0.6488 -1.1460  0.0611
  465MOL0     C61288   2.140   9.404   9.202 -0.5304 -0.3955  1.0725
  465MOL0     C61289   2.248   9.496   9.264  0.0487 -1.2239 -0.0643
  465MOL0     C61290   2.398   9.458   9.263 -0.3075 -0.0807 -0.3981
  465MOL0     C61291   2.491   9.570   9.323  0.0161 -0.0115  0.1211
  465MOL0    Cl61292   2.512   9.701   9.204 -0.3364  0.2280  0.2399
  465MOL0     C61293   1.572   9.593   8.811 -0.2192 -1.0478 -0.6407
  465MOL0     C61294   1.518   9.673   8.708 -0.4307  0.1319 -0.0390
  465MOL0     O61295   1.367   9.670   8.412 -0.8314 -0.3965 -0.4973
  465MOL0     C61296   1.319   9.875   8.224 -0.2643  0.2779  0.3178
  465MOL0     C61297   1.311   9.974   8.129  1.0893  0.4202  0.7345
  465MOL0     N61298   1.256  10.171   7.400  0.3020  0.4550 -0.6893
  465MOL0     N61299   1.261  10.118   7.285  0.3742  0.3972 -0.2666
  465MOL0     C61300   2.093  10.697   6.532 -0.2419  0.4068  0.2437
  465MOL0     C61301   2.193  10.768   6.470  0.0173  0.2276 -0.3881
  465MOL0     C61302   2.511  10.891   6.225 -0.8586  0.1385  0.2200
  465MOL0     C61303   2.480  10.994   6.127 -0.1037  0.2962  0.9693
  465MOL0     C61304   2.584  11.045   6.044  0.4655  0.8354  0.1364
  465MOL0     C61305   2.715  11.017   6.065 -0.7040  0.6031  0.1684
  465MOL0     O61306   2.821  11.069   5.989 -0.3719 -0.8999 -0.6218
  465MOL0     C61307   2.796  11.149   5.877 -0.6916 -0.1264  0.2238
  465MOL0     C61308   2.763  11.298   5.901 -0.2110  0.5403  0.5520
  465MOL0     C61309   2.736  11.368   5.763 -0.2326 -0.1797  0.1708
  465MOL0     C61310   2.723  11.517   5.769  0.5436  0.4462  0.4002
  465MOL0     C61311   2.843  11.585   5.808  0.0873  0.4179 -0.4788
  465MOL0     C61312   2.937  11.657   5.820 -0.4216 -0.5166 -0.3069
  465MOL0     C61313   2.749  10.925   6.168  0.3047 -0.3363  0.2423
  465MOL0     C61314   2.644  10.858   6.239 -0.4212 -0.4225  0.8242
  465MOL0     H61315   2.051  10.821   6.166 -0.2711 -0.5952  0.2127
  465MOL0     H61316   1.859  10.699   6.285  0.6598 -1.2564  1.1842
  465MOL0     H61317   1.904  10.598   6.728  1.1765  0.3774 -0.3436
  465MOL0     H61318   1.969  10.466   6.636 -0.5246 -0.3793 -0.0951
  465MOL0     H61319   1.730  10.385   6.601 -0.0854  1.3602 -3.0609
  465MOL0     H61320   1.687  10.528   6.704  2.9220  0.9231  3.1998
  465MOL0     H61321   1.824  10.446   6.885  4.2009  0.8874 -4.3541
  465MOL0     H61322   1.859  10.302   6.814  0.9580  0.3358  1.8576
  465MOL0     H61323   1.590  10.397   6.910  0.0728 -0.7961 -0.3953
  465MOL0     H61324   1.587  10.297   6.758  0.2756 -1.6455  0.2982
  465MOL0     H61325   1.735  10.206   7.014  0.0019 -0.3074 -0.2650
  465MOL0     H61326   1.684  10.109   6.879 -0.2570  0.8161 -2.6175
  465MOL0     H61327   1.437  10.157   6.960 -1.3027  0.0751  1.7491
  465MOL0     H61328   1.497  10.241   7.094 -1.4998 -1.5019  0.4571
  465MOL0     H61329   1.587   9.963   7.042  2.0421  1.9133 -0.7343
  465MOL0     H61330   1.604  10.047   7.194  0.8903  1.7859 -0.5603
  465MOL0     H61331   1.445   9.868   7.186  0.4794 -0.2392  0.3378
  465MOL0     H61332   1.331   9.975   7.088 -1.1866  2.1221  2.2872
  465MOL0     H61333   1.539  10.031   7.420  0.8326 -0.5900 -4.8302
  465MOL0     H61334   1.484  10.244   7.622  0.4843  0.5136 -0.1450
  465MOL0     H61335   1.426  10.085   7.690 -0.4221 -0.5125  1.1466
  465MOL0     H61336   1.199  10.210   7.702 -0.5536  1.1726 -0.5469
  465MOL0     H61337   1.280  10.342   7.618 -0.3557  0.1554 -0.4632
  465MOL0     H61338   1.432  10.334   7.847  0.4659  0.3586 -2.0106
  465MOL0     H61339   1.268  10.384   7.891  1.7319 -0.2851  1.7667
  465MOL0     H61340   1.298  10.097   7.885 -0.1457  0.6715 -1.0228
  465MOL0     H61341   1.216  10.210   7.998  0.1038 -2.0140  0.1754
  465MOL0     H61342   1.589  10.141   8.170  1.4938 -0.8563  3.7554
  465MOL0     H61343   1.637   9.950   8.325  0.4137  0.2859 -1.6423
  465MOL0     H61344   1.747   9.586   8.470 -0.3872 -0.5654  0.3337
  465MOL0     H61345   1.813   9.427   8.651  0.0512 -0.8613  1.9956
  465MOL0     H61346   1.933   9.470   8.885  1.4098 -2.6381  1.6268
  465MOL0     H61347   1.862   9.310   8.827 -0.3608 -1.5930  1.0117
  465MOL0     H61348   1.824   9.233   9.038 -0.3918 -1.0487  0.6470
  465MOL0     H61349   1.878   9.377   9.111  0.3903 -2.9436  2.7845
  465MOL0     H61350   2.059   9.234   8.904 -1.3469  0.1947  0.5627
  465MOL0     H61351   2.036   9.173   9.071 -0.2423 -1.6425 -1.4846
  465MOL0     H61352   2.240   9.329   9.030 -1.1737 -1.3970 -1.9519
  465MOL0     H61353   2.122   9.461   8.998 -1.5382  0.6419  3.1114
  465MOL0     H61354   2.152   9.304   9.244 -0.1551 -0.1767  1.4901
  465MOL0     H61355   2.047   9.445   9.240 -0.4664  0.4205  0.3647
  465MOL0     H61356   2.219   9.496   9.369 -0.8838  0.5995 -0.2854
  465MOL0     H61357   2.236   9.593   9.217  1.5099 -0.3150  1.3118
  465MOL0     H61358   2.408   9.362   9.315  0.6642  0.5680  0.6618
  465MOL0     H61359   2.427   9.443   9.159 -0.1862  0.7000 -0.4804
  465MOL0     H61360   2.592   9.533   9.340  1.2612  1.3053 -3.6100
  465MOL0     H61361   2.449   9.597   9.421  0.3541 -0.5530  0.4254
  465MOL0     H61362   1.519   9.594   8.906 -1.6437 -4.3620 -1.2783
  465MOL0     H61363   1.427   9.729   8.728  0.0839  0.1482  2.5933
  465MOL0     H61364   1.245   9.795   8.220  1.9278 -1.8713 -3.9784
  465MOL0     H61365   1.234   9.971   8.053  0.1299 -7.0287  1.2776
  465MOL0     H61366   2.117  10.668   6.634  2.3297 -1.0914 -0.6830
  465MOL0     H61367   2.282  10.781   6.531 -0.5152  2.4966  0.0206
  465MOL0     H61368   2.381  11.034   6.108  0.1325 -0.5622 -2.9613
  465MOL0     H61369   2.538  11.102   5.964 -1.4384  3.0199  2.5844
  465MOL0     H61370   2.708  11.104   5.829  1.1492 -1.7488 -1.7921
  465MOL0     H61371   2.871  11.143   5.798  0.6556  0.8820  1.3660
  465MOL0     H61372   2.667  11.297   5.955 -2.5236  1.2076 -3.2003
  465MOL0     H61373   2.852  11.333   5.955 -0.0153 -0.8461  1.1760
  465MOL0     H61374   2.633  11.342   5.735  0.0909 -1.0974 -0.2120
  465MOL0     H61375   2.809  11.334   5.690 -0.0275 -1.7568  1.0577
  465MOL0     H61376   2.690  11.563   5.675 -3.3421  0.9210  1.8266
  465MOL0     H61377   2.650  11.547   5.844  2.7120  0.1718  2.7466
  465MOL0     H61378   3.023  11.721   5.826 -0.3237 -0.5376 -1.3603
  465MOL0     H61379   2.851  10.911   6.204 -0.5696 -1.2409  2.5103
  465MOL0     H61380   2.676  10.776   6.303 -1.5444 -1.8085 -0.3080
  466MOL0     O61381   4.767   0.581   5.315 -0.7273  0.6591 -0.2430
  466MOL0     C61382   4.743   0.659   5.402 -0.1047 -0.4805 -0.4255
  466MOL0     O61383   4.636   0.648   5.479 -0.5380  0.5855  0.1457
  466MOL0     C61384   4.557   0.538   5.474  0.2979 -0.5840 -0.3698
  466MOL0     C61385   4.424   0.564   5.424 -0.1103 -0.5247 -0.2641
  466MOL0     C61386   4.332   0.472   5.431  0.2341 -0.2215 -0.1681
  466MOL0     C61387   4.370   0.340   5.471  0.5884  1.1643 -0.9229
  466MOL0     O61388   4.274   0.243   5.463 -0.8220 -0.5365  0.3265
  466MOL0     C61389   4.302   0.121   5.529  0.4382 -0.6493 -0.4343
  466MOL0     C61390   4.177   0.042   5.542  0.0132  0.0810  0.4811
  466MOL0     C61391   4.095   0.029   5.412  0.3126 -0.0694  0.0492
  466MOL0     C61392   3.959  -0.047   5.446  0.1045 -0.0954  0.6775
  466MOL0     C61393   3.877  -0.068   5.312 -0.4180 -0.3708 -0.2146
  466MOL0     C61394   3.733  -0.112   5.323  0.1948 -0.3386  0.1419
  466MOL0     C61395   3.671  -0.119   5.183  1.2115  0.2900 -0.7627
  466MOL0     C61396   3.713  -0.254   5.119  0.1009 -0.3697  1.2949
  466MOL0     N61397   3.641  -0.272   4.989  0.8004  1.3166  0.3402
  466MOL0     C61398   3.709  -0.234   4.875  0.3458 -0.1839 -0.2181
  466MOL0     C61399   3.624  -0.287   4.781  0.1722 -0.7148 -0.3380
  466MOL0     C61400   3.632  -0.267   4.630  0.5349 -0.7390  0.3305
  466MOL0     C61401   3.774  -0.293   4.584  0.4415  0.2340 -0.7460
  466MOL0     C61402   3.784  -0.307   4.430  0.1788  0.0316  0.9481
  466MOL0     C61403   3.933  -0.333   4.383  0.7467 -0.0875 -0.0688
  466MOL0     O61404   3.937  -0.336   4.236 -0.9141  0.8357 -0.2670
  466MOL0     C61405   4.069  -0.333   4.188  0.1049 -0.3728  0.1314
  466MOL0     C61406   4.185  -0.342   4.272 -0.0653 -0.9078  1.1502
  466MOL0     C61407   4.316  -0.336   4.226 -0.5182  0.3236  0.2805
  466MOL0     C61408   4.343  -0.319   4.083  0.7688 -0.7584  0.6757
  466MOL0     C61409   4.481  -0.299   4.029 -0.5556 -0.1922  0.0504
  466MOL0     O61410   4.495  -0.290   3.894 -0.5315 -0.9177 -0.8926
  466MOL0     C61411   4.625  -0.314   3.842 -1.1017 -1.0770 -0.0714
  466MOL0     C61412   4.719  -0.407   3.895 -0.4901 -0.8043 -0.0223
  466MOL0     C61413   4.842  -0.426   3.827  0.0058  0.1957  0.2223
  466MOL0     C61414   4.869  -0.359   3.710  0.4597  1.2049  0.2617
  466MOL0     O61415   4.993  -0.369   3.660  0.5593  0.5147  0.2175
  466MOL0     C61416   5.045  -0.266   3.578  0.0582 -0.0225  0.7471
  466MOL0     C61417   5.198  -0.286   3.549 -0.5378 -0.3366  0.1107
  466MOL0     C61418   5.219  -0.409   3.467 -0.4161  1.1130 -0.6151
  466MOL0     C61419   5.368  -0.450   3.459  0.3072 -0.0132 -0.0218
  466MOL0     C61420   5.398  -0.576   3.367  0.7597 -0.7924  0.4313
  466MOL0     C61421   5.547  -0.627   3.378 -0.1066  0.1801 -0.3642
  466MOL0     C61422   5.543  -0.774   3.336 -0.0121 -0.1785 -0.5485
  466MOL0     C61423   5.674  -0.834   3.331 -0.1618 -0.2169 -0.8847
  466MOL0    Cl61424   5.657  -1.017   3.377 -0.4375  0.3647 -0.5924
  466MOL0     C61425   4.768  -0.273   3.659  0.0886  1.0718  0.7688
  466MOL0     C61426   4.650  -0.253   3.720 -0.1696  0.5943 -0.1532
  466MOL0     O61427   4.570  -0.295   4.118  0.8174  0.1649 -0.1209
  466MOL0     C61428   4.229  -0.320   3.997 -0.0754  0.4240 -0.5413
  466MOL0     C61429   4.099  -0.317   4.047 -0.4551  0.4059 -0.2514
  466MOL0     N61430   3.533  -0.372   4.837  0.1256  0.4385  0.6727
  466MOL0     N61431   3.548  -0.371   4.962 -0.9080 -1.1697  0.2606
  466MOL0     C61432   4.506   0.305   5.496  0.0745 -0.4292  0.4027
  466MOL0     C61433   4.601   0.411   5.506  0.3390 -0.1159  0.4415
  466MOL0     C61434   4.825   0.783   5.440  0.1422 -1.0780 -0.7287
  466MOL0     C61435   4.783   0.892   5.525 -0.3513 -0.0086 -0.6031
  466MOL0     C61436   4.874   0.998   5.548 -0.8155 -0.3099 -0.9104
  466MOL0     C61437   4.998   0.993   5.493  0.7565  0.2068  0.0303
  466MOL0     O61438   5.058   1.116   5.512 -0.0807  0.3097  0.1669
  466MOL0     C61439   5.166   1.150   5.421  0.3962  0.4951  0.2971
  466MOL0     C61440   5.222   1.298   5.426 -0.0426 -0.0419 -0.5041
  466MOL0     C61441   5.272   1.348   5.563  0.7160 -0.3473  0.8579
  466MOL0     C61442   5.393   1.274   5.619  1.1180 -1.0574  0.2078
  466MOL0     C61443   5.429   1.339   5.749 -1.2485 -0.4209 -0.3754
  466MOL0     C61444   5.476   1.382   5.857  0.1464 -0.1581  0.2842
  466MOL0     C61445   5.036   0.891   5.407 -0.4014  0.6062 -0.5250
  466MOL0     C61446   4.954   0.782   5.383 -0.2726 -0.0010  0.8059
  466MOL0     H61447   4.394   0.662   5.387  2.4732 -0.7137 -3.2176
  466MOL0     H61448   4.232   0.493   5.396  0.5423  1.2150 -0.2210
  466MOL0     H61449   4.347   0.139   5.627  1.4330 -3.9283 -0.1753
  466MOL0     H61450   4.374   0.063   5.472 -2.0700 -1.7593 -2.6944
  466MOL0     H61451   4.108   0.079   5.619  1.1163 -0.1076  1.5801
  466MOL0     H61452   4.191  -0.063   5.568 -1.3680 -0.5229 -1.0055
  466MOL0     H61453   4.162  -0.030   5.348  0.3795 -0.7417  0.7280
  466MOL0     H61454   4.073   0.122   5.360  1.3410  0.7015  0.9596
  466MOL0     H61455   3.975  -0.142   5.498 -1.7741  0.1169  1.7261
  466MOL0     H61456   3.899   0.020   5.508  0.6013  1.0506 -0.0497
  466MOL0     H61457   3.927  -0.145   5.253 -0.7334 -0.5202 -0.2929
  466MOL0     H61458   3.880   0.025   5.254 -2.9402 -1.3053 -2.0389
  466MOL0     H61459   3.671  -0.043   5.382  1.0284  1.0509 -0.5401
  466MOL0     H61460   3.726  -0.208   5.375 -0.9166 -0.5061 -0.3045
  466MOL0     H61461   3.561  -0.115   5.186  1.2652  1.1526  1.2351
  466MOL0     H61462   3.695  -0.036   5.117 -0.5279  2.1676  0.8471
  466MOL0     H61463   3.698  -0.343   5.182  3.0634 -0.4289  2.0642
  466MOL0     H61464   3.821  -0.260   5.105 -0.0408 -1.7745  0.5890
  466MOL0     H61465   3.785  -0.160   4.855 -0.3013  0.4242 -0.4618
  466MOL0     H61466   3.606  -0.169   4.590  0.4016 -0.9988 -0.2270
  466MOL0     H61467   3.558  -0.335   4.587  0.4784 -0.5833  0.1826
  466MOL0     H61468   3.808  -0.385   4.631  0.8401 -1.7054 -4.4621
  466MOL0     H61469   3.828  -0.205   4.621 -0.5301  0.4840  0.1324
  466MOL0     H61470   3.719  -0.388   4.396 -0.4713  0.9525 -0.0761
  466MOL0     H61471   3.760  -0.213   4.379  3.7011  0.8984  0.6792
  466MOL0     H61472   3.974  -0.425   4.425  0.6703 -0.6493 -1.1719
  466MOL0     H61473   3.995  -0.253   4.424 -1.1770  0.6340  1.6219
  466MOL0     H61474   4.182  -0.357   4.380 -1.1006  1.6530  1.5489
  466MOL0     H61475   4.398  -0.344   4.298  0.6724  3.7164 -0.5031
  466MOL0     H61476   4.696  -0.467   3.982 -0.2841  2.3682  2.4338
  466MOL0     H61477   4.913  -0.497   3.869 -0.6806 -0.1928  0.7582
  466MOL0     H61478   5.026  -0.178   3.640 -0.0471 -0.8251  1.8890
  466MOL0     H61479   4.984  -0.276   3.488 -3.0713  0.6480  2.6652
  466MOL0     H61480   5.258  -0.295   3.640 -2.1174  1.4323  1.4114
  466MOL0     H61481   5.236  -0.199   3.496 -0.0070 -2.6760 -3.7188
  466MOL0     H61482   5.185  -0.398   3.364 -1.3737 -1.2015 -0.6105
  466MOL0     H61483   5.165  -0.491   3.514  0.8239 -0.2360 -1.4364
  466MOL0     H61484   5.420  -0.362   3.420  0.5092  0.2031  0.7221
  466MOL0     H61485   5.402  -0.469   3.562  1.1917  2.4029  0.1857
  466MOL0     H61486   5.380  -0.552   3.262  3.2010 -1.7429 -0.2765
  466MOL0     H61487   5.319  -0.646   3.397 -3.9483  2.6993 -2.3947
  466MOL0     H61488   5.576  -0.617   3.483 -1.6991  3.1655 -0.0921
  466MOL0     H61489   5.620  -0.577   3.315  0.7927 -2.8154 -1.8856
  466MOL0     H61490   5.490  -0.838   3.408 -0.2373  1.8296  1.2051
  466MOL0     H61491   5.493  -0.774   3.239  0.7142  3.5269 -1.0819
  466MOL0     H61492   5.743  -0.786   3.401 -1.6466  0.2347  0.3143
  466MOL0     H61493   5.718  -0.818   3.232  3.4430 -0.5700  0.4935
  466MOL0     H61494   4.785  -0.211   3.571  0.0622 -2.3182 -1.8123
  466MOL0     H61495   4.566  -0.192   3.686 -1.8396 -0.3809  1.9488
  466MOL0     H61496   4.246  -0.314   3.890  0.7658  1.8813 -0.3527
  466MOL0     H61497   4.015  -0.313   3.978 -0.6336  1.5099  0.0019
  466MOL0     H61498   4.529   0.200   5.509 -3.2219 -1.6238 -1.8588
  466MOL0     H61499   4.705   0.390   5.527  0.3535 -1.0286 -0.4365
  466MOL0     H61500   4.684   0.900   5.569 -0.8295 -2.2743 -1.1736
  466MOL0     H61501   4.835   1.089   5.591  0.2426 -0.2411 -0.0414
  466MOL0     H61502   5.142   1.129   5.317  0.5150  1.9768 -0.0442
  466MOL0     H61503   5.252   1.084   5.435  1.3291  1.0747 -2.2083
  466MOL0     H61504   5.311   1.314   5.365  0.9617 -0.9892  0.6528
  466MOL0     H61505   5.136   1.358   5.395 -1.5914 -0.7822  1.9877
  466MOL0     H61506   5.192   1.347   5.637 -1.1735 -0.9038 -1.1016
  466MOL0     H61507   5.299   1.454   5.553  0.8216 -0.4599 -0.1483
  466MOL0     H61508   5.361   1.170   5.630 -0.0498 -0.5984  1.4877
  466MOL0     H61509   5.478   1.280   5.551  0.7835  0.0872 -0.1373
  466MOL0     H61510   5.515   1.421   5.949 -1.8897 -0.9782  1.5526
  466MOL0     H61511   5.134   0.890   5.359  0.4726 -3.5660  0.8864
  466MOL0     H61512   4.980   0.694   5.325  0.1527 -0.2887  1.4162
  467MOL0     O61513   8.638   3.545   1.310  0.2816  0.0971  0.8837
  467MOL0     C61514   8.720   3.548   1.398  0.1976 -0.2305  0.5343
  467MOL0     O61515   8.726   3.480   1.520  0.8602  0.4486 -0.7555
  467MOL0     C61516   8.611   3.410   1.549 -0.2731 -0.0360 -0.7141
  467MOL0     C61517   8.623   3.269   1.544 -0.0486 -0.1797 -1.2969
  467MOL0     C61518   8.504   3.195   1.551  0.0947  0.3340  0.1489
  467MOL0     C61519   8.376   3.253   1.559 -0.4928  0.1260  0.5524
  467MOL0     O61520   8.274   3.163   1.568 -0.2076  0.2681  0.0506
  467MOL0     C61521   8.153   3.207   1.505  0.0123  1.0090  0.0315
  467MOL0     C61522   8.032   3.181   1.594 -0.3728  0.3296 -0.4634
  467MOL0     C61523   8.037   3.267   1.722  0.4989  0.1517 -0.1719
  467MOL0     C61524   7.915   3.218   1.817 -1.2849  0.8116  0.5481
  467MOL0     C61525   7.912   3.302   1.934  0.8761  0.4088 -0.4972
  467MOL0     C61526   7.778   3.273   2.014  0.4082  0.7498 -0.3905
  467MOL0     C61527   7.768   3.121   2.064 -1.1313  0.0301  0.1391
  467MOL0     C61528   7.654   3.106   2.172  0.3658  0.3370  0.4890
  467MOL0     N61529   7.518   3.147   2.135 -0.0943  0.1844  0.5009
  467MOL0     C61530   7.465   3.117   2.014  0.2487  0.6369 -0.5909
  467MOL0     C61531   7.338   3.166   2.031  0.2386  0.1727 -1.2240
  467MOL0     C61532   7.222   3.136   1.929 -0.3084  0.3766 -0.3430
  467MOL0     C61533   7.080   3.200   1.956  0.1270  0.1026  0.5432
  467MOL0     C61534   6.989   3.076   1.980  0.4137 -0.1537 -0.2520
  467MOL0     C61535   6.852   3.124   2.044  0.1846  0.7020 -0.1608
  467MOL0     O61536   6.789   3.197   1.943  0.0933 -0.7300 -0.1970
  467MOL0     C61537   6.656   3.178   1.918 -0.1374 -0.9388 -0.8762
  467MOL0     C61538   6.570   3.122   2.010 -0.3222  0.1337 -0.8075
  467MOL0     C61539   6.439   3.084   1.983  0.1879 -0.8609 -0.5733
  467MOL0     C61540   6.374   3.117   1.860 -0.4411  0.9450  0.4588
  467MOL0     C61541   6.234   3.095   1.830  0.1858  0.7371  0.2181
  467MOL0     O61542   6.172   2.997   1.904  0.0317 -0.1010  0.0526
  467MOL0     C61543   6.048   2.950   1.882  0.4354 -0.3007 -0.1028
  467MOL0     C61544   6.020   2.834   1.955  0.4025 -0.1447 -0.2141
  467MOL0     C61545   5.898   2.765   1.940  0.1004  0.2499 -0.2273
  467MOL0     C61546   5.796   2.818   1.862 -0.1807  0.3083 -0.1151
  467MOL0     O61547   5.681   2.745   1.851 -0.3413  0.4284 -0.3613
  467MOL0     C61548   5.595   2.781   1.742 -0.1469  0.0422  0.1536
  467MOL0     C61549   5.646   2.706   1.610  0.9024 -0.2478  0.6166
  467MOL0     C61550   5.539   2.679   1.504  0.1067  0.1422  0.2456
  467MOL0     C61551   5.507   2.821   1.443  0.0000 -0.2905  0.0032
  467MOL0     C61552   5.440   2.789   1.309 -0.6888  0.0118  0.0420
  467MOL0     C61553   5.394   2.914   1.227  0.8324 -0.3905  0.7614
  467MOL0     C61554   5.298   2.879   1.111 -0.8581  0.1317  0.3350
  467MOL0     C61555   5.372   2.861   0.973 -1.0808  0.3235 -0.0617
  467MOL0    Cl61556   5.423   3.017   0.899 -0.0652 -0.0054 -0.1755
  467MOL0     C61557   5.814   2.947   1.809 -0.1472 -0.7318 -0.8379
  467MOL0     C61558   5.938   3.006   1.810  0.1505 -0.5097 -0.0689
  467MOL0     O61559   6.191   3.135   1.721 -0.2328  0.4062  0.2864
  467MOL0     C61560   6.468   3.172   1.765 -1.0767  0.6985 -0.5984
  467MOL0     C61561   6.601   3.213   1.795  0.8422  0.3267  0.0870
  467MOL0     N61562   7.320   3.210   2.167 -0.1429  0.0619 -0.1057
  467MOL0     N61563   7.433   3.211   2.222 -0.3073 -0.8496  0.3015
  467MOL0     C61564   8.372   3.393   1.568  0.4205 -0.7566 -0.3426
  467MOL0     C61565   8.491   3.470   1.562  0.3283  0.2652 -0.8159
  467MOL0     C61566   8.854   3.612   1.374  0.4306  0.6123  0.4785
  467MOL0     C61567   8.878   3.664   1.252 -0.1615 -0.1743 -0.9067
  467MOL0     C61568   9.004   3.722   1.223 -0.2624 -0.4711 -0.3611
  467MOL0     C61569   9.113   3.708   1.309  0.7913 -0.3189  0.0571
  467MOL0     O61570   9.233   3.760   1.263  1.3197 -0.0585 -0.0859
  467MOL0     C61571   9.355   3.751   1.339  0.1686  0.5349  1.0644
  467MOL0     C61572   9.472   3.718   1.243  0.4413  0.2034  0.1709
  467MOL0     C61573   9.440   3.583   1.189  0.4054 -0.0927  1.2056
  467MOL0     C61574   9.568   3.526   1.124  0.5884 -0.0184 -0.3535
  467MOL0     C61575   9.676   3.489   1.214 -0.9170  0.1196  0.1555
  467MOL0     C61576   9.775   3.462   1.284  0.8295  0.7447  1.2967
  467MOL0     C61577   9.085   3.668   1.446  0.1269  0.9535  0.4717
  467MOL0     C61578   8.955   3.622   1.478  0.2312 -0.7459 -0.9024
  467MOL0     H61579   8.720   3.221   1.555 -0.4857 -0.6599  0.8791
  467MOL0     H61580   8.520   3.088   1.549  3.3617  0.7235  0.3269
  467MOL0     H61581   8.147   3.143   1.416 -0.7942  1.1049  0.0152
  467MOL0     H61582   8.159   3.305   1.457  0.4236 -0.1049 -2.3408
  467MOL0     H61583   8.027   3.074   1.619  0.6326  0.3910  0.0329
  467MOL0     H61584   7.938   3.205   1.542 -1.3530 -1.0956  0.5697
  467MOL0     H61585   8.022   3.371   1.694  1.4432 -0.1651 -2.0333
  467MOL0     H61586   8.136   3.262   1.767  1.6894  0.4931 -2.5630
  467MOL0     H61587   7.825   3.230   1.755 -0.6354  0.0874 -0.5658
  467MOL0     H61588   7.937   3.115   1.849  0.4957  0.6194 -1.1688
  467MOL0     H61589   7.921   3.407   1.904  2.2969 -0.3615 -3.0984
  467MOL0     H61590   7.998   3.276   1.997  1.7062  0.7779 -1.4428
  467MOL0     H61591   7.694   3.295   1.948  1.1935 -0.5022 -1.8796
  467MOL0     H61592   7.765   3.337   2.101 -0.7960  1.2034 -0.8851
  467MOL0     H61593   7.754   3.052   1.980  2.3743 -2.4771  1.3654
  467MOL0     H61594   7.849   3.082   2.125 -1.7675 -0.2645  0.8098
  467MOL0     H61595   7.684   3.175   2.252  1.7978  1.8663 -1.2851
  467MOL0     H61596   7.649   3.006   2.216  1.0262 -0.2069 -0.6434
  467MOL0     H61597   7.499   3.069   1.923 -0.4680 -2.1931  0.5167
  467MOL0     H61598   7.215   3.027   1.929 -0.3673  0.3704  0.8481
  467MOL0     H61599   7.262   3.167   1.832 -0.5024 -1.1059 -0.9211
  467MOL0     H61600   7.053   3.251   1.863 -0.6947 -0.8351  0.2526
  467MOL0     H61601   7.084   3.275   2.035 -1.6337 -0.2739  1.0216
  467MOL0     H61602   6.952   3.035   1.886  2.0527  0.9762 -1.4464
  467MOL0     H61603   7.042   3.001   2.039  0.0944 -0.9748 -1.0036
  467MOL0     H61604   6.857   3.177   2.139 -0.2948 -1.4132  1.1233
  467MOL0     H61605   6.802   3.029   2.066  0.1111 -0.3755 -4.0885
  467MOL0     H61606   6.605   3.080   2.103  0.5979  0.2346 -1.1002
  467MOL0     H61607   6.390   3.033   2.066  0.5138  0.5311  0.5158
  467MOL0     H61608   6.102   2.792   2.013 -0.4828 -1.8492 -0.1166
  467MOL0     H61609   5.896   2.670   1.992  2.9104  1.3417  2.2237
  467MOL0     H61610   5.565   2.886   1.735 -1.5527 -0.3365  0.1589
  467MOL0     H61611   5.497   2.733   1.752 -0.1746  0.2351  0.8694
  467MOL0     H61612   5.688   2.610   1.643 -0.3615 -1.9967 -2.4854
  467MOL0     H61613   5.721   2.770   1.563 -0.6335  0.2535 -1.3052
  467MOL0     H61614   5.449   2.629   1.540  1.2570 -2.3419 -0.0759
  467MOL0     H61615   5.588   2.620   1.425 -1.6771  1.5189 -2.0213
  467MOL0     H61616   5.441   2.868   1.516 -1.0721 -0.1503 -1.0313
  467MOL0     H61617   5.593   2.886   1.425 -0.2259  0.1295  0.4219
  467MOL0     H61618   5.347   2.741   1.342 -0.9685  2.5196  3.4761
  467MOL0     H61619   5.500   2.722   1.246  0.0718  2.2468 -1.7473
  467MOL0     H61620   5.475   2.972   1.182 -0.3279 -0.4733 -1.6083
  467MOL0     H61621   5.337   2.982   1.290  0.2482  0.1756 -0.3480
  467MOL0     H61622   5.238   2.790   1.131  0.7194 -1.4114 -1.4317
  467MOL0     H61623   5.233   2.964   1.085 -0.4152 -0.6779 -4.1807
  467MOL0     H61624   5.307   2.820   0.895 -0.1994  1.4738 -1.4430
  467MOL0     H61625   5.454   2.789   0.987  0.6083  1.9897 -0.9572
  467MOL0     H61626   5.735   3.009   1.768  2.0028  4.6389  2.2011
  467MOL0     H61627   5.957   3.103   1.764  1.0588 -0.3121  0.6690
  467MOL0     H61628   6.429   3.190   1.666 -0.6292 -3.2498 -1.6692
  467MOL0     H61629   6.662   3.257   1.717 -0.5063 -1.8019 -2.2971
  467MOL0     H61630   8.272   3.436   1.578  0.2003 -0.8830 -1.7390
  467MOL0     H61631   8.479   3.577   1.580 -3.8982 -0.4714  2.2382
  467MOL0     H61632   8.800   3.663   1.177 -0.9340 -1.4881 -0.1010
  467MOL0     H61633   9.020   3.751   1.120  1.3855 -0.3328 -0.0910
  467MOL0     H61634   9.347   3.673   1.415  0.8517 -1.2215 -0.5993
  467MOL0     H61635   9.374   3.845   1.393  3.8263  0.2191  0.6021
  467MOL0     H61636   9.470   3.798   1.169  2.5272 -0.0431 -0.2303
  467MOL0     H61637   9.571   3.728   1.290  0.0469  0.3594  0.9825
  467MOL0     H61638   9.362   3.580   1.113  2.0135  4.8528 -1.0451
  467MOL0     H61639   9.423   3.505   1.264  4.4958 -2.6189 -0.0985
  467MOL0     H61640   9.533   3.434   1.077  1.9397  0.6989 -2.9954
  467MOL0     H61641   9.607   3.585   1.041  2.0251 -2.2105 -1.3504
  467MOL0     H61642   9.840   3.416   1.355  0.8320  0.6765  1.2496
  467MOL0     H61643   9.170   3.656   1.513 -0.4686  0.0673  1.0998
  467MOL0     H61644   8.926   3.589   1.577  0.6605 -0.1805 -0.5806
  468MOL0     O61645   1.785   4.273   6.344 -0.6277 -0.2623 -0.3216
  468MOL0     C61646   1.808   4.156   6.310  0.6814 -0.3937  0.0397
  468MOL0     O61647   1.731   4.044   6.339 -0.3926 -0.6476  0.6219
  468MOL0     C61648   1.614   4.074   6.405  0.0524  0.1977  0.2381
  468MOL0     C61649   1.598   4.022   6.530 -0.4036 -0.4818 -0.6686
  468MOL0     C61650   1.496   4.073   6.611  0.8225  0.2662 -0.3189
  468MOL0     C61651   1.390   4.150   6.565 -0.2433 -0.0178 -0.3749
  468MOL0     O61652   1.284   4.164   6.654  0.3247 -0.9588  0.0700
  468MOL0     C61653   1.161   4.190   6.593  0.0267 -0.1505  0.0475
  468MOL0     C61654   1.047   4.155   6.690  0.2194 -0.3323 -0.0441
  468MOL0     C61655   0.907   4.192   6.630 -0.6102  0.3872  1.0087
  468MOL0     C61656   0.798   4.163   6.739 -0.0535 -0.1962 -0.2307
  468MOL0     C61657   0.663   4.149   6.678 -0.6971  0.0680  0.5562
  468MOL0     C61658   0.554   4.131   6.784  0.3626 -0.5864 -0.8186
  468MOL0     C61659   0.563   4.002   6.863 -0.3819  0.2227  0.0915
  468MOL0     C61660   0.550   3.880   6.769  0.8469  0.7135  0.0459
  468MOL0     N61661   0.412   3.865   6.711  0.0315  0.0276  0.4668
  468MOL0     C61662   0.311   3.802   6.769 -0.1542  0.2433 -0.8711
  468MOL0     C61663   0.208   3.800   6.685 -0.2390  0.0424 -0.2777
  468MOL0     C61664   0.072   3.746   6.724  0.4458 -0.5762 -0.0898
  468MOL0     C61665  -0.050   3.846   6.705  0.7022 -0.1392  0.6355
  468MOL0     C61666  -0.092   3.876   6.561 -0.2299 -0.7132  0.7922
  468MOL0     C61667  -0.195   3.784   6.497  0.0818  0.7208 -0.1851
  468MOL0     O61668  -0.318   3.779   6.573  0.0306  0.1318 -0.1110
  468MOL0     C61669  -0.434   3.732   6.514 -0.8239 -0.6138  0.1554
  468MOL0     C61670  -0.554   3.755   6.583  1.2283  0.0839  0.2286
  468MOL0     C61671  -0.668   3.680   6.561  0.1510 -0.2745  0.0876
  468MOL0     C61672  -0.667   3.579   6.461  0.4046 -0.6103 -0.4316
  468MOL0     C61673  -0.787   3.504   6.425  0.0442  0.0844 -0.0991
  468MOL0     O61674  -0.783   3.434   6.312  0.0575  0.6695  0.1670
  468MOL0     C61675  -0.878   3.343   6.282 -0.1413 -0.0461  0.6630
  468MOL0     C61676  -1.013   3.378   6.261  0.5025  1.1062  0.3264
  468MOL0     C61677  -1.105   3.280   6.214  0.5308 -0.3418 -0.3037
  468MOL0     C61678  -1.070   3.146   6.197  0.0859 -1.1771  0.1935
  468MOL0     O61679  -1.171   3.059   6.159  0.3167  0.0192 -0.0849
  468MOL0     C61680  -1.171   2.927   6.215  0.4630  0.1419 -0.3142
  468MOL0     C61681  -1.311   2.864   6.188  0.5247 -0.3798  0.1049
  468MOL0     C61682  -1.423   2.917   6.280 -0.3734  0.5048  0.3442
  468MOL0     C61683  -1.559   2.843   6.241  1.0394 -0.1316 -0.7931
  468MOL0     C61684  -1.678   2.923   6.316  0.0928 -1.4355 -0.1408
  468MOL0     C61685  -1.678   2.888   6.460 -0.2120 -0.3413  0.5014
  468MOL0     C61686  -1.786   2.975   6.520  0.6624  0.5312  0.6479
  468MOL0     C61687  -1.781   2.968   6.670 -0.5205 -0.5244 -0.5857
  468MOL0    Cl61688  -1.623   3.005   6.749 -0.7120  0.1412  0.1809
  468MOL0     C61689  -0.948   3.114   6.235  0.0306  0.6362  0.2226
  468MOL0     C61690  -0.853   3.207   6.276 -0.0602 -0.6034 -0.6666
  468MOL0     O61691  -0.875   3.508   6.506 -0.1423  0.6995 -0.0714
  468MOL0     C61692  -0.552   3.554   6.393 -0.0146 -0.7243 -0.1076
  468MOL0     C61693  -0.435   3.626   6.425 -0.3224  0.7737 -0.2318
  468MOL0     N61694   0.249   3.859   6.572  0.5282 -0.3379 -0.4553
  468MOL0     N61695   0.373   3.900   6.580 -0.2603 -0.1182 -0.5706
  468MOL0     C61696   1.398   4.187   6.431 -0.2276  1.2653 -0.5002
  468MOL0     C61697   1.508   4.148   6.360  0.5016  0.4691  0.8150
  468MOL0     C61698   1.945   4.128   6.253  0.7965 -0.9992  0.4040
  468MOL0     C61699   1.964   4.042   6.147  0.5909  0.7013 -0.3239
  468MOL0     C61700   2.083   4.049   6.071 -0.8028  0.1663 -0.4318
  468MOL0     C61701   2.197   4.126   6.112  0.4663  0.4088 -0.3816
  468MOL0     O61702   2.311   4.108   6.037  0.1523 -0.0899  0.5938
  468MOL0     C61703   2.432   4.143   6.099 -0.9531 -0.3715  1.1262
  468MOL0     C61704   2.550   4.054   6.038  0.2860 -0.2505  0.8635
  468MOL0     C61705   2.610   4.109   5.910 -0.9203 -0.1178 -0.4264
  468MOL0     C61706   2.520   4.155   5.795  1.2070 -0.5420  0.3548
  468MOL0     C61707   2.601   4.191   5.675  0.0281 -0.3436  0.0647
  468MOL0     C61708   2.663   4.228   5.576 -0.1672 -0.3874  1.0265
  468MOL0     C61709   2.180   4.201   6.227 -0.1388 -0.8110 -0.4711
  468MOL0     C61710   2.056   4.206   6.290  0.2045 -0.1499  0.1760
  468MOL0     H61711   1.674   3.952   6.564 -1.1062 -1.0502 -0.2282
  468MOL0     H61712   1.492   4.049   6.717  0.1389  0.2482 -0.3425
  468MOL0     H61713   1.142   4.118   6.513 -0.9523  0.2369 -0.0924
  468MOL0     H61714   1.148   4.292   6.558  1.5710 -0.3063 -1.0413
  468MOL0     H61715   1.060   4.212   6.782 -0.8858 -1.5903  0.9531
  468MOL0     H61716   1.042   4.051   6.726 -1.5576 -0.2014  0.1802
  468MOL0     H61717   0.888   4.129   6.543  1.2534  1.2850 -0.0897
  468MOL0     H61718   0.907   4.296   6.595 -0.3432 -0.4352 -1.6385
  468MOL0     H61719   0.818   4.064   6.782 -0.0781 -0.2254 -0.2864
  468MOL0     H61720   0.802   4.238   6.818 -3.2288  0.2098 -0.3420
  468MOL0     H61721   0.659   4.069   6.603 -1.1569  1.1985 -0.6606
  468MOL0     H61722   0.642   4.241   6.622 -1.2793 -0.6090 -0.3597
  468MOL0     H61723   0.462   4.133   6.724 -0.2126  1.6454  0.0449
  468MOL0     H61724   0.556   4.217   6.852 -1.6427 -0.2443 -1.1335
  468MOL0     H61725   0.654   3.987   6.921 -1.2130  1.7242  1.9187
  468MOL0     H61726   0.483   4.002   6.938 -1.0892 -0.8434 -0.6294
  468MOL0     H61727   0.573   3.781   6.808  2.5892  0.0791 -2.4282
  468MOL0     H61728   0.620   3.903   6.689  0.5070  2.5891  0.2393
  468MOL0     H61729   0.312   3.752   6.865 -1.3199 -2.5915 -2.2271
  468MOL0     H61730   0.082   3.705   6.825  1.0533 -2.2038 -0.7726
  468MOL0     H61731   0.051   3.655   6.666 -0.8755 -0.2272 -0.1880
  468MOL0     H61732  -0.021   3.942   6.749  1.2901  0.3337 -0.7437
  468MOL0     H61733  -0.139   3.807   6.756 -0.6780 -1.0086 -2.2685
  468MOL0     H61734  -0.146   3.971   6.560  0.6960 -0.1091  2.9961
  468MOL0     H61735  -0.008   3.894   6.494 -0.5016 -1.6583  0.1646
  468MOL0     H61736  -0.147   3.687   6.500  1.2144  1.2907  1.2773
  468MOL0     H61737  -0.209   3.813   6.392  3.7955  1.0850 -0.7162
  468MOL0     H61738  -0.556   3.832   6.659 -2.3624  2.1290 -1.6639
  468MOL0     H61739  -0.761   3.696   6.614  0.3235 -0.0230  0.3176
  468MOL0     H61740  -1.041   3.483   6.268 -1.1852  0.6657  0.5837
  468MOL0     H61741  -1.209   3.310   6.200  1.6099  3.3978 -1.2568
  468MOL0     H61742  -1.149   2.927   6.322  1.7109  1.9834 -0.5205
  468MOL0     H61743  -1.100   2.857   6.170  2.8734  0.1187  3.1136
  468MOL0     H61744  -1.310   2.755   6.201 -0.4487 -0.3387  0.6218
  468MOL0     H61745  -1.343   2.876   6.084 -2.0879  1.0187  0.9859
  468MOL0     H61746  -1.410   3.025   6.275  1.7791  0.2331 -1.4451
  468MOL0     H61747  -1.413   2.891   6.386 -0.5338  2.5384  0.8903
  468MOL0     H61748  -1.574   2.832   6.134  2.6796 -4.2147 -0.8091
  468MOL0     H61749  -1.562   2.742   6.286 -1.1321  0.2836  0.1389
  468MOL0     H61750  -1.775   2.892   6.278 -0.8170 -2.8486  2.9488
  468MOL0     H61751  -1.665   3.032   6.313  2.6198 -1.6880 -1.2297
  468MOL0     H61752  -1.584   2.916   6.509 -0.6956 -0.1175  1.3122
  468MOL0     H61753  -1.699   2.781   6.470 -0.6240 -0.3606 -0.4386
  468MOL0     H61754  -1.784   3.079   6.484  2.2747  0.2584 -0.1697
  468MOL0     H61755  -1.884   2.937   6.488  0.7262  1.6951 -1.1134
  468MOL0     H61756  -1.812   2.867   6.700 -2.5039 -0.0562 -0.8624
  468MOL0     H61757  -1.855   3.037   6.713  2.1992  1.7596  0.7326
  468MOL0     H61758  -0.914   3.011   6.238  0.3605  0.7524  2.9035
  468MOL0     H61759  -0.753   3.168   6.295 -0.6720 -1.2214  1.6707
  468MOL0     H61760  -0.545   3.473   6.321 -1.8962 -0.4407 -0.6892
  468MOL0     H61761  -0.347   3.586   6.376 -1.2526 -0.2008 -1.1811
  468MOL0     H61762   1.316   4.235   6.379  0.5258  1.1273 -1.8713
  468MOL0     H61763   1.518   4.178   6.256  1.5465  0.9353  1.0367
  468MOL0     H61764   1.877   3.984   6.117  0.2007  0.1911  1.6470
  468MOL0     H61765   2.095   3.985   5.985  0.9512 -1.5835  1.0158
  468MOL0     H61766   2.420   4.119   6.205 -2.0290 -2.9411  0.5013
  468MOL0     H61767   2.453   4.250   6.090 -0.4749 -0.5607 -0.2139
  468MOL0     H61768   2.630   4.070   6.111  2.4615  1.0795 -1.6226
  468MOL0     H61769   2.532   3.946   6.036  0.3751 -0.2842 -2.1393
  468MOL0     H61770   2.676   4.033   5.867  2.1069  2.2013 -0.2997
  468MOL0     H61771   2.677   4.191   5.939 -0.2956 -0.7098 -0.1872
  468MOL0     H61772   2.451   4.075   5.766  0.2434  1.2825 -2.8875
  468MOL0     H61773   2.452   4.237   5.821  1.4906 -0.5798  1.2786
  468MOL0     H61774   2.694   4.275   5.484 -2.0861  0.8828  0.9815
  468MOL0     H61775   2.265   4.257   6.264  1.1357 -3.7076  1.2469
  468MOL0     H61776   2.060   4.277   6.372  2.9801 -1.1649  1.0557
  469MOL0     O61777   5.238   1.153   8.201  0.4015  0.9623 -0.9636
  469MOL0     C61778   5.252   1.271   8.181 -0.9274 -0.0634  0.5136
  469MOL0     O61779   5.160   1.357   8.119 -0.4366  0.6688 -0.2128
  469MOL0     C61780   5.027   1.317   8.094 -0.6611 -0.8894  0.3293
  469MOL0     C61781   4.964   1.348   7.971 -0.6250 -0.5227  0.0389
  469MOL0     C61782   4.835   1.298   7.942  0.1032  0.2454  0.4566
  469MOL0     C61783   4.764   1.231   8.041 -0.0302  0.8857 -0.5959
  469MOL0     O61784   4.631   1.188   8.022  0.4893  0.2020 -0.2726
  469MOL0     C61785   4.549   1.253   7.932 -0.2742  0.3626 -0.4676
  469MOL0     C61786   4.401   1.206   7.960 -0.2360  0.2740  0.0935
  469MOL0     C61787   4.286   1.299   7.915  0.5438  0.0363  0.1671
  469MOL0     C61788   4.152   1.260   7.980  0.7655  0.0100 -0.4244
  469MOL0     C61789   4.026   1.333   7.924 -0.1040 -0.1249  0.0857
  469MOL0     C61790   3.920   1.366   8.030 -0.0585  0.0583  0.3830
  469MOL0     C61791   3.862   1.244   8.108  0.7608 -0.9275  0.0539
  469MOL0     C61792   3.757   1.176   8.020  0.4233  0.3669  0.0114
  469MOL0     N61793   3.632   1.249   7.991 -0.1326 -0.3966  0.1846
  469MOL0     C61794   3.526   1.196   7.915 -0.0080  0.2259  0.4108
  469MOL0     C61795   3.434   1.289   7.932  1.8730  0.9889  0.2092
  469MOL0     C61796   3.304   1.282   7.856 -0.2571 -1.7937 -0.5777
  469MOL0     C61797   3.304   1.368   7.727 -0.1737  0.8290  0.4326
  469MOL0     C61798   3.198   1.316   7.629  0.1119  0.8098  0.8051
  469MOL0     C61799   3.062   1.312   7.697 -0.2780  0.8217  0.4211
  469MOL0     O61800   2.966   1.274   7.598  0.2430 -0.3538 -0.2884
  469MOL0     C61801   2.844   1.238   7.634 -0.2046 -0.3647 -0.4469
  469MOL0     C61802   2.758   1.200   7.534  0.2193 -0.5717  0.5624
  469MOL0     C61803   2.629   1.161   7.556 -0.1919 -0.3369  0.1188
  469MOL0     C61804   2.580   1.153   7.692  0.7358 -0.5083 -0.0325
  469MOL0     C61805   2.445   1.096   7.714  0.3350 -0.4729  0.2305
  469MOL0     O61806   2.400   1.023   7.604  0.0687 -0.6176 -0.8794
  469MOL0     C61807   2.265   1.022   7.578  0.2983  0.7543  0.5478
  469MOL0     C61808   2.219   1.054   7.452  0.1957 -0.0678  0.4554
  469MOL0     C61809   2.079   1.056   7.422 -0.3595 -0.6314 -0.6938
  469MOL0     C61810   1.987   1.026   7.527 -0.3382  0.1880 -0.2185
  469MOL0     O61811   1.855   1.023   7.482  1.1714 -0.1194 -0.2008
  469MOL0     C61812   1.763   0.983   7.574 -0.2766  0.2495 -0.7560
  469MOL0     C61813   1.623   0.977   7.512 -0.0313 -0.9993  0.1177
  469MOL0     C61814   1.510   0.970   7.608 -0.5087  0.2473 -0.6036
  469MOL0     C61815   1.374   0.971   7.519  0.2371  0.2303 -0.1006
  469MOL0     C61816   1.255   0.958   7.612 -0.6991  0.1799 -0.3243
  469MOL0     C61817   1.117   0.959   7.539  0.2754  0.3206 -0.1843
  469MOL0     C61818   1.092   0.813   7.498  0.4824  1.1743  0.8372
  469MOL0     C61819   0.951   0.791   7.451  0.4449  0.5409  1.0291
  469MOL0    Cl61820   0.835   0.816   7.593 -0.3553  0.0451  0.4960
  469MOL0     C61821   2.035   0.990   7.657  0.1831 -0.1463 -0.9530
  469MOL0     C61822   2.171   0.992   7.675  0.4619 -0.2466  0.6727
  469MOL0     O61823   2.376   1.112   7.818 -0.0925  0.4042 -0.4334
  469MOL0     C61824   2.656   1.209   7.797 -0.2944  0.4600  0.5964
  469MOL0     C61825   2.793   1.246   7.767 -0.9714  0.8467  0.0844
  469MOL0     N61826   3.475   1.398   8.005 -1.1694  0.4735 -0.6214
  469MOL0     N61827   3.602   1.380   8.032 -0.4982 -0.9183  0.1136
  469MOL0     C61828   4.822   1.223   8.176 -0.6170 -0.0519 -0.1752
  469MOL0     C61829   4.954   1.268   8.197 -0.2725  0.7469  0.3407
  469MOL0     C61830   5.399   1.320   8.193 -0.2191 -0.8156  0.2339
  469MOL0     C61831   5.493   1.237   8.265  0.2752  0.7967 -0.3502
  469MOL0     C61832   5.621   1.286   8.289 -0.3830 -0.3581  0.8602
  469MOL0     C61833   5.668   1.404   8.229 -0.1317 -0.4503  0.0063
  469MOL0     O61834   5.786   1.475   8.256  0.0095 -0.4380  0.1347
  469MOL0     C61835   5.888   1.425   8.344  0.2187  0.0771  0.1843
  469MOL0     C61836   5.965   1.325   8.254 -1.1837 -0.4333  0.1099
  469MOL0     C61837   6.093   1.271   8.308 -0.4433  0.6106  0.0056
  469MOL0     C61838   6.165   1.192   8.202 -0.0651  0.1276 -0.5211
  469MOL0     C61839   6.302   1.155   8.241 -0.0612 -0.6220  0.2659
  469MOL0     C61840   6.416   1.121   8.262 -0.5292  0.8185  0.3803
  469MOL0     C61841   5.572   1.478   8.154  0.2084 -0.1217  0.3521
  469MOL0     C61842   5.445   1.435   8.140  0.1186 -0.3607  0.9162
  469MOL0     H61843   5.032   1.396   7.902  1.1154 -0.4316  1.7407
  469MOL0     H61844   4.799   1.323   7.843 -0.9479  0.5471  0.9076
  469MOL0     H61845   4.570   1.234   7.826 -2.2321  0.3217 -0.8965
  469MOL0     H61846   4.560   1.361   7.942 -0.4445  0.2593  0.9295
  469MOL0     H61847   4.385   1.176   8.064 -0.0330  0.7294  0.2594
  469MOL0     H61848   4.392   1.109   7.910 -0.6563 -0.5870  1.7690
  469MOL0     H61849   4.295   1.299   7.806 -0.9643  0.0076  0.0210
  469MOL0     H61850   4.300   1.401   7.952  0.8583 -0.0577  0.3065
  469MOL0     H61851   4.119   1.156   7.977 -1.2269  0.5755  0.2058
  469MOL0     H61852   4.166   1.282   8.086 -0.2438 -0.0326 -0.2698
  469MOL0     H61853   3.972   1.266   7.857  0.1730 -2.6580  2.2526
  469MOL0     H61854   4.056   1.422   7.867  0.1282  1.1248  2.0446
  469MOL0     H61855   3.846   1.437   7.993 -1.0577 -1.0534  0.1822
  469MOL0     H61856   3.977   1.418   8.107 -3.0927  2.9328  0.8994
  469MOL0     H61857   3.945   1.177   8.134 -0.4342 -2.1392  0.8543
  469MOL0     H61858   3.813   1.278   8.199 -3.1433 -0.8733 -1.8801
  469MOL0     H61859   3.733   1.082   8.070 -0.8395  0.5435 -0.2301
  469MOL0     H61860   3.807   1.156   7.925  0.1468  2.4465 -0.6365
  469MOL0     H61861   3.533   1.105   7.857  2.0533  0.5566  0.0535
  469MOL0     H61862   3.221   1.318   7.917  0.7050  1.9705 -1.2496
  469MOL0     H61863   3.298   1.175   7.833  3.1307 -2.2750  0.2965
  469MOL0     H61864   3.394   1.371   7.666 -1.2375 -1.6969 -1.4372
  469MOL0     H61865   3.277   1.474   7.737  0.7959  1.3737 -1.9792
  469MOL0     H61866   3.192   1.383   7.543 -0.3807 -1.5410 -1.0989
  469MOL0     H61867   3.236   1.219   7.596  1.4510  2.1046 -1.7532
  469MOL0     H61868   3.035   1.406   7.746 -4.0236  1.8307 -2.9639
  469MOL0     H61869   3.058   1.233   7.771  2.3574 -0.0931 -0.3149
  469MOL0     H61870   2.796   1.213   7.433 -1.8538  0.2022 -0.1625
  469MOL0     H61871   2.562   1.138   7.473  1.1365  0.1123 -1.1060
  469MOL0     H61872   2.290   1.088   7.377  0.5758  3.8316  2.3020
  469MOL0     H61873   2.039   1.094   7.328 -1.5555 -1.6519 -0.6216
  469MOL0     H61874   1.759   1.053   7.659  0.3529 -0.4640 -0.1300
  469MOL0     H61875   1.771   0.885   7.622  1.1757  0.0194 -1.4059
  469MOL0     H61876   1.611   0.890   7.447 -1.8547 -0.9982  0.3805
  469MOL0     H61877   1.611   1.073   7.459 -0.6509 -0.6241  0.9056
  469MOL0     H61878   1.520   1.062   7.667  1.5398  0.9381 -1.9033
  469MOL0     H61879   1.510   0.890   7.683 -0.0665  0.8451  0.0549
  469MOL0     H61880   1.368   1.070   7.474  3.2510  1.8051  2.5069
  469MOL0     H61881   1.367   0.885   7.451 -4.2909 -0.1003  0.5022
  469MOL0     H61882   1.266   1.035   7.689  1.2622 -2.5017  2.2995
  469MOL0     H61883   1.265   0.865   7.668 -1.0229  1.4869  2.0605
  469MOL0     H61884   1.115   1.025   7.452 -0.4133  0.8031  0.1833
  469MOL0     H61885   1.037   0.988   7.608 -1.1085 -0.8128 -1.2569
  469MOL0     H61886   1.163   0.800   7.416 -0.4557  3.7168 -0.4888
  469MOL0     H61887   1.114   0.740   7.576 -3.1087 -1.3935 -0.2864
  469MOL0     H61888   0.949   0.684   7.430 -3.8234  0.7413 -0.4884
  469MOL0     H61889   0.915   0.847   7.365 -1.9226 -0.0753  1.5319
  469MOL0     H61890   1.970   0.957   7.737 -2.3404  3.2133 -1.4213
  469MOL0     H61891   2.215   0.951   7.766  1.0411 -0.1116  0.4623
  469MOL0     H61892   2.610   1.223   7.894  0.0553 -2.1888  1.2246
  469MOL0     H61893   2.846   1.291   7.850  0.0764  1.4996 -0.9059
  469MOL0     H61894   4.760   1.189   8.259  0.5586 -0.5374  0.5283
  469MOL0     H61895   4.994   1.250   8.296  2.3225 -0.9403 -0.9103
  469MOL0     H61896   5.453   1.155   8.322  0.2785  0.9515 -0.1235
  469MOL0     H61897   5.676   1.239   8.369 -2.3768 -1.0905  1.8618
  469MOL0     H61898   5.842   1.381   8.433 -0.5565 -2.3328 -1.3025
  469MOL0     H61899   5.960   1.504   8.369  2.1210 -2.0180  1.7155
  469MOL0     H61900   5.900   1.242   8.222 -2.3205  0.1752  0.7672
  469MOL0     H61901   5.996   1.383   8.167 -3.7930  1.5621  0.3823
  469MOL0     H61902   6.076   1.212   8.398  1.0449  0.4660  0.2116
  469MOL0     H61903   6.154   1.357   8.338  1.1431 -0.5208  0.0973
  469MOL0     H61904   6.110   1.097   8.200 -0.3958  0.3274 -1.3829
  469MOL0     H61905   6.161   1.233   8.101 -2.4625  1.2096 -0.0524
  469MOL0     H61906   6.517   1.094   8.288 -0.5933  1.2500  1.1119
  469MOL0     H61907   5.599   1.575   8.115  0.4280 -1.0970 -2.1185
  469MOL0     H61908   5.380   1.501   8.082  0.1703 -0.0026  1.2658
  470MOL0     O61909   8.331   5.305   6.686  0.6630 -0.4673 -0.7371
  470MOL0     C61910   8.222   5.268   6.743 -0.7378  0.5132 -0.1333
  470MOL0     O61911   8.214   5.219   6.876 -0.3991 -0.0572 -0.0787
  470MOL0     C61912   8.326   5.217   6.955 -0.2085  0.6227 -0.2388
  470MOL0     C61913   8.312   5.267   7.080  0.2448 -0.1383 -0.7113
  470MOL0     C61914   8.423   5.250   7.167 -1.0480 -0.1666  0.0087
  470MOL0     C61915   8.544   5.200   7.127  0.3074  0.6642 -0.4600
  470MOL0     O61916   8.630   5.171   7.227  0.0701 -0.0136 -0.7336
  470MOL0     C61917   8.764   5.137   7.186  0.1133  0.6502  0.0928
  470MOL0     C61918   8.847   5.261   7.153 -0.2804  0.3514  0.4339
  470MOL0     C61919   8.852   5.356   7.277  0.2305  0.6814 -0.0814
  470MOL0     C61920   8.960   5.461   7.261  0.0423  0.0995  0.6528
  470MOL0     C61921   8.984   5.560   7.374  0.5169  0.6085 -0.3275
  470MOL0     C61922   8.863   5.657   7.381 -0.2376  0.1257 -0.3317
  470MOL0     C61923   8.855   5.730   7.519  0.1251  0.0427 -0.4324
  470MOL0     C61924   8.717   5.781   7.536 -0.6907 -0.3661  1.0236
  470MOL0     N61925   8.696   5.869   7.646  0.1047  0.0739 -0.0590
  470MOL0     C61926   8.765   5.974   7.676  0.1499 -0.2601 -0.6415
  470MOL0     C61927   8.700   6.026   7.785 -0.0558 -0.1453  0.9885
  470MOL0     C61928   8.750   6.145   7.868  0.0759  0.3366 -0.1806
  470MOL0     C61929   8.627   6.224   7.928  0.8366 -0.8760  0.0369
  470MOL0     C61930   8.523   6.277   7.831 -0.1564  1.2112  0.0493
  470MOL0     C61931   8.575   6.361   7.714 -0.0523 -0.8167 -0.4489
  470MOL0     O61932   8.671   6.459   7.765 -0.0685 -0.4702 -0.2428
  470MOL0     C61933   8.692   6.576   7.691  0.7907 -0.4054 -0.8508
  470MOL0     C61934   8.758   6.694   7.752  0.5378  0.0272  0.1153
  470MOL0     C61935   8.775   6.808   7.675  0.1770 -0.1233 -0.3089
  470MOL0     C61936   8.735   6.825   7.545  0.4844 -0.2918  0.1073
  470MOL0     C61937   8.758   6.952   7.464  0.5381  0.6095 -0.8269
  470MOL0     O61938   8.862   7.032   7.518  0.0890  0.2323 -0.0822
  470MOL0     C61939   8.888   7.147   7.456 -0.2259 -0.6328 -0.2209
  470MOL0     C61940   9.027   7.174   7.434 -0.1572 -0.3233  1.0954
  470MOL0     C61941   9.064   7.290   7.371  0.3968  0.0385 -0.8837
  470MOL0     C61942   8.973   7.397   7.342  0.1374  0.9191 -0.3080
  470MOL0     O61943   9.008   7.515   7.289 -0.2031 -0.0449  0.1383
  470MOL0     C61944   9.146   7.542   7.249 -0.0547  0.4881  0.2256
  470MOL0     C61945   9.183   7.477   7.108  0.8462 -0.6507 -0.1801
  470MOL0     C61946   9.070   7.490   7.008 -0.6056  0.0789 -0.1672
  470MOL0     C61947   9.055   7.641   6.956 -0.4634  0.2578  0.1635
  470MOL0     C61948   8.929   7.656   6.866 -0.9826 -0.1833 -0.5856
  470MOL0     C61949   8.925   7.804   6.820 -0.2585 -0.3912  0.4251
  470MOL0     C61950   8.810   7.829   6.717 -0.0721 -0.7128  0.0159
  470MOL0     C61951   8.693   7.915   6.762  1.0035 -0.3769  0.2037
  470MOL0    Cl61952   8.612   7.825   6.891  0.4125  0.1422 -0.0394
  470MOL0     C61953   8.844   7.377   7.363 -0.1424  0.9186  0.1693
  470MOL0     C61954   8.801   7.250   7.413  0.0447 -0.3446 -0.1735
  470MOL0     O61955   8.689   6.976   7.362  0.0996  0.0892 -0.0383
  470MOL0     C61956   8.667   6.713   7.491  0.2689 -0.5634 -0.0937
  470MOL0     C61957   8.645   6.593   7.560  0.1553 -0.5288 -0.9907
  470MOL0     N61958   8.596   5.940   7.817 -0.4859 -0.5449 -0.5924
  470MOL0     N61959   8.588   5.845   7.731 -1.6510 -0.2243  0.2471
  470MOL0     C61960   8.553   5.158   6.996  0.4479 -0.5028 -0.1535
  470MOL0     C61961   8.444   5.168   6.906 -0.5141  1.2054  0.1714
  470MOL0     C61962   8.101   5.279   6.661  0.2996 -1.2201  0.0052
  470MOL0     C61963   7.982   5.227   6.700  0.9202  0.1166  1.0327
  470MOL0     C61964   7.866   5.240   6.612  0.0454 -0.9498 -0.4150
  470MOL0     C61965   7.874   5.323   6.498  0.7622  0.4173  0.9054
  470MOL0     O61966   7.775   5.334   6.403 -0.0674  0.2890  0.0455
  470MOL0     C61967   7.639   5.350   6.442  0.9159  0.1249  0.0000
  470MOL0     C61968   7.555   5.277   6.332  0.8202  0.0407  0.7577
  470MOL0     C61969   7.399   5.289   6.346 -0.3143  0.4600 -0.5467
  470MOL0     C61970   7.326   5.233   6.223  0.3535  0.8807  0.4748
  470MOL0     C61971   7.180   5.236   6.229 -0.4390 -0.7564 -0.0686
  470MOL0     C61972   7.058   5.240   6.242  0.4855 -0.6165  0.1068
  470MOL0     C61973   7.995   5.378   6.466  0.2542  0.2724  0.1255
  470MOL0     C61974   8.109   5.349   6.546 -0.7891 -0.0359  1.0227
  470MOL0     H61975   8.217   5.310   7.111  2.5098  4.7720  0.4689
  470MOL0     H61976   8.406   5.286   7.267 -2.0448  0.2343 -0.2974
  470MOL0     H61977   8.769   5.057   7.111 -1.3078  0.0569  0.5884
  470MOL0     H61978   8.815   5.093   7.272  1.4313  2.3975  0.2659
  470MOL0     H61979   8.807   5.318   7.069  0.7784  2.2166  1.1395
  470MOL0     H61980   8.948   5.231   7.124 -0.7397 -1.3119  0.4454
  470MOL0     H61981   8.871   5.293   7.364 -2.2862  0.4452  0.3613
  470MOL0     H61982   8.750   5.396   7.275  0.2957  0.8845  0.4842
  470MOL0     H61983   9.051   5.404   7.237 -1.9230 -2.0211 -2.3979
  470MOL0     H61984   8.936   5.514   7.169  1.4744 -1.6597 -0.8351
  470MOL0     H61985   9.075   5.617   7.350  0.2510  1.4613  0.6095
  470MOL0     H61986   8.995   5.501   7.465 -1.9913 -1.6689 -1.3777
  470MOL0     H61987   8.764   5.615   7.363  0.4717 -1.7553 -0.1025
  470MOL0     H61988   8.877   5.728   7.299 -1.3409 -0.9307 -1.4937
  470MOL0     H61989   8.869   5.651   7.594  0.0513  1.4654  1.1441
  470MOL0     H61990   8.938   5.800   7.532  0.2978 -0.2127 -0.1355
  470MOL0     H61991   8.641   5.703   7.534 -3.0316  1.7938  0.5088
  470MOL0     H61992   8.696   5.846   7.451  1.2928  1.1315  1.5910
  470MOL0     H61993   8.853   6.010   7.624 -0.2090 -0.2668 -1.2649
  470MOL0     H61994   8.807   6.214   7.805 -0.4006  1.2067  0.3150
  470MOL0     H61995   8.829   6.112   7.937 -0.5624 -1.7795 -0.3837
  470MOL0     H61996   8.665   6.306   7.991 -0.0487 -2.3612  2.6772
  470MOL0     H61997   8.580   6.159   8.002  0.7693 -0.6343  0.2110
  470MOL0     H61998   8.470   6.194   7.784  1.2359  2.2501 -3.7611
  470MOL0     H61999   8.436   6.313   7.886 -0.3240 -0.8201  1.2213
  470MOL0     H62000   8.494   6.421   7.671  0.9793 -1.4367 -3.4995
  470MOL0     H62001   8.625   6.301   7.638  3.3219 -1.5655  2.0897
  470MOL0     H62002   8.800   6.689   7.852  3.3198  2.8203 -0.7147
  470MOL0     H62003   8.846   6.882   7.712  0.0690 -0.9707  1.6894
  470MOL0     H62004   9.098   7.107   7.481  0.8949 -0.0516 -0.0716
  470MOL0     H62005   9.170   7.305   7.352  0.2084  1.7988 -0.6578
  470MOL0     H62006   9.215   7.501   7.323 -0.5195  0.9545  0.9243
  470MOL0     H62007   9.164   7.649   7.239 -0.7218  0.5610 -0.2440
  470MOL0     H62008   9.207   7.371   7.121  0.9554 -0.4294  1.8799
  470MOL0     H62009   9.273   7.526   7.071  0.4746  1.2615  1.3008
  470MOL0     H62010   8.974   7.461   7.052 -1.2644  2.2647 -0.0416
  470MOL0     H62011   9.100   7.418   6.931  4.4287  1.5847  0.0207
  470MOL0     H62012   9.051   7.702   7.047 -0.5922  0.6148 -0.0804
  470MOL0     H62013   9.146   7.648   6.895 -1.1385 -1.5344 -1.1092
  470MOL0     H62014   8.838   7.621   6.916  0.6477 -2.2341  1.1517
  470MOL0     H62015   8.949   7.605   6.771  1.1899 -1.1674  0.3388
  470MOL0     H62016   9.021   7.812   6.767 -0.2757  0.0895  0.4637
  470MOL0     H62017   8.924   7.872   6.905  1.2188  0.8999 -0.5153
  470MOL0     H62018   8.856   7.868   6.626  0.2378  1.7693  1.1585
  470MOL0     H62019   8.760   7.738   6.682 -1.2033 -0.7309  1.5978
  470MOL0     H62020   8.619   7.949   6.688 -1.0999  1.2824  2.8903
  470MOL0     H62021   8.731   8.009   6.803  1.2930 -0.2242 -0.3960
  470MOL0     H62022   8.775   7.454   7.332  1.5421  2.4192  0.0196
  470MOL0     H62023   8.694   7.234   7.425 -0.4049  2.2862 -0.1486
  470MOL0     H62024   8.621   6.716   7.392  1.2938  0.6462 -0.5605
  470MOL0     H62025   8.589   6.523   7.498  1.0063  0.4449 -2.9616
  470MOL0     H62026   8.644   5.105   6.968  0.8475  1.1155 -2.1272
  470MOL0     H62027   8.453   5.134   6.804  1.0461 -1.6006  1.1439
  470MOL0     H62028   7.964   5.180   6.796 -1.1860  2.2733  1.7917
  470MOL0     H62029   7.770   5.197   6.639 -0.5895 -0.2005 -1.4014
  470MOL0     H62030   7.624   5.458   6.446 -0.2833 -0.0141 -0.4374
  470MOL0     H62031   7.611   5.311   6.541  2.0503 -2.0047 -0.4555
  470MOL0     H62032   7.589   5.311   6.234  0.3889 -0.7805  0.3076
  470MOL0     H62033   7.565   5.168   6.345 -1.8999 -0.8238 -2.8873
  470MOL0     H62034   7.365   5.392   6.360  0.3243  0.1845  4.8168
  470MOL0     H62035   7.370   5.238   6.438  2.2440 -0.4552 -0.1865
  470MOL0     H62036   7.358   5.284   6.132 -1.6646  0.3918 -0.5524
  470MOL0     H62037   7.351   5.127   6.210  1.0414  0.6639  2.9898
  470MOL0     H62038   6.952   5.226   6.246  0.6567 -1.6663  1.5759
  470MOL0     H62039   7.999   5.429   6.370 -0.1197  1.1096  0.5479
  470MOL0     H62040   8.204   5.392   6.514 -0.8988  0.0915  0.8661
  471MOL0     O62041   9.169   1.499   6.992  0.1361  0.4271 -0.0286
  471MOL0     C62042   9.237   1.598   6.997 -0.3888  0.0065 -0.2717
  471MOL0     O62043   9.227   1.700   6.897  0.5238 -0.2232 -0.0937
  471MOL0     C62044   9.127   1.688   6.798  0.7555 -0.1203 -0.9607
  471MOL0     C62045   9.165   1.685   6.665  0.2287 -0.2965  1.1320
  471MOL0     C62046   9.066   1.686   6.564 -0.0958  0.0064  0.5749
  471MOL0     C62047   8.929   1.719   6.595 -0.2205  0.4568  0.6890
  471MOL0     O62048   8.845   1.725   6.485 -0.0762  0.1058  0.4542
  471MOL0     C62049   8.737   1.821   6.506  0.3724 -0.3375  0.7347
  471MOL0     C62050   8.661   1.819   6.370 -0.6155  0.3377  0.4666
  471MOL0     C62051   8.617   1.689   6.302  0.5296  0.2220 -0.5685
  471MOL0     C62052   8.568   1.703   6.162 -0.3602 -0.2352 -0.3987
  471MOL0     C62053   8.445   1.792   6.149 -0.1437  0.1822 -0.4653
  471MOL0     C62054   8.319   1.754   6.224  0.2275  0.0786  0.4104
  471MOL0     C62055   8.206   1.861   6.217  0.1718 -0.2015  0.0122
  471MOL0     C62056   8.257   1.985   6.273  0.3469 -0.4335 -0.9312
  471MOL0     N62057   8.148   2.081   6.284  0.0447 -0.7765 -0.7564
  471MOL0     C62058   8.127   2.183   6.202  0.8162 -0.2816 -0.7402
  471MOL0     C62059   8.014   2.244   6.247 -1.1313 -0.1490  0.3449
  471MOL0     C62060   7.940   2.346   6.182 -0.0735  1.2396  0.2692
  471MOL0     C62061   8.014   2.473   6.174 -1.2097  0.2017  0.3216
  471MOL0     C62062   7.943   2.581   6.097 -0.1439  0.3989 -0.0140
  471MOL0     C62063   7.814   2.632   6.162 -0.2942  0.1727  0.3752
  471MOL0     O62064   7.832   2.667   6.298  0.5164  0.3811  0.2920
  471MOL0     C62065   7.719   2.671   6.372  0.3163  0.3842  0.5726
  471MOL0     C62066   7.664   2.560   6.432  0.6705  0.4761 -0.0311
  471MOL0     C62067   7.537   2.564   6.487  0.7207 -0.4791  0.1697
  471MOL0     C62068   7.465   2.680   6.495  0.9182 -0.1363 -0.3899
  471MOL0     C62069   7.334   2.690   6.543 -0.5089  0.2945 -0.3234
  471MOL0     O62070   7.284   2.810   6.569  0.5272 -0.3755  0.2027
  471MOL0     C62071   7.154   2.813   6.616  0.4809  0.7519 -0.5311
  471MOL0     C62072   7.108   2.743   6.724  0.3508 -0.1554  0.4841
  471MOL0     C62073   6.981   2.755   6.771 -0.6160  0.1571 -0.0321
  471MOL0     C62074   6.897   2.853   6.713 -0.0017 -0.2128 -0.5328
  471MOL0     O62075   6.767   2.888   6.758 -0.1781 -0.3634 -0.3445
  471MOL0     C62076   6.703   2.799   6.846 -0.4795  1.2031  0.4486
  471MOL0     C62077   6.556   2.837   6.863 -0.1680  0.3994  0.5078
  471MOL0     C62078   6.485   2.889   6.731  0.6588  1.1087  0.5419
  471MOL0     C62079   6.341   2.931   6.758 -0.0877 -0.8982  0.1839
  471MOL0     C62080   6.248   2.816   6.769  0.1053  0.3180 -0.8192
  471MOL0     C62081   6.109   2.866   6.807  0.4663  0.1137 -1.3860
  471MOL0     C62082   6.016   2.747   6.808  0.2744 -0.3645  0.3978
  471MOL0     C62083   5.899   2.755   6.914  0.3545  0.0842  0.5865
  471MOL0    Cl62084   5.814   2.592   6.921  0.1670  0.2205  0.5507
  471MOL0     C62085   6.947   2.938   6.617 -0.1057  0.1816 -0.1250
  471MOL0     C62086   7.076   2.917   6.563  0.7119  0.3883 -0.4011
  471MOL0     O62087   7.270   2.584   6.559  0.4433 -0.9498 -0.9875
  471MOL0     C62088   7.529   2.795   6.451 -1.1716 -0.1269  0.5228
  471MOL0     C62089   7.655   2.794   6.397 -0.6578  0.3674 -0.1713
  471MOL0     N62090   7.967   2.168   6.356 -0.2793 -0.2410  0.2446
  471MOL0     N62091   8.045   2.072   6.366  0.0218  0.5046 -0.1897
  471MOL0     C62092   8.901   1.734   6.732  0.2928  0.4453  0.4899
  471MOL0     C62093   9.002   1.717   6.838  1.4061 -0.2851 -0.7123
  471MOL0     C62094   9.337   1.609   7.103 -0.1269 -0.3810 -0.5324
  471MOL0     C62095   9.459   1.676   7.084  0.5836 -1.4854 -0.0515
  471MOL0     C62096   9.551   1.687   7.181 -0.4439  0.5505  0.0711
  471MOL0     C62097   9.542   1.616   7.302 -0.5401 -0.8997 -0.9614
  471MOL0     O62098   9.643   1.612   7.394 -0.1421  0.3822 -0.7544
  471MOL0     C62099   9.742   1.710   7.384 -0.3277  0.4745 -0.2233
  471MOL0     C62100   9.844   1.703   7.494 -0.5573  0.3738 -0.5108
  471MOL0     C62101   9.851   1.576   7.577  0.0461 -0.2355  0.5871
  471MOL0     C62102   9.937   1.591   7.702  0.6445 -0.1017 -0.4235
  471MOL0     C62103   9.994   1.466   7.752 -0.2117 -0.0129 -0.5909
  471MOL0     C62104  10.035   1.368   7.812  0.2567 -0.3423 -0.6329
  471MOL0     C62105   9.422   1.541   7.324 -0.3387  0.3548  0.1351
  471MOL0     C62106   9.324   1.530   7.220  0.2796 -0.5519 -0.4510
  471MOL0     H62107   9.266   1.664   6.630  0.3102  2.0864 -0.2569
  471MOL0     H62108   9.098   1.678   6.461 -0.2621  0.1755  0.5097
  471MOL0     H62109   8.772   1.923   6.524 -1.1032  0.3304 -0.0685
  471MOL0     H62110   8.667   1.787   6.583 -1.3690 -1.2174 -1.1457
  471MOL0     H62111   8.737   1.855   6.300  0.2044 -0.6873  0.8136
  471MOL0     H62112   8.575   1.887   6.370 -0.4121  0.9287 -4.3800
  471MOL0     H62113   8.555   1.629   6.368  0.6935  0.7451  0.0793
  471MOL0     H62114   8.711   1.634   6.295  0.6711 -0.0587  2.4768
  471MOL0     H62115   8.643   1.740   6.092 -1.8428  0.7380 -1.5573
  471MOL0     H62116   8.539   1.605   6.124  0.9061 -0.5319 -0.6142
  471MOL0     H62117   8.418   1.791   6.043  1.4595 -0.8762 -0.9019
  471MOL0     H62118   8.474   1.893   6.178 -1.1175  0.8108 -1.5858
  471MOL0     H62119   8.354   1.739   6.327  0.1518 -1.8697  0.2046
  471MOL0     H62120   8.291   1.654   6.187  2.2274  0.2121 -1.6759
  471MOL0     H62121   8.176   1.864   6.112 -0.0968  0.4900  0.1014
  471MOL0     H62122   8.124   1.815   6.274  1.4262 -1.4017  0.9143
  471MOL0     H62123   8.334   2.033   6.210  1.4755 -0.0165  0.7049
  471MOL0     H62124   8.311   1.966   6.366  1.8143 -1.7566 -2.0041
  471MOL0     H62125   8.180   2.216   6.114  0.2644  1.6585 -0.4008
  471MOL0     H62126   7.847   2.361   6.238 -0.0662 -3.6842  2.1351
  471MOL0     H62127   7.900   2.317   6.085 -1.3140  1.4641  0.7002
  471MOL0     H62128   8.107   2.468   6.117 -0.0346  0.1258  2.1504
  471MOL0     H62129   8.054   2.499   6.273  0.4127  1.4410 -0.6034
  471MOL0     H62130   8.008   2.668   6.090  0.8558 -0.4654 -2.9653
  471MOL0     H62131   7.913   2.560   5.994 -1.5804  3.3698 -0.2830
  471MOL0     H62132   7.728   2.567   6.141 -2.0979  2.6141 -0.2642
  471MOL0     H62133   7.792   2.727   6.112  0.0520 -0.5209 -1.1559
  471MOL0     H62134   7.705   2.460   6.429 -0.9004 -0.1647 -1.0748
  471MOL0     H62135   7.484   2.472   6.508  1.8168 -1.9529 -2.9669
  471MOL0     H62136   7.175   2.676   6.775  2.0617  0.0546 -1.3433
  471MOL0     H62137   6.946   2.680   6.841  1.3994 -0.8258 -0.0085
  471MOL0     H62138   6.744   2.789   6.947 -1.2719 -1.4408  0.5744
  471MOL0     H62139   6.708   2.703   6.793 -3.1061  1.7644 -1.0157
  471MOL0     H62140   6.557   2.917   6.938  0.3838  3.0895 -2.2109
  471MOL0     H62141   6.502   2.749   6.902  1.2987 -0.1992  1.2605
  471MOL0     H62142   6.481   2.806   6.659  1.5485  0.9918  0.6229
  471MOL0     H62143   6.545   2.965   6.680 -1.5429  0.2781 -3.7843
  471MOL0     H62144   6.335   2.987   6.852 -0.7063 -1.1063  0.2685
  471MOL0     H62145   6.311   2.989   6.670 -0.6183 -0.1509  0.8462
  471MOL0     H62146   6.286   2.752   6.849 -1.6692  1.8532  1.3860
  471MOL0     H62147   6.235   2.748   6.684  0.0054  0.5862 -1.0204
  471MOL0     H62148   6.081   2.944   6.736  1.1635  0.2313 -1.5345
  471MOL0     H62149   6.119   2.912   6.906 -0.9866 -1.3477 -0.5050
  471MOL0     H62150   5.976   2.739   6.707 -0.9070  4.2468  0.2499
  471MOL0     H62151   6.072   2.656   6.831  2.1960  0.3690 -1.0918
  471MOL0     H62152   5.819   2.819   6.876 -0.6310 -0.8057  1.0742
  471MOL0     H62153   5.929   2.788   7.014  0.5148 -1.8264  1.2186
  471MOL0     H62154   6.882   3.017   6.579 -0.3266  0.2059  0.2927
  471MOL0     H62155   7.112   2.984   6.486 -1.5772  0.3375 -1.6098
  471MOL0     H62156   7.478   2.891   6.451  1.4022  1.3892  2.3996
  471MOL0     H62157   7.711   2.879   6.358  1.1613 -0.3235  0.7746
  471MOL0     H62158   8.796   1.757   6.745 -0.1630 -1.5861  0.8310
  471MOL0     H62159   8.974   1.730   6.942  0.8492  0.7650 -0.9706
  471MOL0     H62160   9.474   1.731   6.992 -0.3657 -0.1775  0.5447
  471MOL0     H62161   9.636   1.747   7.152 -1.3111  1.4610 -0.6656
  471MOL0     H62162   9.704   1.812   7.386  3.5106  2.0316  0.8979
  471MOL0     H62163   9.794   1.701   7.288 -0.5353  1.5601 -0.4457
  471MOL0     H62164   9.939   1.722   7.444 -1.6503  0.2099 -2.7515
  471MOL0     H62165   9.817   1.784   7.563 -0.1293  0.5346 -0.5277
  471MOL0     H62166   9.882   1.488   7.519 -4.7028 -2.3622  0.8362
  471MOL0     H62167   9.752   1.546   7.611  0.0028  0.3029  0.9444
  471MOL0     H62168  10.013   1.668   7.692 -1.2714  1.6185 -3.2184
  471MOL0     H62169   9.870   1.629   7.779 -3.0396 -0.1731 -3.2911
  471MOL0     H62170  10.071   1.276   7.853 -3.4734 -1.3368  0.9192
  471MOL0     H62171   9.418   1.477   7.411  1.1609 -1.2716 -0.9292
  471MOL0     H62172   9.231   1.477   7.242 -0.3567 -0.6051 -2.9781
  472MOL0     O62173   0.310   4.957  10.612 -0.1313 -0.2499 -0.0349
  472MOL0     C62174   0.332   5.060  10.680  0.2633  0.2234  0.0110
  472MOL0     O62175   0.236   5.140  10.734  0.2988  0.2011  0.1854
  472MOL0     C62176   0.106   5.125  10.701  0.7038 -0.0669  0.8206
  472MOL0     C62177   0.058   5.105  10.561 -1.2535  0.5877 -0.7874
  472MOL0     C62178  -0.079   5.079  10.540 -0.1421 -0.2592 -0.3144
  472MOL0     C62179  -0.175   5.080  10.640  0.0250  0.1724 -0.0968
  472MOL0     O62180  -0.307   5.068  10.617  0.6519  0.0941 -0.1952
  472MOL0     C62181  -0.360   5.101  10.486  0.0360 -0.3128 -0.3636
  472MOL0     C62182  -0.511   5.119  10.485  0.1371  0.1125  0.3550
  472MOL0     C62183  -0.538   5.124  10.341  1.3571 -0.3431 -0.6460
  472MOL0     C62184  -0.671   5.206  10.325  0.3243  0.5846 -0.5350
  472MOL0     C62185  -0.725   5.193  10.186 -0.8482 -0.1980  0.0302
  472MOL0     C62186  -0.626   5.264  10.081 -0.1943  0.6770  0.0297
  472MOL0     C62187  -0.657   5.250   9.932  0.6157  0.4859  0.5270
  472MOL0     C62188  -0.554   5.327   9.850 -0.7806  0.1350  0.0766
  472MOL0     N62189  -0.581   5.321   9.703  0.4667 -0.3325 -0.5829
  472MOL0     C62190  -0.488   5.276   9.604 -0.1026 -0.2917 -0.0909
  472MOL0     C62191  -0.546   5.301   9.484  0.2826  0.6241  0.2734
  472MOL0     C62192  -0.474   5.271   9.353  0.7046 -0.2445  0.4082
  472MOL0     C62193  -0.467   5.122   9.328  0.0730 -0.6289  0.6307
  472MOL0     C62194  -0.438   5.091   9.179  0.3768  0.5496  1.0121
  472MOL0     C62195  -0.377   4.944   9.171  0.5743  0.4725  0.4946
  472MOL0     O62196  -0.459   4.846   9.228  0.5142 -0.0378 -0.0629
  472MOL0     C62197  -0.583   4.831   9.176 -0.0384 -0.0761 -0.1029
  472MOL0     C62198  -0.615   4.856   9.039 -0.0329  0.5791  0.2291
  472MOL0     C62199  -0.742   4.826   8.985  0.6207  0.6324  0.1015
  472MOL0     C62200  -0.834   4.758   9.064  0.6599 -0.9862 -0.0676
  472MOL0     C62201  -0.961   4.729   9.005 -0.5861  0.1768 -0.2615
  472MOL0     O62202  -0.972   4.699   8.873 -0.0536  0.6704 -0.0072
  472MOL0     C62203  -1.093   4.659   8.817  0.1717 -0.0006 -0.2230
  472MOL0     C62204  -1.161   4.555   8.878 -0.1636  0.1155 -0.6706
  472MOL0     C62205  -1.278   4.508   8.827  0.6119  0.0520  0.5182
  472MOL0     C62206  -1.332   4.550   8.701 -0.2648  0.5767  0.2381
  472MOL0     O62207  -1.444   4.503   8.652 -0.1261  0.3626 -0.6174
  472MOL0     C62208  -1.471   4.362   8.668  0.7681  0.1650 -0.0577
  472MOL0     C62209  -1.604   4.331   8.589  0.5709 -0.2441 -0.2013
  472MOL0     C62210  -1.667   4.196   8.617  0.1338  0.3745  0.0358
  472MOL0     C62211  -1.573   4.079   8.596 -0.3348  0.0376  0.7063
  472MOL0     C62212  -1.639   3.943   8.637  0.1297 -0.4022  0.5597
  472MOL0     C62213  -1.543   3.824   8.633  0.5823  0.0580 -0.7719
  472MOL0     C62214  -1.614   3.689   8.672 -0.3445 -0.5746 -0.4512
  472MOL0     C62215  -1.503   3.589   8.730  0.1355  0.4381 -0.5707
  472MOL0    Cl62216  -1.443   3.509   8.591  0.4722  0.2779 -0.2980
  472MOL0     C62217  -1.265   4.663   8.643 -0.6233  1.2097  0.4707
  472MOL0     C62218  -1.149   4.712   8.703  0.7237 -1.1727 -0.0057
  472MOL0     O62219  -1.052   4.740   9.086  0.0156  0.8914  0.1653
  472MOL0     C62220  -0.801   4.740   9.202  0.4050  0.2120 -0.2051
  472MOL0     C62221  -0.679   4.772   9.256  1.2123 -0.2294 -0.4537
  472MOL0     N62222  -0.665   5.359   9.505 -0.4488 -0.4627 -0.5129
  472MOL0     N62223  -0.679   5.386   9.634  0.1371 -0.2115 -0.0246
  472MOL0     C62224  -0.134   5.106  10.770 -0.3215 -1.0131  0.2283
  472MOL0     C62225   0.004   5.132  10.796  0.4427  0.5503  0.5012
  472MOL0     C62226   0.463   5.102  10.716  0.4345  0.5767  0.2836
  472MOL0     C62227   0.575   5.015  10.709 -0.0960  0.9202 -0.0987
  472MOL0     C62228   0.701   5.063  10.727 -0.0458 -0.2622  0.5659
  472MOL0     C62229   0.731   5.195  10.772 -0.2746 -0.1784 -0.4052
  472MOL0     O62230   0.854   5.253  10.774 -0.4643  0.2502 -0.1111
  472MOL0     C62231   0.979   5.175  10.750 -0.2544 -0.2156 -0.8982
  472MOL0     C62232   1.100   5.262  10.802  0.3091 -0.1165  0.3222
  472MOL0     C62233   1.052   5.334  10.930  0.0715  0.2906  0.0646
  472MOL0     C62234   1.161   5.414  10.999 -0.4922  0.4806 -0.7283
  472MOL0     C62235   1.262   5.327  11.065  0.1138  0.0653 -0.2775
  472MOL0     C62236   1.339   5.251  11.120 -0.1032 -0.6805  0.5524
  472MOL0     C62237   0.618   5.275  10.789 -0.0094  0.2539 -0.1833
  472MOL0     C62238   0.487   5.231  10.766 -0.3030 -0.0003  0.0075
  472MOL0     H62239   0.124   5.100  10.475  0.5704 -1.1920  0.6220
  472MOL0     H62240  -0.097   5.049  10.437  2.6412 -1.2514 -0.6011
  472MOL0     H62241  -0.328   5.030  10.409  0.9231 -0.8255  0.4679
  472MOL0     H62242  -0.318   5.201  10.469 -0.3052 -0.1448 -0.2239
  472MOL0     H62243  -0.536   5.217  10.527 -2.7976  0.1416 -1.2345
  472MOL0     H62244  -0.568   5.042  10.537  1.0396  1.0945  2.9988
  472MOL0     H62245  -0.562   5.024  10.304  0.4215 -1.5741  2.8685
  472MOL0     H62246  -0.463   5.167  10.273  0.0753  1.0782 -1.2259
  472MOL0     H62247  -0.754   5.166  10.383 -1.4094  1.3962 -2.3580
  472MOL0     H62248  -0.646   5.310  10.349  2.3325 -0.6670  3.8068
  472MOL0     H62249  -0.823   5.241  10.193 -0.1711  1.0186  2.2328
  472MOL0     H62250  -0.742   5.091  10.151  1.4402 -0.0254 -1.8311
  472MOL0     H62251  -0.522   5.234  10.090 -0.4800 -0.3278  0.0949
  472MOL0     H62252  -0.612   5.368  10.112  0.3966  0.7181 -0.3610
  472MOL0     H62253  -0.656   5.144   9.907 -2.2370  0.5378 -0.0771
  472MOL0     H62254  -0.753   5.300   9.921  0.6481  0.3014 -0.7504
  472MOL0     H62255  -0.456   5.281   9.870 -0.2117  2.0965  2.1949
  472MOL0     H62256  -0.556   5.432   9.879 -1.4956 -0.7076  3.4854
  472MOL0     H62257  -0.389   5.233   9.621 -1.2823 -2.7256  1.0294
  472MOL0     H62258  -0.374   5.316   9.355  0.4520  0.3181  0.8225
  472MOL0     H62259  -0.537   5.314   9.275  1.4263 -2.0200 -1.2323
  472MOL0     H62260  -0.564   5.082   9.361 -0.0922 -0.3918  0.4417
  472MOL0     H62261  -0.383   5.080   9.384  1.3938 -0.1267 -0.9134
  472MOL0     H62262  -0.523   5.114   9.114  2.2720  2.9013 -0.8326
  472MOL0     H62263  -0.366   5.160   9.134 -2.5256  3.0132 -0.1584
  472MOL0     H62264  -0.280   4.929   9.220  0.3381  0.4728  0.9699
  472MOL0     H62265  -0.341   4.912   9.073  2.3911 -0.0409  1.2862
  472MOL0     H62266  -0.549   4.911   8.973  1.2134 -1.6081 -0.4672
  472MOL0     H62267  -0.752   4.841   8.878 -1.7536 -1.7311 -0.1152
  472MOL0     H62268  -1.124   4.514   8.972 -2.2170 -1.7392 -0.5772
  472MOL0     H62269  -1.314   4.426   8.889 -1.0078  1.7531  1.9204
  472MOL0     H62270  -1.467   4.329   8.772 -2.6973  1.8629  0.7593
  472MOL0     H62271  -1.387   4.308   8.623  0.3293  0.7211 -1.6263
  472MOL0     H62272  -1.582   4.340   8.483 -0.6611  0.4033 -0.4100
  472MOL0     H62273  -1.677   4.406   8.620  1.7364  0.5505  0.6960
  472MOL0     H62274  -1.742   4.178   8.540 -0.7210  0.7808  0.7599
  472MOL0     H62275  -1.711   4.191   8.717  0.6260  0.4557  0.2592
  472MOL0     H62276  -1.554   4.078   8.488 -0.5983  1.0140  0.6446
  472MOL0     H62277  -1.483   4.099   8.655 -0.7848 -0.5612  1.6214
  472MOL0     H62278  -1.704   3.908   8.557  2.9836  1.5918 -2.9493
  472MOL0     H62279  -1.694   3.944   8.732  2.8241  0.0195  2.2518
  472MOL0     H62280  -1.457   3.846   8.698 -0.6216 -0.4241  1.0496
  472MOL0     H62281  -1.500   3.806   8.534  3.2592 -1.8341  0.5832
  472MOL0     H62282  -1.688   3.713   8.749 -0.2581 -2.2012  0.1837
  472MOL0     H62283  -1.668   3.645   8.587 -1.9269  1.7507 -0.7526
  472MOL0     H62284  -1.550   3.516   8.796  0.7148  1.8321  1.4834
  472MOL0     H62285  -1.417   3.630   8.783  2.7364 -5.2761  0.3265
  472MOL0     H62286  -1.301   4.707   8.551  0.1321 -0.4282 -0.6377
  472MOL0     H62287  -1.101   4.795   8.652 -2.5788  1.6375  1.0696
  472MOL0     H62288  -0.875   4.688   9.263 -0.3479 -0.2734 -1.4836
  472MOL0     H62289  -0.659   4.766   9.362 -1.2997  1.0228  0.1702
  472MOL0     H62290  -0.204   5.098  10.852 -0.8709 -1.3965 -0.2680
  472MOL0     H62291   0.023   5.161  10.899 -1.5654 -1.2764  1.4694
  472MOL0     H62292   0.561   4.919  10.661 -1.4600 -0.3786  2.6543
  472MOL0     H62293   0.785   4.996  10.713  0.6253  0.5465  0.6174
  472MOL0     H62294   1.012   5.142  10.652  1.1635 -0.5246 -0.3368
  472MOL0     H62295   0.966   5.094  10.822 -0.2169  1.1639  0.7487
  472MOL0     H62296   1.189   5.201  10.814  0.4235  0.1942  1.1259
  472MOL0     H62297   1.099   5.341  10.725  0.0037  0.8986  1.3392
  472MOL0     H62298   1.020   5.260  11.004  2.4068 -1.2042 -0.3213
  472MOL0     H62299   0.978   5.410  10.901  0.4895  0.5263 -0.4031
  472MOL0     H62300   1.209   5.479  10.924  0.4486  2.0726  1.1634
  472MOL0     H62301   1.122   5.468  11.086  1.1728 -0.5801  0.7358
  472MOL0     H62302   1.415   5.194  11.169  0.8834  0.3628  0.2923
  472MOL0     H62303   0.629   5.379  10.820 -2.7985  1.1723 -1.9419
  472MOL0     H62304   0.404   5.298  10.783 -2.1839 -2.2867  0.5040
  473MOL0     O62305   7.270   3.158   4.435  0.1864  0.4250 -0.0471
  473MOL0     C62306   7.232   3.193   4.546 -0.4228  0.4445 -0.6161
  473MOL0     O62307   7.104   3.236   4.586 -0.2108 -0.7864  0.1878
  473MOL0     C62308   6.999   3.203   4.498 -0.4592 -0.5757 -1.0484
  473MOL0     C62309   6.886   3.281   4.523  0.1754  0.0057  0.2966
  473MOL0     C62310   6.773   3.276   4.438 -0.2965  0.4027  0.6333
  473MOL0     C62311   6.766   3.176   4.339 -0.8937 -0.4738  0.0532
  473MOL0     O62312   6.677   3.151   4.244  0.9604 -0.1560  0.5495
  473MOL0     C62313   6.536   3.153   4.292 -0.0682 -0.0347 -0.2559
  473MOL0     C62314   6.444   3.038   4.241  0.1436 -0.3205 -0.0674
  473MOL0     C62315   6.507   2.901   4.251 -0.5801  0.4392 -0.6884
  473MOL0     C62316   6.407   2.805   4.185 -0.2276  0.9724 -0.8026
  473MOL0     C62317   6.470   2.664   4.170 -0.4636 -0.0763 -0.3598
  473MOL0     C62318   6.472   2.581   4.301 -0.7894  0.5954  0.1483
  473MOL0     C62319   6.542   2.444   4.279  0.3003  0.0624 -0.8564
  473MOL0     C62320   6.494   2.364   4.150 -0.0865  0.1052  0.3797
  473MOL0     N62321   6.554   2.233   4.148  0.1356 -0.4016  0.1074
  473MOL0     C62322   6.686   2.218   4.130  0.6597  0.1011 -0.2166
  473MOL0     C62323   6.696   2.080   4.118  0.1985 -0.1746  0.1317
  473MOL0     C62324   6.809   2.010   4.057 -0.0753  0.3476 -0.0154
  473MOL0     C62325   6.940   2.033   4.139 -0.5294  0.5151 -1.0119
  473MOL0     C62326   7.029   2.156   4.091  0.0046  0.2915 -0.2563
  473MOL0     C62327   7.176   2.132   4.088 -0.3430 -0.1346  0.3054
  473MOL0     O62328   7.246   2.219   4.175  0.1871 -0.2592  0.2541
  473MOL0     C62329   7.384   2.207   4.173  0.0749  0.0418 -0.4038
  473MOL0     C62330   7.459   2.095   4.136 -0.1479 -0.3808  0.1325
  473MOL0     C62331   7.602   2.092   4.149 -0.0700 -0.3418 -0.0410
  473MOL0     C62332   7.669   2.200   4.208 -0.0631  0.2890 -0.1428
  473MOL0     C62333   7.815   2.191   4.228 -0.4962  0.5125 -1.2331
  473MOL0     O62334   7.870   2.075   4.179 -0.3293 -0.2890 -0.2631
  473MOL0     C62335   8.003   2.061   4.198 -0.5378  0.6503  0.6073
  473MOL0     C62336   8.051   1.939   4.267  0.0923 -0.4059  0.1904
  473MOL0     C62337   8.195   1.911   4.261  1.0288  0.4430 -0.5907
  473MOL0     C62338   8.281   2.010   4.216  0.0478 -0.0014  0.5583
  473MOL0     O62339   8.409   1.971   4.221  0.0648  0.1544 -0.6040
  473MOL0     C62340   8.499   2.063   4.284 -0.3266  0.4430 -0.3676
  473MOL0     C62341   8.631   1.983   4.306  1.0376 -0.8018  0.5883
  473MOL0     C62342   8.668   1.967   4.456 -1.2351 -1.0257  0.1300
  473MOL0     C62343   8.790   1.883   4.466 -0.1247  0.8374  0.0244
  473MOL0     C62344   8.840   1.877   4.612 -0.1944  0.1944  0.3569
  473MOL0     C62345   8.752   1.824   4.719  0.4666  0.2136 -1.0878
  473MOL0     C62346   8.805   1.845   4.866  0.3158  0.4429 -0.1437
  473MOL0     C62347   8.767   1.727   4.976  0.3821  0.0432 -0.3897
  473MOL0    Cl62348   8.584   1.722   4.986  0.1639  0.6348  0.3683
  473MOL0     C62349   8.228   2.128   4.154  0.8861  0.5912  0.4234
  473MOL0     C62350   8.097   2.155   4.144 -0.2920  0.2337 -0.4718
  473MOL0     O62351   7.869   2.280   4.290 -0.6260 -0.0318  0.0185
  473MOL0     C62352   7.596   2.306   4.256  0.0615 -0.3785 -0.0163
  473MOL0     C62353   7.452   2.309   4.238 -0.3335  0.5096 -1.0109
  473MOL0     N62354   6.576   2.023   4.149  0.0211  0.9919  0.5995
  473MOL0     N62355   6.491   2.118   4.164  0.1125  0.0022  0.8729
  473MOL0     C62356   6.872   3.090   4.335 -0.2932  0.1248  0.1048
  473MOL0     C62357   6.992   3.098   4.411  0.5423  0.0405  0.2219
  473MOL0     C62358   7.339   3.209   4.647 -0.0480 -0.1694  0.3463
  473MOL0     C62359   7.472   3.166   4.627  0.9971  0.0862  0.3726
  473MOL0     C62360   7.565   3.193   4.730 -0.3850  0.7191  0.0630
  473MOL0     C62361   7.536   3.274   4.839  0.1171 -0.7216 -0.1108
  473MOL0     O62362   7.623   3.297   4.939 -0.3266 -0.2586  0.2332
  473MOL0     C62363   7.725   3.401   4.922 -0.2102  0.1875  0.2327
  473MOL0     C62364   7.864   3.358   4.985  0.2126  0.6349  0.3374
  473MOL0     C62365   7.936   3.243   4.912  0.4195 -0.7200 -0.3498
  473MOL0     C62366   8.084   3.242   4.942 -0.0044  0.5673 -0.5124
  473MOL0     C62367   8.154   3.134   4.870 -0.6193 -0.0215  0.1999
  473MOL0     C62368   8.202   3.046   4.802  0.2737 -0.2052 -1.1757
  473MOL0     C62369   7.406   3.309   4.866  0.1260  0.4884 -0.1415
  473MOL0     C62370   7.310   3.272   4.772  1.1966  0.1531 -0.3367
  473MOL0     H62371   6.891   3.366   4.591 -0.9705 -0.4229  0.9528
  473MOL0     H62372   6.687   3.342   4.437 -0.2673  0.5257 -1.9527
  473MOL0     H62373   6.496   3.251   4.265 -1.3437 -0.0708  1.3111
  473MOL0     H62374   6.548   3.138   4.400  2.3805 -1.0128 -0.6089
  473MOL0     H62375   6.421   3.063   4.137  0.1242  0.2367  0.0685
  473MOL0     H62376   6.349   3.054   4.292  0.3254  1.3945 -0.2316
  473MOL0     H62377   6.526   2.879   4.357  1.4781  1.5368 -0.7880
  473MOL0     H62378   6.594   2.906   4.186 -0.8491  1.2139 -1.0043
  473MOL0     H62379   6.319   2.790   4.248  0.3664 -1.0204 -0.3724
  473MOL0     H62380   6.364   2.837   4.090 -0.4280 -1.1903 -1.4957
  473MOL0     H62381   6.572   2.675   4.132 -0.6747  4.2293 -0.1841
  473MOL0     H62382   6.406   2.608   4.101 -2.0516  0.0482  0.9381
  473MOL0     H62383   6.373   2.563   4.344 -1.5931  0.0150 -1.8636
  473MOL0     H62384   6.531   2.643   4.370  1.1460  2.0208 -2.6139
  473MOL0     H62385   6.647   2.460   4.255  0.2136  1.1372 -0.6030
  473MOL0     H62386   6.522   2.389   4.371  0.2296  0.1697 -0.8073
  473MOL0     H62387   6.524   2.420   4.060 -0.1452 -1.4649 -0.6486
  473MOL0     H62388   6.385   2.352   4.148  0.1178 -2.7605  2.1379
  473MOL0     H62389   6.751   2.304   4.115  1.1782 -0.1337  0.6007
  473MOL0     H62390   6.819   2.033   3.950 -2.2137  0.8999 -0.1407
  473MOL0     H62391   6.790   1.903   4.041  0.8419 -0.1251  1.7660
  473MOL0     H62392   6.998   1.941   4.129  2.4826  2.2840 -1.0920
  473MOL0     H62393   6.916   2.040   4.246 -0.4132 -0.9519 -0.8755
  473MOL0     H62394   6.993   2.187   3.993 -0.9218 -3.6714 -1.3220
  473MOL0     H62395   7.009   2.237   4.163 -1.3494 -0.0542 -0.2113
  473MOL0     H62396   7.217   2.151   3.989 -0.7984  2.1468  0.5038
  473MOL0     H62397   7.195   2.030   4.125 -0.7751  0.0556  1.0894
  473MOL0     H62398   7.422   2.006   4.088 -1.0421 -0.2805  0.6179
  473MOL0     H62399   7.652   2.003   4.114 -0.3608 -0.5460  0.0595
  473MOL0     H62400   7.975   1.872   4.304  0.9792 -1.3954  0.2444
  473MOL0     H62401   8.242   1.821   4.300  2.6210  1.7403  0.6152
  473MOL0     H62402   8.461   2.096   4.381  1.0397 -1.2906  0.8131
  473MOL0     H62403   8.535   2.153   4.232  1.0593  1.6916  2.5172
  473MOL0     H62404   8.714   2.036   4.259  1.1521 -0.7751  0.8166
  473MOL0     H62405   8.625   1.894   4.243  0.3276  0.8526 -1.8286
  473MOL0     H62406   8.583   1.917   4.503 -2.3038  0.2508 -0.3957
  473MOL0     H62407   8.684   2.068   4.494  2.3386 -0.8112 -1.4816
  473MOL0     H62408   8.781   1.783   4.421  1.2171 -0.0398  1.5853
  473MOL0     H62409   8.873   1.931   4.415  0.0369  0.1691 -0.3616
  473MOL0     H62410   8.863   1.983   4.624  2.0000 -0.2313  0.3255
  473MOL0     H62411   8.931   1.817   4.618  1.1694  2.2747  2.4419
  473MOL0     H62412   8.732   1.717   4.719  0.1711  0.2216  1.3370
  473MOL0     H62413   8.656   1.878   4.715 -0.2648 -0.9380  0.2525
  473MOL0     H62414   8.914   1.853   4.866  0.7974 -3.7231  1.1501
  473MOL0     H62415   8.762   1.937   4.905 -0.6852  0.8634 -2.1131
  473MOL0     H62416   8.802   1.762   5.074  0.8009  0.3491 -0.6457
  473MOL0     H62417   8.807   1.627   4.958 -0.0091 -0.9239  3.3312
  473MOL0     H62418   8.305   2.194   4.115 -1.1821  1.9774 -1.5747
  473MOL0     H62419   8.050   2.237   4.091 -0.2598  0.1231 -0.6705
  473MOL0     H62420   7.656   2.370   4.320  3.9654 -3.4539 -0.2320
  473MOL0     H62421   7.394   2.384   4.291 -3.0294 -1.9956 -0.1271
  473MOL0     H62422   6.865   3.011   4.261  2.4326  1.3557 -1.6261
  473MOL0     H62423   7.074   3.028   4.411  1.0764  0.6289 -1.3946
  473MOL0     H62424   7.493   3.100   4.543 -1.1304 -0.7276  0.3879
  473MOL0     H62425   7.664   3.148   4.730 -0.2977  0.8442 -1.5595
  473MOL0     H62426   7.694   3.499   4.958  1.5412  0.6133  0.6510
  473MOL0     H62427   7.749   3.408   4.815 -1.0474  3.8292  0.1778
  473MOL0     H62428   7.927   3.448   4.977  0.9248  0.1912  0.8228
  473MOL0     H62429   7.853   3.328   5.090  4.7453  0.2380  0.9028
  473MOL0     H62430   7.933   3.243   4.803 -0.7093 -1.7490 -0.3336
  473MOL0     H62431   7.894   3.148   4.947 -0.1701  0.7074  3.2321
  473MOL0     H62432   8.143   3.334   4.936 -0.8675  1.0487 -2.8139
  473MOL0     H62433   8.090   3.213   5.047  1.2700 -2.7752 -1.3789
  473MOL0     H62434   8.248   2.953   4.778 -1.4780 -1.7225  0.9795
  473MOL0     H62435   7.375   3.359   4.958  1.6132  2.1658 -0.4843
  473MOL0     H62436   7.212   3.298   4.810  1.5189 -2.7611  2.9566
  474MOL0     O62437   8.952  10.860   5.865  0.3949  0.4175 -0.0223
  474MOL0     C62438   9.008  10.954   5.808  0.6522 -0.2368  1.1468
  474MOL0     O62439   8.945  11.056   5.729 -0.1814 -0.1780 -0.4410
  474MOL0     C62440   8.803  11.064   5.708  0.0206 -0.5069 -0.1801
  474MOL0     C62441   8.722  10.953   5.704  0.3358 -0.4849  0.7227
  474MOL0     C62442   8.585  10.970   5.670 -1.0780 -0.1037  1.1754
  474MOL0     C62443   8.527  11.097   5.645 -0.1236  0.6195 -0.1150
  474MOL0     O62444   8.390  11.113   5.627  0.1409 -0.4757  0.0655
  474MOL0     C62445   8.326  11.028   5.530  0.8257 -0.6694  0.8937
  474MOL0     C62446   8.174  11.017   5.561  0.6748  0.4163  0.1980
  474MOL0     C62447   8.105  10.931   5.458 -0.8108 -0.0421  0.0265
  474MOL0     C62448   7.961  10.968   5.439 -0.5062 -0.2898 -0.1221
  474MOL0     C62449   7.918  10.885   5.316  0.0990 -0.1866  0.0867
  474MOL0     C62450   7.768  10.903   5.287  0.0047  0.1452 -0.2222
  474MOL0     C62451   7.740  11.033   5.211  0.3526 -0.9873 -0.5932
  474MOL0     C62452   7.589  11.048   5.230 -0.2114  0.1402  0.2617
  474MOL0     N62453   7.541  11.149   5.146 -0.5177 -0.3977 -0.4191
  474MOL0     C62454   7.503  11.276   5.190  0.5675  0.2567  0.1060
  474MOL0     C62455   7.461  11.336   5.079 -0.7228  0.1854  0.3125
  474MOL0     C62456   7.404  11.469   5.076 -0.1868 -0.2778 -0.2417
  474MOL0     C62457   7.274  11.476   5.001  0.1380 -0.2893 -0.1286
  474MOL0     C62458   7.266  11.597   4.897 -1.1085 -0.1148 -0.2388
  474MOL0     C62459   7.133  11.606   4.837 -0.6506 -0.5077 -0.6016
  474MOL0     O62460   7.015  11.597   4.927  0.0225 -0.4479 -0.0468
  474MOL0     C62461   6.897  11.663   4.898 -0.3259 -0.7370  0.8270
  474MOL0     C62462   6.789  11.640   4.977 -0.9365  0.3563  0.0648
  474MOL0     C62463   6.667  11.696   4.955  0.3127  0.2944 -0.3893
  474MOL0     C62464   6.654  11.773   4.833  0.2214 -0.4145  0.0719
  474MOL0     C62465   6.518  11.835   4.792  0.0539 -0.0224 -0.0406
  474MOL0     O62466   6.519  11.928   4.697  0.1309  0.0874  0.0505
  474MOL0     C62467   6.400  11.987   4.661  0.1803  0.2622 -1.0513
  474MOL0     C62468   6.298  12.033   4.757  0.2082  0.4970  0.0220
  474MOL0     C62469   6.175  12.084   4.710  0.3024  0.2696 -0.6722
  474MOL0     C62470   6.156  12.113   4.578  0.2927 -0.2926  0.0907
  474MOL0     O62471   6.038  12.178   4.545  0.3512  0.4506 -0.0783
  474MOL0     C62472   5.990  12.144   4.407  0.0544 -0.3075 -0.6935
  474MOL0     C62473   5.850  12.195   4.397  0.7895 -0.3707  0.5027
  474MOL0     C62474   5.788  12.185   4.254  0.3400  0.2541  0.2533
  474MOL0     C62475   5.655  12.258   4.269  0.3983  0.2910 -0.2384
  474MOL0     C62476   5.584  12.259   4.138  0.0938 -0.5770  0.5323
  474MOL0     C62477   5.481  12.371   4.121  1.0171  0.4816  0.5065
  474MOL0     C62478   5.356  12.329   4.191 -0.2710 -0.8448 -0.3132
  474MOL0     C62479   5.269  12.457   4.207 -0.1318  0.4473  0.1360
  474MOL0    Cl62480   5.113  12.411   4.282 -0.7351  0.1125  0.0082
  474MOL0     C62481   6.258  12.075   4.493 -0.6967  0.6573 -0.2266
  474MOL0     C62482   6.384  12.029   4.533 -0.3925  0.9101  0.8294
  474MOL0     O62483   6.416  11.793   4.839  0.3729  1.1608 -0.1099
  474MOL0     C62484   6.753  11.782   4.737  0.8783 -0.2031 -0.1712
  474MOL0     C62485   6.878  11.732   4.773 -0.1358 -0.8775 -0.4913
  474MOL0     N62486   7.470  11.254   4.969 -0.0100 -0.2128 -0.4521
  474MOL0     N62487   7.513  11.137   5.012 -0.9932 -0.6651  0.7004
  474MOL0     C62488   8.605  11.210   5.654  0.1876 -0.4797  0.0491
  474MOL0     C62489   8.742  11.188   5.683 -0.3401  0.9049  0.2728
  474MOL0     C62490   9.156  10.953   5.822  0.6663  0.0018  0.0730
  474MOL0     C62491   9.246  11.041   5.759  0.2730 -0.4366  0.4927
  474MOL0     C62492   9.389  11.028   5.783  0.2637  0.2663  0.5984
  474MOL0     C62493   9.441  10.933   5.875  0.3531  0.1222 -0.4504
  474MOL0     O62494   9.573  10.922   5.916  0.7610  0.0381  0.3114
  474MOL0     C62495   9.657  11.026   5.869  0.0232  0.6569 -0.5652
  474MOL0     C62496   9.778  11.051   5.950 -1.0259 -0.8856 -0.2038
  474MOL0     C62497   9.878  11.167   5.902  0.4021  0.7614  0.1220
  474MOL0     C62498  10.012  11.176   5.986  0.7224 -0.3229 -0.2395
  474MOL0     C62499  10.062  11.314   6.005  0.9341  0.5108  0.1420
  474MOL0     C62500  10.120  11.414   6.035 -0.0655  0.7884  0.8845
  474MOL0     C62501   9.349  10.843   5.934  0.8358  1.0608  0.1827
  474MOL0     C62502   9.207  10.857   5.912 -0.2570 -0.2981  0.4454
  474MOL0     H62503   8.767  10.855   5.710  0.2008 -0.5343  0.9603
  474MOL0     H62504   8.523  10.881   5.658  0.0637 -0.9940  1.6833
  474MOL0     H62505   8.351  10.922   5.525 -2.8482 -1.6155 -0.9480
  474MOL0     H62506   8.340  11.056   5.425 -5.0875 -2.4302 -0.7584
  474MOL0     H62507   8.123  11.114   5.572  1.5520  1.2445 -2.4538
  474MOL0     H62508   8.166  10.971   5.660 -0.4182 -3.4471 -1.5071
  474MOL0     H62509   8.106  10.830   5.500 -0.4344 -0.7396 -1.5945
  474MOL0     H62510   8.164  10.939   5.366 -1.2098 -0.0447 -0.2360
  474MOL0     H62511   7.904  10.935   5.527 -0.0275  0.3051  0.4236
  474MOL0     H62512   7.941  11.073   5.415  1.3783 -0.1060 -1.0143
  474MOL0     H62513   7.923  10.778   5.338  0.4859 -0.2724 -0.4097
  474MOL0     H62514   7.984  10.908   5.232  2.4433  2.9851  2.5896
  474MOL0     H62515   7.716  10.888   5.382  2.4653  0.1759  1.2090
  474MOL0     H62516   7.742  10.814   5.230  0.2839 -0.7500  1.0052
  474MOL0     H62517   7.798  11.119   5.244  1.3057 -2.8347  3.0365
  474MOL0     H62518   7.757  11.020   5.103  1.8241  0.0899 -0.5124
  474MOL0     H62519   7.569  11.072   5.335 -0.4466  0.5643  0.1237
  474MOL0     H62520   7.529  10.960   5.207  0.7922 -0.4175 -0.2958
  474MOL0     H62521   7.503  11.311   5.293  0.0534 -2.2082  1.0205
  474MOL0     H62522   7.475  11.538   5.030 -0.9955  1.0734  0.4668
  474MOL0     H62523   7.373  11.507   5.174  0.8260  0.2484 -0.1150
  474MOL0     H62524   7.196  11.498   5.075 -0.8039 -1.0419 -0.8751
  474MOL0     H62525   7.254  11.378   4.957 -0.5522  0.3777 -1.3779
  474MOL0     H62526   7.308  11.689   4.940  0.3446 -1.5346  1.5239
  474MOL0     H62527   7.337  11.571   4.818 -1.3007 -0.4746 -0.2948
  474MOL0     H62528   7.126  11.525   4.764 -2.1375 -1.0006  0.0400
  474MOL0     H62529   7.138  11.706   4.792 -0.9702 -0.7229 -1.1265
  474MOL0     H62530   6.811  11.572   5.058 -0.2961  2.6447  1.9184
  474MOL0     H62531   6.587  11.672   5.024  0.0906 -0.7885 -1.0027
  474MOL0     H62532   6.312  12.014   4.863  0.1673  0.0038 -0.0573
  474MOL0     H62533   6.093  12.102   4.779 -0.5654  2.2033 -2.0927
  474MOL0     H62534   5.984  12.037   4.386 -1.7192 -0.0316 -1.8107
  474MOL0     H62535   6.040  12.207   4.333 -0.2666  1.9929  0.9389
  474MOL0     H62536   5.837  12.292   4.446 -1.5780 -1.4445  2.2129
  474MOL0     H62537   5.783  12.133   4.458 -0.6217  0.8520  0.2766
  474MOL0     H62538   5.772  12.082   4.222  2.4544 -1.4260  3.9403
  474MOL0     H62539   5.850  12.240   4.182 -1.1060  0.4944 -0.8614
  474MOL0     H62540   5.596  12.194   4.335 -0.2455  0.0382 -1.0474
  474MOL0     H62541   5.655  12.357   4.314 -0.2846 -0.2872  1.0905
  474MOL0     H62542   5.540  12.163   4.109 -0.1510 -0.5981  0.9710
  474MOL0     H62543   5.662  12.279   4.063 -0.7378 -0.7713 -0.4102
  474MOL0     H62544   5.459  12.388   4.015  1.1427 -0.1308  0.3799
  474MOL0     H62545   5.525  12.468   4.146  2.5279 -0.0873  0.1557
  474MOL0     H62546   5.305  12.253   4.131  1.2227 -1.9449 -0.2547
  474MOL0     H62547   5.370  12.295   4.294 -0.8979 -0.1417  0.0102
  474MOL0     H62548   5.238  12.483   4.105 -0.1440 -1.3499 -0.3423
  474MOL0     H62549   5.327  12.539   4.252  0.7608 -0.1503  0.1047
  474MOL0     H62550   6.253  12.086   4.385  0.3157 -2.8209 -0.7493
  474MOL0     H62551   6.447  11.989   4.455 -1.0303 -0.9564  1.2286
  474MOL0     H62552   6.742  11.830   4.641 -0.0471 -0.7504 -0.3497
  474MOL0     H62553   6.960  11.762   4.709 -0.3274  1.3495  0.2173
  474MOL0     H62554   8.566  11.310   5.637  2.1181 -0.0662 -2.6684
  474MOL0     H62555   8.810  11.271   5.668 -3.5271  3.5559 -1.0327
  474MOL0     H62556   9.204  11.117   5.695 -0.4111 -1.6152 -0.4947
  474MOL0     H62557   9.451  11.103   5.736  1.4896  0.3561  2.2927
  474MOL0     H62558   9.607  11.123   5.874 -1.6552 -0.1592 -0.9884
  474MOL0     H62559   9.677  11.017   5.762 -1.8775 -0.8143 -0.8414
  474MOL0     H62560   9.744  11.087   6.047  0.8786  2.0700 -0.4902
  474MOL0     H62561   9.835  10.959   5.967  1.8734  0.8989  0.3692
  474MOL0     H62562   9.820  11.260   5.913 -2.5055 -1.0160  0.8524
  474MOL0     H62563   9.907  11.165   5.797 -0.0561  1.2431 -0.0157
  474MOL0     H62564   9.992  11.126   6.082  1.0420 -1.1721 -0.6063
  474MOL0     H62565  10.092  11.117   5.940  1.0237 -0.6207  0.6276
  474MOL0     H62566  10.167  11.508   6.056  0.3425  0.3926  1.8094
  474MOL0     H62567   9.389  10.764   5.997 -0.5867  0.4809  0.4038
  474MOL0     H62568   9.142  10.795   5.973 -1.1798 -0.3303 -0.5470
  475MOL0     O62569   8.438   6.193   6.820  0.1236  0.3351  0.2625
  475MOL0     C62570   8.494   6.084   6.789  0.2281 -0.7585  0.2970
  475MOL0     O62571   8.465   6.011   6.682 -0.2477  0.1688 -0.1643
  475MOL0     C62572   8.348   6.024   6.618  0.7362 -0.1862 -0.4146
  475MOL0     C62573   8.277   6.145   6.602 -0.0718 -0.5544  0.1825
  475MOL0     C62574   8.154   6.162   6.536 -0.3307 -0.8561  0.2381
  475MOL0     C62575   8.108   6.053   6.463 -0.0013 -0.3990  0.3868
  475MOL0     O62576   7.999   6.061   6.379  0.1417  0.1768 -0.2739
  475MOL0     C62577   7.882   6.137   6.417  0.4554 -0.5093  0.0383
  475MOL0     C62578   7.745   6.077   6.367 -1.3301 -0.7105  0.5692
  475MOL0     C62579   7.632   6.154   6.439  1.2428 -0.1157  0.3921
  475MOL0     C62580   7.491   6.118   6.370 -0.0130  0.0513  0.1931
  475MOL0     C62581   7.384   6.187   6.453  0.4377 -0.9601 -0.6227
  475MOL0     C62582   7.402   6.340   6.479 -0.0106 -0.1921 -0.2504
  475MOL0     C62583   7.419   6.430   6.355  0.0250 -0.2352 -0.0429
  475MOL0     C62584   7.568   6.450   6.306  0.0632  0.2724  0.0692
  475MOL0     N62585   7.574   6.571   6.210 -0.4413  0.2324  0.4505
  475MOL0     C62586   7.522   6.585   6.087 -0.4261  0.2253  0.1594
  475MOL0     C62587   7.579   6.694   6.028  0.9019  0.1086  0.0100
  475MOL0     C62588   7.555   6.754   5.891  0.2499  0.0753  1.2514
  475MOL0     C62589   7.414   6.825   5.881  0.2613  0.1047 -0.3048
  475MOL0     C62590   7.301   6.722   5.887  0.8935  0.0497  0.3950
  475MOL0     C62591   7.174   6.794   5.852 -0.4207  0.9461 -0.1834
  475MOL0     O62592   7.129   6.868   5.964  0.2733  0.1031 -0.8808
  475MOL0     C62593   7.009   6.929   5.955 -0.0455 -0.0619 -0.4717
  475MOL0     C62594   6.905   6.892   5.871 -0.2859 -0.3174  0.1809
  475MOL0     C62595   6.782   6.953   5.873 -1.4385  0.6720  0.2307
  475MOL0     C62596   6.753   7.059   5.960  0.5249 -0.1950  0.5984
  475MOL0     C62597   6.616   7.115   5.964  1.5621  0.1812 -0.2008
  475MOL0     O62598   6.595   7.208   6.056  0.6947 -0.2350  0.4435
  475MOL0     C62599   6.473   7.267   6.074 -0.1426  0.1517 -0.0494
  475MOL0     C62600   6.351   7.205   6.083  0.8861  0.2207 -0.6491
  475MOL0     C62601   6.229   7.271   6.113  0.2343 -0.0866  0.4225
  475MOL0     C62602   6.231   7.412   6.133 -0.8674 -0.0178  0.2897
  475MOL0     O62603   6.121   7.468   6.165 -0.2938 -0.2807 -0.2541
  475MOL0     C62604   6.097   7.499   6.304 -0.4023 -0.3789 -0.2705
  475MOL0     C62605   5.981   7.597   6.305  0.1815 -0.0399 -0.2306
  475MOL0     C62606   6.000   7.720   6.219 -0.1376  0.0139  0.0393
  475MOL0     C62607   5.885   7.826   6.231 -0.0634  1.1197 -0.4287
  475MOL0     C62608   5.900   7.948   6.144  0.3583 -0.4060  0.0209
  475MOL0     C62609   5.787   8.042   6.113  0.1488 -1.1678  0.3888
  475MOL0     C62610   5.670   8.057   6.221  0.8762 -0.1313  0.6760
  475MOL0     C62611   5.567   8.172   6.199 -0.3665 -0.6296 -0.6556
  475MOL0    Cl62612   5.447   8.146   6.071  0.1391  0.1774  0.3683
  475MOL0     C62613   6.358   7.475   6.117 -0.5220 -0.1236  0.7539
  475MOL0     C62614   6.472   7.408   6.093 -1.2486 -0.2248 -0.3188
  475MOL0     O62615   6.533   7.080   5.883  0.5404 -0.7234 -0.2536
  475MOL0     C62616   6.855   7.101   6.049 -0.1015 -0.0608  0.2053
  475MOL0     C62617   6.980   7.043   6.040  0.2667  0.9524 -0.7882
  475MOL0     N62618   7.664   6.752   6.129  0.5009 -0.4841  0.7824
  475MOL0     N62619   7.660   6.674   6.234 -0.7494  0.3506  0.5034
  475MOL0     C62620   8.183   5.931   6.467 -0.4101 -0.6880  0.2501
  475MOL0     C62621   8.297   5.916   6.546 -0.7090  0.0783 -0.1366
  475MOL0     C62622   8.625   6.058   6.848 -0.4546 -0.1501  0.2577
  475MOL0     C62623   8.679   6.144   6.941 -0.2427 -1.2995  0.1457
  475MOL0     C62624   8.803   6.122   7.000 -1.1543 -0.0543 -0.3810
  475MOL0     C62625   8.876   6.004   6.976  0.3863 -0.1275 -0.1623
  475MOL0     O62626   9.001   5.975   7.036 -0.0047  0.0673  0.7803
  475MOL0     C62627   9.091   6.080   7.072 -0.1441  0.0160 -0.2726
  475MOL0     C62628   9.221   6.031   7.151  0.1005 -0.3057  0.5233
  475MOL0     C62629   9.320   5.970   7.051  0.1274  0.0673 -0.3376
  475MOL0     C62630   9.279   5.826   7.009 -1.4256  0.1889  0.3126
  475MOL0     C62631   9.390   5.773   6.925  0.5729 -0.2360  0.4418
  475MOL0     C62632   9.466   5.730   6.838  0.3247  0.8313  0.4068
  475MOL0     C62633   8.814   5.912   6.894 -1.2105 -0.1248  0.4908
  475MOL0     C62634   8.691   5.936   6.826  0.0659  0.0772 -0.0614
  475MOL0     H62635   8.333   6.236   6.620 -0.4265 -0.2855 -0.0533
  475MOL0     H62636   8.107   6.260   6.537 -1.4767 -1.3920  1.5197
  475MOL0     H62637   7.884   6.229   6.359  0.1440 -0.5464 -0.0316
  475MOL0     H62638   7.868   6.149   6.525  2.7318 -1.2016  0.4670
  475MOL0     H62639   7.743   5.967   6.374 -1.8334 -0.7189  0.3626
  475MOL0     H62640   7.736   6.097   6.259 -0.7245  0.1312  0.6752
  475MOL0     H62641   7.651   6.261   6.443 -1.0214  0.3186  0.7469
  475MOL0     H62642   7.622   6.126   6.544 -3.5979  4.1191  1.4460
  475MOL0     H62643   7.487   6.153   6.267 -0.3687  3.1982  1.1782
  475MOL0     H62644   7.475   6.010   6.383  0.6537 -0.3152 -1.7792
  475MOL0     H62645   7.380   6.133   6.547  1.1894  0.8347  0.4990
  475MOL0     H62646   7.286   6.173   6.406 -1.7050  2.1372  2.4604
  475MOL0     H62647   7.481   6.368   6.549  0.7933  0.1271 -1.2607
  475MOL0     H62648   7.309   6.368   6.529  0.4403 -0.5487  0.8264
  475MOL0     H62649   7.352   6.395   6.276 -0.7006  1.4650 -0.2397
  475MOL0     H62650   7.399   6.530   6.394  1.9570 -0.6075  2.0891
  475MOL0     H62651   7.605   6.358   6.260  4.3692  1.4240  0.7993
  475MOL0     H62652   7.640   6.461   6.387  0.9161  0.3253 -0.6833
  475MOL0     H62653   7.448   6.519   6.043 -1.9970  2.6439 -1.0683
  475MOL0     H62654   7.559   6.674   5.816 -1.7158  0.1125  1.0425
  475MOL0     H62655   7.626   6.833   5.868  0.3970 -0.4483 -0.2346
  475MOL0     H62656   7.400   6.885   5.791  0.1465  1.6798  0.7350
  475MOL0     H62657   7.406   6.897   5.962  0.3193 -0.0536 -0.1580
  475MOL0     H62658   7.328   6.653   5.807 -0.1220  3.2210 -2.9604
  475MOL0     H62659   7.288   6.678   5.986  1.6465  2.5229  1.7061
  475MOL0     H62660   7.100   6.718   5.824 -0.0773  0.7255 -0.5064
  475MOL0     H62661   7.190   6.870   5.775  2.4990  0.3454 -0.2868
  475MOL0     H62662   6.907   6.802   5.810  2.0011  1.5841 -2.8582
  475MOL0     H62663   6.699   6.915   5.814 -0.7522 -0.6516  0.0677
  475MOL0     H62664   6.347   7.099   6.061  2.1434  0.5367 -2.5449
  475MOL0     H62665   6.131   7.228   6.127 -0.8016  2.0800  0.3047
  475MOL0     H62666   6.189   7.541   6.345 -1.1916  2.4249 -1.1786
  475MOL0     H62667   6.071   7.413   6.367  0.0452  0.0986  0.5865
  475MOL0     H62668   5.967   7.627   6.409  3.2986 -1.8315  0.8361
  475MOL0     H62669   5.894   7.536   6.280 -0.1364  0.9024 -1.5790
  475MOL0     H62670   6.026   7.697   6.116  2.6240  0.2548  0.5908
  475MOL0     H62671   6.089   7.777   6.249  1.1460 -1.1777 -1.3458
  475MOL0     H62672   5.788   7.777   6.221  0.6565 -0.1550 -1.4378
  475MOL0     H62673   5.880   7.856   6.336 -1.0402  2.6873 -0.8840
  475MOL0     H62674   5.942   7.913   6.049  2.6147 -0.2450  0.9214
  475MOL0     H62675   5.974   8.009   6.196 -1.6197  3.1863 -1.0010
  475MOL0     H62676   5.749   8.002   6.019  1.1737 -0.3435 -0.3963
  475MOL0     H62677   5.828   8.141   6.094 -3.9562  0.4769 -0.9658
  475MOL0     H62678   5.621   7.959   6.217  3.0915 -1.2563 -1.5689
  475MOL0     H62679   5.721   8.071   6.317  2.8226 -0.8249 -0.2107
  475MOL0     H62680   5.617   8.267   6.177  2.2287 -1.9504 -0.9221
  475MOL0     H62681   5.510   8.195   6.289 -0.4068 -0.6111 -0.6860
  475MOL0     H62682   6.357   7.581   6.142 -1.9654 -0.1782  1.0552
  475MOL0     H62683   6.568   7.459   6.095 -1.6073  0.6518 -2.7319
  475MOL0     H62684   6.833   7.180   6.120  0.4286  0.7046 -0.4709
  475MOL0     H62685   7.057   7.085   6.104  1.7296  0.6561 -2.2528
  475MOL0     H62686   8.142   5.844   6.415 -0.0963 -1.1834  0.8227
  475MOL0     H62687   8.351   5.823   6.555 -1.4953 -0.1978  3.2437
  475MOL0     H62688   8.627   6.237   6.966 -1.0367 -0.9328 -2.5551
  475MOL0     H62689   8.843   6.187   7.077 -0.9580 -2.6057  1.7992
  475MOL0     H62690   9.051   6.169   7.121  1.2967  0.9504 -0.7118
  475MOL0     H62691   9.122   6.123   6.976 -0.4676 -2.2119 -1.4485
  475MOL0     H62692   9.273   6.116   7.198  2.1755 -1.0335 -0.3360
  475MOL0     H62693   9.193   5.964   7.232 -0.1863  2.0009  2.4618
  475MOL0     H62694   9.418   5.974   7.099  0.2574 -2.1912 -0.3202
  475MOL0     H62695   9.320   6.033   6.961  3.9612  1.6563  0.5733
  475MOL0     H62696   9.273   5.757   7.094  4.1731  2.1488  2.8254
  475MOL0     H62697   9.190   5.831   6.946  0.1631  0.5297 -2.0518
  475MOL0     H62698   9.519   5.699   6.751 -2.2989  0.2898 -1.0814
  475MOL0     H62699   8.867   5.817   6.885 -0.4820  0.0018  2.6781
  475MOL0     H62700   8.645   5.862   6.762  0.8214 -1.2460  0.8852
  476MOL0     O62701   5.828   3.869   3.211  0.0920 -0.1560 -0.2818
  476MOL0     C62702   5.853   3.909   3.330 -0.7955  0.1603 -0.8602
  476MOL0     O62703   5.775   3.887   3.438  0.0364 -0.4232  0.2710
  476MOL0     C62704   5.651   3.834   3.416  0.2774  0.5416 -0.1541
  476MOL0     C62705   5.553   3.885   3.335  0.0621  0.5553  1.1834
  476MOL0     C62706   5.424   3.824   3.335 -0.4218  0.2752  0.0189
  476MOL0     C62707   5.400   3.707   3.403  0.3879  0.9048  0.6243
  476MOL0     O62708   5.274   3.667   3.387  0.1863  0.6698  0.1183
  476MOL0     C62709   5.246   3.531   3.409  0.5273  1.2875  0.3377
  476MOL0     C62710   5.103   3.523   3.355 -0.5793 -0.2952 -0.0004
  476MOL0     C62711   5.035   3.394   3.383  0.3198  0.4487 -0.0463
  476MOL0     C62712   4.897   3.403   3.300  0.9861 -1.1273 -0.8884
  476MOL0     C62713   4.807   3.272   3.326  0.1623 -0.1124 -0.6115
  476MOL0     C62714   4.697   3.259   3.223 -0.1694  0.1997  0.3084
  476MOL0     C62715   4.608   3.150   3.258  0.2088 -0.1442  0.0227
  476MOL0     C62716   4.494   3.139   3.150 -0.7205  0.8457 -1.7252
  476MOL0     N62717   4.374   3.063   3.192 -0.8194  0.7990 -0.2075
  476MOL0     C62718   4.275   3.044   3.106  0.6030  0.3015 -1.2687
  476MOL0     C62719   4.197   2.957   3.176 -1.0710 -0.1388 -0.1100
  476MOL0     C62720   4.084   2.888   3.125  0.9018  0.2582 -0.1982
  476MOL0     C62721   3.981   2.879   3.228  0.4306  0.0460 -0.6804
  476MOL0     C62722   3.860   2.813   3.170 -0.5805  0.6774  0.8239
  476MOL0     C62723   3.747   2.802   3.267  0.0762  0.3174 -1.7745
  476MOL0     O62724   3.690   2.933   3.290  0.1969 -0.1262 -0.1689
  476MOL0     C62725   3.563   2.952   3.348 -0.0699 -0.0071 -0.5417
  476MOL0     C62726   3.508   2.861   3.436  0.5195  0.3462  0.6533
  476MOL0     C62727   3.385   2.876   3.489 -0.0538 -0.0386  0.0410
  476MOL0     C62728   3.313   3.000   3.476  0.6466  0.0944 -0.3534
  476MOL0     C62729   3.180   3.019   3.538 -0.4206 -0.4909 -0.1250
  476MOL0     O62730   3.139   3.151   3.553 -0.7126  0.1359  0.3689
  476MOL0     C62731   3.010   3.182   3.572  0.4707  0.9087 -0.1508
  476MOL0     C62732   2.940   3.259   3.474  0.0412  0.7368 -0.2293
  476MOL0     C62733   2.806   3.279   3.491 -0.1060  0.2442  0.0862
  476MOL0     C62734   2.731   3.237   3.597 -0.1587 -0.1671 -0.9509
  476MOL0     O62735   2.597   3.271   3.593 -0.3143 -0.0651  0.0165
  476MOL0     C62736   2.528   3.298   3.713 -0.9048  0.2950  0.3480
  476MOL0     C62737   2.392   3.356   3.688  0.0458  0.6355 -1.6184
  476MOL0     C62738   2.293   3.247   3.667  0.2612  0.7931 -0.5808
  476MOL0     C62739   2.144   3.294   3.650  0.1165 -0.4673  0.0510
  476MOL0     C62740   2.048   3.179   3.620  0.1796  0.0737  0.4403
  476MOL0     C62741   1.905   3.221   3.632  0.5278 -0.3953  0.6768
  476MOL0     C62742   1.816   3.110   3.597  0.5526 -0.6356  1.0288
  476MOL0     C62743   1.784   2.996   3.701  0.3412  0.1957 -0.4466
  476MOL0    Cl62744   1.708   3.060   3.855  0.1488 -0.4429  0.4291
  476MOL0     C62745   2.795   3.156   3.693  0.1592 -0.2226 -0.3910
  476MOL0     C62746   2.931   3.126   3.675  0.6417  0.0246 -0.7174
  476MOL0     O62747   3.116   2.925   3.576 -0.1898  0.3044  0.7138
  476MOL0     C62748   3.368   3.096   3.386  0.2811  0.1800 -0.7430
  476MOL0     C62749   3.498   3.076   3.340  0.4809  0.4347 -0.4792
  476MOL0     N62750   4.274   2.908   3.280  0.1291  0.7832 -0.7001
  476MOL0     N62751   4.375   2.989   3.300  0.8308  0.9645 -0.2240
  476MOL0     C62752   5.495   3.657   3.489  0.1513 -0.1941 -0.1401
  476MOL0     C62753   5.613   3.725   3.493 -0.7955 -0.5422 -0.4579
  476MOL0     C62754   5.980   3.978   3.354  0.2444 -0.7129 -0.1661
  476MOL0     C62755   6.067   4.005   3.246  0.5862  0.8143  0.1391
  476MOL0     C62756   6.189   4.072   3.268  0.2636  0.5850  0.2296
  476MOL0     C62757   6.233   4.101   3.405 -0.0473  0.1734  1.1122
  476MOL0     O62758   6.349   4.157   3.444 -0.1813  1.0703  0.4127
  476MOL0     C62759   6.455   4.161   3.344  1.0472 -0.2788 -0.5512
  476MOL0     C62760   6.582   4.201   3.394 -0.3809 -0.8830 -0.5235
  476MOL0     C62761   6.687   4.221   3.280 -0.1479  0.0812 -0.2240
  476MOL0     C62762   6.802   4.307   3.344 -0.0093 -0.6355  0.9616
  476MOL0     C62763   6.935   4.264   3.290  0.0327 -0.5569  0.1435
  476MOL0     C62764   7.043   4.228   3.243  0.1399 -0.0836  0.1534
  476MOL0     C62765   6.146   4.069   3.507 -0.0675  0.1682 -0.4981
  476MOL0     C62766   6.020   4.011   3.482 -0.0575 -0.0873  0.3852
  476MOL0     H62767   5.568   3.972   3.272  1.0525 -0.5127 -0.0977
  476MOL0     H62768   5.355   3.871   3.264 -1.6492  0.8568  1.5356
  476MOL0     H62769   5.231   3.502   3.514 -1.4030 -3.3332 -0.9635
  476MOL0     H62770   5.310   3.459   3.357  0.1740  0.7864  0.5833
  476MOL0     H62771   5.095   3.548   3.249 -3.3158  0.5469  0.3069
  476MOL0     H62772   5.058   3.607   3.410  3.1847  2.3143 -0.5633
  476MOL0     H62773   5.034   3.368   3.490  0.5378 -1.5557 -0.4918
  476MOL0     H62774   5.085   3.312   3.332 -0.8714 -0.2570 -0.1134
  476MOL0     H62775   4.842   3.493   3.329  1.2664 -1.5297  1.1068
  476MOL0     H62776   4.918   3.404   3.193  1.2451  0.7429 -0.8431
  476MOL0     H62777   4.763   3.288   3.425  2.4590  1.6050  0.2388
  476MOL0     H62778   4.865   3.179   3.337  0.9155  0.2835 -1.1238
  476MOL0     H62779   4.749   3.241   3.129  0.9603  3.3429  0.2426
  476MOL0     H62780   4.647   3.355   3.211  0.8171  0.5880 -0.8522
  476MOL0     H62781   4.663   3.056   3.267 -0.4104 -0.6303 -1.0490
  476MOL0     H62782   4.560   3.178   3.352 -0.5218  1.2915 -0.7313
  476MOL0     H62783   4.542   3.092   3.064  0.6727 -0.3511 -0.3783
  476MOL0     H62784   4.446   3.236   3.136 -0.3001  1.1614 -1.0116
  476MOL0     H62785   4.267   3.072   3.001 -0.2210  0.7303 -1.1000
  476MOL0     H62786   4.111   2.790   3.085  2.1558  0.3926  0.2896
  476MOL0     H62787   4.033   2.940   3.043 -0.9190  1.4230  1.5881
  476MOL0     H62788   3.960   2.982   3.258  2.5945  0.2482  0.2768
  476MOL0     H62789   4.022   2.814   3.306  1.5092  0.4966 -0.8558
  476MOL0     H62790   3.818   2.881   3.095 -0.9204  1.3002  1.5639
  476MOL0     H62791   3.872   2.709   3.139 -0.0237  1.2205 -0.8678
  476MOL0     H62792   3.778   2.754   3.361  1.6852 -0.3233 -2.5864
  476MOL0     H62793   3.666   2.735   3.235 -3.7614  2.6204  2.0124
  476MOL0     H62794   3.556   2.768   3.466  2.3390  0.5283 -1.4447
  476MOL0     H62795   3.330   2.806   3.551 -2.4450  1.6110 -0.0748
  476MOL0     H62796   3.001   3.296   3.392 -0.6421  1.1701 -0.5547
  476MOL0     H62797   2.763   3.343   3.415  3.8265  0.6949 -2.0122
  476MOL0     H62798   2.589   3.372   3.766 -0.3231  0.2218 -0.2125
  476MOL0     H62799   2.521   3.204   3.769 -0.6332  0.5651  0.8433
  476MOL0     H62800   2.406   3.415   3.597  1.3949 -0.0400 -1.8749
  476MOL0     H62801   2.365   3.410   3.780 -1.3154 -2.4502 -0.0440
  476MOL0     H62802   2.298   3.178   3.752  1.0127 -0.8934 -1.9346
  476MOL0     H62803   2.319   3.186   3.580  0.3401  0.2824 -0.2064
  476MOL0     H62804   2.114   3.342   3.744 -0.3999 -0.6318 -0.0267
  476MOL0     H62805   2.137   3.359   3.563  1.1907 -0.3410  0.0425
  476MOL0     H62806   2.069   3.102   3.695  1.2646 -1.0830 -0.9921
  476MOL0     H62807   2.062   3.130   3.523 -0.0131 -0.5471  0.7217
  476MOL0     H62808   1.883   3.308   3.570  0.3018 -1.0735 -0.2243
  476MOL0     H62809   1.876   3.265   3.728 -1.7738  2.7700 -1.3118
  476MOL0     H62810   1.724   3.153   3.558  0.5584  0.9115  2.6563
  476MOL0     H62811   1.859   3.049   3.516  1.2979 -0.0132  0.9397
  476MOL0     H62812   1.881   2.948   3.721  1.8930  3.0638 -0.5698
  476MOL0     H62813   1.718   2.921   3.657 -1.4773  1.8266 -0.5941
  476MOL0     H62814   2.730   3.133   3.777 -1.4779  0.8732 -1.3001
  476MOL0     H62815   2.982   3.058   3.743 -0.2812 -0.5590 -0.5978
  476MOL0     H62816   3.325   3.194   3.367  0.8077  0.5039 -0.2777
  476MOL0     H62817   3.537   3.149   3.269 -0.0918  0.1077 -1.1430
  476MOL0     H62818   5.472   3.573   3.555 -1.3456 -0.7717 -1.3239
  476MOL0     H62819   5.693   3.678   3.550 -0.9668  1.7849  1.8607
  476MOL0     H62820   6.034   3.986   3.144  0.8309  4.7941 -0.8810
  476MOL0     H62821   6.242   4.112   3.183 -2.4871  0.8009 -1.5059
  476MOL0     H62822   6.427   4.217   3.254  0.1703  2.0400  1.0698
  476MOL0     H62823   6.478   4.056   3.323  0.7406 -0.7437  1.2497
  476MOL0     H62824   6.574   4.289   3.458  0.8301 -1.7677  0.9221
  476MOL0     H62825   6.622   4.125   3.462  1.8642  0.3754 -0.3499
  476MOL0     H62826   6.636   4.277   3.200 -0.3876 -1.6087 -1.3107
  476MOL0     H62827   6.728   4.127   3.242  2.8177  2.0385 -2.3421
  476MOL0     H62828   6.787   4.411   3.314  0.4170 -0.4009  1.5357
  476MOL0     H62829   6.809   4.302   3.454  0.9710 -3.1301  0.8350
  476MOL0     H62830   7.139   4.201   3.205  0.3376  0.9246 -0.1056
  476MOL0     H62831   6.179   4.089   3.608  0.7820  0.9706 -0.9155
  476MOL0     H62832   5.953   3.988   3.564  0.1224 -2.3814 -0.0612
  477MOL0     O62833   2.677   8.564   5.788 -0.2311  0.3222 -0.6558
  477MOL0     C62834   2.742   8.479   5.852  0.5623  0.2156 -0.0616
  477MOL0     O62835   2.747   8.341   5.831 -0.2634  0.2885 -0.1699
  477MOL0     C62836   2.674   8.279   5.743  0.2538 -0.3412  0.4525
  477MOL0     C62837   2.537   8.267   5.767  0.2191  1.0826  0.6485
  477MOL0     C62838   2.467   8.190   5.676  0.5516 -0.1479 -0.4342
  477MOL0     C62839   2.521   8.143   5.559  0.2816  0.5148 -0.5524
  477MOL0     O62840   2.455   8.077   5.463 -0.6757 -0.0762  0.2513
  477MOL0     C62841   2.319   8.033   5.483  1.0251  0.6383 -0.7038
  477MOL0     C62842   2.300   7.908   5.384  0.5685 -0.5754 -0.5398
  477MOL0     C62843   2.157   7.857   5.384 -0.6021  0.1801 -0.0461
  477MOL0     C62844   2.153   7.731   5.300 -0.0622  0.1911 -0.0056
  477MOL0     C62845   2.011   7.699   5.253  0.4209  0.4695  0.0622
  477MOL0     C62846   2.007   7.582   5.161  0.1081  0.3735  0.2007
  477MOL0     C62847   1.863   7.533   5.126  0.9847 -0.3218  0.1606
  477MOL0     C62848   1.793   7.450   5.238 -0.4340  0.5256  0.0455
  477MOL0     N62849   1.651   7.416   5.220  0.2077 -0.8785  0.7570
  477MOL0     C62850   1.618   7.287   5.197 -0.0499 -0.5536  0.4383
  477MOL0     C62851   1.487   7.283   5.215 -1.0347  0.2526 -0.1762
  477MOL0     C62852   1.419   7.146   5.194 -0.0363 -0.7354  0.5829
  477MOL0     C62853   1.285   7.176   5.113 -0.4314  0.0152 -0.2598
  477MOL0     C62854   1.174   7.071   5.125 -0.7852 -0.6270  0.1259
  477MOL0     C62855   1.056   7.098   5.028 -0.0663  0.2010 -0.4067
  477MOL0     O62856   0.972   6.977   5.031  0.3382 -0.3801 -0.2737
  477MOL0     C62857   0.867   6.994   4.954 -0.8338 -0.6550  0.0321
  477MOL0     C62858   0.838   7.101   4.864  0.0137  0.8792  0.5813
  477MOL0     C62859   0.707   7.109   4.819  0.4896 -0.4510  0.1544
  477MOL0     C62860   0.606   7.013   4.840  0.5039 -0.7024  0.0203
  477MOL0     C62861   0.479   7.032   4.766 -0.3249  0.4345  0.1735
  477MOL0     O62862   0.406   6.918   4.756 -0.1867  0.0911 -0.4336
  477MOL0     C62863   0.294   6.922   4.684  0.2601  0.1625 -0.4461
  477MOL0     C62864   0.292   6.852   4.555 -0.2364 -0.5122 -0.1794
  477MOL0     C62865   0.178   6.865   4.473 -0.5295  0.4595 -0.9662
  477MOL0     C62866   0.067   6.926   4.522 -0.1644 -0.1072  0.2856
  477MOL0     O62867  -0.043   6.921   4.446 -0.1736  0.2360  0.0419
  477MOL0     C62868  -0.168   6.917   4.507  0.2629  0.3085  0.3418
  477MOL0     C62869  -0.272   6.868   4.408  0.1943 -0.2513  0.2262
  477MOL0     C62870  -0.417   6.906   4.463  0.1635 -0.5184  0.1665
  477MOL0     C62871  -0.527   6.826   4.396  0.8673 -0.7594 -0.5654
  477MOL0     C62872  -0.659   6.867   4.458  0.4979 -0.1896 -0.7059
  477MOL0     C62873  -0.777   6.851   4.361 -0.0243 -0.8314 -0.8618
  477MOL0     C62874  -0.899   6.913   4.428  0.7492 -1.0247 -1.0035
  477MOL0     C62875  -1.027   6.838   4.377  1.1187 -0.5276  0.0040
  477MOL0    Cl62876  -1.177   6.915   4.449 -0.2814  0.0558  0.0593
  477MOL0     C62877   0.072   6.999   4.642 -0.0262  0.7185 -0.1206
  477MOL0     C62878   0.186   7.002   4.720 -0.3739 -0.0898 -0.1095
  477MOL0     O62879   0.447   7.138   4.711 -0.7720  0.1829 -0.1352
  477MOL0     C62880   0.645   6.900   4.908 -0.2608  0.0139 -0.1500
  477MOL0     C62881   0.768   6.892   4.967  0.1758 -0.0544  0.4417
  477MOL0     N62882   1.440   7.398   5.275  0.3846  0.6921 -0.1299
  477MOL0     N62883   1.540   7.482   5.277  0.1697 -0.1810 -0.3351
  477MOL0     C62884   2.655   8.168   5.527 -0.1306 -0.6083 -0.4883
  477MOL0     C62885   2.731   8.240   5.619 -0.8161  0.3492  0.8247
  477MOL0     C62886   2.810   8.540   5.969  0.1738  0.4167  0.2236
  477MOL0     C62887   2.796   8.487   6.090 -0.5619  0.4436  0.0279
  477MOL0     C62888   2.849   8.557   6.208 -0.0560 -0.2906  0.4608
  477MOL0     C62889   2.929   8.675   6.203 -0.0867 -0.7421  0.7655
  477MOL0     O62890   2.995   8.739   6.305 -0.0757  0.4646  0.1095
  477MOL0     C62891   2.958   8.711   6.442 -0.0779  0.2209  0.3359
  477MOL0     C62892   3.035   8.795   6.540  0.0152 -0.0968 -0.3235
  477MOL0     C62893   3.181   8.752   6.553 -0.4964 -0.5914 -0.0191
  477MOL0     C62894   3.278   8.843   6.628  0.3505 -0.7896  0.2058
  477MOL0     C62895   3.411   8.795   6.629  0.3376  0.1655  0.6109
  477MOL0     C62896   3.528   8.755   6.640  0.4441  0.0957 -0.7707
  477MOL0     C62897   2.931   8.730   6.070 -0.1007  0.6110 -0.7113
  477MOL0     C62898   2.867   8.670   5.962 -0.5609 -0.1039 -0.1296
  477MOL0     H62899   2.505   8.294   5.867  0.9830  0.5354  1.0558
  477MOL0     H62900   2.368   8.153   5.701  1.0139  0.6516  3.1421
  477MOL0     H62901   2.240   8.105   5.457  0.6062  0.5558  0.2825
  477MOL0     H62902   2.299   7.996   5.584  1.6865 -0.7104 -1.0453
  477MOL0     H62903   2.365   7.828   5.420  3.0282  2.5339  2.5670
  477MOL0     H62904   2.330   7.934   5.282 -0.5819 -0.3742 -0.8467
  477MOL0     H62905   2.091   7.934   5.343  1.4317  1.3512 -1.3142
  477MOL0     H62906   2.130   7.819   5.483  0.9945  0.1981  0.4269
  477MOL0     H62907   2.218   7.739   5.212  2.4206  0.0860  1.7168
  477MOL0     H62908   2.192   7.639   5.344  1.3692  0.3832 -0.8064
  477MOL0     H62909   1.970   7.782   5.194  0.8444  0.7656  0.1757
  477MOL0     H62910   1.939   7.693   5.335  2.4734  0.2871  1.9555
  477MOL0     H62911   2.076   7.507   5.200 -3.3812 -1.9613  2.4382
  477MOL0     H62912   2.052   7.606   5.064  1.0921  0.6940  0.7193
  477MOL0     H62913   1.802   7.621   5.103  0.4337 -0.9195 -0.7520
  477MOL0     H62914   1.846   7.470   5.038 -1.4435  3.0712 -2.0711
  477MOL0     H62915   1.807   7.507   5.330  1.7033  0.8344 -0.4210
  477MOL0     H62916   1.844   7.355   5.258 -2.0154 -0.5594 -0.8009
  477MOL0     H62917   1.689   7.212   5.164  2.0999  1.6721 -0.3106
  477MOL0     H62918   1.398   7.109   5.295 -1.2362  0.6688  0.8809
  477MOL0     H62919   1.478   7.076   5.135 -0.8748 -0.3450 -0.7643
  477MOL0     H62920   1.308   7.201   5.009 -0.8184  3.1721  0.2978
  477MOL0     H62921   1.245   7.269   5.155  0.9812  0.0902  0.9836
  477MOL0     H62922   1.217   6.975   5.095  1.6324  0.0591  1.1800
  477MOL0     H62923   1.136   7.061   5.227  0.8764  1.4547  1.0016
  477MOL0     H62924   1.101   7.128   4.933  2.8975  1.1909  1.1693
  477MOL0     H62925   1.002   7.183   5.070 -0.3320 -0.3740  0.4586
  477MOL0     H62926   0.904   7.184   4.839  0.7051 -0.5225 -2.7724
  477MOL0     H62927   0.704   7.203   4.763 -0.2967 -0.2744  0.4717
  477MOL0     H62928   0.383   6.807   4.515  0.7230 -0.0414  1.3602
  477MOL0     H62929   0.177   6.823   4.373 -0.1274  1.2059 -1.2956
  477MOL0     H62930  -0.203   7.007   4.558 -2.8593  0.1587 -1.3347
  477MOL0     H62931  -0.162   6.842   4.587 -0.6993 -0.2396 -0.0914
  477MOL0     H62932  -0.271   6.758   4.401 -3.8253 -0.3681 -2.3380
  477MOL0     H62933  -0.255   6.909   4.308 -0.3934 -1.1365 -0.2521
  477MOL0     H62934  -0.440   7.013   4.458 -1.0565 -0.8311 -3.4768
  477MOL0     H62935  -0.420   6.878   4.569  0.0747  2.2021  0.9540
  477MOL0     H62936  -0.520   6.848   4.290  1.6994  2.0060 -0.0169
  477MOL0     H62937  -0.509   6.718   4.402 -1.1371 -1.1330 -0.5612
  477MOL0     H62938  -0.649   6.975   4.460  0.1895 -0.1519 -1.0286
  477MOL0     H62939  -0.683   6.822   4.555 -0.8059  1.2974 -0.2905
  477MOL0     H62940  -0.791   6.745   4.340 -2.8726 -0.4131 -1.3885
  477MOL0     H62941  -0.754   6.900   4.265 -0.5175  1.1146 -0.0276
  477MOL0     H62942  -0.899   6.912   4.537  3.7748  0.8204 -0.8478
  477MOL0     H62943  -0.908   7.020   4.404 -1.1584 -1.1716 -1.0658
  477MOL0     H62944  -1.013   6.735   4.412  0.1637 -0.7006 -0.1054
  477MOL0     H62945  -1.028   6.843   4.268  2.3403 -0.9671 -0.0441
  477MOL0     H62946  -0.020   7.052   4.662 -0.1732  2.7591 -5.0088
  477MOL0     H62947   0.195   7.063   4.810 -1.0598 -0.6460  0.3450
  477MOL0     H62948   0.574   6.818   4.915  1.7846 -1.8757 -0.1375
  477MOL0     H62949   0.793   6.817   5.041  1.0076 -1.0994 -0.8577
  477MOL0     H62950   2.684   8.157   5.423  0.2943 -1.9832 -0.2437
  477MOL0     H62951   2.833   8.276   5.610 -1.9171  3.4923 -0.8095
  477MOL0     H62952   2.740   8.395   6.108  0.6936 -0.3947 -0.1949
  477MOL0     H62953   2.828   8.499   6.297 -0.1462 -1.8697 -0.5346
  477MOL0     H62954   2.974   8.603   6.454  0.6214  0.3380  0.5249
  477MOL0     H62955   2.850   8.727   6.451  0.4150  4.5710  0.8065
  477MOL0     H62956   3.025   8.896   6.499  1.0538 -0.3556 -1.2692
  477MOL0     H62957   2.991   8.805   6.640  5.1170  1.9624  2.0717
  477MOL0     H62958   3.213   8.735   6.449 -0.9881 -2.3758  0.0761
  477MOL0     H62959   3.185   8.650   6.593  1.9741 -1.1262 -1.4229
  477MOL0     H62960   3.284   8.941   6.581 -2.3205  1.3455  3.8141
  477MOL0     H62961   3.246   8.874   6.728 -0.7855 -0.5652 -0.2138
  477MOL0     H62962   3.634   8.752   6.622  0.6094  2.9410 -0.6838
  477MOL0     H62963   2.979   8.826   6.053 -1.1764  1.2122 -0.4255
  477MOL0     H62964   2.887   8.712   5.864  0.7310  0.1179  0.2075
  478MOL0     O62965  10.476   4.284   0.591 -0.4640 -0.3222  0.1633
  478MOL0     C62966  10.476   4.175   0.647  0.1643  0.5269 -0.9129
  478MOL0     O62967  10.400   4.068   0.612 -0.1080  0.5206  0.7264
  478MOL0     C62968  10.320   4.085   0.501 -1.1906  0.5079 -0.6437
  478MOL0     C62969  10.222   4.182   0.510 -0.1977  0.4958  0.4463
  478MOL0     C62970  10.125   4.185   0.406 -0.4391  0.0002 -0.7601
  478MOL0     C62971  10.133   4.094   0.298 -0.4712  1.3234 -0.0295
  478MOL0     O62972  10.045   4.075   0.192  0.0400  0.0479 -0.5032
  478MOL0     C62973   9.919   4.148   0.203 -0.3547  0.2734  0.2311
  478MOL0     C62974   9.823   4.097   0.100 -0.4133 -0.0487 -0.4079
  478MOL0     C62975   9.768   3.957   0.126  0.2963  0.6851  0.5463
  478MOL0     C62976   9.664   3.927   0.014 -0.2937 -0.2636 -0.6812
  478MOL0     C62977   9.602   3.791   0.064 -0.8442 -0.2058  0.1465
  478MOL0     C62978   9.482   3.761  -0.030 -0.6826 -0.0704 -0.3479
  478MOL0     C62979   9.392   3.644   0.022  0.7795 -0.3245  0.5951
  478MOL0     C62980   9.292   3.681   0.140 -0.5816 -0.0687  0.1553
  478MOL0     N62981   9.260   3.821   0.149 -0.5749 -0.3375 -0.2020
  478MOL0     C62982   9.191   3.903   0.055 -0.4425  0.5854 -0.0338
  478MOL0     C62983   9.173   4.025   0.118  0.0765 -0.5614 -0.0193
  478MOL0     C62984   9.087   4.149   0.071  0.4384  0.3722  0.3157
  478MOL0     C62985   8.944   4.110   0.054  0.3232  0.0239  0.3071
  478MOL0     C62986   8.874   4.215  -0.034  0.0506  0.7069  0.3181
  478MOL0     C62987   8.723   4.196  -0.017 -0.6123  0.0207  0.5990
  478MOL0     O62988   8.637   4.280  -0.102  0.4715  0.4010 -0.3769
  478MOL0     C62989   8.509   4.229  -0.117  0.1479  0.5190  0.0760
  478MOL0     C62990   8.435   4.282  -0.218 -0.9418 -0.1592 -0.0534
  478MOL0     C62991   8.298   4.263  -0.228  0.0558  0.7998  0.8554
  478MOL0     C62992   8.232   4.178  -0.141  0.4778  0.0281  0.8201
  478MOL0     C62993   8.087   4.150  -0.147 -0.2797  0.2807 -1.2766
  478MOL0     O62994   8.032   4.190  -0.266 -0.1315  0.5274 -0.3625
  478MOL0     C62995   7.897   4.164  -0.276  0.8117 -0.7955 -0.5216
  478MOL0     C62996   7.854   4.088  -0.385 -0.2381  0.0128  0.8716
  478MOL0     C62997   7.718   4.048  -0.388 -0.2774  0.6445 -0.1266
  478MOL0     C62998   7.629   4.091  -0.292  0.3297 -0.0357 -0.1194
  478MOL0     O62999   7.494   4.069  -0.293 -0.3427 -0.4065  0.4689
  478MOL0     C63000   7.445   4.136  -0.413  0.1287 -0.4421  0.0663
  478MOL0     C63001   7.286   4.171  -0.386 -0.4954 -0.4152  0.3465
  478MOL0     C63002   7.274   4.274  -0.275 -0.4883  0.0519 -1.0217
  478MOL0     C63003   7.124   4.320  -0.262 -0.5407 -0.0657  0.6352
  478MOL0     C63004   7.109   4.396  -0.130  0.4288  0.3580  0.4954
  478MOL0     C63005   6.957   4.444  -0.144  0.6666  0.7575  0.1156
  478MOL0     C63006   6.921   4.500   0.003  0.5542  0.1392 -0.4340
  478MOL0     C63007   6.781   4.542   0.029  0.9318  0.0377 -0.0050
  478MOL0    Cl63008   6.723   4.672  -0.088 -0.6266  0.0254 -0.4465
  478MOL0     C63009   7.672   4.175  -0.186  0.1056  0.3169  0.1987
  478MOL0     C63010   7.808   4.213  -0.178 -0.2128 -0.1000 -0.4602
  478MOL0     O63011   8.035   4.089  -0.057 -0.0933 -0.3948 -0.3955
  478MOL0     C63012   8.301   4.109  -0.039 -0.2338  0.4043  0.4084
  478MOL0     C63013   8.448   4.139  -0.025  0.0859 -0.3549 -0.6871
  478MOL0     N63014   9.229   4.018   0.247 -0.3646 -0.5408  0.6549
  478MOL0     N63015   9.273   3.902   0.262 -0.2940 -0.4384 -0.2143
  478MOL0     C63016  10.240   4.002   0.294  0.7012 -0.4146 -0.0463
  478MOL0     C63017  10.336   3.997   0.392  0.5974  0.0959  0.6471
  478MOL0     C63018  10.568   4.157   0.761  0.8105  0.5619 -0.0913
  478MOL0     C63019  10.554   4.047   0.847 -0.4653 -0.5773  0.1901
  478MOL0     C63020  10.632   4.023   0.958 -0.4454 -0.4945  0.1493
  478MOL0     C63021  10.739   4.110   0.985 -0.9380  0.2965  0.7115
  478MOL0     O63022  10.818   4.108   1.086  0.2045  0.3140 -0.4190
  478MOL0     C63023  10.813   3.982   1.168 -0.2664 -0.1380 -0.7078
  478MOL0     C63024  10.950   3.964   1.235 -0.7779 -0.6594  0.4600
  478MOL0     C63025  10.980   4.067   1.342  0.7596 -0.3244  0.2850
  478MOL0     C63026  11.106   4.033   1.411 -0.2660 -0.3044  0.9121
  478MOL0     C63027  11.125   4.085   1.541 -1.1795 -0.2673  0.2399
  478MOL0     C63028  11.129   4.163   1.640 -0.0994  0.2299 -0.5605
  478MOL0     C63029  10.748   4.226   0.901 -0.8638  0.1162 -0.4669
  478MOL0     C63030  10.665   4.255   0.796  0.4341 -0.0566  0.3107
  478MOL0     H63031  10.221   4.250   0.595  0.9068 -0.1841  1.0376
  478MOL0     H63032  10.059   4.269   0.387  1.5102  1.0540 -3.6941
  478MOL0     H63033   9.939   4.254   0.184  1.2524 -0.0442  0.0423
  478MOL0     H63034   9.877   4.154   0.305  0.1514  2.5315  0.3679
  478MOL0     H63035   9.865   4.094  -0.000 -1.1281  0.5703 -0.7375
  478MOL0     H63036   9.741   4.170   0.103 -1.5112 -1.1992  3.0208
  478MOL0     H63037   9.722   3.951   0.225 -2.0415  3.1323 -0.2591
  478MOL0     H63038   9.850   3.884   0.121 -0.2917 -0.2746  3.1607
  478MOL0     H63039   9.599   4.014   0.003  2.4112  1.8399 -1.2357
  478MOL0     H63040   9.706   3.912  -0.086 -1.1265  1.1999 -1.2853
  478MOL0     H63041   9.564   3.794   0.166  2.2991  1.2288  1.4102
  478MOL0     H63042   9.677   3.711   0.062  0.1068  0.6647 -0.7100
  478MOL0     H63043   9.529   3.728  -0.123  0.4174  0.6336 -0.0547
  478MOL0     H63044   9.421   3.849  -0.052  0.7094  1.0315  0.0695
  478MOL0     H63045   9.337   3.617  -0.068  5.2145  0.3555 -2.6339
  478MOL0     H63046   9.443   3.553   0.056 -1.6448 -0.3808  4.7612
  478MOL0     H63047   9.330   3.632   0.230 -1.2296  0.1834  0.5739
  478MOL0     H63048   9.193   3.634   0.136 -0.5403 -0.4877  2.7612
  478MOL0     H63049   9.146   3.874  -0.039 -1.4402 -0.8036  0.8231
  478MOL0     H63050   9.128   4.169  -0.029  2.4976  1.1405  1.2630
  478MOL0     H63051   9.099   4.237   0.134  0.5903 -1.7370  3.4305
  478MOL0     H63052   8.898   4.105   0.153  0.0444  1.1091  0.2412
  478MOL0     H63053   8.950   4.012   0.006 -1.0746  0.4550 -0.8195
  478MOL0     H63054   8.899   4.316  -0.001  0.9554  1.2897 -2.0028
  478MOL0     H63055   8.904   4.213  -0.139  3.1553  0.6915  1.1179
  478MOL0     H63056   8.708   4.222   0.088  1.7497  0.1949  0.9560
  478MOL0     H63057   8.705   4.089  -0.030  5.1924 -1.1567 -0.5610
  478MOL0     H63058   8.483   4.349  -0.289 -0.8406  0.0715  0.2273
  478MOL0     H63059   8.241   4.323  -0.299  0.7394 -1.3557 -1.6791
  478MOL0     H63060   7.919   4.052  -0.464 -2.2287 -0.8281 -0.4452
  478MOL0     H63061   7.700   3.983  -0.473 -0.3054  0.5474 -0.0459
  478MOL0     H63062   7.460   4.083  -0.507  0.6454  2.3577 -1.5189
  478MOL0     H63063   7.494   4.231  -0.434  1.6722 -0.9057  1.4127
  478MOL0     H63064   7.225   4.085  -0.356  0.2101 -0.9266  0.3508
  478MOL0     H63065   7.253   4.216  -0.480  2.6162  0.9144 -0.2610
  478MOL0     H63066   7.344   4.356  -0.294  2.0778 -0.9882  2.8383
  478MOL0     H63067   7.306   4.234  -0.178 -0.2272  2.0233 -0.2503
  478MOL0     H63068   7.106   4.381  -0.351  1.5879 -0.9558 -0.4915
  478MOL0     H63069   7.060   4.232  -0.265  0.7306 -0.9971 -0.9771
  478MOL0     H63070   7.181   4.478  -0.120  2.9913 -2.0074  4.5668
  478MOL0     H63071   7.123   4.329  -0.044 -0.5998  0.2927  0.6218
  478MOL0     H63072   6.885   4.366  -0.166  1.3431 -0.3303  1.5940
  478MOL0     H63073   6.936   4.520  -0.219 -0.1222  1.5263  1.0731
  478MOL0     H63074   6.940   4.419   0.075 -2.0812  0.4655  0.7677
  478MOL0     H63075   6.986   4.586   0.020 -0.6272  1.0290 -0.3159
  478MOL0     H63076   6.790   4.575   0.133  1.5071  1.3550 -0.4622
  478MOL0     H63077   6.715   4.455   0.025 -2.4138  2.4366 -2.7642
  478MOL0     H63078   7.603   4.207  -0.109 -2.2851 -0.6671 -1.4359
  478MOL0     H63079   7.840   4.260  -0.085 -0.1895 -0.5338 -0.2442
  478MOL0     H63080   8.266   4.037   0.034  1.0702 -0.6703  0.0065
  478MOL0     H63081   8.493   4.104   0.067 -1.4074  1.5069  0.8498
  478MOL0     H63082  10.228   3.933   0.211 -2.7854  0.0312 -0.0636
  478MOL0     H63083  10.407   3.915   0.394  1.6773  0.9624 -0.5816
  478MOL0     H63084  10.478   3.977   0.813 -0.6651  0.3358 -1.3622
  478MOL0     H63085  10.600   3.933   1.009  1.0626 -2.3090 -1.9070
  478MOL0     H63086  10.792   3.893   1.108  2.1321 -0.6572 -0.8734
  478MOL0     H63087  10.727   3.985   1.236  1.8620 -0.9158  2.2382
  478MOL0     H63088  10.932   3.874   1.295 -0.5955 -1.7038 -0.9951
  478MOL0     H63089  11.029   3.956   1.161  1.2020  0.4228  2.3638
  478MOL0     H63090  10.895   4.070   1.411  0.1106  0.2317 -0.5189
  478MOL0     H63091  10.984   4.167   1.299  0.4948 -0.0912  0.7941
  478MOL0     H63092  11.104   3.924   1.412  2.4638 -1.2710 -8.3628
  478MOL0     H63093  11.190   4.068   1.351 -0.2497  1.1618  1.7418
  478MOL0     H63094  11.123   4.229   1.724  0.7145  0.4501 -0.6608
  478MOL0     H63095  10.830   4.297   0.907  0.4206 -1.3714  0.4766
  478MOL0     H63096  10.674   4.347   0.740  0.0223 -0.8923 -1.1681
  479MOL0     O63097   3.511   6.725   0.050 -0.2984  0.2962  0.0111
  479MOL0     C63098   3.613   6.675   0.101  0.7476  0.4260 -0.2329
  479MOL0     O63099   3.611   6.575   0.192 -0.3529  0.1467  0.1332
  479MOL0     C63100   3.495   6.535   0.255  0.1644  0.7128 -0.6172
  479MOL0     C63101   3.501   6.403   0.302 -0.6877 -0.7718 -0.4969
  479MOL0     C63102   3.409   6.359   0.392 -0.1281  0.2229 -1.2760
  479MOL0     C63103   3.309   6.443   0.442 -0.1185 -0.3749  0.3983
  479MOL0     O63104   3.218   6.395   0.530  0.2964 -0.1067  0.2893
  479MOL0     C63105   3.085   6.433   0.522 -0.6029 -0.3123 -0.1743
  479MOL0     C63106   3.006   6.332   0.612 -0.3327 -1.3522  1.0702
  479MOL0     C63107   3.040   6.345   0.757 -0.5522  0.0709 -0.0302
  479MOL0     C63108   2.936   6.281   0.854  0.3682  0.2687  0.8251
  479MOL0     C63109   2.791   6.350   0.865  0.2036  0.6419  0.6445
  479MOL0     C63110   2.713   6.274   0.964  0.0385 -0.8757  0.5637
  479MOL0     C63111   2.579   6.340   0.975 -0.1528 -0.1580 -0.0952
  479MOL0     C63112   2.568   6.488   1.027  0.4301 -0.2530 -0.6619
  479MOL0     N63113   2.657   6.497   1.146  0.1782  0.4577  0.2054
  479MOL0     C63114   2.651   6.424   1.264 -0.7347  0.0923 -0.8243
  479MOL0     C63115   2.760   6.478   1.338  0.5121  0.3136 -0.0451
  479MOL0     C63116   2.822   6.420   1.458 -0.0350 -0.8959 -0.1777
  479MOL0     C63117   2.822   6.532   1.562 -0.3436  0.2662  0.0495
  479MOL0     C63118   2.914   6.484   1.680  0.4326  0.3900 -0.4567
  479MOL0     C63119   2.898   6.541   1.829 -0.7983 -0.6047 -0.8293
  479MOL0     O63120   3.015   6.509   1.917 -0.5848  0.3083  0.5920
  479MOL0     C63121   3.134   6.577   1.921 -0.2005 -0.0808  0.2817
  479MOL0     C63122   3.233   6.528   2.006 -0.4130  0.2126 -0.1690
  479MOL0     C63123   3.354   6.591   2.016 -0.7332 -0.2289 -0.1850
  479MOL0     C63124   3.389   6.704   1.931 -0.1098 -0.3534 -0.5432
  479MOL0     C63125   3.519   6.772   1.938 -0.0612  0.5873 -0.3078
  479MOL0     O63126   3.608   6.726   2.030 -0.1753  0.7580  0.7846
  479MOL0     C63127   3.734   6.778   2.026 -0.1683  0.4338 -0.3377
  479MOL0     C63128   3.825   6.761   1.919 -0.0328 -1.3015 -0.0331
  479MOL0     C63129   3.960   6.781   1.935 -0.3092 -0.0785 -0.9662
  479MOL0     C63130   4.015   6.844   2.056 -0.4588  0.2481 -0.3180
  479MOL0     O63131   4.148   6.884   2.067 -0.1773 -0.1646  0.1804
  479MOL0     C63132   4.221   6.880   1.939  0.3539  0.2816 -0.5659
  479MOL0     C63133   4.368   6.930   1.956 -0.1611 -0.1658 -0.9882
  479MOL0     C63134   4.453   6.917   1.834  0.3822 -0.8333 -0.4751
  479MOL0     C63135   4.588   6.980   1.861 -0.5319 -0.3537  0.0399
  479MOL0     C63136   4.694   6.974   1.751  0.5396  0.2967 -0.4105
  479MOL0     C63137   4.837   7.023   1.789  0.1649  0.4684 -0.3807
  479MOL0     C63138   4.914   7.073   1.662  0.0548 -0.4892  0.3208
  479MOL0     C63139   5.066   7.120   1.679  0.3783  0.1461 -0.4290
  479MOL0    Cl63140   5.090   7.233   1.814  0.0810  0.7296 -0.4286
  479MOL0     C63141   3.917   6.876   2.155 -0.0179  1.1005 -0.6208
  479MOL0     C63142   3.786   6.841   2.140  0.1424 -0.6058 -0.5196
  479MOL0     O63143   3.541   6.860   1.854 -0.8491 -0.7503 -0.1157
  479MOL0     C63144   3.287   6.745   1.850  0.0097 -0.1739  0.7653
  479MOL0     C63145   3.160   6.691   1.840 -0.8391  0.0674  0.0666
  479MOL0     N63146   2.819   6.577   1.259  0.6628  0.1003  0.0508
  479MOL0     N63147   2.767   6.585   1.145  0.5142  0.7659  0.5374
  479MOL0     C63148   3.298   6.574   0.388 -0.1710  0.1165 -0.2885
  479MOL0     C63149   3.392   6.617   0.297 -0.8816 -0.1772 -1.3806
  479MOL0     C63150   3.740   6.708   0.039  1.0020 -0.0630 -1.5419
  479MOL0     C63151   3.844   6.615   0.029  0.2464 -0.3601 -1.1167
  479MOL0     C63152   3.963   6.642  -0.036 -0.1351  0.4446  0.2620
  479MOL0     C63153   3.981   6.776  -0.076  0.9781  0.3086 -0.0131
  479MOL0     O63154   4.097   6.818  -0.128  0.2093  0.1333 -1.3594
  479MOL0     C63155   4.222   6.749  -0.099 -0.2816 -0.4448  0.9409
  479MOL0     C63156   4.339   6.846  -0.130  0.0403  0.5816 -0.3347
  479MOL0     C63157   4.472   6.776  -0.096 -0.2318 -0.0760  0.6543
  479MOL0     C63158   4.520   6.678  -0.205  0.2111 -0.8656 -0.6115
  479MOL0     C63159   4.579   6.743  -0.321 -0.1219 -0.0028 -0.1203
  479MOL0     C63160   4.632   6.790  -0.419  0.0760  0.1850  0.2320
  479MOL0     C63161   3.872   6.866  -0.070  0.2803 -0.0459  0.3404
  479MOL0     C63162   3.754   6.831  -0.014  0.2262 -0.3178 -0.3898
  479MOL0     H63163   3.584   6.340   0.273  0.1739 -1.9803  3.9277
  479MOL0     H63164   3.403   6.258   0.432 -1.4460  0.3478 -1.1024
  479MOL0     H63165   3.044   6.430   0.421  1.6008 -1.8352 -1.0966
  479MOL0     H63166   3.075   6.532   0.568  4.1236 -0.1643  1.0112
  479MOL0     H63167   3.031   6.233   0.571  0.9934  0.2840 -2.4874
  479MOL0     H63168   2.902   6.358   0.591  0.4593  0.7246 -0.5998
  479MOL0     H63169   3.050   6.452   0.778  0.2328 -0.3004  1.6267
  479MOL0     H63170   3.139   6.299   0.769  0.4686  1.6175 -1.8135
  479MOL0     H63171   2.918   6.183   0.810 -0.9014  0.5268  0.7096
  479MOL0     H63172   2.981   6.270   0.953  1.2071  1.9736  0.6666
  479MOL0     H63173   2.746   6.342   0.766  0.5017 -0.1868  0.5655
  479MOL0     H63174   2.800   6.456   0.891  1.3089  0.3284  1.6446
  479MOL0     H63175   2.762   6.274   1.062 -0.4141  1.4531  0.8438
  479MOL0     H63176   2.712   6.170   0.929  2.0882 -0.3379 -1.3599
  479MOL0     H63177   2.532   6.326   0.877 -1.1318  0.2015  0.3062
  479MOL0     H63178   2.524   6.285   1.052 -0.6388 -1.6438 -1.4482
  479MOL0     H63179   2.463   6.510   1.050  1.1119  0.3930  2.2038
  479MOL0     H63180   2.590   6.565   0.952 -0.6133  0.5437 -0.1652
  479MOL0     H63181   2.596   6.335   1.289  0.8583  0.2081  4.3657
  479MOL0     H63182   2.924   6.394   1.428 -0.5457  2.5633 -7.1061
  479MOL0     H63183   2.768   6.336   1.502  0.0894  0.0611  1.9426
  479MOL0     H63184   2.724   6.552   1.607 -1.1631 -1.6895 -0.7389
  479MOL0     H63185   2.863   6.624   1.520 -0.4256  1.7077  2.8868
  479MOL0     H63186   2.900   6.376   1.685 -1.9193  0.5929 -1.2427
  479MOL0     H63187   3.018   6.501   1.651  1.0670 -0.1069  1.3902
  479MOL0     H63188   2.810   6.497   1.876 -1.2187  0.4646 -0.5855
  479MOL0     H63189   2.880   6.649   1.833  0.1736 -0.4856  1.2182
  479MOL0     H63190   3.220   6.447   2.077 -0.6602  0.6067  0.2415
  479MOL0     H63191   3.432   6.558   2.084  1.3986  2.1556 -1.3063
  479MOL0     H63192   3.773   6.716   1.834  0.6390  1.5170 -2.0796
  479MOL0     H63193   4.029   6.760   1.853  0.4778 -1.0480 -0.0847
  479MOL0     H63194   4.177   6.948   1.866  0.5335 -0.5815 -1.4933
  479MOL0     H63195   4.233   6.777   1.905  1.8831  0.8253 -1.7998
  479MOL0     H63196   4.418   6.891   2.046  0.6027  3.6898  0.4445
  479MOL0     H63197   4.356   7.036   1.978  0.8082 -0.0019 -1.2158
  479MOL0     H63198   4.402   6.965   1.750  1.1250 -0.8885 -0.9690
  479MOL0     H63199   4.463   6.813   1.802 -0.4916 -0.3946 -2.3285
  479MOL0     H63200   4.569   7.085   1.885 -0.4110 -0.3234 -0.0009
  479MOL0     H63201   4.635   6.936   1.949  0.7475  1.6212  0.3917
  479MOL0     H63202   4.660   7.049   1.679 -0.8287  0.8178  0.7371
  479MOL0     H63203   4.700   6.875   1.707 -0.1217  0.4162 -0.7775
  479MOL0     H63204   4.887   6.943   1.844  1.1732 -0.0050 -1.9115
  479MOL0     H63205   4.835   7.103   1.864  1.0438 -0.3876  0.5873
  479MOL0     H63206   4.910   7.001   1.580  3.0035 -0.8760  0.4038
  479MOL0     H63207   4.860   7.163   1.633 -0.4943 -1.0000 -0.2614
  479MOL0     H63208   5.098   7.161   1.583 -0.4766 -0.4736 -0.9897
  479MOL0     H63209   5.125   7.030   1.700 -0.8791  0.0937  3.7849
  479MOL0     H63210   3.961   6.918   2.245  1.0888  0.3723 -0.7963
  479MOL0     H63211   3.713   6.853   2.219  0.7852 -0.0743 -0.0061
  479MOL0     H63212   3.297   6.830   1.784  2.1584 -0.2878  0.8609
  479MOL0     H63213   3.085   6.730   1.771  0.7855  0.7520 -1.3879
  479MOL0     H63214   3.225   6.646   0.422 -0.0163  0.2797 -0.2981
  479MOL0     H63215   3.383   6.717   0.257  2.7053 -0.8860 -4.6073
  479MOL0     H63216   3.833   6.516   0.073  2.1267 -2.1095 -4.1551
  479MOL0     H63217   4.040   6.566  -0.029  3.7936  4.0201  0.0963
  479MOL0     H63218   4.230   6.661  -0.164  0.0606  1.2964 -1.5150
  479MOL0     H63219   4.226   6.720   0.006  1.6659 -0.3946  0.9104
  479MOL0     H63220   4.350   6.864  -0.238  2.3695 -0.4612 -0.3341
  479MOL0     H63221   4.319   6.937  -0.072  1.2413  0.4522  0.3033
  479MOL0     H63222   4.470   6.724  -0.000 -0.5496 -3.2396 -0.9424
  479MOL0     H63223   4.551   6.852  -0.092  0.0635 -0.2218 -1.4047
  479MOL0     H63224   4.600   6.616  -0.162 -0.2673 -1.3837 -0.4605
  479MOL0     H63225   4.428   6.624  -0.229 -0.5823  0.3314 -0.3615
  479MOL0     H63226   4.689   6.824  -0.503  2.4822  0.3344  1.8213
  479MOL0     H63227   3.895   6.967  -0.104 -1.8137  0.3852  0.0624
  479MOL0     H63228   3.678   6.908  -0.004 -1.1431 -1.8349  1.6205
  480MOL0     O63229   0.343   3.941   4.973  0.0484  0.9212  0.4987
  480MOL0     C63230   0.446   3.873   5.009  0.6375  0.0205 -0.1502
  480MOL0     O63231   0.433   3.746   5.064  0.3902  0.0113 -0.4976
  480MOL0     C63232   0.309   3.686   5.075 -0.0945 -0.0355 -0.4843
  480MOL0     C63233   0.205   3.688   4.969 -1.2063  0.5326  0.1110
  480MOL0     C63234   0.083   3.625   4.990 -0.7221  0.8590 -0.0255
  480MOL0     C63235   0.054   3.555   5.105 -0.4650  0.5696  0.7944
  480MOL0     O63236  -0.073   3.514   5.122 -0.1286  0.1751 -1.2834
  480MOL0     C63237  -0.090   3.384   5.185  0.5475 -0.5959  0.5867
  480MOL0     C63238  -0.221   3.302   5.160 -0.1163 -0.0319 -0.1088
  480MOL0     C63239  -0.342   3.385   5.176 -0.2643  1.5032  0.9779
  480MOL0     C63240  -0.474   3.303   5.160 -0.0245  0.1162  0.3522
  480MOL0     C63241  -0.595   3.384   5.209  0.0125  0.0286 -0.1487
  480MOL0     C63242  -0.715   3.281   5.208 -0.4073 -0.1427  0.7917
  480MOL0     C63243  -0.840   3.349   5.252 -0.0013  0.0673 -0.5782
  480MOL0     C63244  -0.961   3.245   5.237 -0.2538 -0.0794 -0.0870
  480MOL0     N63245  -1.097   3.315   5.255  0.0372 -0.1114  0.2041
  480MOL0     C63246  -1.137   3.441   5.221 -1.6482  0.9842  0.3661
  480MOL0     C63247  -1.257   3.456   5.280  0.4730  0.1630 -0.1028
  480MOL0     C63248  -1.340   3.588   5.285  0.6899  0.1348 -0.2820
  480MOL0     C63249  -1.377   3.629   5.141  0.4672 -0.9475  0.1947
  480MOL0     C63250  -1.446   3.768   5.142  0.0017  0.3509  0.4878
  480MOL0     C63251  -1.573   3.756   5.220  0.1150  0.4856 -0.1929
  480MOL0     O63252  -1.678   3.712   5.131 -0.7565  0.1132  0.6520
  480MOL0     C63253  -1.785   3.642   5.172 -0.4364  1.1409 -0.0406
  480MOL0     C63254  -1.841   3.649   5.306 -0.8909 -0.5507 -0.2701
  480MOL0     C63255  -1.941   3.568   5.343 -0.3923  0.5965 -0.0963
  480MOL0     C63256  -2.013   3.485   5.247 -0.6723  0.6109 -0.5359
  480MOL0     C63257  -2.132   3.407   5.285  0.5158 -0.1219  0.9132
  480MOL0     O63258  -2.174   3.322   5.186 -0.1183  0.9308 -0.2058
  480MOL0     C63259  -2.285   3.247   5.205  0.6772 -0.6742  0.3869
  480MOL0     C63260  -2.403   3.271   5.126 -0.3882 -0.4460  0.5092
  480MOL0     C63261  -2.513   3.191   5.146  0.3455  0.0892 -0.0713
  480MOL0     C63262  -2.519   3.091   5.248 -0.3944 -0.0385  0.2754
  480MOL0     O63263  -2.632   3.015   5.279 -0.4457  0.3303  0.0058
  480MOL0     C63264  -2.735   3.018   5.184 -0.8129  1.0937  0.8766
  480MOL0     C63265  -2.859   2.955   5.243  0.1448 -0.4118  0.5426
  480MOL0     C63266  -2.979   2.973   5.149 -0.4061  0.1711 -0.6180
  480MOL0     C63267  -3.100   2.893   5.200 -0.0658  0.1451 -1.4722
  480MOL0     C63268  -3.214   2.888   5.103 -0.2645  0.3154 -0.4679
  480MOL0     C63269  -3.341   2.839   5.180 -0.1827  0.1999 -0.0822
  480MOL0     C63270  -3.464   2.889   5.107  0.8047 -0.1420  0.6278
  480MOL0     C63271  -3.475   2.792   4.985 -0.1120 -0.1752  0.6185
  480MOL0    Cl63272  -3.616   2.859   4.893  0.0458  0.4567  0.1555
  480MOL0     C63273  -2.410   3.080   5.336 -0.2236 -0.1559  0.4134
  480MOL0     C63274  -2.296   3.150   5.311 -0.2577  0.1928  0.3231
  480MOL0     O63275  -2.171   3.413   5.398  0.1947  0.0397  0.1980
  480MOL0     C63276  -1.961   3.483   5.117  0.7476  0.2713  0.5549
  480MOL0     C63277  -1.851   3.553   5.083 -1.1986 -0.1129  1.2817
  480MOL0     N63278  -1.299   3.334   5.328  0.2433  0.4719 -0.8340
  480MOL0     N63279  -1.198   3.250   5.320  0.1037  0.0669  0.8146
  480MOL0     C63280   0.153   3.547   5.209 -0.3836  0.2322 -0.2352
  480MOL0     C63281   0.284   3.605   5.183  0.6752  0.4946 -0.6129
  480MOL0     C63282   0.582   3.924   5.009 -0.4835  0.7510 -0.6207
  480MOL0     C63283   0.607   4.019   4.918  0.2645 -0.3233  0.3341
  480MOL0     C63284   0.738   4.077   4.902 -0.1353  0.4688 -0.0381
  480MOL0     C63285   0.845   4.015   4.976 -0.5377 -0.5028 -0.2592
  480MOL0     O63286   0.977   4.066   4.980 -0.1887 -0.6277 -0.2041
  480MOL0     C63287   1.013   4.168   4.885  0.2831 -0.7867  0.6723
  480MOL0     C63288   1.151   4.220   4.916  0.3961 -0.2683 -0.4376
  480MOL0     C63289   1.255   4.120   4.969  0.1889  0.8773  0.3633
  480MOL0     C63290   1.398   4.170   4.956 -0.8064 -0.5183  0.4713
  480MOL0     C63291   1.497   4.085   5.034 -1.1829 -0.6846  0.2927
  480MOL0     C63292   1.578   4.008   5.079  0.8033  1.0350 -0.4588
  480MOL0     C63293   0.816   3.922   5.071 -0.0945 -0.6608  0.6768
  480MOL0     C63294   0.687   3.880   5.094 -0.0477  1.3103  0.1015
  480MOL0     H63295   0.220   3.741   4.876 -0.4588  1.7972  0.9246
  480MOL0     H63296   0.013   3.653   4.912 -0.0412  0.5885 -0.7491
  480MOL0     H63297  -0.102   3.398   5.293 -1.5546 -4.5831  1.0784
  480MOL0     H63298  -0.003   3.319   5.175  0.6480 -0.6741  1.7943
  480MOL0     H63299  -0.230   3.211   5.221  0.6443 -0.3140 -0.4025
  480MOL0     H63300  -0.222   3.272   5.055  0.9539 -0.7144  0.0612
  480MOL0     H63301  -0.342   3.469   5.107 -1.0724  0.6192 -0.1314
  480MOL0     H63302  -0.339   3.434   5.274  0.4203  2.0081  0.7098
  480MOL0     H63303  -0.484   3.289   5.052 -1.2210  0.4284  0.4014
  480MOL0     H63304  -0.460   3.204   5.206 -1.8213 -0.2641  0.1578
  480MOL0     H63305  -0.613   3.475   5.151  2.3507  0.5727 -0.0846
  480MOL0     H63306  -0.580   3.404   5.315  0.6937  1.3136 -0.4791
  480MOL0     H63307  -0.690   3.192   5.266  1.8126  0.3124  0.6027
  480MOL0     H63308  -0.732   3.243   5.107 -1.8583 -0.2539  1.0456
  480MOL0     H63309  -0.825   3.378   5.357  4.5932 -1.1291 -0.7100
  480MOL0     H63310  -0.860   3.430   5.181 -1.9148 -0.5581 -0.8156
  480MOL0     H63311  -0.945   3.162   5.307 -0.7874  0.6841  0.9689
  480MOL0     H63312  -0.951   3.199   5.138  0.9560 -1.4484  0.6352
  480MOL0     H63313  -1.075   3.517   5.174  0.6824 -0.6451  0.6068
  480MOL0     H63314  -1.282   3.668   5.333 -1.2401  1.9892 -0.9236
  480MOL0     H63315  -1.424   3.566   5.351  1.2002 -2.5301 -0.4099
  480MOL0     H63316  -1.443   3.552   5.098 -0.5124  1.1466 -2.3013
  480MOL0     H63317  -1.284   3.626   5.085  2.5646 -2.8444  3.4264
  480MOL0     H63318  -1.381   3.842   5.189  0.1330 -1.7341  3.9497
  480MOL0     H63319  -1.476   3.804   5.043 -1.1595 -0.7345  0.4210
  480MOL0     H63320  -1.597   3.860   5.245  3.9880  1.7344 -1.0789
  480MOL0     H63321  -1.571   3.694   5.310  0.7586 -0.1287 -0.6178
  480MOL0     H63322  -1.807   3.725   5.376 -0.9147  0.0696 -0.9269
  480MOL0     H63323  -1.980   3.577   5.444 -1.6967  0.5808 -0.5812
  480MOL0     H63324  -2.403   3.350   5.051 -2.8142  1.3155  2.2260
  480MOL0     H63325  -2.595   3.206   5.076  0.8306  0.6033 -0.5490
  480MOL0     H63326  -2.707   2.946   5.106 -0.3961 -0.4123  2.3619
  480MOL0     H63327  -2.766   3.115   5.144  0.4732  0.5480 -1.6587
  480MOL0     H63328  -2.884   3.002   5.339 -0.5384  0.8320 -0.2159
  480MOL0     H63329  -2.847   2.849   5.267 -0.0830 -0.4434  0.5190
  480MOL0     H63330  -2.949   2.939   5.049  1.4060  0.0067 -0.0661
  480MOL0     H63331  -3.005   3.078   5.137 -2.9228 -0.2000  0.9433
  480MOL0     H63332  -3.071   2.789   5.220 -3.4828 -1.3612 -3.4282
  480MOL0     H63333  -3.136   2.942   5.291 -0.0152 -1.4057 -0.5836
  480MOL0     H63334  -3.185   2.814   5.027  3.9536  0.6086  0.6412
  480MOL0     H63335  -3.230   2.985   5.055  0.7156  0.8636  0.2775
  480MOL0     H63336  -3.344   2.878   5.282  1.8630  0.5230 -0.1172
  480MOL0     H63337  -3.337   2.729   5.186  2.6202  0.2572  0.4900
  480MOL0     H63338  -3.555   2.870   5.165 -0.8799 -2.1092 -2.3940
  480MOL0     H63339  -3.451   2.993   5.075 -0.7051  0.0566  0.5785
  480MOL0     H63340  -3.483   2.685   5.007 -0.7329 -0.0005  1.3067
  480MOL0     H63341  -3.388   2.809   4.921  0.3422 -1.8643  0.7359
  480MOL0     H63342  -2.421   3.018   5.424 -0.6190 -0.6438  0.0276
  480MOL0     H63343  -2.215   3.143   5.382 -0.7488  2.7847  1.2424
  480MOL0     H63344  -2.009   3.415   5.047 -0.5368  0.7600  0.9277
  480MOL0     H63345  -1.816   3.569   4.981 -0.0034  2.3791  1.9849
  480MOL0     H63346   0.131   3.497   5.303  0.1766  2.0503  0.9027
  480MOL0     H63347   0.361   3.590   5.258 -0.9383  1.0877  1.2508
  480MOL0     H63348   0.524   4.050   4.856  0.6161 -2.3845 -1.2914
  480MOL0     H63349   0.753   4.149   4.823 -2.6148 -2.1659 -3.1877
  480MOL0     H63350   0.946   4.254   4.882  1.4850  0.1526 -0.6533
  480MOL0     H63351   1.020   4.121   4.787  1.2119  1.2312 -0.2768
  480MOL0     H63352   1.182   4.285   4.834  1.7156 -0.4300 -0.0856
  480MOL0     H63353   1.139   4.292   4.997 -1.0581  0.3533 -1.1723
  480MOL0     H63354   1.242   4.032   4.904  0.9910  1.5851 -0.7680
  480MOL0     H63355   1.232   4.108   5.076  0.1654  1.3881  0.4149
  480MOL0     H63356   1.442   4.190   4.857 -1.3098 -0.3368  0.2779
  480MOL0     H63357   1.397   4.271   4.998  2.5834 -0.1678  0.0022
  480MOL0     H63358   1.651   3.936   5.110 -0.5211 -0.5843 -0.9469
  480MOL0     H63359   0.893   3.885   5.137  2.6062 -0.0022 -1.9163
  480MOL0     H63360   0.664   3.808   5.171 -1.2359 -0.4715 -1.8264
  481MOL0     O63361   9.795   6.168   4.235 -0.5113 -0.6085 -0.0609
  481MOL0     C63362   9.857   6.069   4.209 -0.5805  0.3560 -0.8027
  481MOL0     O63363   9.811   5.953   4.155  0.0012 -0.3512  0.3926
  481MOL0     C63364   9.676   5.936   4.132  1.2033  0.5057 -0.1591
  481MOL0     C63365   9.565   6.010   4.164  1.0635  0.2243 -0.1154
  481MOL0     C63366   9.437   5.976   4.117 -1.2011 -0.6419 -0.1194
  481MOL0     C63367   9.413   5.858   4.044  0.1698 -0.6839 -0.2949
  481MOL0     O63368   9.288   5.811   4.021  0.2297  0.0962 -0.0728
  481MOL0     C63369   9.260   5.714   3.920  0.3780 -0.5594 -0.0905
  481MOL0     C63370   9.108   5.697   3.928 -0.0471 -0.3195  0.5958
  481MOL0     C63371   9.068   5.599   3.819 -0.0150 -0.2080 -0.4454
  481MOL0     C63372   8.925   5.559   3.852  0.0905  0.0512  0.7659
  481MOL0     C63373   8.887   5.450   3.748  0.1944 -0.3442  0.2548
  481MOL0     C63374   8.758   5.384   3.775 -0.0087 -1.1535  0.1911
  481MOL0     C63375   8.635   5.476   3.732 -1.4629  0.5215 -0.0321
  481MOL0     C63376   8.505   5.405   3.760  0.3565 -0.3781  0.9304
  481MOL0     N63377   8.397   5.499   3.744  0.3960  0.0034 -1.1117
  481MOL0     C63378   8.373   5.606   3.826  0.5394 -0.2623  0.5439
  481MOL0     C63379   8.296   5.683   3.753  0.0529 -0.2297 -0.3796
  481MOL0     C63380   8.270   5.823   3.782  0.0358  0.6205 -0.5114
  481MOL0     C63381   8.324   5.933   3.675  0.0008 -0.6046 -0.2962
  481MOL0     C63382   8.470   5.982   3.707 -0.2254  0.1983 -0.1288
  481MOL0     C63383   8.574   5.877   3.738 -0.0369  0.2257  0.1881
  481MOL0     O63384   8.581   5.831   3.880 -0.1117  0.2837  0.5922
  481MOL0     C63385   8.695   5.862   3.951 -0.5268 -0.9840  0.3391
  481MOL0     C63386   8.748   5.772   4.040  0.1761 -0.3951 -0.2348
  481MOL0     C63387   8.858   5.812   4.124 -1.1153 -0.0445 -0.7433
  481MOL0     C63388   8.915   5.940   4.119 -0.4969 -0.4992 -0.6900
  481MOL0     C63389   9.035   5.973   4.191  0.5670 -0.9731  0.4673
  481MOL0     O63390   9.074   5.883   4.286  0.6196  0.7551 -0.3224
  481MOL0     C63391   9.180   5.903   4.363  0.1458  0.1392 -0.0187
  481MOL0     C63392   9.179   6.006   4.462 -0.3843  0.2426  0.0937
  481MOL0     C63393   9.285   6.026   4.543  0.5853  1.1490 -0.8279
  481MOL0     C63394   9.400   5.948   4.536  1.2525 -0.3555  0.3187
  481MOL0     O63395   9.500   5.962   4.625 -0.4076  0.2458 -0.0736
  481MOL0     C63396   9.631   5.927   4.584  0.0019 -0.0113  0.6762
  481MOL0     C63397   9.736   5.984   4.679  0.0824 -0.1429 -0.6642
  481MOL0     C63398   9.873   5.955   4.629 -0.0066  0.1721 -0.2301
  481MOL0     C63399   9.965   6.010   4.738 -0.1713  0.1702  0.1357
  481MOL0     C63400  10.115   5.983   4.705  0.1974  0.4843 -0.1517
  481MOL0     C63401  10.193   5.996   4.841 -0.4922  0.8378  0.3883
  481MOL0     C63402  10.347   5.979   4.808  0.7027  0.1657 -0.0818
  481MOL0     C63403  10.423   6.008   4.929 -1.1342 -1.0717  0.0949
  481MOL0    Cl63404  10.606   5.993   4.884  0.8378 -0.4009 -0.1182
  481MOL0     C63405   9.400   5.845   4.442 -0.2496 -0.3097  0.1703
  481MOL0     C63406   9.288   5.819   4.355  0.0340 -0.2640 -0.0010
  481MOL0     O63407   9.095   6.077   4.160  0.7664 -0.1841 -0.4426
  481MOL0     C63408   8.856   6.030   4.028 -0.0355 -0.0379 -0.4443
  481MOL0     C63409   8.747   5.995   3.947  0.0675  0.1795  0.0580
  481MOL0     N63410   8.260   5.611   3.641  0.1398  1.1704  0.0232
  481MOL0     N63411   8.319   5.499   3.631  0.1437  0.5949 -0.0485
  481MOL0     C63412   9.526   5.778   4.016 -0.0174 -0.1536 -0.9832
  481MOL0     C63413   9.655   5.817   4.056  0.0316  0.5862 -0.6528
  481MOL0     C63414  10.000   6.082   4.245  0.2201  1.2194 -0.4132
  481MOL0     C63415  10.046   6.191   4.317  0.7257 -0.5827  0.3515
  481MOL0     C63416  10.182   6.206   4.335  0.0486 -0.8114 -0.7438
  481MOL0     C63417  10.276   6.104   4.314 -0.4423  0.1412 -0.9043
  481MOL0     O63418  10.406   6.129   4.341 -0.6565 -0.0330 -0.2533
  481MOL0     C63419  10.493   6.019   4.377 -0.2398  0.1647 -0.3869
  481MOL0     C63420  10.624   6.070   4.435 -0.4266  0.0533 -0.8930
  481MOL0     C63421  10.611   6.158   4.559 -1.1585 -0.5349 -0.3023
  481MOL0     C63422  10.743   6.209   4.623 -0.8300  0.1112  0.1931
  481MOL0     C63423  10.828   6.099   4.668  0.0957 -0.2676  0.4120
  481MOL0     C63424  10.897   6.007   4.714 -0.5733  0.4466  0.3545
  481MOL0     C63425  10.226   5.982   4.261  0.4005 -0.3287 -0.2555
  481MOL0     C63426  10.087   5.980   4.226  0.3615 -0.5642  1.0071
  481MOL0     H63427   9.574   6.094   4.233 -0.2553 -0.5874  1.1029
  481MOL0     H63428   9.355   6.045   4.134 -0.4698  0.9394 -2.4504
  481MOL0     H63429   9.317   5.622   3.935  1.2130 -0.3286 -1.6206
  481MOL0     H63430   9.285   5.738   3.816  1.2443 -2.8472 -0.4644
  481MOL0     H63431   9.067   5.794   3.898 -0.5576 -1.3206 -2.2915
  481MOL0     H63432   9.071   5.660   4.024  2.2874  1.0440  2.1401
  481MOL0     H63433   9.129   5.508   3.828 -1.0618 -1.0549 -1.5317
  481MOL0     H63434   9.081   5.650   3.723 -0.2118  2.5797  0.9181
  481MOL0     H63435   8.909   5.514   3.951 -1.9386 -3.0919 -0.8192
  481MOL0     H63436   8.859   5.644   3.834  2.0735  1.7390  1.0312
  481MOL0     H63437   8.962   5.370   3.739  1.2841  0.8141 -1.4845
  481MOL0     H63438   8.872   5.489   3.647  0.6816 -0.4287  0.1441
  481MOL0     H63439   8.763   5.367   3.883 -0.8247  1.5557  0.7157
  481MOL0     H63440   8.733   5.295   3.716 -5.9959 -1.7457  2.9281
  481MOL0     H63441   8.643   5.567   3.793  1.4439  0.0803  0.3776
  481MOL0     H63442   8.654   5.498   3.627  0.7669  2.1115  0.6571
  481MOL0     H63443   8.516   5.365   3.861  2.2213  0.8125  1.2530
  481MOL0     H63444   8.497   5.332   3.680 -0.8981  0.6327  0.0906
  481MOL0     H63445   8.415   5.633   3.922  0.8167  1.5674 -0.0523
  481MOL0     H63446   8.320   5.853   3.874 -0.0206 -1.1938  0.1570
  481MOL0     H63447   8.167   5.838   3.818  1.4723  0.2838  4.5609
  481MOL0     H63448   8.264   6.023   3.690  1.9047  0.5819  0.6503
  481MOL0     H63449   8.315   5.892   3.574  2.1552  1.0180 -1.2153
  481MOL0     H63450   8.508   6.018   3.611 -2.0425 -0.3499 -1.1019
  481MOL0     H63451   8.466   6.062   3.781 -0.5690  0.8266 -0.8171
  481MOL0     H63452   8.670   5.924   3.713  1.1566 -1.0290  2.1637
  481MOL0     H63453   8.575   5.784   3.679  0.2066  0.8373 -0.7910
  481MOL0     H63454   8.724   5.667   4.027  3.2617 -1.1031 -1.1017
  481MOL0     H63455   8.894   5.731   4.186  1.1578  1.7904  0.4704
  481MOL0     H63456   9.090   6.066   4.473  1.5554  4.1222 -2.8505
  481MOL0     H63457   9.278   6.104   4.618  1.4180 -0.0523  0.5724
  481MOL0     H63458   9.659   5.974   4.489  3.6617 -0.4889  1.3716
  481MOL0     H63459   9.651   5.820   4.588  0.9386  0.1712  3.4794
  481MOL0     H63460   9.727   5.941   4.779 -2.7080  0.4830 -0.5657
  481MOL0     H63461   9.729   6.093   4.680 -0.9102 -0.2017  0.3660
  481MOL0     H63462   9.887   6.009   4.535  1.0084 -1.7551 -1.2418
  481MOL0     H63463   9.881   5.848   4.609 -1.7590  0.1665 -1.0404
  481MOL0     H63464   9.952   6.118   4.746 -1.9972  0.0340 -0.5014
  481MOL0     H63465   9.939   5.966   4.835 -0.1427  2.6381  1.3549
  481MOL0     H63466  10.155   6.067   4.648 -0.4000 -0.1863 -1.6066
  481MOL0     H63467  10.126   5.893   4.643  0.8754  0.3469  0.1576
  481MOL0     H63468  10.171   5.916   4.912 -2.9034 -2.0852 -3.2377
  481MOL0     H63469  10.170   6.097   4.876  0.8660  1.4491 -0.4086
  481MOL0     H63470  10.377   5.880   4.772  0.8706  0.1964 -0.0273
  481MOL0     H63471  10.373   6.056   4.735  1.4599  2.0915  2.0835
  481MOL0     H63472  10.408   5.927   5.001 -0.5367 -0.1806  1.2498
  481MOL0     H63473  10.406   6.107   4.973  3.0749 -0.5874  1.0803
  481MOL0     H63474   9.484   5.776   4.440 -1.2309 -1.5393  0.6969
  481MOL0     H63475   9.292   5.742   4.279 -2.3656  0.3381 -0.8269
  481MOL0     H63476   8.903   6.128   4.028  1.5046 -0.7041 -2.5787
  481MOL0     H63477   8.708   6.071   3.881  0.8789  1.2032  0.7102
  481MOL0     H63478   9.526   5.678   3.972 -1.5367 -0.8699  0.5747
  481MOL0     H63479   9.738   5.748   4.050 -0.5136 -0.3536  1.5681
  481MOL0     H63480   9.985   6.280   4.324  0.8056 -0.6637  3.9164
  481MOL0     H63481  10.209   6.302   4.379 -2.8708 -0.2515 -0.0086
  481MOL0     H63482  10.513   5.945   4.299 -1.8369  0.5352 -1.1821
  481MOL0     H63483  10.431   5.971   4.453 -0.2063 -0.2201 -0.6006
  481MOL0     H63484  10.686   5.983   4.459 -0.0761 -0.4608 -3.4114
  481MOL0     H63485  10.676   6.130   4.359  0.7226 -2.3512 -2.1430
  481MOL0     H63486  10.556   6.088   4.623 -3.5228  0.1977 -1.4223
  481MOL0     H63487  10.547   6.245   4.541 -0.0227  0.2988 -0.3856
  481MOL0     H63488  10.796   6.264   4.545 -1.2281 -0.1858 -0.2953
  481MOL0     H63489  10.719   6.281   4.702 -3.6224 -1.7553  1.2078
  481MOL0     H63490  10.966   5.938   4.759 -2.0353 -0.6618  1.0123
  481MOL0     H63491  10.292   5.904   4.227  1.7308  0.7077 -0.1519
  481MOL0     H63492  10.048   5.890   4.180 -0.9165  0.8571 -0.8376
  482MOL0     O63493   8.344   9.837   8.884 -0.0005  0.0186  1.0328
  482MOL0     C63494   8.371   9.776   8.776 -0.0753 -0.1490 -0.1545
  482MOL0     O63495   8.470   9.803   8.685  0.1125  0.3609  0.4947
  482MOL0     C63496   8.590   9.854   8.730 -0.1857  0.3319  0.3967
  482MOL0     C63497   8.653   9.958   8.664 -0.0861  0.0343 -0.5111
  482MOL0     C63498   8.783   9.998   8.710  0.0985  0.1316  0.2809
  482MOL0     C63499   8.829   9.950   8.832 -0.7321  0.0723 -0.1416
  482MOL0     O63500   8.940  10.001   8.890  0.2911  0.2334 -0.3050
  482MOL0     C63501   9.069   9.942   8.857  0.0310 -0.8596 -0.1960
  482MOL0     C63502   9.189  10.030   8.898 -0.2769 -0.5625 -0.3390
  482MOL0     C63503   9.321   9.958   8.861 -0.1830  0.1855  0.0966
  482MOL0     C63504   9.431  10.060   8.859 -0.5708  0.4235 -0.6726
  482MOL0     C63505   9.572  10.006   8.837  0.2230  0.9076 -0.8446
  482MOL0     C63506   9.596   9.931   8.709 -0.6518 -0.5163 -0.4094
  482MOL0     C63507   9.753   9.899   8.682  0.1577  0.2381 -0.0498
  482MOL0     C63508   9.834   9.999   8.598 -0.0146 -0.4570  0.8275
  482MOL0     N63509   9.969   9.965   8.586  0.0379  0.3343 -0.4309
  482MOL0     C63510  10.024   9.838   8.571  0.0895 -0.8770  0.0623
  482MOL0     C63511  10.160   9.847   8.587  0.0960 -1.1445 -0.2602
  482MOL0     C63512  10.277   9.755   8.585 -0.3726 -0.0078  0.4685
  482MOL0     C63513  10.276   9.627   8.686  1.0301 -0.5528 -0.0016
  482MOL0     C63514  10.263   9.651   8.832  0.2758  0.1130  0.0168
  482MOL0     C63515  10.129   9.683   8.875 -0.8633  0.1557  0.5914
  482MOL0     O63516  10.039   9.589   8.831  0.0371 -0.3219 -0.0229
  482MOL0     C63517   9.906   9.610   8.839  0.1046 -0.0058  1.2269
  482MOL0     C63518   9.828   9.541   8.745 -0.0435 -0.1301 -1.1721
  482MOL0     C63519   9.699   9.538   8.751  0.1265 -0.4297  0.3675
  482MOL0     C63520   9.628   9.596   8.852  0.9256  0.3287 -0.4949
  482MOL0     C63521   9.478   9.571   8.872 -0.2606 -0.3325 -0.3234
  482MOL0     O63522   9.423   9.621   8.985  0.4080 -0.4722  0.0656
  482MOL0     C63523   9.311   9.566   9.035 -1.2923  0.6917 -0.6472
  482MOL0     C63524   9.330   9.481   9.145 -0.5865  0.1091  0.7104
  482MOL0     C63525   9.226   9.415   9.201  0.0835 -0.2404  0.0977
  482MOL0     C63526   9.092   9.434   9.158  0.4061 -0.1955 -0.1446
  482MOL0     O63527   8.994   9.374   9.229 -0.0935  0.7841 -0.0791
  482MOL0     C63528   8.864   9.389   9.175  1.1569 -0.3792  0.2242
  482MOL0     C63529   8.765   9.295   9.254  0.0490 -0.2400  0.2204
  482MOL0     C63530   8.640   9.266   9.181 -0.8495 -0.0694 -0.4936
  482MOL0     C63531   8.542   9.185   9.259  0.3117  0.9198 -0.4595
  482MOL0     C63532   8.393   9.195   9.212  0.1353  0.0162  0.4838
  482MOL0     C63533   8.315   9.073   9.275  0.5235  0.9935  0.2640
  482MOL0     C63534   8.163   9.086   9.236 -0.9055 -0.7818  0.6879
  482MOL0     C63535   8.084   8.995   9.330 -1.0764  0.2217 -1.0006
  482MOL0    Cl63536   7.908   9.019   9.330  0.1010  0.1366  0.5384
  482MOL0     C63537   9.069   9.530   9.053  0.1535  0.0796 -0.2677
  482MOL0     C63538   9.178   9.593   8.991 -0.5750  0.9357 -0.8150
  482MOL0     O63539   9.420   9.494   8.792  0.0772 -0.1257 -0.1040
  482MOL0     C63540   9.698   9.667   8.947  0.6565  0.2959  0.3734
  482MOL0     C63541   9.837   9.679   8.939  0.9273 -0.3593 -0.0009
  482MOL0     N63542  10.189   9.969   8.611 -0.3503 -0.4858 -0.5743
  482MOL0     N63543  10.075  10.040   8.610 -0.5423 -0.0409 -0.2477
  482MOL0     C63544   8.764   9.837   8.888 -0.5762 -0.5079  0.3903
  482MOL0     C63545   8.648   9.781   8.836  0.4334  0.1331  0.5405
  482MOL0     C63546   8.271   9.668   8.733  0.2345 -0.1288 -0.3487
  482MOL0     C63547   8.271   9.616   8.599 -0.1468 -0.7890 -0.0544
  482MOL0     C63548   8.174   9.528   8.554  0.0271  1.2698  0.1622
  482MOL0     C63549   8.078   9.478   8.637 -0.0093  0.5269  0.8725
  482MOL0     O63550   7.975   9.402   8.585  0.0114 -0.6692 -0.1299
  482MOL0     C63551   7.914   9.313   8.674  0.0577  0.3643 -0.2587
  482MOL0     C63552   7.835   9.223   8.582 -0.4884  0.5799 -0.3661
  482MOL0     C63553   7.711   9.292   8.536 -0.3101  0.0570 -0.8369
  482MOL0     C63554   7.607   9.282   8.651 -0.5314  0.0804 -0.1719
  482MOL0     C63555   7.491   9.352   8.605  0.3386  1.0453  0.1877
  482MOL0     C63556   7.401   9.428   8.564 -0.1929  0.3312  0.8629
  482MOL0     C63557   8.077   9.533   8.767  0.5495 -0.9231  0.0575
  482MOL0     C63558   8.164   9.625   8.817  0.3377 -0.3922  0.4554
  482MOL0     H63559   8.613  10.003   8.574 -0.5498  1.3970  0.3468
  482MOL0     H63560   8.834  10.081   8.663 -0.9617  1.2644  1.0960
  482MOL0     H63561   9.065   9.917   8.750 -1.7690  2.2852 -0.9710
  482MOL0     H63562   9.084   9.849   8.914 -1.2117  0.4088  2.3484
  482MOL0     H63563   9.181  10.027   9.007 -2.2739  0.7532 -0.3920
  482MOL0     H63564   9.176  10.131   8.856 -1.8963 -1.1055 -1.1988
  482MOL0     H63565   9.306   9.898   8.771 -1.5974 -0.6466  0.8607
  482MOL0     H63566   9.344   9.883   8.938 -1.3604  0.8193  1.0885
  482MOL0     H63567   9.404  10.135   8.784 -0.5669  2.5166  1.3173
  482MOL0     H63568   9.425  10.106   8.958  3.6778  0.8254 -0.4115
  482MOL0     H63569   9.588   9.937   8.920  3.6912 -0.9089 -2.7754
  482MOL0     H63570   9.639  10.092   8.837  0.8366  0.4563  0.9103
  482MOL0     H63571   9.562   9.994   8.627  0.9000  1.6496  0.5024
  482MOL0     H63572   9.546   9.834   8.704 -0.5042 -0.8211  2.2456
  482MOL0     H63573   9.799   9.883   8.780  0.2222 -1.1052 -0.2831
  482MOL0     H63574   9.767   9.803   8.630  0.5619 -1.5627  3.1668
  482MOL0     H63575   9.827  10.096   8.648  1.7523 -0.2698  0.7684
  482MOL0     H63576   9.786  10.005   8.499  0.6224  0.6531  0.5654
  482MOL0     H63577   9.965   9.749   8.550  1.4691 -1.5584 -1.0952
  482MOL0     H63578  10.373   9.803   8.606  1.4855 -2.4198 -1.7641
  482MOL0     H63579  10.280   9.718   8.482 -1.8436 -2.7094  1.2778
  482MOL0     H63580  10.367   9.568   8.667  1.2254 -0.6983  1.3083
  482MOL0     H63581  10.194   9.561   8.658  0.7130 -1.0027  1.8306
  482MOL0     H63582  10.300   9.561   8.881  1.1112 -0.7274 -2.0459
  482MOL0     H63583  10.338   9.728   8.854 -0.2103  0.8374 -0.7905
  482MOL0     H63584  10.110   9.787   8.848 -0.3879  0.0135 -0.3256
  482MOL0     H63585  10.129   9.678   8.984 -1.5812  0.3087  0.5991
  482MOL0     H63586   9.879   9.484   8.667  0.2497 -1.1162 -0.2920
  482MOL0     H63587   9.642   9.491   8.671  1.3001 -1.5623  0.1725
  482MOL0     H63588   9.428   9.459   9.188  0.6502  1.1804 -1.3980
  482MOL0     H63589   9.247   9.340   9.276  2.3540 -1.1757 -1.3793
  482MOL0     H63590   8.853   9.362   9.069 -0.4176  1.6820 -0.1915
  482MOL0     H63591   8.833   9.493   9.187 -1.3196 -0.6270 -2.7917
  482MOL0     H63592   8.734   9.345   9.347 -3.4644 -3.3406  0.9746
  482MOL0     H63593   8.818   9.204   9.281  3.0631  1.2394 -0.2871
  482MOL0     H63594   8.664   9.207   9.092  1.9828 -0.5496  0.5032
  482MOL0     H63595   8.595   9.362   9.155 -1.2765 -0.1385 -0.0351
  482MOL0     H63596   8.568   9.079   9.265 -0.6640  0.7321  0.7403
  482MOL0     H63597   8.551   9.244   9.351  3.5146  0.1172 -0.1447
  482MOL0     H63598   8.372   9.186   9.105 -1.3512 -0.8648  0.8140
  482MOL0     H63599   8.360   9.294   9.244  0.6255  1.4066 -2.8502
  482MOL0     H63600   8.325   9.065   9.384 -2.4581 -2.0525  0.4752
  482MOL0     H63601   8.345   8.979   9.228 -1.2816 -0.0615  1.1200
  482MOL0     H63602   8.132   9.191   9.242  1.3514  0.2625 -2.8991
  482MOL0     H63603   8.134   9.058   9.134 -2.7425 -1.3766  1.3336
  482MOL0     H63604   8.113   9.013   9.435  0.0318  0.3443 -1.3110
  482MOL0     H63605   8.102   8.893   9.296 -0.7238  1.4842 -5.0253
  482MOL0     H63606   8.970   9.558   9.019 -0.0581 -0.5535 -0.1874
  482MOL0     H63607   9.169   9.668   8.913 -0.1970 -0.0873 -1.8648
  482MOL0     H63608   9.659   9.721   9.033  4.0041  4.1570 -0.1854
  482MOL0     H63609   9.891   9.733   9.016  1.1687 -0.6891  0.0632
  482MOL0     H63610   8.803   9.793   8.979  0.1403 -1.1285 -0.1957
  482MOL0     H63611   8.595   9.698   8.882 -3.4846  1.3177 -1.4041
  482MOL0     H63612   8.352   9.651   8.535 -0.0156  2.1182  1.5609
  482MOL0     H63613   8.166   9.502   8.449 -2.2523  0.9561  0.3605
  482MOL0     H63614   7.846   9.372   8.736 -1.1127 -1.2022 -0.0077
  482MOL0     H63615   7.989   9.257   8.730  1.0420 -0.5787 -2.3823
  482MOL0     H63616   7.895   9.187   8.498 -2.1332 -2.3220 -0.4159
  482MOL0     H63617   7.803   9.127   8.623 -3.6944  1.6358 -0.1437
  482MOL0     H63618   7.671   9.244   8.446 -0.9935 -0.9046 -0.0374
  482MOL0     H63619   7.722   9.396   8.504  1.7469  0.0437 -0.2666
  482MOL0     H63620   7.571   9.179   8.658  1.5514 -0.6232  1.0337
  482MOL0     H63621   7.642   9.309   8.751  1.3652 -0.7050 -0.5746
  482MOL0     H63622   7.341   9.511   8.534  0.4940 -0.6108 -3.7921
  482MOL0     H63623   7.992   9.524   8.834  1.5474 -0.1036  1.4919
  482MOL0     H63624   8.138   9.673   8.910 -1.5298 -0.9905  0.2852
  483MOL0     O63625   2.221   6.781   5.403  0.0211  0.3342 -0.3706
  483MOL0     C63626   2.313   6.786   5.489 -0.1653 -1.0612  0.0801
  483MOL0     O63627   2.291   6.748   5.621 -0.1636  0.1720  0.3219
  483MOL0     C63628   2.166   6.701   5.655  0.2045 -0.2089 -0.2732
  483MOL0     C63629   2.135   6.566   5.652 -0.0801  0.6381 -0.1466
  483MOL0     C63630   2.004   6.520   5.658 -0.0068 -0.6304 -0.8294
  483MOL0     C63631   1.902   6.614   5.688  0.8237 -0.1791  0.3883
  483MOL0     O63632   1.771   6.585   5.727 -0.3997 -0.1718  0.1816
  483MOL0     C63633   1.728   6.455   5.744 -0.2960 -0.1151 -0.3897
  483MOL0     C63634   1.670   6.452   5.881 -0.2012  0.0149 -0.3477
  483MOL0     C63635   1.669   6.309   5.946  0.4942  0.6450  0.5927
  483MOL0     C63636   1.574   6.295   6.055 -0.8308  0.4143 -0.2652
  483MOL0     C63637   1.547   6.149   6.092  0.1163  0.1944 -0.1580
  483MOL0     C63638   1.678   6.061   6.089  0.6966 -0.6767  0.2703
  483MOL0     C63639   1.653   5.947   6.193 -0.9769 -0.1590  0.5327
  483MOL0     C63640   1.743   5.824   6.163 -0.4209  0.2711  0.4299
  483MOL0     N63641   1.883   5.857   6.125 -0.2878 -0.2252 -0.1135
  483MOL0     C63642   1.980   5.901   6.209  0.8787 -0.2682 -0.3500
  483MOL0     C63643   2.089   5.917   6.136 -0.5699  0.4596 -0.5837
  483MOL0     C63644   2.215   5.985   6.176  0.8005 -0.4989  0.0453
  483MOL0     C63645   2.316   5.890   6.228 -0.0007 -0.3144 -0.4976
  483MOL0     C63646   2.306   5.893   6.378  0.4631  0.3501 -0.5575
  483MOL0     C63647   2.341   5.759   6.444  0.0093 -0.3660  0.2546
  483MOL0     O63648   2.282   5.743   6.573 -0.1596  0.3586  0.3033
  483MOL0     C63649   2.150   5.720   6.586 -0.7446  1.0425 -0.8530
  483MOL0     C63650   2.053   5.682   6.487 -0.9511 -1.2056 -0.2960
  483MOL0     C63651   1.920   5.678   6.517 -0.3039  0.7816 -0.8772
  483MOL0     C63652   1.871   5.722   6.645  0.9231 -0.7465 -0.1461
  483MOL0     C63653   1.725   5.717   6.670  0.4563  0.0779  0.2516
  483MOL0     O63654   1.646   5.714   6.554 -0.0815  0.7639 -0.5455
  483MOL0     C63655   1.509   5.746   6.561 -0.7343 -1.2709  0.2780
  483MOL0     C63656   1.435   5.832   6.651 -0.3877  1.3193 -0.5292
  483MOL0     C63657   1.297   5.848   6.633 -0.7148  0.3386  0.1061
  483MOL0     C63658   1.226   5.798   6.525  0.6504  0.2068  0.3652
  483MOL0     O63659   1.095   5.818   6.500  0.0599  0.8527 -0.0876
  483MOL0     C63660   1.018   5.912   6.571 -0.0797 -0.1968  0.2421
  483MOL0     C63661   0.895   5.953   6.499 -0.9547 -0.7776  0.9279
  483MOL0     C63662   0.764   5.910   6.566 -0.1453 -0.0990  0.5205
  483MOL0     C63663   0.644   5.927   6.471  1.0238 -0.1616 -0.1882
  483MOL0     C63664   0.514   5.857   6.520 -0.3273 -0.7218  0.0965
  483MOL0     C63665   0.424   5.830   6.397 -0.3450  0.6017 -0.7896
  483MOL0     C63666   0.279   5.802   6.447  0.5966 -0.0028  0.0566
  483MOL0     C63667   0.201   5.717   6.345  0.6520  0.2510  0.0754
  483MOL0    Cl63668   0.026   5.723   6.402 -0.1939  0.3694  0.1015
  483MOL0     C63669   1.303   5.723   6.437  0.0827  0.1875 -0.5858
  483MOL0     C63670   1.438   5.691   6.456 -0.2452 -0.4495 -0.2172
  483MOL0     O63671   1.684   5.730   6.787 -0.4764  0.4323 -0.2857
  483MOL0     C63672   1.969   5.739   6.752 -0.8227  0.1252  0.4491
  483MOL0     C63673   2.102   5.731   6.718 -0.1694 -0.3497  0.0822
  483MOL0     N63674   2.057   5.876   6.003  0.2299 -0.7212 -0.0464
  483MOL0     N63675   1.932   5.846   5.997  0.4996  0.5544  0.2296
  483MOL0     C63676   1.932   6.743   5.711 -0.0668 -0.3313  0.2731
  483MOL0     C63677   2.062   6.789   5.690 -0.2437  1.2393 -0.5835
  483MOL0     C63678   2.441   6.839   5.451  0.2862 -1.7116 -0.5749
  483MOL0     C63679   2.546   6.863   5.550  0.1555  0.0363 -0.2108
  483MOL0     C63680   2.661   6.926   5.493 -0.7211 -0.1032 -0.3490
  483MOL0     C63681   2.671   6.960   5.361 -0.8237  0.1672  0.0541
  483MOL0     O63682   2.790   7.019   5.323  0.4685 -0.4016  0.2639
  483MOL0     C63683   2.801   7.159   5.351 -0.1112  0.3129  0.2624
  483MOL0     C63684   2.938   7.166   5.409  0.2962  0.6356  0.1559
  483MOL0     C63685   3.045   7.150   5.304  0.1422 -0.7882 -0.3885
  483MOL0     C63686   3.176   7.204   5.358  0.0156  0.4048  0.0963
  483MOL0     C63687   3.278   7.173   5.257 -0.0489  0.6499  0.2504
  483MOL0     C63688   3.354   7.146   5.168 -0.1612  0.2198  0.8324
  483MOL0     C63689   2.573   6.938   5.271  0.4869 -0.2213  0.3913
  483MOL0     C63690   2.459   6.876   5.314 -0.3632 -0.1317  0.1851
  483MOL0     H63691   2.212   6.495   5.625 -1.1567 -0.4107 -0.5307
  483MOL0     H63692   2.000   6.412   5.646 -0.2657 -1.0034  1.9655
  483MOL0     H63693   1.812   6.385   5.732 -0.1912  0.4774 -4.7298
  483MOL0     H63694   1.660   6.419   5.667  1.5337  2.0868 -3.2754
  483MOL0     H63695   1.570   6.495   5.879  0.6367  2.0618 -0.3477
  483MOL0     H63696   1.729   6.516   5.947  1.2698 -0.6743 -0.9309
  483MOL0     H63697   1.774   6.287   5.970  0.6735  0.2791 -0.4277
  483MOL0     H63698   1.642   6.244   5.862 -0.6798  1.1556  0.5568
  483MOL0     H63699   1.615   6.349   6.140  2.4201  1.5612 -2.3705
  483MOL0     H63700   1.479   6.344   6.031 -0.8492  1.4619  1.7460
  483MOL0     H63701   1.467   6.111   6.027 -1.7840  0.8235  1.6946
  483MOL0     H63702   1.508   6.153   6.194  1.6592 -0.4443  0.4874
  483MOL0     H63703   1.769   6.117   6.111  0.0619 -0.0567  1.4492
  483MOL0     H63704   1.700   6.027   5.988 -1.1977  0.8266 -0.7196
  483MOL0     H63705   1.679   5.976   6.296  1.3567  1.0776 -0.3231
  483MOL0     H63706   1.552   5.906   6.202  0.4280 -3.5918  2.3591
  483MOL0     H63707   1.696   5.765   6.084 -0.6038 -1.7574  1.9745
  483MOL0     H63708   1.744   5.752   6.245 -3.2412  0.1164  0.4351
  483MOL0     H63709   1.964   5.924   6.314  1.3568 -1.5250  0.0144
  483MOL0     H63710   2.186   6.069   6.240 -0.9123 -0.9568 -0.0761
  483MOL0     H63711   2.250   6.041   6.089  1.3624 -1.1882 -0.1747
  483MOL0     H63712   2.417   5.925   6.203  0.3732  0.0979  1.4271
  483MOL0     H63713   2.297   5.789   6.191 -0.9338 -1.1790  2.0851
  483MOL0     H63714   2.367   5.969   6.429  0.2166  0.3211 -0.2130
  483MOL0     H63715   2.201   5.910   6.402  1.0887  0.5275  2.5732
  483MOL0     H63716   2.449   5.758   6.461 -0.3376 -1.2368  2.8203
  483MOL0     H63717   2.310   5.680   6.374 -2.8733  1.4074 -0.6366
  483MOL0     H63718   2.077   5.665   6.382 -0.0927  0.6451 -0.4506
  483MOL0     H63719   1.848   5.647   6.442  0.8412 -0.8490 -1.3615
  483MOL0     H63720   1.478   5.865   6.746 -3.7633 -0.7581  1.9634
  483MOL0     H63721   1.253   5.928   6.692 -1.2221  3.7483 -4.3473
  483MOL0     H63722   1.085   5.995   6.596 -0.4979  0.8304 -1.8866
  483MOL0     H63723   0.987   5.846   6.653  0.1706 -0.8961 -0.2193
  483MOL0     H63724   0.904   5.907   6.400  2.2682 -1.8817  1.6033
  483MOL0     H63725   0.900   6.062   6.490 -2.4291 -0.8396 -1.2862
  483MOL0     H63726   0.759   5.956   6.665  1.6731 -0.4978  0.8352
  483MOL0     H63727   0.762   5.801   6.581 -0.6916 -0.0730  0.6528
  483MOL0     H63728   0.617   6.033   6.466 -1.0828 -0.6523  0.1787
  483MOL0     H63729   0.659   5.882   6.372 -0.5618  0.2023 -0.6115
  483MOL0     H63730   0.468   5.925   6.593 -0.7585 -1.0697  0.1551
  483MOL0     H63731   0.535   5.754   6.552 -0.7237 -1.3609 -1.5691
  483MOL0     H63732   0.462   5.744   6.341  0.7395  0.6382 -0.1418
  483MOL0     H63733   0.423   5.920   6.334  0.5961 -0.3359 -2.2084
  483MOL0     H63734   0.279   5.752   6.544 -0.4295  0.3264  0.2411
  483MOL0     H63735   0.220   5.894   6.447  0.4385 -0.0505 -2.0033
  483MOL0     H63736   0.235   5.613   6.336 -0.7712 -0.1801 -0.6419
  483MOL0     H63737   0.211   5.760   6.245 -3.2952 -0.0429 -0.6115
  483MOL0     H63738   1.252   5.685   6.349 -2.5219 -0.0597  0.9153
  483MOL0     H63739   1.491   5.626   6.388  0.4148 -0.9194  0.7133
  483MOL0     H63740   1.934   5.747   6.854  2.1253  1.4662  1.4721
  483MOL0     H63741   2.180   5.750   6.791  1.4880 -0.0773 -1.6736
  483MOL0     H63742   1.858   6.817   5.741 -1.3715 -1.0080 -1.1194
  483MOL0     H63743   2.101   6.890   5.704  0.3537  1.2630 -2.2112
  483MOL0     H63744   2.541   6.841   5.656 -1.4401  5.1914  1.0736
  483MOL0     H63745   2.756   6.934   5.544 -1.3695 -0.3093  0.9139
  483MOL0     H63746   2.733   7.210   5.420  3.5267  2.8648  2.2670
  483MOL0     H63747   2.801   7.214   5.257 -0.1198  0.8639  0.5785
  483MOL0     H63748   2.943   7.267   5.449  0.8488  1.4522 -1.8556
  483MOL0     H63749   2.964   7.093   5.486 -1.4605 -0.5664 -0.3211
  483MOL0     H63750   3.015   7.199   5.211 -0.1495  0.0660  0.1545
  483MOL0     H63751   3.061   7.042   5.291  0.6428 -0.7968  0.2597
  483MOL0     H63752   3.159   7.312   5.359  0.4788  0.5943 -2.6887
  483MOL0     H63753   3.195   7.161   5.456 -0.4367 -0.8140 -0.3290
  483MOL0     H63754   3.429   7.126   5.094  1.2621 -2.6760  2.8501
  483MOL0     H63755   2.581   6.960   5.165  0.3423 -1.2779  0.1423
  483MOL0     H63756   2.381   6.874   5.238 -0.3059  1.6888  0.0479
  484MOL0     O63757   9.448   6.617   0.320  0.6496 -0.3110  0.1028
  484MOL0     C63758   9.468   6.574   0.435  0.0113 -0.2675 -0.1682
  484MOL0     O63759   9.369   6.549   0.535  0.6956 -0.2572 -0.1095
  484MOL0     C63760   9.230   6.549   0.507 -0.3127 -0.5419 -1.1558
  484MOL0     C63761   9.175   6.515   0.388  0.3117  0.0477 -0.5950
  484MOL0     C63762   9.037   6.520   0.366 -0.1000  0.2143  0.3994
  484MOL0     C63763   8.949   6.545   0.471 -0.6379  0.1458  0.0662
  484MOL0     O63764   8.819   6.525   0.454 -0.2644 -0.1086  0.5674
  484MOL0     C63765   8.764   6.426   0.365  0.7261 -0.0019  0.8318
  484MOL0     C63766   8.624   6.384   0.417 -0.3722 -0.2491  0.9022
  484MOL0     C63767   8.524   6.506   0.407  0.2881  0.6579  0.2432
  484MOL0     C63768   8.379   6.478   0.437  0.2685  0.6931 -0.2128
  484MOL0     C63769   8.350   6.421   0.573 -0.1253  0.5593 -0.1375
  484MOL0     C63770   8.211   6.433   0.625  0.5210  0.0739 -0.1157
  484MOL0     C63771   8.216   6.367   0.767 -0.5106  0.3766  0.5744
  484MOL0     C63772   8.087   6.362   0.833 -0.2297 -0.5351  0.0063
  484MOL0     N63773   8.097   6.303   0.964 -0.9789 -0.0268 -0.5263
  484MOL0     C63774   8.077   6.365   1.089 -0.7340 -0.6844  0.2166
  484MOL0     C63775   8.057   6.256   1.170  0.0015  0.5689 -0.3580
  484MOL0     C63776   7.997   6.273   1.302  0.8634 -1.2305 -0.0308
  484MOL0     C63777   7.846   6.308   1.297 -0.4593 -0.4526  0.2217
  484MOL0     C63778   7.812   6.360   1.432  0.2515 -0.6429 -0.8477
  484MOL0     C63779   7.660   6.363   1.469 -0.0464  0.1739 -0.3459
  484MOL0     O63780   7.596   6.481   1.421 -0.1407 -0.6275 -0.0081
  484MOL0     C63781   7.463   6.491   1.434 -0.0284 -0.1812 -0.4714
  484MOL0     C63782   7.376   6.386   1.474 -0.0552 -0.0788 -0.2569
  484MOL0     C63783   7.247   6.425   1.516 -0.1740  0.1871  0.2715
  484MOL0     C63784   7.200   6.555   1.494 -0.7326 -0.1498  0.2337
  484MOL0     C63785   7.061   6.592   1.522  0.0061  0.1199  0.2413
  484MOL0     O63786   6.979   6.500   1.570  0.0404 -0.1819 -1.1654
  484MOL0     C63787   6.847   6.536   1.613  0.2694 -0.4707  0.8719
  484MOL0     C63788   6.750   6.438   1.577  0.1733  0.1182 -0.7180
  484MOL0     C63789   6.616   6.467   1.609 -0.2973  0.1290  0.3893
  484MOL0     C63790   6.575   6.585   1.676 -0.7824 -0.2460 -0.6411
  484MOL0     O63791   6.440   6.604   1.691 -0.4185 -0.7526  0.1054
  484MOL0     C63792   6.391   6.711   1.782  0.0111 -0.6357  0.2696
  484MOL0     C63793   6.241   6.704   1.814 -0.3393  0.1115  0.1055
  484MOL0     C63794   6.218   6.814   1.924 -0.1103 -0.5612 -0.0343
  484MOL0     C63795   6.075   6.801   1.979 -0.0895  0.2533  0.4011
  484MOL0     C63796   6.043   6.921   2.069 -0.4885 -0.6910  0.3182
  484MOL0     C63797   5.909   6.897   2.130  0.0546 -0.4462 -0.2819
  484MOL0     C63798   5.881   6.998   2.246 -0.5736  0.0755 -0.2310
  484MOL0     C63799   5.768   6.939   2.340 -0.9695  0.0273 -0.7191
  484MOL0    Cl63800   5.612   6.928   2.277  0.5698  0.0849  0.4449
  484MOL0     C63801   6.673   6.678   1.722 -0.4986  0.1509 -0.3679
  484MOL0     C63802   6.809   6.656   1.680  0.2489  1.2313 -0.2172
  484MOL0     O63803   7.035   6.711   1.503  0.4218 -0.2886  0.0243
  484MOL0     C63804   7.290   6.658   1.442 -0.4357  0.0730  0.0809
  484MOL0     C63805   7.423   6.623   1.416  1.0265  0.4806 -0.0230
  484MOL0     N63806   8.089   6.140   1.100  0.1143 -0.1722 -0.0324
  484MOL0     N63807   8.095   6.171   0.978 -0.1671  0.1052  0.5695
  484MOL0     C63808   9.004   6.568   0.597 -0.5487 -0.0612 -0.2124
  484MOL0     C63809   9.143   6.572   0.616  0.0517  0.4737  0.3379
  484MOL0     C63810   9.609   6.558   0.470 -0.2054 -0.0412 -0.3154
  484MOL0     C63811   9.658   6.511   0.596  0.0407 -0.2156 -0.0793
  484MOL0     C63812   9.785   6.513   0.634  0.8201 -0.7541 -1.3013
  484MOL0     C63813   9.880   6.559   0.556 -0.9935  0.2436 -0.3561
  484MOL0     O63814  10.010   6.562   0.589 -1.1383  0.1384 -0.3342
  484MOL0     C63815  10.045   6.525   0.727  0.4245 -0.5238 -0.8827
  484MOL0     C63816  10.180   6.578   0.788  0.5273  0.3405  0.0546
  484MOL0     C63817  10.303   6.527   0.703 -0.1589 -0.3016 -0.8534
  484MOL0     C63818  10.300   6.380   0.663  0.4098  0.2216 -0.1839
  484MOL0     C63819  10.424   6.349   0.584 -0.5120  0.2785  0.3041
  484MOL0     C63820  10.525   6.318   0.524  0.2607 -0.2394 -0.3404
  484MOL0     C63821   9.847   6.605   0.432  0.8678 -0.1636 -0.1063
  484MOL0     C63822   9.713   6.596   0.379 -0.7757  0.1114  0.4230
  484MOL0     H63823   9.238   6.483   0.305  0.7209  0.1440 -0.3243
  484MOL0     H63824   8.990   6.493   0.272  1.8826  0.7195 -0.7944
  484MOL0     H63825   8.824   6.336   0.347 -0.9349 -0.9564 -0.1748
  484MOL0     H63826   8.754   6.483   0.272  2.4813  0.3721  0.8359
  484MOL0     H63827   8.638   6.361   0.523 -0.2159  0.7322  1.1060
  484MOL0     H63828   8.586   6.297   0.362  2.1527 -0.1379 -1.2545
  484MOL0     H63829   8.531   6.539   0.302  0.2953  2.0707  0.6591
  484MOL0     H63830   8.557   6.598   0.456  2.6300  0.7560 -1.3509
  484MOL0     H63831   8.325   6.570   0.414 -0.8630  0.2580  0.6090
  484MOL0     H63832   8.349   6.405   0.362 -0.0097  0.8719 -0.2805
  484MOL0     H63833   8.414   6.465   0.649 -0.4654  0.4343  0.2242
  484MOL0     H63834   8.381   6.316   0.578  0.4245  0.6972  5.3317
  484MOL0     H63835   8.139   6.383   0.560 -0.5066 -0.6866  1.5275
  484MOL0     H63836   8.190   6.540   0.636  1.6164  0.4400 -1.2925
  484MOL0     H63837   8.267   6.271   0.759 -0.6405  0.3911 -0.5838
  484MOL0     H63838   8.278   6.433   0.828  1.3213 -0.9061  0.1755
  484MOL0     H63839   8.018   6.304   0.770 -1.8640 -0.8997  2.0168
  484MOL0     H63840   8.049   6.465   0.838 -3.8989 -1.7841  2.4518
  484MOL0     H63841   8.057   6.466   1.124 -0.0124  0.7930 -3.2491
  484MOL0     H63842   8.049   6.360   1.342 -1.7685  1.6645 -2.3502
  484MOL0     H63843   8.015   6.190   1.371  0.4107 -1.4035 -0.1161
  484MOL0     H63844   7.787   6.219   1.275 -0.3572  0.3316 -4.2734
  484MOL0     H63845   7.817   6.386   1.225 -2.0952  0.7131  2.0506
  484MOL0     H63846   7.845   6.285   1.503 -1.7622  0.4101  1.3471
  484MOL0     H63847   7.860   6.453   1.463 -1.4513  0.3069 -0.8905
  484MOL0     H63848   7.637   6.350   1.576  1.6701 -2.3321 -0.2035
  484MOL0     H63849   7.618   6.274   1.423  3.2912 -0.8684 -1.6186
  484MOL0     H63850   7.407   6.285   1.502  0.5091  0.5835  1.6722
  484MOL0     H63851   7.187   6.342   1.551 -2.7994  2.6736  2.0673
  484MOL0     H63852   6.775   6.342   1.533 -1.0911 -1.4902  1.8260
  484MOL0     H63853   6.546   6.388   1.583  1.1292 -0.8751 -0.6145
  484MOL0     H63854   6.399   6.802   1.722  0.4787 -1.4362 -0.9352
  484MOL0     H63855   6.451   6.716   1.873  0.4543 -0.0719 -0.0500
  484MOL0     H63856   6.225   6.603   1.853  0.5411  0.2217  0.7925
  484MOL0     H63857   6.183   6.734   1.726 -1.0057  1.5091  0.9817
  484MOL0     H63858   6.226   6.919   1.895 -1.7116  0.3826  2.6001
  484MOL0     H63859   6.285   6.788   2.007 -1.1711 -3.4852  0.0380
  484MOL0     H63860   5.992   6.801   1.908 -0.9850  1.4647  1.4019
  484MOL0     H63861   6.075   6.704   2.029  1.4203 -1.3548 -2.4867
  484MOL0     H63862   6.037   7.020   2.023 -1.3324  1.1933  4.1394
  484MOL0     H63863   6.120   6.933   2.146  1.5427 -1.7194 -1.4259
  484MOL0     H63864   5.910   6.798   2.177 -0.7256 -0.3316 -0.0183
  484MOL0     H63865   5.829   6.894   2.055  0.4567  0.0535 -0.7369
  484MOL0     H63866   5.971   7.023   2.303 -2.3358  2.0805  1.9167
  484MOL0     H63867   5.840   7.093   2.208 -1.1092  1.3016  3.0808
  484MOL0     H63868   5.773   7.017   2.417  2.4683  0.7190 -1.4883
  484MOL0     H63869   5.803   6.840   2.370 -2.3992 -0.2678  0.0630
  484MOL0     H63870   6.661   6.774   1.772 -0.1276  1.1557 -2.1041
  484MOL0     H63871   6.885   6.729   1.706 -1.2824  1.5781  3.9825
  484MOL0     H63872   7.257   6.760   1.428  2.6040  0.8630 -2.3618
  484MOL0     H63873   7.485   6.709   1.393 -1.1312  2.1320  0.0202
  484MOL0     H63874   8.939   6.589   0.681 -1.4569 -1.1008 -0.6299
  484MOL0     H63875   9.197   6.577   0.710  4.0947 -2.1276 -1.5607
  484MOL0     H63876   9.588   6.481   0.674 -0.7805 -3.3172 -1.8544
  484MOL0     H63877   9.800   6.486   0.738 -0.1963  1.0758 -0.6206
  484MOL0     H63878  10.044   6.418   0.750 -1.8538 -0.0660  1.6312
  484MOL0     H63879   9.971   6.576   0.788  0.2193 -0.0914 -1.4821
  484MOL0     H63880  10.182   6.687   0.790 -0.3277  0.3689 -0.4809
  484MOL0     H63881  10.199   6.543   0.891  0.8720 -3.0486 -1.0352
  484MOL0     H63882  10.403   6.550   0.740 -1.2322  3.4212  0.1283
  484MOL0     H63883  10.297   6.580   0.607  0.5965 -0.4876 -1.0143
  484MOL0     H63884  10.302   6.321   0.755 -3.5521 -2.3484 -1.5043
  484MOL0     H63885  10.223   6.354   0.590  0.5520  0.2918 -0.3592
  484MOL0     H63886  10.614   6.288   0.471  0.2919 -2.3868  0.7967
  484MOL0     H63887   9.920   6.636   0.359  1.1051  0.6539  0.4638
  484MOL0     H63888   9.692   6.645   0.284 -1.3874  0.6788  0.8449
  485MOL0     O63889   2.350   1.859   0.413  0.1391  0.2454 -0.5659
  485MOL0     C63890   2.346   1.941   0.327  0.9636  0.3731  0.4595
  485MOL0     O63891   2.244   2.022   0.304  0.3669 -0.6784 -0.0805
  485MOL0     C63892   2.136   2.023   0.390  0.0194  0.2282 -0.5949
  485MOL0     C63893   2.151   2.088   0.506 -0.6125 -0.5877 -0.6447
  485MOL0     C63894   2.050   2.111   0.596  0.1654 -0.0923  0.1163
  485MOL0     C63895   1.920   2.057   0.564  0.3607 -0.2714 -0.7115
  485MOL0     O63896   1.814   2.045   0.645 -0.1620  0.9364 -0.0028
  485MOL0     C63897   1.752   2.170   0.682 -0.0767  0.5686 -0.5848
  485MOL0     C63898   1.651   2.126   0.790 -0.6756  0.1533  0.4304
  485MOL0     C63899   1.541   2.027   0.754  0.0981 -0.9134 -0.0144
  485MOL0     C63900   1.479   2.046   0.613 -0.2493  0.0606  0.2373
  485MOL0     C63901   1.356   1.956   0.595 -0.5355 -0.0549  0.4847
  485MOL0     C63902   1.253   1.972   0.716  0.3022 -0.1019 -0.4494
  485MOL0     C63903   1.113   1.967   0.672  0.1240  0.0603  0.8377
  485MOL0     C63904   1.022   1.938   0.791 -0.3323  0.2987 -0.5904
  485MOL0     N63905   0.992   2.068   0.858  0.3434 -0.1134 -0.3425
  485MOL0     C63906   0.927   2.177   0.797  0.8450  0.2484 -0.2630
  485MOL0     C63907   0.892   2.269   0.896  1.1916 -0.0165 -0.1080
  485MOL0     C63908   0.823   2.406   0.886  0.1398 -0.0334  0.0169
  485MOL0     C63909   0.664   2.403   0.868  0.6568 -0.4758  0.0691
  485MOL0     C63910   0.613   2.541   0.864  0.4305 -0.0204  0.1951
  485MOL0     C63911   0.468   2.543   0.835 -0.8599 -0.0863 -0.3130
  485MOL0     O63912   0.426   2.675   0.791  0.3388 -0.0316  0.4754
  485MOL0     C63913   0.292   2.707   0.774  0.3861  0.1087  0.5513
  485MOL0     C63914   0.257   2.835   0.752 -0.3862 -0.1434 -0.3965
  485MOL0     C63915   0.120   2.875   0.726 -0.1639 -1.1222 -0.4986
  485MOL0     C63916   0.017   2.785   0.731 -0.2762  0.1668  0.2876
  485MOL0     C63917  -0.126   2.820   0.727  0.1375 -0.2182  0.2884
  485MOL0     O63918  -0.157   2.961   0.719 -0.1603 -0.2498  0.5298
  485MOL0     C63919  -0.286   3.008   0.703 -0.0139 -0.7198  0.5912
  485MOL0     C63920  -0.399   2.938   0.655  0.2175 -0.2023  0.5495
  485MOL0     C63921  -0.524   2.998   0.659 -0.2882 -0.0591 -0.7718
  485MOL0     C63922  -0.536   3.130   0.700  0.3244  0.4369 -0.4766
  485MOL0     O63923  -0.658   3.192   0.689 -0.3602 -0.8428  0.0247
  485MOL0     C63924  -0.687   3.211   0.547 -0.4141 -0.3868 -0.5611
  485MOL0     C63925  -0.762   3.349   0.535 -1.5491 -0.7461 -0.0078
  485MOL0     C63926  -0.906   3.320   0.575  0.4511 -0.3031  0.2531
  485MOL0     C63927  -0.998   3.435   0.545  0.5157 -0.8077 -0.0865
  485MOL0     C63928  -1.142   3.402   0.572  0.0924 -0.5977 -0.1497
  485MOL0     C63929  -1.241   3.513   0.512  0.2051  0.2093  0.1803
  485MOL0     C63930  -1.248   3.652   0.580  0.4540  0.6971  0.1750
  485MOL0     C63931  -1.218   3.778   0.505 -0.7596  0.4104  0.9275
  485MOL0    Cl63932  -1.331   3.786   0.368  0.1002  0.1584  0.1497
  485MOL0     C63933  -0.425   3.198   0.744  0.4814  0.2943 -0.7921
  485MOL0     C63934  -0.296   3.144   0.744  0.0606  0.6213  0.7599
  485MOL0     O63935  -0.206   2.732   0.739  0.0993 -0.6405 -0.2117
  485MOL0     C63936   0.061   2.654   0.767 -0.0286 -1.0103 -0.7251
  485MOL0     C63937   0.190   2.618   0.783 -0.2058  0.1982 -0.1839
  485MOL0     N63938   0.941   2.219   1.014  0.0973  0.8900  0.0337
  485MOL0     N63939   1.008   2.102   0.988 -0.4289 -0.0741 -0.4987
  485MOL0     C63940   1.901   1.994   0.442  0.6727  0.6042  0.1250
  485MOL0     C63941   2.009   1.978   0.354 -0.1709  0.0329  0.4788
  485MOL0     C63942   2.463   1.942   0.233  0.0081  0.1848 -0.3697
  485MOL0     C63943   2.581   1.867   0.270  0.0957  0.2882 -0.2349
  485MOL0     C63944   2.693   1.858   0.187  0.0381 -0.0841 -1.1913
  485MOL0     C63945   2.700   1.938   0.071 -0.3141  0.0719  0.1607
  485MOL0     O63946   2.806   1.950  -0.010 -0.3573 -0.1435  0.2254
  485MOL0     C63947   2.937   1.902   0.041  0.2461  0.4518  0.0211
  485MOL0     C63948   3.042   1.989  -0.014 -0.5204 -0.2931  0.4289
  485MOL0     C63949   3.177   1.924   0.023 -0.2025 -0.1976  0.0112
  485MOL0     C63950   3.286   1.984  -0.066 -0.3454  0.2001  0.6499
  485MOL0     C63951   3.326   2.117  -0.017 -0.6161 -0.3877  0.0103
  485MOL0     C63952   3.362   2.223   0.015 -0.1576  0.0405 -0.3917
  485MOL0     C63953   2.585   2.014   0.032 -0.5227 -0.0562  0.0217
  485MOL0     C63954   2.471   2.014   0.113 -0.9416 -0.2317  0.0979
  485MOL0     H63955   2.238   2.151   0.519 -0.6909 -0.2343 -1.7458
  485MOL0     H63956   2.070   2.158   0.692  0.7327 -3.2130  1.6302
  485MOL0     H63957   1.702   2.215   0.596 -0.1294 -0.7160 -1.2601
  485MOL0     H63958   1.829   2.238   0.719 -0.6883  0.9277  0.0545
  485MOL0     H63959   1.608   2.223   0.817 -0.1835  0.6416 -0.4651
  485MOL0     H63960   1.702   2.091   0.880  1.4694  0.2647 -0.6932
  485MOL0     H63961   1.472   2.041   0.838 -0.1431  0.2161 -0.3799
  485MOL0     H63962   1.586   1.928   0.754 -0.3910 -1.1426 -0.5044
  485MOL0     H63963   1.450   2.150   0.594 -2.8328 -0.3843  1.2925
  485MOL0     H63964   1.551   2.020   0.536 -0.4812  0.2586 -0.0488
  485MOL0     H63965   1.384   1.851   0.589 -5.5664 -1.6189 -0.4899
  485MOL0     H63966   1.321   1.981   0.494  0.2044 -0.5424  0.0966
  485MOL0     H63967   1.269   2.053   0.788  1.0995 -0.6389 -0.0180
  485MOL0     H63968   1.276   1.896   0.791  0.4604  0.7191  0.3515
  485MOL0     H63969   1.079   2.060   0.625  0.1464 -0.4412 -0.1977
  485MOL0     H63970   1.106   1.881   0.604  2.4002 -0.5465  1.2856
  485MOL0     H63971   1.075   1.881   0.868  1.2599  5.0863  2.3304
  485MOL0     H63972   0.937   1.877   0.762  1.9306 -3.4862  0.0899
  485MOL0     H63973   0.895   2.201   0.696  1.8708  0.3834 -0.5604
  485MOL0     H63974   0.868   2.453   0.798  0.1097  1.7278  0.8910
  485MOL0     H63975   0.840   2.460   0.979 -1.3949 -1.4265  1.1589
  485MOL0     H63976   0.613   2.346   0.946  1.1829 -0.8683  0.1325
  485MOL0     H63977   0.664   2.357   0.769 -0.8639 -1.9947  0.7356
  485MOL0     H63978   0.638   2.594   0.956  0.2498 -1.8942  1.3509
  485MOL0     H63979   0.668   2.588   0.782  1.3070 -2.9043 -0.9740
  485MOL0     H63980   0.403   2.512   0.917 -0.8753 -0.0578 -0.3147
  485MOL0     H63981   0.444   2.476   0.752 -5.8536  1.1651 -0.1870
  485MOL0     H63982   0.338   2.907   0.751  0.2526 -0.6023  3.2351
  485MOL0     H63983   0.093   2.976   0.699  1.1957 -1.2224 -2.4857
  485MOL0     H63984  -0.396   2.832   0.632  0.7616 -0.9266  3.5507
  485MOL0     H63985  -0.614   2.955   0.616 -0.0617  2.3767 -4.0725
  485MOL0     H63986  -0.754   3.130   0.515 -2.2567 -0.7371  3.5984
  485MOL0     H63987  -0.598   3.226   0.485  0.8460 -0.5022  1.1563
  485MOL0     H63988  -0.751   3.388   0.433  1.8417 -0.5190  0.3362
  485MOL0     H63989  -0.715   3.423   0.601 -2.0270 -0.6199  0.1983
  485MOL0     H63990  -0.903   3.302   0.683  1.3361  1.2916  0.5262
  485MOL0     H63991  -0.945   3.232   0.523  0.7399 -1.5001  1.9425
  485MOL0     H63992  -0.975   3.524   0.604 -2.5437  0.6321 -0.8826
  485MOL0     H63993  -0.993   3.467   0.440 -3.0646 -0.3854 -0.2495
  485MOL0     H63994  -1.159   3.407   0.680 -1.1785 -1.0465 -0.3123
  485MOL0     H63995  -1.181   3.309   0.531 -0.9008 -1.3458  2.2712
  485MOL0     H63996  -1.344   3.477   0.516 -2.6466  6.1686 -3.8557
  485MOL0     H63997  -1.206   3.516   0.408 -0.2927  1.1211  0.0320
  485MOL0     H63998  -1.350   3.664   0.618  0.0600 -0.7417 -0.3484
  485MOL0     H63999  -1.185   3.647   0.669  1.0740 -1.3484 -0.3189
  485MOL0     H64000  -1.123   3.773   0.450 -1.8882 -2.5241 -1.0061
  485MOL0     H64001  -1.222   3.861   0.576  1.5881  0.1187  1.4889
  485MOL0     H64002  -0.432   3.300   0.780  1.1615  0.0329  0.1304
  485MOL0     H64003  -0.211   3.210   0.762  2.5658 -2.0205 -0.4928
  485MOL0     H64004  -0.017   2.580   0.777 -1.7219  0.6693 -1.0054
  485MOL0     H64005   0.217   2.514   0.798 -1.0253 -0.3818 -2.3429
  485MOL0     H64006   1.805   1.952   0.415  1.1704 -0.2654 -0.3361
  485MOL0     H64007   1.989   1.921   0.264  0.0698 -0.2924  0.6266
  485MOL0     H64008   2.588   1.794   0.350  0.3551  2.3231  1.6988
  485MOL0     H64009   2.768   1.786   0.218 -1.3352 -0.7635  0.6865
  485MOL0     H64010   2.949   1.798   0.008  0.1432  0.9309 -1.6256
  485MOL0     H64011   2.934   1.910   0.150  0.2212 -2.0168  0.2715
  485MOL0     H64012   3.018   1.986  -0.120 -2.2766 -0.6539  0.8154
  485MOL0     H64013   3.031   2.085   0.038 -2.9750 -0.7744  0.9076
  485MOL0     H64014   3.173   1.818  -0.003 -1.8309 -0.3134  0.6092
  485MOL0     H64015   3.200   1.937   0.129  0.6093 -2.4776  0.1619
  485MOL0     H64016   3.379   1.926  -0.058 -1.5538 -2.2108 -1.3631
  485MOL0     H64017   3.259   1.978  -0.172  0.5612 -1.7202  0.4843
  485MOL0     H64018   3.403   2.321   0.027 -0.0435 -0.3553  3.9485
  485MOL0     H64019   2.595   2.065  -0.063 -1.3863  3.1765  1.5450
  485MOL0     H64020   2.392   2.083   0.085 -3.4427 -3.0483 -0.2834
  486MOL0     O64021   0.094   9.769   1.705 -1.0232  0.6919 -0.2803
  486MOL0     C64022   0.132   9.740   1.821  0.9398 -1.0095 -0.0715
  486MOL0     O64023   0.044   9.730   1.929 -0.1796 -0.1299  0.0240
  486MOL0     C64024  -0.094   9.737   1.913 -0.2217 -0.3266  0.2237
  486MOL0     C64025  -0.172   9.773   2.030 -0.6396 -0.7622 -0.2371
  486MOL0     C64026  -0.310   9.791   2.031 -0.0505  0.5937  0.7213
  486MOL0     C64027  -0.383   9.779   1.915 -0.9426 -0.2222  0.3335
  486MOL0     O64028  -0.513   9.805   1.933 -0.2996  0.0089  0.0928
  486MOL0     C64029  -0.616   9.753   1.848 -0.0958 -0.0149  0.9089
  486MOL0     C64030  -0.741   9.758   1.933 -0.6025  0.2882 -0.1114
  486MOL0     C64031  -0.845   9.708   1.839  0.1580 -0.1536  0.0142
  486MOL0     C64032  -0.986   9.726   1.901  0.6030 -0.4635  0.1370
  486MOL0     C64033  -1.106   9.686   1.814 -1.0841 -0.0290  0.5902
  486MOL0     C64034  -1.225   9.690   1.906  0.7899  1.0679  0.5231
  486MOL0     C64035  -1.347   9.638   1.832  0.5486  0.0825 -0.3792
  486MOL0     C64036  -1.409   9.751   1.743 -0.2849 -1.1021  0.0832
  486MOL0     N64037  -1.525   9.713   1.659  0.4352  0.4272  0.1680
  486MOL0     C64038  -1.640   9.678   1.713  1.3215  0.4500  0.4340
  486MOL0     C64039  -1.733   9.670   1.615  0.5909  0.0925  0.1922
  486MOL0     C64040  -1.870   9.608   1.634 -0.5275  0.0954 -0.4673
  486MOL0     C64041  -1.983   9.696   1.567  0.0629 -0.5527 -0.6864
  486MOL0     C64042  -2.115   9.618   1.596  0.2846 -0.7374  0.6151
  486MOL0     C64043  -2.241   9.697   1.560  0.1026 -0.2281  0.0655
  486MOL0     O64044  -2.356   9.623   1.602 -1.1268  0.3308  0.2966
  486MOL0     C64045  -2.471   9.669   1.542 -0.3682 -0.0518 -0.1978
  486MOL0     C64046  -2.485   9.798   1.477 -0.0762 -0.7698  0.7770
  486MOL0     C64047  -2.615   9.832   1.424 -0.1670  0.2086  0.2487
  486MOL0     C64048  -2.718   9.739   1.417 -0.8089 -0.0476 -0.2236
  486MOL0     C64049  -2.856   9.782   1.371 -0.6409  0.1518  0.4130
  486MOL0     O64050  -2.867   9.904   1.304  0.0054 -0.0639 -0.0158
  486MOL0     C64051  -2.982   9.922   1.242 -0.1144 -0.2449 -0.1138
  486MOL0     C64052  -3.111   9.921   1.301 -0.6971  0.3945 -0.8161
  486MOL0     C64053  -3.221   9.958   1.226  0.1915  0.2574  0.1154
  486MOL0     C64054  -3.198  10.007   1.091  0.6814  0.4441  0.1485
  486MOL0     O64055  -3.296  10.046   1.001  0.3973 -0.0375 -0.0559
  486MOL0     C64056  -3.430  10.084   1.047 -0.2485  0.3488 -0.0656
  486MOL0     C64057  -3.421  10.224   1.104 -0.0160  0.6349 -0.1397
  486MOL0     C64058  -3.561  10.287   1.138 -0.0715  0.3249  0.6492
  486MOL0     C64059  -3.641  10.327   1.011  0.8668 -0.0177  0.3944
  486MOL0     C64060  -3.776  10.390   1.045 -0.1685 -0.9576  0.1106
  486MOL0     C64061  -3.830  10.448   0.908 -0.4009  0.8476 -0.1515
  486MOL0     C64062  -3.975  10.507   0.927  0.7043 -0.1366  0.3221
  486MOL0     C64063  -4.071  10.389   0.935 -0.0401 -0.0644  0.9039
  486MOL0    Cl64064  -4.239  10.448   0.931  0.2813 -0.2676 -0.1983
  486MOL0     C64065  -3.072  10.001   1.028  1.3093 -0.4710  0.4190
  486MOL0     C64066  -2.965   9.961   1.102  0.0291  0.7986 -1.5752
  486MOL0     O64067  -2.949   9.700   1.387  1.1013 -0.2021 -0.5744
  486MOL0     C64068  -2.693   9.616   1.475 -0.3680  0.1290  0.2017
  486MOL0     C64069  -2.573   9.584   1.548  0.2325  0.2335  0.4681
  486MOL0     N64070  -1.666   9.718   1.503  0.1051  0.1893  0.2334
  486MOL0     N64071  -1.544   9.747   1.528  0.6922  0.1796  0.4049
  486MOL0     C64072  -0.320   9.749   1.793 -0.7659 -0.3213 -0.0477
  486MOL0     C64073  -0.183   9.726   1.797 -0.0972 -0.7266  0.2829
  486MOL0     C64074   0.276   9.730   1.844 -0.5260  0.8182 -0.3000
  486MOL0     C64075   0.367   9.717   1.734  1.2147 -1.1151  0.0357
  486MOL0     C64076   0.504   9.715   1.768  0.7915  0.0531  0.0409
  486MOL0     C64077   0.551   9.736   1.897  0.8211  0.3329  0.2485
  486MOL0     O64078   0.683   9.738   1.916 -0.5667 -0.0114 -0.4758
  486MOL0     C64079   0.757   9.822   1.836 -0.7000 -0.4390  0.3271
  486MOL0     C64080   0.902   9.795   1.852 -0.1323  0.7735 -0.1164
  486MOL0     C64081   0.969   9.673   1.796  0.2334  0.6401 -0.0886
  486MOL0     C64082   1.111   9.642   1.862  0.0329  0.6809  0.4999
  486MOL0     C64083   1.193   9.756   1.841 -0.2940 -0.8057 -0.7516
  486MOL0     C64084   1.274   9.846   1.824 -1.0648  0.3969 -0.3846
  486MOL0     C64085   0.464   9.751   2.002  0.3635 -0.0106 -0.5489
  486MOL0     C64086   0.328   9.742   1.976  0.2597  0.7760 -0.4813
  486MOL0     H64087  -0.118   9.787   2.123 -0.1627  0.6072 -0.6972
  486MOL0     H64088  -0.359   9.807   2.126 -0.1215  2.2482  0.4432
  486MOL0     H64089  -0.584   9.652   1.820  0.2788 -0.7877  3.7752
  486MOL0     H64090  -0.637   9.817   1.762  0.5227  0.7082  1.2908
  486MOL0     H64091  -0.761   9.860   1.966  1.9623 -0.3789  4.4359
  486MOL0     H64092  -0.732   9.703   2.028 -0.0005  0.9273  0.2113
  486MOL0     H64093  -0.830   9.601   1.829  0.7056 -0.1266  0.4662
  486MOL0     H64094  -0.839   9.757   1.741  1.6845  0.9482  0.5988
  486MOL0     H64095  -0.992   9.654   1.984  0.4164  0.5328  1.0010
  486MOL0     H64096  -0.993   9.827   1.943  0.0087 -0.0041 -1.0322
  486MOL0     H64097  -1.087   9.588   1.770  0.3011  0.7382 -0.6059
  486MOL0     H64098  -1.109   9.763   1.736 -1.0408 -0.9211 -0.3106
  486MOL0     H64099  -1.249   9.780   1.964 -0.3106 -0.0563  1.8825
  486MOL0     H64100  -1.212   9.612   1.982 -3.6704 -0.7774 -0.2960
  486MOL0     H64101  -1.322   9.553   1.767  0.0461 -2.1746  2.1776
  486MOL0     H64102  -1.425   9.597   1.897 -0.8273  0.2083 -1.8720
  486MOL0     H64103  -1.325   9.775   1.678  1.3865 -3.0218  1.3979
  486MOL0     H64104  -1.427   9.843   1.799 -0.1540 -1.4849  0.7671
  486MOL0     H64105  -1.661   9.645   1.814 -1.8061  0.5895 -0.0642
  486MOL0     H64106  -1.880   9.587   1.741  2.0788 -0.4127 -0.2670
  486MOL0     H64107  -1.884   9.515   1.578 -0.5807  0.0670 -0.4075
  486MOL0     H64108  -1.958   9.706   1.461 -1.6018  0.1790 -1.0417
  486MOL0     H64109  -1.992   9.797   1.608  0.7510 -0.8715  0.2917
  486MOL0     H64110  -2.120   9.529   1.533 -0.1609  0.4285 -1.1004
  486MOL0     H64111  -2.116   9.588   1.701 -0.1794  2.0497  1.5043
  486MOL0     H64112  -2.242   9.719   1.453  1.3424  1.4182  0.3403
  486MOL0     H64113  -2.233   9.794   1.611 -2.0686  1.0842 -1.8750
  486MOL0     H64114  -2.410   9.876   1.472 -1.1154  0.1755 -0.6998
  486MOL0     H64115  -2.626   9.924   1.368  2.2953  0.8433  0.6645
  486MOL0     H64116  -3.129   9.888   1.403 -1.6280  1.7817 -0.4952
  486MOL0     H64117  -3.319   9.945   1.272  0.9277  0.0704  1.7175
  486MOL0     H64118  -3.468  10.014   1.122 -0.5256 -1.4409 -1.8033
  486MOL0     H64119  -3.501  10.066   0.967  1.0482 -1.3159 -0.9180
  486MOL0     H64120  -3.376  10.292   1.031  1.2279  1.1571  1.0684
  486MOL0     H64121  -3.360  10.211   1.193 -1.5964 -2.4340  0.6413
  486MOL0     H64122  -3.543  10.377   1.197  4.0182  0.3173 -0.2876
  486MOL0     H64123  -3.620  10.220   1.200  1.4068  0.9229  2.8073
  486MOL0     H64124  -3.584  10.396   0.947 -0.3920 -0.9809 -1.9048
  486MOL0     H64125  -3.659  10.243   0.943  1.2624  1.4015 -1.5457
  486MOL0     H64126  -3.769  10.468   1.122 -2.1716  1.7548 -2.2577
  486MOL0     H64127  -3.843  10.309   1.075 -1.7607  0.1943 -0.1795
  486MOL0     H64128  -3.838  10.372   0.830 -1.0628  0.7393  0.0126
  486MOL0     H64129  -3.759  10.526   0.880  1.4103  0.4336  2.9263
  486MOL0     H64130  -3.985  10.581   1.006 -1.3422  1.0939 -0.9991
  486MOL0     H64131  -4.012  10.561   0.839 -1.0330 -1.5973  0.0861
  486MOL0     H64132  -4.055  10.327   1.024 -0.5949 -2.9607 -0.9040
  486MOL0     H64133  -4.063  10.318   0.852 -0.8104  0.2070  0.5932
  486MOL0     H64134  -3.059  10.035   0.926  0.0421 -0.4600  0.2444
  486MOL0     H64135  -2.865   9.982   1.065  1.0714  1.1279  1.1690
  486MOL0     H64136  -2.780   9.555   1.495 -0.6862  1.1212  1.9987
  486MOL0     H64137  -2.566   9.498   1.614  1.0758  0.5165  0.7587
  486MOL0     H64138  -0.387   9.749   1.708 -0.4862  1.5401 -0.3056
  486MOL0     H64139  -0.138   9.699   1.702  1.4141 -0.3628  0.8718
  486MOL0     H64140   0.349   9.707   1.627  1.8545  0.0007 -0.1999
  486MOL0     H64141   0.572   9.694   1.687  0.2829 -0.1568 -0.3383
  486MOL0     H64142   0.748   9.928   1.863 -2.2883  0.0578 -1.8069
  486MOL0     H64143   0.721   9.826   1.732  0.7514 -0.6121 -0.2093
  486MOL0     H64144   0.955   9.884   1.816 -1.6056  1.4387 -0.7436
  486MOL0     H64145   0.920   9.806   1.959 -1.1368  1.8861 -0.0404
  486MOL0     H64146   0.981   9.700   1.690 -1.4025  2.2835  0.0902
  486MOL0     H64147   0.892   9.597   1.813 -0.2378  1.4512  1.6503
  486MOL0     H64148   1.107   9.612   1.967 -1.8758  0.4123  0.3800
  486MOL0     H64149   1.165   9.563   1.808 -0.2646  0.8444 -0.0375
  486MOL0     H64150   1.344   9.926   1.816 -1.9955  1.3816  0.9045
  486MOL0     H64151   0.498   9.779   2.101 -0.4272 -0.6472 -0.0942
  486MOL0     H64152   0.268   9.732   2.066  4.2064 -0.9047  2.2029
  487MOL0     O64153   6.251   1.898   5.996  1.1093 -0.0230  0.7215
  487MOL0     C64154   6.297   1.896   5.878 -0.6182  0.1578  0.7987
  487MOL0     O64155   6.249   1.971   5.777  0.2038  0.2758  0.3159
  487MOL0     C64156   6.170   2.078   5.793  0.3999 -0.1855 -0.4896
  487MOL0     C64157   6.228   2.201   5.809  0.5113 -0.4080 -0.2549
  487MOL0     C64158   6.151   2.320   5.838  0.0701 -0.4126  0.4312
  487MOL0     C64159   6.012   2.302   5.850  0.1621  0.3739 -0.1592
  487MOL0     O64160   5.924   2.399   5.893 -0.0294  0.2216  0.6440
  487MOL0     C64161   5.843   2.369   6.014  0.3715  0.3934 -0.0656
  487MOL0     C64162   5.844   2.478   6.117  0.0345 -0.0557 -0.0500
  487MOL0     C64163   5.721   2.487   6.213 -0.3524  0.3909  0.1109
  487MOL0     C64164   5.726   2.600   6.328 -0.3425 -0.2776  0.0524
  487MOL0     C64165   5.605   2.584   6.438  0.1393 -0.3058  0.6592
  487MOL0     C64166   5.602   2.709   6.531  0.2162 -0.6030  0.0293
  487MOL0     C64167   5.480   2.686   6.633  0.0827  0.0795  0.5649
  487MOL0     C64168   5.345   2.744   6.580 -0.0984 -0.0904  0.2869
  487MOL0     N64169   5.355   2.891   6.545 -0.7458 -0.4064 -0.3809
  487MOL0     C64170   5.404   2.991   6.627 -0.8091  1.1049  0.3671
  487MOL0     C64171   5.396   3.107   6.557  0.1589  0.3757 -0.1327
  487MOL0     C64172   5.438   3.249   6.587 -0.9436 -0.0675 -0.4977
  487MOL0     C64173   5.587   3.262   6.587 -0.5166 -0.1317 -0.5757
  487MOL0     C64174   5.654   3.206   6.716  0.7689  0.2241  0.0492
  487MOL0     C64175   5.625   3.286   6.850  0.1430 -0.6059  0.2605
  487MOL0     O64176   5.495   3.262   6.898 -0.5359  0.3096  0.2012
  487MOL0     C64177   5.457   3.142   6.948 -0.0011 -0.1257  0.4953
  487MOL0     C64178   5.550   3.032   6.952 -0.0150  0.9751 -0.2228
  487MOL0     C64179   5.489   2.908   6.980  0.3681  0.5952  0.0206
  487MOL0     C64180   5.353   2.890   6.997  0.2095  0.1882 -0.7611
  487MOL0     C64181   5.291   2.757   7.015 -0.3119 -0.2488  0.8151
  487MOL0     O64182   5.172   2.755   7.067  0.1905  0.2772  0.1616
  487MOL0     C64183   5.091   2.647   7.081  0.5682 -0.4928 -0.5793
  487MOL0     C64184   5.012   2.643   7.204 -0.0020 -0.0267  0.7029
  487MOL0     C64185   4.925   2.535   7.225 -0.4177  1.2799  0.2885
  487MOL0     C64186   4.916   2.440   7.124 -0.5321  0.7536 -0.5232
  487MOL0     O64187   4.823   2.338   7.129 -0.0128 -0.3553 -0.1541
  487MOL0     C64188   4.716   2.354   7.034 -0.4707 -1.3717  0.1310
  487MOL0     C64189   4.587   2.324   7.100 -0.5759 -0.4007  0.3808
  487MOL0     C64190   4.479   2.360   7.008 -0.0392 -0.3935  0.3150
  487MOL0     C64191   4.356   2.384   7.089  0.6360 -0.7949  0.4485
  487MOL0     C64192   4.346   2.522   7.165 -0.4393 -0.4075 -0.3230
  487MOL0     C64193   4.212   2.537   7.236  0.2992 -0.3850  0.3924
  487MOL0     C64194   4.217   2.658   7.330 -1.7673  0.3114  0.0753
  487MOL0     C64195   4.107   2.652   7.447 -0.3752  0.8045 -0.0809
  487MOL0    Cl64196   3.945   2.647   7.385 -0.0848  0.2737  0.4889
  487MOL0     C64197   4.984   2.450   7.005  0.3199  0.0396  0.8496
  487MOL0     C64198   5.078   2.548   6.981 -0.0518  0.3919  0.2326
  487MOL0     O64199   5.349   2.656   6.974  0.0604 -0.2394  0.4587
  487MOL0     C64200   5.268   3.005   7.002  0.4656  0.3755  0.5926
  487MOL0     C64201   5.324   3.124   6.967 -0.0420  0.4314 -0.0697
  487MOL0     N64202   5.317   3.078   6.441 -0.4354 -0.3858  0.1614
  487MOL0     N64203   5.289   2.955   6.439 -0.2135 -0.0397 -0.0417
  487MOL0     C64204   5.951   2.175   5.833  0.0694  0.6229 -0.5327
  487MOL0     C64205   6.028   2.058   5.811 -0.6083 -0.7822  0.0177
  487MOL0     C64206   6.405   1.807   5.855  0.2081 -0.1262 -0.5523
  487MOL0     C64207   6.479   1.826   5.738 -0.0930 -0.2547  0.2940
  487MOL0     C64208   6.580   1.740   5.696  0.3882  0.6819  0.2940
  487MOL0     C64209   6.612   1.629   5.781 -0.0537 -1.1974 -0.3401
  487MOL0     O64210   6.715   1.548   5.745  0.0455  0.4900  0.4113
  487MOL0     C64211   6.818   1.526   5.835 -0.2670  0.5823 -0.1138
  487MOL0     C64212   6.893   1.644   5.878 -1.2637 -0.2507 -0.4408
  487MOL0     C64213   6.975   1.721   5.768 -0.0507  0.2010  0.1609
  487MOL0     C64214   7.054   1.635   5.667  0.4946 -0.2851 -0.6494
  487MOL0     C64215   7.161   1.549   5.716  0.9943 -0.4480  0.5767
  487MOL0     C64216   7.250   1.477   5.761 -0.4027 -1.3431  0.4296
  487MOL0     C64217   6.543   1.615   5.905  0.7194  0.3736  1.0275
  487MOL0     C64218   6.443   1.706   5.941  0.8033 -0.4495 -0.2759
  487MOL0     H64219   6.336   2.202   5.815  0.4381 -0.0558  2.2731
  487MOL0     H64220   6.204   2.413   5.856  0.9241 -0.9864  0.9936
  487MOL0     H64221   5.871   2.278   6.068 -2.8905 -0.1315  0.9383
  487MOL0     H64222   5.738   2.359   5.986  0.7351 -0.9325 -1.0882
  487MOL0     H64223   5.853   2.569   6.056 -0.2622  1.1694  1.6512
  487MOL0     H64224   5.930   2.473   6.184  2.0457 -0.5248 -2.5237
  487MOL0     H64225   5.712   2.396   6.274 -1.4382 -0.2162 -0.9010
  487MOL0     H64226   5.631   2.498   6.151  0.8686 -4.2393 -2.9738
  487MOL0     H64227   5.822   2.593   6.381 -0.5823 -2.7791  0.2849
  487MOL0     H64228   5.720   2.699   6.283 -2.0099 -0.3253  0.1003
  487MOL0     H64229   5.631   2.493   6.494 -1.6416 -3.0623 -2.5693
  487MOL0     H64230   5.509   2.577   6.387 -0.1844  0.4009  1.1730
  487MOL0     H64231   5.595   2.800   6.472  3.3495  0.1639  0.6230
  487MOL0     H64232   5.697   2.719   6.584 -0.5237  1.4449  1.0384
  487MOL0     H64233   5.463   2.580   6.655  0.0179  0.2280  1.2367
  487MOL0     H64234   5.508   2.729   6.729 -0.5597 -3.2702  2.4157
  487MOL0     H64235   5.271   2.731   6.659  0.8760 -0.0172  1.2389
  487MOL0     H64236   5.313   2.693   6.489 -0.3027  4.1062 -2.2876
  487MOL0     H64237   5.448   2.964   6.722 -1.0248 -4.2299 -0.7531
  487MOL0     H64238   5.394   3.295   6.676 -0.0122  3.5415 -1.7523
  487MOL0     H64239   5.390   3.312   6.513 -0.3117  2.0517  0.8052
  487MOL0     H64240   5.615   3.367   6.576 -0.0884 -0.2567 -0.7018
  487MOL0     H64241   5.624   3.209   6.499  0.5660 -2.1299  0.9864
  487MOL0     H64242   5.630   3.100   6.722  1.9903 -0.1803 -1.4636
  487MOL0     H64243   5.762   3.186   6.708  0.5196 -2.6851  2.2392
  487MOL0     H64244   5.637   3.392   6.829 -1.2921 -0.6396 -0.8887
  487MOL0     H64245   5.697   3.269   6.931  1.3835  2.1822 -0.1410
  487MOL0     H64246   5.658   3.038   6.949  0.0205  0.2678 -3.0578
  487MOL0     H64247   5.552   2.819   6.979 -0.9282 -0.3969 -2.4560
  487MOL0     H64248   5.033   2.726   7.270  0.7701 -0.0280  0.4689
  487MOL0     H64249   4.850   2.526   7.302  0.0116 -0.1602  0.5840
  487MOL0     H64250   4.729   2.281   6.954  2.5475 -0.8630  0.0591
  487MOL0     H64251   4.715   2.454   6.991 -2.7288 -0.0849  2.8621
  487MOL0     H64252   4.591   2.374   7.197  1.4924  1.2141 -0.4687
  487MOL0     H64253   4.580   2.218   7.125 -0.0153 -0.5935 -0.2568
  487MOL0     H64254   4.469   2.274   6.941  1.1615 -0.6130  0.3875
  487MOL0     H64255   4.505   2.445   6.945 -1.1456 -0.2361  0.0625
  487MOL0     H64256   4.271   2.390   7.020  0.5341  0.7674  0.6821
  487MOL0     H64257   4.341   2.300   7.158 -1.3136 -1.3793 -0.5855
  487MOL0     H64258   4.360   2.611   7.104  4.0918 -1.2881 -0.9267
  487MOL0     H64259   4.426   2.524   7.239  0.3751 -1.0949 -1.1531
  487MOL0     H64260   4.180   2.443   7.282  1.6122 -1.1689 -0.2198
  487MOL0     H64261   4.140   2.554   7.156  1.3529 -0.3330 -0.5728
  487MOL0     H64262   4.309   2.668   7.390 -1.4474  2.7521 -0.7469
  487MOL0     H64263   4.209   2.749   7.271  0.2389  2.4776  2.8411
  487MOL0     H64264   4.114   2.742   7.509  1.2769  1.5445 -1.2924
  487MOL0     H64265   4.122   2.562   7.507 -0.9889  0.3930 -0.5257
  487MOL0     H64266   4.966   2.372   6.931 -1.6963 -0.1905  1.5266
  487MOL0     H64267   5.134   2.563   6.890 -0.9187 -2.1749 -0.7960
  487MOL0     H64268   5.161   3.005   7.015 -0.2081 -0.8623 -3.4555
  487MOL0     H64269   5.259   3.211   6.967  0.9995  1.2311  0.1449
  487MOL0     H64270   5.845   2.159   5.849  0.2890  0.3627  0.8068
  487MOL0     H64271   5.994   1.955   5.814 -1.2304 -0.5731  0.2928
  487MOL0     H64272   6.457   1.919   5.687  0.5870  0.3922  1.1397
  487MOL0     H64273   6.650   1.759   5.616 -1.5509  1.4375 -1.2954
  487MOL0     H64274   6.883   1.450   5.792  0.7381  2.4791 -2.1385
  487MOL0     H64275   6.781   1.490   5.931  0.8716  2.5317  1.1272
  487MOL0     H64276   6.826   1.721   5.918  2.3923  1.7614  2.3105
  487MOL0     H64277   6.949   1.613   5.966 -1.6595  0.1924 -0.0220
  487MOL0     H64278   7.047   1.783   5.822 -0.3667  2.5729 -1.9816
  487MOL0     H64279   6.909   1.785   5.709 -1.4100 -4.2443 -3.7716
  487MOL0     H64280   6.974   1.585   5.612 -3.0256  1.6529  2.2744
  487MOL0     H64281   7.102   1.701   5.595 -0.8032  0.8455 -0.5074
  487MOL0     H64282   7.321   1.414   5.811  1.5834  0.1521 -0.3816
  487MOL0     H64283   6.566   1.535   5.975 -0.1078 -0.9382 -0.1347
  487MOL0     H64284   6.387   1.695   6.033  0.5425 -0.3577 -0.4238
  488MOL0     O64285   4.309   4.706   5.530 -0.1037 -0.1155  0.1908
  488MOL0     C64286   4.371   4.617   5.594 -0.0105  0.3400  0.8553
  488MOL0     O64287   4.314   4.500   5.654  0.3455 -0.6633 -0.0927
  488MOL0     C64288   4.181   4.504   5.678 -0.1145 -0.4256  0.5947
  488MOL0     C64289   4.107   4.385   5.655  0.2500 -0.4063 -0.0492
  488MOL0     C64290   3.972   4.380   5.685 -0.4028 -0.9612  0.4987
  488MOL0     C64291   3.904   4.500   5.709  1.1741 -0.2829 -0.9237
  488MOL0     O64292   3.763   4.499   5.704 -0.0199 -0.4665  0.2634
  488MOL0     C64293   3.692   4.601   5.772  0.6232 -0.8583  0.2299
  488MOL0     C64294   3.545   4.573   5.763  0.3290  0.4680  0.2809
  488MOL0     C64295   3.510   4.456   5.847 -0.4579  0.1039 -0.7021
  488MOL0     C64296   3.360   4.429   5.831  1.2242  0.4430  0.5489
  488MOL0     C64297   3.330   4.306   5.912 -0.3243  0.1448 -0.6219
  488MOL0     C64298   3.177   4.302   5.935  0.2054 -0.4247  0.3443
  488MOL0     C64299   3.121   4.200   6.036 -0.6532 -0.2492  0.1178
  488MOL0     C64300   2.970   4.184   6.014  0.9251  0.2002 -0.2683
  488MOL0     N64301   2.914   4.085   6.101  0.5930 -0.1467  0.0537
  488MOL0     C64302   2.912   4.086   6.243  0.0265 -0.1491  0.3387
  488MOL0     C64303   2.869   3.962   6.282 -0.1860 -0.0212 -0.2509
  488MOL0     C64304   2.838   3.916   6.432 -0.4944  0.3317  0.0749
  488MOL0     C64305   2.691   3.874   6.458 -0.2673 -0.3818  0.9411
  488MOL0     C64306   2.590   3.990   6.438  0.3173  0.1031 -0.0473
  488MOL0     C64307   2.445   3.940   6.464  0.1515  0.5587  0.0127
  488MOL0     O64308   2.411   3.917   6.602  0.0926  1.0324  0.6530
  488MOL0     C64309   2.288   3.926   6.663  1.0187  0.4753  0.7178
  488MOL0     C64310   2.170   3.982   6.611  0.3914  0.1983  0.1662
  488MOL0     C64311   2.044   3.964   6.674  0.3184  0.0148  0.3353
  488MOL0     C64312   2.041   3.899   6.800  0.4807  0.4784 -0.1659
  488MOL0     C64313   1.910   3.879   6.873  0.7914 -0.0975  0.0577
  488MOL0     O64314   1.792   3.927   6.826 -0.4706  0.2040 -0.5621
  488MOL0     C64315   1.681   3.915   6.900  0.5116  0.7844 -0.7762
  488MOL0     C64316   1.577   3.842   6.836 -0.3276 -0.3786  0.1983
  488MOL0     C64317   1.457   3.841   6.915 -0.2322 -0.7168  0.3347
  488MOL0     C64318   1.437   3.899   7.043 -0.2312  0.1819  0.0863
  488MOL0     O64319   1.319   3.905   7.108 -0.4668 -0.2366  0.4671
  488MOL0     C64320   1.199   3.857   7.046  0.6718  0.4256  0.4360
  488MOL0     C64321   1.071   3.914   7.122  0.1552  0.4830  0.4571
  488MOL0     C64322   1.083   4.052   7.174  0.4074  0.4452  0.0653
  488MOL0     C64323   0.957   4.106   7.251  0.4663 -0.3878 -0.5029
  488MOL0     C64324   0.833   4.126   7.153  0.1646 -0.4294 -0.3937
  488MOL0     C64325   0.709   4.192   7.210  0.9849  0.1423  0.0080
  488MOL0     C64326   0.631   4.120   7.317  0.1357  0.1618 -0.4244
  488MOL0     C64327   0.528   4.212   7.375  0.6911  0.1570  0.1095
  488MOL0    Cl64328   0.432   4.305   7.240  0.0109 -0.1344  0.4079
  488MOL0     C64329   1.544   3.965   7.104 -0.3173 -0.5612 -0.4354
  488MOL0     C64330   1.663   3.970   7.031 -0.2640 -0.7798  0.3742
  488MOL0     O64331   1.930   3.847   6.989  0.7850  0.3714 -0.0241
  488MOL0     C64332   2.159   3.847   6.852  0.7675 -0.4669 -0.1583
  488MOL0     C64333   2.276   3.859   6.783  0.2761  0.7550 -1.4592
  488MOL0     N64334   2.847   3.884   6.170 -0.3514 -1.0751 -0.2717
  488MOL0     N64335   2.869   3.960   6.066 -0.3072 -0.0979  0.2952
  488MOL0     C64336   3.979   4.612   5.746 -0.1337 -0.5533  0.1777
  488MOL0     C64337   4.119   4.619   5.734  0.1372 -0.1250  1.1118
  488MOL0     C64338   4.516   4.636   5.609 -0.0298 -0.5176 -0.4222
  488MOL0     C64339   4.571   4.761   5.597  0.0886 -0.3857 -0.1037
  488MOL0     C64340   4.709   4.778   5.587 -0.2828 -0.2615  0.0362
  488MOL0     C64341   4.799   4.672   5.591  0.1793 -0.7252  0.2221
  488MOL0     O64342   4.927   4.711   5.575  0.0918  0.2761 -0.8561
  488MOL0     C64343   5.036   4.611   5.589 -0.1308 -0.2701 -0.0722
  488MOL0     C64344   5.174   4.681   5.583  0.8794  0.9408 -0.6645
  488MOL0     C64345   5.208   4.746   5.452  0.6899  1.0862 -0.1772
  488MOL0     C64346   5.329   4.834   5.462 -0.1583 -0.7695  0.6490
  488MOL0     C64347   5.366   4.911   5.339  0.3870  0.2243 -0.3579
  488MOL0     C64348   5.395   4.976   5.235 -0.4508  0.2623 -1.3842
  488MOL0     C64349   4.743   4.547   5.601 -0.8365 -0.2539 -0.3450
  488MOL0     C64350   4.606   4.524   5.614 -0.9766 -0.4132 -0.1646
  488MOL0     H64351   4.153   4.288   5.642  1.2713 -0.6926  4.1070
  488MOL0     H64352   3.926   4.284   5.663  1.2929 -1.0605 -3.4740
  488MOL0     H64353   3.717   4.694   5.720 -1.8222 -1.1234 -1.5827
  488MOL0     H64354   3.712   4.610   5.879  0.7867  0.2607  0.1231
  488MOL0     H64355   3.508   4.554   5.662  1.4468 -3.6231  0.4713
  488MOL0     H64356   3.494   4.659   5.806  2.0784  1.2027  0.9651
  488MOL0     H64357   3.542   4.480   5.949 -1.1135 -4.2837  0.7512
  488MOL0     H64358   3.572   4.378   5.801  1.9991  1.1668  0.6318
  488MOL0     H64359   3.300   4.514   5.867  0.0200  1.0791 -2.6440
  488MOL0     H64360   3.327   4.417   5.728  2.1686  2.1089  0.0030
  488MOL0     H64361   3.378   4.314   6.010  0.6402 -0.6045 -1.0181
  488MOL0     H64362   3.369   4.214   5.869 -1.9571  0.4334 -2.8760
  488MOL0     H64363   3.135   4.302   5.834  1.8857 -1.2050 -0.4119
  488MOL0     H64364   3.160   4.398   5.983  2.4572  2.1487 -3.4793
  488MOL0     H64365   3.161   4.100   6.018  0.2183 -0.0008  0.6657
  488MOL0     H64366   3.159   4.225   6.135  0.3290  1.8646 -0.7381
  488MOL0     H64367   2.939   4.153   5.914  1.4903 -0.5356 -0.2215
  488MOL0     H64368   2.923   4.281   6.036  0.7789  0.3409 -1.1687
  488MOL0     H64369   2.942   4.168   6.308 -0.1404 -0.3771  0.7041
  488MOL0     H64370   2.851   3.999   6.502 -0.3942  0.9369 -0.6577
  488MOL0     H64371   2.898   3.829   6.459 -0.1924  1.0458  1.8887
  488MOL0     H64372   2.679   3.819   6.551  0.8572 -0.2877  1.1634
  488MOL0     H64373   2.663   3.794   6.390  0.1372 -0.1407  0.4788
  488MOL0     H64374   2.617   4.059   6.518 -0.1377 -1.1759  1.2642
  488MOL0     H64375   2.609   4.021   6.335 -0.6247 -1.7457 -0.8356
  488MOL0     H64376   2.438   3.842   6.416  1.6671 -0.5833  2.0065
  488MOL0     H64377   2.382   4.016   6.416  1.6273  0.3323 -2.4974
  488MOL0     H64378   2.166   4.031   6.514 -0.0402  4.6237  2.1790
  488MOL0     H64379   1.949   3.999   6.633 -2.4433 -3.7078  2.8401
  488MOL0     H64380   1.586   3.794   6.738 -1.3731 -1.1718  0.4706
  488MOL0     H64381   1.367   3.793   6.880  0.7542 -1.0596 -1.8943
  488MOL0     H64382   1.198   3.747   7.045 -2.0096  0.3650  1.3631
  488MOL0     H64383   1.181   3.893   6.944 -2.2982 -1.6442  0.0769
  488MOL0     H64384   1.049   3.850   7.208  2.0437 -0.9933 -0.0941
  488MOL0     H64385   0.988   3.903   7.051  0.0617  0.5941  0.5484
  488MOL0     H64386   1.106   4.114   7.087  1.4703 -0.6085 -0.4281
  488MOL0     H64387   1.164   4.061   7.247 -0.6406  1.0961  1.1917
  488MOL0     H64388   0.931   4.039   7.334  0.3055  2.1591  1.6529
  488MOL0     H64389   0.985   4.206   7.287 -0.7171 -0.3448  0.3662
  488MOL0     H64390   0.797   4.027   7.124 -1.2413  0.1513 -0.7159
  488MOL0     H64391   0.866   4.193   7.074 -1.5285  1.1230  0.1302
  488MOL0     H64392   0.638   4.217   7.130 -0.9677 -0.4134  1.4991
  488MOL0     H64393   0.744   4.288   7.249  0.8517 -0.4852  1.7429
  488MOL0     H64394   0.584   4.026   7.287 -0.6245 -0.0611  1.3496
  488MOL0     H64395   0.699   4.101   7.401 -1.4636  0.0580  0.9003
  488MOL0     H64396   0.581   4.288   7.432 -1.1249 -0.9074  3.4669
  488MOL0     H64397   0.452   4.160   7.434 -0.7349 -0.1543 -1.8939
  488MOL0     H64398   1.533   4.017   7.198  2.5529  1.7616 -1.2059
  488MOL0     H64399   1.753   4.016   7.072 -0.3301 -1.5435  1.4205
  488MOL0     H64400   2.161   3.789   6.943  1.0408 -0.4160 -0.1294
  488MOL0     H64401   2.359   3.808   6.831 -1.1699  0.5591  0.9852
  488MOL0     H64402   3.932   4.706   5.772 -1.0060 -0.2587 -2.1946
  488MOL0     H64403   4.168   4.712   5.761  2.1664 -1.2268  1.4371
  488MOL0     H64404   4.506   4.847   5.591 -0.9691 -1.1515  0.1213
  488MOL0     H64405   4.741   4.882   5.579  1.0436 -0.5994  0.6869
  488MOL0     H64406   5.019   4.528   5.519  1.7853 -0.4773 -0.3620
  488MOL0     H64407   5.023   4.568   5.689 -0.5667 -0.3051 -0.1414
  488MOL0     H64408   5.169   4.762   5.655  0.6274  0.6842 -0.3909
  488MOL0     H64409   5.253   4.609   5.610 -0.8872 -1.6380 -1.9203
  488MOL0     H64410   5.122   4.798   5.409 -0.8544 -1.2381 -0.0694
  488MOL0     H64411   5.233   4.672   5.376  2.1438  0.8555  0.4968
  488MOL0     H64412   5.319   4.900   5.549 -1.3984  2.3363 -1.6843
  488MOL0     H64413   5.421   4.775   5.473  1.6647  1.5499 -1.1366
  488MOL0     H64414   5.433   5.022   5.146 -0.6705  3.0874 -0.1430
  488MOL0     H64415   4.811   4.463   5.593 -3.3155 -2.4302  0.1439
  488MOL0     H64416   4.580   4.419   5.600  0.6428 -0.6893 -1.3162
  489MOL0     O64417   0.523  10.619   7.986 -0.1664 -0.9312  0.0342
  489MOL0     C64418   0.557  10.695   7.889  0.0719 -0.0679  0.2097
  489MOL0     O64419   0.692  10.738   7.861  0.6929 -0.2827  1.0007
  489MOL0     C64420   0.790  10.680   7.933  0.0862  0.0656  0.4751
  489MOL0     C64421   0.889  10.603   7.866 -0.1750 -0.7910  0.3003
  489MOL0     C64422   0.994  10.556   7.951  0.0639 -0.9354  0.1324
  489MOL0     C64423   1.002  10.581   8.090 -0.7834 -0.0918  0.1789
  489MOL0     O64424   1.114  10.537   8.157 -1.0333 -0.1178  0.3059
  489MOL0     C64425   1.098  10.492   8.287 -0.1541  0.0603  0.1542
  489MOL0     C64426   1.216  10.403   8.331  0.1983 -0.0794 -0.8536
  489MOL0     C64427   1.347  10.474   8.330  1.2943  0.5211 -0.2642
  489MOL0     C64428   1.480  10.404   8.354  0.4288  0.3386  0.2092
  489MOL0     C64429   1.471  10.318   8.478 -0.3484  0.0749  0.2248
  489MOL0     C64430   1.615  10.274   8.511  0.8720 -0.4066 -0.0779
  489MOL0     C64431   1.702  10.387   8.566  0.5155 -0.0582 -0.3659
  489MOL0     C64432   1.781  10.336   8.692  0.1793 -0.1831 -0.0633
  489MOL0     N64433   1.839  10.457   8.749 -0.0094 -0.3635 -0.0051
  489MOL0     C64434   1.959  10.512   8.713 -0.3839 -0.0844  0.6745
  489MOL0     C64435   1.978  10.609   8.802  0.4702 -0.3272  1.3907
  489MOL0     C64436   2.087  10.709   8.790 -0.2145 -0.3093  1.1084
  489MOL0     C64437   2.179  10.693   8.904 -0.1533  0.3587 -0.4231
  489MOL0     C64438   2.251  10.555   8.895 -0.7590  0.3691  0.1724
  489MOL0     C64439   2.380  10.547   8.979  0.1668 -0.4154  0.0671
  489MOL0     O64440   2.489  10.614   8.908  0.2997  0.1601  0.1579
  489MOL0     C64441   2.613  10.599   8.964  0.5555 -0.0391  0.0024
  489MOL0     C64442   2.637  10.541   9.090  0.1809 -0.1946 -0.0904
  489MOL0     C64443   2.767  10.522   9.147 -0.3856 -0.4293  0.7362
  489MOL0     C64444   2.881  10.568   9.075 -1.0363 -0.3382 -1.2332
  489MOL0     C64445   3.017  10.575   9.143  0.3488 -0.3276  0.4490
  489MOL0     O64446   3.101  10.664   9.079  0.2237 -0.3217  0.2741
  489MOL0     C64447   3.236  10.673   9.105 -0.5602 -0.1570  0.8859
  489MOL0     C64448   3.324  10.572   9.143  0.2853 -0.1584  0.4715
  489MOL0     C64449   3.460  10.601   9.163  0.0362 -0.6056 -0.1229
  489MOL0     C64450   3.510  10.733   9.155  0.1506  0.4180  0.5234
  489MOL0     O64451   3.643  10.753   9.157  0.2894  0.1288 -0.8680
  489MOL0     C64452   3.704  10.880   9.123  0.2560 -0.2283  0.0761
  489MOL0     C64453   3.856  10.880   9.122  0.4539 -0.4555  0.7040
  489MOL0     C64454   3.905  11.025   9.092 -0.6551  0.1974 -0.2348
  489MOL0     C64455   4.059  11.045   9.099  0.1281 -0.5646  0.6281
  489MOL0     C64456   4.087  11.194   9.108 -0.4995  0.1336 -0.2037
  489MOL0     C64457   4.229  11.235   9.057  0.8840  0.5228 -0.0690
  489MOL0     C64458   4.330  11.223   9.176  0.3257  0.5713  0.4095
  489MOL0     C64459   4.474  11.265   9.131  0.2704  0.6299  0.2868
  489MOL0    Cl64460   4.588  11.255   9.273  0.2077  0.0880  0.3574
  489MOL0     C64461   3.424  10.835   9.116  0.7179  0.2865  0.4182
  489MOL0     C64462   3.294  10.800   9.102 -0.3506 -0.7012  0.0803
  489MOL0     O64463   3.047  10.501   9.233 -0.0784 -0.0317 -0.3013
  489MOL0     C64464   2.856  10.632   8.950  0.3358  0.1650 -0.8090
  489MOL0     C64465   2.725  10.647   8.902  0.3187  0.2335 -0.1359
  489MOL0     N64466   1.874  10.612   8.890  0.1556  0.1488 -0.4939
  489MOL0     N64467   1.793  10.513   8.867 -0.5085 -0.7169  0.1093
  489MOL0     C64468   0.898  10.652   8.144 -0.6448 -0.0190  0.2024
  489MOL0     C64469   0.793  10.701   8.067  0.0529 -0.2691 -0.0224
  489MOL0     C64470   0.445  10.774   7.822  0.7572 -0.0933  1.3327
  489MOL0     C64471   0.454  10.854   7.703 -1.0112 -0.9377  0.6698
  489MOL0     C64472   0.341  10.922   7.654 -0.4917 -0.4988 -0.3179
  489MOL0     C64473   0.219  10.928   7.724 -0.1761  0.2455  0.8902
  489MOL0     O64474   0.107  11.001   7.685 -0.7854  0.3638  0.0052
  489MOL0     C64475   0.132  11.106   7.603  0.5731 -1.3544  0.0768
  489MOL0     C64476   0.002  11.177   7.584  0.8395  0.1862 -1.0878
  489MOL0     C64477  -0.051  11.229   7.724  0.0982 -0.3093 -0.6565
  489MOL0     C64478   0.025  11.355   7.777  0.2454  0.0228 -0.4623
  489MOL0     C64479  -0.032  11.408   7.908 -0.5464  0.1583 -0.1558
  489MOL0     C64480  -0.077  11.453   8.011 -0.5565  0.6364 -0.6664
  489MOL0     C64481   0.205  10.833   7.826  0.3130  0.7307  0.7055
  489MOL0     C64482   0.314  10.758   7.876 -0.8096  0.5838 -0.7745
  489MOL0     H64483   0.879  10.577   7.761  2.2065 -1.5655  0.2056
  489MOL0     H64484   1.065  10.491   7.903 -0.1343  0.1600 -1.7402
  489MOL0     H64485   1.015  10.421   8.293  1.8895 -2.3938  1.5128
  489MOL0     H64486   1.093  10.576   8.357  1.4137 -0.0689  0.4642
  489MOL0     H64487   1.223  10.314   8.268  0.7443 -0.4939 -0.2195
  489MOL0     H64488   1.186  10.382   8.435  0.6185  0.8136 -0.5435
  489MOL0     H64489   1.342  10.556   8.403  3.5407  1.2130 -0.7791
  489MOL0     H64490   1.358  10.512   8.227  0.7679 -2.3141 -1.4460
  489MOL0     H64491   1.503  10.333   8.274 -2.3967 -0.5835  0.0863
  489MOL0     H64492   1.551  10.486   8.368 -2.1036  2.7506 -0.0807
  489MOL0     H64493   1.412  10.227   8.466 -0.5198  0.2377 -0.2000
  489MOL0     H64494   1.418  10.373   8.557 -1.2524 -0.0403 -0.2786
  489MOL0     H64495   1.650  10.244   8.412 -2.0250 -3.4130 -0.3769
  489MOL0     H64496   1.616  10.183   8.571 -1.2674 -0.9349 -0.7557
  489MOL0     H64497   1.776  10.425   8.495 -0.9289  1.8068 -0.9687
  489MOL0     H64498   1.638  10.471   8.595 -0.6612 -0.2024 -2.3461
  489MOL0     H64499   1.863  10.267   8.674 -0.7181 -1.2413 -0.2230
  489MOL0     H64500   1.709  10.288   8.759 -0.6297 -0.7407 -1.2791
  489MOL0     H64501   2.023  10.484   8.629 -0.9841 -0.5426  0.3587
  489MOL0     H64502   2.052  10.813   8.782 -1.2491 -0.7988 -2.7595
  489MOL0     H64503   2.142  10.687   8.699  1.1782 -0.4986  1.9624
  489MOL0     H64504   2.121  10.693   8.996  1.8383 -1.0564  0.9308
  489MOL0     H64505   2.254  10.773   8.908 -0.8683  0.9683  1.3659
  489MOL0     H64506   2.183  10.474   8.921 -1.2423  0.8741  0.4942
  489MOL0     H64507   2.290  10.521   8.798 -2.3112  0.0410 -0.3616
  489MOL0     H64508   2.416  10.443   8.976  1.1976 -0.0682 -0.0815
  489MOL0     H64509   2.360  10.581   9.081 -2.9083 -1.4510 -0.0991
  489MOL0     H64510   2.554  10.506   9.149  0.3690 -0.9653 -0.2763
  489MOL0     H64511   2.775  10.487   9.249  1.3302  0.8481  1.0705
  489MOL0     H64512   3.285  10.473   9.166 -2.0552  0.3979 -0.7290
  489MOL0     H64513   3.536  10.529   9.190  0.0533  0.1766  2.0941
  489MOL0     H64514   3.679  10.947   9.206  0.2442  0.4682 -0.4706
  489MOL0     H64515   3.659  10.928   9.035  0.2719  0.4537  0.4297
  489MOL0     H64516   3.884  10.817   9.037 -3.4780 -1.2202 -0.2339
  489MOL0     H64517   3.891  10.852   9.222  0.4186 -2.2276  0.2631
  489MOL0     H64518   3.869  11.097   9.166 -0.9587 -1.1696  0.9741
  489MOL0     H64519   3.867  11.066   8.997  0.7254  0.3423 -0.7516
  489MOL0     H64520   4.107  10.994   9.183  2.4103  2.2628  1.1993
  489MOL0     H64521   4.106  11.003   9.009 -0.6515 -0.3359  0.1022
  489MOL0     H64522   4.074  11.237   9.208  2.6645  2.5490 -0.6794
  489MOL0     H64523   4.015  11.249   9.047 -0.4394  1.6418  1.0109
  489MOL0     H64524   4.222  11.336   9.016  0.8268  0.5451 -0.0032
  489MOL0     H64525   4.244  11.165   8.974 -0.0552 -0.2418  0.3893
  489MOL0     H64526   4.295  11.285   9.259 -1.7981 -1.0730  0.8295
  489MOL0     H64527   4.331  11.122   9.218  0.7774  0.9154  1.2659
  489MOL0     H64528   4.471  11.370   9.100  4.0074  0.2762 -1.9642
  489MOL0     H64529   4.515  11.196   9.056 -1.9966 -2.4322  1.6681
  489MOL0     H64530   3.450  10.940   9.113  0.3777  0.3698  0.2109
  489MOL0     H64531   3.226  10.879   9.071  0.0186 -0.3291  0.2195
  489MOL0     H64532   2.931  10.678   8.885 -0.8596  1.2527 -1.4642
  489MOL0     H64533   2.719  10.697   8.805  0.6069 -1.4413 -1.0503
  489MOL0     H64534   0.888  10.668   8.251  0.3432  0.6749  0.2079
  489MOL0     H64535   0.708  10.747   8.115 -1.0525 -1.3645 -0.8823
  489MOL0     H64536   0.555  10.868   7.667 -1.0115 -1.9131  0.2748
  489MOL0     H64537   0.354  10.996   7.575  1.1395  1.2179  1.4321
  489MOL0     H64538   0.165  11.081   7.502 -1.0919  0.2217 -0.9280
  489MOL0     H64539   0.209  11.171   7.647  0.6982 -0.2552 -1.6653
  489MOL0     H64540   0.008  11.261   7.514  0.4021  0.6493 -0.5768
  489MOL0     H64541  -0.067  11.106   7.537  0.4903 -1.0826  1.2126
  489MOL0     H64542  -0.050  11.151   7.801 -0.1164  0.6514  0.3322
  489MOL0     H64543  -0.158  11.254   7.719 -0.6298 -2.7989  0.7294
  489MOL0     H64544   0.131  11.336   7.798 -0.1717  1.2801  3.4682
  489MOL0     H64545   0.022  11.435   7.703  0.1285  0.4084 -0.0394
  489MOL0     H64546  -0.119  11.495   8.100 -1.0188 -1.1802 -0.0016
  489MOL0     H64547   0.112  10.812   7.878 -0.0207  0.9528  0.2048
  489MOL0     H64548   0.300  10.679   7.949  2.4308  0.1731 -0.4550
  490MOL0     O64549  10.667   7.167   7.442 -0.0159  0.0859  0.7815
  490MOL0     C64550  10.661   7.274   7.509 -0.5101  0.2269  0.6838
  490MOL0     O64551  10.590   7.387   7.480  0.3242  0.5505  0.2558
  490MOL0     C64552  10.487   7.364   7.393 -0.2283 -0.5326 -0.3523
  490MOL0     C64553  10.391   7.272   7.428 -0.3263  0.2024 -0.0420
  490MOL0     C64554  10.291   7.249   7.329 -0.3099 -1.0892  0.0615
  490MOL0     C64555  10.278   7.332   7.220  0.7760  0.0994 -0.7335
  490MOL0     O64556  10.184   7.316   7.125  0.5578 -0.1459 -0.1239
  490MOL0     C64557  10.074   7.229   7.146  0.5880  0.2532 -0.2237
  490MOL0     C64558   9.965   7.280   7.041  0.9016  0.8738  0.1733
  490MOL0     C64559   9.854   7.178   7.031 -0.4892 -0.1927  0.8458
  490MOL0     C64560   9.734   7.236   6.950  0.1923 -0.2197  0.1210
  490MOL0     C64561   9.685   7.379   6.994  0.2879 -0.8496 -0.1898
  490MOL0     C64562   9.657   7.401   7.148  0.4311 -0.1053 -0.3932
  490MOL0     C64563   9.545   7.315   7.193  1.0560  0.0346 -0.8160
  490MOL0     C64564   9.524   7.300   7.349 -0.2810  0.1196 -0.0005
  490MOL0     N64565   9.550   7.425   7.418  0.2338 -0.3398 -0.0759
  490MOL0     C64566   9.662   7.456   7.488  0.6960  0.0370  0.8868
  490MOL0     C64567   9.635   7.569   7.555 -0.2578 -0.1013  0.7236
  490MOL0     C64568   9.717   7.632   7.669 -0.3644 -0.8823 -0.4279
  490MOL0     C64569   9.699   7.565   7.805 -0.2779 -0.2723 -0.3052
  490MOL0     C64570   9.561   7.581   7.865  0.2242 -0.1140 -0.2993
  490MOL0     C64571   9.474   7.454   7.856  0.8268  0.2108 -0.3653
  490MOL0     O64572   9.534   7.374   7.964 -0.2820  0.6908  0.2241
  490MOL0     C64573   9.488   7.244   7.984 -1.0900 -0.5410  1.0357
  490MOL0     C64574   9.382   7.177   7.927  0.7365  0.4429  0.0766
  490MOL0     C64575   9.352   7.049   7.964 -0.5383  0.5850  0.2121
  490MOL0     C64576   9.426   6.981   8.065 -0.2768 -1.5691 -0.5179
  490MOL0     C64577   9.387   6.840   8.096 -0.2856 -0.4626 -0.3646
  490MOL0     O64578   9.300   6.775   8.005 -0.4032  0.5508  0.7193
  490MOL0     C64579   9.265   6.642   8.019 -0.5066  0.2670 -0.8132
  490MOL0     C64580   9.148   6.612   7.956  0.1537  0.6808 -0.1257
  490MOL0     C64581   9.110   6.481   7.958  0.1431 -0.3115  0.2531
  490MOL0     C64582   9.175   6.382   8.030 -1.0404 -1.2429  0.1068
  490MOL0     O64583   9.127   6.252   8.015  0.1142 -0.2313 -0.0344
  490MOL0     C64584   9.150   6.167   8.129  0.1470  0.1838  0.4740
  490MOL0     C64585   9.068   6.039   8.116  0.0042  0.3075  0.0505
  490MOL0     C64586   9.117   5.935   8.005  0.5629 -0.4658 -0.3908
  490MOL0     C64587   9.008   5.837   7.990 -0.1491  0.0284  0.7796
  490MOL0     C64588   9.027   5.756   7.859  0.2430  0.0445 -0.2562
  490MOL0     C64589   9.161   5.676   7.863  0.1248 -0.5927 -0.4178
  490MOL0     C64590   9.144   5.575   7.742 -0.1870  0.0383  0.2455
  490MOL0     C64591   9.271   5.490   7.722 -0.8141 -0.4444  0.2770
  490MOL0    Cl64592   9.230   5.384   7.578 -0.1695  0.0084 -0.3676
  490MOL0     C64593   9.296   6.420   8.105 -0.4629  0.1005 -0.0880
  490MOL0     C64594   9.344   6.552   8.088 -0.6392  0.1514 -0.2874
  490MOL0     O64595   9.419   6.804   8.204  0.0088 -0.2196 -0.3467
  490MOL0     C64596   9.534   7.051   8.117 -0.0470  0.9461 -0.4145
  490MOL0     C64597   9.564   7.184   8.087 -0.0048  0.3202 -0.3246
  490MOL0     N64598   9.508   7.614   7.510 -0.9373  0.2670  0.5540
  490MOL0     N64599   9.458   7.529   7.429 -0.3627  0.4669 -0.3883
  490MOL0     C64600  10.379   7.422   7.189 -0.2946 -0.0350 -0.3892
  490MOL0     C64601  10.493   7.429   7.270  0.7707 -0.1545 -0.9282
  490MOL0     C64602  10.730   7.273   7.636  0.3960  0.5512 -1.0904
  490MOL0     C64603  10.729   7.391   7.718 -0.5123 -0.4489  0.3108
  490MOL0     C64604  10.814   7.402   7.830 -0.7612 -0.4875 -0.1931
  490MOL0     C64605  10.884   7.289   7.885 -0.2093  0.3961  0.0914
  490MOL0     O64606  10.947   7.272   8.002  0.2687 -0.0439  0.1954
  490MOL0     C64607  10.967   7.393   8.074 -0.0638  0.0261  0.0698
  490MOL0     C64608  11.061   7.376   8.193  0.5785 -0.5134 -0.1120
  490MOL0     C64609  11.199   7.355   8.146  0.0227 -0.0897  0.5822
  490MOL0     C64610  11.291   7.338   8.268  0.0824  0.0290  1.0392
  490MOL0     C64611  11.428   7.353   8.214 -0.6173  1.2010  0.3564
  490MOL0     C64612  11.538   7.374   8.175 -0.9200 -0.4181 -0.1038
  490MOL0     C64613  10.874   7.166   7.810  0.5177 -0.2836 -0.8170
  490MOL0     C64614  10.798   7.155   7.687 -0.4427 -0.5485 -0.6098
  490MOL0     H64615  10.398   7.226   7.527  0.3060  0.7798  0.1913
  490MOL0     H64616  10.221   7.169   7.348 -0.2079 -0.8468  1.5931
  490MOL0     H64617  10.030   7.243   7.245  2.9090  3.2454  0.5604
  490MOL0     H64618  10.105   7.125   7.135  2.3372  0.7139  0.0434
  490MOL0     H64619  10.003   7.294   6.939 -1.8598  0.1865 -1.0796
  490MOL0     H64620   9.920   7.372   7.079 -1.7508 -0.0646 -0.4140
  490MOL0     H64621   9.820   7.145   7.130 -3.2483 -1.4202 -0.3985
  490MOL0     H64622   9.885   7.084   6.983  1.5718 -0.0821  1.8480
  490MOL0     H64623   9.746   7.247   6.842 -1.3996  3.9249  0.1719
  490MOL0     H64624   9.653   7.162   6.958 -1.4549  1.3162 -1.3662
  490MOL0     H64625   9.593   7.386   6.934  0.6041 -0.1317 -0.6081
  490MOL0     H64626   9.746   7.461   6.955 -0.5419  0.4084  1.0484
  490MOL0     H64627   9.629   7.506   7.162  1.0418 -0.2392  2.4672
  490MOL0     H64628   9.751   7.403   7.204 -0.1280  3.1163  0.6377
  490MOL0     H64629   9.452   7.346   7.147  1.3488  0.8136 -0.8904
  490MOL0     H64630   9.554   7.213   7.153 -0.7220  0.6416 -2.9332
  490MOL0     H64631   9.592   7.222   7.385  1.8633  0.9338 -1.9590
  490MOL0     H64632   9.425   7.268   7.380 -0.9211  0.7306 -1.3207
  490MOL0     H64633   9.749   7.392   7.498 -0.3909 -1.3476  2.0569
  490MOL0     H64634   9.686   7.737   7.672 -3.1205 -1.4817 -2.8261
  490MOL0     H64635   9.821   7.641   7.636 -0.4351  3.1330 -0.0739
  490MOL0     H64636   9.767   7.608   7.879 -0.2539  0.0664 -0.5249
  490MOL0     H64637   9.713   7.457   7.791 -2.4045 -0.3624 -2.4192
  490MOL0     H64638   9.577   7.612   7.968  1.8151 -0.7761 -0.3172
  490MOL0     H64639   9.497   7.655   7.817 -0.9768 -1.0176 -0.1439
  490MOL0     H64640   9.474   7.408   7.757 -1.3250 -1.2666  0.2452
  490MOL0     H64641   9.373   7.488   7.885  0.8441 -0.2910  0.2973
  490MOL0     H64642   9.316   7.217   7.850  0.6637  1.0653  0.4525
  490MOL0     H64643   9.268   6.992   7.925  0.2239  0.2292 -0.9612
  490MOL0     H64644   9.083   6.688   7.912 -0.7560 -1.5226 -2.8841
  490MOL0     H64645   9.020   6.442   7.911  0.4644  0.5603 -1.1452
  490MOL0     H64646   9.123   6.207   8.227 -1.7026 -0.9873  0.5024
  490MOL0     H64647   9.255   6.140   8.141  0.1302 -0.7163 -1.0769
  490MOL0     H64648   8.965   6.074   8.102  0.0306  0.9453  1.3193
  490MOL0     H64649   9.054   5.978   8.205  0.5376 -1.5440 -1.0742
  490MOL0     H64650   9.213   5.883   8.015  1.6028  1.0380 -1.8443
  490MOL0     H64651   9.125   5.985   7.908  2.9992  0.2297  0.0841
  490MOL0     H64652   9.011   5.762   8.069  1.7145 -0.2631  0.4908
  490MOL0     H64653   8.911   5.887   7.984 -1.2201 -2.0251 -0.3321
  490MOL0     H64654   9.016   5.816   7.768 -1.1406 -2.9312 -2.1960
  490MOL0     H64655   8.948   5.681   7.846 -0.8779  1.3441 -1.3570
  490MOL0     H64656   9.186   5.616   7.951 -2.0700 -2.7198 -1.1021
  490MOL0     H64657   9.242   5.748   7.856 -1.2932  1.0254 -0.9208
  490MOL0     H64658   9.065   5.504   7.766  1.1452 -2.5362 -2.3988
  490MOL0     H64659   9.124   5.635   7.653  0.3617 -0.8082 -0.4589
  490MOL0     H64660   9.299   5.431   7.810 -2.1805 -1.2957  0.1733
  490MOL0     H64661   9.358   5.553   7.702  0.5566 -1.4264  2.6331
  490MOL0     H64662   9.352   6.343   8.157 -0.0845  0.6686  0.3666
  490MOL0     H64663   9.436   6.570   8.145  0.5891 -1.7701 -1.5370
  490MOL0     H64664   9.588   6.990   8.188 -2.4776 -2.3580 -1.1781
  490MOL0     H64665   9.648   7.233   8.136  2.9527 -1.8597 -2.8051
  490MOL0     H64666  10.373   7.477   7.096  0.5341 -1.6325 -1.4430
  490MOL0     H64667  10.578   7.496   7.261  1.0155  0.3413  3.0766
  490MOL0     H64668  10.660   7.473   7.702 -0.1035 -0.0515  0.5740
  490MOL0     H64669  10.798   7.496   7.883  0.8670 -1.0737  1.4456
  490MOL0     H64670  10.867   7.426   8.105 -0.0638 -0.2671  0.3839
  490MOL0     H64671  10.998   7.478   8.012 -2.4251  2.3597  1.8637
  490MOL0     H64672  11.064   7.468   8.252 -2.3128 -1.1098  1.1472
  490MOL0     H64673  11.007   7.299   8.249  0.8572 -1.3067 -0.9130
  490MOL0     H64674  11.219   7.443   8.083 -1.9951 -0.5520 -0.7937
  490MOL0     H64675  11.205   7.267   8.082 -2.8512 -0.4466  0.6693
  490MOL0     H64676  11.276   7.410   8.350  3.7212  0.4962  1.4801
  490MOL0     H64677  11.267   7.240   8.310 -0.0133 -0.8162 -0.8884
  490MOL0     H64678  11.631   7.396   8.126 -0.3823  1.3921  1.6035
  490MOL0     H64679  10.908   7.066   7.834  1.6979  0.5559  1.3509
  490MOL0     H64680  10.796   7.059   7.635  0.0252 -0.7179 -0.3116
  491MOL0     O64681   1.468   9.610  11.234 -0.6279  0.1668  0.0990
  491MOL0     C64682   1.549   9.643  11.142 -0.4158  0.0444  0.6625
  491MOL0     O64683   1.520   9.649  11.013 -0.2788  0.3389 -0.3417
  491MOL0     C64684   1.409   9.587  10.967  0.2771  0.3070  0.7982
  491MOL0     C64685   1.375   9.452  11.001 -0.6178 -0.7640  0.1668
  491MOL0     C64686   1.260   9.389  10.952  0.3981  0.3067 -0.6221
  491MOL0     C64687   1.168   9.461  10.879  0.5381  0.3139  0.4232
  491MOL0     O64688   1.061   9.383  10.839  0.2450  0.0889 -0.2583
  491MOL0     C64689   0.953   9.433  10.750  0.2428  0.1670  0.3154
  491MOL0     C64690   0.832   9.341  10.783  0.3685 -0.4309  0.4293
  491MOL0     C64691   0.704   9.387  10.719  0.7761 -0.3483 -0.4542
  491MOL0     C64692   0.597   9.269  10.737 -0.4334  0.1249  0.0657
  491MOL0     C64693   0.468   9.296  10.664 -0.5259  0.1782  0.6092
  491MOL0     C64694   0.395   9.418  10.724 -0.5418 -0.4349  0.3722
  491MOL0     C64695   0.264   9.427  10.632  0.1795 -0.0394  0.2118
  491MOL0     C64696   0.173   9.548  10.681  0.2955  0.1177 -0.9225
  491MOL0     N64697   0.065   9.565  10.582 -0.1783 -0.0217 -0.7975
  491MOL0     C64698  -0.050   9.490  10.566  0.1842 -0.7579  0.0475
  491MOL0     C64699  -0.120   9.542  10.463  0.3766  0.1719 -0.3327
  491MOL0     C64700  -0.251   9.500  10.399 -0.1004 -0.4799 -0.7072
  491MOL0     C64701  -0.350   9.606  10.451 -0.8607 -0.3786  0.0842
  491MOL0     C64702  -0.499   9.555  10.424 -0.3073  0.0652 -0.5573
  491MOL0     C64703  -0.610   9.622  10.513  0.0794 -0.4550  0.1244
  491MOL0     O64704  -0.619   9.766  10.499 -0.1742  0.3484 -0.4567
  491MOL0     C64705  -0.714   9.826  10.581 -0.5009 -0.1195  0.0244
  491MOL0     C64706  -0.709   9.962  10.598  0.5725  0.2021  0.4411
  491MOL0     C64707  -0.802  10.034  10.674  0.0310 -0.4655 -0.5182
  491MOL0     C64708  -0.891   9.971  10.759 -0.8232 -0.6436 -0.6476
  491MOL0     C64709  -0.972  10.044  10.856 -0.2460 -0.6776 -0.1881
  491MOL0     O64710  -1.027   9.974  10.954 -1.0284 -0.1824  0.0574
  491MOL0     C64711  -1.133  10.027  11.038  0.7354  1.3472 -0.2662
  491MOL0     C64712  -1.161   9.951  11.159 -0.8749  0.0545  0.7940
  491MOL0     C64713  -1.265   9.982  11.247  0.6630 -0.0032  0.3170
  491MOL0     C64714  -1.336  10.099  11.226  0.8550  0.5221 -0.5600
  491MOL0     O64715  -1.438  10.145  11.305  0.6845  0.3608 -0.0231
  491MOL0     C64716  -1.498  10.065  11.400 -0.4941  0.0937  0.0421
  491MOL0     C64717  -1.607   9.983  11.319  0.4507 -0.7728 -0.9297
  491MOL0     C64718  -1.721  10.083  11.261  0.0865  0.0253 -0.0681
  491MOL0     C64719  -1.812  10.007  11.164 -0.4537  0.2685 -0.0679
  491MOL0     C64720  -1.904  10.098  11.086  0.0483  0.2546 -0.8189
  491MOL0     C64721  -2.036  10.127  11.152  0.3658  0.1971 -0.5508
  491MOL0     C64722  -2.114  10.249  11.096  0.1302  1.1125 -0.0322
  491MOL0     C64723  -2.231  10.289  11.172 -1.2869 -0.4297  0.5104
  491MOL0    Cl64724  -2.302  10.410  11.063 -0.2562  0.3991  0.0477
  491MOL0     C64725  -1.308  10.167  11.117 -0.7842 -0.0567  0.0858
  491MOL0     C64726  -1.208  10.139  11.021  0.6774  0.5639  0.2961
  491MOL0     O64727  -0.985  10.164  10.832 -0.4215 -0.4485 -0.5296
  491MOL0     C64728  -0.894   9.830  10.746  0.8925 -0.5847 -0.8122
  491MOL0     C64729  -0.814   9.760  10.654  0.1939  0.1814 -0.9902
  491MOL0     N64730  -0.051   9.649  10.420  0.6867  0.3311  0.2425
  491MOL0     N64731   0.061   9.656  10.488  0.3852 -1.1161 -0.0527
  491MOL0     C64732   1.191   9.592  10.850 -0.5759 -1.0136 -0.2706
  491MOL0     C64733   1.315   9.659  10.890  0.6059  0.6607 -0.1999
  491MOL0     C64734   1.679   9.696  11.185  0.1129 -0.2294  0.0352
  491MOL0     C64735   1.794   9.686  11.102  0.6698  0.1381 -0.3355
  491MOL0     C64736   1.915   9.737  11.142  0.0135  0.0210 -0.4152
  491MOL0     C64737   1.928   9.813  11.262 -0.9114 -0.2343  0.7379
  491MOL0     O64738   2.047   9.853  11.326 -0.4678 -0.0845 -0.3723
  491MOL0     C64739   2.162   9.857  11.242 -0.4688 -0.3286  0.0335
  491MOL0     C64740   2.291   9.930  11.298 -1.4552 -0.1603 -0.0612
  491MOL0     C64741   2.263  10.014  11.431 -0.4668  0.1793 -0.0635
  491MOL0     C64742   2.387  10.098  11.473 -0.0698  0.0783  0.2273
  491MOL0     C64743   2.504  10.011  11.500  0.5026  0.7041  0.7117
  491MOL0     C64744   2.597   9.938  11.539 -0.0505 -0.9152 -0.0337
  491MOL0     C64745   1.810   9.849  11.333  0.6033  1.2546  0.2401
  491MOL0     C64746   1.688   9.783  11.300 -1.0462 -0.2247 -0.0184
  491MOL0     H64747   1.443   9.394  11.063 -2.4878 -1.8405  1.2808
  491MOL0     H64748   1.247   9.284  10.978 -0.6474  1.1171  2.6319
  491MOL0     H64749   0.987   9.418  10.647  0.5081  1.0595  0.2667
  491MOL0     H64750   0.927   9.537  10.769 -2.3534 -0.0418 -1.6642
  491MOL0     H64751   0.818   9.339  10.891 -0.7939 -1.3034  0.2787
  491MOL0     H64752   0.855   9.238  10.751 -2.1572 -1.4491  1.6193
  491MOL0     H64753   0.715   9.410  10.613  2.7195 -1.5185 -0.5537
  491MOL0     H64754   0.679   9.484  10.764  1.5357  0.1115 -1.0008
  491MOL0     H64755   0.637   9.175  10.698 -2.8905 -0.4499 -1.2576
  491MOL0     H64756   0.575   9.250  10.842 -0.2808  0.1141  0.0956
  491MOL0     H64757   0.401   9.210  10.673  1.2380 -1.1856  1.1499
  491MOL0     H64758   0.483   9.321  10.558 -0.1492 -0.7789  0.4308
  491MOL0     H64759   0.447   9.514  10.719 -2.9780  0.9124 -0.6170
  491MOL0     H64760   0.356   9.410  10.826 -0.0006 -2.3644  0.4710
  491MOL0     H64761   0.293   9.433  10.527 -0.6680 -0.1787 -0.0394
  491MOL0     H64762   0.210   9.333  10.651 -0.7289 -0.2032 -2.7340
  491MOL0     H64763   0.218   9.647  10.692  0.7799 -0.2714  0.9954
  491MOL0     H64764   0.136   9.528  10.782  0.7185  1.5447 -0.4610
  491MOL0     H64765  -0.070   9.402  10.627 -0.8140 -0.1568  0.6011
  491MOL0     H64766  -0.283   9.408  10.449  0.0313 -0.2744 -0.2384
  491MOL0     H64767  -0.242   9.491  10.290  0.2823  0.0359 -0.7245
  491MOL0     H64768  -0.331   9.711  10.427  2.0984 -0.9680 -0.5785
  491MOL0     H64769  -0.325   9.617  10.556  0.6595 -0.1095 -0.2809
  491MOL0     H64770  -0.522   9.578  10.320  0.3488  1.2818 -0.4588
  491MOL0     H64771  -0.508   9.448  10.443  1.0472  0.3460  2.2452
  491MOL0     H64772  -0.606   9.605  10.621 -2.6045  0.2624  0.4260
  491MOL0     H64773  -0.703   9.577  10.478  1.5601 -2.3281 -1.6475
  491MOL0     H64774  -0.637  10.016  10.537 -0.5472  0.4176 -0.7220
  491MOL0     H64775  -0.789  10.142  10.682 -0.6887 -0.4510  0.7796
  491MOL0     H64776  -1.099   9.866  11.186 -2.1534 -2.4557 -3.2671
  491MOL0     H64777  -1.279   9.915  11.332 -4.0385 -0.9244 -0.9280
  491MOL0     H64778  -1.542  10.134  11.472 -0.2188  1.1521 -0.7790
  491MOL0     H64779  -1.431   9.998  11.455  1.4369  2.7479  1.0994
  491MOL0     H64780  -1.652   9.919  11.396  2.1721  1.9220  2.6266
  491MOL0     H64781  -1.554   9.929  11.240  0.6648 -2.0830  0.0793
  491MOL0     H64782  -1.685  10.171  11.206  0.3075 -0.1574 -0.2207
  491MOL0     H64783  -1.784  10.123  11.340  1.9920 -0.8571  2.0015
  491MOL0     H64784  -1.748   9.953  11.092  1.5160  1.2606  0.8542
  491MOL0     H64785  -1.871   9.938  11.224 -1.6398 -0.4214 -1.9515
  491MOL0     H64786  -1.921  10.049  10.989  0.8748 -0.0519 -0.8189
  491MOL0     H64787  -1.851  10.184  11.044  2.8101 -0.8700  0.1157
  491MOL0     H64788  -2.018  10.146  11.258 -0.4332 -1.4398 -0.0926
  491MOL0     H64789  -2.101  10.039  11.145 -0.1327  0.6127 -1.2206
  491MOL0     H64790  -2.049  10.334  11.076  1.4837  0.4140  1.1992
  491MOL0     H64791  -2.152  10.207  11.003  1.5158  0.0509 -0.1513
  491MOL0     H64792  -2.196  10.333  11.265 -3.7384 -0.2420  1.4027
  491MOL0     H64793  -2.301  10.207  11.185  0.8200 -2.7059 -1.4279
  491MOL0     H64794  -1.363  10.255  11.085  0.9623  1.1614  0.3185
  491MOL0     H64795  -1.193  10.211  10.942 -0.2971 -0.9857 -1.3747
  491MOL0     H64796  -0.966   9.776  10.807  0.0279 -1.1682 -2.3021
  491MOL0     H64797  -0.847   9.658  10.636 -1.4352  0.8463 -1.9568
  491MOL0     H64798   1.121   9.651  10.792  0.9568  1.4132  0.2008
  491MOL0     H64799   1.329   9.764  10.865  1.0676  0.3366 -1.3783
  491MOL0     H64800   1.801   9.632  11.008  3.7210  0.4893 -0.3978
  491MOL0     H64801   2.007   9.701  11.097  1.5124 -2.4946  3.9631
  491MOL0     H64802   2.132   9.912  11.152  4.7657  2.2287 -0.5311
  491MOL0     H64803   2.201   9.757  11.219  1.7718  0.4333  0.2165
  491MOL0     H64804   2.355   9.843  11.314 -0.1108  0.9208  0.6079
  491MOL0     H64805   2.341   9.994  11.225  2.2523 -2.1145  0.5209
  491MOL0     H64806   2.241   9.957  11.521  1.0312  0.7800  0.7004
  491MOL0     H64807   2.181  10.083  11.406  0.7765  0.5488 -3.7720
  491MOL0     H64808   2.414  10.171  11.396 -1.4707  1.0512  0.6383
  491MOL0     H64809   2.368  10.148  11.568  5.6566 -0.1352  1.9172
  491MOL0     H64810   2.678   9.875  11.571  0.6485 -0.7749 -1.4523
  491MOL0     H64811   1.827   9.908  11.422  1.6738  1.4468 -0.0758
  491MOL0     H64812   1.598   9.797  11.360 -1.7123  0.1519 -1.0629
  492MOL0     O64813   9.079   3.872   2.538 -0.1160  0.8109  0.0008
  492MOL0     C64814   9.167   3.842   2.457  0.3786  0.1725  0.6015
  492MOL0     O64815   9.143   3.776   2.337  1.0754 -0.5969 -0.1620
  492MOL0     C64816   9.010   3.744   2.302 -0.4174  0.2479  0.6368
  492MOL0     C64817   8.905   3.837   2.285  0.0377  0.0263 -0.5182
  492MOL0     C64818   8.777   3.785   2.249 -0.0817 -0.2838 -0.0772
  492MOL0     C64819   8.754   3.648   2.220 -0.8575 -0.5761 -0.4246
  492MOL0     O64820   8.637   3.587   2.172 -0.0943  0.3314 -0.0917
  492MOL0     C64821   8.539   3.681   2.118  0.0305 -0.8982 -0.0269
  492MOL0     C64822   8.440   3.596   2.026  0.6352 -0.5874 -0.3723
  492MOL0     C64823   8.332   3.673   1.958  0.3978 -0.4894  0.0622
  492MOL0     C64824   8.217   3.584   1.908  0.5730 -0.6949 -0.1747
  492MOL0     C64825   8.117   3.669   1.817  0.6078  0.4871  0.3285
  492MOL0     C64826   8.030   3.769   1.898 -0.3377 -0.2184  0.9074
  492MOL0     C64827   7.938   3.854   1.801 -0.1605 -0.3500 -1.4515
  492MOL0     C64828   7.786   3.821   1.792 -0.1755  0.9538 -0.2302
  492MOL0     N64829   7.756   3.678   1.753 -0.1766  0.1217  0.0656
  492MOL0     C64830   7.646   3.609   1.797  0.2381  0.1791  0.3381
  492MOL0     C64831   7.639   3.486   1.729  0.3000  0.1524 -0.3076
  492MOL0     C64832   7.529   3.388   1.746  0.3086 -0.7553  0.0273
  492MOL0     C64833   7.427   3.413   1.635 -0.2527 -0.4728  0.1558
  492MOL0     C64834   7.374   3.557   1.621  0.1954  0.0098 -0.8471
  492MOL0     C64835   7.266   3.596   1.729  1.1900  0.3604 -0.4246
  492MOL0     O64836   7.138   3.524   1.707 -0.6382  0.1703 -0.3273
  492MOL0     C64837   7.037   3.565   1.787  0.0228  1.0232 -0.5576
  492MOL0     C64838   6.913   3.503   1.759 -0.9020 -0.4275  0.3740
  492MOL0     C64839   6.801   3.530   1.844  0.0422 -0.2191  0.5359
  492MOL0     C64840   6.807   3.625   1.945 -0.8019  0.3082  0.1420
  492MOL0     C64841   6.699   3.661   2.027  0.4374 -0.4151  0.1348
  492MOL0     O64842   6.580   3.598   1.999 -0.2703 -0.4502  0.9352
  492MOL0     C64843   6.488   3.578   2.097  0.8502 -0.9764 -0.0852
  492MOL0     C64844   6.452   3.661   2.210 -0.1969  0.2719  0.0818
  492MOL0     C64845   6.346   3.616   2.284 -0.6697 -0.5802  0.0430
  492MOL0     C64846   6.282   3.497   2.263 -0.4222 -0.2572 -0.0082
  492MOL0     O64847   6.185   3.455   2.344  1.0340  0.0125  0.7431
  492MOL0     C64848   6.113   3.544   2.431 -0.5803 -0.1590 -1.2485
  492MOL0     C64849   6.012   3.469   2.513 -0.5644  0.0019 -0.3964
  492MOL0     C64850   5.969   3.548   2.633 -0.8822  0.5527 -0.6754
  492MOL0     C64851   5.888   3.665   2.605 -0.8877 -0.2109 -0.1429
  492MOL0     C64852   5.800   3.713   2.726  0.2644 -0.4262  0.2136
  492MOL0     C64853   5.720   3.844   2.690  0.7479 -0.3633 -0.1813
  492MOL0     C64854   5.611   3.899   2.781  0.0796  0.4009 -0.4668
  492MOL0     C64855   5.652   3.907   2.926  0.9508 -0.7843 -0.0529
  492MOL0    Cl64856   5.776   4.037   2.958 -0.1283 -0.3678 -0.2645
  492MOL0     C64857   6.326   3.414   2.156  0.3750  0.3563  0.1328
  492MOL0     C64858   6.427   3.459   2.066  0.4319  0.5285 -0.2838
  492MOL0     O64859   6.717   3.728   2.131  0.2682  0.1108 -0.3549
  492MOL0     C64860   6.937   3.693   1.966  0.2605  0.1568  0.9965
  492MOL0     C64861   7.044   3.668   1.888  0.1457 -0.3263 -0.1180
  492MOL0     N64862   7.751   3.486   1.645 -0.2644 -0.1293  0.0944
  492MOL0     N64863   7.810   3.605   1.656 -0.5481  0.7667 -0.1735
  492MOL0     C64864   8.863   3.563   2.241  0.8201 -0.3932 -0.1951
  492MOL0     C64865   8.987   3.614   2.271 -0.9549  0.3967  0.5060
  492MOL0     C64866   9.301   3.879   2.503 -0.3422  0.1646  0.0810
  492MOL0     C64867   9.325   3.974   2.605 -0.2380 -1.4640  0.2220
  492MOL0     C64868   9.458   3.998   2.647 -0.7284 -0.8115 -0.2461
  492MOL0     C64869   9.571   3.937   2.588 -0.3785 -0.0004 -0.2821
  492MOL0     O64870   9.694   3.972   2.641 -0.0819  0.4010 -0.1051
  492MOL0     C64871   9.817   3.912   2.600  0.3919 -0.5796 -0.3536
  492MOL0     C64872   9.870   3.994   2.481  0.1550 -0.3993  0.8234
  492MOL0     C64873   9.963   4.114   2.529 -0.1166 -0.4163 -0.4002
  492MOL0     C64874  10.003   4.208   2.413 -0.0818  0.2620 -0.8259
  492MOL0     C64875  10.086   4.129   2.326 -0.6556  0.2553 -0.3850
  492MOL0     C64876  10.143   4.065   2.237  0.2463 -1.1538 -0.2497
  492MOL0     C64877   9.548   3.835   2.492  0.6615 -0.1323  0.5677
  492MOL0     C64878   9.415   3.818   2.443  0.3750 -0.3570  0.6091
  492MOL0     H64879   8.911   3.941   2.315 -0.6870  0.3114 -1.3341
  492MOL0     H64880   8.699   3.860   2.257  1.0890  0.9020  0.6633
  492MOL0     H64881   8.598   3.759   2.069  0.4119  0.1933  2.0450
  492MOL0     H64882   8.476   3.730   2.193  0.0374  0.8219 -1.0757
  492MOL0     H64883   8.400   3.520   2.094  1.6596 -0.0428  0.8778
  492MOL0     H64884   8.492   3.538   1.949  2.5420  1.5222 -0.7880
  492MOL0     H64885   8.373   3.728   1.873  0.4648 -2.6720 -1.3889
  492MOL0     H64886   8.291   3.754   2.020  2.4251 -1.8244  3.4040
  492MOL0     H64887   8.258   3.496   1.857 -2.4308 -1.0547 -2.2664
  492MOL0     H64888   8.148   3.551   1.986 -4.0379  3.9896 -1.7112
  492MOL0     H64889   8.044   3.597   1.777 -0.8950  0.3509  3.0689
  492MOL0     H64890   8.176   3.733   1.751  0.5380  1.7235  1.4471
  492MOL0     H64891   8.101   3.841   1.940  1.1005 -0.8791 -0.3015
  492MOL0     H64892   7.973   3.727   1.982  0.0685 -1.1350  0.7360
  492MOL0     H64893   7.942   3.958   1.833 -0.3327  0.4923 -4.0281
  492MOL0     H64894   7.987   3.835   1.705 -1.7103 -2.0547 -1.9636
  492MOL0     H64895   7.741   3.877   1.709 -0.4438  1.5751  0.3277
  492MOL0     H64896   7.739   3.845   1.888  0.1300  1.6400 -0.2535
  492MOL0     H64897   7.567   3.642   1.863  1.4656  2.5248  0.7202
  492MOL0     H64898   7.478   3.399   1.842 -0.2768 -1.6142 -0.1739
  492MOL0     H64899   7.561   3.285   1.732 -0.5226 -0.8533 -1.4537
  492MOL0     H64900   7.334   3.356   1.636  0.6638 -2.0092  0.4224
  492MOL0     H64901   7.470   3.386   1.538 -2.1353 -1.4899 -0.4549
  492MOL0     H64902   7.453   3.633   1.628  0.8240 -0.5515 -1.7045
  492MOL0     H64903   7.320   3.584   1.529  0.3423  2.9867 -0.1547
  492MOL0     H64904   7.251   3.704   1.730 -4.7928 -0.1024  1.6926
  492MOL0     H64905   7.296   3.558   1.828 -0.9053  0.9015  0.4802
  492MOL0     H64906   6.914   3.439   1.671 -1.6778  1.2186 -0.8829
  492MOL0     H64907   6.708   3.483   1.813  1.6616 -1.6365 -2.5916
  492MOL0     H64908   6.504   3.752   2.241  1.4395 -0.7279  0.3964
  492MOL0     H64909   6.337   3.685   2.367  0.3535  2.1724 -2.0114
  492MOL0     H64910   6.057   3.614   2.369 -1.9868 -2.3126 -2.5556
  492MOL0     H64911   6.191   3.593   2.490  0.0853 -0.0172 -2.2284
  492MOL0     H64912   6.043   3.367   2.538 -0.4527  0.4579  1.4660
  492MOL0     H64913   5.924   3.453   2.449  0.4206 -1.4534 -1.4568
  492MOL0     H64914   6.052   3.570   2.701 -0.1489 -1.8732 -0.6756
  492MOL0     H64915   5.914   3.477   2.695 -0.5788  0.6268 -0.3193
  492MOL0     H64916   5.944   3.755   2.578 -0.3312 -0.7986 -1.0131
  492MOL0     H64917   5.821   3.654   2.519 -0.7343  3.0119 -0.8273
  492MOL0     H64918   5.866   3.740   2.809 -0.1829 -0.4986  0.5997
  492MOL0     H64919   5.739   3.630   2.763  1.6201 -0.8119  1.6988
  492MOL0     H64920   5.673   3.846   2.591 -0.1504  1.0191  0.2488
  492MOL0     H64921   5.794   3.924   2.682  3.7352 -3.0425 -1.2259
  492MOL0     H64922   5.583   4.003   2.759 -0.6608  0.3805  0.3614
  492MOL0     H64923   5.518   3.842   2.778 -0.9532  1.8912  1.1973
  492MOL0     H64924   5.682   3.808   2.962 -1.8111 -1.6205  0.2059
  492MOL0     H64925   5.564   3.937   2.983 -1.0421 -0.9784 -2.8063
  492MOL0     H64926   6.267   3.324   2.143  0.6274  0.1943  0.1160
  492MOL0     H64927   6.451   3.396   1.980  0.0977 -0.1160  0.0828
  492MOL0     H64928   6.946   3.760   2.051  0.6592  2.5758 -0.8474
  492MOL0     H64929   7.130   3.731   1.910  0.0999 -0.3614  0.1678
  492MOL0     H64930   8.839   3.458   2.225  1.2109 -0.7877  1.6194
  492MOL0     H64931   9.071   3.548   2.288 -0.4952 -0.1215 -3.0930
  492MOL0     H64932   9.245   4.031   2.651 -0.7635 -1.1736 -1.0262
  492MOL0     H64933   9.474   4.076   2.721 -3.5121  0.1895 -0.5410
  492MOL0     H64934   9.809   3.808   2.566  2.1048 -0.3468 -1.5903
  492MOL0     H64935   9.884   3.920   2.686 -2.7844 -0.2250  2.3086
  492MOL0     H64936   9.937   3.927   2.425  1.1317  1.3448 -0.1607
  492MOL0     H64937   9.794   4.034   2.414  0.8962  0.0849  0.2622
  492MOL0     H64938  10.043   4.070   2.589  0.0527  1.9553  1.2809
  492MOL0     H64939   9.904   4.174   2.600 -1.2194 -2.2964  0.3582
  492MOL0     H64940   9.918   4.244   2.354  0.4864  2.8806 -0.2044
  492MOL0     H64941  10.049   4.300   2.451  0.9944 -0.5840 -0.0584
  492MOL0     H64942  10.211   4.013   2.173  2.3195 -0.0605  0.9444
  492MOL0     H64943   9.631   3.784   2.444  0.8290  1.8337 -1.3924
  492MOL0     H64944   9.394   3.741   2.369 -0.8371  0.7266 -0.2260
  493MOL0     O64945   3.385   4.087   9.443  0.6640  0.3484 -0.1024
  493MOL0     C64946   3.420   3.973   9.432 -0.4209 -0.8533 -0.7101
  493MOL0     O64947   3.341   3.864   9.427 -0.4606  0.2814  0.0702
  493MOL0     C64948   3.208   3.876   9.426  0.4576 -0.3628 -0.0227
  493MOL0     C64949   3.132   3.916   9.533  0.1115 -0.8425 -0.5651
  493MOL0     C64950   3.003   3.912   9.547  0.5440  0.2198  0.3597
  493MOL0     C64951   2.935   3.847   9.442  0.3122 -0.4997  0.4273
  493MOL0     O64952   2.800   3.832   9.472 -0.3954  0.5454 -0.0975
  493MOL0     C64953   2.714   3.757   9.381  1.1118  0.0049 -1.1358
  493MOL0     C64954   2.566   3.792   9.422 -0.0492 -0.0613  0.1552
  493MOL0     C64955   2.475   3.696   9.354 -0.1888 -0.2666  0.5058
  493MOL0     C64956   2.330   3.733   9.394  0.1148  0.0756  0.4309
  493MOL0     C64957   2.235   3.648   9.313 -0.7101  0.5663  0.6369
  493MOL0     C64958   2.090   3.684   9.337 -0.3989  0.4651 -0.6498
  493MOL0     C64959   2.006   3.602   9.242  0.3457 -0.4921  1.0937
  493MOL0     C64960   1.861   3.620   9.279  0.0058  0.1855 -0.4356
  493MOL0     N64961   1.782   3.578   9.163  0.2776  0.7098  0.7561
  493MOL0     C64962   1.782   3.655   9.048 -0.2565  0.4635 -0.0962
  493MOL0     C64963   1.720   3.567   8.959 -0.2553 -0.6884 -0.5532
  493MOL0     C64964   1.715   3.611   8.817  1.2570 -0.5818 -0.2576
  493MOL0     C64965   1.852   3.650   8.755  0.1045  0.4111 -0.4124
  493MOL0     C64966   1.946   3.523   8.752  0.8004 -0.1895 -0.0328
  493MOL0     C64967   2.087   3.578   8.728  0.2459 -0.4466  0.0334
  493MOL0     O64968   2.181   3.494   8.791 -0.9011 -0.4327  0.2162
  493MOL0     C64969   2.301   3.534   8.833 -0.6969 -0.4169  0.0334
  493MOL0     C64970   2.388   3.614   8.752  0.1076 -0.1608  0.7018
  493MOL0     C64971   2.524   3.627   8.784 -0.0863  0.2096  0.1446
  493MOL0     C64972   2.572   3.573   8.899  0.1274  0.0460  0.3020
  493MOL0     C64973   2.713   3.566   8.923 -0.0829  0.2712  0.4629
  493MOL0     O64974   2.759   3.476   9.024 -0.1391  0.7042  0.1025
  493MOL0     C64975   2.887   3.481   9.058 -0.4615 -0.5721  0.2917
  493MOL0     C64976   2.995   3.501   8.972  0.8408 -0.5155  0.1540
  493MOL0     C64977   3.123   3.505   9.029  0.7562 -0.9075  0.1759
  493MOL0     C64978   3.147   3.488   9.161 -0.2701 -0.0250 -0.1683
  493MOL0     O64979   3.269   3.501   9.221 -0.4600  0.6690  0.5464
  493MOL0     C64980   3.370   3.559   9.141 -0.5691 -0.1721  0.3106
  493MOL0     C64981   3.489   3.599   9.232 -0.1886  0.5468  0.3991
  493MOL0     C64982   3.609   3.640   9.153 -0.9861  0.2052 -0.8151
  493MOL0     C64983   3.599   3.785   9.113 -0.0844 -0.0804 -0.1692
  493MOL0     C64984   3.715   3.833   9.024 -0.3305  0.5231  0.2261
  493MOL0     C64985   3.730   3.982   9.012  0.4471 -0.2989  0.2476
  493MOL0     C64986   3.598   4.048   8.968 -0.5762  0.2805  0.0972
  493MOL0     C64987   3.619   4.203   8.963  0.2397 -0.3871  0.7151
  493MOL0    Cl64988   3.457   4.285   8.924 -0.1785 -0.0543  0.2690
  493MOL0     C64989   3.036   3.464   9.249  0.2041 -0.1322  0.3595
  493MOL0     C64990   2.904   3.450   9.192  1.3720  0.5028 -0.5542
  493MOL0     O64991   2.783   3.655   8.867  0.3897  0.3918 -0.3108
  493MOL0     C64992   2.488   3.511   8.990  1.1291 -0.4993  0.0954
  493MOL0     C64993   2.358   3.478   8.952  0.9290  0.6281 -0.4627
  493MOL0     N64994   1.678   3.457   9.021  0.2412 -0.3088 -1.0662
  493MOL0     N64995   1.720   3.454   9.139 -0.4715  0.4265  0.0189
  493MOL0     C64996   3.002   3.800   9.330  0.8429  0.5683 -0.2963
  493MOL0     C64997   3.140   3.819   9.323  0.1586  0.2988  0.5953
  493MOL0     C64998   3.571   3.948   9.448 -0.2369  0.1819 -0.1653
  493MOL0     C64999   3.666   4.054   9.421  0.0643  0.7912 -0.3403
  493MOL0     C65000   3.804   4.026   9.445  0.7107  0.0106 -0.0464
  493MOL0     C65001   3.850   3.901   9.497 -0.8019 -0.0629  0.2637
  493MOL0     O65002   3.977   3.854   9.537  0.4691  0.7392 -0.7514
  493MOL0     C65003   4.090   3.938   9.494 -0.1594  0.8079 -0.5708
  493MOL0     C65004   4.115   3.911   9.343  0.3641 -0.2538 -0.8518
  493MOL0     C65005   4.218   4.005   9.285  0.0277 -0.4524  0.3592
  493MOL0     C65006   4.264   3.945   9.151  0.2428  0.0205 -0.9237
  493MOL0     C65007   4.156   3.924   9.056 -1.0344 -0.3205 -0.2577
  493MOL0     C65008   4.079   3.884   8.974 -0.2761  0.4166  0.3104
  493MOL0     C65009   3.755   3.806   9.520 -0.2016  0.0759  0.5502
  493MOL0     C65010   3.624   3.823   9.491  0.1845 -0.4094 -0.4884
  493MOL0     H65011   3.194   3.963   9.609  2.2841 -2.3140 -1.3245
  493MOL0     H65012   2.949   3.955   9.631  0.1967  0.6668 -0.0896
  493MOL0     H65013   2.726   3.648   9.383 -0.6446 -0.2244  1.1952
  493MOL0     H65014   2.724   3.777   9.274  0.5926 -0.1393 -1.2114
  493MOL0     H65015   2.535   3.891   9.388  1.6553  1.7014  3.2767
  493MOL0     H65016   2.551   3.780   9.529 -1.9527 -1.3092 -0.2161
  493MOL0     H65017   2.490   3.594   9.392 -0.8615 -1.3312 -1.9004
  493MOL0     H65018   2.488   3.681   9.246 -1.7107 -5.2679  0.7606
  493MOL0     H65019   2.313   3.717   9.501  0.7308  1.9396  0.8327
  493MOL0     H65020   2.314   3.837   9.365 -0.7421  0.1056  0.9563
  493MOL0     H65021   2.253   3.547   9.352 -0.2687  0.9325  1.4175
  493MOL0     H65022   2.255   3.659   9.207 -1.6166  1.0077  0.5018
  493MOL0     H65023   2.065   3.790   9.320  1.7929  1.0483 -0.4753
  493MOL0     H65024   2.063   3.663   9.441 -1.1466 -1.3501 -1.1919
  493MOL0     H65025   2.027   3.637   9.141  2.5858 -2.9784  0.6036
  493MOL0     H65026   2.033   3.496   9.241 -0.0974 -0.6062  1.0967
  493MOL0     H65027   1.827   3.723   9.293 -1.7606 -0.2360 -1.4065
  493MOL0     H65028   1.825   3.565   9.367  0.4017  0.7472  0.0862
  493MOL0     H65029   1.832   3.751   9.040  0.3049  0.0641 -1.7385
  493MOL0     H65030   1.633   3.682   8.805  1.7300  0.0316  0.0477
  493MOL0     H65031   1.681   3.522   8.764  0.0682 -1.5628  2.0251
  493MOL0     H65032   1.901   3.739   8.796  0.0779  1.0551 -1.7412
  493MOL0     H65033   1.836   3.669   8.649  2.5829 -0.2042 -0.9691
  493MOL0     H65034   1.947   3.464   8.844  2.5831  1.0889  0.8315
  493MOL0     H65035   1.921   3.454   8.671  0.0872 -0.2549  0.2336
  493MOL0     H65036   2.102   3.676   8.773 -0.1147  0.4770 -1.7546
  493MOL0     H65037   2.117   3.586   8.623  0.9797  1.7298  0.3628
  493MOL0     H65038   2.361   3.661   8.658  3.9130 -1.3645 -1.2085
  493MOL0     H65039   2.586   3.670   8.705 -3.1245  0.1592 -2.4631
  493MOL0     H65040   2.974   3.512   8.866 -0.2554  3.2083  0.6292
  493MOL0     H65041   3.210   3.527   8.968 -0.0112 -0.1838 -0.7139
  493MOL0     H65042   3.337   3.652   9.093 -0.4712 -0.9401 -1.2848
  493MOL0     H65043   3.411   3.491   9.067  1.2826  1.9860 -0.7872
  493MOL0     H65044   3.513   3.504   9.282 -1.1444 -0.5010 -1.0370
  493MOL0     H65045   3.448   3.681   9.291 -0.5774  1.4439 -1.0640
  493MOL0     H65046   3.622   3.576   9.065  0.9476 -0.1076 -0.3293
  493MOL0     H65047   3.693   3.634   9.223  0.0754 -0.7255 -2.1090
  493MOL0     H65048   3.509   3.792   9.051  0.3777  2.2502 -0.6691
  493MOL0     H65049   3.584   3.849   9.200  0.9841  0.4268 -0.3416
  493MOL0     H65050   3.706   3.785   8.926  1.7659  0.2570  0.1181
  493MOL0     H65051   3.808   3.783   9.053  0.0068  0.1205 -1.4534
  493MOL0     H65052   3.797   4.007   8.929  0.8374 -1.9473  0.0253
  493MOL0     H65053   3.769   4.030   9.102  2.3509 -0.9126 -0.1999
  493MOL0     H65054   3.563   4.008   8.872  0.7739  0.5771 -0.5402
  493MOL0     H65055   3.519   4.043   9.044 -2.6634  2.6890 -1.7286
  493MOL0     H65056   3.681   4.222   8.875  1.4487  0.6475  1.7483
  493MOL0     H65057   3.673   4.240   9.051  2.3453  2.6333 -1.6086
  493MOL0     H65058   3.044   3.448   9.356 -1.4060 -2.4442  0.2118
  493MOL0     H65059   2.825   3.431   9.264  2.8904 -1.2195  0.7584
  493MOL0     H65060   2.522   3.474   9.087  0.5816 -0.1183  0.4359
  493MOL0     H65061   2.296   3.410   9.010 -0.7050  1.1427 -1.5457
  493MOL0     H65062   2.951   3.746   9.250  2.3302 -1.7958  0.2336
  493MOL0     H65063   3.193   3.773   9.240  1.2185 -1.2632  2.0926
  493MOL0     H65064   3.646   4.154   9.385  1.9153  0.7446 -1.6245
  493MOL0     H65065   3.876   4.093   9.400  0.0014  0.0147 -1.2230
  493MOL0     H65066   4.169   3.901   9.561 -1.3474  0.9641  0.9549
  493MOL0     H65067   4.063   4.040   9.522 -3.8187 -0.0256 -0.5784
  493MOL0     H65068   4.142   3.806   9.338 -1.2678 -0.7570  0.0095
  493MOL0     H65069   4.021   3.921   9.288  1.2033  0.4741 -2.2147
  493MOL0     H65070   4.309   4.002   9.344 -1.3347 -1.4874  2.5163
  493MOL0     H65071   4.179   4.108   9.281 -2.8441 -1.3231  2.7289
  493MOL0     H65072   4.343   4.012   9.116  0.2970  1.2744  1.4024
  493MOL0     H65073   4.319   3.852   9.171  1.1433  0.8185  0.4534
  493MOL0     H65074   4.003   3.827   8.925  0.0072  0.7988 -0.5846
  493MOL0     H65075   3.791   3.709   9.553 -1.8403 -1.3491 -1.6040
  493MOL0     H65076   3.560   3.744   9.527  0.2128 -0.1761  0.0901
  494MOL0     O65077   6.994   1.400   1.659 -0.9931 -0.5238 -0.1715
  494MOL0     C65078   7.033   1.465   1.753 -0.0549 -0.8218 -0.0064
  494MOL0     O65079   6.953   1.525   1.838  0.0060  0.6451  0.3056
  494MOL0     C65080   6.828   1.555   1.797  0.8788  1.1176 -0.1939
  494MOL0     C65081   6.726   1.538   1.886  0.5944 -0.2555 -0.1760
  494MOL0     C65082   6.592   1.550   1.850  0.9129 -0.0364  0.6236
  494MOL0     C65083   6.565   1.591   1.716 -0.0195 -0.7081  0.0220
  494MOL0     O65084   6.436   1.603   1.675 -0.0119  0.8322  0.4416
  494MOL0     C65085   6.405   1.671   1.554  0.6765 -1.0525  0.2340
  494MOL0     C65086   6.253   1.677   1.538  0.1760 -0.4551 -0.0616
  494MOL0     C65087   6.194   1.777   1.433  0.2950  0.1834  0.5666
  494MOL0     C65088   6.043   1.770   1.417 -0.2875 -0.2809  0.0073
  494MOL0     C65089   5.962   1.879   1.500 -0.4172  0.2667 -0.5061
  494MOL0     C65090   5.813   1.873   1.476 -0.6076 -0.3753  0.3564
  494MOL0     C65091   5.734   1.937   1.591  1.0247  0.0722 -0.3863
  494MOL0     C65092   5.742   1.865   1.724 -0.0055 -0.1110  0.3328
  494MOL0     N65093   5.680   1.916   1.843  0.3335  0.4713 -0.2476
  494MOL0     C65094   5.732   1.889   1.962 -0.5664 -0.2391 -0.0938
  494MOL0     C65095   5.623   1.905   2.040 -0.6352  0.1124  0.2157
  494MOL0     C65096   5.617   1.894   2.188 -0.6361  0.4181  0.0148
  494MOL0     C65097   5.515   1.792   2.237  0.4243 -0.3069  0.4760
  494MOL0     C65098   5.565   1.649   2.208 -0.1137 -0.0602  1.0415
  494MOL0     C65099   5.484   1.542   2.275 -0.2958 -0.2482 -0.3309
  494MOL0     O65100   5.488   1.560   2.416  0.1369  0.3722 -0.7843
  494MOL0     C65101   5.359   1.554   2.471  0.2903  1.0255 -0.8904
  494MOL0     C65102   5.240   1.618   2.427 -0.4211 -0.0362 -0.2954
  494MOL0     C65103   5.124   1.612   2.498 -0.0860 -0.4470  0.1273
  494MOL0     C65104   5.115   1.514   2.603 -0.1500 -0.0438  0.9661
  494MOL0     C65105   4.993   1.487   2.673  0.1411 -0.1322 -0.4274
  494MOL0     O65106   4.889   1.565   2.637 -0.0476 -0.2770 -1.2610
  494MOL0     C65107   4.764   1.545   2.680 -0.2565  0.1851  0.0859
  494MOL0     C65108   4.689   1.434   2.624  0.0464  0.7245 -0.3940
  494MOL0     C65109   4.561   1.409   2.673  0.0606  0.7245 -0.1348
  494MOL0     C65110   4.496   1.502   2.762 -0.2608  0.0307  0.0272
  494MOL0     O65111   4.368   1.469   2.806 -0.4349 -0.1629 -0.3358
  494MOL0     C65112   4.323   1.540   2.918  0.1030 -0.5578 -0.3790
  494MOL0     C65113   4.199   1.474   2.990  0.3160  0.7683 -0.0297
  494MOL0     C65114   4.146   1.577   3.103 -0.0146  0.2883  0.0699
  494MOL0     C65115   3.992   1.556   3.109  0.1199  0.1075 -0.1096
  494MOL0     C65116   3.950   1.424   3.173 -1.3146 -0.3433  0.3830
  494MOL0     C65117   3.800   1.427   3.166 -0.4084  0.2416 -0.0136
  494MOL0     C65118   3.728   1.319   3.245  0.6431 -0.7598  0.2091
  494MOL0     C65119   3.775   1.172   3.239 -0.0699  0.0375  0.1261
  494MOL0    Cl65120   3.902   1.121   3.369 -0.1710  0.1069 -0.0881
  494MOL0     C65121   4.574   1.609   2.811 -1.1452 -0.0405  0.6690
  494MOL0     C65122   4.706   1.632   2.760 -0.6632 -0.6924  0.2856
  494MOL0     O65123   4.984   1.382   2.742  0.5179 -0.3292 -0.0989
  494MOL0     C65124   5.221   1.442   2.646 -1.8669  1.0904  0.0414
  494MOL0     C65125   5.351   1.468   2.583  0.3328 -0.3423  0.1274
  494MOL0     N65126   5.512   1.949   1.969  0.0854 -0.1351 -0.6265
  494MOL0     N65127   5.548   1.948   1.851 -0.7585 -0.9901 -0.2132
  494MOL0     C65128   6.674   1.633   1.633 -0.2643  0.5719 -0.1925
  494MOL0     C65129   6.802   1.612   1.674 -0.1431  1.1624  0.1811
  494MOL0     C65130   7.170   1.457   1.792 -0.3462 -0.6484  0.3645
  494MOL0     C65131   7.210   1.506   1.918 -0.6207 -0.5869 -0.6380
  494MOL0     C65132   7.344   1.507   1.949 -1.1564 -1.6491  0.2037
  494MOL0     C65133   7.439   1.460   1.858 -1.0168  0.3106 -0.1913
  494MOL0     O65134   7.574   1.479   1.865  0.5164  0.9918 -0.4894
  494MOL0     C65135   7.631   1.536   1.981 -0.1419  0.4221  0.0169
  494MOL0     C65136   7.776   1.548   1.956  0.0611  0.3520 -0.3909
  494MOL0     C65137   7.859   1.411   1.941 -0.5124 -0.1064 -0.5512
  494MOL0     C65138   7.986   1.431   1.859  0.1911 -0.2704  0.2291
  494MOL0     C65139   8.071   1.311   1.891 -0.2817 -0.4317 -0.2405
  494MOL0     C65140   8.144   1.209   1.904 -0.0887  0.0701  0.5127
  494MOL0     C65141   7.395   1.416   1.732 -0.4282  0.8525  0.2231
  494MOL0     C65142   7.262   1.410   1.696  0.1657  0.4008 -0.1989
  494MOL0     H65143   6.749   1.503   1.986 -0.9860 -2.7471 -0.5768
  494MOL0     H65144   6.507   1.535   1.916  1.4620  2.8381  2.1301
  494MOL0     H65145   6.449   1.614   1.471 -1.0301 -0.0921 -1.4046
  494MOL0     H65146   6.443   1.774   1.551  2.5228 -1.7172 -1.5399
  494MOL0     H65147   6.210   1.703   1.635 -1.1862 -0.1244 -0.7375
  494MOL0     H65148   6.219   1.578   1.508 -0.7889 -0.6579  1.5782
  494MOL0     H65149   6.248   1.763   1.339 -0.4596 -3.8656  0.5544
  494MOL0     H65150   6.209   1.881   1.465  0.2859  0.4457 -0.2630
  494MOL0     H65151   6.003   1.789   1.317  0.0576 -0.7042 -0.2097
  494MOL0     H65152   6.020   1.666   1.442  0.3426 -0.7039 -1.1284
  494MOL0     H65153   5.999   1.977   1.468 -1.4879  0.4593 -1.2265
  494MOL0     H65154   6.001   1.868   1.602  3.0352  3.2609 -1.3147
  494MOL0     H65155   5.794   1.766   1.472 -0.9858 -0.3186  0.6229
  494MOL0     H65156   5.786   1.929   1.386  0.4188 -1.7755 -0.8820
  494MOL0     H65157   5.772   2.040   1.585 -0.7916  0.7097 -2.1386
  494MOL0     H65158   5.633   1.940   1.550  0.7704 -1.7522  0.0388
  494MOL0     H65159   5.845   1.841   1.751 -0.6521 -1.7436  1.4968
  494MOL0     H65160   5.698   1.767   1.704 -0.2235  0.2893 -1.3105
  494MOL0     H65161   5.836   1.874   1.987 -0.4933  2.1857  1.3764
  494MOL0     H65162   5.602   1.992   2.233 -1.1264  0.3548 -0.0108
  494MOL0     H65163   5.719   1.865   2.218  0.5651  0.3878 -3.5551
  494MOL0     H65164   5.423   1.811   2.182  0.5093  2.3985  1.1553
  494MOL0     H65165   5.493   1.805   2.343  1.7947  2.1387  0.5317
  494MOL0     H65166   5.576   1.623   2.102  0.5025  2.0884  0.5259
  494MOL0     H65167   5.666   1.658   2.251 -0.1201  2.5750  0.6717
  494MOL0     H65168   5.526   1.445   2.249 -1.2665 -0.6023 -0.6276
  494MOL0     H65169   5.385   1.563   2.232  0.6034 -0.6367 -2.7426
  494MOL0     H65170   5.236   1.682   2.339  1.7672  3.8448  2.1513
  494MOL0     H65171   5.036   1.668   2.468 -1.2537 -0.5945  2.9361
  494MOL0     H65172   4.727   1.369   2.547 -1.8213 -0.1695 -0.6156
  494MOL0     H65173   4.507   1.319   2.646  0.2010  0.6544 -0.1788
  494MOL0     H65174   4.292   1.639   2.882 -3.9288 -1.6580 -0.4306
  494MOL0     H65175   4.399   1.547   2.996 -0.7987  2.8036  0.3569
  494MOL0     H65176   4.229   1.380   3.038  1.6423 -0.2461 -2.6398
  494MOL0     H65177   4.124   1.461   2.912  1.2898  1.2513 -1.0722
  494MOL0     H65178   4.182   1.677   3.079 -1.4774  0.2490 -2.7064
  494MOL0     H65179   4.190   1.562   3.202 -1.2086  0.5387  0.6592
  494MOL0     H65180   3.949   1.640   3.164  0.2280 -0.6811  1.2197
  494MOL0     H65181   3.954   1.573   3.008 -1.4613 -0.0904  0.4251
  494MOL0     H65182   4.003   1.407   3.267 -0.4735  0.5663  0.0999
  494MOL0     H65183   3.983   1.341   3.110  0.3986  0.9568 -0.5538
  494MOL0     H65184   3.779   1.426   3.059  0.0587  3.1943 -0.2132
  494MOL0     H65185   3.759   1.523   3.200  0.7638  0.8230 -0.1932
  494MOL0     H65186   3.722   1.340   3.352  2.6852 -1.8564  0.6077
  494MOL0     H65187   3.624   1.334   3.216  0.6866  0.8013  0.7701
  494MOL0     H65188   3.802   1.148   3.136 -2.1071 -0.8445 -0.2566
  494MOL0     H65189   3.693   1.109   3.275 -0.0803  0.0841  0.1848
  494MOL0     H65190   4.537   1.687   2.877 -0.5298  0.5760  0.3130
  494MOL0     H65191   4.752   1.726   2.788 -3.8995  0.8518  0.9375
  494MOL0     H65192   5.215   1.372   2.729  0.1787  4.0763  2.9482
  494MOL0     H65193   5.433   1.407   2.617  0.4726 -0.0483  0.3212
  494MOL0     H65194   6.653   1.661   1.530  0.2437  0.1489 -0.4147
  494MOL0     H65195   6.884   1.649   1.613  2.3770 -0.8115  2.1596
  494MOL0     H65196   7.134   1.543   1.986 -0.9735  0.4833 -1.5845
  494MOL0     H65197   7.368   1.546   2.047 -1.0900  1.5417 -0.9576
  494MOL0     H65198   7.609   1.480   2.072 -0.4784  0.8440  0.2021
  494MOL0     H65199   7.588   1.635   2.002  0.5711  1.5377 -3.2739
  494MOL0     H65200   7.784   1.588   1.855  2.3021  1.1234  0.0329
  494MOL0     H65201   7.830   1.613   2.026  1.8810 -0.7352 -0.7149
  494MOL0     H65202   7.798   1.340   1.884 -0.6854 -0.9095  0.5991
  494MOL0     H65203   7.874   1.363   2.038  0.6674 -1.0323 -1.1576
  494MOL0     H65204   7.969   1.435   1.751 -0.9237 -1.6530  0.3104
  494MOL0     H65205   8.023   1.523   1.904  2.2964 -1.0052  0.0934
  494MOL0     H65206   8.207   1.123   1.916 -0.6320 -0.1148  2.5293
  494MOL0     H65207   7.470   1.404   1.654 -3.1904  2.7727 -3.0109
  494MOL0     H65208   7.231   1.364   1.602  2.2616 -1.8175  0.1014
  495MOL0     O65209   3.966   1.750   5.823  0.5102 -0.8196 -0.3316
  495MOL0     C65210   4.021   1.689   5.727  0.8095 -0.3134 -1.2926
  495MOL0     O65211   3.960   1.607   5.641 -0.5361  0.3114 -0.4971
  495MOL0     C65212   3.829   1.599   5.643 -0.1705 -0.3643  1.4198
  495MOL0     C65213   3.771   1.497   5.713 -0.5154 -0.8387 -1.0728
  495MOL0     C65214   3.636   1.489   5.728 -0.3165 -0.5791  0.6806
  495MOL0     C65215   3.552   1.580   5.668  0.1832 -0.5160  0.0333
  495MOL0     O65216   3.421   1.570   5.686 -0.5607 -0.6874  0.8026
  495MOL0     C65217   3.328   1.681   5.685  0.7014  0.1583  0.5925
  495MOL0     C65218   3.185   1.619   5.694 -1.2124 -0.0132 -0.5306
  495MOL0     C65219   3.171   1.516   5.808 -0.1272 -0.2623 -0.9179
  495MOL0     C65220   3.035   1.451   5.814 -0.3784 -1.5329 -0.1757
  495MOL0     C65221   2.919   1.542   5.851  0.9088  0.2399  0.1818
  495MOL0     C65222   2.799   1.454   5.820  0.5781 -0.3613  0.0068
  495MOL0     C65223   2.681   1.495   5.904 -0.0371  1.0895  1.0049
  495MOL0     C65224   2.556   1.398   5.881 -0.0593 -0.6496  0.0742
  495MOL0     N65225   2.437   1.464   5.928 -0.1093  0.6381 -0.4604
  495MOL0     C65226   2.409   1.485   6.064 -0.1788  0.0409 -0.1152
  495MOL0     C65227   2.284   1.544   6.060 -0.1425  0.1794 -0.2177
  495MOL0     C65228   2.213   1.599   6.173  0.5699  0.0652 -0.0193
  495MOL0     C65229   2.089   1.519   6.212  0.8087  0.0160 -0.0022
  495MOL0     C65230   1.997   1.607   6.298  0.5114  0.0749 -0.6157
  495MOL0     C65231   1.922   1.722   6.232 -0.5873  0.0099  0.4996
  495MOL0     O65232   1.863   1.804   6.328 -0.0752  0.4582  0.2380
  495MOL0     C65233   1.732   1.794   6.358 -0.2945  0.7142 -0.7648
  495MOL0     C65234   1.629   1.812   6.261 -0.6149 -0.0806  0.5218
  495MOL0     C65235   1.496   1.810   6.308 -0.2283 -0.6352 -0.2712
  495MOL0     C65236   1.457   1.790   6.444 -0.4559 -0.0019 -0.5554
  495MOL0     C65237   1.319   1.771   6.487  0.1833 -0.3183  0.9751
  495MOL0     O65238   1.302   1.706   6.605  0.4663 -0.4328  0.4977
  495MOL0     C65239   1.173   1.668   6.629  0.7279  0.0092 -0.2198
  495MOL0     C65240   1.109   1.582   6.545  0.9325  0.9380 -0.5063
  495MOL0     C65241   0.981   1.526   6.585  0.0175 -0.1790 -0.0700
  495MOL0     C65242   0.917   1.555   6.711  0.0528 -0.4192 -0.5215
  495MOL0     O65243   0.808   1.498   6.758  0.4263 -0.0650  0.5948
  495MOL0     C65244   0.714   1.441   6.673  0.5543  0.8411  1.0685
  495MOL0     C65245   0.605   1.372   6.744  0.2118  0.0020 -0.3756
  495MOL0     C65246   0.478   1.338   6.656 -0.0006 -0.8001 -0.5399
  495MOL0     C65247   0.512   1.263   6.527  0.5352  0.3403  0.4039
  495MOL0     C65248   0.378   1.246   6.446 -0.9628  0.0151  0.7894
  495MOL0     C65249   0.274   1.150   6.503  0.2419 -0.1131 -0.2559
  495MOL0     C65250   0.151   1.136   6.405  0.9163 -0.1028  0.7432
  495MOL0     C65251   0.175   1.117   6.259 -0.5495 -0.7136 -0.3765
  495MOL0    Cl65252   0.024   1.084   6.183 -0.5253  0.0435 -0.0197
  495MOL0     C65253   0.993   1.634   6.795 -0.1072  0.1967  0.2929
  495MOL0     C65254   1.118   1.697   6.751 -0.3317  0.4514 -0.5135
  495MOL0     O65255   1.229   1.818   6.416  0.3262 -0.4091  0.4747
  495MOL0     C65256   1.559   1.780   6.537 -0.4130 -0.2537 -0.2762
  495MOL0     C65257   1.695   1.788   6.497  0.0966  0.9544  0.2727
  495MOL0     N65258   2.246   1.555   5.927  0.8991 -0.5244 -0.5223
  495MOL0     N65259   2.339   1.507   5.848  0.1068 -0.0961 -0.2626
  495MOL0     C65260   3.602   1.690   5.587 -0.5128  1.2996  0.4878
  495MOL0     C65261   3.745   1.689   5.578 -0.3670 -0.1662 -0.0991
  495MOL0     C65262   4.174   1.706   5.725  0.9535 -0.5561 -0.1844
  495MOL0     C65263   4.247   1.762   5.835  0.6693  0.0200  0.3218
  495MOL0     C65264   4.379   1.790   5.819 -0.5982 -0.1680  0.3323
  495MOL0     C65265   4.449   1.774   5.695  0.4717  0.2004  0.1325
  495MOL0     O65266   4.586   1.795   5.682  0.2547 -0.6373  0.1865
  495MOL0     C65267   4.660   1.821   5.796 -0.7190  0.4623  0.7488
  495MOL0     C65268   4.796   1.861   5.744 -0.2976  1.0436 -0.3875
  495MOL0     C65269   4.888   1.869   5.864  0.3678  0.5891  0.4291
  495MOL0     C65270   5.033   1.913   5.829 -0.1024  0.9581 -0.3882
  495MOL0     C65271   5.128   1.809   5.780  0.3000  0.3599 -0.3473
  495MOL0     C65272   5.186   1.707   5.748  0.0206  0.0799  0.0838
  495MOL0     C65273   4.376   1.714   5.595  0.6726 -0.4564 -0.0582
  495MOL0     C65274   4.247   1.679   5.610 -0.4808 -0.3834 -0.7835
  495MOL0     H65275   3.820   1.417   5.768  1.0272 -0.2008 -1.4689
  495MOL0     H65276   3.589   1.411   5.786 -1.6826 -0.6180 -0.4089
  495MOL0     H65277   3.348   1.729   5.589 -0.0854 -2.2221 -0.8614
  495MOL0     H65278   3.349   1.740   5.775  0.0567  0.3644  0.6097
  495MOL0     H65279   3.157   1.568   5.602  3.2465 -0.8998 -1.6025
  495MOL0     H65280   3.114   1.702   5.697 -2.6213 -1.1983  0.2641
  495MOL0     H65281   3.206   1.549   5.906 -1.8874 -3.6557  1.0296
  495MOL0     H65282   3.242   1.433   5.792  0.7906  0.2859  0.2067
  495MOL0     H65283   3.017   1.401   5.718  1.9115  0.8765 -2.0131
  495MOL0     H65284   3.038   1.371   5.889 -0.8125 -3.7252 -2.3555
  495MOL0     H65285   2.913   1.640   5.802 -3.6134  0.5982  1.0868
  495MOL0     H65286   2.922   1.549   5.960  0.1095 -1.1545  0.3102
  495MOL0     H65287   2.817   1.348   5.839 -3.4717 -0.6559  3.6479
  495MOL0     H65288   2.775   1.483   5.717  1.2661  3.8324  0.8310
  495MOL0     H65289   2.701   1.479   6.010 -0.0732  0.7209  0.9599
  495MOL0     H65290   2.654   1.599   5.883  1.6823  0.8955 -3.0196
  495MOL0     H65291   2.573   1.304   5.936 -1.8018 -0.5777  0.7787
  495MOL0     H65292   2.556   1.376   5.774 -0.6474 -3.5466  0.5674
  495MOL0     H65293   2.466   1.447   6.148  0.8809  0.8693 -0.4379
  495MOL0     H65294   2.181   1.701   6.147 -1.0672 -0.7012 -1.1885
  495MOL0     H65295   2.275   1.601   6.263 -2.4306  2.9410  2.2359
  495MOL0     H65296   2.115   1.431   6.272 -1.0511 -0.4034  0.2388
  495MOL0     H65297   2.049   1.500   6.112  0.4149  2.4941 -0.3774
  495MOL0     H65298   1.928   1.543   6.353 -1.1527  0.7609 -1.8524
  495MOL0     H65299   2.057   1.652   6.378 -1.0713  1.0013  0.0943
  495MOL0     H65300   1.843   1.682   6.168  1.0574 -0.5803 -1.2479
  495MOL0     H65301   1.985   1.786   6.170 -0.2387  0.0474  0.8861
  495MOL0     H65302   1.655   1.833   6.157  0.1174 -1.5150  0.3832
  495MOL0     H65303   1.409   1.812   6.242  0.2341  3.4032 -0.9774
  495MOL0     H65304   1.165   1.545   6.460  0.5864 -4.1407  1.1363
  495MOL0     H65305   0.952   1.450   6.512  3.3540  0.8519 -2.7103
  495MOL0     H65306   0.758   1.359   6.615 -0.5547  0.4105  0.8149
  495MOL0     H65307   0.671   1.512   6.601  0.4587 -0.1780  0.0963
  495MOL0     H65308   0.578   1.428   6.834  0.5493  1.7113 -1.2838
  495MOL0     H65309   0.641   1.275   6.778  1.2196  0.5313  0.1040
  495MOL0     H65310   0.421   1.430   6.639 -0.4453 -1.0278 -0.2992
  495MOL0     H65311   0.417   1.270   6.716  0.7825  0.2943  1.6040
  495MOL0     H65312   0.580   1.323   6.466  0.9860  0.5541  1.0966
  495MOL0     H65313   0.558   1.165   6.548 -2.1526 -0.7529  1.6563
  495MOL0     H65314   0.406   1.205   6.349 -0.9373  3.2157 -0.6814
  495MOL0     H65315   0.339   1.346   6.427  0.3843  0.4709  0.3058
  495MOL0     H65316   0.234   1.179   6.600  1.1312 -1.9029  0.6858
  495MOL0     H65317   0.323   1.053   6.517  0.4288 -0.0608 -0.5432
  495MOL0     H65318   0.099   1.048   6.444  0.1760  0.0867  0.1979
  495MOL0     H65319   0.090   1.226   6.417  1.8789  0.6736  0.0430
  495MOL0     H65320   0.255   1.045   6.237  1.1014  0.9963 -0.2476
  495MOL0     H65321   0.225   1.207   6.223 -0.0102 -0.0748  1.8081
  495MOL0     H65322   0.938   1.641   6.889 -1.4502 -2.8479 -0.1483
  495MOL0     H65323   1.158   1.776   6.813  0.1850 -0.8970  0.9421
  495MOL0     H65324   1.538   1.763   6.642  2.6149 -0.8917  0.3155
  495MOL0     H65325   1.774   1.771   6.570  0.5051 -1.0586 -0.5693
  495MOL0     H65326   3.536   1.761   5.538 -0.4266 -0.6691 -2.7860
  495MOL0     H65327   3.783   1.778   5.529  1.2353 -0.8586 -0.1790
  495MOL0     H65328   4.195   1.773   5.930  1.0029  1.5538  0.3415
  495MOL0     H65329   4.423   1.826   5.911 -1.6304 -1.7674  1.5119
  495MOL0     H65330   4.665   1.728   5.852  0.3473  1.8300  3.0834
  495MOL0     H65331   4.617   1.907   5.849  0.2640  0.7650  1.0719
  495MOL0     H65332   4.829   1.788   5.669 -0.2419  2.3701 -1.7057
  495MOL0     H65333   4.783   1.958   5.696 -2.9925  2.3554  2.6182
  495MOL0     H65334   4.882   1.769   5.909 -5.0560 -1.8740 -4.5731
  495MOL0     H65335   4.853   1.946   5.934  3.0072  1.1446  1.2820
  495MOL0     H65336   5.032   1.996   5.758 -2.7807 -1.4173 -3.4292
  495MOL0     H65337   5.068   1.949   5.926  1.8486 -0.8756 -0.3194
  495MOL0     H65338   5.255   1.627   5.726 -0.2343 -1.1535  3.1412
  495MOL0     H65339   4.417   1.697   5.496 -0.3592 -0.2719 -0.5247
  495MOL0     H65340   4.194   1.647   5.520  3.5743 -0.3311 -3.4536
  496MOL0     O65341   2.538   8.142   6.103 -0.1527  0.0787 -0.3674
  496MOL0     C65342   2.484   8.208   6.193 -0.4602  0.3022  0.4750
  496MOL0     O65343   2.350   8.254   6.203 -0.2237  0.0681 -0.5765
  496MOL0     C65344   2.266   8.228   6.099  0.4482 -0.0559  0.6195
  496MOL0     C65345   2.215   8.107   6.075 -0.3644  0.4510  1.0528
  496MOL0     C65346   2.145   8.071   5.957  0.1710  0.3003  0.0660
  496MOL0     C65347   2.110   8.179   5.867 -0.4850 -0.4276 -0.0577
  496MOL0     O65348   2.049   8.170   5.747 -0.0381 -0.2495  1.3310
  496MOL0     C65349   1.984   8.049   5.711 -1.3442 -0.8950 -0.6438
  496MOL0     C65350   1.882   8.070   5.599  0.6439  1.1338  0.3284
  496MOL0     C65351   1.796   7.954   5.581 -0.8297  1.0727  0.0818
  496MOL0     C65352   1.720   7.963   5.444 -0.4071  0.1934  0.3799
  496MOL0     C65353   1.589   7.867   5.447  0.4968  0.3190 -0.3966
  496MOL0     C65354   1.468   7.893   5.357 -0.2196 -0.2732  0.4469
  496MOL0     C65355   1.387   8.019   5.402  0.2349  0.5677  0.4048
  496MOL0     C65356   1.272   8.044   5.297  0.1586 -0.2217  0.5939
  496MOL0     N65357   1.188   8.153   5.331  0.0946  0.5901 -1.0018
  496MOL0     C65358   1.164   8.273   5.266 -0.2982  0.7203 -0.2211
  496MOL0     C65359   1.071   8.337   5.345  0.2842 -0.1116  1.0259
  496MOL0     C65360   1.011   8.464   5.284  0.2108  0.3436 -1.2161
  496MOL0     C65361   1.041   8.599   5.361 -0.0006 -0.0461  0.4305
  496MOL0     C65362   0.971   8.630   5.499 -0.2516  0.3256 -0.7338
  496MOL0     C65363   0.825   8.605   5.501  0.7198  0.1307 -0.2124
  496MOL0     O65364   0.766   8.679   5.397  0.2550  0.0804 -0.0164
  496MOL0     C65365   0.633   8.660   5.375  0.0527 -0.2873  0.0380
  496MOL0     C65366   0.550   8.609   5.472  0.6410 -0.7240 -1.1540
  496MOL0     C65367   0.414   8.593   5.440  0.7415  0.4116  1.0838
  496MOL0     C65368   0.355   8.629   5.320 -0.4470  0.0587 -0.7350
  496MOL0     C65369   0.214   8.603   5.286 -0.0975 -1.2487 -0.9783
  496MOL0     O65370   0.164   8.657   5.170 -0.1990  0.3371 -0.1939
  496MOL0     C65371   0.031   8.637   5.145 -0.6645 -0.1500  0.3037
  496MOL0     C65372  -0.022   8.515   5.099 -0.1277  0.1131 -0.4561
  496MOL0     C65373  -0.160   8.498   5.080  0.1587  0.0091  0.5444
  496MOL0     C65374  -0.243   8.611   5.099 -0.4872 -0.5796  0.1966
  496MOL0     O65375  -0.381   8.620   5.100 -0.1851  0.0393  0.0130
  496MOL0     C65376  -0.451   8.501   5.142  0.1121 -0.6036  0.5320
  496MOL0     C65377  -0.601   8.528   5.122 -0.2820  0.0228 -0.1329
  496MOL0     C65378  -0.685   8.405   5.108 -0.2779 -0.2752  0.1111
  496MOL0     C65379  -0.830   8.454   5.071  0.1454 -0.6193  0.9904
  496MOL0     C65380  -0.927   8.332   5.084 -0.0003 -0.1921 -0.4489
  496MOL0     C65381  -1.071   8.371   5.113 -0.7772 -0.6484  0.3696
  496MOL0     C65382  -1.169   8.255   5.133  0.3186 -0.0808 -0.2516
  496MOL0     C65383  -1.157   8.183   5.267 -0.8590 -0.0075  0.2519
  496MOL0    Cl65384  -1.238   8.029   5.251  0.2393  0.3042 -0.2152
  496MOL0     C65385  -0.189   8.735   5.140 -0.1897 -0.3103  0.3589
  496MOL0     C65386  -0.050   8.751   5.153  0.2802  0.5347  0.4526
  496MOL0     O65387   0.160   8.521   5.358  0.1535 -0.2422 -0.0679
  496MOL0     C65388   0.441   8.688   5.232 -0.2359 -0.1685 -0.0881
  496MOL0     C65389   0.577   8.709   5.258  0.5625 -0.2455  0.0422
  496MOL0     N65390   1.047   8.266   5.460  0.5071 -0.5242 -1.0952
  496MOL0     N65391   1.106   8.154   5.448  0.1211 -0.1440 -0.1263
  496MOL0     C65392   2.168   8.305   5.895 -0.1047  0.1783 -0.2115
  496MOL0     C65393   2.244   8.329   6.003  0.3524  0.1940 -0.1505
  496MOL0     C65394   2.574   8.232   6.312 -0.1406 -0.6765 -0.5413
  496MOL0     C65395   2.704   8.186   6.312  0.3461  0.5349 -0.1707
  496MOL0     C65396   2.778   8.204   6.432  0.2071 -0.1994 -0.0786
  496MOL0     C65397   2.726   8.272   6.543  0.1594  0.4503 -0.4125
  496MOL0     O65398   2.812   8.264   6.653  0.2460 -0.1211  0.4756
  496MOL0     C65399   2.822   8.381   6.735  0.0968 -0.7504  0.4753
  496MOL0     C65400   2.907   8.348   6.858  0.9314 -0.1765 -0.1278
  496MOL0     C65401   3.037   8.272   6.836  0.2449  0.6232  0.1995
  496MOL0     C65402   3.142   8.348   6.750 -0.0056 -0.3086  0.3488
  496MOL0     C65403   3.193   8.477   6.796  0.5116  0.3338 -0.0703
  496MOL0     C65404   3.235   8.574   6.848 -0.3686 -0.0028 -0.4498
  496MOL0     C65405   2.598   8.319   6.545 -0.1771  0.1251 -0.5812
  496MOL0     C65406   2.525   8.300   6.425  0.3731 -0.3065 -0.5105
  496MOL0     H65407   2.241   8.024   6.140  0.5040 -2.8744 -3.0816
  496MOL0     H65408   2.107   7.971   5.934 -1.2735  0.7347  0.4504
  496MOL0     H65409   1.936   8.016   5.804  1.1151 -1.1662  0.6006
  496MOL0     H65410   2.057   7.968   5.704 -0.7189 -0.6530  1.8666
  496MOL0     H65411   1.941   8.078   5.507  0.0590  3.0677  0.0624
  496MOL0     H65412   1.820   8.160   5.599 -0.7178  0.2336 -0.9968
  496MOL0     H65413   1.725   7.950   5.664 -0.7849  1.3172  0.1323
  496MOL0     H65414   1.848   7.858   5.589 -0.1993  1.4855  0.9973
  496MOL0     H65415   1.685   8.065   5.425 -1.1757  0.1713  1.6012
  496MOL0     H65416   1.780   7.933   5.357 -0.5268 -2.1121  1.0361
  496MOL0     H65417   1.546   7.862   5.548  0.0338 -1.4625 -0.6483
  496MOL0     H65418   1.630   7.767   5.431  1.1398  0.2517  1.4608
  496MOL0     H65419   1.406   7.803   5.366 -0.7464 -0.2320 -2.0575
  496MOL0     H65420   1.516   7.891   5.259  2.5361 -2.0034  1.7282
  496MOL0     H65421   1.347   8.000   5.502 -0.5227  0.4094  0.0836
  496MOL0     H65422   1.447   8.110   5.394 -0.5019  0.9229 -1.7250
  496MOL0     H65423   1.211   7.953   5.295  1.2742 -1.0075 -1.5465
  496MOL0     H65424   1.316   8.055   5.197  0.0976 -0.8208  0.4949
  496MOL0     H65425   1.208   8.312   5.175 -2.5416  3.9855 -0.0471
  496MOL0     H65426   0.903   8.446   5.283  0.3374 -0.4458 -1.2146
  496MOL0     H65427   1.046   8.473   5.180  2.3865  0.4706 -0.5262
  496MOL0     H65428   1.017   8.681   5.293 -0.2480  0.5622  1.2345
  496MOL0     H65429   1.149   8.610   5.377 -0.3458  2.1989  1.5447
  496MOL0     H65430   1.003   8.566   5.582 -0.7656  0.5405 -0.3652
  496MOL0     H65431   0.988   8.735   5.521  2.5028  0.1331 -1.5321
  496MOL0     H65432   0.796   8.643   5.599 -0.7982 -0.6692 -0.3173
  496MOL0     H65433   0.796   8.501   5.514  0.5325  0.3848  1.6102
  496MOL0     H65434   0.579   8.578   5.572 -1.2173 -2.0844 -0.9782
  496MOL0     H65435   0.354   8.541   5.515  1.0333  0.1366  1.1317
  496MOL0     H65436   0.051   8.436   5.089  2.3927  2.3528 -0.8269
  496MOL0     H65437  -0.198   8.402   5.046 -2.0434  0.7725  0.6885
  496MOL0     H65438  -0.429   8.475   5.246 -1.5772  1.3227  1.4339
  496MOL0     H65439  -0.434   8.423   5.068  2.7763  1.2019 -0.9237
  496MOL0     H65440  -0.609   8.587   5.030  0.5540  1.0713  0.4325
  496MOL0     H65441  -0.631   8.594   5.204 -3.5092 -1.4664  0.0260
  496MOL0     H65442  -0.691   8.350   5.202  0.3673 -0.5624 -0.0104
  496MOL0     H65443  -0.645   8.337   5.032  1.6939  3.5303 -2.5991
  496MOL0     H65444  -0.865   8.533   5.138 -2.7688 -0.4208 -0.6170
  496MOL0     H65445  -0.839   8.494   4.970 -1.2022  0.3689  1.4640
  496MOL0     H65446  -0.895   8.281   5.175  1.4212  2.3743  0.6011
  496MOL0     H65447  -0.915   8.265   4.999  2.0574 -0.7317  0.2331
  496MOL0     H65448  -1.100   8.435   5.029  3.2408  1.9611  0.7384
  496MOL0     H65449  -1.072   8.438   5.199 -1.3667 -0.4759  0.2387
  496MOL0     H65450  -1.267   8.303   5.138 -0.0724 -0.4953 -2.6041
  496MOL0     H65451  -1.162   8.175   5.058 -1.0125 -0.6307  0.1816
  496MOL0     H65452  -1.200   8.243   5.347  0.1112 -0.3199  1.0243
  496MOL0     H65453  -1.049   8.171   5.279 -0.9094 -2.0607 -0.8839
  496MOL0     H65454  -0.255   8.818   5.164 -1.7688 -1.8693  1.6708
  496MOL0     H65455  -0.013   8.851   5.170 -1.3429  0.7025  3.7850
  496MOL0     H65456   0.409   8.730   5.137 -2.0424 -1.4594 -0.1151
  496MOL0     H65457   0.628   8.773   5.186 -2.1885  0.5034 -1.3641
  496MOL0     H65458   2.148   8.383   5.822 -1.9178 -1.2270 -1.2944
  496MOL0     H65459   2.295   8.422   6.027  1.9244 -0.3565 -1.1601
  496MOL0     H65460   2.753   8.157   6.220  2.0648 -1.3600  1.2567
  496MOL0     H65461   2.880   8.167   6.428 -0.1525 -1.2866  0.5175
  496MOL0     H65462   2.722   8.415   6.764 -2.1594 -5.5366 -0.7253
  496MOL0     H65463   2.883   8.458   6.687 -1.0118  1.1035  1.9417
  496MOL0     H65464   2.940   8.447   6.891 -2.9908  0.8742  1.0798
  496MOL0     H65465   2.845   8.297   6.931 -0.8489  0.5347 -1.0745
  496MOL0     H65466   3.011   8.174   6.795  0.3761 -0.1418  1.8652
  496MOL0     H65467   3.086   8.252   6.932 -1.4606  0.0001  0.9886
  496MOL0     H65468   3.221   8.272   6.759 -1.3803 -1.7212  1.0037
  496MOL0     H65469   3.116   8.350   6.644 -0.2802  0.3803  0.4231
  496MOL0     H65470   3.282   8.661   6.889 -3.2973  1.1795  0.5940
  496MOL0     H65471   2.556   8.390   6.616  1.8290  1.9836 -1.1356
  496MOL0     H65472   2.422   8.334   6.430  0.8728  1.2496  3.9832
  497MOL0     O65473   1.460   6.151   8.985  0.5130  0.6756  0.3905
  497MOL0     C65474   1.540   6.190   8.901 -1.0790  0.0811  1.2011
  497MOL0     O65475   1.530   6.172   8.764 -0.0239 -0.0926  0.2420
  497MOL0     C65476   1.423   6.092   8.733 -0.8219 -0.4857  0.0822
  497MOL0     C65477   1.438   5.954   8.739 -0.3259 -0.2906 -0.0654
  497MOL0     C65478   1.331   5.870   8.706  0.1788 -0.4773 -0.1370
  497MOL0     C65479   1.210   5.924   8.656 -0.1067 -0.3758 -0.3658
  497MOL0     O65480   1.109   5.846   8.630 -0.0231  1.1901 -0.0072
  497MOL0     C65481   1.093   5.807   8.496  0.0336 -0.1449  0.1123
  497MOL0     C65482   0.985   5.708   8.494  0.5386 -0.1427 -0.1575
  497MOL0     C65483   0.850   5.777   8.520  0.4876  0.1335  0.7010
  497MOL0     C65484   0.733   5.675   8.511 -0.7645  0.3704 -0.1617
  497MOL0     C65485   0.598   5.750   8.528 -0.3072  1.1243 -0.0442
  497MOL0     C65486   0.483   5.652   8.555 -0.2427 -0.5498  0.7316
  497MOL0     C65487   0.346   5.724   8.552 -0.2463  0.6399  0.1532
  497MOL0     C65488   0.276   5.703   8.420 -0.1791  0.5855  0.5807
  497MOL0     N65489   0.145   5.771   8.430  1.0439  0.0795  0.2552
  497MOL0     C65490   0.053   5.730   8.522  0.2635 -1.0427  0.4989
  497MOL0     C65491  -0.054   5.816   8.491 -0.0637  0.4789 -0.4415
  497MOL0     C65492  -0.188   5.796   8.563 -0.1720 -0.2057 -1.0813
  497MOL0     C65493  -0.283   5.683   8.508 -0.4503 -0.8091  0.2132
  497MOL0     C65494  -0.421   5.686   8.575 -0.0329 -0.5207 -0.3626
  497MOL0     C65495  -0.509   5.579   8.512 -0.5168 -0.0850  0.1419
  497MOL0     O65496  -0.521   5.584   8.369  1.2162 -0.6401 -0.0073
  497MOL0     C65497  -0.625   5.655   8.304 -0.6060  0.9552  0.3148
  497MOL0     C65498  -0.607   5.667   8.167 -0.0098  1.2397  0.5055
  497MOL0     C65499  -0.708   5.715   8.087 -0.8662  0.2742  0.0162
  497MOL0     C65500  -0.826   5.759   8.142  0.5346  0.2352 -0.1186
  497MOL0     C65501  -0.938   5.808   8.060  0.5806 -0.2210  0.5223
  497MOL0     O65502  -1.067   5.850   8.114 -0.9009 -0.2638  0.2914
  497MOL0     C65503  -1.139   5.926   8.027  0.2846  0.4799  0.6099
  497MOL0     C65504  -1.203   5.859   7.926  0.3481  0.3275  0.5522
  497MOL0     C65505  -1.291   5.926   7.844  0.4779 -0.5299  0.2762
  497MOL0     C65506  -1.329   6.057   7.868 -0.5711 -0.1361 -0.4082
  497MOL0     O65507  -1.411   6.115   7.771  0.5420  0.4370 -0.3375
  497MOL0     C65508  -1.494   6.221   7.816  0.0426  0.6174  0.2072
  497MOL0     C65509  -1.561   6.280   7.691  0.8824 -0.0989 -0.2594
  497MOL0     C65510  -1.680   6.363   7.730 -0.6296  0.2424  0.6740
  497MOL0     C65511  -1.743   6.432   7.620  0.0512 -0.1387  0.9220
  497MOL0     C65512  -1.860   6.527   7.660  0.0081  0.1320  0.5220
  497MOL0     C65513  -1.914   6.621   7.555 -0.3291 -0.2724  0.2129
  497MOL0     C65514  -2.039   6.695   7.619 -1.0055  0.3495  0.7667
  497MOL0     C65515  -2.071   6.822   7.547  0.4213 -0.1644 -0.3719
  497MOL0    Cl65516  -1.929   6.932   7.520 -0.6282 -0.1186  0.2778
  497MOL0     C65517  -1.268   6.121   7.981  0.3105  0.1156  0.2555
  497MOL0     C65518  -1.167   6.057   8.056 -0.0920 -0.0524 -0.5378
  497MOL0     O65519  -0.909   5.806   7.941  0.0094 -0.2881  0.4057
  497MOL0     C65520  -0.847   5.756   8.280  0.4206 -0.1507 -0.3109
  497MOL0     C65521  -0.744   5.708   8.360 -0.0396 -0.5670  0.3316
  497MOL0     N65522  -0.017   5.904   8.388 -0.6196  0.1365  0.1825
  497MOL0     N65523   0.102   5.884   8.362  0.1917  0.2868 -0.8000
  497MOL0     C65524   1.198   6.066   8.646  0.4708 -0.1915  0.2927
  497MOL0     C65525   1.303   6.147   8.689 -0.3647  0.0148  0.0201
  497MOL0     C65526   1.667   6.238   8.954 -0.3941 -0.0986  0.0153
  497MOL0     C65527   1.765   6.281   8.868 -0.1381  0.4328  1.1705
  497MOL0     C65528   1.881   6.330   8.924  0.2140 -0.1132  0.5661
  497MOL0     C65529   1.906   6.350   9.054  0.2798  0.2689 -0.0573
  497MOL0     O65530   2.036   6.377   9.095 -0.1051  0.1781 -0.3145
  497MOL0     C65531   2.052   6.406   9.240 -0.4049  0.2167  0.3035
  497MOL0     C65532   2.190   6.470   9.280 -0.0684  1.0852  0.6270
  497MOL0     C65533   2.305   6.377   9.237 -0.4031  0.6723  0.5091
  497MOL0     C65534   2.443   6.436   9.269 -0.2222 -0.2713  0.1836
  497MOL0     C65535   2.460   6.565   9.205  0.3865 -0.8086  0.2673
  497MOL0     C65536   2.486   6.670   9.157 -0.4137 -0.1833 -0.2505
  497MOL0     C65537   1.799   6.316   9.142 -0.3605  0.2446  0.2672
  497MOL0     C65538   1.686   6.252   9.091 -0.3242 -0.2165 -0.5445
  497MOL0     H65539   1.536   5.914   8.766 -0.3041 -0.2356 -0.0642
  497MOL0     H65540   1.336   5.764   8.726 -4.0120 -0.9280 -0.6926
  497MOL0     H65541   1.178   5.746   8.466  1.4288  1.6713  0.1593
  497MOL0     H65542   1.060   5.886   8.427 -2.0195 -1.5972 -0.6613
  497MOL0     H65543   1.004   5.636   8.574 -2.2493  1.0670  1.7439
  497MOL0     H65544   0.986   5.658   8.397 -2.8077  0.1766 -0.4836
  497MOL0     H65545   0.850   5.851   8.439  2.0211 -0.8161 -0.2117
  497MOL0     H65546   0.844   5.833   8.614  0.9053 -0.4747  1.0880
  497MOL0     H65547   0.746   5.622   8.416 -0.6806  0.1707 -0.0384
  497MOL0     H65548   0.745   5.609   8.597  1.9211  0.4232 -0.4011
  497MOL0     H65549   0.583   5.813   8.440 -0.1486  1.1818 -0.0305
  497MOL0     H65550   0.611   5.812   8.618 -1.0133 -0.0977  0.9390
  497MOL0     H65551   0.486   5.611   8.657 -1.6498  1.0403  1.4618
  497MOL0     H65552   0.472   5.567   8.487  1.4923  0.8562 -1.4427
  497MOL0     H65553   0.298   5.670   8.634  3.7822 -1.7273  1.2234
  497MOL0     H65554   0.353   5.830   8.577 -2.6444  1.0485 -0.6465
  497MOL0     H65555   0.262   5.596   8.404  0.4335  0.5674  0.1534
  497MOL0     H65556   0.330   5.742   8.333 -1.1702  1.2160  0.2204
  497MOL0     H65557   0.074   5.652   8.594  3.1027  0.8953  1.9701
  497MOL0     H65558  -0.236   5.894   8.563 -0.9913 -0.5827  0.5145
  497MOL0     H65559  -0.169   5.776   8.669 -2.3549  1.5481 -0.2779
  497MOL0     H65560  -0.237   5.585   8.526 -2.1995 -1.3833  2.0009
  497MOL0     H65561  -0.299   5.697   8.401 -0.4740 -3.3811 -0.1898
  497MOL0     H65562  -0.407   5.680   8.683  0.0743  0.4685 -0.3065
  497MOL0     H65563  -0.457   5.789   8.560  0.8870  0.3895  2.8527
  497MOL0     H65564  -0.609   5.579   8.556 -0.0669 -0.0091  1.1709
  497MOL0     H65565  -0.469   5.481   8.538  0.1342  0.3276  0.7291
  497MOL0     H65566  -0.518   5.643   8.109 -1.7356  2.1641 -2.7542
  497MOL0     H65567  -0.701   5.722   7.979  0.1089  0.9488  0.1085
  497MOL0     H65568  -1.154   5.763   7.911 -0.2009 -0.1595  1.7785
  497MOL0     H65569  -1.344   5.877   7.762  0.8231  0.7946 -0.7670
  497MOL0     H65570  -1.433   6.302   7.857  3.0916 -1.7803  0.7586
  497MOL0     H65571  -1.567   6.182   7.887  2.4570 -2.5382  1.2011
  497MOL0     H65572  -1.591   6.205   7.617 -1.0082  0.5699 -0.2290
  497MOL0     H65573  -1.495   6.349   7.637 -1.8523  1.6853 -1.5580
  497MOL0     H65574  -1.650   6.437   7.805  1.8941 -2.6517  2.7930
  497MOL0     H65575  -1.759   6.300   7.773  1.8225 -2.2046  1.8627
  497MOL0     H65576  -1.671   6.492   7.564 -0.2872  0.7074  1.3742
  497MOL0     H65577  -1.780   6.352   7.556  0.7093  0.9237 -0.8419
  497MOL0     H65578  -1.818   6.591   7.737  0.2348  2.1060 -1.1445
  497MOL0     H65579  -1.938   6.470   7.710  1.0951  0.0979  2.2405
  497MOL0     H65580  -1.954   6.555   7.477 -2.1205  0.3239  0.5913
  497MOL0     H65581  -1.831   6.684   7.522 -0.0687 -0.1802  1.0271
  497MOL0     H65582  -2.126   6.629   7.631 -0.8059  0.0690  0.6710
  497MOL0     H65583  -2.011   6.728   7.720 -0.5614  0.4894  0.5975
  497MOL0     H65584  -2.148   6.871   7.607 -0.1798 -0.9050 -0.5309
  497MOL0     H65585  -2.121   6.797   7.453 -2.5248  1.2531  0.6965
  497MOL0     H65586  -1.286   6.227   7.991 -0.0013  0.6943 -4.3771
  497MOL0     H65587  -1.113   6.109   8.134 -1.4551  0.6865 -0.0519
  497MOL0     H65588  -0.943   5.788   8.318  0.0626 -2.0707  0.5205
  497MOL0     H65589  -0.760   5.700   8.467 -0.4586 -1.0549  0.2383
  497MOL0     H65590   1.109   6.125   8.625  1.3637  1.0915 -0.0448
  497MOL0     H65591   1.303   6.255   8.677  0.8135  0.0454  0.2073
  497MOL0     H65592   1.764   6.265   8.761  4.1149 -1.5945  1.2179
  497MOL0     H65593   1.961   6.366   8.859  0.7561  2.7619  2.6108
  497MOL0     H65594   2.047   6.308   9.289 -0.5156  0.1167  0.0976
  497MOL0     H65595   1.980   6.482   9.270  1.7242  2.6971 -0.4479
  497MOL0     H65596   2.207   6.569   9.236  0.3709 -0.0656 -1.9614
  497MOL0     H65597   2.195   6.486   9.388  0.3134 -0.1305  0.8073
  497MOL0     H65598   2.320   6.358   9.131  2.9260 -0.4122  1.0774
  497MOL0     H65599   2.294   6.288   9.300  1.0123  0.3907  0.3745
  497MOL0     H65600   2.461   6.439   9.377  1.5768 -0.8155 -0.0639
  497MOL0     H65601   2.510   6.364   9.222 -0.5660 -1.9104  2.0749
  497MOL0     H65602   2.495   6.764   9.107  0.9868  0.0379  0.3699
  497MOL0     H65603   1.805   6.317   9.250  0.7772 -0.3418  0.2238
  497MOL0     H65604   1.624   6.198   9.162  2.6248 -0.5583  2.0555
  498MOL0     O65605  10.844   1.066   1.496 -0.5840 -0.0799 -0.5836
  498MOL0     C65606  10.953   1.030   1.453 -0.1098 -0.1554 -0.0164
  498MOL0     O65607  10.972   0.920   1.380  0.4834  0.3826  0.2700
  498MOL0     C65608  10.863   0.868   1.312  0.2595 -0.5799 -0.0790
  498MOL0     C65609  10.760   0.938   1.248 -0.0087 -0.1339 -0.0142
  498MOL0     C65610  10.657   0.880   1.184  0.0198  0.6186 -0.1076
  498MOL0     C65611  10.662   0.741   1.175  1.0105 -0.3066 -0.4700
  498MOL0     O65612  10.545   0.690   1.113  0.3283 -0.2675  0.3818
  498MOL0     C65613  10.502   0.553   1.127  0.1496 -0.2079  0.3885
  498MOL0     C65614  10.355   0.545   1.078 -0.2030  0.8996  0.1159
  498MOL0     C65615  10.314   0.389   1.098 -0.0533 -0.7527 -1.1808
  498MOL0     C65616  10.188   0.342   1.022 -0.5186 -0.0249  0.6105
  498MOL0     C65617  10.118   0.222   1.074  0.4016 -0.1414 -0.5296
  498MOL0     C65618  10.044   0.239   1.205  0.0941  0.0961 -0.1999
  498MOL0     C65619   9.931   0.134   1.228  0.8846  0.1768  0.5354
  498MOL0     C65620   9.854   0.173   1.358  0.7128 -0.1338  0.2622
  498MOL0     N65621   9.751   0.277   1.341 -0.0084 -0.2295  0.8813
  498MOL0     C65622   9.711   0.352   1.442  0.7421 -1.1607  0.0453
  498MOL0     C65623   9.592   0.410   1.401 -0.6793 -0.2875 -1.1697
  498MOL0     C65624   9.517   0.517   1.479  0.4669 -0.7702 -0.3323
  498MOL0     C65625   9.368   0.512   1.449  0.7325 -0.4730  0.3151
  498MOL0     C65626   9.290   0.409   1.526  0.3847 -0.0402 -0.3104
  498MOL0     C65627   9.136   0.437   1.503  0.9156 -0.4499  0.2106
  498MOL0     O65628   9.103   0.571   1.551 -0.2700  0.1077 -0.3479
  498MOL0     C65629   8.983   0.632   1.519  0.3981 -0.9721  0.0031
  498MOL0     C65630   8.954   0.758   1.568 -1.9840 -0.2986  0.3062
  498MOL0     C65631   8.838   0.827   1.540  0.3298 -1.0024  0.8311
  498MOL0     C65632   8.738   0.759   1.463 -0.9218 -0.1143  0.3145
  498MOL0     C65633   8.610   0.821   1.434 -0.1176 -0.0275 -0.8416
  498MOL0     O65634   8.606   0.955   1.417 -0.4416 -0.6162 -0.0911
  498MOL0     C65635   8.486   1.015   1.395  0.5558 -1.0285  0.0078
  498MOL0     C65636   8.364   1.008   1.471 -1.2326  0.0735 -0.3925
  498MOL0     C65637   8.253   1.076   1.440  0.5649  0.0790  0.9334
  498MOL0     C65638   8.248   1.155   1.321  0.6833  0.6492 -0.3397
  498MOL0     O65639   8.136   1.227   1.288  0.8232  0.0861 -0.4761
  498MOL0     C65640   8.125   1.351   1.357 -0.0759  0.6966 -0.0656
  498MOL0     C65641   8.019   1.349   1.467 -0.2356  0.2369  0.0427
  498MOL0     C65642   7.881   1.381   1.410 -1.0624  0.5943 -0.0794
  498MOL0     C65643   7.775   1.330   1.520  0.5207 -1.1241  0.2296
  498MOL0     C65644   7.764   1.179   1.511 -0.2363 -0.3202  0.1227
  498MOL0     C65645   7.668   1.121   1.623  0.4739  0.2420  0.2951
  498MOL0     C65646   7.640   0.972   1.609  0.0160 -0.1274 -0.0734
  498MOL0     C65647   7.582   0.919   1.738 -0.3883 -1.4353  0.8425
  498MOL0    Cl65648   7.423   0.998   1.782 -0.9439  0.2585 -0.4566
  498MOL0     C65649   8.367   1.169   1.250 -0.0955 -0.5515 -0.4005
  498MOL0     C65650   8.484   1.107   1.286 -0.5834 -0.2424  0.6500
  498MOL0     O65651   8.510   0.738   1.427 -0.2655 -0.0561  0.1798
  498MOL0     C65652   8.769   0.630   1.411  0.3487  0.8604  0.3857
  498MOL0     C65653   8.893   0.569   1.436 -0.4240 -1.4338 -0.0821
  498MOL0     N65654   9.559   0.359   1.276  0.1618 -0.2733 -0.4179
  498MOL0     N65655   9.648   0.270   1.248  0.1493  1.0313 -0.3910
  498MOL0     C65656  10.769   0.671   1.222 -0.8388  0.3919  0.3219
  498MOL0     C65657  10.872   0.728   1.290 -0.6936 -0.2235  0.4669
  498MOL0     C65658  11.068   1.105   1.504  0.3796  0.8520 -0.4887
  498MOL0     C65659  11.200   1.078   1.472 -0.1091 -0.6997  1.0852
  498MOL0     C65660  11.311   1.145   1.530  0.3369 -0.2248 -1.1135
  498MOL0     C65661  11.299   1.250   1.626  0.6015  0.7055 -0.4328
  498MOL0     O65662  11.403   1.317   1.681  0.0873  0.1146 -1.0640
  498MOL0     C65663  11.431   1.445   1.619 -0.1218 -0.5295  0.1400
  498MOL0     C65664  11.487   1.544   1.721 -0.2694  0.7076  0.3515
  498MOL0     C65665  11.418   1.543   1.861 -1.2474  0.1764  0.4190
  498MOL0     C65666  11.485   1.654   1.951  0.7419  0.6102 -0.2249
  498MOL0     C65667  11.429   1.790   1.933  0.0457  0.3347  0.5474
  498MOL0     C65668  11.394   1.896   1.915  0.2139  0.5984 -0.0824
  498MOL0     C65669  11.165   1.283   1.657 -0.3760 -0.1954 -0.2743
  498MOL0     C65670  11.054   1.208   1.597  0.2092 -0.8196  0.1633
  498MOL0     H65671  10.757   1.045   1.266 -0.9875 -0.2832  0.7776
  498MOL0     H65672  10.568   0.930   1.147 -0.9116 -1.3390 -0.6148
  498MOL0     H65673  10.508   0.521   1.231 -2.4596 -1.9036  0.1126
  498MOL0     H65674  10.562   0.484   1.067 -0.9758 -1.3760  0.5596
  498MOL0     H65675  10.352   0.580   0.974  0.6308  2.4945  0.5967
  498MOL0     H65676  10.292   0.617   1.131  2.6586  2.7986  1.2008
  498MOL0     H65677  10.307   0.368   1.205 -2.3563 -4.2523 -1.8410
  498MOL0     H65678  10.404   0.332   1.070  0.1743 -0.4644 -1.0337
  498MOL0     H65679  10.112   0.421   1.016  0.4274  0.8169 -1.1885
  498MOL0     H65680  10.215   0.323   0.918 -4.4739 -0.4214 -0.5278
  498MOL0     H65681  10.194   0.147   1.099  0.4864  0.4155  0.9896
  498MOL0     H65682  10.061   0.183   0.989  2.6511  2.2359 -3.3535
  498MOL0     H65683   9.987   0.332   1.201  0.8537  0.6786  1.6817
  498MOL0     H65684  10.104   0.242   1.296 -0.9239 -0.0028  0.4885
  498MOL0     H65685   9.863   0.122   1.144  1.1787 -1.1386  0.4689
  498MOL0     H65686   9.984   0.039   1.236  2.4463  1.0561  1.2089
  498MOL0     H65687   9.927   0.193   1.437 -0.0171 -0.9692  1.1766
  498MOL0     H65688   9.803   0.082   1.392  0.3131 -0.1204 -0.2850
  498MOL0     H65689   9.764   0.374   1.534 -0.2084  2.8842 -0.1878
  498MOL0     H65690   9.559   0.616   1.461  1.1240 -1.1225 -0.7592
  498MOL0     H65691   9.532   0.497   1.586  0.8168 -1.2249 -0.4629
  498MOL0     H65692   9.345   0.513   1.342 -1.1466  1.4098  0.6607
  498MOL0     H65693   9.330   0.604   1.495 -0.0113 -1.6561  2.1960
  498MOL0     H65694   9.306   0.307   1.490 -1.9329  0.7373 -4.0055
  498MOL0     H65695   9.306   0.410   1.635 -0.9651 -2.1591 -0.0120
  498MOL0     H65696   9.074   0.370   1.563  0.4660 -1.9312 -1.7990
  498MOL0     H65697   9.108   0.428   1.398  0.1926  1.9702  0.1237
  498MOL0     H65698   9.021   0.817   1.630 -1.3241  1.4021 -1.8986
  498MOL0     H65699   8.811   0.923   1.582  1.9300  1.2729 -2.8540
  498MOL0     H65700   8.359   0.940   1.555 -1.4140  0.0270 -0.4397
  498MOL0     H65701   8.165   1.073   1.504  0.6175 -0.1646  0.9974
  498MOL0     H65702   8.097   1.433   1.291 -1.4586  0.0621 -0.3007
  498MOL0     H65703   8.225   1.381   1.388  0.7370 -0.5300 -1.3897
  498MOL0     H65704   8.041   1.418   1.549 -0.6633 -1.2853  1.4729
  498MOL0     H65705   8.023   1.246   1.501  3.6944 -1.4145 -4.2636
  498MOL0     H65706   7.865   1.330   1.315 -0.2883  0.9100 -0.3882
  498MOL0     H65707   7.868   1.490   1.401 -0.2309  0.5856 -1.7008
  498MOL0     H65708   7.811   1.356   1.620  1.5821 -0.1422 -0.3781
  498MOL0     H65709   7.675   1.371   1.501 -0.2236 -2.1369  1.7639
  498MOL0     H65710   7.857   1.122   1.512 -1.7035 -2.8668  0.6835
  498MOL0     H65711   7.715   1.157   1.416  1.1552  3.1437 -1.5854
  498MOL0     H65712   7.567   1.160   1.609  0.0959 -0.9932 -0.6182
  498MOL0     H65713   7.708   1.145   1.722  0.3141 -1.6593  0.8575
  498MOL0     H65714   7.576   0.960   1.522  2.8179 -0.8125 -2.1869
  498MOL0     H65715   7.718   0.903   1.574 -0.7572 -0.7818 -0.5240
  498MOL0     H65716   7.654   0.948   1.816  1.5544  2.6733 -2.1458
  498MOL0     H65717   7.567   0.811   1.746 -1.7522 -1.3205  0.0622
  498MOL0     H65718   8.354   1.240   1.168 -1.3133  2.3074  2.0635
  498MOL0     H65719   8.567   1.112   1.217 -0.6127 -0.0441  0.6283
  498MOL0     H65720   8.698   0.571   1.354 -1.9462  2.4102  1.4488
  498MOL0     H65721   8.907   0.475   1.384 -0.1343 -0.2224 -2.3242
  498MOL0     H65722  10.769   0.567   1.191  0.8903  0.4918 -0.1509
  498MOL0     H65723  10.961   0.672   1.318 -1.7826 -1.6163  1.3378
  498MOL0     H65724  11.219   1.005   1.393 -2.2127  0.6430 -0.8014
  498MOL0     H65725  11.406   1.107   1.494  0.5718 -0.1811 -0.5489
  498MOL0     H65726  11.339   1.486   1.577  1.8712  0.5570 -3.6125
  498MOL0     H65727  11.499   1.449   1.533 -1.5399  0.8840 -0.9658
  498MOL0     H65728  11.590   1.513   1.743  0.0913  3.2280  2.7347
  498MOL0     H65729  11.491   1.640   1.668  0.6599  0.7130  0.4173
  498MOL0     H65730  11.445   1.450   1.912  1.5172  0.2004 -0.8413
  498MOL0     H65731  11.310   1.561   1.856 -0.9803  2.3590  1.4326
  498MOL0     H65732  11.472   1.631   2.057  0.0342 -0.8020 -0.5902
  498MOL0     H65733  11.594   1.649   1.938  0.9029 -1.2039  1.4554
  498MOL0     H65734  11.347   1.990   1.894 -0.2837  0.0480 -1.5824
  498MOL0     H65735  11.155   1.368   1.723  2.0024 -0.8841  1.0915
  498MOL0     H65736  10.953   1.238   1.626  1.0877  2.1745  0.5051
  499MOL0     O65737  10.744  10.783   6.345 -0.5099  0.3050 -0.2352
  499MOL0     C65738  10.686  10.746   6.446  0.0962 -0.2148 -0.2108
  499MOL0     O65739  10.744  10.692   6.553  0.0308 -0.6108 -0.4815
  499MOL0     C65740  10.869  10.640   6.550 -0.1485 -0.0322  0.1699
  499MOL0     C65741  10.886  10.506   6.579 -0.6595  0.1593 -0.0854
  499MOL0     C65742  11.024  10.455   6.577  0.2511 -0.1125  0.2451
  499MOL0     C65743  11.135  10.538   6.554 -0.0655 -0.6840 -0.3370
  499MOL0     O65744  11.266  10.494   6.555  0.2617  0.5091 -0.3314
  499MOL0     C65745  11.279  10.352   6.569  0.9164  0.8443  0.2146
  499MOL0     C65746  11.429  10.318   6.576  0.6471  0.6875 -0.7040
  499MOL0     C65747  11.453  10.183   6.636  0.0742  0.3278 -0.0994
  499MOL0     C65748  11.606  10.154   6.631  0.4483  0.7747 -0.4475
  499MOL0     C65749  11.632  10.023   6.703  0.5986  0.3365 -0.4946
  499MOL0     C65750  11.776   9.978   6.681  0.2865  0.7356 -0.0488
  499MOL0     C65751  11.812   9.855   6.756 -0.2217  0.3535 -0.6023
  499MOL0     C65752  11.861   9.893   6.892  0.3592 -0.4305 -0.2616
  499MOL0     N65753  11.782   9.988   6.971 -0.2388 -0.3206 -0.3553
  499MOL0     C65754  11.670   9.961   7.042  0.4513 -0.0577 -0.6474
  499MOL0     C65755  11.662  10.071   7.122  0.6802 -0.4915  0.7443
  499MOL0     C65756  11.554  10.089   7.229 -0.2397  0.4647 -0.4534
  499MOL0     C65757  11.420  10.027   7.184 -0.0897 -0.3644 -0.2165
  499MOL0     C65758  11.348  10.137   7.103  1.3163 -0.2831 -0.2469
  499MOL0     C65759  11.200  10.107   7.088 -0.6924 -1.5394  0.3169
  499MOL0     O65760  11.131  10.117   7.217  0.0179 -0.2741  0.0010
  499MOL0     C65761  10.993  10.145   7.220 -0.8898  0.1728 -0.1830
  499MOL0     C65762  10.911  10.097   7.123 -0.3161 -0.3487 -0.0752
  499MOL0     C65763  10.771  10.122   7.121 -1.1249 -0.2375  0.1308
  499MOL0     C65764  10.711  10.199   7.222  0.7331  0.5407 -0.5985
  499MOL0     C65765  10.567  10.224   7.205  0.1785  0.8698  0.8924
  499MOL0     O65766  10.488  10.251   7.318  0.0037  0.1603 -0.7022
  499MOL0     C65767  10.361  10.298   7.312 -0.3904 -0.1245  0.4697
  499MOL0     C65768  10.305  10.381   7.215 -1.2061 -0.3623 -0.1078
  499MOL0     C65769  10.177  10.424   7.210  0.2128  0.1446 -0.3996
  499MOL0     C65770  10.087  10.382   7.307 -0.1106  0.4330  0.8349
  499MOL0     O65771   9.949  10.398   7.293 -0.5472 -0.0094  0.3372
  499MOL0     C65772   9.892  10.474   7.188 -0.2033 -0.3180 -0.3237
  499MOL0     C65773   9.738  10.478   7.185 -0.2006  0.2946 -0.8366
  499MOL0     C65774   9.699  10.511   7.035  1.0527  0.4218  0.4842
  499MOL0     C65775   9.545  10.510   7.039  0.0659 -0.3431  0.8041
  499MOL0     C65776   9.490  10.546   6.901  0.0502 -0.6604  0.0138
  499MOL0     C65777   9.335  10.559   6.918 -0.2405 -0.1193 -0.1354
  499MOL0     C65778   9.274  10.621   6.785 -0.0693  0.3689  0.4629
  499MOL0     C65779   9.124  10.637   6.785 -0.0976 -0.0433  0.2409
  499MOL0    Cl65780   9.092  10.755   6.907  0.2836  0.5158  0.1039
  499MOL0     C65781  10.137  10.305   7.407  0.8293  0.2840 -0.1186
  499MOL0     C65782  10.270  10.258   7.412  1.2179  0.0627 -0.0382
  499MOL0     O65783  10.529  10.228   7.090  0.6167 -0.5432  0.0872
  499MOL0     C65784  10.791  10.242   7.330 -0.8783 -0.3694 -1.0869
  499MOL0     C65785  10.936  10.213   7.324 -0.0487  0.0534 -0.2839
  499MOL0     N65786  11.753  10.169   7.075  1.3513  0.0981 -0.0516
  499MOL0     N65787  11.826  10.112   6.991 -0.8401 -0.9082  0.3858
  499MOL0     C65788  11.109  10.672   6.525 -0.5485 -0.2565 -1.0046
  499MOL0     C65789  10.975  10.731   6.534 -0.7018 -0.6657 -0.5623
  499MOL0     C65790  10.536  10.772   6.458 -0.3339  0.1549  0.7677
  499MOL0     C65791  10.468  10.776   6.581  0.2793  1.4056  0.4011
  499MOL0     C65792  10.339  10.831   6.585  0.2278 -0.3215  0.4266
  499MOL0     C65793  10.270  10.873   6.467  0.0129 -0.8873 -0.8650
  499MOL0     O65794  10.140  10.923   6.492 -0.5911  0.2268 -0.1064
  499MOL0     C65795  10.055  10.944   6.380  0.5161 -0.8952  0.0195
  499MOL0     C65796   9.917  10.947   6.443  0.5567  0.2851  0.9405
  499MOL0     C65797   9.812  10.999   6.338 -0.4501 -0.1907  0.1268
  499MOL0     C65798   9.686  11.044   6.419  0.3738  0.1519 -0.3184
  499MOL0     C65799   9.597  11.104   6.314  0.8004 -0.0195 -0.3046
  499MOL0     C65800   9.516  11.164   6.239  0.4877  0.2239 -0.0569
  499MOL0     C65801  10.328  10.854   6.345  1.2278  0.3642 -0.6453
  499MOL0     C65802  10.464  10.810   6.341 -0.5966  0.3739 -0.5187
  499MOL0     H65803  10.796  10.449   6.599 -1.1772  1.5744  2.0762
  499MOL0     H65804  11.043  10.349   6.590  0.6873  0.3060  5.0280
  499MOL0     H65805  11.238  10.311   6.476 -0.4221  0.6567  0.8663
  499MOL0     H65806  11.226  10.309   6.654 -2.6585  0.4326 -1.9771
  499MOL0     H65807  11.485  10.392   6.634  0.7891 -0.3278  0.4778
  499MOL0     H65808  11.461  10.323   6.471 -0.2061  0.4369 -0.9853
  499MOL0     H65809  11.416  10.100   6.575  1.6480  0.5204 -1.3914
  499MOL0     H65810  11.412  10.186   6.737  3.9586 -1.0449  1.7335
  499MOL0     H65811  11.647  10.152   6.530  0.6423  1.7020 -0.4002
  499MOL0     H65812  11.657  10.240   6.677 -1.6638  0.9723  1.7230
  499MOL0     H65813  11.561   9.944   6.676 -1.6186  1.3084  2.1824
  499MOL0     H65814  11.616  10.048   6.808  2.8803  1.9426 -0.4587
  499MOL0     H65815  11.847  10.060   6.697  1.3875  0.0039 -1.1026
  499MOL0     H65816  11.773   9.962   6.573 -2.7070 -0.3867  0.0965
  499MOL0     H65817  11.727   9.786   6.762  0.8514 -0.9223  0.1757
  499MOL0     H65818  11.885   9.809   6.689  0.4406  0.7033 -0.1297
  499MOL0     H65819  11.948   9.957   6.872 -1.7351  1.2034 -6.4309
  499MOL0     H65820  11.879   9.804   6.952 -0.1911  0.4201  1.2277
  499MOL0     H65821  11.610   9.871   7.042  0.5341 -0.1465  1.2553
  499MOL0     H65822  11.555  10.189   7.273  1.3188  0.5258 -0.5765
  499MOL0     H65823  11.587  10.033   7.317 -2.1645  1.5797  1.0409
  499MOL0     H65824  11.361   9.997   7.270 -1.0558  0.3958 -0.5939
  499MOL0     H65825  11.432   9.937   7.123  1.0336 -1.8897  2.1183
  499MOL0     H65826  11.344  10.232   7.157  0.6886 -0.2628 -0.3166
  499MOL0     H65827  11.405  10.173   7.017 -0.9645  0.9980 -1.3341
  499MOL0     H65828  11.174  10.005   7.058  1.3524 -2.6546  2.0355
  499MOL0     H65829  11.158  10.179   7.018  3.6490 -0.6580 -1.7432
  499MOL0     H65830  10.951  10.040   7.039  0.7627  1.7756 -1.0973
  499MOL0     H65831  10.723  10.078   7.034  0.8291 -2.6340  0.1638
  499MOL0     H65832  10.364  10.406   7.127  1.5743  0.0838  1.7766
  499MOL0     H65833  10.144  10.492   7.132  0.6829  1.8416  0.8219
  499MOL0     H65834   9.931  10.428   7.096  1.0870  1.6620 -0.8199
  499MOL0     H65835   9.925  10.575   7.213 -0.1510 -1.0289  2.9444
  499MOL0     H65836   9.709  10.558   7.254  0.7031 -0.6773  0.7388
  499MOL0     H65837   9.689  10.386   7.220 -0.5262 -0.0522 -2.1789
  499MOL0     H65838   9.725  10.439   6.957 -1.4048 -0.1207  0.0783
  499MOL0     H65839   9.736  10.612   7.022 -1.1089  1.2465  0.2634
  499MOL0     H65840   9.516  10.417   7.089  1.8728 -0.3534  1.9155
  499MOL0     H65841   9.517  10.593   7.104 -2.4069 -0.5361  0.0795
  499MOL0     H65842   9.499  10.472   6.821 -1.4997 -2.6522  1.5788
  499MOL0     H65843   9.540  10.641   6.877  0.7663 -1.0163  0.0750
  499MOL0     H65844   9.299  10.618   7.003  0.0561 -3.2946  2.4039
  499MOL0     H65845   9.301  10.457   6.936 -0.4524  0.0132  0.2338
  499MOL0     H65846   9.307  10.723   6.763 -1.5513  0.9535  0.8301
  499MOL0     H65847   9.299  10.556   6.700 -2.3306  0.5589 -0.4279
  499MOL0     H65848   9.081  10.538   6.805 -0.3529 -0.1975 -0.9417
  499MOL0     H65849   9.097  10.671   6.684  3.3698  3.3080  0.2594
  499MOL0     H65850  10.069  10.268   7.482 -1.2423  5.1341  0.7978
  499MOL0     H65851  10.303  10.191   7.491 -2.2631  0.3854  1.8663
  499MOL0     H65852  10.744  10.290   7.415 -0.0535  2.0848 -1.9145
  499MOL0     H65853  10.997  10.251   7.406 -2.2395  0.6159  1.1520
  499MOL0     H65854  11.196  10.735   6.516  1.6265 -3.2079 -2.0589
  499MOL0     H65855  10.966  10.838   6.517  1.0152 -0.9743 -4.4317
  499MOL0     H65856  10.524  10.744   6.668 -1.8424 -0.9430  1.0493
  499MOL0     H65857  10.289  10.847   6.680 -2.4295  1.8371 -1.1870
  499MOL0     H65858  10.068  10.879   6.293  1.1285  0.5688 -1.0416
  499MOL0     H65859  10.065  11.041   6.329 -2.5732 -1.4120 -1.8133
  499MOL0     H65860   9.890  10.847   6.478  1.4224  0.0261  0.8992
  499MOL0     H65861   9.928  11.016   6.527 -0.1603  2.3293 -0.5595
  499MOL0     H65862   9.785  10.928   6.259 -0.1976 -0.7181  0.5041
  499MOL0     H65863   9.837  11.086   6.278 -0.1308  2.7468  4.1258
  499MOL0     H65864   9.639  10.960   6.472  1.4416  0.1022  0.5926
  499MOL0     H65865   9.726  11.117   6.490  1.0422 -3.2243  3.1649
  499MOL0     H65866   9.451  11.224   6.179  0.9560  0.7700 -0.0270
  499MOL0     H65867  10.269  10.878   6.257  0.3984  1.3442  0.1617
  499MOL0     H65868  10.510  10.803   6.243 -1.0721  3.6343 -1.0860
  500MOL0     O65869  10.690   7.991   8.604  0.6113 -0.1464  0.5338
  500MOL0     C65870  10.739   8.069   8.522  0.7631 -0.1884 -0.5442
  500MOL0     O65871  10.678   8.111   8.410  0.0891 -0.5212 -0.4012
  500MOL0     C65872  10.542   8.088   8.387 -0.1265 -0.0767  0.2361
  500MOL0     C65873  10.492   8.155   8.275  0.0339  0.6041 -0.0340
  500MOL0     C65874  10.358   8.157   8.237 -0.1110  0.2824  0.6202
  500MOL0     C65875  10.268   8.079   8.312  1.1005  0.5731  0.6315
  500MOL0     O65876  10.142   8.072   8.257 -0.4894  0.6094 -0.1435
  500MOL0     C65877  10.047   8.009   8.338 -0.2015  0.2473  0.3365
  500MOL0     C65878   9.933   7.997   8.256  0.6087 -0.2303  0.2880
  500MOL0     C65879   9.818   7.911   8.314  0.2481  0.1177 -0.5590
  500MOL0     C65880   9.708   7.887   8.206 -0.8117  0.1035  0.9496
  500MOL0     C65881   9.591   7.813   8.272  0.0752  0.2025 -0.1334
  500MOL0     C65882   9.625   7.659   8.291  0.1005 -0.4419 -0.0724
  500MOL0     C65883   9.508   7.585   8.354  0.2766  0.0905 -0.3003
  500MOL0     C65884   9.405   7.554   8.254 -0.5113  0.9446  0.2293
  500MOL0     N65885   9.309   7.453   8.292 -0.3103  0.4157 -0.7809
  500MOL0     C65886   9.330   7.314   8.310  0.4342  0.0154 -0.3270
  500MOL0     C65887   9.228   7.265   8.381 -0.4665 -0.2801 -0.3132
  500MOL0     C65888   9.223   7.118   8.439  0.0832  0.1062  0.3394
  500MOL0     C65889   9.233   7.114   8.591 -0.2288 -0.6133 -0.4236
  500MOL0     C65890   9.181   6.978   8.644  0.1731 -0.0920  0.2061
  500MOL0     C65891   9.220   6.975   8.788 -0.6562  0.8048  0.3695
  500MOL0     O65892   9.149   7.081   8.863  0.2549  0.3960 -0.0596
  500MOL0     C65893   9.014   7.076   8.877  0.0959  0.8983 -0.2361
  500MOL0     C65894   8.943   6.956   8.888  0.7373  0.6830  0.3091
  500MOL0     C65895   8.805   6.951   8.921  0.6368  0.7798 -0.0624
  500MOL0     C65896   8.736   7.076   8.937  0.2529  0.7385  0.5956
  500MOL0     C65897   8.602   7.083   8.983 -0.0419 -0.0753  0.2876
  500MOL0     O65898   8.544   7.205   9.000  0.0708  0.5622  0.8777
  500MOL0     C65899   8.417   7.224   9.043 -0.5748 -0.3848 -0.4155
  500MOL0     C65900   8.342   7.143   9.123  0.1044  0.8279 -0.2969
  500MOL0     C65901   8.209   7.173   9.173  0.0825 -0.5040 -0.4118
  500MOL0     C65902   8.151   7.295   9.139  0.4415 -0.2018 -0.0921
  500MOL0     O65903   8.030   7.320   9.186  0.5280  0.3673 -0.3982
  500MOL0     C65904   7.997   7.458   9.186 -0.2034  0.5541  0.3899
  500MOL0     C65905   7.877   7.470   9.271  0.2921 -1.0377 -1.0630
  500MOL0     C65906   7.907   7.458   9.425  0.5690  0.5728 -0.3077
  500MOL0     C65907   7.782   7.490   9.516 -0.4859 -0.2803  0.3125
  500MOL0     C65908   7.792   7.431   9.666 -0.3225  0.2157 -0.5106
  500MOL0     C65909   7.681   7.481   9.747  0.3709 -0.4356 -0.0082
  500MOL0     C65910   7.693   7.394   9.880  0.9115  0.2920 -0.3458
  500MOL0     C65911   7.610   7.442  10.003 -0.4010  0.6774 -0.4398
  500MOL0    Cl65912   7.648   7.617  10.026  0.3777 -0.1587 -0.0006
  500MOL0     C65913   8.230   7.377   9.053 -0.4313  0.7921 -1.0975
  500MOL0     C65914   8.363   7.355   9.028  0.5317 -0.1941  0.5539
  500MOL0     O65915   8.546   6.977   8.999  0.3532 -0.1546  0.4626
  500MOL0     C65916   8.804   7.198   8.916 -0.8145  0.7006  0.8036
  500MOL0     C65917   8.945   7.194   8.884  0.8936  0.4546 -0.0952
  500MOL0     N65918   9.133   7.368   8.400 -0.4425 -0.5702  0.0565
  500MOL0     N65919   9.187   7.481   8.346  0.4494 -0.6239  0.9235
  500MOL0     C65920  10.312   8.013   8.427 -0.3141  0.4635 -0.1927
  500MOL0     C65921  10.448   8.022   8.463 -0.0785 -0.4691  0.2048
  500MOL0     C65922  10.880   8.091   8.533 -1.1754 -0.4200  0.1621
  500MOL0     C65923  10.966   8.017   8.625 -0.3189  0.4634  0.4619
  500MOL0     C65924  11.106   8.040   8.628  0.1038 -0.1952  0.3016
  500MOL0     C65925  11.172   8.132   8.540  0.5363  0.6442 -0.3956
  500MOL0     O65926  11.308   8.171   8.538 -0.0455  0.2600 -0.4656
  500MOL0     C65927  11.387   8.103   8.628  0.3743  0.1054 -0.8244
  500MOL0     C65928  11.533   8.132   8.599  0.3170  0.1281 -0.2974
  500MOL0     C65929  11.586   8.045   8.484  0.7217 -0.2146  0.4165
  500MOL0     C65930  11.739   8.035   8.469  0.1066 -0.2026 -0.0520
  500MOL0     C65931  11.783   7.933   8.366 -0.3498 -0.2775  0.2087
  500MOL0     C65932  11.828   7.856   8.277  0.7547  0.1539 -0.2929
  500MOL0     C65933  11.092   8.196   8.452  0.6437  0.3080  0.0936
  500MOL0     C65934  10.952   8.174   8.450  0.1263 -0.1837  0.1731
  500MOL0     H65935  10.562   8.212   8.216 -1.5417 -0.0034 -2.6450
  500MOL0     H65936  10.335   8.204   8.143  1.5717 -0.4342 -0.1999
  500MOL0     H65937  10.025   8.066   8.430  1.1953  1.8189 -0.2510
  500MOL0     H65938  10.088   7.913   8.369  2.9984  2.1868  2.9189
  500MOL0     H65939   9.959   7.964   8.155 -0.7173  0.6553 -0.3850
  500MOL0     H65940   9.901   8.100   8.238  0.4961  0.1576  2.4029
  500MOL0     H65941   9.779   7.955   8.406  0.3806 -0.6949 -0.1113
  500MOL0     H65942   9.856   7.812   8.339 -1.9504 -0.3666  1.1848
  500MOL0     H65943   9.679   7.981   8.158 -0.5315  1.3554  3.0793
  500MOL0     H65944   9.743   7.827   8.122 -1.3548 -1.7694  2.0096
  500MOL0     H65945   9.504   7.821   8.206 -1.1932  0.7371  1.5285
  500MOL0     H65946   9.556   7.853   8.367 -1.3170 -3.6349  1.1298
  500MOL0     H65947   9.714   7.645   8.353 -0.0013 -4.7268 -0.5520
  500MOL0     H65948   9.649   7.616   8.193 -0.6007 -0.5094 -0.2211
  500MOL0     H65949   9.557   7.497   8.395  1.0928  1.8325  2.7852
  500MOL0     H65950   9.461   7.648   8.430 -2.1389  0.2435 -1.8006
  500MOL0     H65951   9.449   7.517   8.161 -2.0548  1.4296 -0.7461
  500MOL0     H65952   9.352   7.646   8.227 -2.0491  0.0506  0.0934
  500MOL0     H65953   9.415   7.251   8.285  0.5071 -0.6169  1.4285
  500MOL0     H65954   9.290   7.050   8.385 -0.9679 -0.5850 -0.1326
  500MOL0     H65955   9.125   7.079   8.410 -0.0834  0.6155  0.2144
  500MOL0     H65956   9.165   7.188   8.634  0.3892  0.2376 -0.8895
  500MOL0     H65957   9.338   7.132   8.615 -1.1826  5.6760  0.6232
  500MOL0     H65958   9.076   6.958   8.621 -0.0765  3.1511 -2.2528
  500MOL0     H65959   9.232   6.891   8.601 -0.7941 -1.8692  2.4434
  500MOL0     H65960   9.327   6.999   8.796 -0.7884  1.3716  0.4932
  500MOL0     H65961   9.208   6.875   8.831  2.1657  0.6782  1.1066
  500MOL0     H65962   8.989   6.857   8.893  0.6083  0.6379  0.6704
  500MOL0     H65963   8.758   6.858   8.953  0.9344  0.2093 -1.2048
  500MOL0     H65964   8.388   7.048   9.151  0.0719  0.7852 -0.3862
  500MOL0     H65965   8.149   7.107   9.235 -0.4594  1.9677  1.9104
  500MOL0     H65966   7.987   7.500   9.085  1.0726  0.0662  0.0397
  500MOL0     H65967   8.079   7.521   9.222  0.2789  0.1094  0.0874
  500MOL0     H65968   7.802   7.397   9.239  0.6278 -1.9225  0.0592
  500MOL0     H65969   7.826   7.565   9.255 -2.1407 -2.2357 -0.9052
  500MOL0     H65970   7.992   7.526   9.435  0.7279  0.6201 -1.7884
  500MOL0     H65971   7.945   7.358   9.447 -3.3698 -1.1810 -0.5988
  500MOL0     H65972   7.756   7.596   9.520  0.2934 -0.0029 -1.3590
  500MOL0     H65973   7.695   7.435   9.478 -1.4525  0.8765  0.7864
  500MOL0     H65974   7.889   7.442   9.716 -0.5407 -1.4485  0.3549
  500MOL0     H65975   7.785   7.323   9.653 -0.9510  0.2972 -0.8673
  500MOL0     H65976   7.591   7.471   9.686 -0.5269  0.5822  1.0843
  500MOL0     H65977   7.680   7.588   9.768 -2.1616 -0.5947  1.0593
  500MOL0     H65978   7.658   7.293   9.857 -3.2772  1.4373  0.1254
  500MOL0     H65979   7.794   7.398   9.922  0.7192 -0.4126  0.2131
  500MOL0     H65980   7.624   7.382  10.094 -0.8938 -0.0177 -0.8135
  500MOL0     H65981   7.505   7.433   9.975 -0.3059  0.0529 -0.6187
  500MOL0     H65982   8.198   7.474   9.016 -0.1568  1.5847  0.6651
  500MOL0     H65983   8.413   7.428   8.966  0.3777 -0.3352  0.2637
  500MOL0     H65984   8.758   7.296   8.913 -0.3196  0.9229 -1.8708
  500MOL0     H65985   9.007   7.281   8.861  1.2685 -0.2411 -1.8559
  500MOL0     H65986  10.246   7.948   8.485  1.9201 -0.3743  1.5677
  500MOL0     H65987  10.473   7.974   8.556  3.4643  0.2348 -0.2544
  500MOL0     H65988  10.928   7.938   8.689  0.2684 -2.8003 -2.9260
  500MOL0     H65989  11.171   7.981   8.692  1.3287 -1.1951 -1.7534
  500MOL0     H65990  11.373   7.995   8.637  0.7017  0.1696  0.8596
  500MOL0     H65991  11.379   8.150   8.727  1.2176 -0.8396 -0.2881
  500MOL0     H65992  11.557   8.236   8.577 -1.1690  0.4607 -0.4588
  500MOL0     H65993  11.592   8.111   8.689  0.2397  0.9096 -0.0510
  500MOL0     H65994  11.535   8.080   8.394 -0.8466  1.8518  1.9851
  500MOL0     H65995  11.545   7.946   8.505 -3.3640  1.1536 -0.2364
  500MOL0     H65996  11.783   8.128   8.430 -0.5150  0.2284  0.2536
  500MOL0     H65997  11.794   8.003   8.557  1.1774 -1.2381 -1.0733
  500MOL0     H65998  11.849   7.791   8.195 -3.2270 -0.8890 -0.7376
  500MOL0     H65999  11.139   8.273   8.391  0.3055  0.0064 -0.5689
  500MOL0     H66000  10.892   8.232   8.380  0.2969  0.4812  0.5656
  501MOL0     O66001   0.834   1.752   6.317  0.9841  0.0120 -0.6004
  501MOL0     C66002   0.777   1.861   6.323  0.0660  0.0674 -0.4179
  501MOL0     O66003   0.650   1.889   6.282  0.2584 -0.8182  0.1011
  501MOL0     C66004   0.553   1.801   6.235  0.2426 -0.3657  0.0594
  501MOL0     C66005   0.433   1.861   6.194  0.5043  1.2276 -0.4625
  501MOL0     C66006   0.321   1.773   6.169  0.3804  0.2955  0.1500
  501MOL0     C66007   0.332   1.636   6.180 -0.3480 -0.0129 -0.0304
  501MOL0     O66008   0.227   1.550   6.148  0.0128  0.7298 -0.0785
  501MOL0     C66009   0.091   1.601   6.150  0.2878 -0.0852 -0.3135
  501MOL0     C66010   0.002   1.480   6.137 -0.0201 -0.0342  0.5145
  501MOL0     C66011  -0.137   1.517   6.102  0.5161  0.7104 -0.2702
  501MOL0     C66012  -0.236   1.402   6.141 -0.0869 -0.1994 -0.9279
  501MOL0     C66013  -0.357   1.396   6.046 -0.1557  0.3711 -0.6855
  501MOL0     C66014  -0.432   1.270   6.069 -0.1740  0.8031 -0.6681
  501MOL0     C66015  -0.571   1.287   6.007  1.3406  0.4077  0.3419
  501MOL0     C66016  -0.649   1.148   6.022 -0.0970 -0.4141 -0.4085
  501MOL0     N66017  -0.769   1.163   5.944 -0.2830 -0.4672 -0.1705
  501MOL0     C66018  -0.888   1.221   5.980  0.6380  0.1461  0.2641
  501MOL0     C66019  -0.980   1.210   5.882  0.4691 -0.5228  0.1086
  501MOL0     C66020  -1.123   1.258   5.887 -0.0773  0.5677  0.2412
  501MOL0     C66021  -1.196   1.227   5.748  0.5319  0.0341  0.0873
  501MOL0     C66022  -1.159   1.334   5.642  0.4305  0.2775  0.3748
  501MOL0     C66023  -1.250   1.330   5.516 -0.1214  0.2205  0.3228
  501MOL0     O66024  -1.263   1.457   5.459  0.9343  0.6759  0.2846
  501MOL0     C66025  -1.374   1.474   5.378  0.3579  0.9877 -0.2576
  501MOL0     C66026  -1.412   1.608   5.372  0.6705  1.1446  0.5114
  501MOL0     C66027  -1.528   1.650   5.302  0.0430  0.6184 -0.6225
  501MOL0     C66028  -1.604   1.559   5.234  0.4547 -0.3690 -0.0125
  501MOL0     C66029  -1.717   1.596   5.161 -0.0200  0.2871  1.1369
  501MOL0     O66030  -1.755   1.520   5.053 -0.0101  0.5364 -0.2500
  501MOL0     C66031  -1.876   1.531   4.989 -0.1625  0.4483 -0.1732
  501MOL0     C66032  -1.873   1.481   4.864  0.8991 -1.0930  0.5251
  501MOL0     C66033  -1.988   1.484   4.785  0.0675  0.2882  0.0233
  501MOL0     C66034  -2.104   1.546   4.837 -0.0461  0.3080 -0.3840
  501MOL0     O66035  -2.222   1.539   4.769  0.2783 -0.1928 -0.5494
  501MOL0     C66036  -2.237   1.449   4.665  0.0336  1.1168  0.1346
  501MOL0     C66037  -2.380   1.445   4.627 -0.3810 -0.2780 -0.1779
  501MOL0     C66038  -2.412   1.329   4.532 -0.3367  0.3582 -0.9535
  501MOL0     C66039  -2.391   1.390   4.389  0.4621 -0.4244  0.4721
  501MOL0     C66040  -2.419   1.286   4.282 -0.2683  0.6584  0.3668
  501MOL0     C66041  -2.391   1.335   4.138 -0.8670  0.0639  0.8353
  501MOL0     C66042  -2.444   1.241   4.034  0.2426 -0.2012  0.9021
  501MOL0     C66043  -2.408   1.285   3.890 -1.0029 -0.1176  0.0889
  501MOL0    Cl66044  -2.540   1.234   3.781  0.4021  0.0720 -0.6456
  501MOL0     C66045  -2.105   1.613   4.963 -0.7469  0.0945  0.1980
  501MOL0     C66046  -1.986   1.604   5.038  0.0439 -0.6156 -0.7679
  501MOL0     O66047  -1.773   1.700   5.197 -0.3978 -0.3761 -0.2253
  501MOL0     C66048  -1.558   1.422   5.234 -0.6814 -0.6182  0.0024
  501MOL0     C66049  -1.453   1.381   5.309  0.0585  0.2523  0.2217
  501MOL0     N66050  -0.903   1.155   5.771  0.8310 -0.5924 -1.2319
  501MOL0     N66051  -0.783   1.124   5.812  0.5725  0.2454 -0.2764
  501MOL0     C66052   0.453   1.581   6.220 -0.2117 -0.1282 -0.7802
  501MOL0     C66053   0.558   1.660   6.243 -0.4341 -0.1096  0.3581
  501MOL0     C66054   0.858   1.969   6.364 -0.0867 -0.1818  0.7049
  501MOL0     C66055   0.834   2.102   6.314 -0.5332  0.5865 -0.0665
  501MOL0     C66056   0.918   2.203   6.353  0.9594  0.2575  0.5931
  501MOL0     C66057   1.024   2.176   6.447  0.2476  0.1136  0.0789
  501MOL0     O66058   1.121   2.267   6.480  0.6094  0.9853 -0.2408
  501MOL0     C66059   1.140   2.374   6.391  0.0562  0.1957  0.2327
  501MOL0     C66060   1.263   2.454   6.423 -0.8341  1.8563  0.7169
  501MOL0     C66061   1.287   2.561   6.316  0.2774  0.0814  0.0274
  501MOL0     C66062   1.251   2.709   6.355 -0.5999  0.0973 -0.3867
  501MOL0     C66063   1.119   2.718   6.405 -0.8362 -0.2797  0.0990
  501MOL0     C66064   1.015   2.744   6.459  0.1073 -0.7153 -0.3142
  501MOL0     C66065   1.039   2.053   6.500  0.0850  0.5882 -0.5102
  501MOL0     C66066   0.956   1.949   6.454  0.0716 -0.3384  0.0549
  501MOL0     H66067   0.414   1.968   6.196 -0.3408  1.0737 -0.0051
  501MOL0     H66068   0.229   1.819   6.134 -0.5070 -2.5879 -1.7071
  501MOL0     H66069   0.080   1.675   6.070  0.7970 -1.2311 -1.4831
  501MOL0     H66070   0.062   1.645   6.246 -1.4163  0.2360 -0.9429
  501MOL0     H66071   0.017   1.424   6.230  2.5927 -0.2718  0.0189
  501MOL0     H66072   0.050   1.417   6.063 -1.0222 -0.6932  0.4112
  501MOL0     H66073  -0.147   1.529   5.994 -0.6689  0.2123 -0.2316
  501MOL0     H66074  -0.175   1.613   6.138  0.2776  1.2960 -1.9999
  501MOL0     H66075  -0.185   1.306   6.135  1.4907  0.5479 -0.0452
  501MOL0     H66076  -0.258   1.409   6.248  0.8262  1.6409 -0.8237
  501MOL0     H66077  -0.325   1.406   5.941 -1.1947  0.8133 -0.9765
  501MOL0     H66078  -0.422   1.481   6.072 -2.0259  0.1876 -4.1137
  501MOL0     H66079  -0.429   1.258   6.177  1.0296  0.1800 -0.7601
  501MOL0     H66080  -0.390   1.179   6.025 -3.9519 -0.9926 -1.0236
  501MOL0     H66081  -0.628   1.369   6.052  2.6289  2.1755 -1.0657
  501MOL0     H66082  -0.559   1.298   5.899  1.3094 -3.4712 -0.1921
  501MOL0     H66083  -0.660   1.131   6.130 -0.1788 -1.4860 -0.5748
  501MOL0     H66084  -0.586   1.064   5.990  0.5306 -0.6108  1.2350
  501MOL0     H66085  -0.910   1.259   6.079 -1.6036  1.1881 -0.5715
  501MOL0     H66086  -1.134   1.365   5.906 -0.0321  1.0659 -2.2250
  501MOL0     H66087  -1.170   1.199   5.967 -1.3604 -0.4997 -1.2433
  501MOL0     H66088  -1.305   1.223   5.758  0.2404 -1.7631 -2.6989
  501MOL0     H66089  -1.158   1.132   5.709 -1.4358 -0.4531 -0.7946
  501MOL0     H66090  -1.160   1.432   5.691  1.7853 -0.1271  1.2729
  501MOL0     H66091  -1.058   1.323   5.602 -0.3585 -0.4803 -1.5665
  501MOL0     H66092  -1.351   1.298   5.543 -0.5337 -0.5502 -1.8959
  501MOL0     H66093  -1.208   1.258   5.444 -0.2181 -0.0308  0.5153
  501MOL0     H66094  -1.352   1.680   5.427  2.4149 -0.6939  1.1129
  501MOL0     H66095  -1.537   1.759   5.304 -0.0478  0.6876 -2.8618
  501MOL0     H66096  -1.788   1.419   4.836  1.9673 -1.3362  3.9204
  501MOL0     H66097  -1.989   1.428   4.692 -3.7808  0.6079 -0.2658
  501MOL0     H66098  -2.201   1.350   4.695  1.8393  1.4298 -0.8467
  501MOL0     H66099  -2.183   1.480   4.575 -1.0860  1.1618 -0.5469
  501MOL0     H66100  -2.401   1.540   4.576  1.0402  0.0356 -0.2337
  501MOL0     H66101  -2.447   1.454   4.713 -0.9498  2.6191 -0.8309
  501MOL0     H66102  -2.514   1.299   4.558 -0.1234  0.6947  0.3781
  501MOL0     H66103  -2.342   1.250   4.560 -2.6771 -1.4727  0.0707
  501MOL0     H66104  -2.460   1.475   4.382  2.6406  1.3516 -0.5674
  501MOL0     H66105  -2.292   1.429   4.363 -0.7039  2.8105  0.4496
  501MOL0     H66106  -2.524   1.254   4.283  0.0950 -0.6085  2.0442
  501MOL0     H66107  -2.350   1.203   4.299  1.0766  1.7428  0.3949
  501MOL0     H66108  -2.285   1.339   4.114 -1.3541  1.2609 -1.3254
  501MOL0     H66109  -2.437   1.433   4.127 -3.1579 -1.0560 -0.2522
  501MOL0     H66110  -2.398   1.144   4.054  2.5705  0.4916 -0.7091
  501MOL0     H66111  -2.553   1.240   4.041 -0.2910  5.1029 -1.3684
  501MOL0     H66112  -2.313   1.236   3.867 -1.6643 -1.4980  0.1903
  501MOL0     H66113  -2.397   1.393   3.878  0.3825 -0.4824 -2.6750
  501MOL0     H66114  -2.193   1.655   5.011  0.5070  1.3985  1.4621
  501MOL0     H66115  -1.984   1.645   5.138  2.6318  2.2704 -1.8463
  501MOL0     H66116  -1.602   1.345   5.171 -3.7959  0.5534  0.5475
  501MOL0     H66117  -1.419   1.279   5.319 -0.9112  0.0790  2.3084
  501MOL0     H66118   0.456   1.473   6.232  1.7347  0.1151  1.9958
  501MOL0     H66119   0.650   1.608   6.268 -0.7350 -0.5704  0.5191
  501MOL0     H66120   0.748   2.114   6.249 -0.2814 -4.3680 -1.7163
  501MOL0     H66121   0.903   2.305   6.319 -0.1860  0.2024  0.9161
  501MOL0     H66122   1.056   2.444   6.381 -0.3306 -0.5392 -3.1047
  501MOL0     H66123   1.153   2.330   6.291 -0.5782 -1.8237  0.9958
  501MOL0     H66124   1.248   2.484   6.527 -0.0629 -1.9646  2.0879
  501MOL0     H66125   1.351   2.389   6.424 -0.6347  2.0731 -0.6396
  501MOL0     H66126   1.232   2.540   6.224  1.8586  1.0157 -1.1742
  501MOL0     H66127   1.393   2.564   6.291  0.0253  0.8043 -1.0165
  501MOL0     H66128   1.323   2.749   6.427  0.1914  0.2224 -1.2335
  501MOL0     H66129   1.254   2.767   6.263 -0.8439  0.4368 -0.1853
  501MOL0     H66130   0.923   2.775   6.504  0.6269  1.3277 -0.5800
  501MOL0     H66131   1.129   2.028   6.554 -0.3061  1.1839  0.4477
  501MOL0     H66132   0.996   1.854   6.487 -0.7327 -0.7801 -0.1984
  502MOL0     O66133   8.746   7.107   0.653 -0.2340 -0.3502 -0.3124
  502MOL0     C66134   8.830   7.042   0.595  0.1339 -0.5144 -0.4460
  502MOL0     O66135   8.835   6.908   0.597  0.1083 -0.3597  0.0246
  502MOL0     C66136   8.739   6.846   0.681  0.1807 -0.6078  0.3935
  502MOL0     C66137   8.610   6.809   0.633  0.5822 -0.0017  1.0643
  502MOL0     C66138   8.515   6.750   0.723 -0.0316 -0.5843 -0.5613
  502MOL0     C66139   8.552   6.721   0.859  0.4828  0.1693  0.2744
  502MOL0     O66140   8.458   6.667   0.942 -0.0851 -0.0414 -0.5253
  502MOL0     C66141   8.496   6.649   1.083  1.4541  0.0855 -0.9657
  502MOL0     C66142   8.367   6.620   1.159 -0.3561 -0.5582 -0.8760
  502MOL0     C66143   8.261   6.733   1.149 -0.5847 -0.6551 -0.3597
  502MOL0     C66144   8.157   6.710   1.258  0.7991 -0.8605 -0.4418
  502MOL0     C66145   8.010   6.752   1.214 -0.0614  0.1187  0.1853
  502MOL0     C66146   7.901   6.706   1.305  0.1570 -0.0148  0.1556
  502MOL0     C66147   7.915   6.740   1.454 -0.6518  0.5751  0.2241
  502MOL0     C66148   7.902   6.888   1.477 -0.0084  0.0808 -1.0206
  502MOL0     N66149   7.763   6.929   1.474  0.5107  0.1745 -0.3242
  502MOL0     C66150   7.717   7.048   1.411 -0.0833 -0.0758 -0.2966
  502MOL0     C66151   7.589   7.057   1.446 -0.1453  0.4264  0.5712
  502MOL0     C66152   7.497   7.176   1.433 -0.2950 -0.1356  0.4949
  502MOL0     C66153   7.416   7.184   1.295  0.5048 -0.0152 -0.4479
  502MOL0     C66154   7.334   7.311   1.290  0.0436 -0.0743  0.0688
  502MOL0     C66155   7.246   7.312   1.155 -0.8012  0.5252 -1.1238
  502MOL0     O66156   7.193   7.448   1.133 -0.8427  0.4854  0.2515
  502MOL0     C66157   7.057   7.475   1.151 -0.8432 -0.0444  0.3780
  502MOL0     C66158   6.990   7.425   1.269  0.7661 -0.3139  0.5068
  502MOL0     C66159   6.855   7.465   1.283  1.0272  0.3475 -0.0414
  502MOL0     C66160   6.789   7.526   1.168  0.6319  0.3955 -0.9192
  502MOL0     C66161   6.643   7.549   1.184  0.9545  0.1746  0.2006
  502MOL0     O66162   6.577   7.505   1.305 -0.8139  0.1794 -0.2053
  502MOL0     C66163   6.444   7.535   1.307  0.6140  0.5149  0.2285
  502MOL0     C66164   6.351   7.445   1.253  0.0152 -0.4658 -0.1524
  502MOL0     C66165   6.220   7.474   1.252  0.1723 -0.1465  0.4380
  502MOL0     C66166   6.172   7.598   1.304 -0.6352 -0.0148  0.7495
  502MOL0     O66167   6.036   7.623   1.285 -0.4052 -0.7805  0.6376
  502MOL0     C66168   5.952   7.552   1.372  0.2180  0.0948 -0.2785
  502MOL0     C66169   5.822   7.631   1.394 -0.1596 -0.0145  0.1716
  502MOL0     C66170   5.834   7.752   1.493  0.3061 -0.3226  0.5262
  502MOL0     C66171   5.697   7.789   1.540 -0.0730  0.3081  0.1753
  502MOL0     C66172   5.716   7.895   1.643  0.5938  0.3649 -0.5675
  502MOL0     C66173   5.590   7.925   1.717  0.0236 -0.1056 -0.0297
  502MOL0     C66174   5.614   8.057   1.802  0.4561 -0.1661 -0.0410
  502MOL0     C66175   5.711   8.029   1.919  0.5971 -0.8049 -0.4287
  502MOL0    Cl66176   5.693   8.152   2.045 -0.1710 -0.2153  0.0180
  502MOL0     C66177   6.260   7.682   1.363 -0.4813 -0.6101  0.4547
  502MOL0     C66178   6.394   7.651   1.367 -0.0874  0.7288  0.4845
  502MOL0     O66179   6.592   7.612   1.094  0.8151 -0.0781 -0.6786
  502MOL0     C66180   6.857   7.566   1.058 -0.8528 -0.3059  0.5901
  502MOL0     C66181   6.987   7.544   1.050  0.1603  0.5461 -0.0686
  502MOL0     N66182   7.559   6.948   1.525 -1.0552 -0.2872  0.3451
  502MOL0     N66183   7.658   6.865   1.531  0.2137  0.8869  0.2532
  502MOL0     C66184   8.689   6.752   0.893 -1.1919  0.4632  0.3200
  502MOL0     C66185   8.776   6.809   0.806 -0.1454 -0.2899 -0.1105
  502MOL0     C66186   8.908   7.128   0.505  0.2591  0.5535  0.1761
  502MOL0     C66187   8.903   7.272   0.504  0.4381  0.3676  0.3228
  502MOL0     C66188   8.972   7.336   0.407 -0.9779  0.0060  0.1160
  502MOL0     C66189   9.046   7.269   0.307 -0.9353  0.1574 -0.4293
  502MOL0     O66190   9.126   7.322   0.212  0.1215 -0.3744  0.5052
  502MOL0     C66191   9.154   7.469   0.211  0.2996  0.2542 -0.3810
  502MOL0     C66192   9.206   7.512   0.076  0.8814  0.5193  0.2497
  502MOL0     C66193   9.359   7.518   0.062  0.1730 -0.6343  0.0500
  502MOL0     C66194   9.433   7.394   0.099  0.3087  0.1846 -0.5133
  502MOL0     C66195   9.579   7.407   0.089  0.3719  0.0417 -0.5105
  502MOL0     C66196   9.702   7.405   0.087 -0.7126  0.1875 -0.5696
  502MOL0     C66197   9.042   7.132   0.302 -0.2513  0.1730  0.7801
  502MOL0     C66198   8.968   7.060   0.395  0.6276 -0.5142  0.0632
  502MOL0     H66199   8.581   6.826   0.530  0.3453 -0.6930  1.0133
  502MOL0     H66200   8.414   6.734   0.690 -0.7457  0.9350  0.7312
  502MOL0     H66201   8.533   6.743   1.123  1.7867  0.1105 -1.3240
  502MOL0     H66202   8.559   6.560   1.096 -2.4775 -2.6283  2.3495
  502MOL0     H66203   8.398   6.609   1.264  1.5870  1.3635 -1.1912
  502MOL0     H66204   8.327   6.520   1.137  0.8818 -1.1443 -0.5259
  502MOL0     H66205   8.221   6.734   1.047  1.1338 -4.5331 -1.2718
  502MOL0     H66206   8.313   6.827   1.168  1.1640 -1.0147 -2.8202
  502MOL0     H66207   8.145   6.602   1.271 -0.5939 -0.5028  1.6632
  502MOL0     H66208   8.197   6.761   1.346  3.8067  1.4863 -2.9219
  502MOL0     H66209   8.001   6.698   1.119  3.5117 -1.4749  0.5893
  502MOL0     H66210   8.006   6.860   1.203 -1.6615  0.1353  0.6443
  502MOL0     H66211   7.877   6.601   1.287 -0.1723 -0.0593  0.8201
  502MOL0     H66212   7.812   6.764   1.278  0.9772  1.5023  0.5976
  502MOL0     H66213   7.852   6.680   1.520  2.0031 -1.7694  0.8141
  502MOL0     H66214   8.016   6.708   1.482  0.2059  2.5386 -0.4330
  502MOL0     H66215   7.951   6.948   1.400  0.1399  0.3601 -0.7146
  502MOL0     H66216   7.948   6.906   1.575  0.2474 -1.1780 -0.8927
  502MOL0     H66217   7.775   7.123   1.360 -0.2480  0.0832 -0.2509
  502MOL0     H66218   7.556   7.267   1.448  0.0756 -0.4574  1.0398
  502MOL0     H66219   7.431   7.173   1.520  1.1158 -0.6145  1.5787
  502MOL0     H66220   7.348   7.098   1.297  0.6477 -0.1169  0.1745
  502MOL0     H66221   7.491   7.183   1.216  1.0910  1.0205  0.0729
  502MOL0     H66222   7.277   7.319   1.383 -1.8231 -0.9982 -0.9377
  502MOL0     H66223   7.391   7.405   1.284 -2.9691  1.9787  1.4073
  502MOL0     H66224   7.171   7.233   1.159 -0.0837 -0.1625 -1.1656
  502MOL0     H66225   7.316   7.281   1.077  0.4545 -1.0274  0.5264
  502MOL0     H66226   7.049   7.373   1.344  3.2856 -0.1700 -1.2475
  502MOL0     H66227   6.802   7.436   1.373  1.2941 -1.5666 -0.4603
  502MOL0     H66228   6.386   7.353   1.207 -2.5122 -1.4693 -0.2404
  502MOL0     H66229   6.156   7.417   1.186  1.7637 -1.6047  0.0732
  502MOL0     H66230   5.994   7.525   1.470  1.0216 -1.1545 -0.9346
  502MOL0     H66231   5.930   7.459   1.319 -2.0871  0.9180 -0.8751
  502MOL0     H66232   5.755   7.549   1.421  1.2707 -1.5746 -0.8866
  502MOL0     H66233   5.791   7.673   1.297 -0.0355 -1.4361 -0.4990
  502MOL0     H66234   5.892   7.829   1.441  1.9780  0.3391  3.1390
  502MOL0     H66235   5.895   7.712   1.574  0.2023 -1.2399  0.1592
  502MOL0     H66236   5.637   7.835   1.461  1.5170 -0.0375 -1.2790
  502MOL0     H66237   5.647   7.699   1.576 -0.0604  0.1216 -0.2709
  502MOL0     H66238   5.743   7.985   1.586  2.8257 -0.8170 -1.5207
  502MOL0     H66239   5.792   7.875   1.719 -0.3044  0.5741  0.3972
  502MOL0     H66240   5.556   7.843   1.781  3.7560 -1.4126  0.5237
  502MOL0     H66241   5.512   7.938   1.641  0.2992  1.2509 -0.1085
  502MOL0     H66242   5.652   8.138   1.739  0.1112 -0.0444 -0.0981
  502MOL0     H66243   5.523   8.105   1.839  0.3206  0.5313 -1.2047
  502MOL0     H66244   5.818   8.037   1.899  0.6908  1.8799  0.5851
  502MOL0     H66245   5.688   7.934   1.968  2.7053 -0.7575  0.7734
  502MOL0     H66246   6.226   7.775   1.407 -4.4607 -2.1062  0.9313
  502MOL0     H66247   6.459   7.723   1.415 -1.5851  0.7211  2.6440
  502MOL0     H66248   6.812   7.625   0.979 -0.7666 -2.4826 -1.1826
  502MOL0     H66249   7.037   7.575   0.959  0.9683  2.7546  1.0557
  502MOL0     H66250   8.739   6.728   0.987  2.4545  0.8305 -1.3473
  502MOL0     H66251   8.872   6.839   0.848  0.5278  0.0162 -1.7669
  502MOL0     H66252   8.831   7.317   0.571 -1.5489  0.2888 -1.6629
  502MOL0     H66253   8.963   7.444   0.395 -2.8808 -0.0511  0.6832
  502MOL0     H66254   9.226   7.494   0.290  2.3432 -0.2854 -1.9836
  502MOL0     H66255   9.067   7.529   0.235  1.7382  2.3344 -0.1169
  502MOL0     H66256   9.168   7.440   0.003 -3.6658  2.0532  0.7776
  502MOL0     H66257   9.168   7.614   0.063 -2.6405 -0.8111 -1.1659
  502MOL0     H66258   9.388   7.610   0.114 -1.4853  0.3569 -0.6887
  502MOL0     H66259   9.381   7.538  -0.043 -2.1502 -1.3860 -0.6543
  502MOL0     H66260   9.410   7.363   0.201 -2.3632  1.9401 -0.4719
  502MOL0     H66261   9.406   7.316   0.027  1.9206 -0.8824 -0.0103
  502MOL0     H66262   9.809   7.399   0.083 -0.7052  0.4548 -0.7568
  502MOL0     H66263   9.098   7.079   0.225 -1.0243  1.9287 -1.0690
  502MOL0     H66264   8.962   6.954   0.375  0.5333 -0.3772 -0.6716
  503MOL0     O66265  10.545   6.887   2.184  0.3435 -0.6927  0.1092
  503MOL0     C66266  10.584   6.990   2.243 -0.7469 -0.7099  0.1492
  503MOL0     O66267  10.511   7.103   2.257 -0.7024 -0.0487 -0.4587
  503MOL0     C66268  10.376   7.095   2.262  0.1782 -0.5261  0.5115
  503MOL0     C66269  10.283   6.990   2.265 -0.2656  0.6347 -0.3223
  503MOL0     C66270  10.151   7.014   2.260  0.1305  0.1606 -0.0718
  503MOL0     C66271  10.101   7.139   2.237  0.5955 -0.0730 -0.1107
  503MOL0     O66272   9.964   7.164   2.213  1.4104  0.1279 -0.4996
  503MOL0     C66273   9.895   7.070   2.120  0.1731 -1.3935 -0.2850
  503MOL0     C66274   9.793   6.989   2.199 -0.5653 -0.4245 -0.8905
  503MOL0     C66275   9.651   7.041   2.183  0.2082  0.6330  0.2190
  503MOL0     C66276   9.548   6.929   2.207 -0.1054 -0.3163  0.2345
  503MOL0     C66277   9.413   6.988   2.243 -0.4255 -0.8889  0.3687
  503MOL0     C66278   9.308   6.879   2.276 -0.0096  0.0267 -0.6952
  503MOL0     C66279   9.188   6.932   2.363 -0.8888  1.3043  0.7509
  503MOL0     C66280   9.071   6.836   2.348  0.4046 -0.1510 -0.1452
  503MOL0     N66281   8.955   6.898   2.407 -0.9853 -1.4137 -0.1986
  503MOL0     C66282   8.889   6.998   2.350 -0.2303  0.0897  0.0227
  503MOL0     C66283   8.783   7.032   2.438  0.0965 -0.8205 -1.7351
  503MOL0     C66284   8.666   7.123   2.428  0.7134  0.1983  0.1363
  503MOL0     C66285   8.665   7.225   2.541 -0.0149  0.2352 -0.2966
  503MOL0     C66286   8.551   7.192   2.638  0.5403 -0.3563  0.6576
  503MOL0     C66287   8.560   7.298   2.751 -0.3285 -0.1015  0.2785
  503MOL0     O66288   8.503   7.417   2.692  0.1585 -0.2292  0.1462
  503MOL0     C66289   8.376   7.444   2.714  0.1216 -0.3481 -0.2707
  503MOL0     C66290   8.281   7.361   2.761  0.5690  0.5326  0.1773
  503MOL0     C66291   8.151   7.409   2.785  0.1341 -0.0731 -0.1162
  503MOL0     C66292   8.114   7.546   2.763  0.5962  0.3976  0.3008
  503MOL0     C66293   7.973   7.594   2.796  0.0245 -1.1526 -0.5383
  503MOL0     O66294   7.888   7.496   2.836 -0.0012 -0.1444  0.1429
  503MOL0     C66295   7.761   7.530   2.850  0.1836  0.3236 -0.4398
  503MOL0     C66296   7.720   7.563   2.983 -0.1669  0.6795 -0.0780
  503MOL0     C66297   7.598   7.621   3.000 -0.6747 -0.3136  1.2542
  503MOL0     C66298   7.507   7.647   2.899 -0.3796  0.3917  0.3834
  503MOL0     O66299   7.384   7.686   2.941  0.1356  0.0631 -0.0111
  503MOL0     C66300   7.276   7.709   2.854 -0.6516 -0.8999 -0.2517
  503MOL0     C66301   7.148   7.625   2.898 -0.6933  0.0936 -0.5196
  503MOL0     C66302   7.111   7.671   3.035  0.3075  0.3762  0.6414
  503MOL0     C66303   6.993   7.587   3.089  0.6168  0.5347 -0.4764
  503MOL0     C66304   6.866   7.630   3.026 -0.5750 -0.2261 -0.4049
  503MOL0     C66305   6.820   7.528   2.921 -0.1332 -0.6594  0.2977
  503MOL0     C66306   6.695   7.586   2.856  0.2024  0.1851  0.0016
  503MOL0     C66307   6.630   7.467   2.782 -0.7671 -0.6922 -0.1298
  503MOL0    Cl66308   6.553   7.366   2.905 -0.4188  0.1053  0.4229
  503MOL0     C66309   7.553   7.609   2.767 -0.3846 -0.0533  0.6186
  503MOL0     C66310   7.677   7.552   2.742 -1.0638  0.0049 -0.6429
  503MOL0     O66311   7.942   7.710   2.767  0.4347  0.0615 -0.5500
  503MOL0     C66312   8.208   7.628   2.709 -1.1663 -0.1875 -0.6547
  503MOL0     C66313   8.336   7.572   2.679  0.5597  0.2453 -0.7441
  503MOL0     N66314   8.816   6.964   2.553 -0.1670  0.0500  0.5160
  503MOL0     N66315   8.918   6.886   2.531 -0.0170 -0.4925 -0.5729
  503MOL0     C66316  10.191   7.248   2.248  0.5011 -0.3053 -0.2067
  503MOL0     C66317  10.325   7.226   2.256  0.5536  0.7587  0.3560
  503MOL0     C66318  10.730   7.002   2.280  0.6080  0.4397 -0.2156
  503MOL0     C66319  10.810   6.882   2.315  0.9402  0.3025  0.5749
  503MOL0     C66320  10.947   6.887   2.344 -0.4833 -0.3104  0.6064
  503MOL0     C66321  11.008   7.014   2.343  0.0547  0.2539 -1.2709
  503MOL0     O66322  11.139   7.010   2.352 -0.2840 -0.2355 -0.0153
  503MOL0     C66323  11.223   7.131   2.370  0.5550  0.6541 -0.6549
  503MOL0     C66324  11.365   7.103   2.411 -0.4398 -0.5054  0.1531
  503MOL0     C66325  11.459   7.069   2.297  1.2261  0.3187 -0.1706
  503MOL0     C66326  11.582   7.000   2.358  0.7785  0.5553  0.3055
  503MOL0     C66327  11.674   7.089   2.431 -0.7853  0.0500 -0.7491
  503MOL0     C66328  11.743   7.174   2.487 -0.0127  0.5162  0.2803
  503MOL0     C66329  10.937   7.127   2.309 -0.9806  0.4066 -0.5314
  503MOL0     C66330  10.796   7.126   2.288  0.6868  0.1861 -0.1981
  503MOL0     H66331  10.320   6.888   2.269  0.2650  0.8632  0.9894
  503MOL0     H66332  10.096   6.923   2.235  3.4700 -1.2477 -3.2916
  503MOL0     H66333   9.964   7.000   2.074  1.3454  0.7517 -1.9653
  503MOL0     H66334   9.852   7.133   2.042 -1.5525 -1.8231  0.2720
  503MOL0     H66335   9.801   6.999   2.308  1.3506  0.5568 -1.0828
  503MOL0     H66336   9.804   6.885   2.168 -1.1537 -1.0395  0.8764
  503MOL0     H66337   9.644   7.075   2.080  0.8023  0.8960  0.2606
  503MOL0     H66338   9.638   7.123   2.255 -0.0004  0.6138  0.2030
  503MOL0     H66339   9.540   6.867   2.117  1.1333 -2.2339  1.3722
  503MOL0     H66340   9.581   6.869   2.293  0.4259  0.3228  0.4865
  503MOL0     H66341   9.386   7.054   2.160 -0.5468 -0.4026  0.7981
  503MOL0     H66342   9.427   7.042   2.337 -2.8255 -2.5922  1.8100
  503MOL0     H66343   9.362   6.800   2.328 -1.6578 -1.5822 -1.3228
  503MOL0     H66344   9.274   6.832   2.184  1.1882 -1.0119 -0.6299
  503MOL0     H66345   9.220   6.931   2.467  0.2940 -1.0853  0.4247
  503MOL0     H66346   9.166   7.034   2.329  1.7594  1.5343 -0.5784
  503MOL0     H66347   9.094   6.737   2.390 -0.9214 -0.0206  0.9683
  503MOL0     H66348   9.047   6.821   2.242 -1.2091  3.5064 -0.4187
  503MOL0     H66349   8.895   7.036   2.248  0.6370  0.0264  0.0436
  503MOL0     H66350   8.573   7.067   2.436  1.3327 -0.6709  1.5036
  503MOL0     H66351   8.661   7.177   2.333 -1.1308  2.5481  1.4616
  503MOL0     H66352   8.669   7.325   2.496  2.6639 -0.7859 -2.6422
  503MOL0     H66353   8.755   7.206   2.599  0.3398 -2.0588 -1.4718
  503MOL0     H66354   8.457   7.193   2.584  0.3925  0.9537  0.9166
  503MOL0     H66355   8.566   7.093   2.683  1.3308  0.4716  2.3327
  503MOL0     H66356   8.663   7.306   2.787  0.0694 -4.0454  0.4858
  503MOL0     H66357   8.495   7.269   2.834 -2.0766  0.4454 -0.8619
  503MOL0     H66358   8.290   7.255   2.784  0.4649  0.9940  2.7010
  503MOL0     H66359   8.071   7.341   2.812 -1.4161  1.5613 -0.4486
  503MOL0     H66360   7.790   7.546   3.064  1.2886 -0.6149 -1.5111
  503MOL0     H66361   7.571   7.630   3.105 -1.8091  1.1580  0.8697
  503MOL0     H66362   7.297   7.699   2.747  2.5622  3.1665 -0.2479
  503MOL0     H66363   7.244   7.811   2.877  1.5665 -0.3050  0.5673
  503MOL0     H66364   7.169   7.518   2.897 -0.0373  0.1887  0.6931
  503MOL0     H66365   7.063   7.646   2.833 -0.2325 -0.3306 -1.2741
  503MOL0     H66366   7.077   7.775   3.044 -0.8932  0.0535  0.0582
  503MOL0     H66367   7.195   7.676   3.105 -0.9979  0.0635  2.2949
  503MOL0     H66368   7.018   7.481   3.081  0.6694  0.6537 -2.1949
  503MOL0     H66369   6.972   7.623   3.190 -3.0918 -0.0574 -0.9117
  503MOL0     H66370   6.876   7.734   2.995 -2.0385 -0.2310 -0.9781
  503MOL0     H66371   6.784   7.639   3.098 -1.3102  0.5427 -1.2971
  503MOL0     H66372   6.807   7.432   2.971  2.3335 -1.4737 -0.5015
  503MOL0     H66373   6.892   7.516   2.839  0.1700 -3.3771  0.8680
  503MOL0     H66374   6.630   7.640   2.925  2.3924 -0.2729  2.6206
  503MOL0     H66375   6.716   7.659   2.778 -2.6356 -0.9774 -2.0295
  503MOL0     H66376   6.701   7.423   2.711 -1.3901 -1.9637  0.0136
  503MOL0     H66377   6.550   7.511   2.721 -1.3865  1.2992  1.9692
  503MOL0     H66378   7.491   7.617   2.678 -1.8551 -1.4809  1.4748
  503MOL0     H66379   7.722   7.524   2.647  0.1621  0.0038 -0.0754
  503MOL0     H66380   8.191   7.729   2.673 -4.5318 -0.4260 -0.1011
  503MOL0     H66381   8.398   7.650   2.635 -0.9228  2.5431  0.9694
  503MOL0     H66382  10.151   7.349   2.244  0.9280 -0.0386  1.2797
  503MOL0     H66383  10.387   7.315   2.252  0.4316  0.8545  0.5749
  503MOL0     H66384  10.750   6.792   2.313  0.4619  0.6231 -1.2277
  503MOL0     H66385  10.993   6.790   2.363  0.0798 -0.6127 -1.9879
  503MOL0     H66386  11.174   7.198   2.442 -0.0647  1.2856 -1.6406
  503MOL0     H66387  11.233   7.180   2.273  2.9781  2.6652  0.5142
  503MOL0     H66388  11.406   7.193   2.458 -1.9295 -0.4533  1.4444
  503MOL0     H66389  11.360   7.034   2.495 -0.1849  2.4300  2.7971
  503MOL0     H66390  11.496   7.158   2.246  1.6602  0.9789  1.2496
  503MOL0     H66391  11.406   7.007   2.224  0.7002  0.4171  0.1265
  503MOL0     H66392  11.553   6.921   2.428 -1.4603  0.0685 -1.0910
  503MOL0     H66393  11.631   6.961   2.269 -0.7496  0.9940 -0.7730
  503MOL0     H66394  11.810   7.238   2.542  0.0130  0.3124  0.4895
  503MOL0     H66395  10.984   7.225   2.305 -1.4760  0.6225 -1.3587
  503MOL0     H66396  10.748   7.221   2.268  0.4258  0.1113  0.0603
  504MOL0     O66397   4.994   8.159   2.146 -0.6742 -0.4289  0.3248
  504MOL0     C66398   5.054   8.222   2.233 -0.4682 -0.4644 -0.1532
  504MOL0     O66399   5.018   8.227   2.359 -0.6532  0.0162  0.0205
  504MOL0     C66400   4.883   8.200   2.385  0.0128 -0.3404  0.7440
  504MOL0     C66401   4.841   8.105   2.473 -0.6939  0.8373  0.4098
  504MOL0     C66402   4.709   8.095   2.510 -0.0784  0.4314 -0.1591
  504MOL0     C66403   4.618   8.165   2.439 -0.1307 -0.7709  0.2952
  504MOL0     O66404   4.487   8.129   2.461  0.4436  0.5662  0.3540
  504MOL0     C66405   4.380   8.214   2.412 -1.1202  0.9355 -0.0505
  504MOL0     C66406   4.253   8.173   2.464 -0.3697  0.2546 -0.5853
  504MOL0     C66407   4.140   8.277   2.460  0.2209 -0.5667  0.2192
  504MOL0     C66408   4.002   8.212   2.461 -0.6752 -0.6209 -0.1546
  504MOL0     C66409   3.888   8.320   2.459 -0.5600 -0.3917 -0.4691
  504MOL0     C66410   3.760   8.250   2.457  1.8528 -0.1337 -0.0233
  504MOL0     C66411   3.643   8.351   2.420  0.6177  0.7152  0.6070
  504MOL0     C66412   3.655   8.400   2.277  0.5225 -0.8156  1.1727
  504MOL0     N66413   3.522   8.457   2.247 -0.8336 -0.2089 -0.4306
  504MOL0     C66414   3.426   8.407   2.167  0.9163 -0.9348  0.0708
  504MOL0     C66415   3.326   8.498   2.169  0.3376  0.4278  0.3768
  504MOL0     C66416   3.211   8.497   2.078 -0.4722 -0.1267 -1.0035
  504MOL0     C66417   3.078   8.497   2.147 -0.7801 -0.0784 -0.9479
  504MOL0     C66418   2.966   8.468   2.041  0.4358 -0.7702  0.7655
  504MOL0     C66419   2.833   8.429   2.102  0.3028  0.0576 -0.7663
  504MOL0     O66420   2.745   8.394   1.993 -0.7988 -0.3518 -0.6428
  504MOL0     C66421   2.644   8.311   2.025 -0.7946  0.0403  1.4449
  504MOL0     C66422   2.635   8.190   1.951 -0.4712  0.0364 -1.2340
  504MOL0     C66423   2.542   8.106   2.001  0.0393  0.7448 -0.4523
  504MOL0     C66424   2.451   8.132   2.103  0.4699 -0.0350  0.5136
  504MOL0     C66425   2.351   8.029   2.133  0.3447  0.4443  0.5943
  504MOL0     O66426   2.298   7.956   2.033  0.1017 -0.7898  0.2299
  504MOL0     C66427   2.183   7.887   2.060 -1.0033 -0.4338  0.2150
  504MOL0     C66428   2.082   7.908   1.971 -0.4839  1.2740  0.6602
  504MOL0     C66429   1.958   7.844   1.987  0.5586  0.6501  0.3623
  504MOL0     C66430   1.947   7.732   2.078  0.4274  0.0631  0.3617
  504MOL0     O66431   1.823   7.668   2.077  0.8741  0.2268  0.1370
  504MOL0     C66432   1.783   7.606   2.202 -0.3308  0.2896  0.1342
  504MOL0     C66433   1.789   7.458   2.182 -0.3872 -0.3706 -1.1589
  504MOL0     C66434   1.750   7.403   2.326 -0.1465  0.0220  0.1343
  504MOL0     C66435   1.752   7.252   2.317  0.0963  1.1106  0.0642
  504MOL0     C66436   1.730   7.191   2.459  0.4426 -0.5199 -0.2310
  504MOL0     C66437   1.594   7.209   2.529  0.9425  0.7154  0.0745
  504MOL0     C66438   1.487   7.157   2.431  0.1160  0.6730  1.1031
  504MOL0     C66439   1.502   7.015   2.380 -0.9691  0.6280 -0.0844
  504MOL0    Cl66440   1.443   6.905   2.504  0.2093  0.4342  0.0392
  504MOL0     C66441   2.052   7.705   2.164  0.2542 -0.6203 -1.0318
  504MOL0     C66442   2.167   7.786   2.161 -0.6087  0.3076  0.1589
  504MOL0     O66443   2.325   8.009   2.251  0.2086 -0.4244 -0.4352
  504MOL0     C66444   2.458   8.257   2.170 -0.5576 -0.2069 -0.2145
  504MOL0     C66445   2.558   8.347   2.126  0.0523 -0.3881 -0.7325
  504MOL0     N66446   3.353   8.605   2.251  0.4070  1.4289  0.1470
  504MOL0     N66447   3.466   8.573   2.301  0.3126 -0.3456 -0.4346
  504MOL0     C66448   4.654   8.257   2.344  0.2370  0.3886  0.7647
  504MOL0     C66449   4.787   8.282   2.319  0.0350  1.4469 -0.1570
  504MOL0     C66450   5.184   8.279   2.202  0.6212 -0.2463  0.4358
  504MOL0     C66451   5.258   8.250   2.081  0.1899 -0.2497 -1.2433
  504MOL0     C66452   5.378   8.314   2.059 -0.5220  0.2832 -0.1428
  504MOL0     C66453   5.433   8.411   2.145 -0.0094 -0.3863  0.2567
  504MOL0     O66454   5.548   8.465   2.116 -0.9737 -0.2657  0.6132
  504MOL0     C66455   5.637   8.498   2.224 -0.4416 -0.0672  0.2965
  504MOL0     C66456   5.780   8.494   2.170  1.0865  0.1184  0.5217
  504MOL0     C66457   5.884   8.560   2.260  0.4654  0.8678 -0.4072
  504MOL0     C66458   5.850   8.699   2.319  0.7025 -0.6818  0.2980
  504MOL0     C66459   5.864   8.796   2.211 -0.6048  0.6908  0.1225
  504MOL0     C66460   5.871   8.853   2.106 -0.4056 -0.1458  0.3264
  504MOL0     C66461   5.360   8.426   2.265  0.0484  0.0594  0.3632
  504MOL0     C66462   5.242   8.366   2.295  0.4094  0.3735  0.4877
  504MOL0     H66463   4.919   8.045   2.519  0.5990  0.5889 -1.9689
  504MOL0     H66464   4.670   8.033   2.590  2.2805  1.4213  1.8953
  504MOL0     H66465   4.385   8.229   2.303 -0.0607  1.4883  0.0644
  504MOL0     H66466   4.406   8.311   2.455  1.3562  0.6506 -0.7232
  504MOL0     H66467   4.271   8.142   2.567 -1.4320 -0.5581 -0.6179
  504MOL0     H66468   4.217   8.081   2.415 -0.6129  0.2091 -0.3276
  504MOL0     H66469   4.147   8.329   2.364  0.0372 -0.7426  0.1128
  504MOL0     H66470   4.159   8.349   2.541  2.4388 -3.2247  2.2683
  504MOL0     H66471   3.989   8.163   2.364  1.2733 -0.9449 -0.2827
  504MOL0     H66472   3.996   8.140   2.544 -0.2874  0.1657  0.5713
  504MOL0     H66473   3.897   8.401   2.387 -0.6663  1.3290  1.3765
  504MOL0     H66474   3.887   8.376   2.553  1.3198 -1.0305 -0.0178
  504MOL0     H66475   3.733   8.205   2.553  0.5332 -1.0722 -0.8064
  504MOL0     H66476   3.765   8.165   2.389  4.2839 -0.9553  1.0845
  504MOL0     H66477   3.547   8.299   2.430  1.0020 -0.1842 -0.2304
  504MOL0     H66478   3.642   8.439   2.485  2.5971  0.8567  0.5005
  504MOL0     H66479   3.687   8.315   2.216 -0.6234 -1.2852  1.1933
  504MOL0     H66480   3.735   8.473   2.265  0.9982 -1.1123  2.4197
  504MOL0     H66481   3.441   8.327   2.095 -2.1075 -0.6713 -0.9828
  504MOL0     H66482   3.217   8.397   2.034 -2.7576 -1.3431  1.2175
  504MOL0     H66483   3.211   8.586   2.014  1.6579  1.2822  0.8063
  504MOL0     H66484   3.054   8.588   2.202  0.4314 -2.2534  3.7600
  504MOL0     H66485   3.068   8.411   2.214 -1.9753  1.0748  0.4091
  504MOL0     H66486   2.944   8.562   1.988 -1.6698 -1.7073 -0.1388
  504MOL0     H66487   2.997   8.406   1.956  2.0232  1.5833 -0.4907
  504MOL0     H66488   2.796   8.514   2.160 -0.2836 -1.7585  1.6869
  504MOL0     H66489   2.852   8.344   2.168 -0.8170  0.4411  0.0744
  504MOL0     H66490   2.705   8.164   1.872  1.5018  0.3884  0.3307
  504MOL0     H66491   2.540   8.015   1.942 -2.0570 -1.0378  2.1726
  504MOL0     H66492   2.094   7.979   1.890  1.0599 -2.8791 -3.2066
  504MOL0     H66493   1.862   7.864   1.942 -0.3984 -2.3635  0.8199
  504MOL0     H66494   1.678   7.634   2.218  0.0914  2.7566 -0.9120
  504MOL0     H66495   1.848   7.639   2.283  0.7098  0.7360 -0.8621
  504MOL0     H66496   1.894   7.445   2.155  0.6637  1.2251  1.7910
  504MOL0     H66497   1.726   7.420   2.101 -0.6834  0.3098 -1.2598
  504MOL0     H66498   1.649   7.439   2.343 -0.2217  0.2208 -0.6931
  504MOL0     H66499   1.819   7.439   2.404 -1.8541 -1.6949  2.6058
  504MOL0     H66500   1.676   7.221   2.244  0.6416  2.3898 -1.1052
  504MOL0     H66501   1.846   7.211   2.279  1.3222  4.2891 -0.6245
  504MOL0     H66502   1.806   7.235   2.525  0.3862 -0.9733  0.1375
  504MOL0     H66503   1.742   7.083   2.449 -0.4968 -0.6007 -0.6488
  504MOL0     H66504   1.573   7.315   2.542  0.6238  0.5218  1.2628
  504MOL0     H66505   1.595   7.161   2.628  0.0088 -2.2525 -1.2297
  504MOL0     H66506   1.386   7.157   2.473  0.7666 -1.6199  2.8742
  504MOL0     H66507   1.472   7.216   2.340  0.0851 -0.2641  0.4867
  504MOL0     H66508   1.604   6.995   2.345 -0.1560 -0.5676  2.6250
  504MOL0     H66509   1.438   7.017   2.292  1.9225 -0.4612 -2.3582
  504MOL0     H66510   2.049   7.619   2.231  1.6607  0.6741  0.7687
  504MOL0     H66511   2.253   7.755   2.220 -2.1193 -0.4836  2.0494
  504MOL0     H66512   2.395   8.269   2.256  0.0206 -0.3289  0.2336
  504MOL0     H66513   2.549   8.442   2.178 -2.8843 -1.2082  0.4548
  504MOL0     H66514   4.578   8.316   2.294  1.6319  0.7467 -1.0399
  504MOL0     H66515   4.830   8.348   2.245  3.2984  0.0252  0.3114
  504MOL0     H66516   5.221   8.179   2.009 -0.2135 -1.6145  0.2555
  504MOL0     H66517   5.414   8.319   1.957 -0.7777 -0.0655 -0.2515
  504MOL0     H66518   5.623   8.436   2.313  1.7428 -0.2922  0.5171
  504MOL0     H66519   5.621   8.604   2.248 -4.8907 -0.3774 -0.3376
  504MOL0     H66520   5.810   8.390   2.154  0.7313  0.2239 -0.9332
  504MOL0     H66521   5.771   8.542   2.072 -1.5258 -1.5934 -0.1635
  504MOL0     H66522   5.980   8.564   2.207  1.9936 -1.2294  1.9591
  504MOL0     H66523   5.894   8.486   2.340  2.1003 -0.1944 -1.5118
  504MOL0     H66524   5.747   8.706   2.356  0.5207  1.0393 -0.4202
  504MOL0     H66525   5.906   8.733   2.406 -2.8896  5.1646  0.8462
  504MOL0     H66526   5.868   8.894   2.007  1.7115  0.9857  0.6736
  504MOL0     H66527   5.396   8.492   2.343 -1.5419  2.0138 -0.4461
  504MOL0     H66528   5.190   8.389   2.388 -0.8494  0.9017 -0.3217
  505MOL0     O66529   3.565   5.413   4.181  0.4583 -0.0903  0.5384
  505MOL0     C66530   3.520   5.315   4.124 -0.7360  0.6044  0.4014
  505MOL0     O66531   3.400   5.261   4.145 -0.3541 -0.0425 -0.9923
  505MOL0     C66532   3.327   5.291   4.263 -0.2253  0.4463 -0.1116
  505MOL0     C66533   3.369   5.355   4.373 -0.1105 -0.0963 -0.0087
  505MOL0     C66534   3.282   5.368   4.478  0.0215  0.2183  0.6172
  505MOL0     C66535   3.151   5.317   4.479  0.4573 -0.4785  1.1902
  505MOL0     O66536   3.065   5.341   4.576  0.1897 -0.1172  0.0865
  505MOL0     C66537   3.092   5.445   4.669 -0.4646 -0.1353  0.2170
  505MOL0     C66538   2.967   5.495   4.747  0.0779 -0.5799  0.0554
  505MOL0     C66539   2.940   5.414   4.864  0.0723  0.5383  0.0197
  505MOL0     C66540   2.799   5.440   4.917 -0.4026 -0.4132  0.1507
  505MOL0     C66541   2.795   5.388   5.062  0.4365 -0.9020  0.2056
  505MOL0     C66542   2.813   5.238   5.066 -0.0333  0.3439  0.3836
  505MOL0     C66543   2.756   5.183   5.197  0.5373 -0.2047  0.6665
  505MOL0     C66544   2.792   5.040   5.221  0.4595  0.1378  0.4731
  505MOL0     N66545   2.769   5.001   5.362 -0.1884 -0.3713 -0.1712
  505MOL0     C66546   2.650   5.006   5.428  0.5122  0.3510 -0.8117
  505MOL0     C66547   2.681   4.996   5.555 -0.3714  0.2125 -0.6071
  505MOL0     C66548   2.591   5.007   5.671  0.0249 -0.3965  0.0664
  505MOL0     C66549   2.452   4.948   5.651 -1.1393  0.3568  0.3353
  505MOL0     C66550   2.362   4.983   5.775 -0.0719 -0.1810  0.0535
  505MOL0     C66551   2.216   4.966   5.743 -0.9133 -0.0596  0.3250
  505MOL0     O66552   2.140   5.043   5.837 -0.2983  0.2721 -0.0119
  505MOL0     C66553   2.015   5.004   5.876  0.4841  0.6436 -0.4012
  505MOL0     C66554   1.971   5.045   6.008  0.5029 -0.0362  1.5732
  505MOL0     C66555   1.835   5.026   6.041 -0.2354  0.4677  0.0864
  505MOL0     C66556   1.745   4.956   5.958  0.2456  0.0151  0.1756
  505MOL0     C66557   1.600   4.945   5.995 -1.3852 -0.4870 -0.0818
  505MOL0     O66558   1.520   4.888   5.900 -0.4867  0.7027 -0.1371
  505MOL0     C66559   1.393   4.866   5.933  0.0604  1.4046  0.7096
  505MOL0     C66560   1.358   4.729   5.962  0.4711 -0.9883 -0.1123
  505MOL0     C66561   1.231   4.702   6.003 -0.3358 -0.3580 -0.1957
  505MOL0     C66562   1.135   4.806   6.019 -0.2422  0.5662 -0.2368
  505MOL0     O66563   1.008   4.767   6.049  0.5214 -0.2587  0.8630
  505MOL0     C66564   0.927   4.870   6.109 -0.3085 -0.1044 -0.7557
  505MOL0     C66565   0.803   4.811   6.166  0.2085 -0.6052 -0.1429
  505MOL0     C66566   0.713   4.932   6.201  0.1006  0.4704 -0.3192
  505MOL0     C66567   0.589   4.897   6.281  0.4287 -0.3528 -0.0854
  505MOL0     C66568   0.469   4.829   6.195 -0.1212 -0.5462  0.4212
  505MOL0     C66569   0.328   4.896   6.220  0.2781 -0.5624 -0.0494
  505MOL0     C66570   0.312   5.027   6.160 -0.2018 -0.9427  0.7784
  505MOL0     C66571   0.183   5.096   6.208 -0.1111 -0.2601  0.6410
  505MOL0    Cl66572   0.219   5.142   6.372  0.0998 -0.4879  0.3478
  505MOL0     C66573   1.178   4.940   5.997  0.1447  1.0517  0.2309
  505MOL0     C66574   1.307   4.966   5.958  0.0656  0.5863  0.1037
  505MOL0     O66575   1.569   4.982   6.103 -0.2532 -0.0152  0.8657
  505MOL0     C66576   1.791   4.903   5.830 -0.0618 -0.3278  0.7939
  505MOL0     C66577   1.926   4.930   5.791  0.0420  0.6897 -1.0037
  505MOL0     N66578   2.817   4.977   5.571 -0.0800  0.6469  0.5575
  505MOL0     N66579   2.871   4.971   5.454 -0.2873  0.8788  0.0625
  505MOL0     C66580   3.107   5.243   4.372  0.1920 -0.3792  0.4484
  505MOL0     C66581   3.201   5.222   4.265  0.7646 -0.1301 -1.6058
  505MOL0     C66582   3.604   5.265   4.011 -0.3604 -0.4044  0.3011
  505MOL0     C66583   3.548   5.172   3.914 -0.6292  0.3996 -0.5325
  505MOL0     C66584   3.634   5.101   3.821 -0.3524  0.2410 -0.2237
  505MOL0     C66585   3.777   5.113   3.821 -0.2778  0.1675  0.5657
  505MOL0     O66586   3.855   5.035   3.742 -0.6799 -0.2146 -0.2731
  505MOL0     C66587   4.001   5.042   3.737 -0.1353 -0.2210  0.2283
  505MOL0     C66588   4.043   5.162   3.652  0.0730  0.4402  0.0616
  505MOL0     C66589   4.193   5.172   3.630 -0.1089  1.1300  0.1861
  505MOL0     C66590   4.279   5.154   3.759  0.6447  0.4651 -0.1427
  505MOL0     C66591   4.418   5.141   3.721 -0.3225 -0.0951  0.0732
  505MOL0     C66592   4.536   5.134   3.694 -0.1756  0.5433  0.6488
  505MOL0     C66593   3.827   5.203   3.920  0.5828  0.7544 -0.0130
  505MOL0     C66594   3.745   5.274   4.007 -0.4869  0.1719 -0.4036
  505MOL0     H66595   3.475   5.368   4.392 -0.0593  0.1875 -0.4733
  505MOL0     H66596   3.316   5.427   4.563  0.0421  1.9186 -0.5126
  505MOL0     H66597   3.131   5.535   4.622 -0.8425 -0.9889 -1.8567
  505MOL0     H66598   3.162   5.402   4.740 -0.9323 -0.1595  0.6708
  505MOL0     H66599   2.884   5.499   4.676  1.1304 -1.4102 -1.2860
  505MOL0     H66600   2.989   5.598   4.774 -1.7463  0.6895 -2.8291
  505MOL0     H66601   3.022   5.439   4.933  1.5914 -2.0537 -0.6998
  505MOL0     H66602   2.959   5.310   4.837 -1.2871  0.3569 -0.3072
  505MOL0     H66603   2.781   5.548   4.924  0.8830 -0.3073  3.0447
  505MOL0     H66604   2.722   5.395   4.853 -1.4370 -1.5348  2.0686
  505MOL0     H66605   2.697   5.416   5.102 -0.8036 -3.0823 -1.0944
  505MOL0     H66606   2.881   5.436   5.110 -0.1597  1.3458 -0.8972
  505MOL0     H66607   2.917   5.208   5.052  0.6749  0.9836  3.4669
  505MOL0     H66608   2.767   5.186   4.982  4.8670 -2.3146 -1.0089
  505MOL0     H66609   2.791   5.242   5.282 -0.2343  2.0098 -0.4603
  505MOL0     H66610   2.647   5.192   5.198  0.4189 -1.2018 -0.7625
  505MOL0     H66611   2.899   5.028   5.200  0.6875  1.5914  0.6379
  505MOL0     H66612   2.737   4.975   5.153  0.5612  1.6159 -1.0872
  505MOL0     H66613   2.552   5.015   5.382  0.3436  0.6471 -0.3907
  505MOL0     H66614   2.587   5.115   5.686  4.8005  0.0294 -0.2611
  505MOL0     H66615   2.627   4.977   5.770 -1.1058  2.0958  1.3312
  505MOL0     H66616   2.466   4.841   5.636 -0.4208  0.3005  1.3406
  505MOL0     H66617   2.406   4.990   5.561  2.3673  1.7363 -0.9955
  505MOL0     H66618   2.383   4.910   5.854  2.4481 -3.5788 -3.3893
  505MOL0     H66619   2.371   5.085   5.814 -2.7223 -0.4219  1.5297
  505MOL0     H66620   2.178   4.864   5.758 -2.9514  0.9160  2.5352
  505MOL0     H66621   2.196   4.996   5.640 -1.6167 -1.6940 -0.0387
  505MOL0     H66622   2.046   5.097   6.065  4.7136 -1.7787 -1.7647
  505MOL0     H66623   1.803   5.069   6.136 -1.7584 -2.4114  1.0072
  505MOL0     H66624   1.432   4.654   5.939  1.0628  0.2042 -2.4756
  505MOL0     H66625   1.195   4.600   6.016  0.7594 -0.7840 -0.3959
  505MOL0     H66626   0.904   4.942   6.031 -0.9159 -0.7963 -1.2246
  505MOL0     H66627   0.969   4.931   6.190  0.2436  0.4032 -1.4122
  505MOL0     H66628   0.817   4.740   6.249  1.9309 -3.1619 -2.4322
  505MOL0     H66629   0.756   4.753   6.086  0.9697 -0.2209 -0.8837
  505MOL0     H66630   0.678   4.983   6.111  1.1004 -0.1762 -1.0793
  505MOL0     H66631   0.773   5.000   6.262  0.6742 -1.0212  0.8249
  505MOL0     H66632   0.620   4.825   6.358 -2.4916 -2.5921 -0.8124
  505MOL0     H66633   0.550   4.986   6.330  2.5345  0.4600  0.1905
  505MOL0     H66634   0.465   4.722   6.217  1.6042 -0.6292  0.4726
  505MOL0     H66635   0.496   4.845   6.090 -0.3455  0.1772  0.4710
  505MOL0     H66636   0.300   4.895   6.326 -0.0094 -0.7250 -0.1235
  505MOL0     H66637   0.248   4.837   6.173  1.0088 -0.6964 -1.1812
  505MOL0     H66638   0.398   5.094   6.168 -1.4482  0.6535  1.3094
  505MOL0     H66639   0.305   5.012   6.051 -0.3344 -0.4334  0.7120
  505MOL0     H66640   0.096   5.030   6.200 -1.2804  1.3508 -0.9053
  505MOL0     H66641   0.154   5.178   6.142  0.2059 -1.9845 -1.7601
  505MOL0     H66642   1.108   5.021   6.011 -1.2536 -0.1206  0.2860
  505MOL0     H66643   1.339   5.066   5.933  1.3337 -0.4408 -2.8895
  505MOL0     H66644   1.732   4.840   5.765  2.6076 -2.7518  0.5356
  505MOL0     H66645   1.970   4.895   5.698  1.8606 -0.8194  0.3358
  505MOL0     H66646   3.003   5.212   4.368 -0.7166  2.4632 -2.2365
  505MOL0     H66647   3.182   5.167   4.173 -0.5340 -1.3272 -0.6567
  505MOL0     H66648   3.441   5.160   3.896 -0.5377  0.6410 -1.2892
  505MOL0     H66649   3.590   5.031   3.752 -0.8286 -1.1542  1.4212
  505MOL0     H66650   4.027   4.949   3.685 -0.8532 -0.7235  0.7400
  505MOL0     H66651   4.051   5.038   3.835  0.7462 -0.5095 -0.2287
  505MOL0     H66652   3.991   5.149   3.557  0.6201 -0.5392 -0.1181
  505MOL0     H66653   4.011   5.261   3.687 -2.3414  0.1800 -1.2276
  505MOL0     H66654   4.219   5.264   3.576  0.0682 -0.9208 -3.5924
  505MOL0     H66655   4.214   5.094   3.557 -1.0815  0.1504  0.9232
  505MOL0     H66656   4.260   5.237   3.828 -1.2896 -0.8490  0.9731
  505MOL0     H66657   4.254   5.059   3.807 -0.0937  2.0503  2.8442
  505MOL0     H66658   4.636   5.120   3.657 -1.3009  1.0513 -2.8860
  505MOL0     H66659   3.934   5.209   3.939  0.8427 -0.2016 -1.1090
  505MOL0     H66660   3.794   5.353   4.064  3.3152 -1.1160 -1.6011
  506MOL0     O66661   9.319   0.763   0.208 -0.5771 -0.2821 -0.0353
  506MOL0     C66662   9.363   0.653   0.245  0.5073  0.0502 -0.2592
  506MOL0     O66663   9.301   0.524   0.244  0.2377  0.2336 -0.2415
  506MOL0     C66664   9.167   0.513   0.212  0.0242 -0.2283  0.1893
  506MOL0     C66665   9.083   0.611   0.151  0.5756 -0.1880  0.1324
  506MOL0     C66666   8.947   0.562   0.121 -0.6509 -0.7106  0.4032
  506MOL0     C66667   8.901   0.444   0.158  0.7763 -0.1631 -0.2291
  506MOL0     O66668   8.772   0.406   0.132 -0.4269 -0.0442 -0.1781
  506MOL0     C66669   8.750   0.382  -0.007  0.3926 -0.1098 -0.1869
  506MOL0     C66670   8.612   0.308  -0.023  0.8538 -0.8871 -0.0789
  506MOL0     C66671   8.503   0.395   0.041  0.0347  0.8813 -0.2607
  506MOL0     C66672   8.486   0.518  -0.028  0.0171 -0.3098  0.3400
  506MOL0     C66673   8.345   0.575  -0.010 -0.1074  0.5523  0.2253
  506MOL0     C66674   8.321   0.623   0.141 -0.5153  0.1757 -1.3137
  506MOL0     C66675   8.406   0.737   0.187 -0.1601  0.2882  0.5889
  506MOL0     C66676   8.370   0.773   0.331 -0.2934 -0.5645 -1.2990
  506MOL0     N66677   8.440   0.888   0.389 -0.3462  1.1136  1.0153
  506MOL0     C66678   8.518   0.875   0.501  0.0285 -0.1205  0.8572
  506MOL0     C66679   8.547   1.004   0.528 -1.0235  0.0249  0.0171
  506MOL0     C66680   8.636   1.059   0.637  0.5446 -0.1741 -0.6532
  506MOL0     C66681   8.620   0.995   0.775  1.0258 -0.0252 -0.1494
  506MOL0     C66682   8.464   1.009   0.820 -0.4815  0.0453 -0.5438
  506MOL0     C66683   8.427   1.153   0.855 -0.2927 -0.9034 -0.3991
  506MOL0     O66684   8.301   1.152   0.934  0.3060  0.0695 -0.7909
  506MOL0     C66685   8.216   1.260   0.930  0.3360  0.2979 -0.2566
  506MOL0     C66686   8.099   1.258   1.000 -0.1636  0.0937 -0.4693
  506MOL0     C66687   8.006   1.356   0.989  0.2389 -0.6122  0.1084
  506MOL0     C66688   8.018   1.466   0.903  0.6457  0.3131  0.0480
  506MOL0     C66689   7.907   1.562   0.893  0.2386 -0.6934 -0.5841
  506MOL0     O66690   7.785   1.523   0.945 -0.6568  0.9069  0.4650
  506MOL0     C66691   7.674   1.603   0.926 -0.0740  0.4704  0.0382
  506MOL0     C66692   7.549   1.541   0.924 -0.2553  0.2116  0.6883
  506MOL0     C66693   7.433   1.614   0.900  0.3444 -0.4497  0.1780
  506MOL0     C66694   7.427   1.750   0.896  0.3137  0.3760 -0.1018
  506MOL0     O66695   7.302   1.807   0.894  0.0224  0.4915  0.0865
  506MOL0     C66696   7.279   1.930   0.965  0.0930 -0.0890 -0.5863
  506MOL0     C66697   7.292   2.052   0.864  0.3860  0.3688  0.1236
  506MOL0     C66698   7.202   2.040   0.744 -0.0104  0.0858 -0.4698
  506MOL0     C66699   7.055   2.020   0.776 -0.4732 -0.4281  0.4113
  506MOL0     C66700   6.957   2.067   0.664  0.2751  0.4262  0.3789
  506MOL0     C66701   6.815   2.034   0.718 -0.1357  0.6826  0.1006
  506MOL0     C66702   6.705   2.054   0.613  0.0765  0.3049  0.0173
  506MOL0     C66703   6.572   2.060   0.687  0.2307 -0.8425 -0.4580
  506MOL0    Cl66704   6.443   2.099   0.576  0.3542  0.3432  0.1537
  506MOL0     C66705   7.551   1.820   0.902 -0.0163 -0.2205 -0.5243
  506MOL0     C66706   7.671   1.744   0.921 -0.1416  0.3551 -0.5996
  506MOL0     O66707   7.939   1.673   0.845 -0.2627 -0.2114  0.3053
  506MOL0     C66708   8.139   1.483   0.841 -0.5582  0.5234 -0.5199
  506MOL0     C66709   8.238   1.384   0.858 -1.2832  0.6289 -0.1308
  506MOL0     N66710   8.485   1.091   0.431 -0.0073 -0.7938  0.0870
  506MOL0     N66711   8.432   1.020   0.351  0.5422  0.3664  0.6200
  506MOL0     C66712   8.985   0.358   0.209 -0.6190  0.8873 -1.0448
  506MOL0     C66713   9.117   0.391   0.243 -0.4806  0.5559 -0.2074
  506MOL0     C66714   9.500   0.663   0.301 -0.4525  0.0103 -0.7778
  506MOL0     C66715   9.575   0.543   0.320  0.4564 -0.4251  0.7860
  506MOL0     C66716   9.705   0.548   0.360  0.7563 -0.3315 -0.4421
  506MOL0     C66717   9.754   0.674   0.399 -0.1175  0.6370 -0.0024
  506MOL0     O66718   9.890   0.661   0.440  0.6615  0.1230  0.1602
  506MOL0     C66719   9.942   0.767   0.521  0.3517  0.6726 -0.1623
  506MOL0     C66720   9.976   0.702   0.652 -0.9800 -1.0308  0.0790
  506MOL0     C66721   9.999   0.814   0.762 -0.2987 -0.1237 -0.4183
  506MOL0     C66722  10.044   0.744   0.896 -0.2581 -0.7778  0.5107
  506MOL0     C66723   9.942   0.648   0.945 -0.8560 -0.8245  0.2978
  506MOL0     C66724   9.849   0.577   0.967  0.4333  0.4845 -0.5909
  506MOL0     C66725   9.678   0.800   0.387 -1.0567  0.2405 -0.5055
  506MOL0     C66726   9.555   0.788   0.332  0.0548 -0.1573  0.0362
  506MOL0     H66727   9.104   0.708   0.109 -1.8306 -0.1958 -1.2196
  506MOL0     H66728   8.880   0.625   0.064 -0.8085 -1.9032 -0.7734
  506MOL0     H66729   8.827   0.316  -0.049 -0.4551 -0.9240 -0.4910
  506MOL0     H66730   8.764   0.480  -0.052 -0.2664  0.2736  0.4259
  506MOL0     H66731   8.614   0.211   0.028  0.8317 -0.8086  0.0713
  506MOL0     H66732   8.586   0.285  -0.127 -1.6508  2.0267 -0.2492
  506MOL0     H66733   8.513   0.405   0.150 -0.0797 -1.9233  0.0860
  506MOL0     H66734   8.412   0.333   0.042  1.0143 -0.7404  2.7068
  506MOL0     H66735   8.571   0.580   0.002  2.7225 -3.7309  0.3399
  506MOL0     H66736   8.503   0.512  -0.136 -1.4551  0.6948  0.0229
  506MOL0     H66737   8.273   0.502  -0.048 -1.2494  2.1591 -0.8606
  506MOL0     H66738   8.326   0.670  -0.061  1.7012  1.7608  1.6644
  506MOL0     H66739   8.308   0.539   0.210 -0.7228  1.4881  0.3089
  506MOL0     H66740   8.219   0.662   0.145 -0.3262  0.5934 -0.1626
  506MOL0     H66741   8.513   0.715   0.173 -0.2925 -0.3038  0.4866
  506MOL0     H66742   8.382   0.835   0.145  0.2590  1.2930  2.5744
  506MOL0     H66743   8.384   0.690   0.402 -0.5763 -0.0288 -0.6023
  506MOL0     H66744   8.262   0.793   0.328 -0.4482 -1.4142 -1.7042
  506MOL0     H66745   8.552   0.785   0.552  1.8674  0.3090  0.4643
  506MOL0     H66746   8.619   1.167   0.641  1.9416  0.0625 -0.3740
  506MOL0     H66747   8.740   1.045   0.606  0.6953  0.9239 -0.6917
  506MOL0     H66748   8.681   1.047   0.849  1.0900 -1.2278  0.6571
  506MOL0     H66749   8.660   0.894   0.761  0.5058  0.0616 -2.7427
  506MOL0     H66750   8.396   0.969   0.744  1.0814  0.5606 -2.3163
  506MOL0     H66751   8.459   0.953   0.913 -2.5745  0.0853 -0.5794
  506MOL0     H66752   8.415   1.210   0.762  3.0016  0.7782  0.0514
  506MOL0     H66753   8.507   1.210   0.904 -2.2489  0.5398  1.2477
  506MOL0     H66754   8.077   1.161   1.044 -0.2825 -0.0586 -0.8627
  506MOL0     H66755   7.910   1.338   1.035 -0.5021  2.6298  0.0825
  506MOL0     H66756   7.546   1.434   0.945 -1.3329  0.4077  1.6220
  506MOL0     H66757   7.341   1.557   0.896  0.4251 -0.4950 -1.8673
  506MOL0     H66758   7.349   1.936   1.049  1.9943 -2.5689 -1.8729
  506MOL0     H66759   7.176   1.933   1.002 -0.3797  0.2815 -1.8748
  506MOL0     H66760   7.397   2.046   0.834  1.0226  1.2133  2.0679
  506MOL0     H66761   7.267   2.148   0.910  2.7628  1.3811 -0.5135
  506MOL0     H66762   7.240   1.955   0.687  4.4226  0.7607  1.0613
  506MOL0     H66763   7.209   2.126   0.677 -1.0959  1.3946  1.0193
  506MOL0     H66764   7.034   1.915   0.799 -4.9120  0.7310  2.7523
  506MOL0     H66765   7.028   2.077   0.865  0.1899  2.2515 -0.9870
  506MOL0     H66766   6.968   2.016   0.568 -1.6773  1.0060 -0.2092
  506MOL0     H66767   6.964   2.176   0.653 -0.9200  1.0764  4.5215
  506MOL0     H66768   6.805   2.107   0.799 -0.2811  1.2360 -0.4035
  506MOL0     H66769   6.806   1.930   0.750  0.4127  0.7740  0.5691
  506MOL0     H66770   6.734   2.147   0.564  5.1563 -0.2247  1.4670
  506MOL0     H66771   6.702   1.964   0.551 -2.5679 -1.8840  2.9455
  506MOL0     H66772   6.581   2.149   0.749 -0.1639  0.8060 -2.6503
  506MOL0     H66773   6.546   1.966   0.737  0.3127 -1.5447 -1.7042
  506MOL0     H66774   7.562   1.928   0.900 -1.1801  0.1776  4.0158
  506MOL0     H66775   7.766   1.796   0.925  1.7301 -2.7508 -1.1378
  506MOL0     H66776   8.154   1.568   0.775 -1.8976  2.2922  1.3117
  506MOL0     H66777   8.332   1.409   0.810 -1.8596  1.6741 -0.7501
  506MOL0     H66778   8.950   0.260   0.239  0.9836  0.5855 -0.0749
  506MOL0     H66779   9.184   0.321   0.292  1.8632  1.0745 -2.4606
  506MOL0     H66780   9.537   0.444   0.294  1.9326 -0.5481 -1.1297
  506MOL0     H66781   9.770   0.461   0.359  0.7163 -0.3594 -1.1034
  506MOL0     H66782   9.874   0.849   0.546 -0.4819  0.3530 -1.2757
  506MOL0     H66783  10.023   0.815   0.464 -0.9811  1.4542 -1.4799
  506MOL0     H66784   9.888   0.639   0.670 -2.2617  0.2113 -1.4547
  506MOL0     H66785  10.063   0.636   0.648  0.9056  1.2959  0.3886
  506MOL0     H66786   9.908   0.865   0.796  0.3236  0.9047 -0.2364
  506MOL0     H66787  10.082   0.875   0.724 -0.0707  0.8635  1.5195
  506MOL0     H66788  10.145   0.707   0.874  0.6278  2.3204 -1.2830
  506MOL0     H66789  10.062   0.826   0.966 -2.9137  0.5684 -0.2505
  506MOL0     H66790   9.773   0.505   0.991  1.5435 -0.9391 -1.1547
  506MOL0     H66791   9.724   0.896   0.406  1.1557 -0.7221 -0.7146
  506MOL0     H66792   9.499   0.879   0.313  0.3008 -0.0229 -0.0497
  507MOL0     O66793   3.753   9.926  10.916  0.0965 -0.3738  0.4947
  507MOL0     C66794   3.801  10.040  10.925 -0.0324  0.7294  0.2223
  507MOL0     O66795   3.757  10.127  11.007 -0.5811 -0.0077  0.0369
  507MOL0     C66796   3.630  10.120  11.056  0.2336  0.6114 -0.5285
  507MOL0     C66797   3.591  10.006  11.136 -0.1003 -0.5738  0.1899
  507MOL0     C66798   3.471  10.013  11.205  0.1234  0.1641 -1.2708
  507MOL0     C66799   3.380  10.119  11.186  0.5247  0.8763  0.1687
  507MOL0     O66800   3.253  10.124  11.240 -0.1517  0.4331  0.3579
  507MOL0     C66801   3.169  10.012  11.212  0.0968  0.2499 -0.5126
  507MOL0     C66802   3.034  10.036  11.277 -0.7316 -0.2254  0.7289
  507MOL0     C66803   2.934   9.916  11.254 -0.2091 -0.4987  0.5857
  507MOL0     C66804   2.990   9.789  11.303 -0.0818 -0.2966  0.1982
  507MOL0     C66805   2.883   9.675  11.317  0.1869 -0.5261  0.0721
  507MOL0     C66806   2.811   9.653  11.187  0.1466  0.0472 -0.2881
  507MOL0     C66807   2.715   9.538  11.200  0.0627 -0.2808 -0.6760
  507MOL0     C66808   2.748   9.446  11.075  0.0200 -0.1817 -0.2464
  507MOL0     N66809   2.678   9.319  11.067  0.4726  0.2451 -0.2545
  507MOL0     C66810   2.545   9.285  11.099 -0.3322 -0.4166  0.3741
  507MOL0     C66811   2.527   9.154  11.072  0.3296 -0.2079 -0.2304
  507MOL0     C66812   2.394   9.085  11.091  0.5537 -0.1333 -0.1252
  507MOL0     C66813   2.300   9.103  10.979  0.4409  0.3584  0.3121
  507MOL0     C66814   2.172   9.043  11.006 -1.1796 -0.1508 -0.3614
  507MOL0     C66815   2.080   9.035  10.884 -0.4629  0.7338  0.2025
  507MOL0     O66816   2.074   8.898  10.841  0.0723  0.0568 -0.0206
  507MOL0     C66817   1.964   8.854  10.760  0.2214 -0.2733 -0.4931
  507MOL0     C66818   1.844   8.932  10.724 -1.1016  0.3534  0.8899
  507MOL0     C66819   1.744   8.874  10.643 -0.0318 -0.5615  0.4241
  507MOL0     C66820   1.761   8.739  10.607  0.0509 -0.1138 -0.1719
  507MOL0     C66821   1.649   8.670  10.536 -0.6581  0.4813  0.0172
  507MOL0     O66822   1.562   8.742  10.456  0.0122 -0.6590  0.1008
  507MOL0     C66823   1.456   8.665  10.403 -0.6150 -0.4344  0.1501
  507MOL0     C66824   1.474   8.594  10.282 -0.0290  0.1277 -0.9210
  507MOL0     C66825   1.360   8.533  10.222  0.9455 -0.2830 -0.4082
  507MOL0     C66826   1.232   8.552  10.283  1.0407 -0.5482 -0.4867
  507MOL0     O66827   1.122   8.488  10.238 -0.3611  0.3442  0.0564
  507MOL0     C66828   1.115   8.441  10.105  0.6109 -0.1743  0.5276
  507MOL0     C66829   0.967   8.425  10.066  0.3058 -0.2191  0.5894
  507MOL0     C66830   0.898   8.326  10.166  1.0011  0.8191 -0.4880
  507MOL0     C66831   0.748   8.310  10.117 -0.8762  0.3501  0.1112
  507MOL0     C66832   0.737   8.214  10.004  0.0640  0.1782  0.4561
  507MOL0     C66833   0.590   8.197   9.961  0.6092 -0.2410  0.1817
  507MOL0     C66834   0.488   8.146  10.066 -0.8376 -0.7170 -0.7404
  507MOL0     C66835   0.350   8.183  10.019  0.2780  0.2968  0.5285
  507MOL0    Cl66836   0.312   8.107   9.863  0.0385 -0.2900  0.3697
  507MOL0     C66837   1.221   8.621  10.406 -0.2390  0.2202  0.7442
  507MOL0     C66838   1.336   8.689  10.460 -0.3496 -0.3143 -0.0254
  507MOL0     O66839   1.641   8.548  10.554  0.0402 -0.9206 -0.4931
  507MOL0     C66840   1.875   8.670  10.644 -0.7789  1.1524 -0.9369
  507MOL0     C66841   1.970   8.724  10.723 -0.5264  0.0431  0.6815
  507MOL0     N66842   2.650   9.111  11.019  0.0582  0.8157 -0.3321
  507MOL0     N66843   2.737   9.201  11.028 -0.1460  0.2602 -0.5458
  507MOL0     C66844   3.421  10.224  11.113  0.2609 -0.7100  0.4186
  507MOL0     C66845   3.549  10.228  11.052 -0.3362  0.1143  0.2769
  507MOL0     C66846   3.928  10.079  10.851  0.4992 -0.4847  0.0756
  507MOL0     C66847   3.960  10.036  10.725 -0.3334  0.0244 -0.0268
  507MOL0     C66848   4.083  10.069  10.658  0.5870  0.4430  0.9611
  507MOL0     C66849   4.174  10.156  10.716 -1.1525  0.1804 -0.3313
  507MOL0     O66850   4.293  10.201  10.676 -0.1597 -0.6290 -0.1843
  507MOL0     C66851   4.346  10.169  10.545 -0.1210  0.0879 -0.4693
  507MOL0     C66852   4.464  10.261  10.526 -0.2869  0.4945 -0.5309
  507MOL0     C66853   4.583  10.220  10.614 -0.7464  0.2483 -1.4686
  507MOL0     C66854   4.719  10.271  10.576  0.6407  0.2460  0.0712
  507MOL0     C66855   4.822  10.227  10.673  0.1760 -0.5995 -0.2630
  507MOL0     C66856   4.917  10.210  10.746  0.4831 -0.8001 -0.6145
  507MOL0     C66857   4.137  10.206  10.842 -0.1247  0.4781 -0.1329
  507MOL0     C66858   4.023  10.174  10.905 -0.3386  0.6368 -0.4911
  507MOL0     H66859   3.647   9.914  11.151 -1.3399 -1.3718  0.0211
  507MOL0     H66860   3.442   9.932  11.271 -2.2310  0.4475 -1.8549
  507MOL0     H66861   3.209   9.913  11.239 -0.8467 -0.3024 -1.0922
  507MOL0     H66862   3.153  10.001  11.104 -1.1945  2.3662 -0.5983
  507MOL0     H66863   3.000  10.121  11.217 -0.1361 -0.6144 -0.1934
  507MOL0     H66864   3.050  10.063  11.381  0.3575 -0.6055  0.6797
  507MOL0     H66865   2.923   9.921  11.146 -1.5143  1.1702  0.7380
  507MOL0     H66866   2.837   9.940  11.300  0.1159  1.9923  0.1089
  507MOL0     H66867   3.060   9.755  11.225 -2.7592 -1.2775 -1.9418
  507MOL0     H66868   3.050   9.812  11.392  0.7117  1.9108 -0.8128
  507MOL0     H66869   2.805   9.705  11.387  0.6211  1.1554 -0.1316
  507MOL0     H66870   2.936   9.583  11.345  1.7209  1.2600  3.7382
  507MOL0     H66871   2.885   9.633  11.109 -0.1446 -1.5508 -0.1881
  507MOL0     H66872   2.762   9.746  11.159 -1.9016 -0.8025  0.3155
  507MOL0     H66873   2.730   9.478  11.289 -1.0941 -0.4042 -0.5578
  507MOL0     H66874   2.615   9.581  11.200  0.8646  1.7187 -0.5022
  507MOL0     H66875   2.856   9.430  11.069  0.1511  0.6290 -0.2192
  507MOL0     H66876   2.716   9.503  10.987 -0.7484 -1.0621 -0.5524
  507MOL0     H66877   2.471   9.357  11.132  0.9625  0.6483  1.0822
  507MOL0     H66878   2.350   9.130  11.181  0.7932  2.2011 -1.1051
  507MOL0     H66879   2.400   8.977  11.106 -0.8941 -0.1961  0.1212
  507MOL0     H66880   2.334   9.066  10.883 -3.5477 -2.1306 -0.3712
  507MOL0     H66881   2.297   9.212  10.972  3.0209  0.5963  1.6769
  507MOL0     H66882   2.183   8.953  11.068 -0.8797  0.9892  1.3020
  507MOL0     H66883   2.121   9.112  11.074 -1.5085  2.3818 -2.9967
  507MOL0     H66884   2.116   9.100  10.805  2.4877 -2.1637 -1.0811
  507MOL0     H66885   1.979   9.073  10.897 -1.2946 -0.2139 -2.7292
  507MOL0     H66886   1.836   9.040  10.737 -0.2150  0.2236  2.9362
  507MOL0     H66887   1.658   8.931  10.609  0.7372 -0.4350 -1.4742
  507MOL0     H66888   1.572   8.573  10.241 -0.0439 -0.0112 -0.8874
  507MOL0     H66889   1.364   8.463  10.140 -1.9599 -1.2445  0.1431
  507MOL0     H66890   1.170   8.346  10.105  1.8869  0.5443  1.0138
  507MOL0     H66891   1.167   8.515  10.043  0.9934 -0.2069  0.8056
  507MOL0     H66892   0.956   8.391   9.963 -2.3367  1.4955  0.2126
  507MOL0     H66893   0.915   8.521  10.058  0.4605 -0.2853 -2.1323
  507MOL0     H66894   0.894   8.370  10.266 -2.1362  0.7219 -0.4808
  507MOL0     H66895   0.957   8.234  10.171  0.3856  0.3258 -1.7847
  507MOL0     H66896   0.686   8.285  10.204 -0.1369  3.0300  1.5150
  507MOL0     H66897   0.718   8.410  10.086 -1.2954  0.7636  1.7213
  507MOL0     H66898   0.768   8.114  10.037 -1.1259  0.6186  3.1787
  507MOL0     H66899   0.804   8.252   9.927  0.2016  1.0867  1.0121
  507MOL0     H66900   0.590   8.134   9.872  0.9235  2.2606 -1.7184
  507MOL0     H66901   0.563   8.299   9.930  0.8331 -0.1052  0.4225
  507MOL0     H66902   0.503   8.041  10.092  0.9211 -0.2664  0.2322
  507MOL0     H66903   0.498   8.195  10.163 -0.9055 -1.2298 -0.4719
  507MOL0     H66904   0.337   8.292  10.017 -3.9331 -0.0180  0.8584
  507MOL0     H66905   0.278   8.154  10.096  1.0559 -1.7027  0.5618
  507MOL0     H66906   1.124   8.624  10.453 -1.0944  2.4879 -0.9929
  507MOL0     H66907   1.326   8.752  10.548  1.3019  1.3114 -0.9282
  507MOL0     H66908   1.884   8.564  10.620 -0.5340  0.5689  1.4343
  507MOL0     H66909   2.059   8.665  10.744  0.8447  1.0512 -1.8168
  507MOL0     H66910   3.354  10.309  11.111 -1.0455 -1.6925 -2.2741
  507MOL0     H66911   3.570  10.313  10.987 -0.7611 -0.9449 -1.3030
  507MOL0     H66912   3.889   9.965  10.683 -0.2851 -0.4602  0.6902
  507MOL0     H66913   4.101  10.032  10.557 -3.2242  1.2748 -0.1744
  507MOL0     H66914   4.277  10.189  10.464  0.5577 -0.4198 -1.1923
  507MOL0     H66915   4.380  10.065  10.553 -3.0233 -0.8028  2.5824
  507MOL0     H66916   4.500  10.256  10.423 -1.7343  2.5157 -1.2080
  507MOL0     H66917   4.428  10.364  10.538  0.9005  1.0607 -1.5814
  507MOL0     H66918   4.584  10.110  10.621  2.9759  0.2764  1.5410
  507MOL0     H66919   4.563  10.253  10.716  0.0955  0.2832 -1.3069
  507MOL0     H66920   4.745  10.234  10.476  2.3434 -0.7871  0.8537
  507MOL0     H66921   4.718  10.380  10.570  0.0200  0.3409  1.5123
  507MOL0     H66922   5.009  10.196  10.798  1.2480  1.7604 -1.1202
  507MOL0     H66923   4.203  10.280  10.886  0.7156 -0.4021  0.1165
  507MOL0     H66924   3.995  10.213  11.002  0.9275 -2.0252  1.0460
  508MOL0     O66925   1.303   9.475   3.450 -0.1597 -0.0097  0.1807
  508MOL0     C66926   1.424   9.487   3.420  0.9481 -0.1864 -0.1097
  508MOL0     O66927   1.473   9.588   3.345  1.1789  0.3960  0.0975
  508MOL0     C66928   1.392   9.671   3.270  0.0783 -0.1176  0.5620
  508MOL0     C66929   1.282   9.747   3.321  0.7716 -0.4916  0.0236
  508MOL0     C66930   1.195   9.806   3.232  0.9916  0.0892  0.2235
  508MOL0     C66931   1.233   9.822   3.096 -0.7054  0.6182 -0.2940
  508MOL0     O66932   1.167   9.904   3.014 -0.5802  0.0732  0.0568
  508MOL0     C66933   1.026   9.927   3.032 -0.3760 -0.1998  0.0156
  508MOL0     C66934   0.955   9.957   2.908 -0.1351 -0.1448 -0.0793
  508MOL0     C66935   0.800   9.960   2.927 -0.5841 -0.5336 -0.9491
  508MOL0     C66936   0.741  10.003   2.791  0.2766  1.1137 -0.9353
  508MOL0     C66937   0.591  10.041   2.800 -0.1213  0.5770 -0.0056
  508MOL0     C66938   0.506   9.909   2.819 -0.2250 -0.2837  0.3020
  508MOL0     C66939   0.374   9.935   2.887 -1.0260 -0.6180  0.1777
  508MOL0     C66940   0.290   9.812   2.884 -0.8759  0.9458  0.4747
  508MOL0     N66941   0.172   9.818   2.975  0.1842 -0.2116  0.5558
  508MOL0     C66942   0.044   9.837   2.939 -0.6835 -0.6749  0.1645
  508MOL0     C66943  -0.030   9.811   3.043  0.5995  0.3990 -0.0950
  508MOL0     C66944  -0.176   9.835   3.034  0.3962  0.3583 -0.3437
  508MOL0     C66945  -0.250   9.769   3.147  0.3931  0.0866  0.6749
  508MOL0     C66946  -0.388   9.824   3.185 -0.1702  0.6735  0.7415
  508MOL0     C66947  -0.434   9.739   3.306  0.7852 -0.4556  0.2517
  508MOL0     O66948  -0.556   9.800   3.364 -0.5708  0.9161  0.3132
  508MOL0     C66949  -0.682   9.762   3.319 -0.5046 -0.8311  0.1286
  508MOL0     C66950  -0.795   9.803   3.399 -0.8311  0.2493  0.2700
  508MOL0     C66951  -0.926   9.787   3.350 -0.0774  0.0216  0.3871
  508MOL0     C66952  -0.947   9.706   3.241  0.0251  0.3961 -0.1644
  508MOL0     C66953  -1.087   9.668   3.206  0.2942 -1.1637  0.2272
  508MOL0     O66954  -1.181   9.677   3.302 -0.4722  0.0860  0.0870
  508MOL0     C66955  -1.316   9.659   3.265 -0.4837  0.3189 -0.2593
  508MOL0     C66956  -1.363   9.566   3.174 -0.1443  0.7373 -0.0174
  508MOL0     C66957  -1.494   9.559   3.130  0.0175 -0.0690  0.7932
  508MOL0     C66958  -1.585   9.653   3.177  0.6184  0.2342 -0.2028
  508MOL0     O66959  -1.723   9.652   3.137 -0.4514  0.6356 -0.7790
  508MOL0     C66960  -1.799   9.767   3.173  0.1511 -0.2761  0.5804
  508MOL0     C66961  -1.917   9.779   3.091 -0.2193 -0.5644  0.2358
  508MOL0     C66962  -2.030   9.710   3.159  0.5634  0.1263  0.5502
  508MOL0     C66963  -2.156   9.723   3.069 -0.6264  0.8449 -0.7404
  508MOL0     C66964  -2.275   9.668   3.150 -0.7985 -0.9450 -0.6568
  508MOL0     C66965  -2.398   9.708   3.074  0.6238  0.1348  0.9541
  508MOL0     C66966  -2.519   9.647   3.147  0.0113  1.4811  0.1225
  508MOL0     C66967  -2.659   9.693   3.090  0.0410 -0.9044  0.2167
  508MOL0    Cl66968  -2.689   9.640   2.917 -0.2110 -0.4463  0.3916
  508MOL0     C66969  -1.538   9.747   3.267  0.0765  0.6546 -0.6035
  508MOL0     C66970  -1.412   9.749   3.323 -0.0156 -0.2499  0.4014
  508MOL0     O66971  -1.106   9.643   3.088 -0.0889  0.3919 -0.0607
  508MOL0     C66972  -0.834   9.669   3.165  0.5618  0.1822  0.7240
  508MOL0     C66973  -0.709   9.696   3.200 -1.0812  0.5839 -0.9141
  508MOL0     N66974   0.043   9.763   3.142 -0.0756 -0.2505 -0.3637
  508MOL0     N66975   0.167   9.772   3.100  0.0289 -0.0834  0.2087
  508MOL0     C66976   1.345   9.748   3.048  0.0729  0.5577 -0.1451
  508MOL0     C66977   1.423   9.673   3.133 -0.5253  0.2412  0.0935
  508MOL0     C66978   1.518   9.390   3.481 -0.2121 -0.5684  0.2864
  508MOL0     C66979   1.662   9.403   3.475  0.4425 -0.8539  0.8712
  508MOL0     C66980   1.747   9.310   3.524 -0.3465  1.0797  0.1179
  508MOL0     C66981   1.698   9.187   3.571  0.0461  0.1713 -0.1325
  508MOL0     O66982   1.785   9.089   3.592  0.2378 -0.0398  0.3288
  508MOL0     C66983   1.726   8.960   3.633  0.8747  0.2616  0.9521
  508MOL0     C66984   1.839   8.862   3.640 -0.7505  0.1068  0.6558
  508MOL0     C66985   1.809   8.718   3.704 -0.2952  0.2903 -0.2954
  508MOL0     C66986   1.925   8.615   3.697 -0.3600 -0.1118 -0.1205
  508MOL0     C66987   2.010   8.647   3.803  0.0429  0.0358 -0.8888
  508MOL0     C66988   2.084   8.666   3.895  0.4388 -0.1731  0.2925
  508MOL0     C66989   1.560   9.179   3.599 -0.0812  0.3768  0.3054
  508MOL0     C66990   1.467   9.275   3.543  0.1385  0.6458 -0.0269
  508MOL0     H66991   1.243   9.742   3.422  1.5304 -0.0359  0.3451
  508MOL0     H66992   1.101   9.844   3.270  1.3837 -0.5055  1.8633
  508MOL0     H66993   1.025  10.007   3.106  3.1039  0.1690 -0.1622
  508MOL0     H66994   0.973   9.847   3.084 -2.8841  1.8482  0.8181
  508MOL0     H66995   0.980   9.884   2.831 -2.7466 -0.2569 -0.9068
  508MOL0     H66996   0.996  10.048   2.863 -1.5826 -0.2506 -1.7212
  508MOL0     H66997   0.771  10.026   3.010  1.7867 -1.4786  0.7285
  508MOL0     H66998   0.766   9.857   2.941 -1.6707 -0.2481 -1.4039
  508MOL0     H66999   0.790  10.094   2.756  2.4054  0.9019  1.2721
  508MOL0     H67000   0.756   9.926   2.714 -3.6438 -0.2519 -0.5735
  508MOL0     H67001   0.558  10.083   2.705 -2.2549 -1.0690 -0.0631
  508MOL0     H67002   0.571  10.117   2.877 -1.6801  1.3707 -1.1450
  508MOL0     H67003   0.560   9.835   2.880 -0.0124 -1.4612 -1.2496
  508MOL0     H67004   0.500   9.854   2.724  0.4292 -0.1440  0.1710
  508MOL0     H67005   0.396   9.956   2.992 -0.5980 -1.3803  0.2480
  508MOL0     H67006   0.318  10.018   2.843 -0.1926 -0.4974 -0.6898
  508MOL0     H67007   0.358   9.729   2.905  1.6489  0.8118 -5.8539
  508MOL0     H67008   0.266   9.789   2.780  2.0877 -3.9045  0.5511
  508MOL0     H67009   0.010   9.865   2.840  2.9207 -1.2817 -1.3891
  508MOL0     H67010  -0.210   9.807   2.933 -0.5584  0.7063 -0.1255
  508MOL0     H67011  -0.181   9.945   3.034  1.1528  0.4437 -2.2117
  508MOL0     H67012  -0.186   9.763   3.236  1.6202 -1.4014 -0.2592
  508MOL0     H67013  -0.286   9.671   3.113 -0.1092  1.3856 -2.8817
  508MOL0     H67014  -0.387   9.929   3.217 -0.5317 -0.1436  3.7993
  508MOL0     H67015  -0.465   9.817   3.107 -0.9964  2.7196  1.3077
  508MOL0     H67016  -0.360   9.743   3.386 -0.7303  0.9706  1.6565
  508MOL0     H67017  -0.442   9.634   3.277 -0.9064 -0.2857 -0.0446
  508MOL0     H67018  -0.790   9.847   3.499  1.8855 -0.2711  0.4501
  508MOL0     H67019  -1.000   9.837   3.412  0.2159 -0.5873  1.2530
  508MOL0     H67020  -1.294   9.493   3.131  0.0161  0.7996  0.1330
  508MOL0     H67021  -1.526   9.479   3.065 -0.3066  2.1351 -1.9531
  508MOL0     H67022  -1.747   9.863   3.171  1.3440 -0.9049 -0.7222
  508MOL0     H67023  -1.831   9.763   3.277 -0.1563  2.6521  0.6722
  508MOL0     H67024  -1.902   9.736   2.991  3.1501 -2.2327  1.3011
  508MOL0     H67025  -1.951   9.883   3.082 -0.5678 -0.4916  2.0807
  508MOL0     H67026  -2.044   9.767   3.252 -0.2590 -0.8048  1.0253
  508MOL0     H67027  -2.012   9.605   3.184 -2.4863 -0.7760 -0.5470
  508MOL0     H67028  -2.159   9.830   3.047  4.1714  1.2017 -0.7415
  508MOL0     H67029  -2.150   9.667   2.975  1.0941 -0.5883  0.1424
  508MOL0     H67030  -2.278   9.719   3.247 -0.5932 -0.8159 -0.7183
  508MOL0     H67031  -2.266   9.560   3.167 -2.3699 -0.8852  0.9092
  508MOL0     H67032  -2.389   9.657   2.978  2.0914 -0.2944  1.2928
  508MOL0     H67033  -2.391   9.816   3.061  2.4195 -0.1414 -0.6918
  508MOL0     H67034  -2.509   9.538   3.147 -1.9699  1.2628 -0.9392
  508MOL0     H67035  -2.516   9.675   3.253  2.2151  2.4233 -0.1345
  508MOL0     H67036  -2.675   9.802   3.091 -2.3985 -1.1876 -0.0450
  508MOL0     H67037  -2.729   9.645   3.158 -0.4606 -2.5774 -1.4084
  508MOL0     H67038  -1.607   9.823   3.302  0.4974  0.5431  0.5019
  508MOL0     H67039  -1.373   9.827   3.387  1.5721  0.8343 -1.7392
  508MOL0     H67040  -0.860   9.612   3.076 -1.1148  1.7381  0.1581
  508MOL0     H67041  -0.624   9.674   3.137  0.7676  3.2325  0.5010
  508MOL0     H67042   1.369   9.734   2.943 -0.8546 -2.8476 -0.0055
  508MOL0     H67043   1.502   9.607   3.098  1.7390  1.3702  2.6800
  508MOL0     H67044   1.696   9.494   3.426 -0.0984 -1.3758 -0.5266
  508MOL0     H67045   1.853   9.313   3.500 -0.4441 -0.0437 -0.5073
  508MOL0     H67046   1.651   8.927   3.560  1.8784  0.1874 -0.0818
  508MOL0     H67047   1.676   8.977   3.729 -1.0174 -0.0546  0.0700
  508MOL0     H67048   1.879   8.864   3.538  0.1176 -0.2474  0.9765
  508MOL0     H67049   1.912   8.911   3.705 -1.6023  0.6075  1.2618
  508MOL0     H67050   1.724   8.686   3.643 -1.2689  2.1249  0.0144
  508MOL0     H67051   1.780   8.736   3.808  1.1892 -0.3324  0.2506
  508MOL0     H67052   1.877   8.517   3.697 -3.5356  1.3249 -0.4320
  508MOL0     H67053   1.973   8.621   3.598  0.1136  3.2756  0.1864
  508MOL0     H67054   2.161   8.688   3.967  0.2113  0.5458  0.3287
  508MOL0     H67055   1.516   9.092   3.647  2.1227 -2.3881 -2.2942
  508MOL0     H67056   1.361   9.253   3.546  0.3493 -0.9256 -1.7939
  509MOL0     O67057   1.272   1.445   8.687 -0.4609 -0.2389 -0.5138
  509MOL0     C67058   1.360   1.392   8.758 -1.0137  0.2281  0.4124
  509MOL0     O67059   1.364   1.268   8.803 -0.1514 -0.0504  0.0784
  509MOL0     C67060   1.259   1.187   8.772  0.0396 -0.8100 -0.5598
  509MOL0     C67061   1.149   1.210   8.861 -0.1809  0.4523  0.0461
  509MOL0     C67062   1.021   1.144   8.838 -0.0762 -0.0292  0.1308
  509MOL0     C67063   0.998   1.061   8.727  0.3292 -0.1413  0.0557
  509MOL0     O67064   0.874   1.008   8.698  0.1036  0.6814  0.4127
  509MOL0     C67065   0.839   0.873   8.744 -0.4602 -0.2640  0.6242
  509MOL0     C67066   0.680   0.849   8.724 -0.3682 -0.7746  0.5045
  509MOL0     C67067   0.635   0.706   8.769  0.3156 -0.1607  0.2626
  509MOL0     C67068   0.487   0.683   8.751 -0.1103  0.6928  0.4490
  509MOL0     C67069   0.464   0.549   8.662  0.5991 -0.5437 -0.3274
  509MOL0     C67070   0.325   0.541   8.592  0.4379  0.3618  0.3092
  509MOL0     C67071   0.309   0.645   8.471  0.0127  1.2809  0.8493
  509MOL0     C67072   0.169   0.712   8.458 -0.0475 -0.1156  0.6318
  509MOL0     N67073   0.076   0.607   8.404  0.4099 -0.4269  0.0340
  509MOL0     C67074   0.017   0.508   8.483  0.4412 -0.2716 -0.3891
  509MOL0     C67075  -0.037   0.417   8.389  0.6075 -0.1889  0.2788
  509MOL0     C67076  -0.101   0.285   8.421 -0.9115  0.0060 -0.3183
  509MOL0     C67077  -0.246   0.277   8.463  0.5781 -0.5280 -0.6598
  509MOL0     C67078  -0.325   0.339   8.350 -0.3587  1.2954  0.0555
  509MOL0     C67079  -0.475   0.339   8.396  0.0326 -0.2636  0.6125
  509MOL0     O67080  -0.539   0.456   8.342  0.5329  0.0936  0.8463
  509MOL0     C67081  -0.668   0.441   8.314  0.6375 -0.0559 -0.3907
  509MOL0     C67082  -0.724   0.458   8.186 -0.5214  0.0388 -0.0905
  509MOL0     C67083  -0.860   0.434   8.164  0.1879  0.3077 -0.6351
  509MOL0     C67084  -0.950   0.400   8.258  0.9862 -0.1892 -0.5942
  509MOL0     C67085  -1.091   0.407   8.239  0.1047 -0.0257  0.6651
  509MOL0     O67086  -1.145   0.403   8.107 -0.9192 -0.5918 -0.1800
  509MOL0     C67087  -1.278   0.383   8.084  0.5545 -0.1938 -0.0324
  509MOL0     C67088  -1.326   0.263   8.029 -0.4793 -0.4768  0.0947
  509MOL0     C67089  -1.465   0.238   8.028 -0.9791 -0.7354  0.4346
  509MOL0     C67090  -1.555   0.332   8.071  0.4865 -0.8326 -0.0783
  509MOL0     O67091  -1.694   0.309   8.070 -0.2053 -0.4525  0.5916
  509MOL0     C67092  -1.730   0.171   8.106 -0.8947 -0.5758 -0.8677
  509MOL0     C67093  -1.879   0.148   8.134  0.7581  0.4664  1.0696
  509MOL0     C67094  -1.954   0.112   7.995  0.2091 -0.5784 -0.4061
  509MOL0     C67095  -2.102   0.081   8.026 -0.0683 -0.3922  0.2306
  509MOL0     C67096  -2.161   0.033   7.887  0.5535 -0.3015 -0.1580
  509MOL0     C67097  -2.326   0.040   7.873 -0.6520  0.4087  0.0197
  509MOL0     C67098  -2.370  -0.035   8.004 -0.2562 -1.2064 -0.4389
  509MOL0     C67099  -2.518  -0.099   7.998  0.3873  1.0551 -0.6645
  509MOL0    Cl67100  -2.629   0.018   7.915 -0.2432  0.2607 -0.4808
  509MOL0     C67101  -1.511   0.451   8.122  0.0350  0.1940  0.1201
  509MOL0     C67102  -1.372   0.484   8.121 -0.8321  0.4328 -0.3941
  509MOL0     O67103  -1.159   0.404   8.342 -0.0602 -1.6393 -0.0596
  509MOL0     C67104  -0.898   0.373   8.385  0.1670 -0.8029  0.4780
  509MOL0     C67105  -0.761   0.398   8.411 -0.3995 -0.0020 -0.3004
  509MOL0     N67106  -0.010   0.463   8.266 -0.2645  0.3434 -0.3046
  509MOL0     N67107   0.044   0.581   8.272 -0.0035  0.2864 -0.1061
  509MOL0     C67108   1.116   1.035   8.652  0.1194 -0.2235  0.8246
  509MOL0     C67109   1.239   1.094   8.667 -0.2681 -0.1932 -0.0546
  509MOL0     C67110   1.459   1.485   8.809  0.1698  0.2000  0.1175
  509MOL0     C67111   1.434   1.621   8.810  0.1327  0.0445  0.4920
  509MOL0     C67112   1.528   1.706   8.876 -0.0483  0.2330 -0.1134
  509MOL0     C67113   1.648   1.659   8.935  0.1271 -0.7028  0.1067
  509MOL0     O67114   1.731   1.759   8.988  0.6463  0.2519  0.1251
  509MOL0     C67115   1.849   1.723   9.052 -0.6381  0.8495 -0.2178
  509MOL0     C67116   1.959   1.751   8.958 -0.7199 -0.2669 -0.0662
  509MOL0     C67117   2.089   1.763   9.033 -0.4476 -0.6381 -0.9307
  509MOL0     C67118   2.216   1.794   8.955  0.3448  0.5186 -1.0620
  509MOL0     C67119   2.219   1.922   8.897  0.6174  0.3346 -0.0325
  509MOL0     C67120   2.230   2.032   8.845 -0.5073 -0.5503 -0.7766
  509MOL0     C67121   1.671   1.525   8.921  0.3504 -0.4859 -0.1357
  509MOL0     C67122   1.580   1.442   8.860 -0.5690 -0.5708  0.9387
  509MOL0     H67123   1.163   1.270   8.950  0.9714  0.3067 -0.0177
  509MOL0     H67124   0.935   1.145   8.904  1.2570 -0.9230  1.9479
  509MOL0     H67125   0.869   0.857   8.848  3.7013 -0.4758 -0.4164
  509MOL0     H67126   0.902   0.806   8.685  0.4614  1.5285 -0.5294
  509MOL0     H67127   0.651   0.864   8.620  1.4350  2.1142  0.2943
  509MOL0     H67128   0.627   0.922   8.787  2.7226  0.8305  1.4958
  509MOL0     H67129   0.652   0.702   8.877 -0.4731 -1.9426  0.3562
  509MOL0     H67130   0.692   0.632   8.713  0.0944 -0.8788  0.9722
  509MOL0     H67131   0.441   0.655   8.846 -0.1469  1.3021  0.6130
  509MOL0     H67132   0.442   0.771   8.704  2.0395  1.3589 -0.4610
  509MOL0     H67133   0.478   0.462   8.727  3.7501 -0.4522 -0.6953
  509MOL0     H67134   0.545   0.550   8.589  1.1605  2.8887  0.1860
  509MOL0     H67135   0.249   0.560   8.668 -0.2430  0.8646 -0.4885
  509MOL0     H67136   0.306   0.438   8.559  1.2247  0.1305  0.5473
  509MOL0     H67137   0.386   0.720   8.491  1.9755 -1.3699  4.4543
  509MOL0     H67138   0.340   0.586   8.384  2.4474  2.4274  0.8335
  509MOL0     H67139   0.172   0.792   8.383 -1.5824 -1.6590 -1.1873
  509MOL0     H67140   0.143   0.756   8.554  1.4313 -0.4702  1.2232
  509MOL0     H67141   0.014   0.508   8.592  1.7557  2.0240 -0.2763
  509MOL0     H67142  -0.033   0.237   8.492 -0.1419  2.9174  1.0639
  509MOL0     H67143  -0.093   0.221   8.332  1.1745 -1.2718  0.7073
  509MOL0     H67144  -0.269   0.317   8.562  0.2312 -2.1997 -0.0297
  509MOL0     H67145  -0.270   0.173   8.487 -0.0392  0.0308  1.2977
  509MOL0     H67146  -0.289   0.441   8.330 -0.7175  0.8013 -3.6561
  509MOL0     H67147  -0.313   0.284   8.257  0.9175 -2.7829  2.3931
  509MOL0     H67148  -0.487   0.352   8.505 -1.2251  0.1208  0.4476
  509MOL0     H67149  -0.533   0.250   8.373 -0.7765  0.1394  1.0411
  509MOL0     H67150  -0.665   0.484   8.099 -1.3295 -1.9866 -1.3168
  509MOL0     H67151  -0.900   0.447   8.064 -4.0399 -0.1183  0.8033
  509MOL0     H67152  -1.263   0.183   7.990  1.3105  0.4971  0.8713
  509MOL0     H67153  -1.499   0.144   7.987 -0.6974 -1.5957  2.1058
  509MOL0     H67154  -1.669   0.150   8.195 -0.5158 -3.4683 -1.6967
  509MOL0     H67155  -1.699   0.098   8.030 -1.1202 -3.0943  1.3067
  509MOL0     H67156  -1.924   0.236   8.181 -0.7349  1.1647 -1.4073
  509MOL0     H67157  -1.892   0.061   8.199 -0.2917  0.9056  1.4656
  509MOL0     H67158  -1.904   0.031   7.942 -0.8706 -0.8946 -0.9783
  509MOL0     H67159  -1.957   0.198   7.927 -1.8488  0.0439  0.3869
  509MOL0     H67160  -2.088  -0.002   8.096 -4.1547 -1.1340  0.4553
  509MOL0     H67161  -2.161   0.166   8.062 -1.0870 -0.4090 -1.3177
  509MOL0     H67162  -2.116  -0.064   7.864 -0.4007 -0.7579 -0.1433
  509MOL0     H67163  -2.131   0.098   7.804 -0.1808  2.6469  1.7388
  509MOL0     H67164  -2.359  -0.018   7.786  1.1861 -0.1480 -0.3417
  509MOL0     H67165  -2.361   0.142   7.857  1.9291  1.5210  1.0192
  509MOL0     H67166  -2.303  -0.119   8.023 -2.3134 -2.5280  1.4924
  509MOL0     H67167  -2.360   0.036   8.087 -2.0657  0.7098 -1.7514
  509MOL0     H67168  -2.570  -0.131   8.089 -0.3711  1.1719 -1.0542
  509MOL0     H67169  -2.507  -0.187   7.934  1.3907 -0.4685  1.4911
  509MOL0     H67170  -1.580   0.519   8.171  0.0980  0.7998 -0.6081
  509MOL0     H67171  -1.321   0.571   8.161  2.1139 -1.3312 -0.0585
  509MOL0     H67172  -0.974   0.345   8.456 -0.2915  0.3188  0.4452
  509MOL0     H67173  -0.723   0.397   8.513 -0.1599 -1.7421 -0.3765
  509MOL0     H67174   1.125   0.966   8.568  2.1821  1.1741 -0.2080
  509MOL0     H67175   1.314   1.068   8.593  1.2332 -0.0400  1.3426
  509MOL0     H67176   1.347   1.670   8.769  0.8713  0.8413 -0.1395
  509MOL0     H67177   1.496   1.810   8.886 -1.0203 -0.1054  0.5083
  509MOL0     H67178   1.837   1.619   9.087 -2.8290  1.1882  0.2270
  509MOL0     H67179   1.866   1.786   9.140 -0.5600 -0.3906  0.6902
  509MOL0     H67180   1.972   1.662   8.896 -3.0685 -0.2567 -0.6462
  509MOL0     H67181   1.929   1.828   8.887 -1.5244 -1.3104 -0.8880
  509MOL0     H67182   2.105   1.664   9.078 -0.6188 -0.7860 -1.1879
  509MOL0     H67183   2.089   1.831   9.118 -3.7752 -1.2106 -0.3369
  509MOL0     H67184   2.297   1.788   9.028 -2.1220  1.1186  1.9015
  509MOL0     H67185   2.237   1.720   8.877 -1.9757 -1.3215 -0.0782
  509MOL0     H67186   2.234   2.135   8.815 -0.7351  0.2208  1.5892
  509MOL0     H67187   1.764   1.478   8.955  0.1294 -1.5475 -0.9620
  509MOL0     H67188   1.601   1.335   8.858  0.4667 -0.4467 -3.1371
  510MOL0     O67189   5.954   6.057   8.646 -0.3328 -0.4697 -0.3697
  510MOL0     C67190   5.935   6.088   8.529 -0.0048  0.4220 -0.6868
  510MOL0     O67191   5.815   6.081   8.464  0.3260  0.4194 -0.5990
  510MOL0     C67192   5.703   6.012   8.508  1.1768 -0.4658 -0.2521
  510MOL0     C67193   5.576   6.070   8.488  0.2417  0.0266 -0.3138
  510MOL0     C67194   5.458   5.997   8.523 -0.2205 -0.4433  0.3001
  510MOL0     C67195   5.469   5.876   8.597  0.6098  0.2722  0.5190
  510MOL0     O67196   5.367   5.819   8.656 -0.3515 -0.2695 -0.3628
  510MOL0     C67197   5.241   5.824   8.578 -0.3072 -0.2777 -0.5740
  510MOL0     C67198   5.131   5.723   8.623 -1.5107 -0.1157 -0.0273
  510MOL0     C67199   5.168   5.584   8.588  0.3171  1.4266 -0.8612
  510MOL0     C67200   5.270   5.513   8.693  0.3818 -0.7473  0.1394
  510MOL0     C67201   5.269   5.366   8.664 -0.5733 -0.0008  0.3309
  510MOL0     C67202   5.376   5.282   8.737 -0.2976  0.2622 -0.2126
  510MOL0     C67203   5.523   5.295   8.688  0.2786  0.5290 -0.5073
  510MOL0     C67204   5.605   5.177   8.747  0.1495 -0.8594  0.1072
  510MOL0     N67205   5.751   5.192   8.727  0.0670  0.2058  0.0729
  510MOL0     C67206   5.812   5.160   8.605  0.5732  0.5434  0.1656
  510MOL0     C67207   5.944   5.138   8.626  0.1271 -0.1403  0.1549
  510MOL0     C67208   6.056   5.103   8.533  0.4588  0.5030  0.3886
  510MOL0     C67209   6.020   5.081   8.380 -0.4283 -0.5189 -0.0422
  510MOL0     C67210   5.943   4.951   8.368  0.3079  1.2786 -0.9910
  510MOL0     C67211   5.843   4.951   8.254 -0.2517 -0.2174  0.6905
  510MOL0     O67212   5.737   5.046   8.295 -0.0136 -0.1647  0.1078
  510MOL0     C67213   5.618   4.993   8.344 -0.4308 -0.4120 -0.5562
  510MOL0     C67214   5.598   4.859   8.379 -0.1128  0.3643  0.1880
  510MOL0     C67215   5.477   4.829   8.448  0.1856 -0.0494 -0.1936
  510MOL0     C67216   5.382   4.928   8.468 -0.3167  0.0357 -0.8940
  510MOL0     C67217   5.253   4.875   8.524  0.0016 -0.2207  0.0057
  510MOL0     O67218   5.218   4.737   8.510 -0.4051 -0.5315  0.7324
  510MOL0     C67219   5.098   4.683   8.541 -0.3960 -0.7068 -0.5206
  510MOL0     C67220   5.061   4.569   8.472  1.1883  0.3190 -0.3021
  510MOL0     C67221   4.951   4.500   8.512 -0.1304  0.2014  0.3148
  510MOL0     C67222   4.864   4.545   8.612 -0.6286 -0.0169  0.1876
  510MOL0     O67223   4.744   4.490   8.649  0.3037 -0.1107 -0.1602
  510MOL0     C67224   4.673   4.409   8.555  0.5520 -0.4806  0.5938
  510MOL0     C67225   4.545   4.364   8.612  0.7907 -0.8077  0.7094
  510MOL0     C67226   4.556   4.237   8.693 -0.2694 -1.1768 -0.1523
  510MOL0     C67227   4.436   4.199   8.779 -0.0001 -0.3198 -0.6562
  510MOL0     C67228   4.397   4.301   8.894  0.5690  0.3155 -0.1928
  510MOL0     C67229   4.249   4.286   8.940  0.0736  0.6713  0.5761
  510MOL0     C67230   4.211   4.364   9.062 -0.3892  0.0824  0.0779
  510MOL0     C67231   4.062   4.375   9.079 -0.2475  0.3651  0.8176
  510MOL0    Cl67232   3.976   4.227   9.041  0.6594 -0.2544  0.2512
  510MOL0     C67233   4.905   4.650   8.686 -0.4054  1.1598  1.3330
  510MOL0     C67234   5.017   4.716   8.648  0.0193 -0.7008 -0.6729
  510MOL0     O67235   5.170   4.963   8.555 -0.6049  0.4708 -0.9713
  510MOL0     C67236   5.399   5.060   8.425  0.9522  0.2736  0.3536
  510MOL0     C67237   5.519   5.088   8.363 -0.7160 -0.6727 -1.6830
  510MOL0     N67238   5.960   5.164   8.766 -0.5798  0.3649  0.2955
  510MOL0     N67239   5.846   5.190   8.817 -0.1609 -0.3212  0.5397
  510MOL0     C67240   5.596   5.823   8.615 -0.7266  1.0921 -0.0020
  510MOL0     C67241   5.702   5.889   8.565 -0.5768 -0.5290 -0.1008
  510MOL0     C67242   6.047   6.153   8.454 -0.1709  0.2782 -0.6506
  510MOL0     C67243   6.174   6.175   8.521  0.4712 -0.3264  0.2541
  510MOL0     C67244   6.277   6.240   8.453 -0.0506  0.3543 -0.4822
  510MOL0     C67245   6.253   6.278   8.319 -0.0573 -0.1196 -0.5992
  510MOL0     O67246   6.343   6.322   8.231 -0.6228 -0.3057  0.7874
  510MOL0     C67247   6.477   6.343   8.275 -0.1374 -0.7363  0.2808
  510MOL0     C67248   6.552   6.377   8.152 -0.2646  0.6234 -0.2958
  510MOL0     C67249   6.683   6.450   8.195 -0.2470 -0.4347  0.1293
  510MOL0     C67250   6.794   6.483   8.083 -0.7410  0.9931 -0.0722
  510MOL0     C67251   6.916   6.542   8.138 -0.2024 -0.0031  0.6800
  510MOL0     C67252   7.023   6.594   8.169 -0.3614  0.1574 -0.9158
  510MOL0     C67253   6.135   6.249   8.251 -1.4079 -0.1281  0.0525
  510MOL0     C67254   6.040   6.185   8.321 -0.1293 -0.8596  0.5512
  510MOL0     H67255   5.571   6.166   8.437  1.7809  0.1448 -0.2823
  510MOL0     H67256   5.361   6.034   8.490 -1.4924 -2.1194  1.9244
  510MOL0     H67257   5.266   5.823   8.472  0.0018 -0.9414 -0.4976
  510MOL0     H67258   5.189   5.918   8.597  1.3963  0.3813  1.1702
  510MOL0     H67259   5.034   5.744   8.578 -1.5835  0.7839  0.5290
  510MOL0     H67260   5.105   5.731   8.729  1.6365  0.3724  0.7879
  510MOL0     H67261   5.228   5.593   8.497 -3.0701  3.5882 -3.0762
  510MOL0     H67262   5.083   5.517   8.574 -0.1757  0.7042  3.8041
  510MOL0     H67263   5.364   5.565   8.670  0.9530 -1.8694 -0.1050
  510MOL0     H67264   5.251   5.533   8.799  1.3891 -0.2119  0.2333
  510MOL0     H67265   5.282   5.340   8.559  1.3796 -1.2735  0.8129
  510MOL0     H67266   5.174   5.323   8.698  0.9789 -2.6445  1.7121
  510MOL0     H67267   5.345   5.180   8.713  0.7461 -0.1865  0.2802
  510MOL0     H67268   5.376   5.289   8.847  3.0192 -1.6740  0.0457
  510MOL0     H67269   5.531   5.301   8.579 -3.1443  2.5668 -0.8011
  510MOL0     H67270   5.561   5.391   8.725  0.5233  0.4672 -0.5986
  510MOL0     H67271   5.584   5.082   8.695 -0.7299 -1.6480  1.8174
  510MOL0     H67272   5.590   5.159   8.853 -0.4706 -2.4681 -0.2162
  510MOL0     H67273   5.756   5.155   8.512 -1.0818 -0.8940  1.1672
  510MOL0     H67274   6.107   5.018   8.579  0.2673  0.8297  1.2216
  510MOL0     H67275   6.116   5.195   8.539 -0.7867  1.3471  0.3658
  510MOL0     H67276   6.109   5.077   8.316 -0.8854  3.1880 -1.1369
  510MOL0     H67277   5.957   5.160   8.338 -1.6044 -2.0566 -1.2771
  510MOL0     H67278   6.015   4.869   8.361 -1.7702 -0.9680  1.6576
  510MOL0     H67279   5.888   4.935   8.461 -0.3339  1.3544 -1.3552
  510MOL0     H67280   5.810   4.853   8.220  2.9182 -1.5084  0.9376
  510MOL0     H67281   5.898   4.993   8.169  0.2302 -2.2201 -0.0419
  510MOL0     H67282   5.676   4.785   8.364 -0.1315 -0.0106  1.7750
  510MOL0     H67283   5.465   4.727   8.482 -2.5250 -0.3876 -1.8838
  510MOL0     H67284   5.119   4.528   8.389 -2.9438 -1.3329 -2.6900
  510MOL0     H67285   4.922   4.413   8.453 -3.4586  0.1091  1.8867
  510MOL0     H67286   4.730   4.319   8.530 -0.2232 -0.4836 -1.3550
  510MOL0     H67287   4.649   4.457   8.459 -1.6979 -0.4522  1.1167
  510MOL0     H67288   4.473   4.353   8.531 -0.7258 -2.6021  2.1935
  510MOL0     H67289   4.506   4.438   8.683  0.6890 -2.1383  2.1002
  510MOL0     H67290   4.648   4.242   8.752 -1.3237  0.3458  1.4974
  510MOL0     H67291   4.559   4.154   8.622 -1.2335  1.0036 -2.9307
  510MOL0     H67292   4.355   4.177   8.710  1.1296 -0.2955 -2.0444
  510MOL0     H67293   4.456   4.102   8.827 -0.8652 -1.6730 -2.8890
  510MOL0     H67294   4.410   4.407   8.869 -2.2364  0.6776 -0.4581
  510MOL0     H67295   4.454   4.276   8.984 -0.0307 -1.3718 -0.2424
  510MOL0     H67296   4.231   4.182   8.968  2.6434 -0.3328 -1.0738
  510MOL0     H67297   4.190   4.318   8.853  0.7372  0.8660  0.1813
  510MOL0     H67298   4.270   4.321   9.143  0.0161 -1.0574 -0.7903
  510MOL0     H67299   4.236   4.470   9.052  0.6295  0.4051  4.4187
  510MOL0     H67300   4.020   4.453   9.014 -3.1119  0.0615  2.1593
  510MOL0     H67301   4.044   4.406   9.183  2.7887  1.9451  0.9992
  510MOL0     H67302   4.833   4.695   8.754 -0.9806  1.0236  0.8307
  510MOL0     H67303   5.039   4.800   8.713  4.6809 -1.5045 -0.9047
  510MOL0     H67304   5.328   5.134   8.460  1.2192  0.4447  0.5326
  510MOL0     H67305   5.535   5.192   8.335 -0.5744 -0.4050 -0.6502
  510MOL0     H67306   5.605   5.725   8.662  0.4502  0.4623 -1.4787
  510MOL0     H67307   5.801   5.845   8.565 -0.5231 -0.6587  3.4545
  510MOL0     H67308   6.193   6.146   8.624 -0.5346  0.0266  0.5474
  510MOL0     H67309   6.376   6.256   8.494 -0.2976  0.4974  0.0667
  510MOL0     H67310   6.521   6.259   8.329  0.5789 -1.6325 -1.6008
  510MOL0     H67311   6.476   6.431   8.340 -1.2096  0.7683 -1.6549
  510MOL0     H67312   6.573   6.284   8.099  0.7260 -0.4256  1.8149
  510MOL0     H67313   6.494   6.437   8.081  1.3470  0.2879 -1.9726
  510MOL0     H67314   6.722   6.393   8.280 -0.3396 -2.5296 -1.1481
  510MOL0     H67315   6.653   6.545   8.238 -2.4287 -0.3356 -1.4324
  510MOL0     H67316   6.826   6.391   8.032  1.0241  1.3483  0.3376
  510MOL0     H67317   6.751   6.545   8.004  1.6380 -1.1258 -3.2986
  510MOL0     H67318   7.110   6.648   8.200 -0.5889  1.1496 -1.9387
  510MOL0     H67319   6.107   6.282   8.151 -0.3579  3.1787  0.7399
  510MOL0     H67320   5.943   6.184   8.273 -0.4592  2.1373  1.0059
  511MOL0     O67321   9.888   8.414   5.617  0.1607  0.1733 -0.5455
  511MOL0     C67322   9.792   8.472   5.571 -0.0854 -0.1305  0.0518
  511MOL0     O67323   9.668   8.422   5.557  0.2850  0.6674 -0.0902
  511MOL0     C67324   9.632   8.290   5.565 -0.7274  0.8287  0.3049
  511MOL0     C67325   9.719   8.190   5.536 -0.2667  0.3394 -0.6275
  511MOL0     C67326   9.667   8.061   5.542 -0.5742  0.1839  0.3620
  511MOL0     C67327   9.531   8.034   5.577  0.1834  0.1073  0.2320
  511MOL0     O67328   9.479   7.906   5.586  0.3610 -0.2914  0.3552
  511MOL0     C67329   9.548   7.800   5.530  0.2902  0.4505  0.3519
  511MOL0     C67330   9.473   7.674   5.544  0.4454 -0.5179  0.3036
  511MOL0     C67331   9.347   7.689   5.466 -0.3443  0.8016 -0.4125
  511MOL0     C67332   9.269   7.551   5.475  0.1942 -0.2943 -0.2276
  511MOL0     C67333   9.126   7.569   5.533 -0.0656  0.9675 -0.6202
  511MOL0     C67334   9.024   7.454   5.520  0.1247  0.0992 -0.9739
  511MOL0     C67335   8.890   7.468   5.589  0.0946 -0.0012 -0.1737
  511MOL0     C67336   8.856   7.616   5.595  0.0877  0.3344  0.1911
  511MOL0     N67337   8.715   7.633   5.628  0.3497  0.0308  0.5000
  511MOL0     C67338   8.611   7.618   5.542 -0.1105  0.1079  1.0087
  511MOL0     C67339   8.500   7.632   5.613  0.1843  0.1772  0.1658
  511MOL0     C67340   8.358   7.612   5.570  0.9679 -0.0594 -0.5222
  511MOL0     C67341   8.325   7.733   5.482 -0.3919 -0.3945 -1.0809
  511MOL0     C67342   8.176   7.735   5.451  1.1876 -0.7222 -0.6639
  511MOL0     C67343   8.097   7.809   5.560 -0.4859  0.1393  0.6452
  511MOL0     O67344   7.966   7.837   5.512  0.6419  0.0783  0.5066
  511MOL0     C67345   7.883   7.907   5.595  0.1657  0.0317 -0.0982
  511MOL0     C67346   7.757   7.921   5.546 -0.5629 -0.1665  0.0872
  511MOL0     C67347   7.659   7.980   5.619  0.5106  0.3913  0.4589
  511MOL0     C67348   7.684   8.018   5.751 -0.9907  0.1658 -0.3565
  511MOL0     C67349   7.569   8.067   5.834  0.7820  0.2607 -0.1653
  511MOL0     O67350   7.454   8.111   5.769 -0.3122 -0.4654  0.5594
  511MOL0     C67351   7.341   8.151   5.841 -1.2825  0.1738 -0.1315
  511MOL0     C67352   7.274   8.258   5.788 -0.1825 -0.1101 -0.1860
  511MOL0     C67353   7.157   8.309   5.844  0.2488 -0.1623  0.5146
  511MOL0     C67354   7.100   8.236   5.956  0.1591  0.2597 -0.6396
  511MOL0     O67355   6.986   8.278   6.020  0.0543  0.3328  0.1316
  511MOL0     C67356   6.887   8.330   5.930  0.5398  0.5076 -0.5978
  511MOL0     C67357   6.751   8.320   5.998  0.5154  0.1401  0.0003
  511MOL0     C67358   6.738   8.436   6.110  0.1090 -0.0499  0.0825
  511MOL0     C67359   6.607   8.438   6.173  0.4268 -0.2028 -0.2966
  511MOL0     C67360   6.587   8.566   6.263 -0.4185 -0.0708  0.2078
  511MOL0     C67361   6.501   8.538   6.383  0.2017 -0.8725 -0.1625
  511MOL0     C67362   6.355   8.501   6.340  0.2055 -0.7975  0.1002
  511MOL0     C67363   6.257   8.471   6.444  0.3260  0.2920 -0.2511
  511MOL0    Cl67364   6.313   8.330   6.536  0.2076  0.0650 -0.3986
  511MOL0     C67365   7.173   8.122   6.005 -0.2716  0.1419 -0.3391
  511MOL0     C67366   7.291   8.082   5.947  0.2017  0.1138 -0.2037
  511MOL0     O67367   7.586   8.067   5.956 -0.4226  1.3769 -0.1464
  511MOL0     C67368   7.817   8.006   5.800  0.4242 -0.6110  0.0641
  511MOL0     C67369   7.918   7.962   5.718 -0.0895 -0.7204  0.0583
  511MOL0     N67370   8.535   7.678   5.737  0.4938  0.3740  0.4267
  511MOL0     N67371   8.661   7.663   5.748 -0.2984 -0.5405 -0.0746
  511MOL0     C67372   9.442   8.149   5.583  0.2095  0.2179 -0.0354
  511MOL0     C67373   9.494   8.275   5.576 -0.6570  0.1071 -0.7072
  511MOL0     C67374   9.812   8.612   5.529 -0.8527  0.3485  1.1248
  511MOL0     C67375   9.942   8.673   5.518 -0.1721  0.1533 -0.6544
  511MOL0     C67376   9.947   8.809   5.477  0.6114 -0.1314  0.3317
  511MOL0     C67377   9.834   8.880   5.456 -0.1490 -0.5504 -0.6418
  511MOL0     O67378   9.849   9.010   5.409  0.3997 -0.1991 -1.4784
  511MOL0     C67379   9.786   9.116   5.478  0.6280 -0.1808  0.2519
  511MOL0     C67380   9.853   9.146   5.612  0.2845 -0.5661  0.0079
  511MOL0     C67381   9.761   9.208   5.711  0.1373 -0.0811 -0.3921
  511MOL0     C67382   9.834   9.279   5.831  0.1196 -0.5058 -0.0581
  511MOL0     C67383   9.730   9.334   5.923 -0.2608  0.0112  0.5237
  511MOL0     C67384   9.652   9.401   5.987  0.0467 -0.7349 -0.8628
  511MOL0     C67385   9.712   8.818   5.455 -0.1252 -0.2263  0.3576
  511MOL0     C67386   9.703   8.686   5.504  1.0155 -1.0030  0.0893
  511MOL0     H67387   9.823   8.198   5.508 -0.5576  3.9737 -1.0403
  511MOL0     H67388   9.738   7.985   5.509 -1.7890 -1.4263  1.2736
  511MOL0     H67389   9.652   7.791   5.565  0.5134 -1.0737 -0.6310
  511MOL0     H67390   9.563   7.809   5.422 -0.1252 -1.0292  0.1578
  511MOL0     H67391   9.449   7.645   5.646  0.7565 -0.0990  0.5004
  511MOL0     H67392   9.540   7.592   5.514 -1.0175 -2.5674  2.3209
  511MOL0     H67393   9.373   7.710   5.362  1.1063 -0.4995 -0.3514
  511MOL0     H67394   9.280   7.766   5.506  1.8539  0.5178  4.5186
  511MOL0     H67395   9.255   7.501   5.379 -3.2976 -1.5188  0.7836
  511MOL0     H67396   9.319   7.475   5.535 -2.1687 -0.4789  1.6720
  511MOL0     H67397   9.085   7.654   5.478 -1.2698  0.3158 -0.7656
  511MOL0     H67398   9.140   7.595   5.638  0.4887  0.2634 -0.5094
  511MOL0     H67399   9.070   7.357   5.541 -2.2674 -1.4388 -2.3291
  511MOL0     H67400   8.992   7.450   5.415 -2.9853 -2.5223 -0.1024
  511MOL0     H67401   8.819   7.418   5.522  0.3334  3.6748 -3.5253
  511MOL0     H67402   8.885   7.422   5.688  1.9247 -1.6283 -0.7816
  511MOL0     H67403   8.874   7.665   5.499  2.4365  1.3231  1.0399
  511MOL0     H67404   8.911   7.661   5.678  0.3644  1.1292 -0.4125
  511MOL0     H67405   8.618   7.592   5.437 -1.2265 -1.6878  1.3432
  511MOL0     H67406   8.293   7.608   5.658 -0.5490  3.4136 -1.2972
  511MOL0     H67407   8.352   7.519   5.512  0.3497 -0.1340 -0.3468
  511MOL0     H67408   8.390   7.729   5.394  1.1879  0.2267  0.0009
  511MOL0     H67409   8.365   7.824   5.529  2.4083 -1.7331 -0.6701
  511MOL0     H67410   8.165   7.785   5.354 -2.4536  0.5736  0.2429
  511MOL0     H67411   8.146   7.630   5.447  1.0902 -1.2076  5.2182
  511MOL0     H67412   8.155   7.899   5.583  0.8952  0.0003 -1.8922
  511MOL0     H67413   8.080   7.749   5.650 -2.6980  0.6419  0.6282
  511MOL0     H67414   7.733   7.879   5.449 -1.3860  0.0350  0.1935
  511MOL0     H67415   7.562   7.980   5.570  1.2183 -0.8228 -1.0304
  511MOL0     H67416   7.329   8.299   5.705  3.0430  1.4703  2.5036
  511MOL0     H67417   7.124   8.399   5.794  0.3229 -0.8541 -0.8271
  511MOL0     H67418   6.878   8.278   5.835  0.2459  2.2333 -1.5553
  511MOL0     H67419   6.916   8.433   5.908  1.9172  0.5008  0.9799
  511MOL0     H67420   6.732   8.224   6.045 -2.4963  2.2593  3.6261
  511MOL0     H67421   6.670   8.336   5.926  0.7190  0.7410 -0.1051
  511MOL0     H67422   6.746   8.536   6.066  0.8806 -0.9154 -1.8649
  511MOL0     H67423   6.808   8.419   6.192  0.8263  2.1689 -0.0164
  511MOL0     H67424   6.525   8.441   6.100 -0.1900  1.0613  0.4062
  511MOL0     H67425   6.582   8.342   6.218 -1.9520  0.4548 -0.0503
  511MOL0     H67426   6.552   8.651   6.205 -0.4141 -0.4648 -0.3927
  511MOL0     H67427   6.684   8.593   6.307  0.2404 -1.7210 -0.1240
  511MOL0     H67428   6.499   8.630   6.442  1.9264 -0.9276  0.0366
  511MOL0     H67429   6.542   8.456   6.443  0.9521  0.3950  1.1168
  511MOL0     H67430   6.320   8.583   6.278  0.0186 -0.8857  0.0878
  511MOL0     H67431   6.373   8.413   6.278  4.0386 -0.0170 -0.1575
  511MOL0     H67432   6.159   8.456   6.396  0.7278  0.5219 -1.1733
  511MOL0     H67433   6.247   8.562   6.504 -0.8772 -0.3277  0.5273
  511MOL0     H67434   7.128   8.071   6.090 -0.1201  1.2238  0.4159
  511MOL0     H67435   7.344   7.999   5.993  2.4486  1.4879 -0.1209
  511MOL0     H67436   7.856   8.029   5.899  1.1751 -0.8402 -0.1814
  511MOL0     H67437   8.020   7.975   5.753 -0.3446 -0.0873  0.6004
  511MOL0     H67438   9.335   8.137   5.575 -0.1512  0.9625  2.6715
  511MOL0     H67439   9.432   8.363   5.579  3.1229  3.0820 -2.0895
  511MOL0     H67440  10.035   8.620   5.533  0.4804  1.2629 -0.7098
  511MOL0     H67441  10.041   8.857   5.451  1.1583 -0.5337  1.5097
  511MOL0     H67442   9.682   9.086   5.492  1.0777 -1.1399  1.7915
  511MOL0     H67443   9.796   9.202   5.412  1.2381 -0.4454 -0.0043
  511MOL0     H67444   9.900   9.060   5.660  3.0366  2.6761  3.9149
  511MOL0     H67445   9.939   9.213   5.600  0.5259 -0.8761  0.0049
  511MOL0     H67446   9.691   9.136   5.755 -2.1235  1.0224 -2.0048
  511MOL0     H67447   9.700   9.283   5.661  0.3698  0.1191 -0.3738
  511MOL0     H67448   9.888   9.199   5.883 -1.8352 -2.0788 -0.3302
  511MOL0     H67449   9.899   9.361   5.799  0.0234 -0.0484  0.8963
  511MOL0     H67450   9.582   9.463   6.039  1.4477  0.9757 -0.9498
  511MOL0     H67451   9.617   8.860   5.424  1.4665  2.8361 -0.7709
  511MOL0     H67452   9.602   8.652   5.525  0.0978  1.2392 -0.4732
  512MOL0     O67453   7.091   3.114   6.020 -0.7893  0.8510 -0.4664
  512MOL0     C67454   7.074   3.037   6.115 -0.0574  0.4048  0.3087
  512MOL0     O67455   7.163   2.967   6.182 -0.0938 -0.1092 -0.9519
  512MOL0     C67456   7.299   2.966   6.146  0.6347  0.0068  0.0439
  512MOL0     C67457   7.372   2.845   6.143 -0.8566 -0.3950 -0.1956
  512MOL0     C67458   7.511   2.844   6.109 -0.1428 -0.8006 -0.4400
  512MOL0     C67459   7.582   2.958   6.068  0.1873 -0.6481  0.3649
  512MOL0     O67460   7.722   2.944   6.036  0.0712 -0.1109 -0.4217
  512MOL0     C67461   7.799   3.070   6.037  0.2491 -0.1211  0.4424
  512MOL0     C67462   7.943   3.035   6.021  0.5536 -0.4835  0.1647
  512MOL0     C67463   7.983   3.019   5.874 -0.2062  0.5750  0.1777
  512MOL0     C67464   8.123   2.964   5.866 -0.1378  0.8020  0.2806
  512MOL0     C67465   8.189   2.947   5.726 -0.5628 -0.5030 -0.6146
  512MOL0     C67466   8.336   2.901   5.739 -1.2836 -0.2039 -0.4470
  512MOL0     C67467   8.430   3.032   5.723  1.2038  0.6117  0.2055
  512MOL0     C67468   8.578   3.000   5.697  0.7118 -0.0848  0.3279
  512MOL0     N67469   8.651   3.118   5.709  0.1447  1.3033  0.4129
  512MOL0     C67470   8.763   3.123   5.787 -0.2117  0.0598  0.3530
  512MOL0     C67471   8.807   3.247   5.779  0.6416  0.5599 -0.3628
  512MOL0     C67472   8.939   3.270   5.838 -0.5853 -0.0588 -0.2061
  512MOL0     C67473   8.943   3.413   5.895 -0.2458  0.1123  0.2399
  512MOL0     C67474   9.071   3.460   5.965  1.1442  0.1844  0.9762
  512MOL0     C67475   9.042   3.604   6.009 -0.3740  0.1926 -0.4502
  512MOL0     O67476   8.967   3.605   6.123  0.4322  0.1062  0.3551
  512MOL0     C67477   8.832   3.625   6.127  0.2250 -1.1737  0.8205
  512MOL0     C67478   8.751   3.688   6.031 -0.0634 -0.4524  0.2454
  512MOL0     C67479   8.620   3.721   6.051  0.4784 -0.2597 -0.4364
  512MOL0     C67480   8.555   3.708   6.173  1.0281  0.4174 -0.5182
  512MOL0     C67481   8.424   3.766   6.190  0.0688  0.3112  0.6959
  512MOL0     O67482   8.375   3.844   6.087  0.1817 -0.4676 -0.4043
  512MOL0     C67483   8.241   3.859   6.070  0.0115 -0.7386  0.1024
  512MOL0     C67484   8.156   3.749   6.070  0.1360 -0.1925  0.4889
  512MOL0     C67485   8.026   3.760   6.041 -0.8303 -0.4769 -0.4691
  512MOL0     C67486   7.979   3.886   6.011 -0.7908 -0.3167  0.6201
  512MOL0     O67487   7.846   3.898   5.983  0.8101  0.3868  0.0593
  512MOL0     C67488   7.781   4.027   5.997 -0.2442  1.0072 -0.2397
  512MOL0     C67489   7.628   4.009   5.989 -0.3252 -0.0282  0.2907
  512MOL0     C67490   7.576   3.915   6.096  0.1889  0.5858 -0.3450
  512MOL0     C67491   7.427   3.897   6.092 -0.4860  0.8825  0.0348
  512MOL0     C67492   7.395   3.796   6.210 -0.9748 -0.4914 -0.6333
  512MOL0     C67493   7.246   3.757   6.184 -0.1800  0.4672 -0.1534
  512MOL0     C67494   7.197   3.662   6.296 -0.1311 -0.2203  0.3069
  512MOL0     C67495   7.049   3.669   6.322  0.0940  0.3892  0.1311
  512MOL0    Cl67496   7.005   3.836   6.382  0.2768  0.0718  0.0047
  512MOL0     C67497   8.066   3.997   5.998  0.2697 -0.8056  0.8599
  512MOL0     C67498   8.199   3.982   6.026  0.4457 -0.9083  0.3029
  512MOL0     O67499   8.372   3.748   6.298  0.2582  0.4493 -0.0421
  512MOL0     C67500   8.635   3.641   6.274 -0.0044 -0.0559 -0.1191
  512MOL0     C67501   8.770   3.601   6.251  0.0061 -0.2525 -0.4914
  512MOL0     N67502   8.720   3.321   5.695 -1.5347  0.6607 -0.5934
  512MOL0     N67503   8.633   3.237   5.645 -0.2114 -0.6452 -1.0913
  512MOL0     C67504   7.508   3.071   6.065  0.7901  0.9298 -0.3577
  512MOL0     C67505   7.372   3.072   6.108  0.0560  0.0520  0.3386
  512MOL0     C67506   6.930   3.017   6.154 -0.0695  0.7697 -0.0335
  512MOL0     C67507   6.827   3.063   6.069  0.7271 -0.8303  0.2250
  512MOL0     C67508   6.691   3.034   6.091  0.3338  0.2542 -1.0522
  512MOL0     C67509   6.650   2.951   6.194 -0.0883  0.3672 -0.2072
  512MOL0     O67510   6.517   2.919   6.226  0.5150 -0.4272 -0.7058
  512MOL0     C67511   6.404   2.995   6.173  0.1617  0.1346  0.8511
  512MOL0     C67512   6.403   3.140   6.228 -0.8165 -0.7863  0.5573
  512MOL0     C67513   6.341   3.135   6.371 -0.4622  0.3408  0.3912
  512MOL0     C67514   6.371   3.262   6.446 -0.3350 -0.8566 -0.3455
  512MOL0     C67515   6.268   3.367   6.441 -0.1812  0.1652  0.1550
  512MOL0     C67516   6.189   3.457   6.429  0.3038  0.8089 -0.1011
  512MOL0     C67517   6.753   2.906   6.274  0.1553 -0.5714  0.9103
  512MOL0     C67518   6.889   2.929   6.254  0.1909 -0.4740  0.1217
  512MOL0     H67519   7.332   2.749   6.175  0.3694 -0.6247  0.7199
  512MOL0     H67520   7.559   2.748   6.124  2.2578 -0.1989 -3.3410
  512MOL0     H67521   7.771   3.132   6.123  0.2366 -0.6485  0.8260
  512MOL0     H67522   7.758   3.122   5.950 -2.7059 -0.8636  1.2876
  512MOL0     H67523   7.958   2.944   6.079 -4.4553 -3.1200 -2.0661
  512MOL0     H67524   7.998   3.121   6.059 -0.6909  0.8428 -0.8932
  512MOL0     H67525   7.979   3.117   5.825  1.8316  0.9083  0.6016
  512MOL0     H67526   7.912   2.960   5.816  0.2226  1.3446 -1.1618
  512MOL0     H67527   8.187   3.038   5.914  0.8596 -0.2269  0.5686
  512MOL0     H67528   8.135   2.874   5.926 -3.7690  2.0386  3.3378
  512MOL0     H67529   8.174   3.036   5.665 -2.8986  1.2453  2.3008
  512MOL0     H67530   8.131   2.874   5.669 -3.5826  0.7495  0.6524
  512MOL0     H67531   8.373   2.833   5.662  0.8530 -1.0364  1.2329
  512MOL0     H67532   8.355   2.848   5.832  3.9015 -1.7867 -2.0902
  512MOL0     H67533   8.394   3.093   5.639 -0.1686 -0.6358 -0.1719
  512MOL0     H67534   8.416   3.097   5.809 -0.5797  1.2168 -0.4934
  512MOL0     H67535   8.585   2.975   5.590 -0.3585 -0.1640  0.2622
  512MOL0     H67536   8.610   2.909   5.748  1.0222  0.3201  0.8509
  512MOL0     H67537   8.817   3.043   5.838  1.4911  1.1226  0.3105
  512MOL0     H67538   9.018   3.250   5.765  1.5983 -2.9936  2.6369
  512MOL0     H67539   8.964   3.196   5.915  2.0688 -1.2203 -2.0318
  512MOL0     H67540   8.863   3.411   5.970 -0.1317 -1.5023  0.3522
  512MOL0     H67541   8.908   3.487   5.822 -1.5913 -0.3605  0.3851
  512MOL0     H67542   9.085   3.396   6.053 -0.2679  0.8712  1.7481
  512MOL0     H67543   9.153   3.452   5.894 -1.5405 -2.0372 -2.1970
  512MOL0     H67544   8.991   3.659   5.929 -1.6513  1.2407  1.0151
  512MOL0     H67545   9.137   3.648   6.039 -0.9318  2.1857 -1.4298
  512MOL0     H67546   8.786   3.714   5.931 -1.3577 -0.4577 -0.2331
  512MOL0     H67547   8.567   3.762   5.966  2.6201  2.4023 -0.6523
  512MOL0     H67548   8.209   3.655   6.082  1.4057  0.2115 -1.3759
  512MOL0     H67549   7.959   3.675   6.040 -0.0477 -1.1222  0.4818
  512MOL0     H67550   7.815   4.103   5.926  3.0733  0.5770  0.7015
  512MOL0     H67551   7.798   4.066   6.098 -0.7667  2.1633 -0.5864
  512MOL0     H67552   7.600   3.975   5.889 -2.3874  1.4678  0.3106
  512MOL0     H67553   7.587   4.110   6.001  2.0382  0.8765  1.3518
  512MOL0     H67554   7.609   3.954   6.193  1.6499 -1.5264  0.0738
  512MOL0     H67555   7.613   3.813   6.099 -0.2064  0.4689  2.0592
  512MOL0     H67556   7.372   3.991   6.099 -1.8011  0.0968  0.6500
  512MOL0     H67557   7.391   3.849   6.001  1.0706  1.5551 -0.9636
  512MOL0     H67558   7.395   3.843   6.309 -0.5051 -3.1736  0.7136
  512MOL0     H67559   7.456   3.705   6.213  1.1165  0.8422  0.0949
  512MOL0     H67560   7.247   3.695   6.094 -1.4654 -0.9862  0.7755
  512MOL0     H67561   7.179   3.841   6.168 -2.5047 -0.8152  2.0536
  512MOL0     H67562   7.236   3.562   6.276  0.4098  0.1501 -0.5180
  512MOL0     H67563   7.248   3.697   6.386  2.4790  0.5054 -1.3551
  512MOL0     H67564   7.029   3.602   6.406  0.0932 -0.6457 -0.6679
  512MOL0     H67565   6.993   3.640   6.233 -0.4441  1.7158  0.0240
  512MOL0     H67566   8.023   4.091   5.963  0.5644 -1.0655 -0.2364
  512MOL0     H67567   8.265   4.067   6.017 -2.0248  0.9857 -1.1169
  512MOL0     H67568   8.598   3.619   6.374  0.6359  1.9348  0.6150
  512MOL0     H67569   8.818   3.572   6.343  0.5798  2.9883  0.3640
  512MOL0     H67570   7.546   3.169   6.038  1.1155 -0.1331 -4.6663
  512MOL0     H67571   7.334   3.174   6.104 -2.1861 -0.7607 -0.9055
  512MOL0     H67572   6.853   3.147   6.005  0.7866 -0.2472  1.0002
  512MOL0     H67573   6.611   3.070   6.027  0.4098  0.8025 -0.8408
  512MOL0     H67574   6.316   2.952   6.221 -0.3073  0.3131  0.1637
  512MOL0     H67575   6.402   2.994   6.063  3.7535  0.2638  0.6691
  512MOL0     H67576   6.503   3.185   6.230 -1.0482 -0.0980 -1.2375
  512MOL0     H67577   6.352   3.219   6.172  0.7500  2.9541  3.8865
  512MOL0     H67578   6.381   3.054   6.432 -0.0619  0.5819  0.4470
  512MOL0     H67579   6.236   3.116   6.345  0.3886  0.5213 -3.8939
  512MOL0     H67580   6.381   3.234   6.552 -3.4305 -1.7160 -0.1888
  512MOL0     H67581   6.464   3.308   6.411 -0.8587  1.5328  1.1558
  512MOL0     H67582   6.118   3.538   6.429 -0.1036  0.4633 -1.1759
  512MOL0     H67583   6.723   2.846   6.359 -0.9170 -1.0761  0.2038
  512MOL0     H67584   6.956   2.890   6.330  0.3473  2.0230  1.3753
  513MOL0     O67585   3.582   6.806   8.736  0.0447 -0.1720  0.4719
  513MOL0     C67586   3.598   6.902   8.811  0.0638 -0.4403  1.3246
  513MOL0     O67587   3.510   6.969   8.884 -0.2983  0.8089  0.8790
  513MOL0     C67588   3.372   6.949   8.875 -0.8860  1.3392  0.1302
  513MOL0     C67589   3.304   6.941   8.753 -0.1232  0.4338  0.8386
  513MOL0     C67590   3.165   6.907   8.750 -0.8538 -0.4748 -0.0346
  513MOL0     C67591   3.091   6.911   8.866  0.0947 -0.0233  0.4231
  513MOL0     O67592   2.954   6.907   8.863  0.6687 -0.3896  0.5953
  513MOL0     C67593   2.887   6.987   8.761  0.3475  0.3104 -0.7475
  513MOL0     C67594   2.779   6.915   8.680 -0.0239  0.0746  0.2605
  513MOL0     C67595   2.682   6.852   8.781 -0.1954 -0.1883  1.3835
  513MOL0     C67596   2.544   6.832   8.716  0.3357 -0.1385  0.1105
  513MOL0     C67597   2.444   6.797   8.828  0.0674 -0.2192  0.1981
  513MOL0     C67598   2.301   6.774   8.766 -0.3258 -0.3243 -0.5014
  513MOL0     C67599   2.277   6.634   8.704 -0.1084  1.3547 -1.0144
  513MOL0     C67600   2.225   6.532   8.810 -0.0162 -0.2023 -0.5900
  513MOL0     N67601   2.208   6.390   8.756  0.4767  0.2209  0.0612
  513MOL0     C67602   2.130   6.346   8.652  0.2796 -0.2579  1.0538
  513MOL0     C67603   2.156   6.220   8.630 -1.3277  0.1058 -0.3483
  513MOL0     C67604   2.109   6.132   8.522  1.7921 -0.6466 -0.4675
  513MOL0     C67605   1.956   6.119   8.562 -1.1009  0.2419 -0.4685
  513MOL0     C67606   1.883   6.023   8.469  1.0569  0.2383 -0.0994
  513MOL0     C67607   1.737   6.021   8.503  0.8457 -0.6639  0.5520
  513MOL0     O67608   1.676   6.146   8.463 -0.4798 -0.3286  0.2720
  513MOL0     C67609   1.548   6.158   8.415 -0.1763 -0.5600 -0.6133
  513MOL0     C67610   1.498   6.285   8.412  0.1021  0.0375  0.4840
  513MOL0     C67611   1.363   6.305   8.385 -0.3303  0.6881  1.3097
  513MOL0     C67612   1.281   6.200   8.342 -0.3851  0.0843  0.2891
  513MOL0     C67613   1.146   6.232   8.307  0.1197  0.1370  0.2903
  513MOL0     O67614   1.050   6.139   8.334 -0.4277 -0.4176  0.0482
  513MOL0     C67615   0.930   6.147   8.274  0.3521  0.5550  0.1528
  513MOL0     C67616   0.867   6.029   8.236 -0.7504  0.2172 -0.2925
  513MOL0     C67617   0.738   6.022   8.194  0.4823 -0.9030 -1.0301
  513MOL0     C67618   0.660   6.142   8.186 -0.2159 -0.1707 -0.1742
  513MOL0     O67619   0.518   6.134   8.161  0.3943  0.2308  0.2865
  513MOL0     C67620   0.459   6.010   8.125  1.0094 -0.2563 -0.2148
  513MOL0     C67621   0.304   6.010   8.120  0.3075  0.3002  0.1146
  513MOL0     C67622   0.252   6.118   8.028  0.7521 -0.0002 -0.4927
  513MOL0     C67623   0.105   6.143   8.030  0.2674 -0.0006  0.6799
  513MOL0     C67624   0.057   6.249   7.929  0.0700 -0.3084  0.1999
  513MOL0     C67625  -0.093   6.254   7.905  0.2909 -0.0909  0.4981
  513MOL0     C67626  -0.183   6.307   8.013 -0.7007 -0.4588 -0.0816
  513MOL0     C67627  -0.328   6.283   7.981 -0.1808  0.0746 -0.1027
  513MOL0    Cl67628  -0.373   6.353   7.829 -0.3529 -0.6352 -0.1570
  513MOL0     C67629   0.725   6.265   8.206  0.3824 -0.4999  0.2937
  513MOL0     C67630   0.856   6.272   8.260 -0.3810  0.4754  0.6884
  513MOL0     O67631   1.132   6.329   8.244  0.1221 -1.0775 -0.1431
  513MOL0     C67632   1.327   6.069   8.327 -0.6817 -0.0201 -0.9568
  513MOL0     C67633   1.469   6.048   8.364  1.4303 -0.4693 -0.5232
  513MOL0     N67634   2.262   6.182   8.710  0.5383 -0.2509 -0.4034
  513MOL0     N67635   2.284   6.286   8.784  0.4448  0.6440  0.1393
  513MOL0     C67636   3.162   6.926   8.981  0.1627 -0.3820 -0.0897
  513MOL0     C67637   3.293   6.950   8.991 -0.4508 -0.4334 -0.5156
  513MOL0     C67638   3.738   6.944   8.830 -0.9967  0.2881  0.1188
  513MOL0     C67639   3.844   6.889   8.760  0.2381 -0.0482 -0.0099
  513MOL0     C67640   3.975   6.936   8.783  0.6830 -0.1761  0.6116
  513MOL0     C67641   4.005   7.026   8.882  0.4924  0.2753  0.2045
  513MOL0     O67642   4.140   7.053   8.894 -0.7745 -0.4548 -0.0947
  513MOL0     C67643   4.178   7.161   8.975  0.0516 -0.5840  0.4584
  513MOL0     C67644   4.203   7.116   9.126 -0.5471  0.3198  0.1445
  513MOL0     C67645   4.307   6.999   9.118 -0.0828 -0.0727 -0.4732
  513MOL0     C67646   4.425   7.033   9.217  0.2689  0.5092  0.1430
  513MOL0     C67647   4.528   6.930   9.224 -0.0443  0.6701  0.2916
  513MOL0     C67648   4.605   6.836   9.239  0.6702  0.6674  0.5073
  513MOL0     C67649   3.906   7.074   8.966 -0.4453  0.1299  0.5239
  513MOL0     C67650   3.772   7.036   8.928  0.2281  0.2032 -0.3863
  513MOL0     H67651   3.353   6.942   8.656 -0.9147  0.4106  0.4313
  513MOL0     H67652   3.102   6.896   8.662 -1.5432  0.6610  0.3005
  513MOL0     H67653   2.951   7.041   8.690  2.7293 -2.3578 -0.7720
  513MOL0     H67654   2.846   7.070   8.819  3.1147 -0.9689  3.4518
  513MOL0     H67655   2.830   6.852   8.607  0.5561  0.7812  0.0414
  513MOL0     H67656   2.730   6.992   8.620  1.0872  0.5859 -0.0189
  513MOL0     H67657   2.670   6.923   8.863 -2.9827  0.8231  0.2127
  513MOL0     H67658   2.735   6.760   8.808 -0.7080 -1.0366 -0.3901
  513MOL0     H67659   2.518   6.925   8.665  0.1110  0.5643  1.4659
  513MOL0     H67660   2.547   6.754   8.639  0.5972  0.6886 -0.7216
  513MOL0     H67661   2.442   6.878   8.902 -1.6063  0.2284 -0.2791
  513MOL0     H67662   2.471   6.705   8.881 -1.2029 -1.7007 -1.5688
  513MOL0     H67663   2.280   6.850   8.690 -1.7970 -2.2097 -2.1044
  513MOL0     H67664   2.233   6.788   8.851  0.7792  1.7630  0.1183
  513MOL0     H67665   2.191   6.650   8.640 -0.6059  0.0475 -0.7223
  513MOL0     H67666   2.362   6.596   8.646 -0.4757 -0.2926 -0.5365
  513MOL0     H67667   2.134   6.575   8.852 -0.9367 -0.1072 -2.6202
  513MOL0     H67668   2.298   6.516   8.891  2.2292  0.5419 -2.3702
  513MOL0     H67669   2.062   6.410   8.597  1.6272  1.2464  1.0791
  513MOL0     H67670   2.164   6.038   8.528 -0.6833 -2.1687 -0.2463
  513MOL0     H67671   2.111   6.171   8.420 -1.1491  0.3783 -0.2402
  513MOL0     H67672   1.913   6.219   8.568  1.4986  1.3769  1.4335
  513MOL0     H67673   1.961   6.065   8.657 -0.2291  0.9283 -0.1049
  513MOL0     H67674   1.892   6.062   8.367 -0.5714 -0.0546 -0.3896
  513MOL0     H67675   1.916   5.919   8.474 -0.4670 -0.2990 -0.5115
  513MOL0     H67676   1.719   6.001   8.609 -1.0368 -1.0006  0.1998
  513MOL0     H67677   1.691   5.943   8.444 -0.9601  1.0765 -0.4533
  513MOL0     H67678   1.568   6.358   8.453  1.0041  1.3909 -3.0755
  513MOL0     H67679   1.315   6.402   8.382 -0.9140  0.3975 -0.9653
  513MOL0     H67680   0.930   5.942   8.250  0.9041  1.2102 -1.0962
  513MOL0     H67681   0.686   5.931   8.166 -2.0980  0.8478 -2.4954
  513MOL0     H67682   0.475   5.932   8.199 -0.6798  1.4793  2.1034
  513MOL0     H67683   0.514   5.981   8.035  1.4658  0.6902 -0.2579
  513MOL0     H67684   0.263   6.024   8.221  0.9466  2.4733  0.1281
  513MOL0     H67685   0.253   5.917   8.096  0.4673 -0.3298  2.0667
  513MOL0     H67686   0.286   6.083   7.930  0.1871  0.3714 -0.8266
  513MOL0     H67687   0.297   6.216   8.044 -1.8385  1.1284  0.4784
  513MOL0     H67688   0.059   6.050   7.995  1.2530 -0.2344 -0.0300
  513MOL0     H67689   0.074   6.168   8.132  0.0245  2.5564  0.0589
  513MOL0     H67690   0.113   6.220   7.839  0.7321  0.9160  0.1997
  513MOL0     H67691   0.094   6.348   7.956  2.7012 -0.7603 -1.3444
  513MOL0     H67692  -0.121   6.155   7.867 -1.1080  0.7562 -0.7731
  513MOL0     H67693  -0.098   6.323   7.821 -1.4016 -1.8687 -0.9587
  513MOL0     H67694  -0.158   6.261   8.109 -1.6063 -2.5692 -0.8030
  513MOL0     H67695  -0.167   6.415   8.007  0.8527 -0.7067 -1.0761
  513MOL0     H67696  -0.385   6.320   8.066  0.7644  1.4433 -0.0353
  513MOL0     H67697  -0.344   6.175   7.975  0.4085  0.0282 -1.2375
  513MOL0     H67698   0.671   6.360   8.200 -1.4884 -1.4949  0.4732
  513MOL0     H67699   0.889   6.367   8.302  0.4065  0.6112 -0.2194
  513MOL0     H67700   1.277   5.983   8.286 -0.7914  0.4384 -1.8053
  513MOL0     H67701   1.509   5.949   8.345 -1.1017 -1.7700  0.4882
  513MOL0     H67702   3.103   6.946   9.070 -0.0812  3.1317 -0.8695
  513MOL0     H67703   3.325   6.976   9.092 -1.2039 -4.3113  0.8859
  513MOL0     H67704   3.830   6.812   8.685  3.1821 -0.1585 -0.5920
  513MOL0     H67705   4.056   6.891   8.725 -0.3205  0.5977 -1.5197
  513MOL0     H67706   4.106   7.242   8.960 -2.1580 -2.5674 -0.3042
  513MOL0     H67707   4.277   7.197   8.946 -0.1939  2.9998  3.3846
  513MOL0     H67708   4.235   7.202   9.186  2.5667  0.4966 -1.5253
  513MOL0     H67709   4.105   7.080   9.158 -1.4963  2.0990 -0.5925
  513MOL0     H67710   4.346   6.979   9.018 -0.7036 -1.1138 -0.5127
  513MOL0     H67711   4.251   6.908   9.137  0.9987 -1.2697 -2.6882
  513MOL0     H67712   4.466   7.126   9.175 -1.6684  0.4892 -2.0074
  513MOL0     H67713   4.389   7.067   9.315 -1.3928  0.3067 -0.3552
  513MOL0     H67714   4.675   6.758   9.260 -0.7595 -0.9483 -0.4762
  513MOL0     H67715   3.918   7.132   9.057 -0.9657 -0.4569  0.9757
  513MOL0     H67716   3.693   7.079   8.988  0.0868 -1.8069  0.9825
  514MOL0     O67717   1.687  10.499  11.031  0.4424 -0.1041 -0.4098
  514MOL0     C67718   1.695  10.524  10.911 -0.1009 -0.5565  0.4648
  514MOL0     O67719   1.599  10.509  10.816  0.6431  0.4583 -1.3656
  514MOL0     C67720   1.475  10.446  10.848 -0.6066  0.6490  0.2173
  514MOL0     C67721   1.371  10.501  10.774 -0.7721  0.1247  0.0175
  514MOL0     C67722   1.236  10.464  10.792  0.0363  0.0813 -0.3679
  514MOL0     C67723   1.199  10.377  10.895 -0.4437  0.8081 -0.0766
  514MOL0     O67724   1.067  10.337  10.923  0.4519  0.7070 -0.0929
  514MOL0     C67725   0.960  10.404  10.857  0.0245 -0.1720 -0.3064
  514MOL0     C67726   0.822  10.346  10.900  0.2517  0.0364  0.1230
  514MOL0     C67727   0.796  10.206  10.838 -0.1492 -1.0918  0.0336
  514MOL0     C67728   0.654  10.159  10.852  0.4446 -0.5665  0.2011
  514MOL0     C67729   0.549  10.253  10.794  0.2457  0.0170  0.2102
  514MOL0     C67730   0.544  10.252  10.642 -0.6433 -0.4032 -1.0334
  514MOL0     C67731   0.423  10.330  10.584 -0.4442 -0.2616  1.2790
  514MOL0     C67732   0.425  10.339  10.433 -0.0201  0.0677  0.1376
  514MOL0     N67733   0.324  10.431  10.390 -0.4270 -0.2896 -0.7011
  514MOL0     C67734   0.315  10.564  10.420 -0.8162  0.5832 -0.3432
  514MOL0     C67735   0.189  10.595  10.389 -0.3839 -0.7828  0.0357
  514MOL0     C67736   0.135  10.739  10.401  0.0734  0.2406 -0.5532
  514MOL0     C67737   0.176  10.820  10.277  0.6923  0.6486 -0.6276
  514MOL0     C67738   0.122  10.972  10.287  0.0810  0.4852  0.0094
  514MOL0     C67739   0.182  11.061  10.178 -0.5826  0.3914  0.0143
  514MOL0     O67740   0.144  11.194  10.208  0.3823 -0.0884 -0.0979
  514MOL0     C67741   0.023  11.235  10.172 -0.0817 -0.1995 -0.5559
  514MOL0     C67742  -0.036  11.329  10.251  0.0290  0.1047  0.8286
  514MOL0     C67743  -0.156  11.393  10.218  0.7138  0.7925  0.0486
  514MOL0     C67744  -0.233  11.343  10.114 -0.8371 -0.6402  0.1669
  514MOL0     C67745  -0.370  11.404  10.085  0.0554  0.3862  0.7860
  514MOL0     O67746  -0.405  11.521  10.147  0.3882  0.5003 -0.2872
  514MOL0     C67747  -0.535  11.568  10.140 -0.3577  0.3237  0.1843
  514MOL0     C67748  -0.545  11.706  10.144 -0.4935 -0.1886  0.6181
  514MOL0     C67749  -0.667  11.765  10.149  0.0754  0.2672 -0.6945
  514MOL0     C67750  -0.784  11.690  10.178 -0.0960  0.6228  0.0376
  514MOL0     O67751  -0.902  11.756  10.199  0.4487 -0.1320  0.2163
  514MOL0     C67752  -1.025  11.683  10.182 -0.1740  0.4236  0.4699
  514MOL0     C67753  -1.145  11.763  10.202  0.5777 -0.2102 -0.8350
  514MOL0     C67754  -1.277  11.682  10.233 -0.2496 -0.2338 -0.0412
  514MOL0     C67755  -1.401  11.767  10.258  0.6664 -0.6456  0.3455
  514MOL0     C67756  -1.533  11.699  10.298 -0.5657  0.0438 -0.1814
  514MOL0     C67757  -1.658  11.788  10.282 -0.5110 -0.0740 -0.8205
  514MOL0     C67758  -1.681  11.866  10.404  0.3973 -0.6933  0.3826
  514MOL0     C67759  -1.664  12.018  10.384 -0.5115 -0.1228  0.5113
  514MOL0    Cl67760  -1.498  12.085  10.353  0.3197  0.2079 -0.6843
  514MOL0     C67761  -0.766  11.553  10.184  0.3854 -0.1519 -0.7842
  514MOL0     C67762  -0.644  11.486  10.156  0.1221 -0.5032  0.3946
  514MOL0     O67763  -0.427  11.344   9.997 -0.2305  1.0816 -0.0376
  514MOL0     C67764  -0.179  11.232  10.041 -0.1353  0.0602  0.3233
  514MOL0     C67765  -0.059  11.178  10.068 -0.0407  0.6479  0.1562
  514MOL0     N67766   0.126  10.480  10.341  1.0586  0.0658 -0.3947
  514MOL0     N67767   0.206  10.383  10.339 -0.8674  0.1196 -0.2893
  514MOL0     C67768   1.307  10.310  10.964 -0.4112  0.0956  0.4156
  514MOL0     C67769   1.442  10.348  10.943 -0.4207 -0.1041  0.9758
  514MOL0     C67770   1.829  10.565  10.857  0.1621  0.2573  0.2502
  514MOL0     C67771   1.937  10.579  10.942 -0.2579  0.1383  0.3733
  514MOL0     C67772   2.060  10.612  10.890 -0.1110 -0.4245 -0.3477
  514MOL0     C67773   2.082  10.636  10.752 -0.6942  0.5367  0.2643
  514MOL0     O67774   2.208  10.676  10.719  0.3725 -0.1851 -0.3268
  514MOL0     C67775   2.286  10.564  10.692  0.4174  0.2361 -0.0167
  514MOL0     C67776   2.398  10.586  10.589 -0.2174 -0.0387 -0.0245
  514MOL0     C67777   2.349  10.669  10.476  0.9729 -0.2983 -0.4626
  514MOL0     C67778   2.433  10.687  10.354 -0.7517  0.3161 -0.6094
  514MOL0     C67779   2.367  10.772  10.252  0.5657 -1.1825 -0.8131
  514MOL0     C67780   2.321  10.843  10.164  0.8670 -0.4818 -0.2015
  514MOL0     C67781   1.971  10.632  10.665  0.1363 -0.6210 -0.4599
  514MOL0     C67782   1.846  10.594  10.722  0.0755  0.5404 -0.2541
  514MOL0     H67783   1.402  10.567  10.694  1.9224  0.2356  1.0599
  514MOL0     H67784   1.161  10.519  10.736 -1.0245 -2.1063 -1.2435
  514MOL0     H67785   0.975  10.389  10.750  3.5968  0.7274 -0.0508
  514MOL0     H67786   0.970  10.512  10.873 -0.6654 -0.1122 -0.2597
  514MOL0     H67787   0.749  10.420  10.867 -0.3174 -0.8979 -0.7629
  514MOL0     H67788   0.825  10.344  11.009  2.6466  0.7106  0.1479
  514MOL0     H67789   0.855  10.131  10.892  3.5239 -1.6942 -4.2620
  514MOL0     H67790   0.833  10.194  10.736 -1.7020 -1.1888 -0.5392
  514MOL0     H67791   0.629  10.066  10.800 -2.6809 -1.3965  2.8444
  514MOL0     H67792   0.623  10.144  10.956 -2.9953  2.1241 -0.2350
  514MOL0     H67793   0.546  10.353  10.837 -0.3646 -0.1522  0.5837
  514MOL0     H67794   0.458  10.200  10.824  1.1270 -1.0917  1.0001
  514MOL0     H67795   0.530  10.149  10.610 -0.3779 -0.5513 -0.6857
  514MOL0     H67796   0.642  10.286  10.606 -0.0441 -0.8110  0.1706
  514MOL0     H67797   0.329  10.280  10.611 -1.5538  0.4725 -0.9644
  514MOL0     H67798   0.412  10.430  10.628 -0.0980 -0.3382  1.5410
  514MOL0     H67799   0.414  10.239  10.391  1.7675 -0.5942  1.1548
  514MOL0     H67800   0.522  10.378  10.401 -0.2154  0.8868  0.5152
  514MOL0     H67801   0.386  10.636  10.460 -0.1088  0.0675 -0.6544
  514MOL0     H67802   0.185  10.780  10.489  0.8871  1.3819 -1.5068
  514MOL0     H67803   0.026  10.736  10.411  0.1886  0.9728  1.3434
  514MOL0     H67804   0.145  10.777  10.181  3.0193  0.2506 -1.2655
  514MOL0     H67805   0.285  10.816  10.276  0.6574 -0.2664 -1.0695
  514MOL0     H67806   0.013  10.963  10.280 -0.1973  0.0252  3.3225
  514MOL0     H67807   0.162  11.015  10.380  2.1004 -0.1511 -0.5063
  514MOL0     H67808   0.156  11.029  10.077 -1.2631  1.5426 -0.1988
  514MOL0     H67809   0.291  11.050  10.179 -0.3910  1.2334 -2.4476
  514MOL0     H67810   0.002  11.370  10.344  0.1073  2.2046 -0.0639
  514MOL0     H67811  -0.190  11.476  10.279 -3.0626  0.3667 -1.2194
  514MOL0     H67812  -0.456  11.768  10.131  0.6486 -2.3229 -3.3434
  514MOL0     H67813  -0.668  11.873  10.162  0.1559  0.1428  0.3717
  514MOL0     H67814  -1.024  11.608  10.261  0.9239  1.0557  1.0795
  514MOL0     H67815  -1.046  11.640  10.083 -2.9459  0.4324  0.9687
  514MOL0     H67816  -1.163  11.818  10.109 -0.9695 -0.7007 -0.8610
  514MOL0     H67817  -1.133  11.835  10.283 -0.2869 -0.3599 -0.5613
  514MOL0     H67818  -1.260  11.631  10.328  1.1240 -0.4630 -0.3802
  514MOL0     H67819  -1.288  11.604  10.157  1.0066  1.0317 -1.6085
  514MOL0     H67820  -1.373  11.846  10.329  0.5282 -0.2184 -0.0665
  514MOL0     H67821  -1.426  11.825  10.168 -0.3232  1.5051  1.8864
  514MOL0     H67822  -1.519  11.667  10.402  0.0309  0.3571 -0.1572
  514MOL0     H67823  -1.546  11.611  10.235  1.7944  0.4756 -1.3981
  514MOL0     H67824  -1.750  11.728  10.271  0.2774 -0.9649 -3.3652
  514MOL0     H67825  -1.644  11.853  10.195  2.3051  0.4864 -0.0200
  514MOL0     H67826  -1.788  11.864  10.428 -0.2792  0.2540 -2.1649
  514MOL0     H67827  -1.621  11.831  10.488  0.8700 -0.5225  0.1174
  514MOL0     H67828  -1.704  12.064  10.475 -0.3558  1.5305 -0.2328
  514MOL0     H67829  -1.723  12.049  10.298  1.0084  0.5809 -0.3186
  514MOL0     H67830  -0.855  11.494  10.201  0.1902 -0.2659 -2.1138
  514MOL0     H67831  -0.640  11.377  10.151  0.8253 -0.4993  0.6875
  514MOL0     H67832  -0.238  11.188   9.961  2.7524  1.1806 -2.6569
  514MOL0     H67833  -0.037  11.086  10.016 -0.1268 -0.0965  1.3973
  514MOL0     H67834   1.287  10.229  11.033 -0.9498 -0.4205 -0.3348
  514MOL0     H67835   1.529  10.300  10.987  1.4413 -2.1460 -4.1740
  514MOL0     H67836   1.929  10.571  11.050  0.7881 -1.1054  0.3851
  514MOL0     H67837   2.148  10.613  10.954 -0.1364  0.7465 -0.2996
  514MOL0     H67838   2.223  10.486  10.648 -0.5607  0.2422  1.3209
  514MOL0     H67839   2.315  10.524  10.789 -0.9763  0.7432  0.6302
  514MOL0     H67840   2.479  10.633  10.645 -0.1246 -1.5958  1.2460
  514MOL0     H67841   2.440  10.492  10.552 -1.6287  0.3611 -2.8554
  514MOL0     H67842   2.319  10.766  10.517  2.0473 -0.9416  1.9861
  514MOL0     H67843   2.261  10.616  10.438  0.8832 -0.2320 -0.3484
  514MOL0     H67844   2.528  10.733  10.385 -0.3999  1.6860 -3.3419
  514MOL0     H67845   2.451  10.586  10.316 -0.7843 -1.4001  3.5110
  514MOL0     H67846   2.276  10.902  10.085  0.3731  0.9194  1.0738
  514MOL0     H67847   1.977  10.646  10.557  0.9586  2.8645 -0.0956
  514MOL0     H67848   1.759  10.605  10.658 -0.3104 -0.5052  0.0700
  515MOL0     O67849   5.733   3.556   0.007 -0.7505 -0.1252  0.3060
  515MOL0     C67850   5.714   3.436  -0.022  0.5996  0.4592  0.4376
  515MOL0     O67851   5.806   3.335  -0.009  0.0357  0.4231  0.6371
  515MOL0     C67852   5.939   3.366  -0.001  0.1014  0.2645  0.0484
  515MOL0     C67853   6.018   3.318  -0.108 -0.0551  0.2563 -1.3095
  515MOL0     C67854   6.157   3.328  -0.095 -0.2292 -0.0106  0.4810
  515MOL0     C67855   6.224   3.379   0.018 -0.2140  0.3945  0.6838
  515MOL0     O67856   6.360   3.382   0.009 -0.4618 -0.2479  0.5842
  515MOL0     C67857   6.430   3.409   0.134 -0.8614  0.4372 -0.5320
  515MOL0     C67858   6.582   3.425   0.113 -0.3110 -0.4791  0.3085
  515MOL0     C67859   6.649   3.291   0.091  0.3071  0.0609 -0.2546
  515MOL0     C67860   6.797   3.313   0.089  0.6415 -0.4145  0.3225
  515MOL0     C67861   6.868   3.178   0.055 -0.2531  0.9373  0.4626
  515MOL0     C67862   7.025   3.196   0.041 -0.0477  0.1515  0.3152
  515MOL0     C67863   7.047   3.255  -0.099 -0.0600 -0.2527  0.1807
  515MOL0     C67864   7.189   3.283  -0.126  0.4747  0.5704 -0.3515
  515MOL0     N67865   7.211   3.300  -0.272  0.2092  0.2224  0.3498
  515MOL0     C67866   7.305   3.224  -0.341 -0.3581 -0.3741 -0.2518
  515MOL0     C67867   7.317   3.282  -0.463 -0.0107 -0.6547  0.2254
  515MOL0     C67868   7.412   3.233  -0.563 -0.7231  0.5074  0.2603
  515MOL0     C67869   7.357   3.232  -0.711  0.3572 -0.4375  0.7169
  515MOL0     C67870   7.227   3.148  -0.719  0.2091 -0.5864 -0.7560
  515MOL0     C67871   7.215   3.063  -0.849 -0.7065 -0.2728 -0.0229
  515MOL0     O67872   7.105   2.970  -0.841  0.1087  0.7121 -0.1124
  515MOL0     C67873   6.992   2.993  -0.916 -0.3272 -0.5387 -0.4325
  515MOL0     C67874   6.908   2.888  -0.944 -0.0169  0.3162  0.2391
  515MOL0     C67875   6.786   2.908  -1.002  0.0684 -1.0124  0.5228
  515MOL0     C67876   6.756   3.034  -1.059  0.7402 -0.0557  0.1864
  515MOL0     C67877   6.639   3.063  -1.144  0.4085  0.2463 -0.0343
  515MOL0     O67878   6.586   2.962  -1.211  0.6618  0.2535  1.1097
  515MOL0     C67879   6.462   2.968  -1.276  0.6875  1.2107 -0.4074
  515MOL0     C67880   6.347   3.020  -1.224  0.5359 -0.7265  0.5665
  515MOL0     C67881   6.223   3.012  -1.297  0.0577  0.3225  0.6751
  515MOL0     C67882   6.212   2.937  -1.423  0.4011 -0.1261 -0.5346
  515MOL0     O67883   6.087   2.931  -1.479  0.6541  0.4039  0.6157
  515MOL0     C67884   6.089   2.843  -1.598 -0.3781  0.8981  0.6358
  515MOL0     C67885   5.941   2.819  -1.648 -0.1598  0.0749 -0.3439
  515MOL0     C67886   5.934   2.783  -1.795 -0.7754 -0.0778  0.4249
  515MOL0     C67887   5.784   2.769  -1.841 -0.5386 -0.6076 -1.1142
  515MOL0     C67888   5.769   2.738  -1.991 -0.5783  0.7423 -0.1560
  515MOL0     C67889   5.640   2.676  -2.033  0.7805  0.1608  0.1698
  515MOL0     C67890   5.527   2.774  -2.044 -0.5658  0.0991  0.7545
  515MOL0     C67891   5.407   2.688  -2.083  0.2101  0.3010  0.6045
  515MOL0    Cl67892   5.433   2.616  -2.253  0.5320 -0.2678 -0.2636
  515MOL0     C67893   6.330   2.886  -1.473  0.9142 -0.4472 -0.0052
  515MOL0     C67894   6.448   2.900  -1.393 -0.1778  0.3803 -0.0948
  515MOL0     O67895   6.610   3.179  -1.153 -0.5900 -0.0569  0.4168
  515MOL0     C67896   6.850   3.138  -1.034 -0.0587 -0.1303 -0.2140
  515MOL0     C67897   6.964   3.123  -0.964 -0.6896  0.3021  0.8569
  515MOL0     N67898   7.206   3.373  -0.476 -0.6001 -0.5340  0.1296
  515MOL0     N67899   7.151   3.382  -0.356  0.4707 -0.3240  0.4685
  515MOL0     C67900   6.143   3.442   0.117 -0.8903  0.3550 -0.2741
  515MOL0     C67901   6.004   3.420   0.111  0.0478 -0.3221 -0.5435
  515MOL0     C67902   5.573   3.400  -0.037 -0.2607 -0.1591 -0.9480
  515MOL0     C67903   5.479   3.494  -0.078 -0.8960  0.1975  0.0387
  515MOL0     C67904   5.344   3.454  -0.096 -0.3887  0.4248 -0.3040
  515MOL0     C67905   5.307   3.322  -0.075  1.1730 -0.3287 -0.1599
  515MOL0     O67906   5.186   3.268  -0.097  0.7671 -1.0078 -0.5588
  515MOL0     C67907   5.078   3.347  -0.148  0.6861  0.4324 -0.0035
  515MOL0     C67908   4.931   3.287  -0.142  0.2057 -0.0046  0.1117
  515MOL0     C67909   4.918   3.144  -0.197 -0.1104 -0.7267 -0.2910
  515MOL0     C67910   4.946   3.143  -0.344  0.5365  0.2910  0.2629
  515MOL0     C67911   4.858   3.231  -0.428 -0.0429  0.8279  0.0073
  515MOL0     C67912   4.788   3.299  -0.496 -0.1989 -0.4941  0.0294
  515MOL0     C67913   5.406   3.229  -0.035  0.0306 -0.0706  0.5187
  515MOL0     C67914   5.537   3.270  -0.016  0.3477  0.2914  0.7480
  515MOL0     H67915   5.967   3.290  -0.199 -0.3805 -0.8647 -0.7988
  515MOL0     H67916   6.219   3.304  -0.181 -1.6287  3.6990 -1.8193
  515MOL0     H67917   6.401   3.325   0.197  0.2954 -1.7565 -2.7224
  515MOL0     H67918   6.397   3.505   0.174 -0.7840  0.9073 -1.5628
  515MOL0     H67919   6.615   3.475   0.204  1.3522  1.8039 -1.4384
  515MOL0     H67920   6.611   3.493   0.032  2.4633 -0.6437  1.0408
  515MOL0     H67921   6.605   3.263  -0.005 -0.0572 -0.6838  0.1172
  515MOL0     H67922   6.613   3.216   0.163 -1.4762  0.1692 -0.9835
  515MOL0     H67923   6.822   3.391   0.017  1.0287 -1.9352 -1.2409
  515MOL0     H67924   6.836   3.359   0.181  3.8596  0.2145 -1.2268
  515MOL0     H67925   6.831   3.136  -0.039  3.7801 -0.3346 -0.7852
  515MOL0     H67926   6.854   3.098   0.128 -0.6486 -0.4080 -1.0254
  515MOL0     H67927   7.062   3.093   0.040 -2.4401 -0.8041  1.7096
  515MOL0     H67928   7.072   3.252   0.123  0.2781  0.6147 -0.1793
  515MOL0     H67929   7.006   3.188  -0.175 -1.8406  2.3280 -1.2814
  515MOL0     H67930   6.994   3.349  -0.116 -0.7214 -0.9339 -1.8032
  515MOL0     H67931   7.251   3.204  -0.084  0.0056  0.8781  0.9777
  515MOL0     H67932   7.217   3.380  -0.084  2.2259  1.1369 -2.6806
  515MOL0     H67933   7.366   3.143  -0.303 -0.8289 -0.8845 -0.5598
  515MOL0     H67934   7.440   3.130  -0.537 -2.3786  0.1037  0.5760
  515MOL0     H67935   7.496   3.303  -0.566  0.7561 -1.2261 -0.8252
  515MOL0     H67936   7.441   3.204  -0.775  0.6858 -0.2796  1.0791
  515MOL0     H67937   7.323   3.331  -0.743 -0.8278 -0.1214  2.7687
  515MOL0     H67938   7.217   3.082  -0.633  0.3050  1.2872  0.7421
  515MOL0     H67939   7.138   3.212  -0.725 -0.0665 -0.8019  0.7037
  515MOL0     H67940   7.309   3.009  -0.853 -1.0673 -0.8570 -2.8484
  515MOL0     H67941   7.222   3.117  -0.944 -0.5871 -1.0181 -0.4470
  515MOL0     H67942   6.932   2.784  -0.924  0.3940 -0.0660 -2.0230
  515MOL0     H67943   6.719   2.828  -1.032 -2.1022  0.7408  0.4512
  515MOL0     H67944   6.362   3.081  -1.135  1.6686 -2.1454  1.3853
  515MOL0     H67945   6.136   3.060  -1.253 -1.6641 -1.4287 -0.6712
  515MOL0     H67946   6.106   2.737  -1.574 -1.1349  0.4715 -0.6244
  515MOL0     H67947   6.165   2.862  -1.675  1.2353  1.2037  2.2294
  515MOL0     H67948   5.886   2.913  -1.634 -2.5332 -1.1953 -0.5334
  515MOL0     H67949   5.891   2.740  -1.592 -0.6845 -0.9118 -2.1312
  515MOL0     H67950   5.992   2.690  -1.802 -0.6521 -0.0266  0.7668
  515MOL0     H67951   5.988   2.860  -1.850  0.8808 -0.6254  1.2268
  515MOL0     H67952   5.725   2.699  -1.782  1.8864 -3.5898 -1.9297
  515MOL0     H67953   5.737   2.867  -1.839  1.7013  0.5372 -0.9104
  515MOL0     H67954   5.851   2.668  -2.012 -1.1428 -1.7242  4.5343
  515MOL0     H67955   5.786   2.830  -2.048  1.3104  1.1387  0.9590
  515MOL0     H67956   5.613   2.586  -1.977 -0.8331 -0.0135 -0.8185
  515MOL0     H67957   5.659   2.635  -2.133 -0.3228 -3.3797  1.2498
  515MOL0     H67958   5.504   2.827  -1.952 -0.0529  0.9616  0.3921
  515MOL0     H67959   5.531   2.847  -2.125  1.1065 -0.6918  0.0838
  515MOL0     H67960   5.316   2.749  -2.078 -0.6675 -0.9818  0.8656
  515MOL0     H67961   5.380   2.610  -2.011  0.1776  0.0543  0.3242
  515MOL0     H67962   6.339   2.840  -1.570 -0.2844 -1.8890  0.5265
  515MOL0     H67963   6.531   2.846  -1.436 -1.9385 -1.5860 -1.2636
  515MOL0     H67964   6.831   3.240  -1.066 -2.5916 -0.7810 -0.9977
  515MOL0     H67965   7.041   3.197  -0.945  1.5350 -1.8450  0.6042
  515MOL0     H67966   6.183   3.498   0.201  0.4049  2.8804 -2.4121
  515MOL0     H67967   5.935   3.436   0.194 -0.9287 -2.1760 -0.9351
  515MOL0     H67968   5.511   3.597  -0.094  0.5036 -0.0773  0.9072
  515MOL0     H67969   5.267   3.520  -0.134 -0.5264  1.6243  1.8542
  515MOL0     H67970   5.113   3.363  -0.250  1.6152  0.0042  0.2325
  515MOL0     H67971   5.070   3.443  -0.097 -2.2269  0.4625 -0.3426
  515MOL0     H67972   4.908   3.280  -0.035  0.8156 -1.9693  0.1578
  515MOL0     H67973   4.856   3.347  -0.193  0.6550 -0.2887 -0.9176
  515MOL0     H67974   4.825   3.098  -0.164 -0.7517  1.8665  1.8443
  515MOL0     H67975   4.996   3.083  -0.150 -0.5946 -0.8327  0.3883
  515MOL0     H67976   5.048   3.182  -0.348  0.2848  0.8752 -0.7525
  515MOL0     H67977   4.932   3.041  -0.383  1.8188  0.9151 -2.0008
  515MOL0     H67978   4.739   3.362  -0.568 -0.2695 -0.7204 -0.1238
  515MOL0     H67979   5.386   3.124  -0.020 -1.5692 -0.2032 -1.9601
  515MOL0     H67980   5.608   3.192   0.009  0.2375  0.3229  1.1646
  516MOL0     O67981  10.978   6.157   0.589 -0.0704 -0.0343  0.2986
  516MOL0     C67982  11.093   6.108   0.602  0.0545 -0.5576  0.3346
  516MOL0     O67983  11.125   5.983   0.562 -0.1455  0.3296 -0.5450
  516MOL0     C67984  11.035   5.904   0.489 -1.2617  0.0616 -0.4343
  516MOL0     C67985  11.017   5.767   0.525 -0.2051  1.2027 -0.5664
  516MOL0     C67986  10.913   5.689   0.467  0.3233 -0.8932 -0.0275
  516MOL0     C67987  10.832   5.744   0.362 -0.4303 -0.3169  0.1668
  516MOL0     O67988  10.718   5.674   0.320 -0.0891 -0.3082 -0.5158
  516MOL0     C67989  10.595   5.742   0.321  0.1128  0.3851 -0.4924
  516MOL0     C67990  10.480   5.646   0.306 -0.3634 -0.0676 -0.3751
  516MOL0     C67991  10.347   5.714   0.282 -0.4714  0.7924  0.1235
  516MOL0     C67992  10.225   5.613   0.264  0.1700  0.0607 -0.5738
  516MOL0     C67993  10.087   5.679   0.281  0.1802  0.1628  0.8682
  516MOL0     C67994  10.039   5.754   0.163 -1.3076  0.6207 -0.1535
  516MOL0     C67995   9.905   5.819   0.176  0.0712  0.6613 -0.0286
  516MOL0     C67996   9.786   5.722   0.197 -0.1014  0.2637 -0.8177
  516MOL0     N67997   9.651   5.777   0.172 -0.3128 -0.3982  0.7224
  516MOL0     C67998   9.535   5.763   0.234 -0.4079 -0.7111 -1.0406
  516MOL0     C67999   9.447   5.818   0.157  0.5032  0.0743 -0.0554
  516MOL0     C68000   9.298   5.839   0.180 -0.2861 -0.4475 -0.0024
  516MOL0     C68001   9.203   5.811   0.063  0.7538 -0.9873  0.5194
  516MOL0     C68002   9.118   5.925   0.020  0.1404 -0.5083 -0.2978
  516MOL0     C68003   9.023   5.982   0.121 -0.9645 -0.4206 -0.3435
  516MOL0     O68004   8.934   5.872   0.159 -0.3227  0.3737 -0.0550
  516MOL0     C68005   8.800   5.895   0.130  0.4710  0.1249 -0.0137
  516MOL0     C68006   8.698   5.834   0.207  0.6389 -0.3047  0.0680
  516MOL0     C68007   8.560   5.839   0.169 -0.4310 -0.4699  0.4610
  516MOL0     C68008   8.524   5.910   0.054 -0.3992 -0.0576  0.3794
  516MOL0     C68009   8.381   5.914   0.013  0.0406  0.2339 -0.5229
  516MOL0     O68010   8.348   5.988  -0.102  0.5191 -0.1871  0.1588
  516MOL0     C68011   8.228   5.980  -0.171  0.1932  0.5377  0.3349
  516MOL0     C68012   8.223   6.000  -0.309 -0.0495  0.3216 -0.1331
  516MOL0     C68013   8.103   6.012  -0.374  0.5771 -0.2018  0.4835
  516MOL0     C68014   7.978   5.990  -0.315 -0.2343  0.0289  0.3371
  516MOL0     O68015   7.871   6.009  -0.398  0.4825  0.7383 -0.1217
  516MOL0     C68016   7.749   5.943  -0.352  0.0682  1.3363  0.2668
  516MOL0     C68017   7.657   6.034  -0.282 -0.2318  0.7818 -0.2196
  516MOL0     C68018   7.522   5.957  -0.279 -0.1923  0.7535 -0.3588
  516MOL0     C68019   7.418   6.027  -0.194 -0.4251  0.4203  0.0305
  516MOL0     C68020   7.301   5.940  -0.178 -0.2303  1.0502  1.1346
  516MOL0     C68021   7.202   5.996  -0.068  0.4526  0.4589 -0.1129
  516MOL0     C68022   7.069   5.927  -0.090 -0.0047 -0.7728  0.2102
  516MOL0     C68023   6.968   5.942   0.023  0.4894  0.3364  0.3549
  516MOL0    Cl68024   6.951   6.109   0.069 -0.2695  0.3876  0.4214
  516MOL0     C68025   7.980   5.978  -0.177 -0.5855 -0.2331 -0.4573
  516MOL0     C68026   8.101   5.969  -0.113  0.8794  0.4821 -0.6828
  516MOL0     O68027   8.303   5.836   0.068 -0.3993 -0.0945  0.7151
  516MOL0     C68028   8.627   5.973  -0.031  0.1814  0.2416 -0.3304
  516MOL0     C68029   8.761   5.960   0.010  0.4896 -0.3611 -0.1095
  516MOL0     N68030   9.501   5.866   0.037  0.7548 -0.4329  0.0186
  516MOL0     N68031   9.620   5.837   0.054  0.2341 -0.7797  0.1462
  516MOL0     C68032  10.860   5.880   0.327 -0.8614  0.6260 -0.0111
  516MOL0     C68033  10.957   5.958   0.385  0.1163 -1.1425  0.1154
  516MOL0     C68034  11.189   6.188   0.675 -0.4241 -0.0031 -0.4707
  516MOL0     C68035  11.162   6.292   0.763  0.9211 -0.2283  0.3149
  516MOL0     C68036  11.256   6.367   0.836  1.1293  0.7860  0.0699
  516MOL0     C68037  11.378   6.322   0.833 -0.5317 -0.0495  0.2691
  516MOL0     O68038  11.476   6.370   0.911 -0.6298  0.2261  0.8761
  516MOL0     C68039  11.456   6.471   1.009  0.4158 -0.0888  0.1571
  516MOL0     C68040  11.565   6.455   1.128 -0.0877 -0.7742  0.0755
  516MOL0     C68041  11.672   6.552   1.088 -0.3661  0.1231 -0.4598
  516MOL0     C68042  11.762   6.484   0.982  0.0969  0.5750 -0.1562
  516MOL0     C68043  11.866   6.582   0.959  0.4294 -0.6790  0.5814
  516MOL0     C68044  11.956   6.664   0.936  0.1878  0.4424 -0.5568
  516MOL0     C68045  11.421   6.218   0.740 -0.5906 -0.0213 -0.9110
  516MOL0     C68046  11.329   6.154   0.666  0.8181 -0.5270  0.2878
  516MOL0     H68047  11.066   5.733   0.615 -1.7022  5.3551  2.1303
  516MOL0     H68048  10.894   5.589   0.505  0.9120 -0.5522  1.2327
  516MOL0     H68049  10.586   5.821   0.245 -0.2424  1.6067  0.7759
  516MOL0     H68050  10.588   5.798   0.415  2.4943 -2.0421  1.2800
  516MOL0     H68051  10.481   5.593   0.402 -1.8464  1.9578  0.8496
  516MOL0     H68052  10.483   5.588   0.213 -0.9283 -1.6297  0.5303
  516MOL0     H68053  10.354   5.781   0.196 -1.7949 -1.7101 -2.0925
  516MOL0     H68054  10.324   5.777   0.369  3.0401 -0.6922  2.3523
  516MOL0     H68055  10.226   5.566   0.165 -0.1787  0.0885 -0.5928
  516MOL0     H68056  10.236   5.543   0.347  0.0019  2.4533  1.5774
  516MOL0     H68057  10.077   5.739   0.372  1.2117 -1.2240  1.9273
  516MOL0     H68058  10.015   5.599   0.301 -0.9389  0.4554 -1.6408
  516MOL0     H68059  10.051   5.687   0.078  0.4519  0.1975  0.3854
  516MOL0     H68060  10.111   5.833   0.138  0.7530 -0.6292  1.5224
  516MOL0     H68061   9.905   5.893   0.257  1.2706  0.6264  0.0141
  516MOL0     H68062   9.892   5.881   0.087  0.3828 -1.1944 -1.4283
  516MOL0     H68063   9.794   5.682   0.299  1.8734  1.2811 -0.5210
  516MOL0     H68064   9.802   5.637   0.131  3.8212  1.1875 -1.3134
  516MOL0     H68065   9.513   5.724   0.333 -2.8918 -2.4410 -2.1932
  516MOL0     H68066   9.292   5.948   0.195  0.9883 -0.2634 -0.6930
  516MOL0     H68067   9.277   5.788   0.274 -0.8801 -0.3737 -0.0911
  516MOL0     H68068   9.139   5.727   0.090  0.0227 -0.7340 -0.3755
  516MOL0     H68069   9.267   5.777  -0.019  2.1036 -1.3574  1.6901
  516MOL0     H68070   9.191   6.002  -0.008  1.6969 -2.1237 -0.9085
  516MOL0     H68071   9.058   5.902  -0.068 -0.6125 -0.7641  0.2691
  516MOL0     H68072   8.972   6.071   0.083 -0.2939 -0.5318 -1.5609
  516MOL0     H68073   9.078   5.996   0.214  0.9230 -1.1578 -1.3002
  516MOL0     H68074   8.719   5.785   0.302 -1.2674  0.1196  0.7503
  516MOL0     H68075   8.489   5.801   0.242 -0.4740  1.5123  1.5127
  516MOL0     H68076   8.313   6.018  -0.366 -1.6673 -0.1364 -3.0168
  516MOL0     H68077   8.100   6.029  -0.481  0.6400 -3.6962 -0.1817
  516MOL0     H68078   7.771   5.853  -0.294 -0.6931  0.0312 -1.3700
  516MOL0     H68079   7.692   5.916  -0.442 -2.5750  2.0177  1.6357
  516MOL0     H68080   7.645   6.126  -0.340  0.1022  2.5270  2.3318
  516MOL0     H68081   7.692   6.067  -0.184 -1.8542  0.1124  0.6280
  516MOL0     H68082   7.523   5.854  -0.242 -1.7476  0.4231 -1.1628
  516MOL0     H68083   7.479   5.939  -0.378 -2.1182  3.7746 -0.2211
  516MOL0     H68084   7.465   6.045  -0.097 -2.9149 -0.8719  1.5868
  516MOL0     H68085   7.383   6.126  -0.225 -0.0784  0.7864  0.7781
  516MOL0     H68086   7.335   5.841  -0.148 -0.6888  0.0712 -1.3497
  516MOL0     H68087   7.256   5.941  -0.277 -0.1796  2.3592  1.1124
  516MOL0     H68088   7.193   6.104  -0.084 -0.6670  0.2510 -1.0239
  516MOL0     H68089   7.245   5.980   0.032  1.4083  2.5920 -0.1209
  516MOL0     H68090   7.013   5.960  -0.178  0.0974 -0.4394  0.2699
  516MOL0     H68091   7.089   5.820  -0.091  3.7304 -0.2166 -0.1100
  516MOL0     H68092   7.008   5.883   0.106 -2.9720 -2.7797  0.0548
  516MOL0     H68093   6.866   5.906   0.008  0.1779  0.3504  2.2304
  516MOL0     H68094   7.898   5.979  -0.107  0.7889 -0.5387  1.2330
  516MOL0     H68095   8.092   5.955  -0.006 -2.7962 -0.2261 -0.9387
  516MOL0     H68096   8.609   6.012  -0.131 -2.2090 -3.4577 -1.5814
  516MOL0     H68097   8.825   5.981  -0.076  1.8690 -1.7003  0.5433
  516MOL0     H68098  10.798   5.927   0.251 -2.8167 -0.2898  0.9447
  516MOL0     H68099  10.975   6.060   0.353 -0.7417 -0.8746  0.4584
  516MOL0     H68100  11.056   6.317   0.759  0.3138 -2.6277  0.0627
  516MOL0     H68101  11.229   6.450   0.900 -0.7488  1.2483 -1.2123
  516MOL0     H68102  11.358   6.448   1.050 -0.6170 -0.9692 -2.5492
  516MOL0     H68103  11.456   6.574   0.971 -0.0448 -0.3928 -0.7123
  516MOL0     H68104  11.521   6.488   1.223  0.2217  2.6956 -0.8494
  516MOL0     H68105  11.596   6.351   1.128 -0.4510 -1.0642 -4.1767
  516MOL0     H68106  11.731   6.573   1.178  0.4285 -3.3422 -0.0414
  516MOL0     H68107  11.634   6.645   1.046 -0.4096 -0.3883 -1.6098
  516MOL0     H68108  11.812   6.401   1.034  0.0300  1.4774  1.4122
  516MOL0     H68109  11.709   6.453   0.892 -3.0095  0.5761  1.5570
  516MOL0     H68110  12.033   6.737   0.921  0.8796 -0.2361 -0.3963
  516MOL0     H68111  11.520   6.174   0.743 -0.4308  0.2163 -2.2562
  516MOL0     H68112  11.358   6.072   0.602  2.7549  0.5387 -0.2603
  517MOL0     O68113   0.664   4.801   3.099 -0.1023 -0.1359  0.0111
  517MOL0     C68114   0.679   4.903   3.025  0.1153  0.0267  0.0437
  517MOL0     O68115   0.586   4.945   2.927  0.1750  0.8860 -0.1450
  517MOL0     C68116   0.450   4.918   2.935 -0.0149  1.2278 -0.2358
  517MOL0     C68117   0.391   4.790   2.957 -0.6855  0.1936  0.1299
  517MOL0     C68118   0.253   4.772   2.957  0.5512  0.5111 -0.1163
  517MOL0     C68119   0.170   4.886   2.934 -0.2947  0.3521  0.1708
  517MOL0     O68120   0.037   4.878   2.944  0.2249  0.0092 -0.2580
  517MOL0     C68121  -0.029   4.770   3.007  0.8648 -0.8695  0.7845
  517MOL0     C68122  -0.171   4.788   2.976  0.0057  0.3885 -0.7434
  517MOL0     C68123  -0.274   4.689   3.042  0.2110 -0.3615 -0.2199
  517MOL0     C68124  -0.235   4.543   3.016 -0.3286 -0.0868 -0.1930
  517MOL0     C68125  -0.374   4.473   3.053 -0.8012 -0.0045 -0.6937
  517MOL0     C68126  -0.477   4.473   2.946  0.1516  0.2113 -0.5796
  517MOL0     C68127  -0.570   4.349   2.968  0.9580 -0.9182  1.2270
  517MOL0     C68128  -0.669   4.372   3.086 -0.7228 -0.1012 -0.6891
  517MOL0     N68129  -0.724   4.244   3.139 -0.2025  0.1852  0.3602
  517MOL0     C68130  -0.832   4.250   3.225  0.0828  0.6532 -0.3528
  517MOL0     C68131  -0.891   4.131   3.224 -0.0853  0.1137 -0.4419
  517MOL0     C68132  -1.014   4.101   3.318 -0.3638 -0.6010  1.4469
  517MOL0     C68133  -1.140   4.104   3.224 -0.5812 -0.0139 -0.3971
  517MOL0     C68134  -1.132   3.983   3.125  0.4141  0.2767  0.0482
  517MOL0     C68135  -1.257   3.977   3.031 -0.0049  0.8400 -0.0760
  517MOL0     O68136  -1.379   3.945   3.103  0.1309 -0.0410 -0.0415
  517MOL0     C68137  -1.458   3.853   3.043  0.0737 -0.1469 -0.6601
  517MOL0     C68138  -1.450   3.716   3.098 -0.1116 -0.5460 -0.0728
  517MOL0     C68139  -1.536   3.624   3.041 -0.0879 -0.7365 -1.0241
  517MOL0     C68140  -1.630   3.662   2.943  0.4296 -0.0590  0.0692
  517MOL0     C68141  -1.724   3.557   2.888  0.5164  0.1459 -0.7691
  517MOL0     O68142  -1.818   3.600   2.794 -0.0497 -0.3101 -0.2125
  517MOL0     C68143  -1.903   3.517   2.728  0.1847  1.2510  0.6091
  517MOL0     C68144  -2.009   3.582   2.665  0.2855 -0.3197 -0.3386
  517MOL0     C68145  -2.117   3.521   2.593 -0.2503  0.8792  0.6472
  517MOL0     C68146  -2.108   3.380   2.581  0.5251 -0.4082  0.8478
  517MOL0     O68147  -2.216   3.317   2.529  0.4380  0.3079 -0.2435
  517MOL0     C68148  -2.248   3.187   2.580  0.6805  0.2321  0.2684
  517MOL0     C68149  -2.398   3.160   2.560 -0.0633 -0.2336  0.1955
  517MOL0     C68150  -2.426   3.132   2.411  0.5365 -0.2838  0.0060
  517MOL0     C68151  -2.581   3.116   2.401  0.3436  0.2262 -0.2128
  517MOL0     C68152  -2.657   3.248   2.414 -0.2369 -0.1035  0.1882
  517MOL0     C68153  -2.804   3.225   2.363 -0.2459 -0.0165 -1.0123
  517MOL0     C68154  -2.910   3.322   2.424  0.5180  0.4124 -0.0132
  517MOL0     C68155  -3.053   3.285   2.401  0.0765  0.4816 -0.6208
  517MOL0    Cl68156  -3.089   3.293   2.233  0.2206 -0.0961  0.1671
  517MOL0     C68157  -1.994   3.307   2.629 -0.8298 -0.4879  0.3515
  517MOL0     C68158  -1.892   3.381   2.696 -0.4405 -0.3526  0.4205
  517MOL0     O68159  -1.706   3.444   2.928 -0.4894  0.0643 -0.0887
  517MOL0     C68160  -1.632   3.792   2.893  0.3499 -0.3972  0.2223
  517MOL0     C68161  -1.546   3.894   2.937  0.3222 -0.0032 -0.9728
  517MOL0     N68162  -0.829   4.051   3.133 -0.6440  0.0022  0.1522
  517MOL0     N68163  -0.726   4.117   3.087  0.3836 -0.0612 -0.0010
  517MOL0     C68164   0.226   5.015   2.912  0.8651  0.1687 -0.6042
  517MOL0     C68165   0.363   5.023   2.905  0.7430  0.0980  0.7073
  517MOL0     C68166   0.808   4.979   3.033 -0.6834  0.1563 -0.3479
  517MOL0     C68167   0.822   5.105   2.968 -0.0184  0.8034 -0.0336
  517MOL0     C68168   0.946   5.182   2.987  0.7958  0.6257  0.1130
  517MOL0     C68169   1.046   5.132   3.065 -0.6343  0.8075  0.1052
  517MOL0     O68170   1.166   5.195   3.088  0.4382  0.0086 -0.0538
  517MOL0     C68171   1.200   5.303   2.991 -0.4797 -0.1450  0.5469
  517MOL0     C68172   1.335   5.367   3.034  0.4581  0.1076 -0.7070
  517MOL0     C68173   1.325   5.442   3.167 -0.0816 -0.0892  0.0621
  517MOL0     C68174   1.453   5.532   3.188  0.4449 -0.5397 -1.0189
  517MOL0     C68175   1.448   5.649   3.098  0.9599 -0.2264  0.7827
  517MOL0     C68176   1.457   5.748   3.025  0.1618  0.5920  0.5861
  517MOL0     C68177   1.044   5.009   3.122 -0.1164  1.0051  0.7048
  517MOL0     C68178   0.921   4.929   3.107 -0.1877  0.5412 -0.8256
  517MOL0     H68179   0.462   4.708   2.967 -1.2925 -0.5108 -1.0245
  517MOL0     H68180   0.208   4.675   2.971 -0.1197  0.4290 -2.4517
  517MOL0     H68181  -0.008   4.784   3.114  1.0002 -0.3697  0.6947
  517MOL0     H68182  -0.017   4.666   2.974 -1.3071 -0.5981 -1.1026
  517MOL0     H68183  -0.183   4.778   2.867 -1.4250 -1.9906 -0.4374
  517MOL0     H68184  -0.205   4.890   2.996  1.3031  1.0468 -1.7063
  517MOL0     H68185  -0.365   4.707   2.984  2.2842  1.2999 -3.2826
  517MOL0     H68186  -0.281   4.709   3.149 -0.1651 -0.3832 -0.2414
  517MOL0     H68187  -0.207   4.524   2.912  1.3847  0.3129  0.1733
  517MOL0     H68188  -0.149   4.512   3.075 -0.0461  1.7039  0.3802
  517MOL0     H68189  -0.424   4.518   3.140 -2.5054  1.5049 -2.3629
  517MOL0     H68190  -0.342   4.371   3.077  2.0421  0.9729  0.0810
  517MOL0     H68191  -0.431   4.473   2.847 -0.6453 -0.1842 -0.9645
  517MOL0     H68192  -0.544   4.559   2.953 -0.0511 -0.0420  0.9821
  517MOL0     H68193  -0.635   4.326   2.884  0.2088  2.1135  0.8919
  517MOL0     H68194  -0.506   4.260   2.976  1.9499 -0.5169 -1.3965
  517MOL0     H68195  -0.745   4.433   3.037 -0.9511 -1.8544 -2.6606
  517MOL0     H68196  -0.624   4.429   3.168 -3.0289  3.4935 -1.7120
  517MOL0     H68197  -0.856   4.341   3.279  1.8730  0.1451  1.4012
  517MOL0     H68198  -1.009   4.181   3.392 -0.5970  2.9252 -2.0426
  517MOL0     H68199  -1.002   4.006   3.371 -1.6949 -0.5188  1.9301
  517MOL0     H68200  -1.122   4.193   3.163  2.2457 -0.9582 -1.1029
  517MOL0     H68201  -1.234   4.105   3.280 -1.0956  2.8112 -1.1602
  517MOL0     H68202  -1.041   3.992   3.065 -0.1202  1.8236 -0.5779
  517MOL0     H68203  -1.145   3.889   3.179 -1.8080  2.2061  3.2799
  517MOL0     H68204  -1.234   3.902   2.955  0.8868  0.3836  0.6239
  517MOL0     H68205  -1.257   4.074   2.981  1.4717  0.8552 -0.0950
  517MOL0     H68206  -1.395   3.684   3.186  0.6414  3.1129  0.9663
  517MOL0     H68207  -1.537   3.528   3.091 -1.8906 -0.4991 -0.5236
  517MOL0     H68208  -2.028   3.687   2.688  0.3745 -0.1089 -1.2145
  517MOL0     H68209  -2.203   3.580   2.565 -1.2883 -0.4548  0.9138
  517MOL0     H68210  -2.220   3.167   2.684  2.0049  2.8454  0.5019
  517MOL0     H68211  -2.191   3.112   2.524  0.5670  0.8736 -0.7330
  517MOL0     H68212  -2.441   3.257   2.587 -2.2675 -1.0009 -0.3569
  517MOL0     H68213  -2.432   3.075   2.621 -0.4957  1.5165  2.5238
  517MOL0     H68214  -2.383   3.036   2.383  0.3545 -0.4196  0.1898
  517MOL0     H68215  -2.392   3.201   2.333 -0.4924 -1.7238 -1.7868
  517MOL0     H68216  -2.613   3.066   2.309 -1.2535  0.8214 -0.0029
  517MOL0     H68217  -2.618   3.059   2.487 -0.8518  1.4335  0.1021
  517MOL0     H68218  -2.616   3.326   2.349 -2.0472  1.1140  0.4026
  517MOL0     H68219  -2.664   3.283   2.518 -0.3765  0.3891  0.0179
  517MOL0     H68220  -2.832   3.121   2.387 -1.2949  0.1766 -1.3542
  517MOL0     H68221  -2.801   3.238   2.255  0.9389 -2.0102 -1.2731
  517MOL0     H68222  -2.900   3.317   2.533 -2.8858  0.2391  0.4061
  517MOL0     H68223  -2.897   3.424   2.385  0.2121  2.1317  3.9002
  517MOL0     H68224  -3.125   3.345   2.458 -1.8463 -2.1456 -0.1205
  517MOL0     H68225  -3.065   3.180   2.429 -1.0222  1.4702  3.1676
  517MOL0     H68226  -1.977   3.200   2.625 -0.5639 -0.4522  0.5366
  517MOL0     H68227  -1.805   3.331   2.737 -0.4415  1.3225  2.6588
  517MOL0     H68228  -1.700   3.815   2.810  1.9468  5.4210  0.0747
  517MOL0     H68229  -1.549   3.996   2.902 -1.2851  0.5436  0.5598
  517MOL0     H68230   0.164   5.104   2.912 -1.4312 -1.2305 -3.7846
  517MOL0     H68231   0.422   5.110   2.877  2.7177 -2.1596 -3.0667
  517MOL0     H68232   0.743   5.158   2.917  0.3787  0.9956 -0.4497
  517MOL0     H68233   0.947   5.284   2.949  1.1193  0.6451  0.1707
  517MOL0     H68234   1.131   5.387   2.975  0.9468  0.7182 -1.5276
  517MOL0     H68235   1.224   5.260   2.893  1.2405 -1.8574  1.6543
  517MOL0     H68236   1.410   5.289   3.047  0.2274 -0.0141 -0.0281
  517MOL0     H68237   1.364   5.441   2.959  1.2094  0.2065 -0.3273
  517MOL0     H68238   1.326   5.362   3.241 -2.4734 -0.1680  0.0901
  517MOL0     H68239   1.233   5.500   3.176  0.5418  0.8801  0.3504
  517MOL0     H68240   1.445   5.576   3.288  0.7101  1.9570 -2.0369
  517MOL0     H68241   1.549   5.480   3.187 -0.2017 -1.8450  0.3674
  517MOL0     H68242   1.490   5.833   2.969  2.4995 -0.4259  0.3277
  517MOL0     H68243   1.125   4.976   3.185 -0.4609  3.0354  2.3149
  517MOL0     H68244   0.910   4.831   3.152  1.4629  0.1168 -1.2615
  518MOL0     O68245   0.147   5.364   1.566  0.3994 -0.3464 -0.2315
  518MOL0     C68246   0.211   5.293   1.497  0.7627 -0.2165  0.5611
  518MOL0     O68247   0.161   5.209   1.401 -0.2684  0.1354  0.1586
  518MOL0     C68248   0.024   5.197   1.368  0.0945 -0.1241 -0.1788
  518MOL0     C68249  -0.008   5.207   1.234 -0.0090  0.5940  0.0337
  518MOL0     C68250  -0.141   5.213   1.189 -0.1772  0.5783  0.2334
  518MOL0     C68251  -0.242   5.195   1.286 -0.1858 -0.4995  0.3938
  518MOL0     O68252  -0.375   5.176   1.249  0.8505 -0.1506  0.2540
  518MOL0     C68253  -0.437   5.239   1.130 -0.3397  0.1229  0.0471
  518MOL0     C68254  -0.592   5.210   1.127  0.7789  0.5930 -1.2102
  518MOL0     C68255  -0.664   5.288   1.242  0.1315  0.2119 -0.1070
  518MOL0     C68256  -0.805   5.248   1.260  0.5999 -0.3419 -0.4817
  518MOL0     C68257  -0.876   5.220   1.135  0.8431 -0.1348 -0.6060
  518MOL0     C68258  -1.032   5.214   1.156  0.6767 -0.3524 -0.4953
  518MOL0     C68259  -1.101   5.192   1.029  0.3005 -0.4093 -0.6111
  518MOL0     C68260  -1.258   5.174   1.054 -0.5657  1.0699  0.5158
  518MOL0     N68261  -1.321   5.148   0.925 -0.0274 -0.1521 -0.2076
  518MOL0     C68262  -1.425   5.054   0.905  0.2001 -0.6487 -0.6774
  518MOL0     C68263  -1.481   5.081   0.780  0.5466 -0.3725  0.1798
  518MOL0     C68264  -1.590   5.009   0.698  0.1175  0.1784 -0.0894
  518MOL0     C68265  -1.718   5.098   0.679 -0.0353  0.0603 -0.2420
  518MOL0     C68266  -1.836   5.016   0.639  0.1605 -0.1317  0.6678
  518MOL0     C68267  -1.963   5.099   0.617  0.5220  0.0839 -0.3530
  518MOL0     O68268  -2.072   5.013   0.635 -0.0586 -0.1096  0.0140
  518MOL0     C68269  -2.194   5.075   0.638 -0.3766  0.0952  0.3246
  518MOL0     C68270  -2.310   4.994   0.626 -0.6432 -0.0920 -0.2795
  518MOL0     C68271  -2.437   5.040   0.645  0.2796  0.3808  0.2679
  518MOL0     C68272  -2.457   5.177   0.679  0.4443  0.4123  0.7069
  518MOL0     C68273  -2.590   5.222   0.710  0.4758  0.0735 -0.6085
  518MOL0     O68274  -2.686   5.128   0.741 -0.4711 -0.8882  0.1550
  518MOL0     C68275  -2.803   5.166   0.807 -0.0878 -0.5973  0.1986
  518MOL0     C68276  -2.930   5.129   0.768 -0.0927  0.6894  0.7751
  518MOL0     C68277  -3.048   5.156   0.833 -0.0843  0.3790 -1.1234
  518MOL0     C68278  -3.044   5.229   0.953 -0.2280 -0.2733  0.1509
  518MOL0     O68279  -3.170   5.257   1.019 -0.3672 -0.6772  0.0739
  518MOL0     C68280  -3.159   5.319   1.151 -0.8134 -0.1796 -0.4496
  518MOL0     C68281  -3.298   5.350   1.204 -0.1751  0.0514 -0.0626
  518MOL0     C68282  -3.311   5.382   1.348 -0.4430 -0.0992  0.0573
  518MOL0     C68283  -3.442   5.453   1.388  0.1223 -0.2824  1.0507
  518MOL0     C68284  -3.446   5.519   1.531 -0.0637 -0.1273  0.5789
  518MOL0     C68285  -3.589   5.523   1.577  0.1450 -0.2214  0.3351
  518MOL0     C68286  -3.592   5.606   1.703  1.0822  0.5566  0.3017
  518MOL0     C68287  -3.728   5.577   1.765  0.8022  0.3522 -0.0949
  518MOL0    Cl68288  -3.858   5.679   1.677  0.1275  0.1255  0.1094
  518MOL0     C68289  -2.919   5.271   0.995 -0.0952 -0.4928 -0.0136
  518MOL0     C68290  -2.794   5.238   0.928  0.0874  0.2496 -0.3276
  518MOL0     O68291  -2.608   5.345   0.711  0.0142 -0.4517  0.1435
  518MOL0     C68292  -2.344   5.263   0.680  0.2513 -0.6214  0.2639
  518MOL0     C68293  -2.212   5.214   0.657  0.2093  0.1284 -0.1458
  518MOL0     N68294  -1.402   5.191   0.730 -0.2382 -0.0305  0.3755
  518MOL0     N68295  -1.314   5.230   0.813 -1.1965  0.3297  0.3924
  518MOL0     C68296  -0.210   5.168   1.418 -0.4891 -0.6418  0.4445
  518MOL0     C68297  -0.080   5.184   1.466  0.8321  0.2492  0.0737
  518MOL0     C68298   0.356   5.297   1.515  1.3738 -0.4352 -0.2181
  518MOL0     C68299   0.444   5.265   1.412  0.3440  0.1150  0.0068
  518MOL0     C68300   0.587   5.255   1.429  0.1395  0.3819  0.1821
  518MOL0     C68301   0.636   5.286   1.558  0.8575 -0.0574  0.0151
  518MOL0     O68302   0.770   5.290   1.578 -0.2225  0.0793 -0.1000
  518MOL0     C68303   0.863   5.256   1.479 -0.3064  0.6459 -0.1201
  518MOL0     C68304   0.991   5.213   1.551 -0.0749  0.0143 -0.6561
  518MOL0     C68305   1.090   5.325   1.578 -0.9166 -0.9773  0.5299
  518MOL0     C68306   1.033   5.438   1.662 -0.1678 -0.2505  0.4759
  518MOL0     C68307   1.134   5.541   1.687 -0.1508  0.5776 -0.5402
  518MOL0     C68308   1.234   5.610   1.716 -0.1012  0.0148 -0.5427
  518MOL0     C68309   0.546   5.312   1.659 -0.4946  0.6446 -0.0042
  518MOL0     C68310   0.410   5.315   1.638 -0.3548  0.4916 -0.7266
  518MOL0     H68311   0.077   5.223   1.168 -0.1839  0.9229 -0.1175
  518MOL0     H68312  -0.168   5.247   1.089 -1.1435  0.2333  0.3650
  518MOL0     H68313  -0.390   5.207   1.037 -0.9160 -0.6113 -0.0083
  518MOL0     H68314  -0.433   5.348   1.137 -5.5999  0.9487 -3.5557
  518MOL0     H68315  -0.600   5.102   1.142 -1.9122  0.8104 -0.6863
  518MOL0     H68316  -0.637   5.218   1.028 -3.8795 -2.4894  0.3103
  518MOL0     H68317  -0.657   5.393   1.212  1.1711 -0.0853 -0.9394
  518MOL0     H68318  -0.607   5.273   1.334  1.9787 -0.8679 -1.3620
  518MOL0     H68319  -0.812   5.157   1.321 -0.2616 -0.8168 -1.2629
  518MOL0     H68320  -0.859   5.322   1.320 -0.0092 -1.7481  0.7918
  518MOL0     H68321  -0.841   5.129   1.086  1.5960  0.8177 -1.9049
  518MOL0     H68322  -0.864   5.291   1.053 -0.1883 -1.7952 -2.2824
  518MOL0     H68323  -1.067   5.305   1.206 -0.0755 -1.1447  0.4575
  518MOL0     H68324  -1.052   5.132   1.225  1.5161  1.5545  2.1945
  518MOL0     H68325  -1.093   5.273   0.956  1.6384 -2.2518 -2.6607
  518MOL0     H68326  -1.065   5.103   0.977  0.2136 -0.7643 -0.0773
  518MOL0     H68327  -1.310   5.259   1.099 -3.8570 -0.9041  0.7596
  518MOL0     H68328  -1.279   5.095   1.127  0.7332  0.9222  0.7444
  518MOL0     H68329  -1.445   4.975   0.977  1.6135 -0.9286 -0.5633
  518MOL0     H68330  -1.619   4.919   0.753  1.3506 -0.8246 -1.0060
  518MOL0     H68331  -1.541   4.970   0.608  1.6349  3.2104 -0.7256
  518MOL0     H68332  -1.693   5.176   0.607 -3.8572  0.1219 -1.7860
  518MOL0     H68333  -1.741   5.150   0.773  3.0950 -1.3824  1.4825
  518MOL0     H68334  -1.808   4.979   0.541  1.9575  1.6168  0.4622
  518MOL0     H68335  -1.854   4.941   0.716  2.0302 -1.1403  0.1601
  518MOL0     H68336  -1.974   5.153   0.523  0.3990  1.0040  0.1738
  518MOL0     H68337  -1.959   5.183   0.688  0.6039 -1.3884  1.4648
  518MOL0     H68338  -2.289   4.888   0.617  1.6476 -0.1113  3.5110
  518MOL0     H68339  -2.519   4.970   0.633  0.0573  0.4401  1.3653
  518MOL0     H68340  -2.939   5.061   0.684  1.0885  1.6932 -0.1937
  518MOL0     H68341  -3.137   5.111   0.790 -0.8513  0.5993  0.1701
  518MOL0     H68342  -3.099   5.410   1.156 -2.8278  1.5220 -3.6074
  518MOL0     H68343  -3.115   5.252   1.226 -0.0528  2.1613  1.3205
  518MOL0     H68344  -3.367   5.266   1.193 -0.5139 -0.0938  2.4589
  518MOL0     H68345  -3.336   5.435   1.146  0.4918  0.3572 -0.0673
  518MOL0     H68346  -3.222   5.436   1.383 -1.4463 -0.6880  3.8707
  518MOL0     H68347  -3.306   5.284   1.394  1.8403  0.4089  1.0539
  518MOL0     H68348  -3.457   5.522   1.304  0.2745 -0.7976  0.5964
  518MOL0     H68349  -3.520   5.377   1.384  0.8582 -1.0354  0.7030
  518MOL0     H68350  -3.400   5.618   1.535  2.6639 -1.3483  1.7855
  518MOL0     H68351  -3.383   5.473   1.608  1.2932 -2.0373 -1.5719
  518MOL0     H68352  -3.621   5.420   1.588 -1.5350  0.4397  2.1608
  518MOL0     H68353  -3.639   5.574   1.494  3.9288  2.2588 -0.7261
  518MOL0     H68354  -3.515   5.570   1.772  0.2466 -0.5304  0.6916
  518MOL0     H68355  -3.578   5.712   1.681 -1.0662  0.8957  0.3052
  518MOL0     H68356  -3.723   5.612   1.869  0.8578 -0.4546  0.1765
  518MOL0     H68357  -3.741   5.469   1.768 -3.3557  0.6212 -1.6396
  518MOL0     H68358  -2.923   5.332   1.085 -1.3754  0.0820 -0.4349
  518MOL0     H68359  -2.695   5.265   0.961  0.7712 -2.9138  0.6042
  518MOL0     H68360  -2.350   5.371   0.691  2.1386 -0.1714 -2.0759
  518MOL0     H68361  -2.143   5.297   0.661 -0.3972  0.7556 -1.7238
  518MOL0     H68362  -0.302   5.156   1.474 -1.1371 -1.8858 -0.8361
  518MOL0     H68363  -0.053   5.184   1.571  1.2855 -1.9320 -0.0072
  518MOL0     H68364   0.401   5.235   1.317  0.0311  1.1484 -0.1901
  518MOL0     H68365   0.641   5.237   1.337 -0.9076 -0.0476 -0.3661
  518MOL0     H68366   0.886   5.340   1.413  1.0155 -0.7331 -1.5178
  518MOL0     H68367   0.834   5.163   1.429 -2.0425  1.0400  0.0698
  518MOL0     H68368   0.957   5.171   1.646 -2.8615 -1.9174 -2.3489
  518MOL0     H68369   1.037   5.127   1.502 -0.7189 -0.7429  0.0291
  518MOL0     H68370   1.114   5.371   1.481  1.0310  0.4880  1.6150
  518MOL0     H68371   1.181   5.280   1.619 -0.1718 -0.1346 -0.1570
  518MOL0     H68372   0.945   5.484   1.617  0.7001 -0.5237 -1.6334
  518MOL0     H68373   0.998   5.405   1.760  3.1074  0.7407  2.1391
  518MOL0     H68374   1.318   5.676   1.734 -2.7102  3.0177  1.8180
  518MOL0     H68375   0.590   5.337   1.754 -1.2997  2.1428 -0.0012
  518MOL0     H68376   0.351   5.338   1.727 -1.9099  2.1987 -2.1150
  519MOL0     O68377   6.120   8.515   1.867  0.3179 -0.4476 -0.3449
  519MOL0     C68378   6.198   8.424   1.890 -0.3129  0.1066  0.8684
  519MOL0     O68379   6.315   8.429   1.963 -0.1268 -0.0972  1.3080
  519MOL0     C68380   6.320   8.534   2.052  0.1178  0.2478 -0.6644
  519MOL0     C68381   6.393   8.653   2.035  0.3317  0.5088 -0.1470
  519MOL0     C68382   6.390   8.758   2.125  0.9071  0.4312 -0.9604
  519MOL0     C68383   6.314   8.753   2.241  0.4353  0.3749  0.7423
  519MOL0     O68384   6.303   8.850   2.332 -0.1030 -0.0326 -0.7285
  519MOL0     C68385   6.373   8.975   2.324  0.1678 -0.3463 -0.0577
  519MOL0     C68386   6.332   9.065   2.440  0.7703 -0.2099 -0.3822
  519MOL0     C68387   6.182   9.103   2.446 -0.1259 -0.7169 -0.4124
  519MOL0     C68388   6.158   9.215   2.546  0.3958 -0.2728 -0.0026
  519MOL0     C68389   6.013   9.249   2.554 -0.0557 -0.2435 -0.4533
  519MOL0     C68390   5.959   9.307   2.417  0.8761 -0.3302 -0.3675
  519MOL0     C68391   5.821   9.370   2.428  0.7917  0.5086 -0.2287
  519MOL0     C68392   5.780   9.415   2.290  0.7401  0.0988  0.1490
  519MOL0     N68393   5.637   9.449   2.279 -0.2481 -0.2219 -0.0776
  519MOL0     C68394   5.582   9.575   2.254 -0.7001  0.5450  0.1419
  519MOL0     C68395   5.455   9.554   2.254 -0.3382  1.0794  0.4259
  519MOL0     C68396   5.338   9.655   2.226  0.3675  0.0071  0.0601
  519MOL0     C68397   5.251   9.677   2.352  0.0270  0.5874  0.4929
  519MOL0     C68398   5.148   9.791   2.339 -0.9133 -0.0833 -0.0253
  519MOL0     C68399   5.055   9.782   2.458  0.2267  0.9603 -0.0939
  519MOL0     O68400   4.958   9.889   2.438  0.1062 -0.8128 -0.7744
  519MOL0     C68401   4.856   9.905   2.522  0.1050 -0.0413  0.8739
  519MOL0     C68402   4.851   9.840   2.650  0.1490 -0.1921  0.4866
  519MOL0     C68403   4.732   9.851   2.719 -0.3434 -0.3868  0.0680
  519MOL0     C68404   4.624   9.928   2.675  0.5992  0.6834 -0.7579
  519MOL0     C68405   4.497   9.945   2.755  0.4783  0.1673 -0.3002
  519MOL0     O68406   4.392   9.991   2.688  0.5015  0.0093  0.1245
  519MOL0     C68407   4.265  10.009   2.740  0.2717 -0.4527  0.2108
  519MOL0     C68408   4.179  10.088   2.664  0.2211 -0.5698  0.2722
  519MOL0     C68409   4.044  10.115   2.695 -0.4839  0.0488 -0.1156
  519MOL0     C68410   3.995  10.065   2.820  0.4603 -0.0456 -0.6962
  519MOL0     O68411   3.861  10.080   2.858  0.1266 -0.1140 -0.0626
  519MOL0     C68412   3.811  10.213   2.871 -0.0976  0.1090  0.2214
  519MOL0     C68413   3.661  10.196   2.912 -0.2677 -0.3633  0.4641
  519MOL0     C68414   3.636  10.117   3.039  0.3572 -0.8087  0.3340
  519MOL0     C68415   3.497  10.079   3.053  0.1434  0.4391  0.5818
  519MOL0     C68416   3.466   9.979   3.162 -0.2491  0.5217 -0.4842
  519MOL0     C68417   3.332   9.921   3.133  0.7137  0.6001 -0.1096
  519MOL0     C68418   3.273   9.818   3.237 -0.6682 -0.1093  0.1097
  519MOL0     C68419   3.146   9.751   3.190 -0.1877 -0.5820  0.1447
  519MOL0    Cl68420   3.022   9.871   3.150  0.0133 -0.2965  0.0525
  519MOL0     C68421   4.084   9.995   2.904  0.8048  0.0639 -0.1389
  519MOL0     C68422   4.208   9.965   2.858  0.5875  0.1451 -0.2179
  519MOL0     O68423   4.497   9.914   2.875  0.3401 -0.1670 -0.5075
  519MOL0     C68424   4.631   9.999   2.555 -0.2199 -0.6204  0.0442
  519MOL0     C68425   4.750   9.983   2.472  0.3028 -0.0698 -0.9166
  519MOL0     N68426   5.431   9.414   2.282  0.1510 -0.1156  0.3495
  519MOL0     N68427   5.543   9.360   2.301  0.0232 -0.5033  0.3204
  519MOL0     C68428   6.246   8.626   2.263  0.1006 -1.4138 -1.1027
  519MOL0     C68429   6.241   8.521   2.167 -0.0570 -0.5238  0.1121
  519MOL0     C68430   6.162   8.288   1.843 -0.6154  0.0024  0.7392
  519MOL0     C68431   6.042   8.261   1.774 -0.7679  0.2757  0.6231
  519MOL0     C68432   6.010   8.132   1.735 -0.9683 -0.3435 -0.8667
  519MOL0     C68433   6.098   8.021   1.755  0.3463  0.0253  0.4369
  519MOL0     O68434   6.061   7.895   1.727 -0.4390  0.9026 -0.2225
  519MOL0     C68435   6.157   7.784   1.720  0.7719 -0.7194 -0.7088
  519MOL0     C68436   6.176   7.730   1.867 -0.1953  0.2166  0.0317
  519MOL0     C68437   6.042   7.674   1.919 -0.5756  0.2368  0.2147
  519MOL0     C68438   6.064   7.603   2.054 -0.5192  0.6942 -0.2511
  519MOL0     C68439   6.114   7.465   2.035  0.3244 -0.6848 -0.4493
  519MOL0     C68440   6.145   7.354   2.016 -0.7666 -0.2074  0.4089
  519MOL0     C68441   6.233   8.056   1.791  0.5408  0.5088 -0.3427
  519MOL0     C68442   6.261   8.189   1.835  0.0863  0.2427  0.7078
  519MOL0     H68443   6.451   8.674   1.946  5.2601  1.1393  2.8044
  519MOL0     H68444   6.438   8.851   2.095  2.3837  0.4822  1.3405
  519MOL0     H68445   6.342   9.014   2.226 -1.4635 -1.6890 -0.1263
  519MOL0     H68446   6.482   8.960   2.330  0.2167  0.3578  1.2147
  519MOL0     H68447   6.388   9.158   2.427  1.0103 -0.3446 -0.3122
  519MOL0     H68448   6.361   9.027   2.537 -2.0369  0.8994  1.0219
  519MOL0     H68449   6.126   9.012   2.467 -0.7183  0.0095  1.3053
  519MOL0     H68450   6.159   9.138   2.345 -0.2736 -0.1637 -0.1907
  519MOL0     H68451   6.193   9.183   2.644  2.5444  1.4920 -0.1184
  519MOL0     H68452   6.211   9.308   2.527 -0.4477  0.4165  0.9506
  519MOL0     H68453   6.002   9.320   2.636  1.4443 -0.9248  0.3800
  519MOL0     H68454   5.954   9.158   2.568 -0.8789  0.6471  2.4190
  519MOL0     H68455   5.945   9.218   2.356 -1.7630  0.1182 -0.5160
  519MOL0     H68456   6.026   9.390   2.392 -2.0829  2.9460  1.5518
  519MOL0     H68457   5.751   9.294   2.463  0.9357 -0.2105 -1.4680
  519MOL0     H68458   5.827   9.451   2.502  2.7963  1.1026 -0.9699
  519MOL0     H68459   5.796   9.337   2.215  0.2196  0.1378 -0.0063
  519MOL0     H68460   5.841   9.504   2.270  0.0545  1.0648  2.0683
  519MOL0     H68461   5.632   9.671   2.250  0.0399  0.1361 -2.1448
  519MOL0     H68462   5.280   9.615   2.143 -1.5292 -3.6665  2.8509
  519MOL0     H68463   5.378   9.754   2.200 -2.2765  2.1233  3.2308
  519MOL0     H68464   5.319   9.689   2.437  2.8977 -0.5661 -1.4778
  519MOL0     H68465   5.200   9.583   2.376  0.2015  0.0021 -1.3247
  519MOL0     H68466   5.191   9.892   2.341 -1.3345  0.1078 -0.3605
  519MOL0     H68467   5.093   9.777   2.246  0.2763  1.2216 -0.9693
  519MOL0     H68468   5.106   9.806   2.552 -0.8594 -0.6992  0.9706
  519MOL0     H68469   5.007   9.684   2.460 -0.7979  1.4103 -1.1664
  519MOL0     H68470   4.939   9.789   2.686  1.0504  1.9343  1.4422
  519MOL0     H68471   4.729   9.798   2.813 -1.6631  0.7050  0.6647
  519MOL0     H68472   4.227  10.111   2.568  0.7426  1.2811  0.9291
  519MOL0     H68473   3.979  10.167   2.625 -2.8559 -1.3947  0.8836
  519MOL0     H68474   3.826  10.259   2.773  3.8590 -0.7272  0.2707
  519MOL0     H68475   3.870  10.272   2.941  0.5157  2.2005 -1.9348
  519MOL0     H68476   3.595  10.174   2.827 -0.0013 -0.9337  0.3987
  519MOL0     H68477   3.622  10.297   2.928 -0.2115  0.2226 -2.4792
  519MOL0     H68478   3.656  10.188   3.120 -3.6012  2.5155 -1.2632
  519MOL0     H68479   3.701  10.029   3.038  1.1358 -0.4112  3.5730
  519MOL0     H68480   3.453  10.177   3.072  0.5205  1.0497 -1.4176
  519MOL0     H68481   3.460  10.045   2.956  3.1048 -0.1145 -0.4454
  519MOL0     H68482   3.482  10.041   3.250 -1.3558  1.8348 -1.1646
  519MOL0     H68483   3.544   9.902   3.155 -0.1866  0.6321 -1.0957
  519MOL0     H68484   3.336   9.873   3.035  1.5123  0.2171  0.1027
  519MOL0     H68485   3.259  10.002   3.124 -0.7720 -0.6270  0.3960
  519MOL0     H68486   3.354   9.750   3.263  0.4943  0.0852 -2.7078
  519MOL0     H68487   3.240   9.868   3.329 -1.0767  1.5542 -0.9087
  519MOL0     H68488   3.111   9.683   3.268  0.4986 -0.7034  0.3541
  519MOL0     H68489   3.159   9.696   3.096 -0.3847  0.2204 -0.3636
  519MOL0     H68490   4.044   9.947   2.993 -2.5215 -1.3137 -2.1785
  519MOL0     H68491   4.276   9.911   2.924  2.8317 -1.3043 -3.4752
  519MOL0     H68492   4.558  10.074   2.526  0.3736  0.3774  1.0434
  519MOL0     H68493   4.749  10.018   2.370  0.4812 -0.1050 -0.9313
  519MOL0     H68494   6.192   8.621   2.357  0.3854  2.4361 -0.5611
  519MOL0     H68495   6.180   8.438   2.201 -0.6390  0.6103  1.9828
  519MOL0     H68496   5.964   8.334   1.757 -2.5137 -1.8211 -1.0264
  519MOL0     H68497   5.912   8.127   1.688 -0.6183  3.4260 -2.3384
  519MOL0     H68498   6.253   7.817   1.681  0.7027  0.7391  0.2508
  519MOL0     H68499   6.115   7.707   1.655 -2.5380 -1.3803  1.9047
  519MOL0     H68500   6.251   7.651   1.872 -0.5826 -0.1835 -0.2990
  519MOL0     H68501   6.201   7.810   1.937  2.7982 -0.6464  0.0873
  519MOL0     H68502   5.995   7.611   1.843  0.5542  1.8645 -1.9707
  519MOL0     H68503   5.978   7.762   1.928 -1.5703 -0.6066  1.7126
  519MOL0     H68504   6.136   7.648   2.124  1.6310  0.5329 -2.2110
  519MOL0     H68505   5.974   7.593   2.115  0.1567  0.1647  0.6945
  519MOL0     H68506   6.180   7.253   2.011  0.8906  0.2438  1.7935
  519MOL0     H68507   6.311   7.981   1.797 -0.8525 -0.9263  0.6441
  519MOL0     H68508   6.357   8.211   1.881 -0.1771  0.5805  1.1114
  520MOL0     O68509   0.082   3.144   4.965  0.2226 -0.1742  0.5176
  520MOL0     C68510   0.136   3.033   4.959  0.1121  0.3941 -0.7057
  520MOL0     O68511   0.075   2.911   4.952  0.3754 -0.5277  0.4974
  520MOL0     C68512  -0.060   2.895   4.983  0.1598 -1.0137 -0.4680
  520MOL0     C68513  -0.160   2.998   4.984  0.4626  0.5874 -0.0222
  520MOL0     C68514  -0.293   2.961   5.014  0.8607 -0.5149  0.7981
  520MOL0     C68515  -0.318   2.832   5.031  1.0529 -0.0001 -0.6378
  520MOL0     O68516  -0.454   2.790   5.054  0.7312  0.1834  0.4293
  520MOL0     C68517  -0.552   2.850   4.972  0.4813 -0.2375  0.4294
  520MOL0     C68518  -0.625   2.951   5.054  0.3942 -1.0062 -0.1316
  520MOL0     C68519  -0.784   2.957   5.034  0.6882 -0.2783  0.1495
  520MOL0     C68520  -0.850   2.843   5.105  1.1422 -0.3265 -0.1851
  520MOL0     C68521  -0.999   2.828   5.046 -0.9060 -0.0539  0.0214
  520MOL0     C68522  -1.068   2.708   5.105 -0.2779  0.0067 -0.5134
  520MOL0     C68523  -1.204   2.684   5.030  0.2497 -0.8396  0.0198
  520MOL0     C68524  -1.266   2.562   5.091 -0.0657  0.1496 -0.3904
  520MOL0     N68525  -1.395   2.533   5.021 -0.1014 -0.1703 -0.1181
  520MOL0     C68526  -1.407   2.495   4.889  0.0014  0.4509 -0.0372
  520MOL0     C68527  -1.544   2.479   4.875  0.3668  0.1273  0.1405
  520MOL0     C68528  -1.598   2.420   4.747 -0.1431 -0.6119 -0.4848
  520MOL0     C68529  -1.737   2.374   4.738 -0.3703 -0.1367  0.8841
  520MOL0     C68530  -1.834   2.492   4.729 -0.1736 -0.2290  0.1828
  520MOL0     C68531  -1.980   2.448   4.715 -0.3314 -1.6234 -0.8784
  520MOL0     O68532  -1.998   2.370   4.596 -0.4642 -0.5788 -0.0578
  520MOL0     C68533  -2.127   2.363   4.539 -0.4360  0.2125  0.2360
  520MOL0     C68534  -2.247   2.408   4.600  0.2983  0.9635 -0.2463
  520MOL0     C68535  -2.367   2.404   4.536  0.8683 -0.3169 -0.6555
  520MOL0     C68536  -2.376   2.358   4.404 -0.8494 -0.0858  0.1080
  520MOL0     C68537  -2.510   2.370   4.326 -0.6256 -0.7070  0.1442
  520MOL0     O68538  -2.627   2.392   4.399 -0.0076 -0.1791 -0.2978
  520MOL0     C68539  -2.730   2.455   4.336  0.1329 -0.4749 -0.2973
  520MOL0     C68540  -2.724   2.560   4.243  0.1138  0.7801  0.3209
  520MOL0     C68541  -2.838   2.617   4.185  0.1377  0.5272  0.0387
  520MOL0     C68542  -2.962   2.561   4.212 -0.6092 -0.2801  0.4892
  520MOL0     O68543  -3.066   2.607   4.129  0.1807 -0.1735 -0.2717
  520MOL0     C68544  -3.197   2.538   4.147  0.3505 -0.3431 -0.3987
  520MOL0     C68545  -3.295   2.585   4.038  1.0933  0.0821 -0.1283
  520MOL0     C68546  -3.437   2.527   4.067  0.3112 -0.5742  0.0176
  520MOL0     C68547  -3.531   2.555   3.950 -0.8847  0.0742  0.2118
  520MOL0     C68548  -3.681   2.530   3.985  1.6162 -0.4826 -0.1359
  520MOL0     C68549  -3.776   2.594   3.884 -0.2154 -0.5494  1.1384
  520MOL0     C68550  -3.929   2.581   3.918  0.1728 -0.5457  0.2861
  520MOL0     C68551  -3.964   2.432   3.898 -0.3908 -0.4970 -0.1294
  520MOL0    Cl68552  -4.138   2.435   3.914  0.4055 -0.0536  0.4211
  520MOL0     C68553  -2.970   2.442   4.300  0.0892 -0.7399 -0.2082
  520MOL0     C68554  -2.855   2.403   4.364 -0.1930  0.1925  0.0618
  520MOL0     O68555  -2.497   2.358   4.208  0.7961 -0.1867  0.3035
  520MOL0     C68556  -2.257   2.316   4.340  1.0378  0.2142  0.4728
  520MOL0     C68557  -2.137   2.310   4.412  0.5307  0.0122  0.6951
  520MOL0     N68558  -1.613   2.520   4.990  0.2507  0.9654 -0.1850
  520MOL0     N68559  -1.521   2.550   5.078 -0.2432  0.2985 -0.1531
  520MOL0     C68560  -0.220   2.728   5.024  0.6005  0.4706 -0.6311
  520MOL0     C68561  -0.094   2.764   4.996  0.3110  0.2627  0.4340
  520MOL0     C68562   0.279   3.027   4.963 -0.5466 -0.8164  0.4159
  520MOL0     C68563   0.351   3.149   4.961 -0.8630  0.3403 -0.1935
  520MOL0     C68564   0.491   3.142   4.953 -0.2453  0.6778 -0.2664
  520MOL0     C68565   0.564   3.020   4.948 -0.3854 -0.3026 -0.0850
  520MOL0     O68566   0.697   3.028   4.913  0.1852  0.0745 -0.0262
  520MOL0     C68567   0.768   2.902   4.883  0.1226 -0.1212 -0.0940
  520MOL0     C68568   0.813   2.840   5.012 -0.1582 -0.1430  0.6732
  520MOL0     C68569   0.905   2.933   5.099 -0.7857  0.5094  0.0387
  520MOL0     C68570   0.875   2.907   5.247  0.5274 -1.5418  0.2759
  520MOL0     C68571   0.738   2.948   5.289 -0.7326  0.4755 -0.7765
  520MOL0     C68572   0.624   2.978   5.308 -0.6988 -0.1936  0.0891
  520MOL0     C68573   0.493   2.902   4.958 -0.0328  0.1052  0.4579
  520MOL0     C68574   0.354   2.907   4.958  0.5169 -0.1009  0.7844
  520MOL0     H68575  -0.143   3.100   4.954 -1.4536  0.6013 -1.2815
  520MOL0     H68576  -0.376   3.031   5.008  1.4090  0.3749  2.8688
  520MOL0     H68577  -0.629   2.777   4.946 -1.5498  1.7549  0.5692
  520MOL0     H68578  -0.507   2.889   4.880  1.0745 -0.0634  0.7843
  520MOL0     H68579  -0.585   3.051   5.037 -0.3740 -0.6885 -0.0725
  520MOL0     H68580  -0.610   2.933   5.161  4.8759  1.7661 -0.0065
  520MOL0     H68581  -0.806   2.948   4.927  2.7827  3.4460 -0.7652
  520MOL0     H68582  -0.825   3.056   5.054 -2.1376 -0.4849 -3.5278
  520MOL0     H68583  -0.804   2.744   5.099  0.4057 -0.7489  0.8825
  520MOL0     H68584  -0.860   2.878   5.208 -0.7609 -0.0216 -0.4455
  520MOL0     H68585  -0.981   2.821   4.938 -0.5570 -1.5724  0.1609
  520MOL0     H68586  -1.056   2.920   5.062 -0.5860  0.4516 -1.5721
  520MOL0     H68587  -1.081   2.723   5.212 -1.2629  3.6239 -0.9970
  520MOL0     H68588  -1.017   2.613   5.084 -4.2172 -1.7579 -3.4136
  520MOL0     H68589  -1.270   2.770   5.048  0.5881 -0.4660 -0.5017
  520MOL0     H68590  -1.201   2.673   4.922 -2.4528  1.6740 -0.4644
  520MOL0     H68591  -1.283   2.578   5.198  0.4810  3.7732 -0.7187
  520MOL0     H68592  -1.198   2.477   5.078  0.1836  0.5387 -1.8267
  520MOL0     H68593  -1.334   2.474   4.811 -0.1275  0.4626 -0.1606
  520MOL0     H68594  -1.542   2.329   4.724 -0.2153 -0.0968 -2.9358
  520MOL0     H68595  -1.577   2.490   4.666 -1.0970 -0.4447 -0.5992
  520MOL0     H68596  -1.764   2.321   4.830  0.5393  2.1441  2.5363
  520MOL0     H68597  -1.754   2.303   4.656 -1.1418  1.6128 -0.5442
  520MOL0     H68598  -1.830   2.554   4.819 -1.2603  2.1565 -1.2999
  520MOL0     H68599  -1.819   2.565   4.649 -2.1003  1.1621  1.0150
  520MOL0     H68600  -2.041   2.539   4.712  0.5430 -0.9379  0.6852
  520MOL0     H68601  -2.016   2.399   4.806 -0.1434 -3.7897 -1.8991
  520MOL0     H68602  -2.256   2.437   4.704  0.6714 -0.4470  0.2026
  520MOL0     H68603  -2.456   2.432   4.592  1.7203  1.3402 -0.0537
  520MOL0     H68604  -2.630   2.607   4.217 -1.8282  4.1740 -1.2894
  520MOL0     H68605  -2.834   2.701   4.116  0.9523 -1.4012 -2.4201
  520MOL0     H68606  -3.242   2.566   4.243 -2.3166 -0.5480 -1.4833
  520MOL0     H68607  -3.205   2.430   4.161 -1.3694  0.1088  3.1916
  520MOL0     H68608  -3.266   2.550   3.939 -0.3534  0.1692 -0.5971
  520MOL0     H68609  -3.300   2.694   4.031 -0.4823 -0.0519 -1.6031
  520MOL0     H68610  -3.477   2.579   4.155 -1.1570 -1.4102 -0.1240
  520MOL0     H68611  -3.423   2.421   4.092 -0.0033 -0.3604  1.1893
  520MOL0     H68612  -3.503   2.656   3.920  0.7125 -0.6332 -0.7875
  520MOL0     H68613  -3.512   2.485   3.868 -3.9065  0.7297 -1.1878
  520MOL0     H68614  -3.705   2.577   4.082 -2.5494  0.6232 -1.4761
  520MOL0     H68615  -3.701   2.423   3.990 -2.1741 -0.1091 -3.0324
  520MOL0     H68616  -3.766   2.543   3.787  1.0781 -2.5093  2.2213
  520MOL0     H68617  -3.757   2.701   3.871 -1.4353 -0.5818 -1.5636
  520MOL0     H68618  -3.946   2.617   4.020 -0.1832  0.8259 -0.2230
  520MOL0     H68619  -3.991   2.640   3.848 -1.2913 -0.4781  1.5806
  520MOL0     H68620  -3.915   2.363   3.967 -0.9410 -1.3906 -0.6012
  520MOL0     H68621  -3.923   2.413   3.798  0.9222  3.2172 -0.4367
  520MOL0     H68622  -3.054   2.377   4.322  0.2825 -1.1824 -0.7331
  520MOL0     H68623  -2.860   2.319   4.432  0.6305 -0.7517 -0.9858
  520MOL0     H68624  -2.265   2.282   4.237 -2.7911 -0.5713  0.8587
  520MOL0     H68625  -2.050   2.275   4.357  0.3062 -0.8895  0.8974
  520MOL0     H68626  -0.248   2.625   5.042  0.7092  0.2254 -1.7783
  520MOL0     H68627  -0.017   2.688   4.983 -0.3042 -0.3893  0.5686
  520MOL0     H68628   0.303   3.246   4.972 -1.4818 -0.0058  0.2088
  520MOL0     H68629   0.542   3.236   4.974 -0.5543  0.9156 -0.5728
  520MOL0     H68630   0.856   2.929   4.822  2.5179  2.7770  4.1083
  520MOL0     H68631   0.709   2.835   4.821 -0.5917 -0.0022  0.4574
  520MOL0     H68632   0.722   2.811   5.065  0.4786  0.2007  1.9711
  520MOL0     H68633   0.872   2.752   4.987 -0.0675  0.0302  0.2501
  520MOL0     H68634   0.899   3.039   5.073 -0.3423  0.8785  1.3449
  520MOL0     H68635   1.009   2.902   5.083 -1.4405 -0.4208 -3.0678
  520MOL0     H68636   0.879   2.799   5.259 -0.2043 -1.4875  1.1002
  520MOL0     H68637   0.945   2.951   5.320 -1.2331 -0.8471  1.6192
  520MOL0     H68638   0.532   3.026   5.336 -0.2092  0.3468  0.8074
  520MOL0     H68639   0.535   2.802   4.962 -1.8935 -0.6881  1.2534
  520MOL0     H68640   0.297   2.815   4.971 -1.2936  0.7604 -0.5721
  521MOL0     O68641   9.135   2.898   2.646 -0.3550 -0.6249  0.0961
  521MOL0     C68642   9.110   2.854   2.762  0.5014  0.3620 -0.0012
  521MOL0     O68643   9.013   2.765   2.792 -0.0198 -0.1426 -0.1936
  521MOL0     C68644   8.940   2.707   2.691  0.3783 -0.1949 -0.2966
  521MOL0     C68645   8.887   2.783   2.589  0.5511 -0.1707 -0.4798
  521MOL0     C68646   8.824   2.715   2.484  0.0491 -0.0221  0.0526
  521MOL0     C68647   8.797   2.572   2.487  0.1325 -0.1511 -0.6307
  521MOL0     O68648   8.730   2.504   2.388 -0.8039 -0.8149 -0.7323
  521MOL0     C68649   8.798   2.512   2.266 -0.4203 -0.1024 -0.3627
  521MOL0     C68650   8.753   2.398   2.170  0.2558  0.5015 -0.0179
  521MOL0     C68651   8.610   2.414   2.106 -0.3362  0.1443 -0.5220
  521MOL0     C68652   8.583   2.279   2.034 -0.1367  0.1866 -0.4353
  521MOL0     C68653   8.439   2.282   1.975 -0.8019  1.3416 -0.2393
  521MOL0     C68654   8.339   2.333   2.073 -1.0806 -0.0661  0.3276
  521MOL0     C68655   8.195   2.298   2.022  0.3517  0.0213 -0.0968
  521MOL0     C68656   8.116   2.410   1.960  0.4556 -0.5681 -0.1325
  521MOL0     N68657   8.076   2.526   2.040  0.1367  0.0114 -0.5767
  521MOL0     C68658   7.983   2.527   2.144 -0.8206 -0.2688  1.0756
  521MOL0     C68659   7.967   2.658   2.182 -0.4634  0.5776 -0.0780
  521MOL0     C68660   7.863   2.724   2.271  0.1179  0.1008 -0.4456
  521MOL0     C68661   7.727   2.744   2.214 -0.0360 -0.2763 -0.2313
  521MOL0     C68662   7.658   2.608   2.179 -0.4011 -0.1361 -0.0177
  521MOL0     C68663   7.523   2.610   2.112 -0.2332 -0.2132  0.3101
  521MOL0     O68664   7.432   2.694   2.191 -0.7919 -0.4986  0.1848
  521MOL0     C68665   7.303   2.696   2.151  0.6060  0.9804  0.0727
  521MOL0     C68666   7.208   2.701   2.254  0.7523 -0.1798 -0.8846
  521MOL0     C68667   7.068   2.697   2.221 -0.0821 -0.5962 -0.3001
  521MOL0     C68668   7.020   2.684   2.087 -0.3560  0.0209 -0.5138
  521MOL0     C68669   6.874   2.678   2.049  0.4262  0.3393 -0.2429
  521MOL0     O68670   6.832   2.706   1.916 -0.5842  0.2128 -0.5492
  521MOL0     C68671   6.700   2.678   1.884  0.6492  0.0056 -0.0016
  521MOL0     C68672   6.570   2.736   1.921 -0.0832 -0.8895  0.5157
  521MOL0     C68673   6.461   2.713   1.851  0.3762 -0.5870  0.0488
  521MOL0     C68674   6.452   2.623   1.741  0.0920 -0.3202  0.8125
  521MOL0     O68675   6.338   2.587   1.673  0.6510  0.2467  0.5233
  521MOL0     C68676   6.213   2.599   1.741 -0.2756  0.3805 -0.3569
  521MOL0     C68677   6.105   2.591   1.633  0.3968  0.4537  0.1829
  521MOL0     C68678   6.114   2.722   1.552  0.5722 -0.2014 -0.4705
  521MOL0     C68679   5.982   2.738   1.472 -0.0305  0.1875 -0.6454
  521MOL0     C68680   5.986   2.677   1.335  0.4567 -0.0783 -0.2372
  521MOL0     C68681   5.856   2.692   1.257 -0.2375  0.0174 -0.3091
  521MOL0     C68682   5.859   2.622   1.125 -0.3065 -0.6135 -0.1542
  521MOL0     C68683   5.721   2.619   1.046  0.8727 -0.7557 -0.8180
  521MOL0    Cl68684   5.738   2.656   0.875 -0.2333  0.0305  0.3916
  521MOL0     C68685   6.576   2.569   1.697  0.0400 -0.0295  0.1646
  521MOL0     C68686   6.690   2.595   1.774  0.5913  0.6675 -0.3290
  521MOL0     O68687   6.794   2.664   2.142  0.0643 -0.6083 -0.4773
  521MOL0     C68688   7.117   2.672   1.986  0.9153  0.6800 -0.1493
  521MOL0     C68689   7.255   2.676   2.014 -0.0616 -0.1548 -0.0092
  521MOL0     N68690   8.050   2.735   2.108  0.3722  0.7590  0.1796
  521MOL0     N68691   8.116   2.660   2.028 -0.3421  0.5698 -0.1819
  521MOL0     C68692   8.837   2.503   2.607  0.3658 -0.6849 -0.4736
  521MOL0     C68693   8.903   2.570   2.707 -0.5983  0.2446  0.7292
  521MOL0     C68694   9.190   2.899   2.884  0.5779  0.4706  0.1806
  521MOL0     C68695   9.282   3.002   2.869 -0.0585  0.2760 -1.1618
  521MOL0     C68696   9.357   3.051   2.977 -0.8527  0.0555  0.2407
  521MOL0     C68697   9.318   3.017   3.112  0.2438 -0.3343 -0.1869
  521MOL0     O68698   9.387   3.070   3.219 -0.0487  0.4444 -0.2155
  521MOL0     C68699   9.330   3.048   3.346 -0.6203 -1.4059 -0.1467
  521MOL0     C68700   9.372   3.162   3.445  0.2699  0.6097  0.4790
  521MOL0     C68701   9.513   3.204   3.437  0.2291 -0.0195  0.6274
  521MOL0     C68702   9.552   3.299   3.552 -0.4604 -0.1600  0.0725
  521MOL0     C68703   9.571   3.218   3.674 -0.2369 -0.7948 -0.0331
  521MOL0     C68704   9.594   3.164   3.776  0.4558 -0.3422  0.8632
  521MOL0     C68705   9.220   2.914   3.125 -0.4787 -0.1569 -0.0754
  521MOL0     C68706   9.167   2.853   3.013 -0.4926  0.1329 -0.4691
  521MOL0     H68707   8.904   2.890   2.580  0.0487  0.2689  2.5979
  521MOL0     H68708   8.797   2.775   2.397  1.3408 -0.5565 -0.7366
  521MOL0     H68709   8.904   2.490   2.284 -0.0754  0.0899 -2.0666
  521MOL0     H68710   8.795   2.613   2.225  0.4546 -0.5977 -1.6917
  521MOL0     H68711   8.770   2.305   2.226  2.6517  2.4320  2.7744
  521MOL0     H68712   8.832   2.399   2.094  1.3663 -2.0433  0.9705
  521MOL0     H68713   8.596   2.498   2.038  0.0108  3.4799  3.1621
  521MOL0     H68714   8.551   2.440   2.195  1.4805  2.5078  0.1037
  521MOL0     H68715   8.654   2.255   1.954 -0.0790 -1.8556  0.1807
  521MOL0     H68716   8.596   2.202   2.110  1.3790 -0.9538 -1.7735
  521MOL0     H68717   8.403   2.187   1.933 -0.4213  1.4011 -0.7104
  521MOL0     H68718   8.438   2.352   1.891  2.3632  1.1810 -0.5560
  521MOL0     H68719   8.344   2.438   2.101 -2.6217  0.6324 -1.7417
  521MOL0     H68720   8.357   2.284   2.169  0.1190  3.7600  2.2330
  521MOL0     H68721   8.200   2.213   1.954  1.2408  2.4390 -3.2724
  521MOL0     H68722   8.150   2.270   2.118  3.1041 -1.2008  0.9263
  521MOL0     H68723   8.021   2.369   1.924 -0.2437  2.5807 -2.2964
  521MOL0     H68724   8.186   2.447   1.884  2.0258 -0.7333  1.1816
  521MOL0     H68725   7.936   2.438   2.184 -0.2449 -1.0316  0.0775
  521MOL0     H68726   7.901   2.825   2.290 -2.1339  0.8595  0.4599
  521MOL0     H68727   7.857   2.668   2.364 -2.5155  0.0930 -0.5364
  521MOL0     H68728   7.718   2.799   2.120 -0.2123  0.0843 -0.0077
  521MOL0     H68729   7.670   2.796   2.292  0.7970 -0.5322  0.5671
  521MOL0     H68730   7.726   2.543   2.124 -1.0356 -0.4425 -0.4587
  521MOL0     H68731   7.643   2.563   2.277 -1.9277 -1.3815 -0.7848
  521MOL0     H68732   7.476   2.513   2.093 -1.2152  0.7697 -3.0766
  521MOL0     H68733   7.543   2.671   2.023  0.3430  0.6736  1.0273
  521MOL0     H68734   7.242   2.704   2.357  2.6461 -1.4163 -1.4328
  521MOL0     H68735   6.993   2.712   2.299  0.1811 -0.9131  0.0191
  521MOL0     H68736   6.561   2.813   1.997 -1.0975  1.2457 -1.6255
  521MOL0     H68737   6.368   2.760   1.879  1.3998  1.0803  0.8469
  521MOL0     H68738   6.191   2.696   1.789 -1.4187 -1.0761  2.2801
  521MOL0     H68739   6.204   2.515   1.810 -0.6312  1.2299  0.6603
  521MOL0     H68740   6.013   2.582   1.691  0.8197  1.8505  1.1122
  521MOL0     H68741   6.126   2.516   1.556  0.3524  0.5889  0.0397
  521MOL0     H68742   6.193   2.706   1.477  1.6209 -3.3513  1.1272
  521MOL0     H68743   6.129   2.811   1.614 -0.7016  1.1171 -1.9679
  521MOL0     H68744   5.897   2.684   1.516 -0.4112  0.8206 -0.5969
  521MOL0     H68745   5.955   2.844   1.470 -0.2876  0.1694  0.8074
  521MOL0     H68746   6.000   2.570   1.351  0.1694  0.0306  0.7870
  521MOL0     H68747   6.075   2.712   1.281  0.3030 -0.5829 -0.8348
  521MOL0     H68748   5.819   2.794   1.242 -2.5992 -0.8926 -1.1426
  521MOL0     H68749   5.778   2.651   1.322 -0.5584  0.0776 -0.6535
  521MOL0     H68750   5.923   2.672   1.051 -0.6127  3.2980  1.9195
  521MOL0     H68751   5.910   2.527   1.138 -3.7599 -2.6914 -0.5201
  521MOL0     H68752   5.655   2.703   1.069  4.5201  2.4885 -1.2653
  521MOL0     H68753   5.670   2.522   1.055  3.2468 -1.9627  1.0305
  521MOL0     H68754   6.596   2.495   1.621 -1.4040 -2.0449  1.6433
  521MOL0     H68755   6.784   2.544   1.754 -0.7601 -3.0545  1.8380
  521MOL0     H68756   7.096   2.667   1.880 -1.1054  1.8288  0.1528
  521MOL0     H68757   7.332   2.674   1.937 -1.7419  2.2292 -1.8964
  521MOL0     H68758   8.804   2.401   2.620 -0.6598 -0.4451 -1.0314
  521MOL0     H68759   8.934   2.520   2.799  0.9400 -0.0917  0.0604
  521MOL0     H68760   9.313   3.023   2.767 -0.0424  1.5186 -0.9197
  521MOL0     H68761   9.426   3.131   2.954 -2.7738  3.0530  3.6483
  521MOL0     H68762   9.372   2.952   3.378  1.4488 -0.0548  1.5064
  521MOL0     H68763   9.221   3.046   3.348 -0.7597  0.2827 -2.4228
  521MOL0     H68764   9.317   3.256   3.440 -0.3497  0.4482  3.0285
  521MOL0     H68765   9.344   3.133   3.546  0.2602 -0.2311  0.2479
  521MOL0     H68766   9.534   3.254   3.342 -1.0187 -0.4650  0.1032
  521MOL0     H68767   9.584   3.121   3.432 -1.6309 -1.8073  2.2486
  521MOL0     H68768   9.649   3.342   3.527  1.1473 -3.0756  0.8117
  521MOL0     H68769   9.487   3.386   3.562  0.8883  1.0661 -1.4532
  521MOL0     H68770   9.611   3.109   3.866 -1.1664 -0.5734  1.0470
  521MOL0     H68771   9.203   2.874   3.225 -0.5023  1.9986  0.8329
  521MOL0     H68772   9.091   2.783   3.045  0.8062 -1.7295 -1.3307
  522MOL0     O68773   7.180  10.274   9.888 -0.7864  0.2575 -0.0065
  522MOL0     C68774   7.248  10.192   9.827  0.0307 -0.0405 -0.4971
  522MOL0     O68775   7.194  10.108   9.734 -0.1349 -0.1139 -1.0568
  522MOL0     C68776   7.059  10.109   9.726  0.2070 -0.0006 -0.0397
  522MOL0     C68777   6.981  10.041   9.826 -0.3221 -0.2873  0.4082
  522MOL0     C68778   6.841  10.059   9.813 -0.3633 -0.2201 -0.3528
  522MOL0     C68779   6.778  10.124   9.702  0.5086 -0.3064  0.5687
  522MOL0     O68780   6.643  10.137   9.703  0.3821  0.0443 -0.2061
  522MOL0     C68781   6.580  10.198   9.590 -0.3714  0.5566 -0.3970
  522MOL0     C68782   6.430  10.207   9.594  0.5038  0.4278 -0.4219
  522MOL0     C68783   6.372  10.071   9.632 -1.1328 -0.1927  0.3081
  522MOL0     C68784   6.226  10.078   9.637 -0.2854 -0.3246  0.4225
  522MOL0     C68785   6.154   9.956   9.680 -0.2322  1.0249  0.1313
  522MOL0     C68786   6.018   9.930   9.609  0.4318  0.3605  0.2902
  522MOL0     C68787   5.926  10.052   9.627 -0.0947 -0.2470  0.4262
  522MOL0     C68788   5.781  10.023   9.573  0.4425  0.3202  0.6976
  522MOL0     N68789   5.689   9.965   9.674  0.6295  0.9932  0.3095
  522MOL0     C68790   5.576  10.022   9.719  0.0168 -0.5658  0.7710
  522MOL0     C68791   5.520   9.939   9.807 -0.2716  0.4659  0.0825
  522MOL0     C68792   5.402   9.970   9.880  0.2560 -0.0531 -0.0652
  522MOL0     C68793   5.291   9.872   9.854 -0.0244  0.1936 -0.0004
  522MOL0     C68794   5.179   9.918   9.946  0.5852  0.3400  0.6143
  522MOL0     C68795   5.061   9.822   9.929  0.8575  0.3426  0.5070
  522MOL0     O68796   4.956   9.850  10.024 -0.4318  0.7642 -0.5277
  522MOL0     C68797   4.853   9.766  10.046 -0.9237  0.9791 -0.6208
  522MOL0     C68798   4.831   9.645   9.980  0.3804 -0.6594 -0.6069
  522MOL0     C68799   4.725   9.557  10.017  0.2016  0.2517 -0.1452
  522MOL0     C68800   4.648   9.584  10.129  0.4103  0.4018  0.1904
  522MOL0     C68801   4.534   9.498  10.164 -0.5727  0.1374 -0.2588
  522MOL0     O68802   4.477   9.521  10.283  0.0754  0.1724 -0.4502
  522MOL0     C68803   4.369   9.449  10.322 -0.1993 -0.0797 -0.2084
  522MOL0     C68804   4.243   9.494  10.302 -0.1521  0.6107  0.3421
  522MOL0     C68805   4.132   9.421  10.357 -0.0489  0.3436 -0.0915
  522MOL0     C68806   4.150   9.315  10.447 -0.2024 -1.3393 -0.0699
  522MOL0     O68807   4.044   9.273  10.514 -0.0350  0.2332  0.1002
  522MOL0     C68808   4.040   9.129  10.535 -1.1833  0.2221 -0.4545
  522MOL0     C68809   3.909   9.067  10.527 -0.2633 -0.3564 -0.1991
  522MOL0     C68810   3.802   9.126  10.617  1.0621 -0.0357 -0.9305
  522MOL0     C68811   3.663   9.063  10.587  0.7666  2.0473  0.1410
  522MOL0     C68812   3.562   9.092  10.701 -0.4949  0.0043  0.4553
  522MOL0     C68813   3.411   9.076  10.667  0.1809 -0.2243  0.4359
  522MOL0     C68814   3.377   8.964  10.567  0.1138  0.4585  0.7153
  522MOL0     C68815   3.225   8.952  10.540  0.3523  0.3732  0.4822
  522MOL0    Cl68816   3.154   8.884  10.686 -0.0260 -0.0369  0.2048
  522MOL0     C68817   4.286   9.262  10.459 -1.0529  0.3466 -0.0317
  522MOL0     C68818   4.393   9.327  10.389  0.2564 -1.0967 -0.5393
  522MOL0     O68819   4.500   9.410  10.084 -0.1938  0.7980 -0.2627
  522MOL0     C68820   4.662   9.707  10.195 -0.7931  0.0333 -0.8314
  522MOL0     C68821   4.760   9.798  10.147 -0.0834  0.5765  0.0984
  522MOL0     N68822   5.612   9.835   9.821 -0.7158 -0.0408  0.6792
  522MOL0     N68823   5.706   9.843   9.732 -0.2584 -0.1578  0.4739
  522MOL0     C68824   6.865  10.181   9.606 -0.3806 -0.6564 -0.0583
  522MOL0     C68825   7.003  10.179   9.621 -0.6403  0.2150 -0.9209
  522MOL0     C68826   7.393  10.182   9.848 -0.3012 -0.0028 -0.2139
  522MOL0     C68827   7.462  10.104   9.755 -1.1159  0.5704 -0.1466
  522MOL0     C68828   7.601  10.100   9.741  0.5672 -0.0759 -0.3408
  522MOL0     C68829   7.678  10.179   9.838  0.3877 -1.3154  0.1220
  522MOL0     O68830   7.814  10.204   9.841  0.3826  0.1225  0.3059
  522MOL0     C68831   7.879  10.177   9.718  0.1374  0.6516 -0.3025
  522MOL0     C68832   8.018  10.233   9.716  1.1587  0.3843 -0.1515
  522MOL0     C68833   8.111  10.161   9.612  0.6033 -0.1906  0.3061
  522MOL0     C68834   8.068  10.152   9.468  0.5284 -0.3668  0.5446
  522MOL0     C68835   8.029  10.285   9.415  0.9681 -0.3766  0.1725
  522MOL0     C68836   8.000  10.389   9.370  0.0102  0.3214  0.8298
  522MOL0     C68837   7.605  10.249   9.936  0.2632 -0.2910 -0.5653
  522MOL0     C68838   7.471  10.247   9.942  0.2399 -0.9179  0.0894
  522MOL0     H68839   7.032   9.978   9.897 -0.2085 -3.0272 -1.9157
  522MOL0     H68840   6.774  10.010   9.884 -0.5006  0.8899  0.3071
  522MOL0     H68841   6.607  10.137   9.503  1.0619  0.6917 -0.0720
  522MOL0     H68842   6.622  10.298   9.577 -0.5813  0.5992 -0.7352
  522MOL0     H68843   6.384  10.243   9.502  0.8162 -0.6590 -1.0244
  522MOL0     H68844   6.404  10.272   9.678 -0.6548 -0.0430 -0.3911
  522MOL0     H68845   6.407  10.031   9.728  0.7805 -2.9748 -1.3953
  522MOL0     H68846   6.403   9.998   9.556  4.5550  1.3014  0.7635
  522MOL0     H68847   6.191  10.159   9.702 -1.1314 -1.0500  0.8987
  522MOL0     H68848   6.185  10.099   9.537 -0.0598  0.6865  0.5288
  522MOL0     H68849   6.136   9.953   9.788  0.1891 -1.1087  0.1934
  522MOL0     H68850   6.217   9.867   9.664  1.5689  1.9746  1.6066
  522MOL0     H68851   5.976   9.842   9.660  0.0789  0.3906  0.0574
  522MOL0     H68852   6.023   9.898   9.504  2.4660  2.6170 -0.3828
  522MOL0     H68853   5.938  10.088   9.729 -2.4818 -0.6635  0.9054
  522MOL0     H68854   5.961  10.135   9.564 -2.7789 -0.0439 -0.9515
  522MOL0     H68855   5.777   9.965   9.480 -3.5160  4.1039 -1.8620
  522MOL0     H68856   5.751  10.125   9.548 -2.1974 -0.0917  1.8717
  522MOL0     H68857   5.543  10.119   9.682 -0.8454 -0.8232  0.8274
  522MOL0     H68858   5.367  10.071   9.857  0.2262 -0.1132 -0.2840
  522MOL0     H68859   5.425   9.981   9.987  0.4021 -0.5384 -0.0427
  522MOL0     H68860   5.324   9.774   9.889 -0.8586 -0.6425 -1.4182
  522MOL0     H68861   5.257   9.864   9.750 -0.4639  0.1872  0.1385
  522MOL0     H68862   5.202   9.900  10.052 -0.2544  2.3466  1.1799
  522MOL0     H68863   5.133  10.016   9.933 -1.6654 -0.4972  1.8234
  522MOL0     H68864   5.105   9.723   9.941 -0.3409 -0.5337 -1.6539
  522MOL0     H68865   5.019   9.834   9.828 -3.0256 -0.4803  1.8392
  522MOL0     H68866   4.891   9.627   9.891  1.3590 -2.9274  0.4424
  522MOL0     H68867   4.715   9.468   9.956  2.1958  0.8257 -1.3991
  522MOL0     H68868   4.234   9.589  10.250  3.0427  0.3799 -0.8573
  522MOL0     H68869   4.033   9.461  10.335  0.7336  1.1054 -2.5287
  522MOL0     H68870   4.091   9.100  10.627  2.4123 -2.0245 -2.8652
  522MOL0     H68871   4.105   9.083  10.459 -0.7737  0.4517 -0.2493
  522MOL0     H68872   3.922   8.961  10.551 -0.0334 -0.2129  0.3221
  522MOL0     H68873   3.880   9.087  10.423 -1.2260  0.7944  0.2666
  522MOL0     H68874   3.800   9.235  10.604 -0.5789 -0.1213 -1.6699
  522MOL0     H68875   3.840   9.120  10.719  0.9855  1.2013 -0.8061
  522MOL0     H68876   3.616   9.092  10.493 -3.0566 -2.1222  0.4487
  522MOL0     H68877   3.672   8.956  10.571  0.3798  1.3162  3.9290
  522MOL0     H68878   3.581   9.191  10.743  0.5490  1.1227 -2.4210
  522MOL0     H68879   3.592   9.033  10.789  1.1440  1.6887  1.0943
  522MOL0     H68880   3.390   9.174  10.624  0.3031 -0.4423 -0.1417
  522MOL0     H68881   3.361   9.056  10.762 -0.8441  0.1505 -0.0031
  522MOL0     H68882   3.424   8.986  10.471  1.2142 -1.9644  0.6249
  522MOL0     H68883   3.417   8.867  10.600  1.7598  0.7632 -0.2407
  522MOL0     H68884   3.202   8.890  10.453 -2.2972  2.1770 -0.2287
  522MOL0     H68885   3.190   9.054  10.525  0.2627  0.0667 -1.7755
  522MOL0     H68886   4.315   9.179  10.522  0.0656  0.6814 -0.0921
  522MOL0     H68887   4.494   9.291  10.404  0.0132 -0.8512  2.2195
  522MOL0     H68888   4.603   9.740  10.280  1.3121 -0.0505  0.7488
  522MOL0     H68889   4.761   9.898  10.187 -0.8473  0.3717  0.6684
  522MOL0     H68890   6.822  10.242   9.527 -2.7693  1.4610  2.6764
  522MOL0     H68891   7.064  10.231   9.548  0.0070 -2.3207 -2.2916
  522MOL0     H68892   7.416  10.063   9.666  0.7569 -1.1736 -0.3902
  522MOL0     H68893   7.649  10.051   9.658  0.0562  1.4582 -1.5789
  522MOL0     H68894   7.830  10.211   9.627  4.2273 -0.6084 -3.2706
  522MOL0     H68895   7.891  10.068   9.721  2.3727  0.8529  2.3407
  522MOL0     H68896   8.006  10.341   9.703 -0.7833  0.5004  2.0055
  522MOL0     H68897   8.055  10.234   9.818  0.8864  2.4758 -0.0404
  522MOL0     H68898   8.131  10.056   9.635  1.0030 -0.3728 -0.8359
  522MOL0     H68899   8.206  10.215   9.610  0.7955 -0.5004  0.8066
  522MOL0     H68900   8.151  10.120   9.405  2.0356  2.0205  1.1720
  522MOL0     H68901   7.995  10.070   9.464 -1.0361  0.9463  0.9389
  522MOL0     H68902   7.964  10.486   9.342 -2.7201 -1.1490 -1.3123
  522MOL0     H68903   7.662  10.302  10.012 -1.7855 -0.8225  1.4366
  522MOL0     H68904   7.427  10.297  10.027 -1.9919 -0.8353 -1.0284
  523MOL0     O68905   6.869  10.005   6.343  1.1082  0.0839  0.2986
  523MOL0     C68906   6.942   9.906   6.329  0.4994  0.2075 -0.6225
  523MOL0     O68907   6.906   9.785   6.277  0.5767  0.1411 -0.2755
  523MOL0     C68908   6.774   9.741   6.289 -0.5002 -0.5159 -0.3461
  523MOL0     C68909   6.738   9.646   6.202  0.5293 -0.1814  0.1423
  523MOL0     C68910   6.621   9.578   6.214 -0.3757  0.7112 -0.3626
  523MOL0     C68911   6.533   9.601   6.316 -0.5179  0.1111  1.1011
  523MOL0     O68912   6.410   9.535   6.338  0.0563 -0.3860 -0.1780
  523MOL0     C68913   6.365   9.424   6.257 -0.1021  0.4758  0.2577
  523MOL0     C68914   6.229   9.365   6.311  1.1562  0.0708 -0.0252
  523MOL0     C68915   6.246   9.332   6.460  0.6510 -0.4836  0.2318
  523MOL0     C68916   6.131   9.259   6.524 -0.0991 -0.1778  0.3383
  523MOL0     C68917   6.137   9.240   6.672 -0.6908  0.1953  0.3495
  523MOL0     C68918   6.032   9.151   6.725 -0.1764  0.5519  0.3076
  523MOL0     C68919   6.034   9.145   6.880 -0.3570  0.3583 -0.4893
  523MOL0     C68920   5.907   9.064   6.922 -0.2288  0.3976  0.4557
  523MOL0     N68921   5.796   9.153   6.917  0.1824  0.2460  0.0611
  523MOL0     C68922   5.794   9.267   6.994 -0.2973 -0.0285  0.5425
  523MOL0     C68923   5.680   9.334   6.961 -0.3088  0.5529  0.3284
  523MOL0     C68924   5.625   9.452   7.025 -0.4832 -0.0129  0.1274
  523MOL0     C68925   5.680   9.587   6.983 -1.3267 -0.5679 -0.1835
  523MOL0     C68926   5.609   9.702   7.056  0.6207  0.8515  0.5853
  523MOL0     C68927   5.608   9.693   7.206 -0.6745 -0.0691 -1.6607
  523MOL0     O68928   5.741   9.673   7.265 -0.3607 -0.7180 -0.1798
  523MOL0     C68929   5.826   9.786   7.278 -0.0578  0.7673  0.1617
  523MOL0     C68930   5.935   9.760   7.363 -0.1098  0.1425 -0.2190
  523MOL0     C68931   6.046   9.850   7.377  0.4773  0.1831 -0.4433
  523MOL0     C68932   6.025   9.976   7.314  0.1246 -0.0254  0.4430
  523MOL0     C68933   6.130  10.084   7.321  0.2767  0.4321 -0.2400
  523MOL0     O68934   6.092  10.207   7.273 -0.1840  0.4334  0.2337
  523MOL0     C68935   6.195  10.282   7.214  1.1969 -1.2567 -0.7247
  523MOL0     C68936   6.310  10.232   7.150  0.3323 -0.1838  0.6736
  523MOL0     C68937   6.406  10.329   7.114 -0.1585  0.3152  0.0161
  523MOL0     C68938   6.392  10.472   7.127 -0.2700 -0.0517 -0.3726
  523MOL0     O68939   6.491  10.559   7.086 -0.5342  0.5335  0.2420
  523MOL0     C68940   6.625  10.512   7.066  0.0328  0.1522 -0.1140
  523MOL0     C68941   6.670  10.453   6.932 -0.5171  0.0503  0.1393
  523MOL0     C68942   6.808  10.376   6.946  0.5667  0.7925 -0.4279
  523MOL0     C68943   6.837  10.281   6.836 -1.2850  0.5240  0.7382
  523MOL0     C68944   6.978  10.218   6.849 -1.3258 -0.7020 -0.4746
  523MOL0     C68945   7.085  10.323   6.830 -0.2322 -0.9785 -0.1255
  523MOL0     C68946   7.231  10.268   6.869  0.2801  0.2998 -0.1302
  523MOL0     C68947   7.329  10.379   6.902  0.7521 -0.3552 -0.2109
  523MOL0    Cl68948   7.294  10.452   7.066  0.0580 -0.1882  0.3845
  523MOL0     C68949   6.270  10.517   7.175  0.1948 -0.2721 -0.8056
  523MOL0     C68950   6.170  10.427   7.224  0.0532 -0.7334 -0.0625
  523MOL0     O68951   6.235  10.065   7.376 -0.1086 -0.1232  0.1471
  523MOL0     C68952   5.901  10.005   7.246  0.1772 -0.5435  0.3953
  523MOL0     C68953   5.800   9.906   7.235  0.0878 -0.8896 -0.0307
  523MOL0     N68954   5.613   9.263   6.859  0.0096  0.3620  0.4821
  523MOL0     N68955   5.693   9.156   6.829  0.5873 -0.0672 -0.1065
  523MOL0     C68956   6.573   9.695   6.418 -0.2221  0.3674 -0.2594
  523MOL0     C68957   6.697   9.759   6.408  1.0229 -0.3001 -0.2458
  523MOL0     C68958   7.082   9.920   6.382 -0.3746  0.4371 -0.6223
  523MOL0     C68959   7.168   9.810   6.397  0.5741  0.0661  0.4362
  523MOL0     C68960   7.299   9.824   6.438  0.1350  0.2738 -0.6012
  523MOL0     C68961   7.347   9.946   6.486 -0.3203 -0.6186 -1.0991
  523MOL0     O68962   7.481   9.951   6.524  0.5789  0.1099 -0.5586
  523MOL0     C68963   7.502  10.050   6.629 -0.4149 -0.6422  0.2298
  523MOL0     C68964   7.633  10.018   6.708  1.1164 -0.5208 -0.8246
  523MOL0     C68965   7.657  10.120   6.819  0.1531 -0.1083  0.3924
  523MOL0     C68966   7.691  10.253   6.760 -0.2918 -0.8800  0.3968
  523MOL0     C68967   7.736  10.350   6.864  0.7512  0.6384  0.0596
  523MOL0     C68968   7.788  10.423   6.940 -0.3341 -0.1454  0.1376
  523MOL0     C68969   7.265  10.066   6.475 -0.8894  0.2719 -0.8823
  523MOL0     C68970   7.132  10.049   6.426 -0.8833  0.1433  0.3657
  523MOL0     H68971   6.810   9.621   6.124  0.9375  1.5250 -0.0529
  523MOL0     H68972   6.600   9.518   6.126  0.6221  2.2095 -1.6693
  523MOL0     H68973   6.436   9.341   6.261 -0.9849 -0.2965  0.2975
  523MOL0     H68974   6.365   9.460   6.154 -0.3231 -0.2176  0.0131
  523MOL0     H68975   6.206   9.275   6.253  0.2396 -0.8084  1.6175
  523MOL0     H68976   6.150   9.439   6.297  0.3325 -0.9286 -0.8180
  523MOL0     H68977   6.277   9.428   6.504  0.0815 -0.5043  0.6954
  523MOL0     H68978   6.330   9.261   6.460  1.9173  0.9615 -0.0231
  523MOL0     H68979   6.047   9.329   6.518 -0.7690 -1.0413 -0.6775
  523MOL0     H68980   6.122   9.162   6.475  1.2595 -0.1533  0.0074
  523MOL0     H68981   6.135   9.335   6.725 -2.8436 -0.1605  1.0251
  523MOL0     H68982   6.236   9.197   6.692  0.6303  2.9139  0.0611
  523MOL0     H68983   6.056   9.056   6.676  0.4524  0.5626  0.5876
  523MOL0     H68984   5.936   9.197   6.700  0.1127  3.7674  4.1855
  523MOL0     H68985   6.117   9.078   6.905  0.0939 -1.8847 -6.2955
  523MOL0     H68986   6.031   9.245   6.926  2.4537 -0.0495  0.8001
  523MOL0     H68987   5.910   9.023   7.024  0.7101  2.0383  1.1272
  523MOL0     H68988   5.892   8.982   6.851 -2.6382 -0.0788  1.4044
  523MOL0     H68989   5.860   9.293   7.076 -0.0478  1.2359 -0.0346
  523MOL0     H68990   5.652   9.443   7.131 -0.4160 -2.2748 -0.0373
  523MOL0     H68991   5.519   9.429   7.010 -0.2210 -2.3243  1.2511
  523MOL0     H68992   5.667   9.600   6.875  0.9824 -0.5333 -0.5060
  523MOL0     H68993   5.788   9.591   6.996 -1.4294  0.9746  0.3403
  523MOL0     H68994   5.652   9.797   7.023  2.6853  1.2071  3.8725
  523MOL0     H68995   5.504   9.704   7.023  0.9538  2.2363 -0.4934
  523MOL0     H68996   5.547   9.609   7.240  1.3574 -1.2343 -0.7086
  523MOL0     H68997   5.563   9.782   7.253 -2.4676 -1.2281 -1.0839
  523MOL0     H68998   5.935   9.658   7.400 -1.6186 -0.1761 -1.0236
  523MOL0     H68999   6.137   9.833   7.433 -1.1982  0.1102  2.4243
  523MOL0     H69000   6.324  10.126   7.131 -1.0213  0.1516 -3.1418
  523MOL0     H69001   6.486  10.286   7.054 -1.9175 -0.6866 -1.7230
  523MOL0     H69002   6.632  10.430   7.138  1.3516  0.0663 -0.3131
  523MOL0     H69003   6.692  10.591   7.100  0.2809  0.1437 -0.5806
  523MOL0     H69004   6.681  10.536   6.862 -0.9846 -1.2784 -1.5689
  523MOL0     H69005   6.598  10.379   6.897 -0.9169 -1.0420  2.9810
  523MOL0     H69006   6.813  10.316   7.037  3.0172  0.3252 -0.8047
  523MOL0     H69007   6.880  10.452   6.978  1.3155  0.0695 -0.3714
  523MOL0     H69008   6.763  10.200   6.835  0.1798 -0.9156  2.1314
  523MOL0     H69009   6.825  10.338   6.743  0.4442 -2.3081 -1.3730
  523MOL0     H69010   6.994  10.155   6.761 -0.0176  0.2788 -0.9716
  523MOL0     H69011   6.999  10.161   6.940 -1.6385 -0.1485 -0.0518
  523MOL0     H69012   7.072  10.414   6.889 -1.7540  1.4069 -3.7191
  523MOL0     H69013   7.084  10.361   6.727  1.5623 -0.2970  0.0595
  523MOL0     H69014   7.233  10.203   6.957 -0.2371 -1.7532 -1.5604
  523MOL0     H69015   7.271  10.213   6.783  1.5631  0.0489  0.6053
  523MOL0     H69016   7.325  10.457   6.825 -1.8166 -0.4420 -0.2624
  523MOL0     H69017   7.433  10.344   6.903  1.2590  1.0383  1.1528
  523MOL0     H69018   6.253  10.623   7.185  0.8764 -0.3579  1.9959
  523MOL0     H69019   6.076  10.471   7.255 -0.6009  0.9940 -3.9791
  523MOL0     H69020   5.886  10.101   7.198  0.5189 -0.3521  0.6609
  523MOL0     H69021   5.714   9.937   7.176  1.6790 -0.5177 -2.3223
  523MOL0     H69022   6.510   9.702   6.506  0.1378 -2.0595  0.2628
  523MOL0     H69023   6.727   9.827   6.487 -2.0153 -1.4512  2.0895
  523MOL0     H69024   7.143   9.709   6.367  2.6025 -0.9640  2.0477
  523MOL0     H69025   7.366   9.738   6.435  0.2744  0.4075 -1.7928
  523MOL0     H69026   7.417  10.072   6.694 -0.6951 -2.2390  0.4341
  523MOL0     H69027   7.527  10.146   6.581 -0.0571 -0.5733  0.5520
  523MOL0     H69028   7.607   9.920   6.750 -1.9037  0.0679 -1.0590
  523MOL0     H69029   7.718  10.011   6.639  1.4836 -0.0681 -0.4161
  523MOL0     H69030   7.736  10.089   6.888  0.9302 -0.6112 -0.6967
  523MOL0     H69031   7.562  10.123   6.872 -1.3101 -0.6454 -2.0371
  523MOL0     H69032   7.758  10.245   6.674  0.2022  2.5163  0.3157
  523MOL0     H69033   7.602  10.305   6.722  0.2516 -0.1748  0.0748
  523MOL0     H69034   7.850  10.488   7.000  1.8078 -3.1486  1.4390
  523MOL0     H69035   7.305  10.164   6.502  1.3615  0.1983 -3.5438
  523MOL0     H69036   7.079  10.140   6.402  1.2514  1.4163  0.2061
  524MOL0     O69037   4.244   7.482   4.892 -0.2006 -0.1234 -0.3833
  524MOL0     C69038   4.270   7.566   4.808 -0.3884  0.4506 -0.1521
  524MOL0     O69039   4.174   7.619   4.727  0.5946 -0.0080  0.4139
  524MOL0     C69040   4.044   7.608   4.764 -0.4240  0.3177  0.1967
  524MOL0     C69041   3.956   7.521   4.692  0.3492  0.5951  0.2412
  524MOL0     C69042   3.817   7.513   4.725  0.7195  0.2510  0.9275
  524MOL0     C69043   3.773   7.570   4.840 -0.9815 -0.2722  0.8887
  524MOL0     O69044   3.643   7.579   4.865  0.2474 -0.1004 -0.0659
  524MOL0     C69045   3.555   7.621   4.758  0.5006 -0.6077  0.5456
  524MOL0     C69046   3.455   7.527   4.700  0.1910 -0.7343  0.7999
  524MOL0     C69047   3.353   7.607   4.615  0.3757  0.2557 -0.2636
  524MOL0     C69048   3.230   7.513   4.595  0.1446 -0.1407 -0.7650
  524MOL0     C69049   3.141   7.569   4.490 -0.2117  0.1822 -0.2110
  524MOL0     C69050   3.046   7.673   4.549 -0.7844 -0.1239 -0.0554
  524MOL0     C69051   2.945   7.748   4.460 -0.3820  0.4217 -0.2217
  524MOL0     C69052   2.860   7.678   4.355 -0.0040 -0.1700  0.5866
  524MOL0     N69053   2.746   7.611   4.413 -0.1572 -0.1780 -0.0638
  524MOL0     C69054   2.633   7.673   4.467 -0.3272  0.0050 -0.6410
  524MOL0     C69055   2.540   7.572   4.473  0.9803 -0.0112  0.0032
  524MOL0     C69056   2.398   7.593   4.526  0.5123  1.0085 -1.2782
  524MOL0     C69057   2.394   7.592   4.680 -0.3819  0.3770 -0.4665
  524MOL0     C69058   2.407   7.445   4.722  0.3393  0.1027 -0.4153
  524MOL0     C69059   2.432   7.424   4.871 -0.3429  0.4418 -0.5326
  524MOL0     O69060   2.410   7.285   4.920 -0.3074 -0.2094 -0.2988
  524MOL0     C69061   2.283   7.232   4.945 -0.8181  0.0882  0.3719
  524MOL0     C69062   2.285   7.102   4.995 -0.3310  0.5051 -0.3649
  524MOL0     C69063   2.171   7.048   5.048 -0.3288  0.0577  0.4027
  524MOL0     C69064   2.045   7.112   5.037  0.1135 -0.1320  0.5188
  524MOL0     C69065   1.923   7.032   5.076 -0.3841  0.4661  0.0393
  524MOL0     O69066   1.950   6.913   5.122  1.4271  0.0130 -0.0968
  524MOL0     C69067   1.853   6.821   5.170  0.3734  0.8454  0.1731
  524MOL0     C69068   1.714   6.832   5.170  0.4185 -0.4536  0.3752
  524MOL0     C69069   1.634   6.738   5.226  0.2145  0.1688 -0.3959
  524MOL0     C69070   1.681   6.618   5.289 -0.2837  0.7135  0.1793
  524MOL0     O69071   1.614   6.528   5.362 -0.8301  0.3942  0.3537
  524MOL0     C69072   1.480   6.490   5.322  0.3310  0.1318 -0.0859
  524MOL0     C69073   1.469   6.351   5.372  0.3617 -0.8399  0.9290
  524MOL0     C69074   1.323   6.307   5.361 -0.0783  0.1706 -0.7584
  524MOL0     C69075   1.311   6.164   5.418  0.6382  1.2732  0.6371
  524MOL0     C69076   1.167   6.123   5.437  0.3601 -0.6641 -1.0168
  524MOL0     C69077   1.119   6.077   5.302 -0.2484 -0.0413  0.1131
  524MOL0     C69078   0.971   6.031   5.305 -0.2207 -0.2237 -0.2447
  524MOL0     C69079   0.868   6.134   5.355  0.0519 -1.0553 -0.7286
  524MOL0    Cl69080   0.713   6.077   5.314 -0.5159  0.1043 -0.1449
  524MOL0     C69081   1.823   6.605   5.283 -0.3329  0.1395 -0.2913
  524MOL0     C69082   1.907   6.698   5.220 -0.4948  0.5476  0.4256
  524MOL0     O69083   1.813   7.077   5.051 -0.7148 -0.1725 -0.4075
  524MOL0     C69084   2.039   7.237   4.976  0.0030 -0.0725  0.4128
  524MOL0     C69085   2.162   7.301   4.927  0.0345  0.2608 -0.4139
  524MOL0     N69086   2.588   7.460   4.413  0.1689 -0.3836  0.5859
  524MOL0     N69087   2.719   7.479   4.389  0.5373  0.5378  0.6641
  524MOL0     C69088   3.860   7.646   4.913  0.6530 -0.0289 -0.7554
  524MOL0     C69089   3.989   7.663   4.881  0.4542  0.1779  0.5962
  524MOL0     C69090   4.409   7.595   4.782 -0.6283 -0.2483  0.0732
  524MOL0     C69091   4.466   7.666   4.672  0.0011 -0.1022  0.1751
  524MOL0     C69092   4.599   7.717   4.666 -0.0000  0.0913 -0.1895
  524MOL0     C69093   4.696   7.672   4.768 -0.1539  0.3180  0.2138
  524MOL0     O69094   4.824   7.702   4.764 -1.0543 -0.4014  0.4588
  524MOL0     C69095   4.910   7.585   4.780 -0.2469 -0.5505  0.4525
  524MOL0     C69096   5.043   7.607   4.704 -0.2246  0.1797 -0.8081
  524MOL0     C69097   5.014   7.619   4.554 -0.5963 -0.1504 -0.4927
  524MOL0     C69098   5.155   7.632   4.487  0.2971 -0.6223 -0.0509
  524MOL0     C69099   5.241   7.740   4.525 -0.1581 -0.2022 -0.6507
  524MOL0     C69100   5.325   7.826   4.546 -0.0324  0.0506  1.0049
  524MOL0     C69101   4.640   7.604   4.882  0.2388 -0.7277 -0.2587
  524MOL0     C69102   4.505   7.567   4.885  0.1170  0.1262 -0.2110
  524MOL0     H69103   3.989   7.468   4.603  2.7465  0.9902  0.8399
  524MOL0     H69104   3.751   7.447   4.668  2.3654 -1.6112  1.0504
  524MOL0     H69105   3.624   7.666   4.687 -1.4329  1.0062 -0.3958
  524MOL0     H69106   3.504   7.710   4.796 -0.5176 -0.9239 -0.0438
  524MOL0     H69107   3.394   7.480   4.778  0.4209  1.1145  2.1697
  524MOL0     H69108   3.515   7.460   4.638  0.7587  2.3941 -2.3672
  524MOL0     H69109   3.400   7.646   4.524  1.0820  2.4482  0.9524
  524MOL0     H69110   3.312   7.687   4.679 -1.7676  0.3100 -1.6030
  524MOL0     H69111   3.264   7.416   4.556 -1.2857  0.1588 -2.9095
  524MOL0     H69112   3.185   7.494   4.693  1.3632  1.3473  0.1262
  524MOL0     H69113   3.097   7.481   4.442 -0.7379  1.7258 -2.7454
  524MOL0     H69114   3.192   7.609   4.403 -0.5257  1.7928  0.3106
  524MOL0     H69115   3.100   7.756   4.595 -0.0570 -0.4208 -0.3641
  524MOL0     H69116   2.991   7.624   4.630  0.2244  1.3162  1.5649
  524MOL0     H69117   2.906   7.819   4.534  1.7813  1.6446 -0.1556
  524MOL0     H69118   3.012   7.815   4.407 -1.3717  0.2003 -1.8263
  524MOL0     H69119   2.921   7.598   4.311  0.4154 -0.4237  1.5996
  524MOL0     H69120   2.825   7.745   4.276 -0.4958  1.6897  2.3179
  524MOL0     H69121   2.611   7.774   4.500 -4.9394 -0.9313 -0.2055
  524MOL0     H69122   2.327   7.523   4.481  0.6093  1.5697 -2.3313
  524MOL0     H69123   2.356   7.689   4.495 -0.0593  1.5396  0.9818
  524MOL0     H69124   2.296   7.635   4.703 -0.1830  1.1526 -1.0504
  524MOL0     H69125   2.475   7.653   4.720  0.6349  0.8696 -3.0913
  524MOL0     H69126   2.315   7.397   4.688  0.8663 -1.4068  0.2109
  524MOL0     H69127   2.483   7.390   4.666 -2.5947 -3.1167 -1.5627
  524MOL0     H69128   2.373   7.497   4.926  0.4913  1.6779 -1.2252
  524MOL0     H69129   2.537   7.437   4.897 -0.3812 -0.4479  0.1338
  524MOL0     H69130   2.380   7.050   5.008  0.2417  1.5137 -0.4224
  524MOL0     H69131   2.183   6.944   5.077  1.1532  0.7029  2.4141
  524MOL0     H69132   1.665   6.924   5.138  0.4451  0.1810  2.0784
  524MOL0     H69133   1.526   6.751   5.221 -0.8065 -4.9113  1.8923
  524MOL0     H69134   1.457   6.505   5.216  2.8195  1.7198 -0.5026
  524MOL0     H69135   1.407   6.546   5.380 -2.4943 -1.8182 -1.5140
  524MOL0     H69136   1.484   6.341   5.480 -5.9963  0.9444  2.4530
  524MOL0     H69137   1.542   6.286   5.322 -0.8875 -0.8308 -1.0382
  524MOL0     H69138   1.280   6.317   5.261 -1.4486  0.8392 -0.1310
  524MOL0     H69139   1.263   6.375   5.422  0.9180 -0.1569  0.6642
  524MOL0     H69140   1.359   6.099   5.344  0.0490  0.0882  1.2600
  524MOL0     H69141   1.370   6.155   5.510 -0.5186  1.1883  1.4010
  524MOL0     H69142   1.115   6.214   5.466  1.4444 -0.4233  0.2880
  524MOL0     H69143   1.151   6.044   5.511 -0.1934  0.9853  0.6933
  524MOL0     H69144   1.174   5.996   5.254 -0.7745  0.0333 -0.6335
  524MOL0     H69145   1.130   6.165   5.237 -3.5971  1.6531  1.5913
  524MOL0     H69146   0.964   6.000   5.200 -0.6529 -1.2554  0.0693
  524MOL0     H69147   0.954   5.938   5.361 -0.9856  0.3100  0.4357
  524MOL0     H69148   0.875   6.231   5.306  2.2276 -1.3182 -1.0492
  524MOL0     H69149   0.881   6.144   5.464  1.4435 -0.6069 -0.9134
  524MOL0     H69150   1.873   6.515   5.318  1.1828  1.6282  1.6460
  524MOL0     H69151   2.014   6.681   5.218 -0.2822  1.7312  0.9117
  524MOL0     H69152   1.939   7.277   4.958  0.0985 -0.0340 -0.0402
  524MOL0     H69153   2.162   7.402   4.889 -1.1671  1.4187  2.4231
  524MOL0     H69154   3.817   7.683   5.006 -1.1264 -2.8524 -0.3345
  524MOL0     H69155   4.054   7.723   4.945 -1.0612  1.3919  1.0586
  524MOL0     H69156   4.397   7.696   4.595 -0.5041 -1.6355 -0.0062
  524MOL0     H69157   4.633   7.772   4.580 -3.2421  0.3215 -1.4281
  524MOL0     H69158   4.855   7.502   4.736 -0.7757  0.8244 -1.6659
  524MOL0     H69159   4.926   7.579   4.888 -0.5461  0.6670  0.5809
  524MOL0     H69160   5.088   7.695   4.751 -1.4496  0.1795  0.4449
  524MOL0     H69161   5.108   7.522   4.727  0.5598  0.8216 -0.6086
  524MOL0     H69162   4.947   7.704   4.540 -1.2371 -0.7461 -1.1117
  524MOL0     H69163   4.952   7.541   4.509 -0.6590  0.4971 -1.5552
  524MOL0     H69164   5.205   7.535   4.496  0.9683 -0.6359 -2.9871
  524MOL0     H69165   5.133   7.646   4.381  0.7104  1.3752  0.0859
  524MOL0     H69166   5.403   7.899   4.554  1.3630 -1.3277  0.5055
  524MOL0     H69167   4.702   7.559   4.959 -0.2464 -0.8441  0.0676
  524MOL0     H69168   4.478   7.506   4.970 -1.6771  3.4528  1.8133
  525MOL0     O69169   8.338   5.599   8.685  0.7896  0.5425 -0.0097
  525MOL0     C69170   8.401   5.694   8.647  0.6327 -0.5968 -0.0083
  525MOL0     O69171   8.341   5.814   8.604  0.6235  0.2199 -0.2610
  525MOL0     C69172   8.209   5.837   8.617 -0.2055 -0.2243 -0.2577
  525MOL0     C69173   8.178   5.976   8.609  0.2843  0.0225  0.5987
  525MOL0     C69174   8.044   6.031   8.622  0.1813  0.2438 -0.5067
  525MOL0     C69175   7.940   5.940   8.633 -0.0807  0.8613 -0.3618
  525MOL0     O69176   7.810   5.975   8.657 -0.3339  0.4961 -0.4777
  525MOL0     C69177   7.729   6.035   8.552  0.2163  0.3379 -0.5645
  525MOL0     C69178   7.681   5.930   8.451 -0.6027 -0.1102  0.7369
  525MOL0     C69179   7.572   5.840   8.514 -0.5356 -0.2078 -0.1303
  525MOL0     C69180   7.515   5.730   8.428  0.1147  0.1240 -0.0089
  525MOL0     C69181   7.406   5.650   8.499 -0.3837 -0.8179  0.0192
  525MOL0     C69182   7.300   5.730   8.575 -0.0948 -0.7931  0.6437
  525MOL0     C69183   7.174   5.652   8.605 -0.3839  0.7086  0.1597
  525MOL0     C69184   7.073   5.747   8.671  0.6963 -0.0455  0.2167
  525MOL0     N69185   6.932   5.694   8.680  0.2945  0.4107  0.2084
  525MOL0     C69186   6.872   5.676   8.802 -0.5419 -0.2506  0.4086
  525MOL0     C69187   6.741   5.646   8.783  0.5403  0.2604  0.2337
  525MOL0     C69188   6.639   5.624   8.893  0.5270  0.6671 -0.6487
  525MOL0     C69189   6.499   5.637   8.836  0.1249 -0.8858  0.5335
  525MOL0     C69190   6.388   5.661   8.942  0.0183 -0.1998 -0.1095
  525MOL0     C69191   6.255   5.633   8.886  0.7000  0.7794  0.1779
  525MOL0     O69192   6.211   5.707   8.771 -0.6362  0.3077 -0.3053
  525MOL0     C69193   6.111   5.659   8.695  0.0728  0.1338 -0.5760
  525MOL0     C69194   6.085   5.719   8.574 -0.6954 -0.6862  0.6030
  525MOL0     C69195   6.007   5.659   8.471 -0.1635  0.3077  0.3296
  525MOL0     C69196   5.918   5.556   8.510  0.2786 -0.2369  0.1736
  525MOL0     C69197   5.807   5.516   8.425 -0.1346  0.9677 -0.3335
  525MOL0     O69198   5.757   5.617   8.354  0.2373  0.1281 -0.1691
  525MOL0     C69199   5.645   5.598   8.280 -0.2423  0.5777  0.4018
  525MOL0     C69200   5.521   5.604   8.334  0.1680  0.7325 -0.6566
  525MOL0     C69201   5.411   5.582   8.253  0.5169 -0.3851  0.1937
  525MOL0     C69202   5.432   5.539   8.117 -0.3174 -0.1791  0.0916
  525MOL0     O69203   5.321   5.516   8.043  0.3157  0.6712  0.4639
  525MOL0     C69204   5.317   5.600   7.927  0.3823 -1.3030  0.8001
  525MOL0     C69205   5.357   5.525   7.796  0.0521 -0.1920  0.7779
  525MOL0     C69206   5.253   5.534   7.683  0.5739  0.7025  1.0592
  525MOL0     C69207   5.323   5.504   7.540  0.0326  1.0846  0.0124
  525MOL0     C69208   5.210   5.486   7.424  0.9171 -0.4745  0.5497
  525MOL0     C69209   5.132   5.612   7.394 -0.1550 -0.3600 -0.4400
  525MOL0     C69210   5.069   5.605   7.254 -0.0305  0.0508 -0.2282
  525MOL0     C69211   4.957   5.712   7.228  0.0189 -0.0899  0.0343
  525MOL0    Cl69212   4.905   5.691   7.053  0.4889  0.1103 -0.2638
  525MOL0     C69213   5.554   5.529   8.069  0.1912 -0.1298  0.1413
  525MOL0     C69214   5.661   5.575   8.143 -0.8060 -0.0097 -0.4073
  525MOL0     O69215   5.757   5.401   8.434  0.2853 -0.5097  0.0957
  525MOL0     C69216   5.925   5.511   8.638  0.5063  0.1535 -0.3987
  525MOL0     C69217   6.023   5.554   8.725 -0.6511 -0.3281 -0.5089
  525MOL0     N69218   6.722   5.654   8.644 -0.0446 -0.1961 -0.3470
  525MOL0     N69219   6.836   5.686   8.586 -0.5379 -0.4397 -0.3887
  525MOL0     C69220   7.972   5.801   8.640  0.8481  0.0138  0.1567
  525MOL0     C69221   8.097   5.749   8.626 -0.2324 -0.7782  0.6653
  525MOL0     C69222   8.536   5.662   8.621  0.3241 -0.1978 -0.1547
  525MOL0     C69223   8.585   5.532   8.631 -0.4017  0.6851 -0.2944
  525MOL0     C69224   8.710   5.498   8.594  0.4333 -0.7454 -0.9425
  525MOL0     C69225   8.805   5.597   8.563  0.0048 -0.0696  0.7587
  525MOL0     O69226   8.930   5.554   8.530  0.8019 -0.4988 -0.1955
  525MOL0     C69227   9.019   5.661   8.504  0.0469 -0.0538  0.0764
  525MOL0     C69228   9.139   5.582   8.463  0.5239  0.2443  0.2225
  525MOL0     C69229   9.275   5.656   8.452  0.2037 -0.8417 -0.1211
  525MOL0     C69230   9.273   5.773   8.358  1.2501 -0.4354 -0.0128
  525MOL0     C69231   9.386   5.789   8.268  0.1573  0.2089  0.1135
  525MOL0     C69232   9.472   5.801   8.182 -0.1278 -0.8329  0.9717
  525MOL0     C69233   8.764   5.732   8.558 -0.1772  0.5463 -0.4015
  525MOL0     C69234   8.634   5.761   8.593  0.3454 -0.1654  0.2950
  525MOL0     H69235   8.255   6.048   8.585 -0.6195  0.1856 -2.1359
  525MOL0     H69236   8.021   6.137   8.620 -0.4850  0.1227  0.3815
  525MOL0     H69237   7.774   6.110   8.486 -2.6323  2.7921  0.0567
  525MOL0     H69238   7.642   6.072   8.607 -0.9019 -2.9453  0.1325
  525MOL0     H69239   7.764   5.870   8.413 -0.5580  0.8604 -0.7806
  525MOL0     H69240   7.634   5.990   8.373 -0.0876 -1.9293 -1.0546
  525MOL0     H69241   7.484   5.895   8.551 -1.3443 -0.7416 -1.2009
  525MOL0     H69242   7.624   5.796   8.600 -1.1137 -1.4888 -0.4124
  525MOL0     H69243   7.463   5.778   8.344  1.1839 -3.2095 -2.8496
  525MOL0     H69244   7.599   5.667   8.397  1.0360  0.2278  2.1526
  525MOL0     H69245   7.460   5.594   8.575  2.5160  0.1557 -1.1677
  525MOL0     H69246   7.369   5.577   8.426  2.1096  0.3044 -2.5268
  525MOL0     H69247   7.282   5.816   8.510  2.2318 -1.3520 -0.8964
  525MOL0     H69248   7.352   5.761   8.666 -1.9088  0.8392  1.1850
  525MOL0     H69249   7.127   5.610   8.516 -2.7144  1.6884  0.8481
  525MOL0     H69250   7.209   5.564   8.661 -0.6950  0.9413  0.7319
  525MOL0     H69251   7.079   5.841   8.617  2.4512 -0.3314 -0.1312
  525MOL0     H69252   7.115   5.765   8.770 -2.2307  2.1411  1.2256
  525MOL0     H69253   6.914   5.668   8.902 -1.2217  1.5519  0.8695
  525MOL0     H69254   6.658   5.701   8.967  0.2411 -0.1832  0.3339
  525MOL0     H69255   6.652   5.531   8.950 -1.0669  0.6788 -0.2234
  525MOL0     H69256   6.469   5.563   8.762 -0.0462  2.2705 -2.8843
  525MOL0     H69257   6.500   5.716   8.760  0.9588 -0.0791  1.3604
  525MOL0     H69258   6.396   5.595   9.029 -0.3134  2.9737  2.5588
  525MOL0     H69259   6.402   5.760   8.987 -1.7305  0.0524 -0.0798
  525MOL0     H69260   6.183   5.664   8.961 -0.7875 -0.8575 -0.5146
  525MOL0     H69261   6.238   5.526   8.870 -0.7213  1.2068 -1.5384
  525MOL0     H69262   6.130   5.812   8.540 -0.9574 -0.9421 -0.4795
  525MOL0     H69263   5.990   5.713   8.379 -2.4744  1.2647  1.2575
  525MOL0     H69264   5.518   5.620   8.442  0.9254 -2.3326 -0.0990
  525MOL0     H69265   5.307   5.601   8.281  0.0614  0.5349 -1.9298
  525MOL0     H69266   5.374   5.691   7.949 -0.0986 -1.2925  2.0740
  525MOL0     H69267   5.213   5.633   7.914  0.6826  0.0566  1.5973
  525MOL0     H69268   5.375   5.421   7.824  1.8245 -0.5075 -1.1993
  525MOL0     H69269   5.452   5.565   7.759  2.0772 -2.6694  2.9158
  525MOL0     H69270   5.202   5.631   7.676  2.1066  1.5219  0.6087
  525MOL0     H69271   5.172   5.464   7.702  0.9542  0.1866  0.7981
  525MOL0     H69272   5.386   5.593   7.527 -0.6863  1.8438  1.4048
  525MOL0     H69273   5.392   5.420   7.537  1.0988  1.8825 -4.6445
  525MOL0     H69274   5.141   5.401   7.436  0.6439 -0.5833 -1.5300
  525MOL0     H69275   5.274   5.465   7.338  4.9896 -0.7052  3.3341
  525MOL0     H69276   5.207   5.691   7.401 -0.8934  0.3247 -0.1247
  525MOL0     H69277   5.058   5.631   7.472 -0.4462  0.6794 -0.9499
  525MOL0     H69278   5.147   5.609   7.177  1.7934 -1.0438  1.5051
  525MOL0     H69279   5.023   5.507   7.238  0.3112  0.1948 -2.5183
  525MOL0     H69280   5.003   5.810   7.244  0.2986  0.0626 -1.5252
  525MOL0     H69281   4.872   5.715   7.296 -1.8033 -1.5841 -2.0544
  525MOL0     H69282   5.552   5.484   7.971 -0.1732 -3.1753  1.4422
  525MOL0     H69283   5.764   5.573   8.108 -0.8259  3.2878 -1.0468
  525MOL0     H69284   5.860   5.432   8.675  0.1778  1.3775  1.7897
  525MOL0     H69285   6.032   5.501   8.819  0.9912 -0.9305 -0.9582
  525MOL0     H69286   7.888   5.731   8.646  1.3345 -0.9311 -2.3910
  525MOL0     H69287   8.119   5.643   8.638  1.6914 -0.6221 -0.8927
  525MOL0     H69288   8.520   5.459   8.679 -3.1725  4.0188  1.4286
  525MOL0     H69289   8.753   5.398   8.591  3.6157  0.4752 -0.2186
  525MOL0     H69290   9.029   5.727   8.591 -1.6135 -1.4347  1.4036
  525MOL0     H69291   8.983   5.712   8.414  0.4123  2.0007  1.0335
  525MOL0     H69292   9.166   5.508   8.539 -0.9315  2.0785  2.6934
  525MOL0     H69293   9.117   5.531   8.369  1.6944 -0.3967  0.2746
  525MOL0     H69294   9.345   5.575   8.429  0.5703 -0.4203 -0.4972
  525MOL0     H69295   9.309   5.697   8.547 -1.9827 -1.0999  0.8201
  525MOL0     H69296   9.186   5.766   8.291  0.2668  2.0557  0.8796
  525MOL0     H69297   9.266   5.870   8.409  0.5858  0.0388 -0.9562
  525MOL0     H69298   9.547   5.833   8.112 -3.4273  2.1412 -1.6182
  525MOL0     H69299   8.828   5.808   8.514 -0.9265  0.5851 -1.4728
  525MOL0     H69300   8.608   5.865   8.577  1.0150  1.0089  5.2389
  526MOL0     O69301   3.025   2.329   2.652  0.3818  0.1641 -0.3295
  526MOL0     C69302   2.963   2.364   2.555 -0.4873  0.2075  0.0992
  526MOL0     O69303   2.832   2.399   2.552  1.1107 -0.2479  0.2710
  526MOL0     C69304   2.747   2.381   2.666  0.9537 -0.5191  0.0970
  526MOL0     C69305   2.653   2.478   2.714 -0.1493  0.7657 -0.3074
  526MOL0     C69306   2.565   2.458   2.822  0.2355  0.4978 -0.1549
  526MOL0     C69307   2.576   2.345   2.901 -0.4620  0.0536 -0.2024
  526MOL0     O69308   2.508   2.345   3.016  0.8853 -0.2146 -0.2844
  526MOL0     C69309   2.562   2.269   3.132  0.6796  0.4750 -0.2705
  526MOL0     C69310   2.474   2.264   3.257  0.3663 -0.9230 -0.5054
  526MOL0     C69311   2.538   2.207   3.387 -0.1594 -0.1848 -0.0425
  526MOL0     C69312   2.444   2.205   3.507 -1.3224  0.7351  0.1351
  526MOL0     C69313   2.492   2.124   3.633 -0.5355 -0.6933 -0.2266
  526MOL0     C69314   2.494   1.971   3.607  0.9257 -0.7109  0.3031
  526MOL0     C69315   2.520   1.880   3.733  0.5959  0.3466  0.1851
  526MOL0     C69316   2.545   1.733   3.698  0.1557  0.3017 -0.2322
  526MOL0     N69317   2.633   1.669   3.797  1.0717 -0.0695  0.0469
  526MOL0     C69318   2.769   1.691   3.804  0.1012 -0.1779 -0.1683
  526MOL0     C69319   2.796   1.625   3.923 -0.4753  0.1337  0.6045
  526MOL0     C69320   2.924   1.634   3.998 -0.9158  0.1271 -0.5677
  526MOL0     C69321   2.919   1.769   4.071  0.1964 -0.9077 -0.9326
  526MOL0     C69322   2.821   1.782   4.188 -0.5426  0.3486  0.6918
  526MOL0     C69323   2.676   1.830   4.149 -0.3171  0.4441 -0.6837
  526MOL0     O69324   2.672   1.972   4.158  0.5838  0.7758 -0.1685
  526MOL0     C69325   2.556   2.044   4.136  0.0263  0.4123 -1.1248
  526MOL0     C69326   2.576   2.183   4.137  0.0507  0.8508  0.2525
  526MOL0     C69327   2.470   2.262   4.093  0.3487 -0.4959  0.3019
  526MOL0     C69328   2.343   2.211   4.064 -0.5922 -0.0480 -0.0281
  526MOL0     C69329   2.227   2.285   4.027 -0.4494  0.5981 -0.8846
  526MOL0     O69330   2.242   2.393   3.952 -0.6210  0.1092 -0.0891
  526MOL0     C69331   2.121   2.452   3.915 -0.7053 -0.6570 -0.0406
  526MOL0     C69332   2.064   2.551   3.995 -0.5072  0.6739  0.0204
  526MOL0     C69333   1.937   2.605   3.956 -0.3425  0.1397 -0.4742
  526MOL0     C69334   1.879   2.553   3.838  0.4619 -0.3733 -0.4631
  526MOL0     O69335   1.752   2.606   3.817 -0.3374 -0.5906  0.5437
  526MOL0     C69336   1.670   2.526   3.731 -0.5959 -0.0631  0.3416
  526MOL0     C69337   1.528   2.577   3.745 -0.4177  0.0739  1.1037
  526MOL0     C69338   1.501   2.725   3.738  0.3010 -0.4469  0.1986
  526MOL0     C69339   1.353   2.761   3.762 -0.7866  0.7881 -0.2629
  526MOL0     C69340   1.337   2.916   3.736  0.6219 -0.2062  0.0264
  526MOL0     C69341   1.199   2.970   3.783 -0.1225 -0.1038  0.2552
  526MOL0     C69342   1.081   2.921   3.694 -0.1190 -0.3744 -0.1971
  526MOL0     C69343   1.040   3.014   3.580 -0.0978 -1.1495  0.3610
  526MOL0    Cl69344   0.925   2.913   3.484 -0.1822 -0.1399 -0.1604
  526MOL0     C69345   1.941   2.459   3.759  0.5565  0.1413 -0.3070
  526MOL0     C69346   2.067   2.415   3.794  0.0937  0.4976  0.0070
  526MOL0     O69347   2.122   2.235   4.070 -0.6095  0.5160  0.1816
  526MOL0     C69348   2.326   2.076   4.081  0.6102  0.8905 -0.0564
  526MOL0     C69349   2.432   1.988   4.115 -0.2604 -0.3819 -1.3734
  526MOL0     N69350   2.692   1.548   3.964  0.4772  0.5967 -0.3531
  526MOL0     N69351   2.590   1.571   3.891  0.7113  0.0142  0.1116
  526MOL0     C69352   2.676   2.253   2.862  0.9843 -0.3172 -0.7290
  526MOL0     C69353   2.755   2.264   2.752 -0.3008  0.1276  0.3852
  526MOL0     C69354   3.033   2.357   2.430  0.9727 -0.0888  0.7293
  526MOL0     C69355   3.154   2.291   2.409 -0.1647 -0.4365  0.2386
  526MOL0     C69356   3.225   2.283   2.291  0.1128 -0.1231  0.2075
  526MOL0     C69357   3.161   2.336   2.182 -0.0623 -0.1293  0.5126
  526MOL0     O69358   3.219   2.336   2.054 -0.0414  0.4603 -0.4390
  526MOL0     C69359   3.349   2.278   2.035 -0.2957  0.4092 -0.4896
  526MOL0     C69360   3.467   2.357   2.087 -0.6357  0.4238 -0.1534
  526MOL0     C69361   3.481   2.479   2.006 -0.7477  0.1169  0.4064
  526MOL0     C69362   3.622   2.546   2.034  0.4971 -0.3215 -0.2030
  526MOL0     C69363   3.655   2.647   1.929  0.3869  0.1423  0.3100
  526MOL0     C69364   3.688   2.733   1.850  0.3420  0.4526 -0.0459
  526MOL0     C69365   3.038   2.405   2.187 -0.8375  0.0360 -0.0142
  526MOL0     C69366   2.981   2.422   2.315 -0.5025  0.0720  0.3136
  526MOL0     H69367   2.644   2.578   2.673  1.3626  1.9310  2.0389
  526MOL0     H69368   2.488   2.529   2.852 -0.8379 -0.5852 -0.2993
  526MOL0     H69369   2.649   2.331   3.153  2.1296 -1.0054 -1.5859
  526MOL0     H69370   2.598   2.168   3.109 -4.1111 -1.2186 -1.5313
  526MOL0     H69371   2.390   2.201   3.226 -0.6943 -0.6690  1.6279
  526MOL0     H69372   2.428   2.361   3.278  1.9411 -0.0237 -1.1151
  526MOL0     H69373   2.628   2.262   3.418  0.1930 -0.5442 -0.4194
  526MOL0     H69374   2.577   2.107   3.365  1.7355  0.5327 -0.0982
  526MOL0     H69375   2.429   2.308   3.539  4.0196  2.5917 -2.1677
  526MOL0     H69376   2.352   2.153   3.481  0.1140 -2.1762  0.4656
  526MOL0     H69377   2.415   2.148   3.708  0.0268  3.5103 -0.7127
  526MOL0     H69378   2.585   2.170   3.668 -0.7240 -0.5072  0.0415
  526MOL0     H69379   2.541   1.933   3.516 -2.5047  1.5931 -2.7241
  526MOL0     H69380   2.388   1.952   3.592 -0.1327  0.1860  4.8950
  526MOL0     H69381   2.593   1.925   3.800  0.6526 -0.0089  0.3649
  526MOL0     H69382   2.426   1.873   3.788  0.6962 -3.6027  0.1333
  526MOL0     H69383   2.599   1.718   3.604  0.0702 -1.7741  0.0015
  526MOL0     H69384   2.449   1.683   3.684 -0.0418  0.2938  1.0779
  526MOL0     H69385   2.829   1.754   3.739 -0.0931 -1.4933 -1.6911
  526MOL0     H69386   3.020   1.629   3.946  1.6437  2.5258  3.4223
  526MOL0     H69387   2.928   1.547   4.064  0.5039 -1.1878 -2.2640
  526MOL0     H69388   2.907   1.854   4.003  0.5328 -0.2572 -0.1988
  526MOL0     H69389   3.019   1.784   4.111 -0.7134 -0.4410  1.3478
  526MOL0     H69390   2.820   1.681   4.230 -0.9697 -0.8622 -2.0173
  526MOL0     H69391   2.851   1.842   4.274  0.8854  1.7955 -0.7382
  526MOL0     H69392   2.602   1.803   4.225 -0.0780  2.3293  0.2974
  526MOL0     H69393   2.655   1.791   4.049  1.6259  0.4789 -1.1387
  526MOL0     H69394   2.672   2.230   4.158  0.8321 -0.8316  0.6664
  526MOL0     H69395   2.501   2.366   4.087  3.5361 -1.3433 -0.0938
  526MOL0     H69396   2.117   2.592   4.080  0.2302  2.6226 -1.3004
  526MOL0     H69397   1.885   2.685   4.008  3.0675  2.1197  0.1509
  526MOL0     H69398   1.685   2.419   3.742 -0.2960  0.1277  2.0649
  526MOL0     H69399   1.692   2.540   3.625 -0.0938 -1.1898  0.2867
  526MOL0     H69400   1.498   2.549   3.846 -1.7916 -1.0955  0.4086
  526MOL0     H69401   1.467   2.520   3.674 -0.9373 -0.4939  1.9959
  526MOL0     H69402   1.522   2.747   3.633 -3.7415 -2.2499 -1.1863
  526MOL0     H69403   1.567   2.777   3.809 -2.2423  2.3852  0.7067
  526MOL0     H69404   1.291   2.699   3.698 -3.2078  1.5840  1.1931
  526MOL0     H69405   1.328   2.736   3.866 -2.3401  0.4785 -0.6892
  526MOL0     H69406   1.343   2.920   3.627  1.1966 -0.6290  0.0368
  526MOL0     H69407   1.416   2.979   3.779  0.2761  0.7226 -0.6763
  526MOL0     H69408   1.186   3.078   3.771 -0.7059 -0.0756  1.0988
  526MOL0     H69409   1.177   2.958   3.889 -1.9440  2.8627  0.3233
  526MOL0     H69410   1.113   2.825   3.653  3.6147  0.2194  0.9234
  526MOL0     H69411   0.996   2.907   3.762  0.2879 -2.7784 -0.1179
  526MOL0     H69412   1.123   3.044   3.515  0.2439 -0.6996  1.0000
  526MOL0     H69413   0.986   3.103   3.612  0.9886 -0.6668  0.8730
  526MOL0     H69414   1.886   2.413   3.678 -0.4646  1.2085 -0.2580
  526MOL0     H69415   2.124   2.351   3.727 -3.3800 -1.9982 -0.8946
  526MOL0     H69416   2.230   2.026   4.072  0.8357 -0.4313  3.2219
  526MOL0     H69417   2.410   1.882   4.118 -0.2914 -0.4517 -3.1028
  526MOL0     H69418   2.690   2.165   2.923  0.4409 -0.0730 -0.2380
  526MOL0     H69419   2.813   2.181   2.715  0.6572  1.6857 -1.8291
  526MOL0     H69420   3.200   2.242   2.493  0.5605  0.1096  0.1630
  526MOL0     H69421   3.315   2.222   2.284 -1.9116 -3.1207 -3.7803
  526MOL0     H69422   3.378   2.269   1.930  0.7936 -0.9267 -0.1001
  526MOL0     H69423   3.356   2.178   2.078  1.7887 -0.3479 -2.3546
  526MOL0     H69424   3.452   2.380   2.193 -0.5495  1.0628 -0.2739
  526MOL0     H69425   3.553   2.291   2.075 -1.5173 -0.3795 -2.6001
  526MOL0     H69426   3.401   2.552   2.020 -1.9842  0.0756 -4.7071
  526MOL0     H69427   3.478   2.461   1.898 -1.5650 -0.9460  0.6002
  526MOL0     H69428   3.636   2.591   2.133 -1.1041  1.6931 -0.8160
  526MOL0     H69429   3.701   2.470   2.030  1.5905  0.8428 -1.7584
  526MOL0     H69430   3.725   2.799   1.774  2.8805 -2.0340 -1.1326
  526MOL0     H69431   2.994   2.443   2.095  1.2442  2.6082 -0.0618
  526MOL0     H69432   2.891   2.482   2.325 -1.1038 -0.9703  1.5358
  527MOL0     O69433   7.451   1.365   9.756 -0.2231 -0.0354  0.5244
  527MOL0     C69434   7.493   1.440   9.661 -0.0096  0.0145  0.1481
  527MOL0     O69435   7.418   1.522   9.579 -0.5085 -0.9710 -0.0036
  527MOL0     C69436   7.283   1.516   9.596  0.7817  0.7748  0.0869
  527MOL0     C69437   7.217   1.628   9.634  0.2918  0.5582  0.6160
  527MOL0     C69438   7.084   1.623   9.685  0.6730  0.1695  0.3505
  527MOL0     C69439   7.020   1.500   9.689  0.3255  0.2941  1.3332
  527MOL0     O69440   6.892   1.501   9.743 -0.0072 -0.1390 -0.1669
  527MOL0     C69441   6.804   1.387   9.732 -0.4777  1.1169 -0.4508
  527MOL0     C69442   6.687   1.408   9.817  0.0721  0.0297  0.4560
  527MOL0     C69443   6.588   1.523   9.770  0.4191  0.5950  1.2741
  527MOL0     C69444   6.473   1.476   9.679 -0.2256 -0.5770 -0.2642
  527MOL0     C69445   6.392   1.589   9.609  0.3464 -0.1418 -0.3488
  527MOL0     C69446   6.345   1.696   9.706  0.6755 -0.4437 -0.9395
  527MOL0     C69447   6.199   1.684   9.746 -0.6064  0.6617 -0.0606
  527MOL0     C69448   6.095   1.713   9.630 -0.5223 -0.1448 -0.5128
  527MOL0     N69449   5.958   1.671   9.666  0.6341 -0.6358  0.1780
  527MOL0     C69450   5.888   1.692   9.782  0.2430  0.3416  1.1243
  527MOL0     C69451   5.769   1.618   9.776 -0.7059  0.1401  0.1201
  527MOL0     C69452   5.659   1.606   9.872  0.2500  0.0968 -0.3341
  527MOL0     C69453   5.689   1.526   9.999 -0.5680 -0.2651 -0.0805
  527MOL0     C69454   5.627   1.387   9.999  0.1325  0.5719 -0.4568
  527MOL0     C69455   5.479   1.386   9.974 -0.3305  0.2958 -0.0796
  527MOL0     O69456   5.416   1.447  10.086 -0.0727 -0.2673  0.0999
  527MOL0     C69457   5.289   1.419  10.113 -0.3348  0.6865  0.0411
  527MOL0     C69458   5.196   1.371  10.024 -0.2511  0.8578 -0.4030
  527MOL0     C69459   5.063   1.349  10.063 -0.5137  0.7042 -0.1861
  527MOL0     C69460   5.013   1.378  10.190 -0.5372  0.0973 -0.6663
  527MOL0     C69461   4.872   1.366  10.231  0.1311  0.5166 -0.0590
  527MOL0     O69462   4.791   1.404  10.133 -0.3064 -0.1339  0.1778
  527MOL0     C69463   4.653   1.397  10.149  0.2293 -0.0726  0.4514
  527MOL0     C69464   4.589   1.288  10.224  0.1884 -0.1364  0.4611
  527MOL0     C69465   4.451   1.268  10.240  0.3746 -0.0899 -0.4386
  527MOL0     C69466   4.360   1.360  10.191  0.0036  0.3427 -0.3365
  527MOL0     O69467   4.230   1.327  10.215 -0.7654  0.4590  0.4384
  527MOL0     C69468   4.124   1.432  10.198  0.2018 -0.3345  0.4708
  527MOL0     C69469   3.993   1.398  10.259  0.6917  0.1663  0.2147
  527MOL0     C69470   3.899   1.518  10.253 -0.3429 -0.7016 -0.2062
  527MOL0     C69471   3.753   1.484  10.276 -1.1959  0.3303  0.4999
  527MOL0     C69472   3.651   1.602  10.251 -0.2629 -0.6560  0.4109
  527MOL0     C69473   3.512   1.551  10.296 -0.0027  0.1729  0.5515
  527MOL0     C69474   3.407   1.666  10.282 -0.2182 -0.7543  0.4474
  527MOL0     C69475   3.273   1.619  10.235 -0.3413 -0.2685  0.2861
  527MOL0    Cl69476   3.184   1.552  10.367  0.2772 -0.3423 -0.3380
  527MOL0     C69477   4.418   1.472  10.120 -0.1670 -0.6169 -0.5928
  527MOL0     C69478   4.557   1.481  10.093  0.4557 -0.9931 -0.4270
  527MOL0     O69479   4.845   1.343  10.348 -0.1237 -0.0231  0.6730
  527MOL0     C69480   5.109   1.452  10.275  0.6975  0.2839 -0.1922
  527MOL0     C69481   5.240   1.456  10.238 -0.6218 -0.3586 -0.8095
  527MOL0     N69482   5.770   1.564   9.648 -0.2828 -0.6060 -0.3354
  527MOL0     N69483   5.875   1.595   9.586 -0.6977 -0.1161  0.1323
  527MOL0     C69484   7.086   1.384   9.637 -0.2804 -0.1907  0.2693
  527MOL0     C69485   7.214   1.389   9.587 -0.8154  0.2944  0.5423
  527MOL0     C69486   7.640   1.425   9.629 -0.3350  0.4814  1.1751
  527MOL0     C69487   7.729   1.373   9.733  0.4782  1.0096  0.4322
  527MOL0     C69488   7.864   1.366   9.710 -0.3797 -0.9352  0.4093
  527MOL0     C69489   7.924   1.404   9.586 -0.6091 -0.6295  0.0772
  527MOL0     O69490   8.051   1.409   9.555 -0.3874 -0.0496 -0.6290
  527MOL0     C69491   8.145   1.409   9.658 -0.1300  0.4523  1.0877
  527MOL0     C69492   8.297   1.412   9.613  0.4454  0.1387  0.3031
  527MOL0     C69493   8.400   1.373   9.721 -0.4512  0.2176  0.2427
  527MOL0     C69494   8.550   1.399   9.680  1.0373 -0.1657  0.6212
  527MOL0     C69495   8.575   1.311   9.566 -0.1846  0.4709 -0.3885
  527MOL0     C69496   8.592   1.227   9.481 -0.4189 -0.4456 -0.4781
  527MOL0     C69497   7.839   1.447   9.484  0.4450 -0.2754 -0.6201
  527MOL0     C69498   7.700   1.470   9.512 -0.6428 -0.0118 -0.3976
  527MOL0     H69499   7.269   1.722   9.617  0.9615 -0.1460 -1.6077
  527MOL0     H69500   7.036   1.711   9.728  0.3633  0.2976 -0.2460
  527MOL0     H69501   6.861   1.305   9.778  0.0287  2.1623  0.8549
  527MOL0     H69502   6.772   1.363   9.631 -4.3331 -0.6256  1.0248
  527MOL0     H69503   6.738   1.418   9.914  0.9195  1.7135 -0.1096
  527MOL0     H69504   6.630   1.316   9.826  2.1029 -1.1225  2.7647
  527MOL0     H69505   6.649   1.608   9.737  2.3043 -0.9136  0.6976
  527MOL0     H69506   6.538   1.552   9.863 -2.2740 -0.5477  0.2657
  527MOL0     H69507   6.523   1.420   9.599 -1.4632 -1.5588 -0.3776
  527MOL0     H69508   6.407   1.415   9.741  1.8205  1.8285  4.8219
  527MOL0     H69509   6.307   1.542   9.559 -0.0870 -0.0423  0.2742
  527MOL0     H69510   6.461   1.641   9.542  1.1700  1.3908  1.5834
  527MOL0     H69511   6.359   1.797   9.664 -0.4592  0.6477  1.1438
  527MOL0     H69512   6.399   1.715   9.798 -1.4058  1.7307 -0.0306
  527MOL0     H69513   6.182   1.586   9.792 -1.4284  0.6624 -0.3582
  527MOL0     H69514   6.183   1.760   9.823  0.3264  0.6504  0.1558
  527MOL0     H69515   6.126   1.654   9.543  0.4567 -0.0534 -0.2375
  527MOL0     H69516   6.101   1.817   9.599  0.0293 -0.0501 -0.1044
  527MOL0     H69517   5.931   1.745   9.866  3.1687 -1.1813  0.7194
  527MOL0     H69518   5.584   1.555   9.810  1.5754 -1.4024 -0.7701
  527MOL0     H69519   5.631   1.708   9.901  2.9357  0.9891 -0.6657
  527MOL0     H69520   5.643   1.579  10.083  0.7718  0.6099  0.1382
  527MOL0     H69521   5.793   1.524  10.034 -0.8061  1.1256  0.7753
  527MOL0     H69522   5.683   1.340   9.917  0.6237  1.0444 -0.3976
  527MOL0     H69523   5.643   1.330  10.091  1.9304  1.9366  0.1178
  527MOL0     H69524   5.444   1.286   9.948 -0.9301  0.7313 -1.0233
  527MOL0     H69525   5.435   1.441   9.890 -1.7732 -2.8179 -1.5275
  527MOL0     H69526   5.232   1.362   9.922 -1.4190  0.3884 -0.7892
  527MOL0     H69527   5.001   1.307   9.985 -2.0549 -2.1982  2.3848
  527MOL0     H69528   4.652   1.214  10.273 -0.1284  0.1165  1.2686
  527MOL0     H69529   4.417   1.185  10.302 -1.9939  1.0665 -0.0797
  527MOL0     H69530   4.110   1.447  10.091  0.4951  0.5389  0.5444
  527MOL0     H69531   4.157   1.530  10.234 -1.1647 -0.0408  0.9634
  527MOL0     H69532   4.004   1.362  10.362 -0.0802 -1.6403 -0.2946
  527MOL0     H69533   3.949   1.308  10.215 -0.3450 -0.6800  2.7847
  527MOL0     H69534   3.906   1.562  10.153  0.0221  1.1007  0.5819
  527MOL0     H69535   3.939   1.594  10.320 -0.4732 -2.0022  1.3996
  527MOL0     H69536   3.726   1.390  10.229 -0.1234 -1.5490  3.3487
  527MOL0     H69537   3.739   1.476  10.385  2.9206 -0.5041  1.1248
  527MOL0     H69538   3.648   1.633  10.146  0.9687 -0.6687  0.3574
  527MOL0     H69539   3.676   1.686  10.317  2.0066  0.9014 -2.1644
  527MOL0     H69540   3.516   1.505  10.395  0.8872 -1.0993 -0.0515
  527MOL0     H69541   3.477   1.472  10.229 -4.2679  2.6628 -0.5732
  527MOL0     H69542   3.388   1.717  10.376 -1.4679 -1.2886  0.5021
  527MOL0     H69543   3.443   1.739  10.209 -1.8608 -0.7947 -0.4568
  527MOL0     H69544   3.285   1.543  10.157 -2.2525 -1.2346  0.8634
  527MOL0     H69545   3.216   1.699  10.187  0.0365 -0.5905 -0.7343
  527MOL0     H69546   4.349   1.548  10.085  0.8617  0.5263 -0.1886
  527MOL0     H69547   4.588   1.575  10.047 -0.4182 -0.3753  0.1945
  527MOL0     H69548   5.072   1.490  10.369 -2.6177  0.5427 -1.4527
  527MOL0     H69549   5.311   1.485  10.315 -0.0301 -0.2680 -1.3777
  527MOL0     H69550   7.031   1.291   9.630  1.2581 -1.0730 -0.9182
  527MOL0     H69551   7.275   1.301   9.568 -0.5540 -0.0420  2.6550
  527MOL0     H69552   7.696   1.343   9.832 -2.0461  2.8495  0.2621
  527MOL0     H69553   7.913   1.333   9.801 -1.6374  0.5031  1.6674
  527MOL0     H69554   8.130   1.318   9.716  1.0298  0.3500  1.2453
  527MOL0     H69555   8.119   1.495   9.721 -0.5879  0.0583  1.4464
  527MOL0     H69556   8.304   1.344   9.528 -1.5247 -0.6020  0.6675
  527MOL0     H69557   8.321   1.511   9.573  0.2838  0.4761  1.0119
  527MOL0     H69558   8.383   1.267   9.740 -0.6599  0.6299  2.7423
  527MOL0     H69559   8.370   1.420   9.816 -1.0959 -3.7270  2.1879
  527MOL0     H69560   8.570   1.505   9.664 -0.3063 -0.2007 -1.7728
  527MOL0     H69561   8.614   1.353   9.756 -1.3552 -3.4799  0.8654
  527MOL0     H69562   8.612   1.165   9.397  4.0434  1.6376 -1.2333
  527MOL0     H69563   7.881   1.487   9.392  0.0665  2.3597  0.2567
  527MOL0     H69564   7.643   1.514   9.431  2.2478  0.7266 -2.1601
  528MOL0     O69565   0.410   7.906   4.289  0.0700 -0.0550  0.4013
  528MOL0     C69566   0.364   7.808   4.351 -1.2679 -0.2047 -0.1595
  528MOL0     O69567   0.238   7.772   4.360 -0.1427 -0.3574 -0.3007
  528MOL0     C69568   0.142   7.822   4.271 -0.3388  0.3198 -0.2814
  528MOL0     C69569   0.018   7.861   4.320  0.1122 -0.1687 -0.6978
  528MOL0     C69570  -0.092   7.862   4.231 -0.1557 -0.6017  0.0400
  528MOL0     C69571  -0.082   7.839   4.092  0.1391 -0.0334 -0.4269
  528MOL0     O69572  -0.191   7.855   4.011  0.2497 -0.6909  0.5378
  528MOL0     C69573  -0.311   7.780   4.036 -0.5297 -0.7582  0.0720
  528MOL0     C69574  -0.420   7.812   3.935 -1.1303  0.1122  0.5438
  528MOL0     C69575  -0.556   7.748   3.953  0.2784 -0.0303  0.0799
  528MOL0     C69576  -0.649   7.811   4.058  0.5364 -0.3239  0.1983
  528MOL0     C69577  -0.789   7.752   4.032  0.9866  0.3039 -0.1578
  528MOL0     C69578  -0.865   7.818   3.917  0.3403  0.5216 -0.3590
  528MOL0     C69579  -0.995   7.735   3.880  0.1331 -0.1811  0.0662
  528MOL0     C69580  -1.092   7.827   3.803 -0.2388 -0.0866  0.1370
  528MOL0     N69581  -1.213   7.754   3.759  0.1774  0.5211 -0.7606
  528MOL0     C69582  -1.341   7.756   3.825 -0.8036  0.6400  0.0937
  528MOL0     C69583  -1.420   7.686   3.738 -0.7469  0.1098 -0.1995
  528MOL0     C69584  -1.563   7.653   3.776  0.7550  0.3041 -0.2211
  528MOL0     C69585  -1.570   7.581   3.910 -0.5110 -0.7323 -0.1976
  528MOL0     C69586  -1.717   7.567   3.948 -0.6850 -0.2918  0.7753
  528MOL0     C69587  -1.811   7.489   3.848  0.2371  0.2634  0.2857
  528MOL0     O69588  -1.927   7.439   3.924 -0.0033 -0.5052 -0.3727
  528MOL0     C69589  -2.046   7.432   3.856  0.3331 -0.1966  0.0968
  528MOL0     C69590  -2.155   7.389   3.927 -0.0590  0.7346  0.3072
  528MOL0     C69591  -2.283   7.359   3.879 -1.4475  0.2104 -0.1671
  528MOL0     C69592  -2.304   7.375   3.746  1.0801  0.8992  1.4739
  528MOL0     C69593  -2.436   7.342   3.685  0.3362 -0.8942 -0.1911
  528MOL0     O69594  -2.544   7.293   3.765  0.4895  0.0719 -0.0777
  528MOL0     C69595  -2.666   7.279   3.697  1.0348 -0.1168 -0.0422
  528MOL0     C69596  -2.687   7.176   3.611  0.5126 -0.1536  0.3637
  528MOL0     C69597  -2.814   7.160   3.542  0.3034  1.0535 -0.3866
  528MOL0     C69598  -2.918   7.248   3.573  0.5761  0.2872 -0.4695
  528MOL0     O69599  -3.037   7.217   3.512 -0.2889 -0.2971  0.0744
  528MOL0     C69600  -3.160   7.261   3.560 -0.0713  0.4069 -0.8374
  528MOL0     C69601  -3.217   7.155   3.659 -0.2787 -0.3903 -0.2130
  528MOL0     C69602  -3.338   7.221   3.730  0.3635  0.0219 -0.0536
  528MOL0     C69603  -3.467   7.168   3.687  0.6348  1.0170  0.5837
  528MOL0     C69604  -3.583   7.238   3.766  0.4348  1.2205 -0.2078
  528MOL0     C69605  -3.712   7.167   3.724 -0.1296  0.1451  0.1275
  528MOL0     C69606  -3.846   7.213   3.792 -0.3963 -0.2072 -0.0889
  528MOL0     C69607  -3.874   7.353   3.761 -0.3933 -0.5665 -0.0731
  528MOL0    Cl69608  -4.016   7.409   3.846 -0.1180  0.3028  0.7009
  528MOL0     C69609  -2.892   7.359   3.655 -0.8122 -0.2381 -0.3235
  528MOL0     C69610  -2.769   7.377   3.711 -0.3542  0.4319  0.3001
  528MOL0     O69611  -2.444   7.359   3.560  0.0250 -0.1179 -0.2208
  528MOL0     C69612  -2.194   7.421   3.663  0.9329 -0.9824 -0.3665
  528MOL0     C69613  -2.074   7.457   3.718  0.1466 -0.4604 -0.3196
  528MOL0     N69614  -1.354   7.640   3.628 -0.1853 -0.0768  0.4825
  528MOL0     N69615  -1.226   7.680   3.636  0.1122 -0.0714 -0.2430
  528MOL0     C69616   0.044   7.818   4.047 -0.9787  0.0543 -0.1908
  528MOL0     C69617   0.157   7.802   4.130  0.3213 -0.4630 -0.4611
  528MOL0     C69618   0.473   7.723   4.403  0.1141  0.0648 -0.6504
  528MOL0     C69619   0.439   7.600   4.469 -0.2233  0.0932  0.0943
  528MOL0     C69620   0.539   7.517   4.530  0.3166  0.0644 -0.1633
  528MOL0     C69621   0.673   7.546   4.524  0.2373 -0.7124  0.0713
  528MOL0     O69622   0.762   7.450   4.567 -0.4433 -0.3229  0.3778
  528MOL0     C69623   0.904   7.454   4.552  0.5541  0.3833  0.2921
  528MOL0     C69624   0.970   7.316   4.573 -0.2434  0.1186  0.1068
  528MOL0     C69625   0.934   7.209   4.471  0.5347 -0.0263 -0.1183
  528MOL0     C69626   0.982   7.084   4.524 -0.7545  1.0409  0.0835
  528MOL0     C69627   0.906   6.971   4.477  0.3123  0.2472  0.2261
  528MOL0     C69628   0.840   6.875   4.441  0.9574  0.2038 -0.0642
  528MOL0     C69629   0.710   7.666   4.451 -0.0051  0.2056  0.3362
  528MOL0     C69630   0.614   7.757   4.402  0.5509 -0.2471  0.7565
  528MOL0     H69631   0.003   7.880   4.425 -2.3170  2.2996 -1.3864
  528MOL0     H69632  -0.189   7.885   4.272  0.1535  0.1444  0.3653
  528MOL0     H69633  -0.350   7.798   4.136  1.1870 -3.1108  1.2686
  528MOL0     H69634  -0.288   7.673   4.032 -1.0382 -0.8835 -3.6443
  528MOL0     H69635  -0.393   7.779   3.834 -0.3791 -1.1663  1.1479
  528MOL0     H69636  -0.427   7.921   3.931 -2.2209  0.0475  0.3121
  528MOL0     H69637  -0.547   7.643   3.980 -2.3459 -0.1797  0.6103
  528MOL0     H69638  -0.609   7.739   3.857 -0.5376 -1.8756  0.6602
  528MOL0     H69639  -0.621   7.783   4.160  0.7442 -2.5758 -0.4234
  528MOL0     H69640  -0.642   7.920   4.057  2.1738 -0.2131  4.3244
  528MOL0     H69641  -0.850   7.770   4.121 -2.0123  0.0200 -2.0329
  528MOL0     H69642  -0.788   7.643   4.022 -1.2579 -0.0621  2.4497
  528MOL0     H69643  -0.800   7.838   3.831  0.6302  1.5713  0.0922
  528MOL0     H69644  -0.887   7.918   3.955  0.3972  0.5222 -0.3261
  528MOL0     H69645  -0.954   7.650   3.826  2.8987  0.8660  0.3748
  528MOL0     H69646  -1.062   7.703   3.961  0.8617  2.3888  1.8152
  528MOL0     H69647  -1.042   7.859   3.712 -0.0106  1.4798  0.7923
  528MOL0     H69648  -1.117   7.919   3.855  0.6369  3.5513 -5.1116
  528MOL0     H69649  -1.371   7.803   3.918 -1.9029 -0.0565  0.1069
  528MOL0     H69650  -1.617   7.602   3.695 -0.2441  0.5747  0.2572
  528MOL0     H69651  -1.613   7.749   3.795 -1.9741 -1.0913  0.2116
  528MOL0     H69652  -1.514   7.640   3.983  1.3941  0.9420 -2.8059
  528MOL0     H69653  -1.521   7.484   3.906 -0.3021 -0.6845  0.8521
  528MOL0     H69654  -1.716   7.509   4.041  1.9466  1.8052  2.2143
  528MOL0     H69655  -1.761   7.664   3.972 -1.4890 -0.8807  1.7822
  528MOL0     H69656  -1.767   7.403   3.796  0.8728 -0.1652  1.4859
  528MOL0     H69657  -1.839   7.557   3.768 -1.3407 -2.3050 -1.4627
  528MOL0     H69658  -2.147   7.384   4.035 -2.2705 -0.1337  0.4945
  528MOL0     H69659  -2.354   7.318   3.950  0.7561  0.4781  2.3496
  528MOL0     H69660  -2.604   7.107   3.595  1.6705  0.5220  2.8961
  528MOL0     H69661  -2.834   7.082   3.469  1.5627 -0.4260  0.7787
  528MOL0     H69662  -3.229   7.276   3.476 -0.1636  2.5250 -0.4342
  528MOL0     H69663  -3.150   7.353   3.619 -1.5558  0.7391 -1.0676
  528MOL0     H69664  -3.136   7.136   3.730  1.1477  0.1779 -1.6149
  528MOL0     H69665  -3.250   7.062   3.610 -0.2655 -0.9511  0.8166
  528MOL0     H69666  -3.333   7.328   3.710  2.4112  0.0311  0.2254
  528MOL0     H69667  -3.323   7.217   3.838  2.4302  0.8272 -0.2670
  528MOL0     H69668  -3.484   7.160   3.579  0.1666 -2.9169  0.7988
  528MOL0     H69669  -3.471   7.067   3.728  0.2382  0.0387 -1.7458
  528MOL0     H69670  -3.575   7.344   3.737  3.9421  2.2155  3.3947
  528MOL0     H69671  -3.570   7.236   3.875  2.1036  0.0859 -0.3867
  528MOL0     H69672  -3.711   7.059   3.744 -0.4457 -0.2581 -1.7589
  528MOL0     H69673  -3.721   7.179   3.615 -1.3412  3.1712  0.4830
  528MOL0     H69674  -3.920   7.151   3.740 -0.0492  1.5105 -2.8755
  528MOL0     H69675  -3.829   7.205   3.900  2.4629  0.5562 -0.3982
  528MOL0     H69676  -3.884   7.354   3.652 -0.4958  1.8718 -0.0893
  528MOL0     H69677  -3.794   7.420   3.792 -1.9147 -0.3156  3.8752
  528MOL0     H69678  -2.962   7.440   3.671  1.2738  1.4330  0.8878
  528MOL0     H69679  -2.746   7.469   3.763 -0.6678  3.2168 -3.9891
  528MOL0     H69680  -2.218   7.433   3.558 -1.0412  1.8605  0.2894
  528MOL0     H69681  -1.999   7.493   3.647 -2.1012  0.8832 -2.1360
  528MOL0     H69682   0.055   7.818   3.939  1.3062 -0.1095 -0.0143
  528MOL0     H69683   0.258   7.798   4.090  1.7686  3.7570  2.1239
  528MOL0     H69684   0.339   7.559   4.475 -0.9869  1.5971 -1.5073
  528MOL0     H69685   0.500   7.439   4.594 -0.0640  0.6059  0.2765
  528MOL0     H69686   0.943   7.531   4.619  0.2013  2.8921 -2.2211
  528MOL0     H69687   0.922   7.490   4.451 -2.8731 -1.8757 -1.3056
  528MOL0     H69688   1.078   7.331   4.566  0.4535 -3.3893  1.5069
  528MOL0     H69689   0.946   7.293   4.677 -2.0946 -0.2826 -0.3732
  528MOL0     H69690   0.972   7.231   4.370 -0.7622  0.1571 -0.5794
  528MOL0     H69691   0.826   7.208   4.457  0.7647 -0.6989 -2.3085
  528MOL0     H69692   1.084   7.071   4.486 -1.4143 -0.5513 -1.2727
  528MOL0     H69693   0.989   7.073   4.633  1.2418  1.0178 -0.0087
  528MOL0     H69694   0.781   6.791   4.412 -0.3257 -0.2160  3.2776
  528MOL0     H69695   0.815   7.690   4.438  0.0783 -0.4919 -0.3155
  528MOL0     H69696   0.640   7.851   4.353 -2.1366  0.3249  0.2130
  529MOL0     O69697   1.326   6.573   5.035 -0.5837  0.6861 -0.2327
  529MOL0     C69698   1.271   6.674   4.992 -0.3947  0.4962  0.2159
  529MOL0     O69699   1.162   6.730   5.048 -0.8565 -0.3512 -0.8893
  529MOL0     C69700   1.113   6.679   5.163 -0.5363  0.0440 -0.3148
  529MOL0     C69701   1.007   6.595   5.139 -0.0834 -0.0113 -1.1234
  529MOL0     C69702   0.940   6.537   5.247 -0.5060  0.7451  0.5033
  529MOL0     C69703   0.976   6.568   5.378  0.2902  1.1140  0.8835
  529MOL0     O69704   0.903   6.494   5.472 -0.5959  0.0221  0.4186
  529MOL0     C69705   0.954   6.509   5.608 -0.5989  0.0255  0.2315
  529MOL0     C69706   0.872   6.435   5.708 -0.5628  0.2122  0.6377
  529MOL0     C69707   0.727   6.493   5.715 -0.2749  0.0661  0.2208
  529MOL0     C69708   0.662   6.426   5.832  0.1901 -0.2150  0.1307
  529MOL0     C69709   0.505   6.437   5.839 -0.6425  0.0838 -0.0226
  529MOL0     C69710   0.459   6.586   5.862 -0.4608  0.2032  1.1987
  529MOL0     C69711   0.309   6.605   5.849 -0.0028  0.7723 -0.1916
  529MOL0     C69712   0.291   6.588   5.692  0.4926  0.2504  0.4527
  529MOL0     N69713   0.161   6.644   5.648  0.5658 -0.1056  0.1373
  529MOL0     C69714   0.118   6.776   5.661 -0.3450  0.5128 -0.5431
  529MOL0     C69715   0.006   6.769   5.594  0.0946  0.5723  0.7729
  529MOL0     C69716  -0.074   6.890   5.540 -0.5896  0.0143  0.1668
  529MOL0     C69717  -0.216   6.903   5.594  0.7196 -0.3810 -0.3517
  529MOL0     C69718  -0.317   6.824   5.507 -0.7453  0.1077 -0.4457
  529MOL0     C69719  -0.460   6.840   5.561  0.5485 -0.1883  0.3799
  529MOL0     O69720  -0.509   6.967   5.522 -0.5500 -1.0491 -0.9807
  529MOL0     C69721  -0.645   6.994   5.549 -0.3214 -0.2660 -0.1591
  529MOL0     C69722  -0.689   7.121   5.528 -0.7051 -0.8628 -0.3053
  529MOL0     C69723  -0.824   7.158   5.550 -0.1493 -0.2069 -0.4864
  529MOL0     C69724  -0.916   7.069   5.607 -0.0927 -0.2982 -0.4231
  529MOL0     C69725  -1.059   7.098   5.630  0.0160  0.0463  0.3650
  529MOL0     O69726  -1.141   6.994   5.638  0.0487 -0.7304 -0.5252
  529MOL0     C69727  -1.273   7.023   5.658 -0.5559 -1.0915 -0.0401
  529MOL0     C69728  -1.345   7.088   5.553 -0.7974  0.4771  0.5550
  529MOL0     C69729  -1.481   7.106   5.568 -0.2644  0.4817  0.7054
  529MOL0     C69730  -1.557   7.056   5.687 -0.2916  0.1834 -0.6017
  529MOL0     O69731  -1.690   7.069   5.713 -0.1643 -0.0267 -0.1537
  529MOL0     C69732  -1.784   7.088   5.601 -0.3812  0.8130 -0.9739
  529MOL0     C69733  -1.840   7.219   5.602 -0.1971 -0.6633 -0.2497
  529MOL0     C69734  -1.917   7.260   5.727  0.9703  0.2240 -0.5690
  529MOL0     C69735  -2.059   7.187   5.751  0.4679 -0.0645  0.5257
  529MOL0     C69736  -2.130   7.246   5.871  0.7711  0.4800 -0.2778
  529MOL0     C69737  -2.268   7.177   5.871 -0.2050  0.0426  0.4426
  529MOL0     C69738  -2.355   7.222   6.003  0.9380  0.5902 -0.5916
  529MOL0     C69739  -2.499   7.178   6.004  0.1541 -0.7530  0.4404
  529MOL0    Cl69740  -2.579   7.240   5.856 -0.1239 -0.7672 -0.2698
  529MOL0     C69741  -1.482   7.006   5.792  0.4011  0.0515  0.3087
  529MOL0     C69742  -1.342   6.983   5.776 -0.3285  1.1397  0.4689
  529MOL0     O69743  -1.086   7.215   5.653 -0.2820  0.5068  0.0265
  529MOL0     C69744  -0.865   6.944   5.640  0.1011 -0.1558 -0.6591
  529MOL0     C69745  -0.736   6.910   5.608 -0.1657  0.1603 -0.1171
  529MOL0     N69746  -0.033   6.637   5.564 -0.3411  0.3179  0.1923
  529MOL0     N69747   0.068   6.559   5.593 -0.2994 -0.6985 -0.2590
  529MOL0     C69748   1.109   6.627   5.397 -0.4891 -0.4833  1.3198
  529MOL0     C69749   1.168   6.696   5.291 -0.7037  0.3834  0.7426
  529MOL0     C69750   1.344   6.755   4.898  0.3322  0.3551 -0.8347
  529MOL0     C69751   1.280   6.854   4.827  0.1478  0.1807 -0.5977
  529MOL0     C69752   1.354   6.952   4.764  0.0815 -0.4723 -0.4813
  529MOL0     C69753   1.490   6.956   4.765 -0.8308  0.3585 -0.4072
  529MOL0     O69754   1.557   7.056   4.707  0.7803 -0.3324  0.2079
  529MOL0     C69755   1.701   7.053   4.702 -0.1465 -0.1165 -0.8386
  529MOL0     C69756   1.747   7.184   4.640 -0.7838 -1.0775 -0.4540
  529MOL0     C69757   1.905   7.182   4.633  0.3399 -0.0690 -0.1420
  529MOL0     C69758   1.954   7.315   4.566  0.0918  0.3499  0.3522
  529MOL0     C69759   1.963   7.423   4.655 -0.0617 -0.4503  0.1111
  529MOL0     C69760   1.973   7.517   4.729  0.1889 -0.5912 -0.6163
  529MOL0     C69761   1.554   6.848   4.831  0.1758 -0.3171 -0.1100
  529MOL0     C69762   1.479   6.752   4.898 -0.4799  0.8277  0.6857
  529MOL0     H69763   0.974   6.567   5.040 -4.5465 -2.5162  0.7764
  529MOL0     H69764   0.859   6.471   5.214 -0.5059  0.7373  0.5185
  529MOL0     H69765   0.960   6.615   5.632  1.2846  0.1852 -0.7297
  529MOL0     H69766   1.053   6.463   5.613 -0.0180  1.2641  0.3829
  529MOL0     H69767   0.909   6.453   5.809 -1.5086  1.5712  0.7802
  529MOL0     H69768   0.873   6.331   5.676  0.0173  0.2759  0.4380
  529MOL0     H69769   0.684   6.480   5.615  0.2637  0.8427 -0.1226
  529MOL0     H69770   0.721   6.601   5.733 -2.1691 -0.0874  0.6876
  529MOL0     H69771   0.694   6.322   5.843 -0.1435 -0.2140  1.3019
  529MOL0     H69772   0.701   6.480   5.920 -0.0016  0.7963 -0.3878
  529MOL0     H69773   0.462   6.388   5.927  0.2857  1.6544  1.3570
  529MOL0     H69774   0.457   6.389   5.754 -2.1369 -1.7873  1.7803
  529MOL0     H69775   0.516   6.639   5.785  2.4189 -3.0098  0.8543
  529MOL0     H69776   0.491   6.627   5.958 -0.6441  3.2377  0.0895
  529MOL0     H69777   0.242   6.536   5.902 -0.2411  2.1787  1.4031
  529MOL0     H69778   0.284   6.703   5.889 -1.2689  0.9959 -1.4415
  529MOL0     H69779   0.294   6.481   5.667 -1.4012 -0.3917  2.5792
  529MOL0     H69780   0.370   6.634   5.632  0.7229 -1.1348 -0.3435
  529MOL0     H69781   0.167   6.861   5.708 -1.0377  1.1194 -0.8824
  529MOL0     H69782  -0.077   6.879   5.432 -4.3869 -2.3627  0.3167
  529MOL0     H69783  -0.030   6.981   5.584  0.5483 -1.4162  2.1514
  529MOL0     H69784  -0.233   7.010   5.576  0.9869 -0.4072 -0.7806
  529MOL0     H69785  -0.222   6.874   5.699  1.2838  1.0320  0.1037
  529MOL0     H69786  -0.307   6.863   5.405  3.5278  0.0093 -0.2203
  529MOL0     H69787  -0.286   6.719   5.505 -0.1094  0.2974 -0.4433
  529MOL0     H69788  -0.461   6.838   5.671 -1.4209  1.8003  0.4582
  529MOL0     H69789  -0.523   6.759   5.522 -0.2943  0.3588  0.5887
  529MOL0     H69790  -0.620   7.193   5.484 -1.3856  1.0344  1.5457
  529MOL0     H69791  -0.861   7.246   5.498  0.6709  0.2073 -0.3740
  529MOL0     H69792  -1.295   7.130   5.466  0.9846  2.6506  2.5005
  529MOL0     H69793  -1.528   7.164   5.490 -0.9666  0.2945  0.9809
  529MOL0     H69794  -1.861   7.010   5.611  0.2961  0.3636  1.0710
  529MOL0     H69795  -1.733   7.055   5.510  3.2675 -2.6114  1.9977
  529MOL0     H69796  -1.903   7.233   5.514 -1.0251  1.8676  0.6528
  529MOL0     H69797  -1.761   7.294   5.590 -2.3150  1.8737  0.6231
  529MOL0     H69798  -1.941   7.366   5.736 -3.3694 -0.5803 -0.4004
  529MOL0     H69799  -1.863   7.241   5.821  0.4048  1.5700  0.0521
  529MOL0     H69800  -2.113   7.208   5.659  0.8903 -1.6262 -0.1016
  529MOL0     H69801  -2.036   7.080   5.757  0.8877 -0.0398 -0.4693
  529MOL0     H69802  -2.131   7.354   5.854  3.0425  0.5541 -0.2038
  529MOL0     H69803  -2.080   7.229   5.967 -1.7251  0.2218  1.0604
  529MOL0     H69804  -2.264   7.068   5.869  1.2182  0.0817  0.4914
  529MOL0     H69805  -2.319   7.219   5.784  0.4015 -0.7023 -0.2784
  529MOL0     H69806  -2.321   7.176   6.096  0.0311 -3.1408 -1.9393
  529MOL0     H69807  -2.346   7.331   6.017  1.4047  0.8007 -2.1968
  529MOL0     H69808  -2.553   7.214   6.092 -1.4076  2.5462 -1.6741
  529MOL0     H69809  -2.511   7.070   5.988  0.5134 -0.7514  0.1536
  529MOL0     H69810  -1.528   6.978   5.886 -0.5308  0.6482  0.0338
  529MOL0     H69811  -1.299   6.934   5.863 -0.5351  1.0852  0.5390
  529MOL0     H69812  -0.929   6.875   5.695  1.1463 -0.0854  0.6892
  529MOL0     H69813  -0.711   6.810   5.640 -1.4625  1.0960  4.4921
  529MOL0     H69814   1.153   6.610   5.494  1.0895 -3.0501  0.2627
  529MOL0     H69815   1.263   6.747   5.307 -0.6428  0.4108  0.3108
  529MOL0     H69816   1.173   6.841   4.825  0.2954 -1.6040  0.5197
  529MOL0     H69817   1.304   7.032   4.710  3.5307  2.4392  0.3035
  529MOL0     H69818   1.737   6.974   4.636 -0.5344  0.3826 -1.6655
  529MOL0     H69819   1.764   7.046   4.791  0.4984 -2.3363 -1.4014
  529MOL0     H69820   1.700   7.211   4.545 -1.5139  0.8750  0.4257
  529MOL0     H69821   1.711   7.254   4.715 -0.0255 -3.4206  2.2416
  529MOL0     H69822   1.940   7.103   4.565 -1.3021 -0.3028 -0.7896
  529MOL0     H69823   1.948   7.160   4.731  0.9508  0.6733 -0.2415
  529MOL0     H69824   2.056   7.297   4.531  0.9192  1.2940  2.1733
  529MOL0     H69825   1.899   7.347   4.477  0.7099  1.1694  0.2566
  529MOL0     H69826   1.994   7.602   4.791 -0.9688 -2.0119  1.8869
  529MOL0     H69827   1.660   6.841   4.850 -0.2127 -0.4164  2.2284
  529MOL0     H69828   1.525   6.671   4.955  1.4599 -0.3075 -2.2571
  530MOL0     O69829   8.752   6.396   4.109 -0.0896 -0.2473  0.1065
  530MOL0     C69830   8.790   6.463   4.207  0.4126  0.6774 -0.3673
  530MOL0     O69831   8.711   6.542   4.278  0.8761 -0.5898 -0.2082
  530MOL0     C69832   8.573   6.530   4.277  0.2239 -0.3918 -0.3219
  530MOL0     C69833   8.496   6.652   4.301 -0.1631 -0.1317 -0.9128
  530MOL0     C69834   8.355   6.634   4.317 -0.4416 -0.5209  0.1063
  530MOL0     C69835   8.284   6.509   4.293  0.4442  0.2980 -0.0878
  530MOL0     O69836   8.139   6.518   4.292  0.0285  0.5060 -0.1572
  530MOL0     C69837   8.063   6.399   4.287  0.3692  0.5772  1.1535
  530MOL0     C69838   7.923   6.415   4.348 -0.0166  0.2552 -0.5229
  530MOL0     C69839   7.830   6.528   4.306  0.1452 -0.3125 -1.3565
  530MOL0     C69840   7.717   6.557   4.406  0.3953  0.1678  0.6492
  530MOL0     C69841   7.651   6.682   4.350  0.3762  0.5520 -0.2038
  530MOL0     C69842   7.514   6.696   4.407 -0.1438  0.3325  0.4417
  530MOL0     C69843   7.468   6.846   4.379 -0.3110  0.9346  0.1542
  530MOL0     C69844   7.484   6.886   4.229 -0.0177  0.7263  0.0662
  530MOL0     N69845   7.386   6.992   4.190 -0.0781  0.5587  0.1478
  530MOL0     C69846   7.271   6.970   4.116 -0.2546 -0.4570  0.9142
  530MOL0     C69847   7.219   7.092   4.118  0.1739  0.1430  0.1214
  530MOL0     C69848   7.091   7.122   4.047  0.0009 -0.6547  0.9133
  530MOL0     C69849   6.978   7.204   4.110  0.6510  1.0931 -0.5209
  530MOL0     C69850   6.852   7.215   4.028  0.1392  0.1262  0.7146
  530MOL0     C69851   6.755   7.303   4.104 -0.3302  0.5780  0.4204
  530MOL0     O69852   6.641   7.328   4.021  0.1625  0.0086  0.4934
  530MOL0     C69853   6.637   7.427   3.924 -0.8372  0.7647 -0.8662
  530MOL0     C69854   6.745   7.495   3.880 -0.6418 -0.6981  0.9455
  530MOL0     C69855   6.728   7.587   3.765  0.1871  0.6534 -0.5956
  530MOL0     C69856   6.602   7.617   3.719 -0.2200  0.0721 -0.5365
  530MOL0     C69857   6.580   7.705   3.599 -0.3914 -1.1238  0.2697
  530MOL0     O69858   6.694   7.761   3.545  0.4620  0.0932  1.0259
  530MOL0     C69859   6.659   7.858   3.448 -0.5084  0.4176  0.2408
  530MOL0     C69860   6.646   7.996   3.472  0.4050 -0.2748  0.1243
  530MOL0     C69861   6.618   8.088   3.373 -0.2123  0.3695 -0.6105
  530MOL0     C69862   6.604   8.046   3.238 -0.6158 -0.8294 -0.1402
  530MOL0     O69863   6.563   8.122   3.128 -0.5992 -0.0244  0.0770
  530MOL0     C69864   6.513   8.256   3.154 -0.0988  1.1813 -0.2846
  530MOL0     C69865   6.391   8.280   3.069  0.6817 -0.4128  0.1620
  530MOL0     C69866   6.354   8.427   3.067 -0.6753 -0.2362 -0.8240
  530MOL0     C69867   6.237   8.446   2.973  0.8466  0.2013  0.2754
  530MOL0     C69868   6.183   8.591   2.961  0.1248  0.3829  0.4819
  530MOL0     C69869   6.290   8.682   2.886 -0.7569  0.2205 -0.1372
  530MOL0     C69870   6.230   8.817   2.858  0.4784  0.5211  0.3723
  530MOL0     C69871   6.287   8.908   2.758 -0.8231 -0.8971  0.0681
  530MOL0    Cl69872   6.464   8.922   2.779  0.2353  0.2790 -0.2659
  530MOL0     C69873   6.629   7.909   3.211 -0.2515  0.1963 -0.6971
  530MOL0     C69874   6.660   7.818   3.317  0.0793 -0.1897 -0.3054
  530MOL0     O69875   6.464   7.729   3.561 -0.1766  0.4659 -0.1938
  530MOL0     C69876   6.491   7.562   3.784 -0.4141  0.6536 -0.4671
  530MOL0     C69877   6.511   7.453   3.871 -0.0846 -0.7277 -0.4352
  530MOL0     N69878   7.299   7.184   4.178 -0.0409 -0.2298 -0.8885
  530MOL0     N69879   7.402   7.121   4.235  0.2627 -0.2562  0.1909
  530MOL0     C69880   8.361   6.391   4.256  0.7913 -0.1601 -0.8218
  530MOL0     C69881   8.502   6.410   4.263  0.3775  1.1379  0.3404
  530MOL0     C69882   8.930   6.452   4.249 -0.4925 -0.4519 -0.0139
  530MOL0     C69883   8.978   6.522   4.360  1.3248 -0.9175  0.3335
  530MOL0     C69884   9.111   6.522   4.405  0.2038  0.1762  0.2155
  530MOL0     C69885   9.205   6.443   4.328 -0.0653 -0.3255  0.1703
  530MOL0     O69886   9.341   6.448   4.372  0.4943  0.0086  0.2440
  530MOL0     C69887   9.431   6.349   4.319 -0.3616 -0.3107  0.2994
  530MOL0     C69888   9.523   6.319   4.431 -0.9261  0.4266 -0.6361
  530MOL0     C69889   9.624   6.436   4.459  0.1328  0.3355  0.0385
  530MOL0     C69890   9.726   6.377   4.568  0.9159 -0.0547  0.6666
  530MOL0     C69891   9.845   6.459   4.558  0.0522 -0.1537 -0.1994
  530MOL0     C69892   9.946   6.522   4.538 -0.6164 -0.0749  0.2681
  530MOL0     C69893   9.158   6.383   4.208  0.1910 -0.3667  0.3629
  530MOL0     C69894   9.023   6.385   4.171 -0.3031  0.6211  0.4323
  530MOL0     H69895   8.535   6.751   4.320 -2.2365  0.7616 -1.0711
  530MOL0     H69896   8.291   6.716   4.349  0.4583 -0.6433  2.4297
  530MOL0     H69897   8.118   6.324   4.345 -1.6791  0.3965  3.0209
  530MOL0     H69898   8.058   6.361   4.185  1.6425  0.2422  1.2088
  530MOL0     H69899   7.938   6.425   4.456  1.8699 -1.5541 -0.5404
  530MOL0     H69900   7.870   6.322   4.327 -0.2781  0.3110 -0.1184
  530MOL0     H69901   7.789   6.504   4.208 -2.3225  0.0936 -0.5048
  530MOL0     H69902   7.892   6.618   4.299  0.1130  0.0424  1.5331
  530MOL0     H69903   7.647   6.473   4.416  1.5784 -0.9009  0.1990
  530MOL0     H69904   7.762   6.578   4.504  0.6278  1.2435  0.3310
  530MOL0     H69905   7.648   6.675   4.241  1.0355 -1.0026 -0.1394
  530MOL0     H69906   7.708   6.770   4.382 -3.3038  3.2785 -0.4652
  530MOL0     H69907   7.522   6.683   4.516 -1.6138 -1.3890  0.4018
  530MOL0     H69908   7.444   6.620   4.372  0.3699  0.6502 -1.3579
  530MOL0     H69909   7.362   6.838   4.403 -0.1066 -0.9207  0.6553
  530MOL0     H69910   7.522   6.916   4.443  1.7656 -2.5289  2.5849
  530MOL0     H69911   7.469   6.794   4.171 -1.2439  1.5289 -0.9322
  530MOL0     H69912   7.586   6.921   4.213  0.4149 -0.0374  1.0397
  530MOL0     H69913   7.231   6.878   4.075  3.7706 -2.1790  0.4313
  530MOL0     H69914   7.052   7.026   4.012 -1.0723 -0.0046  0.2716
  530MOL0     H69915   7.128   7.178   3.961  0.1781 -1.2942  0.5701
  530MOL0     H69916   7.011   7.304   4.138 -0.7040  1.2045  0.8463
  530MOL0     H69917   6.944   7.153   4.201 -2.3417 -2.3697 -3.2589
  530MOL0     H69918   6.877   7.258   3.930  2.5984 -0.8233  0.8402
  530MOL0     H69919   6.809   7.115   4.016 -1.1348  0.5895  1.3076
  530MOL0     H69920   6.802   7.398   4.133  0.2587  0.3384  0.2459
  530MOL0     H69921   6.717   7.251   4.192 -1.0958 -0.5511 -0.5540
  530MOL0     H69922   6.842   7.479   3.926  0.9928  2.5133 -1.0147
  530MOL0     H69923   6.819   7.632   3.728  1.3806 -0.6568  0.6135
  530MOL0     H69924   6.643   8.019   3.578 -0.7403 -1.1541  0.3023
  530MOL0     H69925   6.600   8.189   3.410 -1.6222 -0.5533  1.3359
  530MOL0     H69926   6.590   8.325   3.117 -0.6345  1.1003 -1.6243
  530MOL0     H69927   6.485   8.273   3.258  1.4211 -0.6493  0.4753
  530MOL0     H69928   6.307   8.217   3.099  1.0883 -1.8982 -1.6580
  530MOL0     H69929   6.412   8.248   2.967 -0.3782  1.2253 -0.6116
  530MOL0     H69930   6.438   8.490   3.037 -0.2414 -1.8996 -3.4929
  530MOL0     H69931   6.332   8.463   3.168 -0.0231  1.6861 -1.3325
  530MOL0     H69932   6.280   8.417   2.876  2.0684  0.7018  0.6498
  530MOL0     H69933   6.156   8.380   3.008  0.5280  1.5799  2.2820
  530MOL0     H69934   6.154   8.629   3.059 -0.9987 -1.6292  0.9745
  530MOL0     H69935   6.090   8.589   2.904  0.4253 -2.3851 -0.0172
  530MOL0     H69936   6.317   8.631   2.793 -1.0819 -3.6086  1.6646
  530MOL0     H69937   6.381   8.689   2.946 -1.7137  3.4516  1.1296
  530MOL0     H69938   6.131   8.797   2.816  1.7521  1.2347 -3.3334
  530MOL0     H69939   6.234   8.875   2.950  1.0086 -0.1115  0.7572
  530MOL0     H69940   6.232   9.002   2.768 -2.0462 -1.2694 -2.3831
  530MOL0     H69941   6.264   8.881   2.655 -4.7701  1.2490  0.1836
  530MOL0     H69942   6.626   7.874   3.108 -4.2389  0.5880 -0.8776
  530MOL0     H69943   6.678   7.712   3.305  2.0366 -0.2256  1.9758
  530MOL0     H69944   6.389   7.589   3.758 -1.1010  1.2606  2.5229
  530MOL0     H69945   6.424   7.399   3.907 -2.2709  2.4012 -0.5856
  530MOL0     H69946   8.322   6.296   4.221  3.0258 -0.6994 -2.0557
  530MOL0     H69947   8.565   6.322   4.254 -3.2721 -1.6190 -0.5103
  530MOL0     H69948   8.906   6.584   4.412 -0.8169 -2.0402 -1.1426
  530MOL0     H69949   9.150   6.567   4.496 -1.0523 -1.8799  1.8824
  530MOL0     H69950   9.489   6.396   4.240  1.1560 -0.8849  1.0436
  530MOL0     H69951   9.386   6.256   4.283  0.0823 -0.6486  0.6160
  530MOL0     H69952   9.458   6.293   4.515  0.8190 -2.9076 -0.1460
  530MOL0     H69953   9.579   6.232   4.394 -0.7782  0.2336  0.0267
  530MOL0     H69954   9.578   6.529   4.492  3.4842  1.9094  0.6006
  530MOL0     H69955   9.681   6.442   4.366 -0.2957 -1.9604 -0.4567
  530MOL0     H69956   9.687   6.379   4.671  1.8748 -1.3106  1.0782
  530MOL0     H69957   9.761   6.275   4.547 -1.9500 -1.0817  0.4307
  530MOL0     H69958  10.027   6.583   4.503 -1.9558 -0.1653 -3.4530
  530MOL0     H69959   9.207   6.317   4.137 -3.4619 -2.4898 -0.4313
  530MOL0     H69960   8.998   6.346   4.072 -1.1505  1.0267  0.4726
  531MOL0     O69961   4.132   6.859   7.355  0.1591 -0.5347 -0.2346
  531MOL0     C69962   4.132   6.845   7.232  0.3718 -0.1027 -0.6887
  531MOL0     O69963   4.239   6.858   7.140  0.4950  0.3102 -0.1875
  531MOL0     C69964   4.361   6.873   7.194  0.8371 -1.0798  0.3405
  531MOL0     C69965   4.427   6.774   7.268 -0.3117 -0.4950 -0.1877
  531MOL0     C69966   4.566   6.800   7.312  0.1346  0.1479 -0.4826
  531MOL0     C69967   4.635   6.912   7.262 -0.0867 -0.7261  0.2128
  531MOL0     O69968   4.769   6.939   7.276  0.1527  0.0585 -0.0461
  531MOL0     C69969   4.842   6.871   7.377 -0.3257  0.2686 -0.8585
  531MOL0     C69970   4.990   6.908   7.387 -0.9282  0.1107  0.6754
  531MOL0     C69971   5.026   7.051   7.412  0.4155 -0.2720  0.2256
  531MOL0     C69972   4.984   7.115   7.541  0.3245 -0.8934 -0.4752
  531MOL0     C69973   5.062   7.073   7.668 -0.3830  0.5530 -0.9517
  531MOL0     C69974   5.021   7.164   7.788  0.1027  0.0243 -0.2537
  531MOL0     C69975   5.101   7.121   7.911 -0.7583 -0.3310 -0.7386
  531MOL0     C69976   5.073   7.219   8.022  0.3243  0.3449 -0.1700
  531MOL0     N69977   4.929   7.220   8.063  0.7059  0.2275 -0.1451
  531MOL0     C69978   4.866   7.106   8.101  0.1755 -0.2632  0.7242
  531MOL0     C69979   4.757   7.153   8.155  0.1276 -0.0614 -0.2857
  531MOL0     C69980   4.664   7.076   8.243  0.3410  1.0263  0.6774
  531MOL0     C69981   4.554   7.007   8.163  0.2335 -0.2671  0.5230
  531MOL0     C69982   4.469   6.918   8.260 -0.4337  0.4493 -1.3494
  531MOL0     C69983   4.348   6.867   8.185  0.3736 -0.0757 -0.0850
  531MOL0     O69984   4.283   6.980   8.129  0.0890 -0.0143  0.2164
  531MOL0     C69985   4.166   6.940   8.056  0.0182  1.0470  0.0795
  531MOL0     C69986   4.060   7.022   8.067  0.6473 -0.5466 -0.5810
  531MOL0     C69987   3.935   6.979   8.015 -0.5530 -0.4105  0.1752
  531MOL0     C69988   3.926   6.866   7.937 -0.3142  0.7405  1.2004
  531MOL0     C69989   3.802   6.832   7.868  0.0215  0.3499 -0.1308
  531MOL0     O69990   3.698   6.916   7.879  0.1259  0.5855 -0.4089
  531MOL0     C69991   3.573   6.886   7.834  0.1468  0.0716 -0.3272
  531MOL0     C69992   3.505   6.766   7.867  0.1453 -0.3657 -0.4951
  531MOL0     C69993   3.378   6.746   7.826 -0.1926  0.2327  0.7909
  531MOL0     C69994   3.298   6.834   7.752  0.2881 -0.1739 -0.4891
  531MOL0     O69995   3.174   6.802   7.705  0.0116 -0.1921 -0.3752
  531MOL0     C69996   3.093   6.903   7.643 -0.1650  0.1788 -0.4793
  531MOL0     C69997   2.955   6.843   7.610  0.9237 -0.2713 -0.1705
  531MOL0     C69998   2.890   6.799   7.745  0.3448 -0.4320  0.6974
  531MOL0     C69999   2.742   6.776   7.720  0.2542  0.2723 -0.4223
  531MOL0     C70000   2.679   6.682   7.824 -0.6961 -0.7716  0.1802
  531MOL0     C70001   2.524   6.682   7.792  0.4359  0.1926  0.1836
  531MOL0     C70002   2.462   6.574   7.875  0.0045 -0.1018  0.5192
  531MOL0     C70003   2.311   6.604   7.880  1.0304  0.2116 -0.5054
  531MOL0    Cl70004   2.236   6.599   7.719  0.4978 -0.0691 -0.0956
  531MOL0     C70005   3.369   6.954   7.719 -0.0603  0.5374  0.5453
  531MOL0     C70006   3.506   6.971   7.751  0.5490 -0.5471  0.7777
  531MOL0     O70007   3.794   6.723   7.809  0.4454  0.5108  0.0020
  531MOL0     C70008   4.033   6.782   7.928 -0.6402  0.7932 -0.0784
  531MOL0     C70009   4.154   6.819   7.983 -0.1472 -0.4531 -0.6302
  531MOL0     N70010   4.755   7.292   8.166 -0.0061  0.2116  0.4177
  531MOL0     N70011   4.863   7.330   8.107 -0.3813 -0.4617 -0.0152
  531MOL0     C70012   4.559   7.013   7.186 -0.6903  0.3691 -0.5223
  531MOL0     C70013   4.429   6.986   7.163 -0.2821  0.2298  0.1436
  531MOL0     C70014   4.004   6.856   7.170 -0.0638 -0.1287 -0.2129
  531MOL0     C70015   3.888   6.798   7.224  1.1649 -0.0255  0.8486
  531MOL0     C70016   3.768   6.819   7.157 -0.0401  0.4039  0.2838
  531MOL0     C70017   3.759   6.872   7.031  0.0315 -0.4903  0.0049
  531MOL0     O70018   3.629   6.877   6.985  0.2660  0.2700 -0.0405
  531MOL0     C70019   3.596   6.901   6.842  0.9003  0.0415 -0.0546
  531MOL0     C70020   3.467   6.835   6.805 -0.4573  0.8727 -0.0828
  531MOL0     C70021   3.381   6.922   6.713  0.2422 -0.0125  1.1313
  531MOL0     C70022   3.273   6.843   6.645 -0.6950  0.0429  0.3315
  531MOL0     C70023   3.159   6.817   6.736 -0.5434 -0.7074 -0.2645
  531MOL0     C70024   3.075   6.812   6.822  0.1689 -0.5602  0.8474
  531MOL0     C70025   3.874   6.916   6.966  0.0118  0.4760  0.5861
  531MOL0     C70026   3.994   6.904   7.036 -0.4252 -0.2566 -0.3255
  531MOL0     H70027   4.379   6.682   7.300 -1.7001  0.7361  1.4918
  531MOL0     H70028   4.625   6.734   7.374  2.7669  1.4910 -1.3767
  531MOL0     H70029   4.845   6.762   7.367  1.0906  0.1826  0.1159
  531MOL0     H70030   4.799   6.900   7.473  2.3459 -0.3047  0.6086
  531MOL0     H70031   5.035   6.867   7.296 -1.6103  1.1429 -0.1491
  531MOL0     H70032   5.029   6.850   7.471 -0.0192  0.4201  0.4802
  531MOL0     H70033   4.981   7.111   7.333 -1.8792 -1.7260  0.3320
  531MOL0     H70034   5.135   7.052   7.404  0.5077 -0.9759  1.2148
  531MOL0     H70035   4.988   7.224   7.535 -1.2119 -0.8296 -0.6876
  531MOL0     H70036   4.881   7.099   7.572  0.9121  1.5222  3.4119
  531MOL0     H70037   5.169   7.088   7.650  0.6664 -5.6558 -1.9644
  531MOL0     H70038   5.043   6.969   7.695 -1.1033  1.3390  2.0580
  531MOL0     H70039   4.915   7.144   7.806 -0.2675  1.2665 -0.9695
  531MOL0     H70040   5.041   7.269   7.766  0.9770  0.2442  1.4708
  531MOL0     H70041   5.074   7.026   7.959  1.9312 -0.8223 -0.0110
  531MOL0     H70042   5.207   7.118   7.884 -0.6199 -1.3792 -0.1536
  531MOL0     H70043   5.112   7.316   7.990  1.5708  0.4205  1.4331
  531MOL0     H70044   5.136   7.191   8.107 -0.0081 -2.2078 -0.6835
  531MOL0     H70045   4.895   7.003   8.115  1.4408  0.3263  2.8175
  531MOL0     H70046   4.622   7.143   8.319 -1.4048  0.9856 -0.2124
  531MOL0     H70047   4.719   6.996   8.294  0.3076  0.4525 -0.1639
  531MOL0     H70048   4.595   6.956   8.075 -0.3372  3.2390 -2.0239
  531MOL0     H70049   4.500   7.090   8.115  0.6471  0.8434  1.8866
  531MOL0     H70050   4.525   6.831   8.294 -0.3553  1.1764  0.5220
  531MOL0     H70051   4.441   6.972   8.351 -0.7262 -3.1050  0.8368
  531MOL0     H70052   4.277   6.817   8.251  2.1356  0.9792  2.8241
  531MOL0     H70053   4.396   6.814   8.103  1.7769  1.1475 -0.1072
  531MOL0     H70054   4.071   7.116   8.120 -2.2108  0.2511 -1.2024
  531MOL0     H70055   3.847   7.044   8.014 -2.0441 -2.3548 -0.2277
  531MOL0     H70056   3.552   6.690   7.929 -0.8303 -0.5319  0.0691
  531MOL0     H70057   3.326   6.654   7.849  0.3258 -0.0427  0.8699
  531MOL0     H70058   3.138   6.940   7.550  1.2317 -2.0678 -0.7705
  531MOL0     H70059   3.073   6.984   7.714 -0.9793  0.2444 -0.7684
  531MOL0     H70060   2.963   6.762   7.538  2.2572 -2.4306  2.2126
  531MOL0     H70061   2.891   6.916   7.561 -0.4023 -0.8115  0.7042
  531MOL0     H70062   2.906   6.881   7.816  0.6543  0.0665  0.0705
  531MOL0     H70063   2.934   6.706   7.781  0.7086 -0.4345  0.2621
  531MOL0     H70064   2.685   6.869   7.709  0.6009  0.8219  1.9570
  531MOL0     H70065   2.740   6.722   7.625  0.1602  0.8474 -0.7513
  531MOL0     H70066   2.717   6.720   7.919 -0.8879 -1.6667  0.6281
  531MOL0     H70067   2.727   6.584   7.812  3.6455  1.1679 -0.3594
  531MOL0     H70068   2.507   6.677   7.684 -0.9534 -3.9247  0.4351
  531MOL0     H70069   2.480   6.776   7.827  2.1311  0.1377  2.6843
  531MOL0     H70070   2.484   6.472   7.843 -1.2339  0.2296 -1.5930
  531MOL0     H70071   2.513   6.567   7.972  1.2756 -2.4204 -0.2478
  531MOL0     H70072   2.286   6.697   7.931 -1.8256 -2.0785  2.7904
  531MOL0     H70073   2.253   6.526   7.931  3.3582  0.8491  3.5399
  531MOL0     H70074   3.315   7.039   7.679  1.8637  1.9131  0.6981
  531MOL0     H70075   3.551   7.065   7.722 -0.1874  0.0600  1.5453
  531MOL0     H70076   4.030   6.690   7.870  0.8325  2.3568 -2.8595
  531MOL0     H70077   4.244   6.759   7.974  1.0615  0.4811  3.2537
  531MOL0     H70078   4.600   7.107   7.150  1.1571 -0.9295 -1.9822
  531MOL0     H70079   4.383   7.073   7.118  1.6532  0.7835 -0.8817
  531MOL0     H70080   3.877   6.747   7.319 -1.1110  2.1225  1.8584
  531MOL0     H70081   3.681   6.787   7.213  0.0641 -0.0582  0.1830
  531MOL0     H70082   3.681   6.888   6.774  2.7898  0.5968  2.0791
  531MOL0     H70083   3.588   7.010   6.845  2.4343  0.1628  0.7716
  531MOL0     H70084   3.500   6.744   6.754 -0.8013  1.5362 -1.5641
  531MOL0     H70085   3.418   6.814   6.900  2.4693  2.7346  2.0138
  531MOL0     H70086   3.441   6.963   6.632  0.5091 -1.0191  0.8020
  531MOL0     H70087   3.334   7.002   6.771  0.4450  0.9070  0.0450
  531MOL0     H70088   3.235   6.905   6.563 -0.5016 -0.4819 -0.1640
  531MOL0     H70089   3.328   6.755   6.608  1.7693  0.7091  2.1429
  531MOL0     H70090   2.991   6.806   6.888 -0.0687  1.6022  0.8380
  531MOL0     H70091   3.867   6.953   6.865 -0.6962 -1.5329 -0.1490
  531MOL0     H70092   4.074   6.945   6.977  0.0501 -1.4017 -0.5019
  532MOL0     O70093   9.741  10.338   7.924 -0.1683 -0.6682  0.2190
  532MOL0     C70094   9.801  10.236   7.909 -0.3901  0.0931 -0.3693
  532MOL0     O70095   9.742  10.109   7.925  0.0324  0.4174 -0.5051
  532MOL0     C70096   9.615  10.079   7.959 -0.6369  0.3784 -1.3063
  532MOL0     C70097   9.580   9.943   7.964  0.7843  0.4578 -0.0930
  532MOL0     C70098   9.450   9.900   8.005  0.1913 -0.1536  0.2351
  532MOL0     C70099   9.353   9.991   8.034  0.3066 -0.4606 -0.1858
  532MOL0     O70100   9.225   9.954   8.058 -0.1137  0.3227  0.2968
  532MOL0     C70101   9.148   9.956   7.941  0.2230 -0.3554  0.1987
  532MOL0     C70102   9.003   9.982   7.986  0.2950 -0.0817  0.4204
  532MOL0     C70103   8.915   9.985   7.858  0.4077  0.4086 -0.3065
  532MOL0     C70104   8.764   9.964   7.874  1.2800  0.8544 -0.0067
  532MOL0     C70105   8.686   9.956   7.742 -0.3901 -0.6626 -1.0188
  532MOL0     C70106   8.669  10.102   7.698  0.5065 -0.6384 -1.6098
  532MOL0     C70107   8.641  10.105   7.555  1.1597 -0.5523  0.8947
  532MOL0     C70108   8.524  10.022   7.500 -0.8551 -0.4357  0.1250
  532MOL0     N70109   8.407  10.044   7.584 -0.4476 -0.1486  0.0570
  532MOL0     C70110   8.361  10.166   7.626  0.0225  0.7319  0.0231
  532MOL0     C70111   8.255  10.143   7.705  0.0157  1.0667  0.9631
  532MOL0     C70112   8.164  10.241   7.762  1.0709  0.4584 -0.1857
  532MOL0     C70113   8.021  10.194   7.780  0.6266  0.4074 -0.4068
  532MOL0     C70114   7.938  10.312   7.834 -0.1009 -0.4080 -0.1884
  532MOL0     C70115   7.793  10.275   7.870  0.2404  0.0535  0.1491
  532MOL0     O70116   7.740  10.390   7.918 -0.0334 -0.4672  0.2196
  532MOL0     C70117   7.615  10.381   7.976  0.6386 -0.5323 -0.2109
  532MOL0     C70118   7.592  10.501   8.042 -0.0537 -0.3563 -0.1549
  532MOL0     C70119   7.473  10.529   8.108 -0.3659 -0.0321 -0.0901
  532MOL0     C70120   7.374  10.435   8.106  0.1527 -0.0437 -0.0943
  532MOL0     C70121   7.254  10.451   8.185 -0.0949 -0.1489  0.6166
  532MOL0     O70122   7.146  10.380   8.136  0.6211 -0.2746  0.7144
  532MOL0     C70123   7.041  10.340   8.212  0.0400 -0.0899  0.1143
  532MOL0     C70124   6.923  10.295   8.147 -0.5015  0.5340  0.2356
  532MOL0     C70125   6.806  10.249   8.208 -0.6839 -0.7077  0.3333
  532MOL0     C70126   6.816  10.229   8.340 -0.0274  0.1533 -0.0300
  532MOL0     O70127   6.705  10.172   8.401  0.8613 -0.3098 -0.4370
  532MOL0     C70128   6.719  10.122   8.538  0.2028  0.3011  0.5762
  532MOL0     C70129   6.584  10.066   8.591 -0.8028 -0.5579  0.7506
  532MOL0     C70130   6.543   9.950   8.500 -0.0714  1.1605 -0.6619
  532MOL0     C70131   6.416   9.898   8.568  0.5367  1.3149  0.7968
  532MOL0     C70132   6.374   9.760   8.515 -0.2817 -0.7466 -0.4710
  532MOL0     C70133   6.237   9.721   8.552  0.5128  0.6677  0.5030
  532MOL0     C70134   6.206   9.574   8.501 -0.3724  0.3214  0.0135
  532MOL0     C70135   6.091   9.497   8.557  0.5695 -0.4572 -0.0321
  532MOL0    Cl70136   5.951   9.603   8.560  0.1262 -0.5383  0.1939
  532MOL0     C70137   6.929  10.275   8.413 -0.4370 -0.1767 -0.6918
  532MOL0     C70138   7.040  10.331   8.352 -0.6024 -0.3297 -0.2593
  532MOL0     O70139   7.252  10.541   8.269  0.6002  0.2101  0.1985
  532MOL0     C70140   7.402  10.311   8.042  0.8654 -0.4610  0.1822
  532MOL0     C70141   7.517  10.287   7.975 -1.0868  0.1627 -0.7393
  532MOL0     N70142   8.237  10.002   7.713 -0.1884  0.2254  0.5133
  532MOL0     N70143   8.338   9.947   7.642  0.7357  0.2764 -0.6701
  532MOL0     C70144   9.393  10.125   8.041  0.1580  0.1216 -0.3936
  532MOL0     C70145   9.515  10.176   7.997 -0.8846  1.1338 -0.4417
  532MOL0     C70146   9.942  10.238   7.885 -0.3854  0.7005  0.4242
  532MOL0     C70147  10.010  10.358   7.869  1.1776 -0.3432 -0.0482
  532MOL0     C70148  10.143  10.357   7.834 -0.1586  0.0153  0.4360
  532MOL0     C70149  10.221  10.244   7.834 -0.0264  0.5858 -1.1793
  532MOL0     O70150  10.353  10.258   7.796 -0.0930 -0.3712  0.0221
  532MOL0     C70151  10.453  10.240   7.897  0.5429 -0.1302  0.7763
  532MOL0     C70152  10.526  10.370   7.927 -0.2131  1.0530 -0.6124
  532MOL0     C70153  10.639  10.347   8.030 -0.6349  0.0687  0.1241
  532MOL0     C70154  10.747  10.245   7.986  0.0862 -0.4581  0.1568
  532MOL0     C70155  10.833  10.304   7.888  0.3863 -0.1441  1.0588
  532MOL0     C70156  10.906  10.358   7.805  0.7134  0.2888  0.4308
  532MOL0     C70157  10.165  10.123   7.864 -0.0026  0.0503 -0.1436
  532MOL0     C70158  10.026  10.120   7.894 -0.6444 -0.3638  0.1213
  532MOL0     H70159   9.646   9.870   7.919  0.3775  0.0026  0.0316
  532MOL0     H70160   9.428   9.794   8.004 -0.3451 -0.0547 -1.2720
  532MOL0     H70161   9.144   9.855   7.899  1.3195  0.0335 -0.8826
  532MOL0     H70162   9.181  10.022   7.861  0.5197 -0.6899  0.0459
  532MOL0     H70163   8.989  10.077   8.038 -1.8183 -0.6904  1.0698
  532MOL0     H70164   8.961   9.901   8.046  0.1848  0.4905  1.1235
  532MOL0     H70165   8.955   9.921   7.779  0.3960 -0.8268  0.6556
  532MOL0     H70166   8.916  10.088   7.819 -2.3911  0.4303 -0.5084
  532MOL0     H70167   8.757   9.868   7.927  0.8432  1.1861  0.5375
  532MOL0     H70168   8.723  10.046   7.933 -0.7096  1.6055 -2.2495
  532MOL0     H70169   8.591   9.907   7.768 -1.7033  2.1649 -0.0714
  532MOL0     H70170   8.748   9.901   7.671  0.9301 -0.0304 -0.3796
  532MOL0     H70171   8.756  10.166   7.718 -0.1521 -0.7704  2.5324
  532MOL0     H70172   8.592  10.146   7.762  1.9664  0.5051 -0.5395
  532MOL0     H70173   8.621  10.207   7.521  1.0747 -0.5402  0.9843
  532MOL0     H70174   8.731  10.076   7.500  1.1003  0.1902  0.3902
  532MOL0     H70175   8.552   9.916   7.496 -4.4625 -1.6099  1.9158
  532MOL0     H70176   8.487  10.047   7.400  2.7270  1.3613 -0.9330
  532MOL0     H70177   8.409  10.260   7.602  1.1037  0.1733 -0.0851
  532MOL0     H70178   8.154  10.333   7.704  0.0107 -0.9427 -2.3634
  532MOL0     H70179   8.202  10.266   7.862 -2.3736 -0.7713  1.6082
  532MOL0     H70180   8.029  10.106   7.844 -1.2438 -0.7803 -1.7409
  532MOL0     H70181   7.972  10.148   7.694 -2.4657 -0.1929  1.5454
  532MOL0     H70182   7.990  10.347   7.924  0.7053  3.3654 -1.9332
  532MOL0     H70183   7.937  10.390   7.758 -0.2130 -0.5843 -0.3673
  532MOL0     H70184   7.789  10.181   7.926  0.2457 -1.0188 -1.5975
  532MOL0     H70185   7.749  10.247   7.774  1.7624 -0.5768 -0.4001
  532MOL0     H70186   7.673  10.570   8.062 -0.2550 -0.6702  2.0221
  532MOL0     H70187   7.456  10.621   8.163 -0.0943 -1.3328  2.2912
  532MOL0     H70188   6.929  10.319   8.041 -1.2710  0.9073  0.2693
  532MOL0     H70189   6.724  10.228   8.140  0.8302 -2.1876 -1.1092
  532MOL0     H70190   6.749  10.199   8.609 -0.0904  1.5928 -0.6352
  532MOL0     H70191   6.797  10.046   8.546  1.0126  1.0360 -0.1654
  532MOL0     H70192   6.515  10.151   8.588 -1.4270 -1.0491  1.0244
  532MOL0     H70193   6.600  10.031   8.693 -0.8273  0.1892  1.0137
  532MOL0     H70194   6.619   9.871   8.494 -0.6869  0.2633  1.9046
  532MOL0     H70195   6.513   9.988   8.402  0.4316  4.3988  0.3462
  532MOL0     H70196   6.434   9.877   8.674  2.5845 -0.5098  0.1616
  532MOL0     H70197   6.330   9.963   8.551 -2.6129 -2.0850  2.5133
  532MOL0     H70198   6.446   9.685   8.551  1.7383  0.2010 -2.2689
  532MOL0     H70199   6.379   9.758   8.406 -2.2482 -1.4610 -0.5772
  532MOL0     H70200   6.164   9.797   8.522  0.2004  0.3482  0.4453
  532MOL0     H70201   6.243   9.719   8.662  0.4749 -0.3578  0.5017
  532MOL0     H70202   6.193   9.577   8.393 -2.7805 -1.2093  0.2034
  532MOL0     H70203   6.289   9.507   8.529 -0.2963  0.9716  1.4477
  532MOL0     H70204   6.118   9.444   8.649  0.8897 -0.8510 -0.3484
  532MOL0     H70205   6.074   9.420   8.481  0.4736  0.6081 -1.1092
  532MOL0     H70206   6.950  10.269   8.519 -3.7689 -1.0962  0.0363
  532MOL0     H70207   7.124  10.352   8.417  0.4788 -2.4439 -0.9052
  532MOL0     H70208   7.329  10.230   8.045  0.6265 -0.2086  2.1722
  532MOL0     H70209   7.523  10.190   7.927 -0.6075 -0.2555  0.1332
  532MOL0     H70210   9.318  10.198   8.067  0.9914  1.8335 -2.4538
  532MOL0     H70211   9.541  10.282   7.999  2.3681  0.4563 -0.7467
  532MOL0     H70212   9.957  10.452   7.880 -0.4018 -1.1694 -0.3201
  532MOL0     H70213  10.187  10.455   7.820  3.5068 -1.0726  2.8904
  532MOL0     H70214  10.522  10.163   7.863  0.1346 -0.7392  1.3061
  532MOL0     H70215  10.418  10.199   7.992 -0.9375 -2.3546 -0.6220
  532MOL0     H70216  10.561  10.407   7.830 -2.9182 -1.7006 -2.8119
  532MOL0     H70217  10.460  10.447   7.969  0.1895  2.3243 -2.2165
  532MOL0     H70218  10.590  10.317   8.123 -0.0118 -0.6765  0.2250
  532MOL0     H70219  10.683  10.445   8.052  0.8000 -1.0612  2.8039
  532MOL0     H70220  10.797  10.223   8.081 -0.9929 -0.5247  0.7288
  532MOL0     H70221  10.707  10.146   7.963 -0.4808 -1.0593  3.2638
  532MOL0     H70222  10.960  10.411   7.729  2.2293 -0.7863  0.7180
  532MOL0     H70223  10.219  10.029   7.869  0.0208  0.1075  3.5546
  532MOL0     H70224   9.977  10.026   7.917 -1.7171  0.3868  1.0422
  533MOL0     O70225   1.334   6.503   0.571  0.0494  0.4412 -0.5317
  533MOL0     C70226   1.283   6.470   0.679 -0.7771 -0.7087  0.0641
  533MOL0     O70227   1.209   6.357   0.695 -0.5897 -0.6366 -0.2036
  533MOL0     C70228   1.161   6.277   0.591 -1.0632 -0.1103  0.5059
  533MOL0     C70229   1.173   6.279   0.448  0.4454 -0.5268 -0.5676
  533MOL0     C70230   1.104   6.193   0.374  0.1135 -0.0712  0.4047
  533MOL0     C70231   1.029   6.086   0.421 -0.5986 -0.2162 -0.3502
  533MOL0     O70232   0.959   6.010   0.325 -0.0207  0.3972  0.3860
  533MOL0     C70233   0.875   5.901   0.363 -0.2880  0.1804 -0.1302
  533MOL0     C70234   0.823   5.844   0.236 -0.3109 -0.3802 -0.4776
  533MOL0     C70235   0.921   5.830   0.121  0.3433  0.2889  0.5614
  533MOL0     C70236   0.842   5.784  -0.002 -0.5903 -0.9241 -0.0474
  533MOL0     C70237   0.929   5.784  -0.129  0.2263 -0.0665 -0.1144
  533MOL0     C70238   0.866   5.708  -0.249 -0.1524  0.3699  0.3145
  533MOL0     C70239   0.727   5.765  -0.283  1.2348 -0.7619 -0.1235
  533MOL0     C70240   0.736   5.910  -0.343  0.2568 -0.1863 -0.1836
  533MOL0     N70241   0.591   5.949  -0.372  0.1182  0.4244 -0.2619
  533MOL0     C70242   0.503   5.858  -0.439 -0.4657 -0.1010 -0.0232
  533MOL0     C70243   0.380   5.902  -0.419 -0.5215 -0.5809 -0.1002
  533MOL0     C70244   0.248   5.828  -0.446 -0.1508  0.4914 -0.0336
  533MOL0     C70245   0.209   5.729  -0.332  0.2805 -0.0707  0.3096
  533MOL0     C70246   0.109   5.619  -0.378  0.2555  0.5640  0.2542
  533MOL0     C70247  -0.022   5.667  -0.442 -0.4032 -0.4972  0.2768
  533MOL0     O70248  -0.095   5.556  -0.486 -0.9055  0.1007 -0.1369
  533MOL0     C70249  -0.222   5.579  -0.514  0.7868  0.1336 -0.2308
  533MOL0     C70250  -0.299   5.467  -0.513  0.2537 -0.4071 -0.3662
  533MOL0     C70251  -0.440   5.472  -0.538  1.0528 -0.0870  0.0840
  533MOL0     C70252  -0.503   5.594  -0.569  1.0271  0.3864 -0.1135
  533MOL0     C70253  -0.650   5.610  -0.564 -0.0218  0.0552  0.6047
  533MOL0     O70254  -0.729   5.494  -0.559 -0.2908 -0.0471 -0.6172
  533MOL0     C70255  -0.868   5.511  -0.574  0.0442  0.0848  0.0565
  533MOL0     C70256  -0.954   5.489  -0.464  1.2571  0.1185 -0.2527
  533MOL0     C70257  -1.093   5.502  -0.489  0.2710 -0.5012 -0.1630
  533MOL0     C70258  -1.147   5.534  -0.610  0.5050  0.0855  0.1224
  533MOL0     O70259  -1.288   5.539  -0.625  0.2432 -0.5375  0.4166
  533MOL0     C70260  -1.334   5.639  -0.716 -0.4576  1.0557  0.5085
  533MOL0     C70261  -1.477   5.618  -0.748  0.0471  1.6828  0.9125
  533MOL0     C70262  -1.495   5.518  -0.863  0.4156  0.7091  0.0261
  533MOL0     C70263  -1.645   5.530  -0.912 -0.3184  0.2080  0.6570
  533MOL0     C70264  -1.665   5.492  -1.063  0.8135  0.2058  0.4621
  533MOL0     C70265  -1.649   5.336  -1.068 -0.5734  0.0846  0.6414
  533MOL0     C70266  -1.658   5.295  -1.221 -0.1688 -0.0459 -0.1640
  533MOL0     C70267  -1.675   5.149  -1.238  0.9007  0.6546  1.2496
  533MOL0    Cl70268  -1.831   5.102  -1.180  0.3749  0.2256  0.5409
  533MOL0     C70269  -1.052   5.554  -0.718  0.0852 -0.3089 -0.4657
  533MOL0     C70270  -0.914   5.546  -0.701 -0.8473 -0.4411 -0.4103
  533MOL0     O70271  -0.690   5.724  -0.591  0.0632  0.9934  0.3977
  533MOL0     C70272  -0.420   5.707  -0.584  0.4089  0.0155 -0.3771
  533MOL0     C70273  -0.280   5.696  -0.563  0.4186  0.0959  0.1654
  533MOL0     N70274   0.385   6.012  -0.333 -0.3294 -0.2229 -0.2346
  533MOL0     N70275   0.511   6.041  -0.309 -0.4286  0.1122  0.3064
  533MOL0     C70276   1.033   6.059   0.557 -0.4429  0.6023  0.5667
  533MOL0     C70277   1.097   6.157   0.636 -0.4240  0.4902  1.1345
  533MOL0     C70278   1.317   6.545   0.799  0.6752 -0.3058  0.5769
  533MOL0     C70279   1.412   6.645   0.802  0.8340 -0.5281  0.0833
  533MOL0     C70280   1.429   6.725   0.909  0.2750  0.2985  0.0095
  533MOL0     C70281   1.357   6.707   1.022  0.3818  0.1554 -0.1475
  533MOL0     O70282   1.401   6.783   1.131 -0.3510 -1.2443 -0.4654
  533MOL0     C70283   1.401   6.733   1.261 -0.5534  0.1769  0.5112
  533MOL0     C70284   1.502   6.626   1.291 -0.5102 -0.0027 -0.0837
  533MOL0     C70285   1.502   6.581   1.436  0.2724  1.0111  1.3735
  533MOL0     C70286   1.367   6.524   1.483  0.0531 -0.0423  0.1720
  533MOL0     C70287   1.393   6.452   1.605 -0.7694 -0.2722 -0.4962
  533MOL0     C70288   1.414   6.392   1.706  1.1964 -0.6568 -0.3308
  533MOL0     C70289   1.265   6.599   1.028 -0.2038 -0.0537  0.8466
  533MOL0     C70290   1.238   6.524   0.913  0.1136  0.3384  0.8243
  533MOL0     H70291   1.222   6.363   0.401 -0.0220 -0.6621 -1.2979
  533MOL0     H70292   1.108   6.227   0.271  0.8129 -1.1693  0.0522
  533MOL0     H70293   0.792   5.937   0.426  0.0486  1.0972 -0.1893
  533MOL0     H70294   0.935   5.825   0.412  0.6801  1.0137 -0.0049
  533MOL0     H70295   0.743   5.903   0.190 -0.4097  0.3488  0.6113
  533MOL0     H70296   0.774   5.751   0.266  0.1960  0.0752  1.9568
  533MOL0     H70297   1.015   5.775   0.135  2.5721  2.4771 -3.6379
  533MOL0     H70298   0.956   5.931   0.097  0.2072  0.0612 -0.6365
  533MOL0     H70299   0.807   5.680   0.005 -1.5297 -0.6252 -0.0693
  533MOL0     H70300   0.754   5.850  -0.007  0.4706  0.5504  0.0300
  533MOL0     H70301   1.022   5.731  -0.109 -0.5166 -1.7624 -0.9648
  533MOL0     H70302   0.945   5.885  -0.168  1.2083 -0.5184 -0.9243
  533MOL0     H70303   0.841   5.606  -0.220 -0.1785  0.4101  0.4340
  533MOL0     H70304   0.938   5.706  -0.331 -2.9318 -3.0991 -2.3561
  533MOL0     H70305   0.673   5.698  -0.350 -1.4279  1.6543 -0.5561
  533MOL0     H70306   0.671   5.763  -0.189  0.4332 -3.1554 -0.5765
  533MOL0     H70307   0.799   5.914  -0.432  3.0443  1.4919  1.7227
  533MOL0     H70308   0.785   5.975  -0.270  1.2558  0.4423 -1.3873
  533MOL0     H70309   0.525   5.770  -0.498 -2.5865  0.3122 -1.5617
  533MOL0     H70310   0.268   5.773  -0.539  0.7432 -2.4139  1.7608
  533MOL0     H70311   0.178   5.911  -0.457  2.6829  2.8186 -2.2139
  533MOL0     H70312   0.166   5.785  -0.249 -0.5832 -0.3156  0.0403
  533MOL0     H70313   0.299   5.685  -0.291  0.9529  0.5433 -0.4562
  533MOL0     H70314   0.146   5.551  -0.455 -3.4913 -0.6792 -0.6514
  533MOL0     H70315   0.082   5.566  -0.286 -1.4708  1.8155  0.5138
  533MOL0     H70316  -0.010   5.740  -0.522 -1.9767  0.8145  1.1715
  533MOL0     H70317  -0.078   5.717  -0.363  0.6072  1.0207  0.0800
  533MOL0     H70318  -0.247   5.375  -0.492  0.5134 -0.3320 -0.6693
  533MOL0     H70319  -0.502   5.383  -0.547 -1.0653  1.0718  2.1428
  533MOL0     H70320  -0.911   5.455  -0.370 -1.2175 -3.7930 -0.2994
  533MOL0     H70321  -1.156   5.471  -0.406  2.1138 -0.7132  1.2243
  533MOL0     H70322  -1.276   5.640  -0.809 -0.4606 -2.7240  0.3226
  533MOL0     H70323  -1.324   5.740  -0.673  2.5207  1.3728 -0.7101
  533MOL0     H70324  -1.525   5.714  -0.769 -0.2951  1.1308 -0.9907
  533MOL0     H70325  -1.535   5.581  -0.663  0.9059 -3.2406 -0.3310
  533MOL0     H70326  -1.479   5.417  -0.823  0.7653  1.2031  1.1742
  533MOL0     H70327  -1.421   5.527  -0.943  1.2374  1.1241  0.8084
  533MOL0     H70328  -1.715   5.475  -0.849 -1.3927  2.7691  1.8333
  533MOL0     H70329  -1.674   5.635  -0.904  1.7575  0.8769  0.0795
  533MOL0     H70330  -1.599   5.547  -1.130  1.4606 -4.0466 -2.8321
  533MOL0     H70331  -1.765   5.511  -1.103  0.6308 -1.1874  0.2122
  533MOL0     H70332  -1.722   5.290  -1.000  0.1495 -0.6271  0.9539
  533MOL0     H70333  -1.552   5.300  -1.034 -0.3974 -0.9125 -0.7825
  533MOL0     H70334  -1.741   5.349  -1.268 -2.1954 -0.0285  3.1601
  533MOL0     H70335  -1.572   5.326  -1.281 -0.5169  0.1908 -0.5462
  533MOL0     H70336  -1.586   5.095  -1.208  0.6622 -0.3295  0.2622
  533MOL0     H70337  -1.670   5.137  -1.347 -1.7501  4.3781  0.5113
  533MOL0     H70338  -1.073   5.576  -0.822  1.2569 -0.1685 -0.6829
  533MOL0     H70339  -0.842   5.574  -0.777  1.3379 -0.7281  1.4635
  533MOL0     H70340  -0.462   5.796  -0.628 -0.3958 -0.2855 -0.2376
  533MOL0     H70341  -0.223   5.784  -0.589  0.3253  0.6047  1.6065
  533MOL0     H70342   0.995   5.965   0.596  0.3366  0.3846  0.8261
  533MOL0     H70343   1.108   6.136   0.742  0.9453 -1.3078  0.6849
  533MOL0     H70344   1.469   6.674   0.714  1.1819 -0.6060  0.2816
  533MOL0     H70345   1.514   6.792   0.907  0.2691  0.4393  2.2002
  533MOL0     H70346   1.298   6.700   1.282 -0.6112  0.1401  0.1740
  533MOL0     H70347   1.427   6.812   1.332  1.7613  0.3690 -0.4520
  533MOL0     H70348   1.480   6.542   1.225  0.8291  0.1703 -0.7921
  533MOL0     H70349   1.604   6.663   1.275 -0.2408 -0.5354  0.4011
  533MOL0     H70350   1.516   6.672   1.495 -1.2957 -0.3243  3.9838
  533MOL0     H70351   1.579   6.506   1.457  0.3796  0.8785  0.5277
  533MOL0     H70352   1.299   6.609   1.495 -0.5501 -0.1447 -2.0977
  533MOL0     H70353   1.327   6.451   1.411 -0.6313 -0.2324  0.7361
  533MOL0     H70354   1.438   6.340   1.797  0.5843  3.5836  2.5502
  533MOL0     H70355   1.212   6.562   1.116  0.8386 -2.2248  0.6094
  533MOL0     H70356   1.165   6.444   0.911  0.0704  0.3838  0.5961
  534MOL0     O70357   8.324  10.615   0.108  0.0139  0.4549 -0.3609
  534MOL0     C70358   8.382  10.625   0.218  0.9538  0.0867  0.2603
  534MOL0     O70359   8.337  10.687   0.329  0.0195  0.3212 -0.3082
  534MOL0     C70360   8.208  10.734   0.321 -0.1939 -0.3548  0.2230
  534MOL0     C70361   8.169  10.869   0.328  0.1243 -0.3677 -0.3070
  534MOL0     C70362   8.034  10.921   0.328  0.6030 -0.0324  0.2945
  534MOL0     C70363   7.932  10.829   0.310  1.2897  0.1753  0.6714
  534MOL0     O70364   7.793  10.857   0.301 -0.1668  0.5694 -0.1113
  534MOL0     C70365   7.735  10.963   0.382 -0.4244 -0.6905  0.1109
  534MOL0     C70366   7.592  10.960   0.413  0.1441 -0.5146 -0.5507
  534MOL0     C70367   7.573  10.927   0.557 -0.1767 -0.3079 -0.1895
  534MOL0     C70368   7.424  10.927   0.589  0.0105 -1.1781 -0.0690
  534MOL0     C70369   7.392  10.883   0.738 -0.5709  0.0304 -0.3478
  534MOL0     C70370   7.478  10.958   0.846 -0.2869  0.0408 -0.2948
  534MOL0     C70371   7.455  10.912   0.990 -0.1073  0.2333  0.7770
  534MOL0     C70372   7.535  10.995   1.088 -0.7025 -0.1139  0.8796
  534MOL0     N70373   7.500  11.133   1.089 -0.0391 -0.6670 -0.5004
  534MOL0     C70374   7.379  11.180   1.129 -0.4099 -0.6244 -0.0071
  534MOL0     C70375   7.394  11.309   1.113 -0.9248  0.5885  0.3047
  534MOL0     C70376   7.294  11.416   1.135 -0.9736 -0.0721  0.2631
  534MOL0     C70377   7.143  11.378   1.122  0.4505 -0.7977  0.2914
  534MOL0     C70378   7.050  11.494   1.143 -1.0121 -0.4730 -0.1544
  534MOL0     C70379   7.012  11.571   1.019 -0.1634 -0.2311 -0.6049
  534MOL0     O70380   6.930  11.691   1.053 -0.3672  0.3778 -0.0125
  534MOL0     C70381   6.791  11.673   1.075  0.2808  0.0907 -0.8269
  534MOL0     C70382   6.726  11.739   1.182  0.2753  0.1674 -0.2565
  534MOL0     C70383   6.583  11.741   1.185 -0.4562  0.1448 -0.4780
  534MOL0     C70384   6.499  11.673   1.090  0.0331 -0.6694 -0.0578
  534MOL0     C70385   6.354  11.664   1.099  0.4394 -0.5110 -0.8223
  534MOL0     O70386   6.291  11.703   1.220 -0.0859 -0.6003  0.3109
  534MOL0     C70387   6.158  11.715   1.220 -0.1395 -0.0666 -0.3678
  534MOL0     C70388   6.072  11.627   1.290  0.2024 -0.0888  0.5526
  534MOL0     C70389   5.936  11.653   1.288  0.5376  0.2023  0.1822
  534MOL0     C70390   5.877  11.762   1.214  0.0402 -0.7020  0.4718
  534MOL0     O70391   5.736  11.782   1.211  0.3399  0.5584 -0.5043
  534MOL0     C70392   5.653  11.658   1.230 -1.0164  0.2520 -0.0680
  534MOL0     C70393   5.508  11.699   1.223  0.1044  0.3218 -0.3164
  534MOL0     C70394   5.422  11.592   1.155 -1.1107 -0.5234 -0.3726
  534MOL0     C70395   5.294  11.667   1.143  0.2538 -0.4968 -0.2277
  534MOL0     C70396   5.189  11.565   1.098  0.1081  0.1577 -0.1119
  534MOL0     C70397   5.059  11.640   1.066 -0.4869 -0.4405  0.1209
  534MOL0     C70398   4.947  11.543   1.016  0.0350 -0.1102 -0.0230
  534MOL0     C70399   4.821  11.613   0.961 -0.4196 -0.2859  0.0468
  534MOL0    Cl70400   4.707  11.643   1.102 -0.1687 -0.3527  0.2270
  534MOL0     C70401   5.967  11.854   1.147 -0.6485  0.2997 -0.4839
  534MOL0     C70402   6.106  11.818   1.146 -0.5433 -0.0826 -0.0464
  534MOL0     O70403   6.298  11.618   1.000 -0.0474 -0.1720 -0.0399
  534MOL0     C70404   6.570  11.596   0.996  0.0230 -0.5778  0.9147
  534MOL0     C70405   6.711  11.595   0.982  0.4413  0.2520  0.3334
  534MOL0     N70406   7.525  11.337   1.065  0.3965 -0.1689 -0.3221
  534MOL0     N70407   7.590  11.228   1.057  0.5767 -0.2078  0.1367
  534MOL0     C70408   7.963  10.691   0.299  0.1830 -0.3996  0.4296
  534MOL0     C70409   8.099  10.647   0.316  0.1211 -0.5550  0.9587
  534MOL0     C70410   8.518  10.562   0.219 -0.4702 -0.5463  0.1423
  534MOL0     C70411   8.571  10.532   0.344  0.6700  0.3725  0.2750
  534MOL0     C70412   8.683  10.465   0.351 -0.8425 -0.1897 -0.5500
  534MOL0     C70413   8.755  10.417   0.236  0.4820 -0.3065 -0.5175
  534MOL0     O70414   8.870  10.352   0.247 -0.2048 -0.1029  0.6327
  534MOL0     C70415   8.934  10.318   0.368  0.7637 -0.2648  0.5417
  534MOL0     C70416   9.068  10.265   0.343  0.0129  0.2110  0.3663
  534MOL0     C70417   9.174  10.375   0.312  0.0557 -0.4946 -0.9577
  534MOL0     C70418   9.315  10.315   0.267 -0.8051 -0.3943 -0.3344
  534MOL0     C70419   9.396  10.247   0.373  0.3116  0.3430 -0.0142
  534MOL0     C70420   9.467  10.180   0.451  0.9026 -0.4979 -0.3856
  534MOL0     C70421   8.704  10.456   0.116 -0.3488 -0.7221 -0.6600
  534MOL0     C70422   8.591  10.527   0.103  0.4129  0.3487  0.7603
  534MOL0     H70423   8.253  10.939   0.329  0.6621 -0.9791 -0.8855
  534MOL0     H70424   8.027  11.029   0.337 -0.9686 -0.2404  2.1312
  534MOL0     H70425   7.754  11.060   0.334  2.4580 -1.6435 -0.9052
  534MOL0     H70426   7.798  10.968   0.472 -0.8567 -0.2623  0.3949
  534MOL0     H70427   7.544  10.878   0.360  1.6614 -2.4602  0.9400
  534MOL0     H70428   7.552  11.061   0.395  0.2083 -0.4580 -0.3780
  534MOL0     H70429   7.614  11.000   0.629  1.6004 -1.8889  0.4966
  534MOL0     H70430   7.625  10.833   0.577  0.0552 -1.0034 -3.5333
  534MOL0     H70431   7.390  11.031   0.581  2.8282 -0.0998  0.9779
  534MOL0     H70432   7.379  10.860   0.515  2.3161 -3.1992  0.2193
  534MOL0     H70433   7.419  10.777   0.747  1.2066  0.2178 -2.6295
  534MOL0     H70434   7.287  10.900   0.761 -0.5282  1.0042 -0.8589
  534MOL0     H70435   7.449  11.063   0.833  2.3492  0.7787 -1.0169
  534MOL0     H70436   7.586  10.954   0.829 -0.0385  0.7160  0.9706
  534MOL0     H70437   7.346  10.910   0.999 -0.7769  0.5117 -4.3130
  534MOL0     H70438   7.483  10.806   0.991  2.7560  0.8770 -0.6512
  534MOL0     H70439   7.638  10.985   1.052 -1.6008  0.6174 -2.1264
  534MOL0     H70440   7.517  10.956   1.189 -1.2476 -0.6864  0.5680
  534MOL0     H70441   7.289  11.123   1.153  0.1171 -2.2662 -1.7096
  534MOL0     H70442   7.312  11.491   1.058  0.9980  1.0666  1.7198
  534MOL0     H70443   7.323  11.457   1.233  1.2234 -0.7491 -0.0395
  534MOL0     H70444   7.114  11.308   1.202 -1.7686  1.7277  1.8365
  534MOL0     H70445   7.119  11.324   1.031 -1.3717 -0.5862  0.6196
  534MOL0     H70446   6.961  11.452   1.191 -1.1888  1.5988  1.4279
  534MOL0     H70447   7.087  11.565   1.217 -0.2847  1.0930 -1.9179
  534MOL0     H70448   6.959  11.501   0.953 -0.3624 -2.3359  1.6235
  534MOL0     H70449   7.105  11.601   0.970  0.3618  0.1803  0.6055
  534MOL0     H70450   6.784  11.798   1.251 -0.8459 -0.3537  1.1980
  534MOL0     H70451   6.534  11.790   1.269 -1.9815  0.0647 -1.2869
  534MOL0     H70452   6.112  11.545   1.350  1.2774  1.9605  2.7873
  534MOL0     H70453   5.875  11.590   1.352  0.1107  1.0882  0.6790
  534MOL0     H70454   5.673  11.618   1.329 -0.9404  0.3273 -0.0540
  534MOL0     H70455   5.663  11.582   1.152 -2.6069 -1.2146  1.0784
  534MOL0     H70456   5.497  11.794   1.169 -1.9530 -1.0528 -2.5698
  534MOL0     H70457   5.468  11.711   1.324  0.7107  0.5234 -0.0969
  534MOL0     H70458   5.406  11.504   1.218 -1.9447 -0.3782 -0.3717
  534MOL0     H70459   5.467  11.561   1.060 -2.7436 -1.4381 -0.8812
  534MOL0     H70460   5.252  11.710   1.233  2.5684 -1.4846  1.4321
  534MOL0     H70461   5.304  11.744   1.066  2.6685  0.8082  1.2789
  534MOL0     H70462   5.166  11.497   1.181  3.8004 -2.1590 -0.7570
  534MOL0     H70463   5.228  11.507   1.014  2.3268  2.9966 -1.1773
  534MOL0     H70464   5.082  11.719   0.994 -1.1144  2.1794  2.5900
  534MOL0     H70465   5.023  11.694   1.155  0.3550 -0.9593  0.7920
  534MOL0     H70466   4.982  11.484   0.931 -1.4339 -1.7800  0.4668
  534MOL0     H70467   4.915  11.472   1.092 -0.8701  1.1008  0.7613
  534MOL0     H70468   4.777  11.545   0.888 -1.7889  0.5852  0.0088
  534MOL0     H70469   4.838  11.714   0.922  0.8699  1.0325  3.5248
  534MOL0     H70470   5.935  11.942   1.091  1.6560  0.0860 -2.3134
  534MOL0     H70471   6.169  11.883   1.086 -0.6030  0.1199  0.1094
  534MOL0     H70472   6.524  11.532   0.920  4.0876 -0.3945 -2.0192
  534MOL0     H70473   6.765  11.537   0.908  0.4338 -1.6437  1.7424
  534MOL0     H70474   7.875  10.633   0.274 -1.5966  2.7535 -1.2328
  534MOL0     H70475   8.128  10.544   0.331  2.8450 -0.1134 -0.5793
  534MOL0     H70476   8.528  10.557   0.441  1.6744 -3.2671  1.8320
  534MOL0     H70477   8.734  10.452   0.446  0.6957  1.0388 -1.1675
  534MOL0     H70478   8.868  10.244   0.413  1.1484 -0.3852  0.9182
  534MOL0     H70479   8.956  10.405   0.432  1.6017 -0.8393  1.0470
  534MOL0     H70480   9.100  10.205   0.428  0.9917  1.8821  1.2351
  534MOL0     H70481   9.070  10.192   0.262 -1.9334  0.7992 -0.2595
  534MOL0     H70482   9.195  10.437   0.399  2.8657 -1.0707 -1.1442
  534MOL0     H70483   9.143  10.431   0.223  1.1525  0.0638 -0.9941
  534MOL0     H70484   9.284  10.245   0.189 -3.1775  2.3779 -2.1238
  534MOL0     H70485   9.378  10.393   0.222  0.3421 -1.4432 -0.5916
  534MOL0     H70486   9.525  10.123   0.521  1.0733  0.8410  0.5972
  534MOL0     H70487   8.750  10.438   0.019  0.7226 -0.2066 -0.2647
  534MOL0     H70488   8.559  10.559   0.004 -1.3361  1.3497  1.5954
  535MOL0     O70489   6.010   3.322   3.976  0.7014 -0.2247  0.7386
  535MOL0     C70490   6.008   3.230   3.893 -0.4065  0.8081 -0.0766
  535MOL0     O70491   5.894   3.167   3.847  0.6432  0.8839 -0.1312
  535MOL0     C70492   5.774   3.233   3.846  0.6562 -0.2712 -0.0898
  535MOL0     C70493   5.747   3.363   3.795 -0.2415  0.5696  0.0162
  535MOL0     C70494   5.611   3.423   3.810 -0.4605  0.2726  0.3297
  535MOL0     C70495   5.502   3.351   3.855  0.6852  0.1780  0.7325
  535MOL0     O70496   5.386   3.419   3.872  0.5954  0.1557  0.0010
  535MOL0     C70497   5.270   3.338   3.906  0.6736 -0.3799  0.3838
  535MOL0     C70498   5.149   3.433   3.891 -0.0551  0.0137 -0.1440
  535MOL0     C70499   5.022   3.338   3.884 -0.1067  0.1589 -1.0837
  535MOL0     C70500   4.896   3.423   3.869 -0.1809 -0.2969  0.9165
  535MOL0     C70501   4.784   3.322   3.821  0.0017 -0.7036 -0.4500
  535MOL0     C70502   4.659   3.395   3.776 -0.1654 -0.1703  0.0651
  535MOL0     C70503   4.542   3.309   3.726 -0.1070 -0.6185 -0.2234
  535MOL0     C70504   4.442   3.399   3.651  0.8056  1.0306  0.1649
  535MOL0     N70505   4.308   3.343   3.628  0.4476 -0.0614 -0.2198
  535MOL0     C70506   4.271   3.229   3.552  0.1737  0.0938 -0.0180
  535MOL0     C70507   4.143   3.214   3.561  0.0138  0.5513 -0.1706
  535MOL0     C70508   4.069   3.108   3.486  0.2339  0.4148  0.9161
  535MOL0     C70509   3.921   3.091   3.521  0.1956 -0.4516 -0.4202
  535MOL0     C70510   3.892   3.062   3.664  0.1751  0.0163 -1.0599
  535MOL0     C70511   3.738   3.072   3.693 -0.7472 -0.1557 -0.3637
  535MOL0     O70512   3.720   3.014   3.826 -0.3810 -0.5972 -0.2080
  535MOL0     C70513   3.592   3.017   3.875 -0.3693  0.5533 -0.4469
  535MOL0     C70514   3.586   2.997   4.008 -0.2701  0.3429  0.1187
  535MOL0     C70515   3.464   2.978   4.067  0.8179 -0.2088  0.0513
  535MOL0     C70516   3.340   2.985   4.002 -0.5816  0.4874 -0.0608
  535MOL0     C70517   3.206   2.977   4.070  0.2335 -0.0986 -0.3699
  535MOL0     O70518   3.093   2.977   3.987  0.0027  0.5502 -0.0017
  535MOL0     C70519   2.980   3.001   4.052  0.1029  0.1853 -0.3971
  535MOL0     C70520   2.962   3.121   4.120  0.2269 -0.0269 -0.0716
  535MOL0     C70521   2.840   3.149   4.172 -0.3873 -0.1059 -1.0978
  535MOL0     C70522   2.729   3.070   4.168  0.1178 -0.1165 -0.2734
  535MOL0     O70523   2.604   3.099   4.217 -0.0583  0.1048  0.0994
  535MOL0     C70524   2.520   3.163   4.124  0.5831 -0.1820  0.0592
  535MOL0     C70525   2.422   3.249   4.206 -0.1241 -0.6676  0.1063
  535MOL0     C70526   2.327   3.321   4.113 -0.0491 -1.0365  0.0534
  535MOL0     C70527   2.269   3.445   4.188  0.0180 -0.5365 -0.3900
  535MOL0     C70528   2.175   3.515   4.091  0.0617  0.3211  0.4468
  535MOL0     C70529   2.138   3.660   4.145 -0.1928  0.7879  0.3066
  535MOL0     C70530   2.014   3.725   4.071  0.6114 -0.3228  0.2390
  535MOL0     C70531   1.910   3.783   4.166 -0.1533 -1.0208 -0.0983
  535MOL0    Cl70532   1.841   3.669   4.288  0.1194  0.0464  0.0081
  535MOL0     C70533   2.739   2.946   4.093 -1.1916  0.5494 -0.7121
  535MOL0     C70534   2.873   2.911   4.044  0.0723 -0.0708  0.2149
  535MOL0     O70535   3.211   2.959   4.194  1.4928 -0.4173  0.2251
  535MOL0     C70536   3.351   3.022   3.864  0.3944 -0.7366 -0.6732
  535MOL0     C70537   3.479   3.046   3.808  0.1945 -0.0741 -0.2781
  535MOL0     N70538   4.094   3.320   3.639  0.2248  0.3063 -0.1119
  535MOL0     N70539   4.194   3.392   3.682 -0.9331 -0.2434 -0.1118
  535MOL0     C70540   5.530   3.223   3.894  0.0303  0.3998  0.8135
  535MOL0     C70541   5.663   3.167   3.896  0.1531  0.0195 -0.3932
  535MOL0     C70542   6.139   3.157   3.861 -0.0758 -0.6615  0.5913
  535MOL0     C70543   6.143   3.046   3.788 -0.8701  0.0717  0.6636
  535MOL0     C70544   6.264   2.974   3.767 -0.4037 -1.0667  0.3547
  535MOL0     C70545   6.383   3.034   3.814  0.2427  0.7009  0.0715
  535MOL0     O70546   6.497   2.954   3.806  0.4837 -0.4883  0.1658
  535MOL0     C70547   6.618   2.988   3.882 -0.1025  0.8914  0.0476
  535MOL0     C70548   6.705   2.866   3.894  0.4195 -0.3230 -0.4529
  535MOL0     C70549   6.830   2.894   3.976  0.6430  0.6777 -0.2592
  535MOL0     C70550   6.939   2.797   3.950  0.3591 -0.5232 -0.4536
  535MOL0     C70551   7.045   2.832   4.040 -0.7458 -0.2786 -0.1319
  535MOL0     C70552   7.132   2.867   4.115 -0.0326 -0.3215  0.0731
  535MOL0     C70553   6.383   3.150   3.881 -0.2619 -0.4000  0.0700
  535MOL0     C70554   6.260   3.211   3.903  0.6147 -0.4670  0.1209
  535MOL0     H70555   5.826   3.427   3.758  0.2176  0.4244  0.7355
  535MOL0     H70556   5.596   3.529   3.789 -0.8392 -0.3742 -3.4247
  535MOL0     H70557   5.279   3.302   4.009 -0.7421  0.0790  0.6901
  535MOL0     H70558   5.264   3.249   3.844  0.0398 -1.8573  2.4455
  535MOL0     H70559   5.146   3.496   3.802 -0.2729  1.8057  1.0752
  535MOL0     H70560   5.130   3.496   3.978  0.9876  0.7838 -0.4546
  535MOL0     H70561   5.010   3.277   3.975 -1.6750  3.2689  0.9702
  535MOL0     H70562   5.031   3.279   3.792  0.7720 -0.5213 -0.5845
  535MOL0     H70563   4.864   3.473   3.961 -1.2202  1.5953 -0.3943
  535MOL0     H70564   4.905   3.489   3.782  0.3469  0.2056  1.3446
  535MOL0     H70565   4.757   3.262   3.908 -1.2895  1.3046  0.6341
  535MOL0     H70566   4.820   3.252   3.746  1.0558 -1.2460  0.5329
  535MOL0     H70567   4.679   3.464   3.693 -4.3779  2.7399  1.1740
  535MOL0     H70568   4.623   3.453   3.861 -1.1002  0.2527 -0.6038
  535MOL0     H70569   4.581   3.226   3.667 -0.3785  0.3108 -1.7721
  535MOL0     H70570   4.494   3.258   3.810 -0.4233 -0.6664 -0.4337
  535MOL0     H70571   4.495   3.436   3.563 -2.2630  2.3549 -1.2617
  535MOL0     H70572   4.421   3.485   3.715  0.1374  1.0367 -0.0627
  535MOL0     H70573   4.339   3.158   3.507 -2.4104 -1.9613 -0.9733
  535MOL0     H70574   4.128   3.016   3.497  0.3535  0.2772 -0.6796
  535MOL0     H70575   4.063   3.122   3.378  0.2877 -1.8105  0.5752
  535MOL0     H70576   3.879   3.019   3.451 -3.6091  1.6622 -0.5785
  535MOL0     H70577   3.869   3.183   3.494 -2.0729 -2.2675 -2.7483
  535MOL0     H70578   3.928   2.962   3.693 -3.7978 -1.0974  0.6884
  535MOL0     H70579   3.942   3.143   3.718  1.5936  0.4541 -2.9064
  535MOL0     H70580   3.681   3.018   3.616 -0.0429 -0.5330 -0.6338
  535MOL0     H70581   3.703   3.175   3.691  0.7200  0.3552 -1.3223
  535MOL0     H70582   3.679   2.990   4.064 -0.8222  1.5512  1.2273
  535MOL0     H70583   3.464   2.958   4.173 -0.4853 -0.4561  0.0227
  535MOL0     H70584   3.048   3.187   4.125  0.1110  0.0545  1.4174
  535MOL0     H70585   2.830   3.235   4.237 -1.2400 -1.1429  0.2321
  535MOL0     H70586   2.456   3.096   4.066  0.3231 -1.0630  1.3274
  535MOL0     H70587   2.583   3.225   4.059 -1.6679 -2.1251 -4.3800
  535MOL0     H70588   2.476   3.323   4.265  1.2991 -0.7790 -0.9908
  535MOL0     H70589   2.373   3.189   4.283 -0.8841 -0.3709 -0.1380
  535MOL0     H70590   2.243   3.260   4.076 -0.8689 -0.4777  0.9721
  535MOL0     H70591   2.380   3.364   4.027  0.6528 -0.4098  0.7928
  535MOL0     H70592   2.225   3.444   4.288  0.4052  2.5800 -0.0696
  535MOL0     H70593   2.353   3.504   4.225 -0.9220  0.1651  0.7141
  535MOL0     H70594   2.088   3.451   4.073  1.1776 -0.7680 -1.3803
  535MOL0     H70595   2.221   3.528   3.993  1.7388 -1.6346  0.9173
  535MOL0     H70596   2.220   3.733   4.139  0.3132  0.1463 -0.8632
  535MOL0     H70597   2.116   3.648   4.252 -1.4694  0.5382  0.0275
  535MOL0     H70598   2.035   3.809   4.005  1.6501 -2.6221 -2.5469
  535MOL0     H70599   1.961   3.654   4.007 -0.7104  0.0501  0.8715
  535MOL0     H70600   1.839   3.822   4.093  0.2573 -1.0150 -0.4985
  535MOL0     H70601   1.952   3.865   4.225 -3.4142 -1.4341  3.1946
  535MOL0     H70602   2.652   2.882   4.081  0.2819 -1.8393  0.7170
  535MOL0     H70603   2.880   2.824   3.980 -1.5588 -0.6399  0.7567
  535MOL0     H70604   3.257   3.034   3.810 -0.2233  2.8360  0.8982
  535MOL0     H70605   3.481   3.083   3.706  1.6635  2.1974  0.4937
  535MOL0     H70606   5.450   3.159   3.931 -1.5588  1.7556 -0.1569
  535MOL0     H70607   5.689   3.074   3.946  1.8187  0.5783 -0.1763
  535MOL0     H70608   6.052   3.005   3.745  0.2105 -1.6418 -0.0730
  535MOL0     H70609   6.267   2.881   3.712 -0.1770  0.5324 -2.5504
  535MOL0     H70610   6.601   3.015   3.986  0.1753 -0.9638  0.5946
  535MOL0     H70611   6.682   3.064   3.837  3.3826 -1.7244  0.2034
  535MOL0     H70612   6.641   2.789   3.939 -1.8197  0.4704 -2.1220
  535MOL0     H70613   6.729   2.841   3.790 -1.4048 -1.3245 -0.6872
  535MOL0     H70614   6.815   2.882   4.084  3.8648 -0.8617  0.1442
  535MOL0     H70615   6.864   2.996   3.955  5.0551 -0.4904  0.1206
  535MOL0     H70616   6.903   2.694   3.955  1.8855 -1.0691 -0.0557
  535MOL0     H70617   6.974   2.823   3.850 -1.1729 -0.6831 -1.0503
  535MOL0     H70618   7.214   2.897   4.177  0.4147 -0.2098 -0.5622
  535MOL0     H70619   6.468   3.191   3.934 -0.8832  0.0445  0.7396
  535MOL0     H70620   6.261   3.303   3.961  1.9948 -0.7246  0.5570
  536MOL0     O70621   8.446   5.023   2.774  0.5181 -0.2180  0.2557
  536MOL0     C70622   8.462   5.118   2.855  0.1438 -0.6633  0.3188
  536MOL0     O70623   8.361   5.169   2.934  0.0734  0.2604 -0.4597
  536MOL0     C70624   8.236   5.113   2.945  1.2045  1.1183  0.2421
  536MOL0     C70625   8.166   5.038   2.847 -0.1890  0.9910  0.3042
  536MOL0     C70626   8.044   4.977   2.869  0.6203  0.9475 -0.2587
  536MOL0     C70627   7.986   4.986   2.991 -0.0062 -0.0485 -0.2686
  536MOL0     O70628   7.870   4.911   3.015  0.6778  0.4311  0.4974
  536MOL0     C70629   7.894   4.778   3.046 -0.4212  0.5948 -0.8412
  536MOL0     C70630   7.789   4.726   3.155  0.0163  0.2898  0.0578
  536MOL0     C70631   7.732   4.837   3.235  0.5213 -0.3112 -0.0022
  536MOL0     C70632   7.628   4.787   3.336 -0.5271 -0.8528  1.1513
  536MOL0     C70633   7.502   4.873   3.364  0.0986 -0.6544  0.4656
  536MOL0     C70634   7.384   4.860   3.268  0.0257  0.0814  0.0714
  536MOL0     C70635   7.274   4.964   3.298 -0.4168  0.2598  0.4458
  536MOL0     C70636   7.174   4.966   3.179 -0.5691 -0.6998 -0.7152
  536MOL0     N70637   7.066   5.063   3.205 -0.7359 -0.0412  0.0759
  536MOL0     C70638   7.075   5.199   3.220  0.8515  0.2176 -0.7199
  536MOL0     C70639   6.952   5.249   3.212 -0.4104  0.4857 -0.0846
  536MOL0     C70640   6.902   5.387   3.229  0.7117  0.4166  0.0588
  536MOL0     C70641   6.758   5.400   3.182  0.8557 -1.6774 -0.6632
  536MOL0     C70642   6.644   5.343   3.276 -0.5686 -0.3995  0.9131
  536MOL0     C70643   6.507   5.377   3.213 -0.2635  0.7180  0.2418
  536MOL0     O70644   6.396   5.326   3.290 -0.0686 -1.1801 -0.1236
  536MOL0     C70645   6.266   5.380   3.265 -0.1076 -0.0596  0.4282
  536MOL0     C70646   6.239   5.489   3.182 -0.0605  0.6980 -0.6002
  536MOL0     C70647   6.106   5.538   3.160  0.3813  0.7337  0.4073
  536MOL0     C70648   5.998   5.466   3.222 -0.1984  0.1441  0.8607
  536MOL0     C70649   5.863   5.512   3.194 -0.9148  0.1554 -0.1662
  536MOL0     O70650   5.762   5.451   3.253 -0.6120  0.6248  0.8099
  536MOL0     C70651   5.633   5.485   3.216 -1.0953  0.2160  0.4126
  536MOL0     C70652   5.575   5.616   3.212  0.1221 -0.3129 -0.5792
  536MOL0     C70653   5.438   5.636   3.188  0.4571 -0.9133  0.0025
  536MOL0     C70654   5.351   5.529   3.168 -0.2623  0.3839 -0.8615
  536MOL0     O70655   5.225   5.563   3.137  0.4086 -0.6388 -0.0696
  536MOL0     C70656   5.125   5.513   3.224  0.0741  0.1493 -0.2808
  536MOL0     C70657   4.978   5.526   3.162 -0.1674  0.0603 -0.3253
  536MOL0     C70658   4.952   5.672   3.117 -0.1337 -0.8916  0.1137
  536MOL0     C70659   4.812   5.729   3.120  0.3595  0.3446  0.5496
  536MOL0     C70660   4.707   5.665   3.019  0.4212  0.3705 -0.7025
  536MOL0     C70661   4.559   5.703   3.013 -0.5787 -0.4117  0.7485
  536MOL0     C70662   4.475   5.663   3.136 -0.0933 -0.1092 -0.2247
  536MOL0     C70663   4.336   5.628   3.111  0.5582  1.2455 -0.4171
  536MOL0    Cl70664   4.251   5.579   3.257  0.4948 -0.1942  0.2999
  536MOL0     C70665   5.407   5.399   3.160  0.0107  0.1489  0.4064
  536MOL0     C70666   5.553   5.380   3.198  1.2336  0.4585 -0.3132
  536MOL0     O70667   5.845   5.605   3.111 -0.9369  0.0101  0.6318
  536MOL0     C70668   6.028   5.360   3.305 -0.4472  0.0747  0.1797
  536MOL0     C70669   6.159   5.318   3.318 -0.3459 -0.4613 -0.6004
  536MOL0     N70670   6.869   5.145   3.200  0.3646  0.8766 -0.3712
  536MOL0     N70671   6.936   5.032   3.188  0.8591 -0.2340  0.6436
  536MOL0     C70672   8.048   5.056   3.095 -0.4110 -0.4060  0.8027
  536MOL0     C70673   8.172   5.124   3.069  0.2699  0.0254  0.0804
  536MOL0     C70674   8.602   5.176   2.871  0.5431 -0.2076  0.0184
  536MOL0     C70675   8.716   5.117   2.808 -0.0638 -0.3187  0.8192
  536MOL0     C70676   8.838   5.181   2.807  0.6602 -0.6562  0.0505
  536MOL0     C70677   8.853   5.306   2.874  0.4891 -0.1209  0.8989
  536MOL0     O70678   8.971   5.380   2.890  0.7341 -0.4944  0.2079
  536MOL0     C70679   9.093   5.311   2.856  0.0924 -0.1167 -0.7958
  536MOL0     C70680   9.206   5.374   2.930  0.2867 -0.7809 -0.1004
  536MOL0     C70681   9.176   5.399   3.090 -0.1817  0.1663 -0.4303
  536MOL0     C70682   9.300   5.474   3.153  0.3166 -0.0410  0.1302
  536MOL0     C70683   9.428   5.406   3.122 -0.3362  0.1490 -0.3713
  536MOL0     C70684   9.542   5.375   3.110  0.1048  0.7107 -0.3166
  536MOL0     C70685   8.742   5.361   2.937 -0.7194 -0.6828 -0.9039
  536MOL0     C70686   8.624   5.298   2.935  0.3165 -0.4276  0.9718
  536MOL0     H70687   8.211   5.016   2.750 -2.3065  0.4640 -0.6121
  536MOL0     H70688   8.009   4.918   2.784  2.8813 -3.1334  1.3312
  536MOL0     H70689   7.993   4.770   3.093 -0.5544 -4.3011 -0.8644
  536MOL0     H70690   7.892   4.712   2.958  0.9070 -1.2971  0.4625
  536MOL0     H70691   7.845   4.661   3.223  3.8054  0.2890 -2.7526
  536MOL0     H70692   7.701   4.674   3.116 -1.6901  3.1105 -0.1796
  536MOL0     H70693   7.662   4.892   3.171 -0.9985 -1.0056  0.9864
  536MOL0     H70694   7.811   4.895   3.283  0.7791 -0.9797  0.3978
  536MOL0     H70695   7.597   4.693   3.290 -1.3007  0.6439 -1.6092
  536MOL0     H70696   7.677   4.762   3.431  0.1479 -0.3713  0.9375
  536MOL0     H70697   7.524   4.980   3.369 -2.0888 -0.0112 -1.6618
  536MOL0     H70698   7.464   4.848   3.463 -1.1789  0.1540  0.2028
  536MOL0     H70699   7.339   4.762   3.281  1.2133 -0.2484  2.2440
  536MOL0     H70700   7.424   4.876   3.167 -0.1968 -1.7619 -0.3368
  536MOL0     H70701   7.219   4.929   3.386  0.5672 -3.1412 -0.1273
  536MOL0     H70702   7.320   5.061   3.318 -3.1695  1.2805  2.4209
  536MOL0     H70703   7.117   4.873   3.169 -3.2338  0.7611  0.0129
  536MOL0     H70704   7.223   4.984   3.083 -1.1287 -1.6873 -1.2003
  536MOL0     H70705   7.168   5.253   3.232  1.1381  0.2236 -2.7019
  536MOL0     H70706   6.966   5.451   3.168  1.7993 -2.1383 -1.6966
  536MOL0     H70707   6.905   5.419   3.333  0.5249 -1.0274  0.5252
  536MOL0     H70708   6.742   5.377   3.076 -0.9104 -0.5887 -0.6627
  536MOL0     H70709   6.742   5.508   3.185  1.3734 -1.6051 -0.3687
  536MOL0     H70710   6.666   5.236   3.278  2.6105  0.0698 -1.5739
  536MOL0     H70711   6.645   5.387   3.376  1.1057 -0.3276  0.9010
  536MOL0     H70712   6.499   5.342   3.109 -2.2501  0.2848  0.5147
  536MOL0     H70713   6.506   5.486   3.203  2.0458  0.6163 -2.3635
  536MOL0     H70714   6.314   5.547   3.130 -1.9420  1.4758 -2.6167
  536MOL0     H70715   6.090   5.627   3.100 -1.5321  0.6376  0.7222
  536MOL0     H70716   5.637   5.698   3.247 -0.4033 -0.7523  1.5413
  536MOL0     H70717   5.389   5.733   3.194 -0.1337 -1.2676  1.8421
  536MOL0     H70718   5.111   5.571   3.316  2.1649  2.8488 -1.4945
  536MOL0     H70719   5.148   5.408   3.242  1.0350  0.2852 -0.6619
  536MOL0     H70720   4.906   5.506   3.242 -0.0572 -1.6539 -0.6229
  536MOL0     H70721   4.963   5.463   3.074  0.4636 -0.6874  0.0938
  536MOL0     H70722   4.998   5.685   3.019  0.5415  0.4774  0.5887
  536MOL0     H70723   5.012   5.740   3.178 -0.0276 -1.0030  0.1346
  536MOL0     H70724   4.770   5.710   3.219  0.7010 -0.7521  0.4948
  536MOL0     H70725   4.824   5.835   3.096  2.4909  0.0445  0.1518
  536MOL0     H70726   4.707   5.558   3.041 -4.0650  0.5006  1.1176
  536MOL0     H70727   4.737   5.685   2.916  0.3380  2.1524 -0.4202
  536MOL0     H70728   4.516   5.655   2.925  2.2077  0.1552 -1.0573
  536MOL0     H70729   4.555   5.811   2.996  0.2243 -0.2607  1.4930
  536MOL0     H70730   4.519   5.577   3.187 -1.2570  0.4830  1.8561
  536MOL0     H70731   4.475   5.747   3.206  3.2175 -1.2257  1.3264
  536MOL0     H70732   4.340   5.547   3.038  1.4465  1.0525 -0.1641
  536MOL0     H70733   4.280   5.712   3.069 -0.3239  0.5732 -0.6080
  536MOL0     H70734   5.352   5.315   3.118  1.0697 -0.4127  0.1037
  536MOL0     H70735   5.587   5.277   3.197 -2.6301 -1.0069  0.6824
  536MOL0     H70736   5.945   5.304   3.347 -0.1877  0.3270  1.0455
  536MOL0     H70737   6.193   5.233   3.377  0.5913 -0.4454 -1.0990
  536MOL0     H70738   8.009   5.061   3.196  1.4762  0.8164  1.5186
  536MOL0     H70739   8.217   5.183   3.148 -1.3685  2.7852 -0.9282
  536MOL0     H70740   8.704   5.021   2.759 -0.9722 -0.0672  0.5305
  536MOL0     H70741   8.915   5.128   2.751 -0.8433 -1.9347 -0.8832
  536MOL0     H70742   9.118   5.305   2.750  2.9920 -1.3766 -0.1512
  536MOL0     H70743   9.082   5.207   2.888 -1.7771  0.7642  1.7650
  536MOL0     H70744   9.292   5.309   2.911  4.0237  3.2708  1.1717
  536MOL0     H70745   9.226   5.470   2.881 -1.6786 -0.8472 -1.1371
  536MOL0     H70746   9.148   5.306   3.141 -0.9720  0.3070 -0.5825
  536MOL0     H70747   9.088   5.465   3.098 -0.7575 -0.1453 -3.1847
  536MOL0     H70748   9.292   5.576   3.116  1.7552 -0.4297 -1.3804
  536MOL0     H70749   9.287   5.474   3.262 -0.0161 -1.4254  0.1063
  536MOL0     H70750   9.647   5.352   3.108 -0.2740 -1.2143 -0.7841
  536MOL0     H70751   8.755   5.459   2.983  0.4536 -1.7819  1.2720
  536MOL0     H70752   8.533   5.336   2.982 -1.0415  0.5202 -2.1613
  537MOL0     O70753   7.367   1.121   5.676  0.3603  0.1883 -1.0479
  537MOL0     C70754   7.355   1.151   5.560  0.8894 -0.1660  0.2325
  537MOL0     O70755   7.450   1.117   5.467  0.4718 -0.5083 -0.0537
  537MOL0     C70756   7.554   1.027   5.493 -0.5081  0.3610  0.0004
  537MOL0     C70757   7.670   1.029   5.410 -0.0794  0.6026  0.2511
  537MOL0     C70758   7.777   0.944   5.421  0.0513  0.1429 -0.1079
  537MOL0     C70759   7.769   0.846   5.514 -0.1524 -0.7679 -0.7513
  537MOL0     O70760   7.870   0.754   5.505 -0.5507  0.2983  0.7128
  537MOL0     C70761   7.957   0.735   5.617 -0.1286  0.8594 -0.3183
  537MOL0     C70762   8.077   0.829   5.625 -0.1834 -0.2010  0.7398
  537MOL0     C70763   8.189   0.757   5.699  0.8593 -0.5305  0.0894
  537MOL0     C70764   8.303   0.853   5.726 -0.5398  0.1787 -0.0541
  537MOL0     C70765   8.416   0.789   5.810 -0.8541 -0.0416 -0.3902
  537MOL0     C70766   8.525   0.885   5.853 -0.9410 -0.1513  0.0351
  537MOL0     C70767   8.624   0.902   5.737 -0.9431 -0.0682 -0.6412
  537MOL0     C70768   8.739   1.002   5.768 -0.7241  0.6157 -0.7800
  537MOL0     N70769   8.710   1.137   5.733  0.2798  0.2771  0.4923
  537MOL0     C70770   8.648   1.215   5.820 -0.7632 -0.3831 -0.4114
  537MOL0     C70771   8.635   1.341   5.769 -0.8174 -0.5337 -0.7359
  537MOL0     C70772   8.594   1.469   5.827  0.2174 -0.4930 -0.2497
  537MOL0     C70773   8.446   1.497   5.807  0.6576  0.3587 -0.2981
  537MOL0     C70774   8.355   1.422   5.908 -0.6319  0.5238  0.0122
  537MOL0     C70775   8.211   1.463   5.898 -0.3423  0.1966  0.5687
  537MOL0     O70776   8.127   1.438   6.014  0.4712 -0.2380 -0.0026
  537MOL0     C70777   8.024   1.535   6.029  0.3461  0.4805 -0.0509
  537MOL0     C70778   7.918   1.556   5.940  0.6970  0.0205 -0.2186
  537MOL0     C70779   7.798   1.627   5.968  0.3579 -0.2275 -0.5307
  537MOL0     C70780   7.787   1.671   6.103 -0.2662 -0.7090  0.5418
  537MOL0     C70781   7.654   1.721   6.157  0.4427 -0.3060  0.0141
  537MOL0     O70782   7.544   1.707   6.076  0.1180 -0.5628  0.2256
  537MOL0     C70783   7.420   1.734   6.131 -0.2216 -0.7097  0.0305
  537MOL0     C70784   7.391   1.867   6.179 -1.6497  0.4931 -0.0792
  537MOL0     C70785   7.262   1.894   6.225 -0.3715  0.3513  0.9848
  537MOL0     C70786   7.157   1.802   6.206 -0.1170  0.3412  1.1322
  537MOL0     O70787   7.026   1.819   6.241 -0.3599  0.2805  0.2468
  537MOL0     C70788   6.986   1.942   6.293  0.6639 -0.2672 -0.5641
  537MOL0     C70789   6.827   1.918   6.318  0.5903  0.4246 -1.4242
  537MOL0     C70790   6.765   2.047   6.371  0.3945  0.9338  0.4062
  537MOL0     C70791   6.654   2.111   6.284 -0.0583  0.4895 -0.9811
  537MOL0     C70792   6.513   2.059   6.329 -0.1232 -0.0758 -0.8874
  537MOL0     C70793   6.409   2.127   6.235 -0.7144  0.4464  1.4350
  537MOL0     C70794   6.265   2.114   6.291  0.2261  0.2542  0.6140
  537MOL0     C70795   6.155   2.195   6.220 -0.1483  0.8101  0.2190
  537MOL0    Cl70796   6.014   2.204   6.313  0.1391 -0.0040  0.2517
  537MOL0     C70797   7.187   1.672   6.154 -0.4010  0.3482  0.8797
  537MOL0     C70798   7.317   1.637   6.116  0.2238  0.4892 -0.3568
  537MOL0     O70799   7.655   1.773   6.270  0.7744  0.6341 -0.9338
  537MOL0     C70800   7.901   1.649   6.192  0.1412 -0.3544 -0.0884
  537MOL0     C70801   8.018   1.593   6.154  0.1631  0.5754 -0.3663
  537MOL0     N70802   8.669   1.324   5.636 -0.2040  0.3666  0.3353
  537MOL0     N70803   8.711   1.203   5.614 -0.8486  0.4201 -0.6870
  537MOL0     C70804   7.666   0.836   5.607 -1.0424 -0.3870 -0.3143
  537MOL0     C70805   7.565   0.936   5.602  0.0713 -0.2025 -0.3984
  537MOL0     C70806   7.232   1.216   5.495 -0.1033 -0.4639  0.3909
  537MOL0     C70807   7.112   1.223   5.565 -0.5274  0.0815 -0.0447
  537MOL0     C70808   7.000   1.292   5.509  0.3208 -0.3325  0.9296
  537MOL0     C70809   7.008   1.356   5.384 -1.3439  0.4681 -0.0022
  537MOL0     O70810   6.907   1.421   5.320  0.6922  0.0844 -0.0250
  537MOL0     C70811   6.790   1.447   5.402  0.3762  0.4496  0.7538
  537MOL0     C70812   6.692   1.338   5.366  1.0034  0.5868  0.7910
  537MOL0     C70813   6.557   1.359   5.427  0.1352 -0.2718  0.5791
  537MOL0     C70814   6.473   1.238   5.402 -0.1776  0.2951 -0.2028
  537MOL0     C70815   6.339   1.244   5.470 -0.1629  0.0166  0.2137
  537MOL0     C70816   6.222   1.245   5.521  0.6096  0.1316  0.5531
  537MOL0     C70817   7.123   1.342   5.309  1.0201 -0.3192 -0.0787
  537MOL0     C70818   7.237   1.273   5.359 -0.0303  0.0124 -0.6107
  537MOL0     H70819   7.669   1.103   5.330 -0.9287  1.8584  1.3951
  537MOL0     H70820   7.847   0.931   5.340 -0.8604 -0.1414 -0.8709
  537MOL0     H70821   7.995   0.632   5.614 -0.3672  0.7936 -2.1017
  537MOL0     H70822   7.907   0.739   5.714  1.5237 -1.1010  0.6866
  537MOL0     H70823   8.042   0.919   5.677  1.7154  2.0607 -1.6021
  537MOL0     H70824   8.102   0.857   5.522  0.0576  0.4753  0.9746
  537MOL0     H70825   8.213   0.665   5.644 -1.6111 -2.0583  1.3728
  537MOL0     H70826   8.156   0.727   5.799  2.3613 -3.1287 -0.1008
  537MOL0     H70827   8.337   0.895   5.631  2.5867  0.1359  0.9277
  537MOL0     H70828   8.265   0.939   5.782 -1.6752  0.9393 -1.9211
  537MOL0     H70829   8.464   0.703   5.763  1.1989  0.7104  0.2188
  537MOL0     H70830   8.385   0.738   5.902  1.5325 -2.1065 -0.6284
  537MOL0     H70831   8.575   0.834   5.935  1.7821  0.5814 -1.0464
  537MOL0     H70832   8.486   0.981   5.888  0.2492  0.7111 -0.9083
  537MOL0     H70833   8.658   0.803   5.705 -3.9909 -1.4542  0.0742
  537MOL0     H70834   8.587   0.948   5.646  2.1850 -1.1874 -2.6435
  537MOL0     H70835   8.821   0.969   5.702  0.2061 -0.9934  1.0618
  537MOL0     H70836   8.772   0.993   5.872  1.1808 -0.0364 -1.3933
  537MOL0     H70837   8.613   1.176   5.915 -1.5560 -1.9445 -1.2950
  537MOL0     H70838   8.643   1.554   5.780 -1.0718 -0.2179 -1.1590
  537MOL0     H70839   8.621   1.470   5.933 -0.4374 -3.3865  0.0529
  537MOL0     H70840   8.413   1.464   5.708 -3.9472 -1.1025  1.4903
  537MOL0     H70841   8.422   1.604   5.811 -1.7551 -0.1672  1.2360
  537MOL0     H70842   8.349   1.318   5.876 -0.0043  0.8233 -1.1233
  537MOL0     H70843   8.384   1.426   6.014 -1.0927  4.4203  0.1298
  537MOL0     H70844   8.150   1.409   5.825 -1.2419  1.8703  0.0178
  537MOL0     H70845   8.210   1.565   5.858  4.3409  0.8373  1.5708
  537MOL0     H70846   7.926   1.502   5.846  0.5146  0.1098 -0.2866
  537MOL0     H70847   7.722   1.645   5.892  1.7476 -1.4355 -2.3028
  537MOL0     H70848   7.471   1.940   6.185 -1.1948  0.3070 -2.6280
  537MOL0     H70849   7.235   1.986   6.275  0.3163  0.4637  1.1511
  537MOL0     H70850   6.980   2.021   6.218  2.4640  0.3335 -0.1114
  537MOL0     H70851   7.040   1.976   6.381  0.1979  4.6556 -1.8660
  537MOL0     H70852   6.819   1.836   6.389  0.8219 -1.2072 -3.1986
  537MOL0     H70853   6.785   1.888   6.222  0.4323  3.1599 -2.2938
  537MOL0     H70854   6.840   2.126   6.381  1.1973  0.3463 -0.7740
  537MOL0     H70855   6.721   2.018   6.467 -0.3427 -1.1638 -0.5207
  537MOL0     H70856   6.657   2.218   6.304 -1.5258  0.6102 -1.2832
  537MOL0     H70857   6.654   2.095   6.176 -2.4596 -3.7224 -0.5953
  537MOL0     H70858   6.492   2.089   6.433  1.5071  0.1101 -0.5747
  537MOL0     H70859   6.511   1.950   6.331  3.7892 -0.3242 -2.6147
  537MOL0     H70860   6.420   2.068   6.143  0.2028  0.5940  1.4348
  537MOL0     H70861   6.433   2.232   6.216 -3.6685  0.8731 -0.4620
  537MOL0     H70862   6.251   2.006   6.284  2.9203 -0.1993  1.0319
  537MOL0     H70863   6.253   2.140   6.397 -1.2759  2.4096 -0.0144
  537MOL0     H70864   6.124   2.149   6.126 -3.2468 -1.1934  2.0340
  537MOL0     H70865   6.196   2.295   6.203  2.8722 -0.4275 -0.3764
  537MOL0     H70866   7.108   1.600   6.136  0.8669 -1.1787  1.2187
  537MOL0     H70867   7.343   1.535   6.090 -0.3837 -0.1579  1.4369
  537MOL0     H70868   7.880   1.670   6.296 -0.7866  1.4765 -0.6078
  537MOL0     H70869   8.102   1.562   6.216  2.0218  2.9120 -1.5569
  537MOL0     H70870   7.667   0.765   5.689  2.1253 -1.7889 -1.4244
  537MOL0     H70871   7.491   0.930   5.681  1.1978 -1.4333  0.5836
  537MOL0     H70872   7.100   1.186   5.667  0.1033  0.4070  0.1516
  537MOL0     H70873   6.913   1.303   5.572  0.0993  1.5250  0.3504
  537MOL0     H70874   6.747   1.545   5.376 -2.0742 -1.1874 -1.9785
  537MOL0     H70875   6.798   1.458   5.511  1.1724  2.0854  0.5541
  537MOL0     H70876   6.678   1.325   5.258 -1.5544  1.3600  0.9528
  537MOL0     H70877   6.736   1.242   5.395 -0.7835 -0.6186 -0.2648
  537MOL0     H70878   6.522   1.455   5.387  2.3218  0.0020 -0.8420
  537MOL0     H70879   6.572   1.349   5.535 -0.3733 -1.3535  0.5603
  537MOL0     H70880   6.460   1.218   5.296  0.3053 -0.3513 -0.1492
  537MOL0     H70881   6.531   1.159   5.450 -0.8380  1.8293  3.5077
  537MOL0     H70882   6.125   1.254   5.566  0.1439  2.3394 -0.7449
  537MOL0     H70883   7.133   1.381   5.208  2.5698  0.2331  0.2656
  537MOL0     H70884   7.328   1.275   5.301  1.0393  1.1651  1.0163
  538MOL0     O70885   2.514   1.015   5.228  0.1360  0.4282  0.2127
  538MOL0     C70886   2.569   1.128   5.216  0.2809  0.3245 -0.3026
  538MOL0     O70887   2.515   1.241   5.269  0.1818  0.5016  0.1861
  538MOL0     C70888   2.397   1.250   5.345 -0.5572 -1.0917 -0.5870
  538MOL0     C70889   2.384   1.373   5.425 -0.3943  0.5967 -0.4861
  538MOL0     C70890   2.274   1.389   5.510 -0.1309 -0.5809 -0.3506
  538MOL0     C70891   2.171   1.288   5.520 -0.6619  0.2624  1.1279
  538MOL0     O70892   2.057   1.290   5.591 -0.2249 -0.8143 -0.3144
  538MOL0     C70893   2.053   1.354   5.721  0.4630  0.9572  0.9748
  538MOL0     C70894   1.930   1.299   5.788 -0.0040  0.1816 -0.1411
  538MOL0     C70895   1.953   1.238   5.925 -0.4237 -0.2488 -0.7864
  538MOL0     C70896   1.827   1.212   5.990 -0.0170  0.1590 -0.5765
  538MOL0     C70897   1.775   1.336   6.067 -0.6529  0.7820  0.7934
  538MOL0     C70898   1.646   1.392   6.006  0.2046  0.3333  0.1971
  538MOL0     C70899   1.584   1.507   6.079  0.3550 -0.3033 -0.5817
  538MOL0     C70900   1.465   1.568   6.009  0.1143 -0.4987  0.1353
  538MOL0     N70901   1.511   1.671   5.918  0.2032  0.1060 -0.7195
  538MOL0     C70902   1.526   1.646   5.779  0.4055 -1.1537 -0.3398
  538MOL0     C70903   1.524   1.768   5.733 -0.1409  0.0879  0.7199
  538MOL0     C70904   1.512   1.814   5.586 -0.4231 -0.0242 -0.7717
  538MOL0     C70905   1.363   1.781   5.558  0.2336  0.0153 -0.2479
  538MOL0     C70906   1.315   1.830   5.419  0.5298  0.1335 -0.3374
  538MOL0     C70907   1.177   1.767   5.380  0.7394  0.1595  0.5306
  538MOL0     O70908   1.182   1.622   5.385  0.2121  0.0427  0.7565
  538MOL0     C70909   1.069   1.557   5.344 -0.4786 -0.2307  0.3849
  538MOL0     C70910   0.942   1.586   5.405 -1.3328  0.1810 -0.1861
  538MOL0     C70911   0.833   1.524   5.346  0.6946  0.7531 -0.1603
  538MOL0     C70912   0.840   1.422   5.250  1.0194  0.9762 -0.4153
  538MOL0     C70913   0.712   1.373   5.192 -0.2969  0.0599 -0.4949
  538MOL0     O70914   0.600   1.446   5.209 -0.0154  0.0629 -0.1644
  538MOL0     C70915   0.473   1.408   5.167  0.1039  0.1588 -0.6952
  538MOL0     C70916   0.384   1.511   5.131  0.1410 -0.2506  0.0098
  538MOL0     C70917   0.253   1.481   5.089 -0.1217  0.3621 -0.6503
  538MOL0     C70918   0.216   1.344   5.074  0.9854  0.7364  0.1136
  538MOL0     O70919   0.093   1.318   5.017  1.3488 -0.0954 -0.4789
  538MOL0     C70920   0.046   1.191   4.989 -0.0167  0.5686  0.0449
  538MOL0     C70921  -0.062   1.204   4.879  0.7591 -0.2949 -0.3633
  538MOL0     C70922  -0.117   1.060   4.853 -0.1945 -0.5004  1.1625
  538MOL0     C70923  -0.168   1.052   4.700 -0.1309  0.1956 -0.0999
  538MOL0     C70924  -0.277   1.159   4.662 -0.3319  0.2786 -0.1749
  538MOL0     C70925  -0.345   1.141   4.517  1.4869 -0.4768  0.0057
  538MOL0     C70926  -0.451   1.244   4.481  0.8588 -0.6645 -0.8505
  538MOL0     C70927  -0.493   1.232   4.332 -0.7104  0.3748 -0.6554
  538MOL0    Cl70928  -0.623   1.342   4.288 -0.4299 -0.2287 -0.1647
  538MOL0     C70929   0.311   1.239   5.104 -0.3497 -0.0689 -0.1544
  538MOL0     C70930   0.438   1.273   5.150  0.6220  0.3863 -0.0475
  538MOL0     O70931   0.725   1.289   5.099 -0.0654  0.1971  0.0169
  538MOL0     C70932   0.966   1.388   5.217  0.3817  0.8542 -0.1364
  538MOL0     C70933   1.082   1.454   5.253  0.5207 -0.0112 -0.4884
  538MOL0     N70934   1.520   1.861   5.834  0.6472  0.1128 -0.0314
  538MOL0     N70935   1.508   1.800   5.945 -0.1190 -0.2429 -0.7463
  538MOL0     C70936   2.185   1.173   5.438  0.7069  0.3114  0.5514
  538MOL0     C70937   2.290   1.163   5.343 -0.1879 -0.3064 -0.6462
  538MOL0     C70938   2.684   1.140   5.125  0.2879  0.3076  0.4410
  538MOL0     C70939   2.739   1.269   5.111 -0.1031 -0.6117  1.4047
  538MOL0     C70940   2.854   1.286   5.032 -0.4503 -0.3780  0.4389
  538MOL0     C70941   2.915   1.185   4.963  0.1922 -0.3911 -0.5570
  538MOL0     O70942   3.022   1.200   4.883 -0.3753 -0.0866  0.3811
  538MOL0     C70943   3.102   1.320   4.908  0.1666  0.1711  0.1222
  538MOL0     C70944   3.238   1.307   4.841 -0.9649  0.3769  0.1026
  538MOL0     C70945   3.313   1.186   4.879  0.3202  0.0379  0.2358
  538MOL0     C70946   3.465   1.206   4.862  0.0883  0.6957 -0.0780
  538MOL0     C70947   3.549   1.121   4.949 -0.3727 -0.5328  0.3858
  538MOL0     C70948   3.608   1.040   5.014 -0.2499 -0.5703  0.0763
  538MOL0     C70949   2.862   1.060   4.974 -0.4927  0.1902 -0.1013
  538MOL0     C70950   2.745   1.034   5.051 -0.2785  1.0752 -0.2793
  538MOL0     H70951   2.458   1.452   5.424 -1.5737  1.7261 -0.1154
  538MOL0     H70952   2.265   1.488   5.555 -0.6301  0.2138 -2.1068
  538MOL0     H70953   2.049   1.462   5.707 -2.1916  0.6536 -1.5494
  538MOL0     H70954   2.149   1.335   5.769  0.0649  0.6643  1.6824
  538MOL0     H70955   1.882   1.226   5.723  2.7826 -0.4476 -1.6756
  538MOL0     H70956   1.849   1.371   5.799 -0.7523 -0.5100 -0.9530
  538MOL0     H70957   2.023   1.292   5.990 -2.6698  1.7654  0.0870
  538MOL0     H70958   1.994   1.140   5.898 -2.7157 -1.2936 -0.6879
  538MOL0     H70959   1.749   1.174   5.925 -1.9307  4.3530 -1.0456
  538MOL0     H70960   1.847   1.132   6.062 -0.1658  0.0649 -0.6409
  538MOL0     H70961   1.847   1.417   6.047 -0.1899  0.1330 -0.2585
  538MOL0     H70962   1.756   1.305   6.170 -1.6981 -2.6763 -0.2979
  538MOL0     H70963   1.567   1.316   6.006  0.6222 -0.1131 -0.1084
  538MOL0     H70964   1.664   1.432   5.906  2.7341 -0.9674  0.0436
  538MOL0     H70965   1.543   1.455   6.166 -1.2580 -1.3680 -1.9085
  538MOL0     H70966   1.654   1.589   6.096 -1.6349  1.2567  0.4667
  538MOL0     H70967   1.390   1.609   6.077 -0.5702  1.9676 -1.9540
  538MOL0     H70968   1.409   1.497   5.946 -2.5793 -1.0075  2.8468
  538MOL0     H70969   1.517   1.557   5.718  0.3669 -1.2634 -0.1721
  538MOL0     H70970   1.583   1.762   5.521  1.4329  0.6748  0.5954
  538MOL0     H70971   1.532   1.921   5.580 -0.1388 -0.0314 -0.0895
  538MOL0     H70972   1.299   1.821   5.637  1.1282 -0.6150  0.8103
  538MOL0     H70973   1.364   1.672   5.550  0.1135  0.1425 -3.5844
  538MOL0     H70974   1.320   1.938   5.406 -2.8347  0.4679  0.2730
  538MOL0     H70975   1.384   1.782   5.349 -0.7927  0.1241 -1.6906
  538MOL0     H70976   1.148   1.798   5.280  1.2780  1.4247  0.7412
  538MOL0     H70977   1.106   1.813   5.449  1.1328  0.6085  0.6408
  538MOL0     H70978   0.939   1.658   5.486  0.0599 -2.6266  2.6013
  538MOL0     H70979   0.735   1.547   5.388  0.7247  1.7726 -0.6143
  538MOL0     H70980   0.413   1.615   5.124 -0.6961 -0.0969 -1.5355
  538MOL0     H70981   0.187   1.564   5.064  2.4234  2.4261 -0.9442
  538MOL0     H70982   0.002   1.151   5.081  1.9450 -0.6327  0.5059
  538MOL0     H70983   0.125   1.131   4.944 -1.1943  0.7246 -2.3736
  538MOL0     H70984  -0.018   1.247   4.788  0.1414 -0.1057 -0.5821
  538MOL0     H70985  -0.141   1.270   4.917 -0.5294 -1.0242 -1.6489
  538MOL0     H70986  -0.195   1.027   4.923 -3.4271  0.3674 -1.7390
  538MOL0     H70987  -0.037   0.985   4.854 -0.3191 -0.6845 -0.3402
  538MOL0     H70988  -0.081   1.070   4.636 -0.4483  1.0504 -0.3032
  538MOL0     H70989  -0.210   0.953   4.681  1.2748 -0.9242  2.1510
  538MOL0     H70990  -0.231   1.257   4.680  1.4400 -0.9517  2.5760
  538MOL0     H70991  -0.352   1.157   4.741 -0.2283 -0.1120 -0.0872
  538MOL0     H70992  -0.392   1.042   4.506 -1.7217  1.0578 -1.5863
  538MOL0     H70993  -0.267   1.130   4.442  0.7682  0.5812 -0.9280
  538MOL0     H70994  -0.536   1.224   4.546 -0.1501 -0.9620 -2.2288
  538MOL0     H70995  -0.412   1.346   4.494 -3.0804  0.9929 -0.5314
  538MOL0     H70996  -0.510   1.127   4.306  0.6374 -0.3779  1.2831
  538MOL0     H70997  -0.406   1.258   4.271  1.7785 -2.4936  1.3706
  538MOL0     H70998   0.276   1.136   5.099  0.7934 -0.5239  0.7476
  538MOL0     H70999   0.503   1.195   5.187 -0.8016 -0.7112  0.2144
  538MOL0     H71000   0.992   1.306   5.150  2.1389  0.6912  0.6949
  538MOL0     H71001   1.183   1.431   5.222  0.5883 -1.9159  0.9435
  538MOL0     H71002   2.103   1.101   5.437  1.9281 -1.1396 -1.1730
  538MOL0     H71003   2.286   1.084   5.269 -1.9455 -1.2110  0.3349
  538MOL0     H71004   2.695   1.358   5.155  1.6935  1.1065 -0.0952
  538MOL0     H71005   2.900   1.384   5.039  0.6136 -0.9051  1.2356
  538MOL0     H71006   3.123   1.331   5.015 -0.3696  1.2861  0.1306
  538MOL0     H71007   3.046   1.409   4.877 -0.1689  0.3023  1.0849
  538MOL0     H71008   3.232   1.298   4.732  0.3275  0.0968  0.0497
  538MOL0     H71009   3.293   1.399   4.863 -2.0500  1.8382 -2.7722
  538MOL0     H71010   3.278   1.099   4.823 -0.0558 -0.1371  0.7390
  538MOL0     H71011   3.286   1.170   4.984  2.2818  2.8304  1.3021
  538MOL0     H71012   3.494   1.183   4.759 -0.1606  2.9341 -0.6818
  538MOL0     H71013   3.488   1.310   4.885 -0.5098  0.7952  0.0893
  538MOL0     H71014   3.650   0.960   5.072 -1.5831 -1.9485 -0.7824
  538MOL0     H71015   2.907   0.981   4.915  0.7120  0.8801 -0.1312
  538MOL0     H71016   2.713   0.930   5.052  2.0453  0.2817 -0.9399
  539MOL0     O71017   1.490   8.546   0.084  0.5086  0.3245  0.2885
  539MOL0     C71018   1.447   8.611   0.175 -0.4120  0.7609 -0.0643
  539MOL0     O71019   1.311   8.639   0.199  0.7200  0.7111  0.4083
  539MOL0     C71020   1.214   8.555   0.145 -0.1984  0.0770 -0.2116
  539MOL0     C71021   1.235   8.421   0.120  0.0066  0.4650 -0.3906
  539MOL0     C71022   1.132   8.343   0.064  0.5294  0.3486  0.5544
  539MOL0     C71023   0.999   8.391   0.041 -0.2226 -0.7494 -0.0405
  539MOL0     O71024   0.904   8.312  -0.007  0.7548  0.0398 -0.2761
  539MOL0     C71025   0.779   8.369  -0.051 -0.2946 -0.1473 -0.1471
  539MOL0     C71026   0.693   8.253  -0.106 -0.2722  0.2369 -0.4812
  539MOL0     C71027   0.767   8.197  -0.222  0.1376 -0.6256  0.0386
  539MOL0     C71028   0.662   8.116  -0.312  0.0288 -0.4860 -0.8047
  539MOL0     C71029   0.711   8.069  -0.447  0.4625  0.4545  1.1879
  539MOL0     C71030   0.612   8.095  -0.562  0.3551 -0.5727 -0.1002
  539MOL0     C71031   0.674   8.061  -0.691  0.2568  0.2773 -0.4881
  539MOL0     C71032   0.589   8.110  -0.811 -0.2493  0.2297  0.3735
  539MOL0     N71033   0.447   8.064  -0.821 -0.0238  0.5809 -0.0659
  539MOL0     C71034   0.402   7.937  -0.793 -0.5950  0.1253  0.2171
  539MOL0     C71035   0.277   7.927  -0.844  0.2242  0.2287 -0.4987
  539MOL0     C71036   0.187   7.806  -0.822  0.0052 -0.0094  0.0497
  539MOL0     C71037   0.163   7.733  -0.959  0.6291 -0.1476 -0.5003
  539MOL0     C71038   0.127   7.584  -0.956  0.4850  0.3312 -0.3190
  539MOL0     C71039  -0.021   7.547  -0.922  0.5377 -0.2687  0.4458
  539MOL0     O71040  -0.111   7.602  -1.026 -0.2367 -0.0066  0.3155
  539MOL0     C71041  -0.248   7.602  -1.006  0.3448  0.7282  0.3291
  539MOL0     C71042  -0.321   7.689  -1.084 -0.8533 -0.1321 -0.8501
  539MOL0     C71043  -0.458   7.700  -1.069  0.0337  0.2839  0.4415
  539MOL0     C71044  -0.532   7.613  -1.000 -0.6179 -0.2928  0.0825
  539MOL0     C71045  -0.674   7.615  -1.015 -0.2803 -0.1684 -0.2826
  539MOL0     O71046  -0.731   7.711  -1.092 -0.4574  0.1036 -0.1795
  539MOL0     C71047  -0.856   7.707  -1.118  0.6900 -0.2708 -1.1496
  539MOL0     C71048  -0.906   7.685  -1.247 -0.2490  0.0238  1.3226
  539MOL0     C71049  -1.045   7.682  -1.276  0.1209  0.1203 -0.2903
  539MOL0     C71050  -1.136   7.715  -1.179 -0.1087  1.3488  0.3371
  539MOL0     O71051  -1.264   7.691  -1.180 -0.1063 -0.1970  0.6735
  539MOL0     C71052  -1.323   7.700  -1.312 -0.6572  0.3214 -0.2445
  539MOL0     C71053  -1.473   7.737  -1.291 -0.7121  0.4797  0.2519
  539MOL0     C71054  -1.531   7.777  -1.429  0.5588  0.3418 -0.0640
  539MOL0     C71055  -1.683   7.774  -1.444  0.2268  0.8706  0.1930
  539MOL0     C71056  -1.740   7.641  -1.385 -0.1573 -0.4087  0.4090
  539MOL0     C71057  -1.847   7.590  -1.483  1.0084  0.2182 -0.4616
  539MOL0     C71058  -1.975   7.677  -1.489  0.3533 -0.4082  0.3082
  539MOL0     C71059  -2.081   7.603  -1.570 -1.0912  0.1662 -0.9833
  539MOL0    Cl71060  -2.218   7.713  -1.569  0.2653  0.4843 -0.1172
  539MOL0     C71061  -1.089   7.756  -1.054 -0.1047  0.4847  0.1039
  539MOL0     C71062  -0.947   7.756  -1.027  0.3843  0.4924  0.4585
  539MOL0     O71063  -0.729   7.526  -0.955  0.1595 -0.1743  0.0765
  539MOL0     C71064  -0.459   7.530  -0.908 -0.2122  0.4951 -1.4521
  539MOL0     C71065  -0.318   7.514  -0.906  0.0032 -0.3649 -0.3639
  539MOL0     N71066   0.242   8.056  -0.887 -0.1506 -0.0676 -0.4950
  539MOL0     N71067   0.345   8.136  -0.874  0.6052 -0.2934  0.3095
  539MOL0     C71068   0.985   8.530   0.063 -0.1781 -0.2376  0.9654
  539MOL0     C71069   1.089   8.606   0.118  0.3929 -0.7824  0.7495
  539MOL0     C71070   1.552   8.652   0.271  0.2811  0.3190 -0.3783
  539MOL0     C71071   1.517   8.729   0.388  0.1783  0.1930  0.5734
  539MOL0     C71072   1.616   8.756   0.489  0.6065 -0.0682 -0.4220
  539MOL0     C71073   1.749   8.718   0.477  0.0951  0.3898  0.4374
  539MOL0     O71074   1.835   8.760   0.577 -0.1012 -0.1942 -0.4922
  539MOL0     C71075   1.973   8.795   0.553  0.2822 -0.0004 -0.3877
  539MOL0     C71076   1.998   8.897   0.654  0.1604  0.2827 -0.3614
  539MOL0     C71077   2.145   8.922   0.679 -0.2229  0.3318 -0.2971
  539MOL0     C71078   2.210   8.986   0.557  0.5410 -0.1098  0.7711
  539MOL0     C71079   2.131   9.107   0.507 -1.1704  0.0262 -0.9544
  539MOL0     C71080   2.074   9.192   0.450 -0.0808 -0.8579  0.1147
  539MOL0     C71081   1.781   8.637   0.368 -0.5607 -0.0968  0.0308
  539MOL0     C71082   1.692   8.616   0.266  0.6541 -0.3488  1.0504
  539MOL0     H71083   1.336   8.381   0.125  0.0163  0.4060 -1.0432
  539MOL0     H71084   1.160   8.247   0.021 -0.1223  0.3443  0.1183
  539MOL0     H71085   0.801   8.445  -0.127  0.4343 -1.6614 -1.4779
  539MOL0     H71086   0.731   8.414   0.037  1.8809  1.2929  0.3742
  539MOL0     H71087   0.595   8.288  -0.141  0.5140  0.1633 -2.9308
  539MOL0     H71088   0.678   8.186  -0.020  0.2816  0.5481 -0.1349
  539MOL0     H71089   0.848   8.131  -0.190  0.0119 -1.4780 -1.3236
  539MOL0     H71090   0.802   8.278  -0.288  0.8003 -2.1907 -1.6148
  539MOL0     H71091   0.609   8.044  -0.249 -1.9348  2.8661  1.6667
  539MOL0     H71092   0.586   8.188  -0.344 -1.8060 -2.0900 -0.2711
  539MOL0     H71093   0.724   7.960  -0.446 -2.2206  0.0054 -0.4892
  539MOL0     H71094   0.806   8.120  -0.462 -0.2595  1.2358 -1.0273
  539MOL0     H71095   0.579   8.200  -0.555  1.8522 -0.0688 -0.1935
  539MOL0     H71096   0.525   8.032  -0.547  1.0021 -1.2220  1.0829
  539MOL0     H71097   0.769   8.115  -0.687  0.3105  0.1764 -0.4027
  539MOL0     H71098   0.688   7.952  -0.689 -0.7481  0.1489  1.2029
  539MOL0     H71099   0.637   8.085  -0.906 -2.0935 -3.4215  0.2442
  539MOL0     H71100   0.579   8.219  -0.809 -1.0718  0.2767 -2.1631
  539MOL0     H71101   0.468   7.863  -0.748  1.0276  2.2531  1.5071
  539MOL0     H71102   0.090   7.833  -0.780 -1.4964  1.8087 -4.0854
  539MOL0     H71103   0.234   7.739  -0.749  0.1743 -0.8228 -0.7871
  539MOL0     H71104   0.246   7.744  -1.030 -0.9671  0.9406 -2.2971
  539MOL0     H71105   0.086   7.795  -1.004  0.0367 -1.4240 -1.3016
  539MOL0     H71106   0.154   7.546  -1.055 -1.4282 -0.4018 -0.5983
  539MOL0     H71107   0.190   7.526  -0.890  1.0834  0.5727 -0.6657
  539MOL0     H71108  -0.044   7.609  -0.835  0.6352  1.0062 -0.4167
  539MOL0     H71109  -0.039   7.443  -0.894 -1.2604  0.1188  0.8453
  539MOL0     H71110  -0.267   7.748  -1.157 -1.3928 -0.2332 -1.3398
  539MOL0     H71111  -0.501   7.774  -1.136  0.6835 -0.9329 -1.3928
  539MOL0     H71112  -0.842   7.659  -1.331 -2.4715 -0.4843 -0.3108
  539MOL0     H71113  -1.086   7.654  -1.373 -3.0563 -1.2536  1.2983
  539MOL0     H71114  -1.312   7.602  -1.361 -1.4172  0.9966 -1.8636
  539MOL0     H71115  -1.278   7.777  -1.375  1.9889 -1.1939 -0.3270
  539MOL0     H71116  -1.486   7.817  -1.217  2.5171  2.5534 -1.2070
  539MOL0     H71117  -1.521   7.647  -1.251 -0.1365 -0.3960 -0.9637
  539MOL0     H71118  -1.486   7.706  -1.499 -2.5273 -0.9675 -0.9266
  539MOL0     H71119  -1.496   7.879  -1.441  1.8078  0.0245  0.7172
  539MOL0     H71120  -1.727   7.870  -1.417  1.3444  1.4949 -0.1342
  539MOL0     H71121  -1.699   7.772  -1.553  1.4050  2.6082 -0.0436
  539MOL0     H71122  -1.784   7.659  -1.287 -1.1050 -2.2355  0.3733
  539MOL0     H71123  -1.663   7.565  -1.370 -1.0928 -1.0241  2.5104
  539MOL0     H71124  -1.881   7.489  -1.460  1.3508 -0.3110 -2.1059
  539MOL0     H71125  -1.807   7.567  -1.583 -1.8330 -1.7990 -1.2628
  539MOL0     H71126  -2.010   7.707  -1.390  1.9287  0.6989  0.5786
  539MOL0     H71127  -1.950   7.767  -1.546  1.3011  0.8695  2.5948
  539MOL0     H71128  -2.111   7.513  -1.516  2.8390  0.1284  1.5344
  539MOL0     H71129  -2.045   7.589  -1.673  1.1379 -0.3709 -0.2035
  539MOL0     H71130  -1.149   7.776  -0.966  1.0377  0.2188  0.9652
  539MOL0     H71131  -0.911   7.798  -0.934  0.4857  0.7807  0.2918
  539MOL0     H71132  -0.514   7.482  -0.828  2.0518  2.3677  1.4801
  539MOL0     H71133  -0.271   7.457  -0.826 -1.6414  0.6806  1.4507
  539MOL0     H71134   0.889   8.577   0.048 -0.5505 -1.0965  0.5517
  539MOL0     H71135   1.059   8.707   0.147  0.2681 -0.8275  0.7779
  539MOL0     H71136   1.414   8.764   0.393  0.2157  0.9209 -2.3282
  539MOL0     H71137   1.595   8.816   0.577  2.4483 -1.1350  0.8072
  539MOL0     H71138   1.993   8.822   0.449 -2.3431  1.2227 -0.6502
  539MOL0     H71139   2.037   8.707   0.570 -2.2588 -1.9057 -0.1459
  539MOL0     H71140   1.947   8.983   0.609 -1.2421 -1.7274 -2.8429
  539MOL0     H71141   1.944   8.873   0.746 -1.3508 -0.9186 -1.5093
  539MOL0     H71142   2.189   8.824   0.700  1.5747  0.8965 -1.2052
  539MOL0     H71143   2.143   8.991   0.764 -0.1723  3.1973 -2.4598
  539MOL0     H71144   2.315   8.998   0.585  0.7262  0.0478  0.0343
  539MOL0     H71145   2.208   8.913   0.476 -1.4666  0.4260  0.2876
  539MOL0     H71146   2.037   9.276   0.394 -1.7234 -0.8065  1.2304
  539MOL0     H71147   1.886   8.612   0.358  0.6722  4.3168 -0.2089
  539MOL0     H71148   1.733   8.560   0.183 -2.1701 -1.9394  0.5730
  540MOL0     O71149   0.692   8.245   8.667  0.3910  0.5738 -0.1452
  540MOL0     C71150   0.785   8.323   8.640 -0.1734 -0.2850 -0.7032
  540MOL0     O71151   0.789   8.429   8.558  0.6534 -0.8625  0.6961
  540MOL0     C71152   0.679   8.438   8.472  0.4398 -0.7062 -0.4978
  540MOL0     C71153   0.650   8.345   8.368  0.3972 -0.5822 -0.0523
  540MOL0     C71154   0.534   8.360   8.291 -0.5213  0.1350 -0.7463
  540MOL0     C71155   0.435   8.454   8.309 -0.0402 -0.6911 -0.2437
  540MOL0     O71156   0.329   8.449   8.227  0.1279 -0.2541  0.4133
  540MOL0     C71157   0.231   8.555   8.233  0.4280  0.0472 -0.4168
  540MOL0     C71158   0.131   8.519   8.125 -0.6625 -0.6751 -0.0189
  540MOL0     C71159   0.058   8.384   8.157 -0.9982 -0.2292 -0.8787
  540MOL0     C71160  -0.029   8.341   8.038 -0.0145 -0.1254  0.5971
  540MOL0     C71161  -0.126   8.230   8.076  0.5715  0.2036  0.5353
  540MOL0     C71162  -0.232   8.214   7.973  0.3825 -0.6274  0.2141
  540MOL0     C71163  -0.192   8.175   7.836  0.1321  0.4534  0.6753
  540MOL0     C71164  -0.311   8.140   7.746  0.3601  0.9926 -0.1646
  540MOL0     N71165  -0.423   8.237   7.733  0.1561 -0.8750 -0.6242
  540MOL0     C71166  -0.535   8.247   7.813  0.1318 -0.0731 -0.3901
  540MOL0     C71167  -0.606   8.348   7.763  0.3017  0.1041 -0.2032
  540MOL0     C71168  -0.736   8.401   7.813  0.2746  0.2722 -0.4330
  540MOL0     C71169  -0.858   8.331   7.760 -0.4059  0.2757 -1.0613
  540MOL0     C71170  -0.978   8.422   7.783  0.4653  0.7509 -0.1437
  540MOL0     C71171  -1.098   8.355   7.709  0.3964  0.0106 -0.6402
  540MOL0     O71172  -1.222   8.388   7.769 -0.4313 -0.2972  0.3797
  540MOL0     C71173  -1.272   8.512   7.772 -0.5851 -0.7046 -0.0882
  540MOL0     C71174  -1.390   8.529   7.851 -0.0626 -0.1993  0.3032
  540MOL0     C71175  -1.463   8.650   7.860  0.1659 -0.2481  0.3871
  540MOL0     C71176  -1.414   8.765   7.796  0.0928 -0.3140 -0.0663
  540MOL0     C71177  -1.477   8.888   7.830 -0.0740 -0.9338 -0.4195
  540MOL0     O71178  -1.567   8.898   7.937 -0.0129  0.7050  0.6317
  540MOL0     C71179  -1.644   9.009   7.948 -0.2342  0.3976  0.3689
  540MOL0     C71180  -1.793   9.001   7.952  1.2414 -0.4411  0.3062
  540MOL0     C71181  -1.866   9.129   7.961  0.2920  0.2498  0.5850
  540MOL0     C71182  -1.794   9.253   7.970 -0.3582 -0.8136  1.1705
  540MOL0     O71183  -1.870   9.365   7.964  0.8217 -0.6295 -0.5450
  540MOL0     C71184  -1.817   9.487   7.914  0.1376  0.0534  0.5557
  540MOL0     C71185  -1.942   9.569   7.865  0.2651 -0.6919 -0.2834
  540MOL0     C71186  -2.016   9.503   7.751  0.1874  0.1082 -0.0132
  540MOL0     C71187  -2.134   9.598   7.717 -0.4340 -1.0489  0.4044
  540MOL0     C71188  -2.230   9.544   7.614  0.0469 -0.3568 -0.3045
  540MOL0     C71189  -2.176   9.507   7.477 -0.4607  0.8859  0.4251
  540MOL0     C71190  -2.087   9.628   7.421  0.2380 -0.5723  0.1620
  540MOL0     C71191  -2.035   9.610   7.280  0.4994 -0.0781  0.3383
  540MOL0    Cl71192  -1.959   9.441   7.261  0.0546 -0.2163 -0.5019
  540MOL0     C71193  -1.653   9.249   7.968  0.2749 -0.2451 -0.1620
  540MOL0     C71194  -1.576   9.131   7.947  1.5557  1.1418  0.4057
  540MOL0     O71195  -1.446   8.977   7.756  0.3193 -0.1252  0.0115
  540MOL0     C71196  -1.293   8.756   7.717  0.4229  0.5871  0.8843
  540MOL0     C71197  -1.223   8.631   7.703  0.0413  0.0699  0.5099
  540MOL0     N71198  -0.530   8.405   7.663 -1.0923  0.6707  0.2265
  540MOL0     N71199  -0.417   8.344   7.650 -0.3862 -0.6385 -0.3047
  540MOL0     C71200   0.461   8.542   8.413  0.1430 -0.3120  0.1902
  540MOL0     C71201   0.576   8.539   8.497  0.6438 -0.2439 -0.0921
  540MOL0     C71202   0.912   8.311   8.721 -0.2140  0.3053  0.0465
  540MOL0     C71203   0.923   8.211   8.820 -0.1283  0.1635 -0.2918
  540MOL0     C71204   1.039   8.194   8.899 -0.0775 -0.5940 -0.1987
  540MOL0     C71205   1.140   8.287   8.891 -0.8241  0.4662  0.9962
  540MOL0     O71206   1.259   8.266   8.975  0.5022  0.2737  1.4070
  540MOL0     C71207   1.381   8.299   8.916 -0.2890  1.0103  0.5368
  540MOL0     C71208   1.455   8.396   9.000 -0.4505 -0.4414 -0.5109
  540MOL0     C71209   1.383   8.536   9.004 -0.2452  0.0219 -0.1642
  540MOL0     C71210   1.435   8.648   9.093  0.1841  0.4400  0.1084
  540MOL0     C71211   1.580   8.671   9.067  0.0911  0.8753  0.6691
  540MOL0     C71212   1.698   8.697   9.068  0.3100 -0.2063  0.4980
  540MOL0     C71213   1.130   8.390   8.795 -0.0181  0.5845 -0.5797
  540MOL0     C71214   1.024   8.411   8.712 -0.2079  0.2623 -0.6999
  540MOL0     H71215   0.720   8.264   8.349  3.0137  1.3085  1.0763
  540MOL0     H71216   0.518   8.280   8.219 -0.1930  0.6816 -1.4429
  540MOL0     H71217   0.290   8.646   8.224  0.4253 -0.0039 -0.9877
  540MOL0     H71218   0.178   8.563   8.329  0.6673  0.3439 -0.3084
  540MOL0     H71219   0.183   8.502   8.031 -3.4702  2.0565 -2.2809
  540MOL0     H71220   0.068   8.606   8.106  1.9793  1.3795  0.1224
  540MOL0     H71221   0.002   8.401   8.249 -1.4084 -1.2855 -0.9191
  540MOL0     H71222   0.132   8.305   8.175 -1.7180 -1.1760 -1.9562
  540MOL0     H71223  -0.090   8.426   8.007 -1.9087 -1.3349  0.8898
  540MOL0     H71224   0.040   8.311   7.959  0.9162  1.3328  0.8016
  540MOL0     H71225  -0.177   8.246   8.171  0.6703 -2.7925  1.1906
  540MOL0     H71226  -0.064   8.142   8.097  1.4421  0.9643  1.2528
  540MOL0     H71227  -0.292   8.305   7.968  0.5529 -0.5857 -1.5385
  540MOL0     H71228  -0.293   8.140   8.026  2.7665 -0.6021  3.2717
  540MOL0     H71229  -0.144   8.261   7.788  0.4393  0.1958  0.5192
  540MOL0     H71230  -0.124   8.089   7.844 -2.9138 -2.3704 -1.1331
  540MOL0     H71231  -0.358   8.045   7.775  0.0609  1.2216  0.1159
  540MOL0     H71232  -0.289   8.113   7.642 -0.5291 -1.1022  0.1381
  540MOL0     H71233  -0.561   8.179   7.894 -1.1005 -0.9722 -1.4989
  540MOL0     H71234  -0.746   8.506   7.784 -2.6859 -0.3311 -2.0203
  540MOL0     H71235  -0.741   8.387   7.922  0.2389 -2.4714 -0.7111
  540MOL0     H71236  -0.874   8.233   7.806  1.0485  0.7669  0.5648
  540MOL0     H71237  -0.833   8.315   7.655  0.2977  1.7563 -1.1389
  540MOL0     H71238  -1.006   8.426   7.889  0.0023  4.0392 -0.2881
  540MOL0     H71239  -0.958   8.522   7.744  0.6194  0.7352 -0.1064
  540MOL0     H71240  -1.098   8.245   7.714  1.8907  0.0369  1.5569
  540MOL0     H71241  -1.102   8.376   7.602 -0.9190 -0.7466 -0.7615
  540MOL0     H71242  -1.434   8.445   7.904 -0.7695 -0.7895 -1.1689
  540MOL0     H71243  -1.544   8.646   7.932  0.8846  3.1329  1.5401
  540MOL0     H71244  -1.858   8.914   7.944 -2.9401  2.4124  0.4908
  540MOL0     H71245  -1.975   9.131   7.965  0.2884 -0.2565  0.8808
  540MOL0     H71246  -1.739   9.468   7.840 -1.4712 -0.8850 -0.9886
  540MOL0     H71247  -1.766   9.542   7.995 -3.3978  0.6824  2.5862
  540MOL0     H71248  -1.910   9.668   7.831  0.8622 -1.1092 -0.9719
  540MOL0     H71249  -2.011   9.578   7.949  1.7268 -2.4264  1.1781
  540MOL0     H71250  -2.061   9.407   7.779 -1.1157  0.9188  0.7504
  540MOL0     H71251  -1.955   9.481   7.663 -0.2817 -0.8704 -0.1062
  540MOL0     H71252  -2.193   9.631   7.803  0.4550  0.5040  0.4548
  540MOL0     H71253  -2.095   9.693   7.681 -0.7431 -0.3548  1.7999
  540MOL0     H71254  -2.304   9.622   7.596 -1.3493 -1.6298 -0.2356
  540MOL0     H71255  -2.291   9.464   7.658 -1.5552  1.1282  0.2913
  540MOL0     H71256  -2.260   9.498   7.407  0.1115 -1.0838 -0.0991
  540MOL0     H71257  -2.128   9.408   7.475 -2.1293 -0.0852  2.9210
  540MOL0     H71258  -2.151   9.716   7.427 -1.2566 -1.6534  0.6671
  540MOL0     H71259  -1.994   9.630   7.478  0.0963 -1.0577  0.4155
  540MOL0     H71260  -1.954   9.681   7.260  1.1648 -0.2985  2.0719
  540MOL0     H71261  -2.111   9.608   7.202 -0.8268 -0.5509  1.5800
  540MOL0     H71262  -1.590   9.338   7.967  2.2455 -1.5695 -1.4195
  540MOL0     H71263  -1.468   9.137   7.930  1.2496  0.6216 -2.0899
  540MOL0     H71264  -1.238   8.843   7.683  1.5051  0.8099  3.0533
  540MOL0     H71265  -1.142   8.634   7.631 -1.1716  1.7465 -0.8860
  540MOL0     H71266   0.389   8.617   8.444  1.0235  0.0984  1.3133
  540MOL0     H71267   0.584   8.603   8.584 -0.2007  2.3520 -1.8050
  540MOL0     H71268   0.845   8.135   8.814 -1.3539  1.3507  0.0829
  540MOL0     H71269   1.038   8.111   8.969 -1.5692 -0.7965 -0.4222
  540MOL0     H71270   1.359   8.335   8.815  0.4040  1.0082  0.3769
  540MOL0     H71271   1.438   8.209   8.893  1.4181  1.9279  0.9678
  540MOL0     H71272   1.469   8.363   9.103 -0.0392  1.0491 -0.0702
  540MOL0     H71273   1.556   8.405   8.959  1.5254 -0.3406  3.9054
  540MOL0     H71274   1.277   8.522   9.028  0.2409 -1.2934  1.4085
  540MOL0     H71275   1.383   8.570   8.900  1.6011 -1.6811 -0.7690
  540MOL0     H71276   1.374   8.737   9.082  0.4456  0.6435  0.2873
  540MOL0     H71277   1.416   8.616   9.196 -2.0710 -0.9805 -0.6588
  540MOL0     H71278   1.802   8.719   9.060  0.1342  0.7325  0.6858
  540MOL0     H71279   1.201   8.471   8.803 -2.8619  3.0975  3.1745
  540MOL0     H71280   1.020   8.502   8.654  0.5768  1.3810  0.9187
  541MOL0     O71281   4.436   6.290   3.197 -0.4655 -0.6453 -0.2762
  541MOL0     C71282   4.502   6.188   3.177  0.1518 -0.0126 -0.0984
  541MOL0     O71283   4.445   6.063   3.160 -0.2704 -0.0374  0.8567
  541MOL0     C71284   4.317   6.055   3.198 -0.4430  0.8678 -0.1832
  541MOL0     C71285   4.217   6.079   3.104  0.1236 -0.6562  0.4027
  541MOL0     C71286   4.087   6.046   3.131  0.0316  0.5745  0.2854
  541MOL0     C71287   4.045   5.999   3.253 -0.4113  0.0314  0.3089
  541MOL0     O71288   3.918   5.960   3.269  0.2693 -0.1479 -0.2796
  541MOL0     C71289   3.869   5.855   3.351 -0.4774  0.0507 -0.7569
  541MOL0     C71290   3.822   5.923   3.486  0.4526 -0.2353  0.2125
  541MOL0     C71291   3.674   5.981   3.474  0.7209 -0.8183  0.1063
  541MOL0     C71292   3.594   6.009   3.600  0.4650  0.3578 -0.5855
  541MOL0     C71293   3.448   5.988   3.589  0.0248  0.9435  0.5714
  541MOL0     C71294   3.380   5.977   3.723  0.4781  0.0423  0.1969
  541MOL0     C71295   3.245   5.917   3.696  0.7457  0.0239 -0.6430
  541MOL0     C71296   3.176   5.872   3.826  0.1708  0.6582 -0.3725
  541MOL0     N71297   3.036   5.824   3.797  0.2150 -0.5169  1.3414
  541MOL0     C71298   2.973   5.738   3.875  0.5821  0.2077 -0.4477
  541MOL0     C71299   2.841   5.752   3.841 -0.1033 -0.8299  0.1064
  541MOL0     C71300   2.734   5.691   3.921  0.2918  0.3936 -0.1545
  541MOL0     C71301   2.600   5.655   3.844 -0.6615 -0.8273 -0.5926
  541MOL0     C71302   2.508   5.572   3.937  0.1466 -0.3029  0.8060
  541MOL0     C71303   2.368   5.552   3.877  0.1161 -0.2687  0.3727
  541MOL0     O71304   2.338   5.413   3.871 -0.3300 -0.3030 -0.5122
  541MOL0     C71305   2.204   5.391   3.894  0.3057  0.5025 -0.1015
  541MOL0     C71306   2.143   5.296   3.810 -0.9130 -0.2757 -0.5379
  541MOL0     C71307   2.011   5.262   3.824  0.6358 -0.4115  0.0644
  541MOL0     C71308   1.938   5.338   3.917  0.1088  0.5169 -1.1899
  541MOL0     C71309   1.789   5.329   3.920 -0.4156  0.0726  0.4611
  541MOL0     O71310   1.718   5.442   3.963 -0.9269 -0.1832  0.1684
  541MOL0     C71311   1.576   5.467   3.945 -0.5832  0.8870 -0.9337
  541MOL0     C71312   1.522   5.591   3.982  0.3471 -0.0010  0.1247
  541MOL0     C71313   1.387   5.613   3.985  0.7254 -0.4293  0.4547
  541MOL0     C71314   1.290   5.509   3.955 -0.5160  0.1945  0.4307
  541MOL0     O71315   1.152   5.514   3.944 -0.2661 -0.0464 -0.9375
  541MOL0     C71316   1.093   5.643   3.938  0.1819  0.8576 -0.2520
  541MOL0     C71317   0.946   5.635   3.948  0.6786 -0.1851 -0.3656
  541MOL0     C71318   0.895   5.581   4.083  0.5131 -0.1352  0.1266
  541MOL0     C71319   0.742   5.556   4.095 -0.2100 -0.0775  0.3952
  541MOL0     C71320   0.662   5.671   4.053 -0.2806 -0.1877  0.5270
  541MOL0     C71321   0.513   5.645   4.098 -0.9089  0.3906  0.9221
  541MOL0     C71322   0.434   5.768   4.061  0.7765  0.6866 -0.4464
  541MOL0     C71323   0.285   5.743   4.065  0.3549 -0.7510 -0.3788
  541MOL0    Cl71324   0.216   5.691   4.222  0.0865  0.6428  0.0469
  541MOL0     C71325   1.347   5.384   3.926 -0.0703  0.6517 -0.4380
  541MOL0     C71326   1.490   5.361   3.918  0.8283  0.5330  0.3165
  541MOL0     O71327   1.743   5.231   3.865  0.5625 -0.0581 -0.6241
  541MOL0     C71328   1.998   5.423   4.008 -0.7583 -0.2776 -0.4485
  541MOL0     C71329   2.131   5.433   4.009 -0.0446 -0.8452  0.5600
  541MOL0     N71330   2.833   5.853   3.746  0.8358  0.8204 -0.2369
  541MOL0     N71331   2.943   5.895   3.725 -0.2694 -0.5082 -0.6018
  541MOL0     C71332   4.141   5.973   3.348  0.1646 -0.0159  0.6486
  541MOL0     C71333   4.275   6.004   3.321  1.0124  0.3087  0.3443
  541MOL0     C71334   4.650   6.192   3.170  0.0747 -0.0782 -0.9922
  541MOL0     C71335   4.716   6.292   3.243  0.4480  0.8839  0.0557
  541MOL0     C71336   4.857   6.295   3.238  0.2515  0.8920  0.5249
  541MOL0     C71337   4.928   6.208   3.159  1.0712  0.2945 -0.1627
  541MOL0     O71338   5.060   6.214   3.133 -0.5348 -0.2697 -0.3673
  541MOL0     C71339   5.130   6.322   3.204 -0.2776 -0.0952  0.3092
  541MOL0     C71340   5.281   6.301   3.203  0.0862 -0.3088  0.0282
  541MOL0     C71341   5.331   6.208   3.323  0.0777  0.2128  0.1312
  541MOL0     C71342   5.469   6.145   3.297  0.2057 -0.5830  0.3167
  541MOL0     C71343   5.526   6.124   3.431  0.0034  0.1953  0.0199
  541MOL0     C71344   5.596   6.081   3.523 -0.9380  0.0668 -0.0664
  541MOL0     C71345   4.863   6.107   3.095 -0.5305 -0.5634  0.1845
  541MOL0     C71346   4.726   6.091   3.106  0.1886  0.6446  0.8665
  541MOL0     H71347   4.228   6.124   3.006  0.2873 -0.1738  0.6421
  541MOL0     H71348   4.011   6.047   3.053  1.0611  0.5215 -0.7461
  541MOL0     H71349   3.948   5.783   3.374  0.0573  0.1915 -2.0835
  541MOL0     H71350   3.784   5.808   3.300 -1.2988  0.9119 -0.2216
  541MOL0     H71351   3.888   5.999   3.527 -0.4128  0.5986  0.0937
  541MOL0     H71352   3.801   5.835   3.549 -4.2828  0.1675 -0.4385
  541MOL0     H71353   3.616   5.911   3.412 -0.6589 -0.3135  0.7877
  541MOL0     H71354   3.673   6.073   3.415 -1.5818  0.5245  2.0399
  541MOL0     H71355   3.635   5.936   3.671 -1.6595 -0.2269  0.1210
  541MOL0     H71356   3.608   6.105   3.650 -0.7074  0.2771 -0.0699
  541MOL0     H71357   3.434   5.896   3.532  0.3790  0.8539  0.6292
  541MOL0     H71358   3.402   6.068   3.529  1.9940  0.0696 -2.2925
  541MOL0     H71359   3.374   6.071   3.778  2.6101  0.0927  0.4238
  541MOL0     H71360   3.432   5.905   3.788 -2.1721 -1.4547  0.7992
  541MOL0     H71361   3.195   5.995   3.639  0.2632 -1.6640 -2.6868
  541MOL0     H71362   3.248   5.840   3.618  1.4655  1.4363 -2.0616
  541MOL0     H71363   3.172   5.953   3.899 -1.2863 -0.4481  0.8359
  541MOL0     H71364   3.238   5.793   3.870  1.5606  1.9396  0.0435
  541MOL0     H71365   3.010   5.671   3.952 -0.1870 -1.8565 -1.7725
  541MOL0     H71366   2.710   5.758   4.004 -0.7233  0.0576 -0.1594
  541MOL0     H71367   2.770   5.595   3.959 -2.3192 -0.3512  0.6071
  541MOL0     H71368   2.632   5.595   3.758  1.5228 -0.3765 -0.1488
  541MOL0     H71369   2.547   5.745   3.812 -0.8881 -0.8712 -0.3431
  541MOL0     H71370   2.559   5.475   3.941 -2.6199 -2.1044 -2.6371
  541MOL0     H71371   2.508   5.617   4.038  1.2658  1.9819 -0.1248
  541MOL0     H71372   2.365   5.581   3.771 -0.0562 -2.2100 -0.2067
  541MOL0     H71373   2.295   5.615   3.928  1.6527  1.8986  0.0090
  541MOL0     H71374   2.199   5.261   3.724 -1.4601 -1.9345 -0.2626
  541MOL0     H71375   1.965   5.204   3.745  1.0140  1.2711 -1.4720
  541MOL0     H71376   1.582   5.676   4.015  1.2307  0.0270 -1.4337
  541MOL0     H71377   1.351   5.710   4.020  1.8634 -0.1879  0.9855
  541MOL0     H71378   1.106   5.703   3.847 -1.2168  2.4645  0.5667
  541MOL0     H71379   1.129   5.694   4.028 -0.2562 -0.5645  0.7735
  541MOL0     H71380   0.905   5.562   3.878  0.1761 -0.6197  0.3624
  541MOL0     H71381   0.902   5.732   3.923  0.0401 -0.2113  0.5878
  541MOL0     H71382   0.929   5.654   4.157 -0.3368  2.3716 -1.8296
  541MOL0     H71383   0.938   5.481   4.097 -2.3388 -1.7768 -1.6126
  541MOL0     H71384   0.721   5.471   4.029 -0.5884 -1.9556  2.7627
  541MOL0     H71385   0.732   5.527   4.200  3.6720 -1.3967  0.5502
  541MOL0     H71386   0.668   5.696   3.947  0.3519 -1.2215  0.3017
  541MOL0     H71387   0.699   5.763   4.097 -4.2106  2.0620 -0.3495
  541MOL0     H71388   0.511   5.624   4.205  1.0795  2.2778  1.3915
  541MOL0     H71389   0.464   5.559   4.050 -1.7176  0.4150  1.6904
  541MOL0     H71390   0.455   5.847   4.134  0.8064  0.6692 -0.4369
  541MOL0     H71391   0.472   5.800   3.964  3.6120 -2.2592 -0.4604
  541MOL0     H71392   0.275   5.666   3.988  1.6203 -1.1605 -0.1713
  541MOL0     H71393   0.231   5.834   4.040 -0.2383 -1.2344 -0.8785
  541MOL0     H71394   1.280   5.302   3.906  3.1935 -2.1788 -0.5942
  541MOL0     H71395   1.521   5.260   3.893 -0.4953 -0.3958  2.2005
  541MOL0     H71396   1.927   5.469   4.075 -0.9898  0.4203 -1.1461
  541MOL0     H71397   2.174   5.479   4.098 -1.6008 -0.2167  1.0156
  541MOL0     H71398   4.112   5.935   3.445 -0.6899 -0.0088  0.4035
  541MOL0     H71399   4.355   5.992   3.393  3.2355  0.2671 -1.9790
  541MOL0     H71400   4.656   6.370   3.290  0.3085 -0.3847  2.1432
  541MOL0     H71401   4.896   6.378   3.297 -1.2540  1.9388  0.0988
  541MOL0     H71402   5.105   6.336   3.309  1.5611  1.1884  0.6417
  541MOL0     H71403   5.119   6.420   3.157  4.1996 -0.1956 -1.4929
  541MOL0     H71404   5.314   6.262   3.106  0.1273 -0.2451  0.0162
  541MOL0     H71405   5.336   6.396   3.201  1.3523 -0.8719  2.6910
  541MOL0     H71406   5.258   6.128   3.336  0.3184 -0.7187 -3.2976
  541MOL0     H71407   5.337   6.277   3.408  3.1838  0.7281 -0.3856
  541MOL0     H71408   5.471   6.049   3.245  0.2404 -0.2316 -0.3534
  541MOL0     H71409   5.538   6.216   3.249 -0.1171 -0.5641 -0.1298
  541MOL0     H71410   5.665   6.052   3.599 -1.6878  0.0175  0.6014
  541MOL0     H71411   4.928   6.043   3.035  0.2370  0.1545  0.2353
  541MOL0     H71412   4.670   6.008   3.065 -0.5711  1.7146 -0.3428
  542MOL0     O71413   2.725   6.785   6.262  0.6204 -0.8735  0.0495
  542MOL0     C71414   2.847   6.793   6.236  0.9584 -0.0714  0.2177
  542MOL0     O71415   2.950   6.770   6.333  0.4571 -0.3011  0.2458
  542MOL0     C71416   2.900   6.781   6.458 -0.1340 -0.3444 -0.2241
  542MOL0     C71417   2.846   6.669   6.515  1.2147 -0.0547 -0.2943
  542MOL0     C71418   2.786   6.661   6.637 -0.3757  0.2107  0.1956
  542MOL0     C71419   2.757   6.787   6.700  0.5996  0.3088 -0.0424
  542MOL0     O71420   2.673   6.800   6.809  0.4433  0.5439 -0.5591
  542MOL0     C71421   2.636   6.680   6.873  1.0043  0.3190 -0.1408
  542MOL0     C71422   2.530   6.713   6.975 -0.0322 -0.5840  0.4031
  542MOL0     C71423   2.481   6.592   7.051 -0.3180 -0.6762 -0.8180
  542MOL0     C71424   2.338   6.623   7.099  0.2094  0.4656  0.0380
  542MOL0     C71425   2.287   6.524   7.208 -0.0220 -0.3651  0.5136
  542MOL0     C71426   2.256   6.378   7.168 -0.3635  0.1709 -0.3854
  542MOL0     C71427   2.224   6.302   7.300 -0.7708 -0.7199  0.5924
  542MOL0     C71428   2.205   6.157   7.257 -0.0650 -0.2108  0.0706
  542MOL0     N71429   2.084   6.125   7.184 -0.0977  0.2396  0.4081
  542MOL0     C71430   1.991   6.036   7.235  0.2571 -0.0190 -0.3972
  542MOL0     C71431   1.902   6.025   7.131  0.0222 -0.3554 -0.7639
  542MOL0     C71432   1.782   5.938   7.123  0.3010 -0.4993 -0.3300
  542MOL0     C71433   1.652   5.995   7.056 -0.2808 -0.1845 -0.1104
  542MOL0     C71434   1.608   6.120   7.121  0.6972  0.1069  0.2958
  542MOL0     C71435   1.456   6.127   7.120  0.3725 -0.0963  0.4857
  542MOL0     O71436   1.422   6.148   6.984  0.5490 -0.8459  0.2537
  542MOL0     C71437   1.292   6.184   6.956  0.2821  0.3292 -0.8703
  542MOL0     C71438   1.280   6.202   6.816 -0.3864 -0.1360  0.4557
  542MOL0     C71439   1.148   6.233   6.765 -0.7497 -0.1134 -0.0751
  542MOL0     C71440   1.032   6.236   6.847 -0.6252  0.1104  0.0358
  542MOL0     C71441   0.898   6.276   6.788  0.3895  0.0882 -0.3157
  542MOL0     O71442   0.787   6.228   6.851  0.5723 -0.2054 -0.0018
  542MOL0     C71443   0.660   6.246   6.804 -0.2323  0.2240  0.1313
  542MOL0     C71444   0.618   6.288   6.668 -0.1972 -0.1615  0.3080
  542MOL0     C71445   0.483   6.298   6.650 -0.0740  0.3287 -0.0305
  542MOL0     C71446   0.388   6.280   6.754  0.5380  0.5260  0.0226
  542MOL0     O71447   0.255   6.282   6.715  0.2497 -0.6053 -0.5374
  542MOL0     C71448   0.158   6.201   6.784 -0.2009 -0.0712 -0.2332
  542MOL0     C71449   0.018   6.207   6.710  0.1792  0.1034  0.2264
  542MOL0     C71450   0.019   6.206   6.566  1.3434  0.2029  0.8189
  542MOL0     C71451  -0.116   6.176   6.499 -0.3730 -0.0120 -0.5875
  542MOL0     C71452  -0.236   6.273   6.536  0.6678 -0.2127  0.0161
  542MOL0     C71453  -0.233   6.418   6.484  0.0181 -0.2991  0.4446
  542MOL0     C71454  -0.371   6.472   6.521 -0.3757 -0.0933  0.9934
  542MOL0     C71455  -0.425   6.564   6.410 -0.3632  0.3677 -0.3505
  542MOL0    Cl71456  -0.519   6.471   6.294 -0.1378 -0.2526 -0.0776
  542MOL0     C71457   0.431   6.236   6.878  0.3460  0.3607 -0.5244
  542MOL0     C71458   0.568   6.216   6.901  0.5436 -0.7061  0.6340
  542MOL0     O71459   0.898   6.352   6.693 -0.0512  1.5453 -0.1958
  542MOL0     C71460   1.059   6.206   6.983 -0.4228  0.0191  1.0575
  542MOL0     C71461   1.181   6.192   7.041  0.5752 -0.2623  0.8330
  542MOL0     N71462   1.957   6.095   7.022  0.3818  0.1959 -0.0179
  542MOL0     N71463   2.066   6.151   7.052 -0.7663 -0.0228 -0.2750
  542MOL0     C71464   2.798   6.902   6.635 -0.8598 -0.3451 -0.5309
  542MOL0     C71465   2.878   6.898   6.521 -0.0759 -0.2755 -0.3012
  542MOL0     C71466   2.880   6.811   6.093  1.0264  0.3433 -0.1284
  542MOL0     C71467   3.006   6.762   6.041  0.7912  0.2335 -0.1022
  542MOL0     C71468   3.047   6.786   5.915 -0.3577 -0.2974  0.8404
  542MOL0     C71469   2.971   6.857   5.825 -0.1416 -0.5231 -0.3102
  542MOL0     O71470   2.995   6.878   5.693 -0.4786 -0.0721 -0.1640
  542MOL0     C71471   3.110   6.808   5.631 -0.2364  0.4001  0.1167
  542MOL0     C71472   3.228   6.911   5.641  0.4211 -0.0927 -0.6644
  542MOL0     C71473   3.339   6.889   5.529  1.3498 -0.4277 -0.6035
  542MOL0     C71474   3.472   6.961   5.562 -0.2379 -0.8898  0.7566
  542MOL0     C71475   3.519   6.958   5.703  0.3823  0.1678 -0.1131
  542MOL0     C71476   3.562   6.945   5.818 -0.8966 -0.4298  1.1180
  542MOL0     C71477   2.845   6.908   5.876  0.0168 -0.0966 -0.3848
  542MOL0     C71478   2.801   6.893   6.008  0.0105  0.1650 -0.4444
  542MOL0     H71479   2.863   6.583   6.451  0.0865 -1.5178  1.3001
  542MOL0     H71480   2.744   6.564   6.660 -0.9504  0.9645  2.6353
  542MOL0     H71481   2.711   6.647   6.945 -0.8233 -0.5020  1.4762
  542MOL0     H71482   2.597   6.594   6.818 -2.7628 -0.5782  3.4611
  542MOL0     H71483   2.439   6.746   6.923 -0.8712 -0.7367  1.7464
  542MOL0     H71484   2.561   6.796   7.039  0.5144 -0.3734 -0.1286
  542MOL0     H71485   2.542   6.570   7.139 -1.1032 -0.3266 -0.1737
  542MOL0     H71486   2.491   6.510   6.981  2.6418 -0.1941 -1.0967
  542MOL0     H71487   2.335   6.715   7.160 -1.2441  1.2316 -1.1192
  542MOL0     H71488   2.272   6.619   7.012  0.2635 -2.8448  0.0559
  542MOL0     H71489   2.195   6.568   7.250  0.1540  2.6148 -1.8410
  542MOL0     H71490   2.358   6.538   7.290 -0.0859  1.5193  0.2940
  542MOL0     H71491   2.330   6.331   7.102  0.6282 -1.0907  1.5271
  542MOL0     H71492   2.165   6.385   7.108  0.7601  0.9217 -2.0989
  542MOL0     H71493   2.313   6.307   7.364 -1.4172  2.3015  1.4171
  542MOL0     H71494   2.135   6.346   7.347 -0.7403  1.3175 -1.1208
  542MOL0     H71495   2.198   6.098   7.349 -2.8643 -0.8058 -0.4194
  542MOL0     H71496   2.292   6.119   7.204  0.8849 -0.4464  1.7121
  542MOL0     H71497   1.983   5.997   7.336  1.0904  2.7088  0.7977
  542MOL0     H71498   1.754   5.888   7.216 -3.3738  0.0489 -0.9529
  542MOL0     H71499   1.797   5.846   7.066 -0.9474 -1.1849  0.3978
  542MOL0     H71500   1.569   5.926   7.041  0.9307 -1.5490 -0.6600
  542MOL0     H71501   1.676   6.014   6.951 -0.2337  1.2211  0.1353
  542MOL0     H71502   1.651   6.122   7.221 -1.2871 -1.6218  1.2692
  542MOL0     H71503   1.641   6.213   7.074 -2.9451  1.7974  0.7544
  542MOL0     H71504   1.416   6.210   7.178  0.2705 -0.0215  0.3100
  542MOL0     H71505   1.411   6.036   7.159 -0.1620 -0.4627 -0.9169
  542MOL0     H71506   1.361   6.207   6.744  1.2216  2.4345  2.2915
  542MOL0     H71507   1.150   6.254   6.659  1.6101 -3.1426 -0.7843
  542MOL0     H71508   0.695   6.308   6.595 -0.8013 -0.7515 -0.5032
  542MOL0     H71509   0.436   6.305   6.552 -1.1567 -0.5363  0.4023
  542MOL0     H71510   0.152   6.211   6.893  3.1042 -3.3872  0.4879
  542MOL0     H71511   0.190   6.098   6.765  1.5688  0.3387  0.3429
  542MOL0     H71512  -0.024   6.305   6.733  3.0733  1.3672  0.5038
  542MOL0     H71513  -0.051   6.128   6.742 -0.7623  0.4252 -0.9273
  542MOL0     H71514   0.092   6.128   6.540 -0.2430 -1.8704  2.2996
  542MOL0     H71515   0.049   6.305   6.528 -0.0062  0.7580  1.1223
  542MOL0     H71516  -0.106   6.185   6.391 -2.7594  0.6508 -0.8089
  542MOL0     H71517  -0.143   6.073   6.525  1.5214 -0.6664 -1.1165
  542MOL0     H71518  -0.254   6.275   6.644 -0.1752  1.3245 -0.1121
  542MOL0     H71519  -0.327   6.231   6.493  1.6634 -0.1838 -2.2400
  542MOL0     H71520  -0.218   6.434   6.377  1.1891  1.1301  0.7860
  542MOL0     H71521  -0.156   6.475   6.537 -2.1868  2.3831  0.9492
  542MOL0     H71522  -0.442   6.390   6.535  2.8377 -3.6192 -1.1822
  542MOL0     H71523  -0.371   6.527   6.616 -2.5420  1.0590  0.3868
  542MOL0     H71524  -0.344   6.610   6.353  1.8266 -0.9108  1.5296
  542MOL0     H71525  -0.489   6.635   6.462 -1.3658 -0.1635 -0.8411
  542MOL0     H71526   0.371   6.214   6.965  3.7045  0.9308  2.1399
  542MOL0     H71527   0.602   6.190   7.000  1.0987  1.4501  1.0692
  542MOL0     H71528   0.966   6.191   7.036  0.7027  0.3991  3.2547
  542MOL0     H71529   1.197   6.167   7.145  0.6582 -1.1854  0.6129
  542MOL0     H71530   2.761   6.999   6.668 -1.3739 -0.7053 -0.0218
  542MOL0     H71531   2.912   6.993   6.481 -0.3750 -0.6033 -1.3778
  542MOL0     H71532   3.053   6.689   6.105  0.4722 -0.7242 -0.9242
  542MOL0     H71533   3.133   6.745   5.863  0.1968 -0.0604  1.5523
  542MOL0     H71534   3.098   6.778   5.526  2.4710 -1.2958  0.2139
  542MOL0     H71535   3.129   6.709   5.672  1.6286 -0.2634 -2.1374
  542MOL0     H71536   3.193   7.014   5.634  1.0542  0.2273  0.6222
  542MOL0     H71537   3.275   6.904   5.740 -1.6031  0.4276  0.3925
  542MOL0     H71538   3.289   6.926   5.439 -0.6567 -0.1033  0.5873
  542MOL0     H71539   3.351   6.782   5.511 -1.9897 -0.5048 -3.4100
  542MOL0     H71540   3.561   6.929   5.509  1.4974  2.1136  1.6058
  542MOL0     H71541   3.468   7.070   5.548  0.4273 -0.9521  0.0622
  542MOL0     H71542   3.620   6.924   5.905  1.2997  0.0348 -0.1540
  542MOL0     H71543   2.776   6.957   5.807 -1.6907  1.7941  2.4167
  542MOL0     H71544   2.706   6.931   6.044 -0.2480 -1.4628  0.7221
  543MOL0     O71545   7.105  11.099   6.206  0.6880  0.4070  0.4093
  543MOL0     C71546   7.091  11.067   6.087  1.2475 -0.5095 -0.5127
  543MOL0     O71547   6.991  11.102   6.001  0.0834 -0.3196 -0.2657
  543MOL0     C71548   6.874  11.166   6.046 -0.2242 -0.1431  0.5449
  543MOL0     C71549   6.878  11.264   6.145  0.3755 -1.2235  0.3404
  543MOL0     C71550   6.758  11.313   6.199 -0.4960 -1.0390  0.4546
  543MOL0     C71551   6.638  11.284   6.146  0.0633  0.6231 -0.6298
  543MOL0     O71552   6.528  11.342   6.207  0.0523 -0.2218  0.1130
  543MOL0     C71553   6.407  11.255   6.218  0.2462  0.1423  0.0543
  543MOL0     C71554   6.330  11.301   6.347  0.7927  0.2899  0.3052
  543MOL0     C71555   6.272  11.446   6.329 -0.3873  0.5275  0.0368
  543MOL0     C71556   6.183  11.468   6.449 -0.1818 -0.1776  0.0676
  543MOL0     C71557   6.134  11.616   6.447  0.2949  0.1262 -0.0888
  543MOL0     C71558   6.022  11.643   6.548 -0.0117 -0.6688 -0.2338
  543MOL0     C71559   5.891  11.567   6.517 -0.0326 -0.1202 -0.0834
  543MOL0     C71560   5.776  11.641   6.575 -0.1979 -0.1008  0.8636
  543MOL0     N71561   5.757  11.621   6.720  0.3260  0.5209 -0.4148
  543MOL0     C71562   5.853  11.641   6.818  0.3678  0.7583  0.6164
  543MOL0     C71563   5.806  11.592   6.934  0.0511  0.1478  0.3303
  543MOL0     C71564   5.880  11.600   7.061  0.0577 -0.5497 -0.0847
  543MOL0     C71565   5.848  11.726   7.132  0.2603  0.3947  0.2154
  543MOL0     C71566   5.702  11.777   7.131 -0.3632  0.7635 -0.0285
  543MOL0     C71567   5.591  11.696   7.204  0.2274  0.1578  0.6095
  543MOL0     O71568   5.469  11.770   7.241 -1.1423 -0.5666 -0.2235
  543MOL0     C71569   5.360  11.760   7.166 -0.5959  0.0736  0.0621
  543MOL0     C71570   5.336  11.674   7.053 -0.0227  0.6096 -0.2459
  543MOL0     C71571   5.203  11.674   7.010  0.0649  1.2048 -0.1437
  543MOL0     C71572   5.101  11.745   7.075 -0.5751  0.1269  1.4075
  543MOL0     C71573   4.957  11.719   7.046  0.4985  0.0585  0.3067
  543MOL0     O71574   4.873  11.783   7.134 -0.0008  0.2408  0.0613
  543MOL0     C71575   4.736  11.777   7.127 -0.0219  0.4563 -0.1424
  543MOL0     C71576   4.670  11.884   7.182 -0.1556  0.5185  0.0350
  543MOL0     C71577   4.530  11.890   7.191 -0.3491 -0.0965 -0.2869
  543MOL0     C71578   4.457  11.779   7.142  0.1711 -0.1000  0.1510
  543MOL0     O71579   4.324  11.790   7.147 -0.0460  0.5404 -0.5731
  543MOL0     C71580   4.232  11.748   7.257 -0.3841 -0.3509 -0.6755
  543MOL0     C71581   4.176  11.608   7.228  0.5857 -0.1422  0.7196
  543MOL0     C71582   4.111  11.586   7.090 -0.2089 -0.6393  0.9869
  543MOL0     C71583   3.967  11.644   7.086  0.1380  0.0217 -0.0994
  543MOL0     C71584   3.902  11.607   6.950  0.4061 -0.6796 -0.0250
  543MOL0     C71585   3.774  11.683   6.955  0.3665  0.3922 -0.2459
  543MOL0     C71586   3.702  11.665   6.822  0.1072  0.8866 -0.4827
  543MOL0     C71587   3.568  11.730   6.806 -0.5306  0.2730 -0.3271
  543MOL0    Cl71588   3.444  11.658   6.915 -0.5818 -0.1272  0.5240
  543MOL0     C71589   4.519  11.663   7.091  0.3260  0.0735  0.2923
  543MOL0     C71590   4.656  11.666   7.083 -0.3029 -0.2127  0.1049
  543MOL0     O71591   4.920  11.660   6.945  0.8071  0.1884  0.3036
  543MOL0     C71592   5.132  11.839   7.176  0.0273  0.6006 -0.1925
  543MOL0     C71593   5.264  11.840   7.219  0.6312  0.4082 -0.3635
  543MOL0     N71594   5.670  11.548   6.910 -1.0259 -0.4396 -0.5617
  543MOL0     N71595   5.651  11.560   6.783  0.6249  0.6380  0.5739
  543MOL0     C71596   6.632  11.190   6.037 -0.4218  0.3696 -0.1272
  543MOL0     C71597   6.752  11.136   5.987  0.1695  0.9389 -0.8268
  543MOL0     C71598   7.197  10.978   6.038  0.5588 -0.1172 -0.1949
  543MOL0     C71599   7.317  10.970   6.107 -0.0143 -0.2798 -0.3850
  543MOL0     C71600   7.413  10.878   6.075 -0.7443  0.7888 -0.0503
  543MOL0     C71601   7.387  10.784   5.978 -0.0424 -1.0370 -0.1995
  543MOL0     O71602   7.479  10.692   5.943 -0.2474  0.5475 -1.1581
  543MOL0     C71603   7.458  10.558   5.989 -0.0880  0.1128  0.6193
  543MOL0     C71604   7.432  10.451   5.883 -0.2162 -0.1655  0.6691
  543MOL0     C71605   7.529  10.440   5.765 -0.5230  0.3363 -0.6147
  543MOL0     C71606   7.674  10.460   5.793  0.7996  0.8238 -0.1314
  543MOL0     C71607   7.728  10.356   5.875 -0.4106 -0.7808  0.2686
  543MOL0     C71608   7.782  10.277   5.947  0.2888 -0.1844 -0.3902
  543MOL0     C71609   7.266  10.783   5.905 -0.3391  0.5964 -0.0847
  543MOL0     C71610   7.166  10.875   5.935  0.2266  0.2577  1.2276
  543MOL0     H71611   6.969  11.310   6.182 -0.6037  0.0489  1.3034
  543MOL0     H71612   6.765  11.379   6.285  0.6679 -2.7369  1.7367
  543MOL0     H71613   6.441  11.154   6.241  1.4997  0.5819  0.2449
  543MOL0     H71614   6.342  11.255   6.130  1.1466 -0.4705 -0.6268
  543MOL0     H71615   6.397  11.306   6.434 -0.3331 -2.0172  1.4142
  543MOL0     H71616   6.244  11.236   6.368  0.1250  1.2911  0.7518
  543MOL0     H71617   6.215  11.454   6.236 -3.3408 -2.6303  1.3090
  543MOL0     H71618   6.359  11.511   6.327 -1.0731  1.4496 -0.7899
  543MOL0     H71619   6.099  11.399   6.446  0.0890 -0.7062  2.3160
  543MOL0     H71620   6.249  11.459   6.536  1.7236 -1.8951 -1.4826
  543MOL0     H71621   6.102  11.645   6.347 -0.7969  2.3983  0.8426
  543MOL0     H71622   6.221  11.677   6.470 -1.3099  1.8805  1.7233
  543MOL0     H71623   6.005  11.751   6.536  2.6579 -0.0880  0.4861
  543MOL0     H71624   6.051  11.628   6.653 -2.4092 -4.6889  0.0574
  543MOL0     H71625   5.870  11.563   6.409  0.5316  0.5235 -0.2208
  543MOL0     H71626   5.903  11.464   6.553  0.7576  0.2757  0.7978
  543MOL0     H71627   5.681  11.605   6.534  1.2277 -2.3261 -0.7001
  543MOL0     H71628   5.791  11.746   6.547  1.4728 -0.6953 -0.6079
  543MOL0     H71629   5.941  11.701   6.797  0.4330  0.0737 -1.2526
  543MOL0     H71630   5.985  11.614   7.033 -0.6050  3.7615 -1.1505
  543MOL0     H71631   5.860  11.521   7.133  0.1987  0.0745  0.6517
  543MOL0     H71632   5.901  11.812   7.087  0.5758 -0.7621 -1.7494
  543MOL0     H71633   5.868  11.719   7.239 -0.8267 -0.9277  0.3506
  543MOL0     H71634   5.714  11.875   7.178 -1.1300  1.2650 -0.8445
  543MOL0     H71635   5.681  11.798   7.026 -0.2037  3.7784  0.4483
  543MOL0     H71636   5.635  11.658   7.297  0.3236 -0.7352  0.2082
  543MOL0     H71637   5.561  11.606   7.151  0.6874  0.2827  0.1194
  543MOL0     H71638   5.413  11.619   7.000 -0.5768  0.6225 -1.0739
  543MOL0     H71639   5.187  11.611   6.923 -0.5072 -2.1070  2.1554
  543MOL0     H71640   4.725  11.965   7.228  2.2784 -1.7500  1.3682
  543MOL0     H71641   4.487  11.970   7.251  3.3790 -0.7763  3.7872
  543MOL0     H71642   4.157  11.828   7.261  0.2003  0.1734 -0.0198
  543MOL0     H71643   4.279  11.758   7.355 -0.5489  1.8331 -0.7673
  543MOL0     H71644   4.100  11.587   7.304  1.2051 -0.2678  1.3103
  543MOL0     H71645   4.262  11.542   7.237  1.0124 -0.0496 -1.8820
  543MOL0     H71646   4.111  11.478   7.072  2.2137 -0.4726 -0.5544
  543MOL0     H71647   4.174  11.630   7.012  1.9642 -0.0612  2.9273
  543MOL0     H71648   3.904  11.612   7.170  2.1791  0.7426  1.8304
  543MOL0     H71649   3.982  11.752   7.098  2.6557 -0.3487  0.7665
  543MOL0     H71650   3.876  11.502   6.940  0.3817 -0.6834  0.0759
  543MOL0     H71651   3.962  11.637   6.864  0.5985 -2.1076 -0.3991
  543MOL0     H71652   3.787  11.792   6.961 -1.3019  0.7013 -1.6280
  543MOL0     H71653   3.713  11.666   7.044 -0.9797 -0.7645 -1.3577
  543MOL0     H71654   3.766  11.702   6.742 -0.4265 -3.0107 -2.9889
  543MOL0     H71655   3.689  11.557   6.809  2.7461  0.1100  2.3810
  543MOL0     H71656   3.532  11.733   6.702  0.4144  2.1975 -0.6470
  543MOL0     H71657   3.586  11.835   6.829  1.5283  0.1079 -0.9447
  543MOL0     H71658   4.468  11.575   7.054  0.2916  0.6235 -1.0219
  543MOL0     H71659   4.699  11.577   7.038 -0.9296 -0.9017  0.8473
  543MOL0     H71660   5.060  11.908   7.218  0.4124  1.0079 -0.1982
  543MOL0     H71661   5.283  11.906   7.303  3.2153  1.6172 -1.7839
  543MOL0     H71662   6.546  11.149   5.986  0.2816 -0.8810 -0.3498
  543MOL0     H71663   6.758  11.050   5.920 -0.1858  0.2184  0.0393
  543MOL0     H71664   7.342  11.029   6.195  2.6408 -2.5934  0.5738
  543MOL0     H71665   7.506  10.876   6.132 -0.9067  2.8589  0.3631
  543MOL0     H71666   7.370  10.558   6.054  2.0887  1.6880  3.8707
  543MOL0     H71667   7.540  10.528   6.056  0.1591  2.1861  1.3108
  543MOL0     H71668   7.423  10.350   5.926  2.4107 -1.9948 -2.5828
  543MOL0     H71669   7.338  10.481   5.836  0.5597  1.5287  0.1241
  543MOL0     H71670   7.504  10.512   5.687 -0.0873 -1.0000 -2.0271
  543MOL0     H71671   7.515  10.347   5.709  1.6882 -1.9792  2.3016
  543MOL0     H71672   7.731  10.454   5.700  0.2654 -0.0561 -0.4192
  543MOL0     H71673   7.697  10.558   5.837  0.4564 -0.2561  2.6740
  543MOL0     H71674   7.829  10.201   6.006 -0.7853 -0.3641  0.2700
  543MOL0     H71675   7.260  10.710   5.825  1.0573 -0.5605  0.8200
  543MOL0     H71676   7.070  10.867   5.885  0.3513  1.4074  0.7752
  544MOL0     O71677   1.431   2.136   7.485  0.1066 -0.7209  0.9882
  544MOL0     C71678   1.512   2.160   7.390  0.1535 -0.1961  0.4767
  544MOL0     O71679   1.483   2.172   7.253  0.0796  0.3598 -0.1393
  544MOL0     C71680   1.360   2.149   7.193 -0.2421  0.4032 -0.1636
  544MOL0     C71681   1.234   2.149   7.255 -0.7370 -0.6123 -0.2583
  544MOL0     C71682   1.112   2.127   7.186  0.4851 -0.1621 -0.4838
  544MOL0     C71683   1.121   2.114   7.052 -0.2698 -0.3835  0.4371
  544MOL0     O71684   0.999   2.111   6.989 -0.2445 -0.0015  0.2720
  544MOL0     C71685   0.989   2.151   6.851 -1.0969  0.0735  0.2379
  544MOL0     C71686   0.843   2.167   6.808  0.7480 -1.1956  0.1707
  544MOL0     C71687   0.779   2.026   6.802 -0.3870 -0.5233 -0.1725
  544MOL0     C71688   0.637   2.037   6.757 -0.2807 -0.7052  0.0690
  544MOL0     C71689   0.563   1.906   6.755 -0.2641 -0.2513 -0.2566
  544MOL0     C71690   0.440   1.915   6.667 -0.2626 -0.2807 -0.0868
  544MOL0     C71691   0.351   1.791   6.666  0.1536  0.6279  0.2271
  544MOL0     C71692   0.286   1.751   6.793  0.3182 -0.6947 -0.4442
  544MOL0     N71693   0.191   1.641   6.749 -0.4191 -0.7561  0.8284
  544MOL0     C71694   0.068   1.661   6.687  0.6397 -0.2261 -0.0483
  544MOL0     C71695   0.032   1.535   6.654 -0.5778 -0.4632  0.2071
  544MOL0     C71696  -0.083   1.494   6.567 -0.3618 -0.0103  0.2817
  544MOL0     C71697  -0.196   1.469   6.658 -0.4356 -0.2732  0.9080
  544MOL0     C71698  -0.311   1.439   6.565 -0.0309 -0.8835  0.3872
  544MOL0     C71699  -0.426   1.368   6.639 -0.0584 -0.1499 -0.1746
  544MOL0     O71700  -0.505   1.294   6.544 -0.1341 -0.1337  0.1001
  544MOL0     C71701  -0.621   1.342   6.491  0.2576 -0.6041  0.3330
  544MOL0     C71702  -0.706   1.249   6.419  0.2372  0.1742 -0.0028
  544MOL0     C71703  -0.832   1.288   6.368  0.3579  0.2166  0.3472
  544MOL0     C71704  -0.881   1.418   6.384 -0.5612 -0.6976 -0.4561
  544MOL0     C71705  -1.007   1.466   6.336 -0.4540  0.2673  0.1291
  544MOL0     O71706  -1.053   1.588   6.377 -0.2102 -0.8977  0.9262
  544MOL0     C71707  -1.178   1.638   6.345 -0.7346  0.0627  0.0090
  544MOL0     C71708  -1.287   1.552   6.359 -0.2401 -0.2316  0.2326
  544MOL0     C71709  -1.420   1.599   6.334  0.2146  0.0834 -0.1333
  544MOL0     C71710  -1.441   1.730   6.289  0.6348  0.5675  0.1884
  544MOL0     O71711  -1.571   1.771   6.256 -0.4409  0.2965 -0.1700
  544MOL0     C71712  -1.592   1.884   6.171 -0.6242 -0.1140 -0.3730
  544MOL0     C71713  -1.722   1.891   6.103 -0.6284 -0.0960  0.5918
  544MOL0     C71714  -1.842   1.886   6.201  0.1350  0.1868  0.0332
  544MOL0     C71715  -1.855   2.011   6.297 -0.2802 -0.4621  0.6480
  544MOL0     C71716  -1.995   2.000   6.374 -0.2733  0.3316 -0.4453
  544MOL0     C71717  -2.050   2.135   6.408  0.2493 -1.4634 -0.2401
  544MOL0     C71718  -2.189   2.127   6.473 -0.2036  0.0836 -0.2394
  544MOL0     C71719  -2.307   2.146   6.379 -0.2510  0.6233 -0.0222
  544MOL0    Cl71720  -2.319   2.321   6.333  0.0230  0.1350  0.1059
  544MOL0     C71721  -1.325   1.810   6.270  0.5209  0.3018 -0.7792
  544MOL0     C71722  -1.200   1.772   6.319 -0.2945 -0.2076 -0.9545
  544MOL0     O71723  -1.058   1.400   6.247  0.1412 -0.8152  0.2106
  544MOL0     C71724  -0.791   1.509   6.459 -0.0084 -0.3455  0.2051
  544MOL0     C71725  -0.669   1.467   6.509 -0.7387  0.0505  0.0866
  544MOL0     N71726   0.121   1.445   6.716 -0.5173 -0.1801 -0.5613
  544MOL0     N71727   0.225   1.508   6.761 -0.1304 -1.1426 -0.6369
  544MOL0     C71728   1.243   2.117   6.983  1.1148  0.0027 -0.0502
  544MOL0     C71729   1.355   2.121   7.059 -0.2674 -0.3629 -0.4107
  544MOL0     C71730   1.650   2.185   7.438 -0.2177  0.0008  0.5600
  544MOL0     C71731   1.736   2.212   7.334  0.2578  0.4245  0.4256
  544MOL0     C71732   1.872   2.244   7.370  0.4618 -0.0548  0.2421
  544MOL0     C71733   1.912   2.251   7.501 -0.5497  0.4217  0.0108
  544MOL0     O71734   2.044   2.280   7.521  0.3067 -0.5951 -0.4636
  544MOL0     C71735   2.096   2.359   7.628  0.1309 -0.4447 -1.0014
  544MOL0     C71736   2.245   2.339   7.640  0.3106 -0.7946  0.0683
  544MOL0     C71737   2.309   2.421   7.529  0.4624 -0.7500 -0.2724
  544MOL0     C71738   2.466   2.416   7.512  0.3753 -0.2815  0.2148
  544MOL0     C71739   2.543   2.472   7.621  0.1522  1.7258  0.0735
  544MOL0     C71740   2.622   2.514   7.709 -0.7948 -0.8186 -0.6261
  544MOL0     C71741   1.819   2.235   7.600  0.0074 -0.3140 -0.8971
  544MOL0     C71742   1.685   2.204   7.573  0.8376  0.6913 -0.0425
  544MOL0     H71743   1.235   2.171   7.361  2.8013 -2.1052  0.1831
  544MOL0     H71744   1.015   2.132   7.235  1.0173  2.5857  0.4378
  544MOL0     H71745   1.039   2.076   6.789  0.1581 -0.5124  1.8822
  544MOL0     H71746   1.046   2.243   6.837  0.9787 -0.6156  3.0753
  544MOL0     H71747   0.843   2.222   6.713 -2.3558 -0.9870  0.2134
  544MOL0     H71748   0.792   2.226   6.884 -0.9148 -2.7112  0.2967
  544MOL0     H71749   0.776   1.984   6.903 -0.6918  1.7208  0.8379
  544MOL0     H71750   0.841   1.959   6.742 -1.5928 -1.5641 -0.2976
  544MOL0     H71751   0.583   2.115   6.812 -0.5050 -1.1570  0.4941
  544MOL0     H71752   0.635   2.085   6.659 -3.2817 -0.4792  0.1636
  544MOL0     H71753   0.535   1.882   6.858 -3.8083  1.3048 -0.6954
  544MOL0     H71754   0.618   1.822   6.711 -1.4456  0.4338 -3.3660
  544MOL0     H71755   0.485   1.921   6.567  0.2224  0.4370  0.1685
  544MOL0     H71756   0.374   1.997   6.694 -0.5401 -0.1106 -1.2082
  544MOL0     H71757   0.265   1.812   6.602 -2.1252 -4.2688  1.2427
  544MOL0     H71758   0.406   1.705   6.627  3.0540  1.4860  2.1278
  544MOL0     H71759   0.234   1.841   6.827  2.1459  0.4934 -0.7014
  544MOL0     H71760   0.349   1.725   6.878 -0.9431 -0.7194  0.5209
  544MOL0     H71761   0.025   1.759   6.668  3.1995  1.5003  2.3144
  544MOL0     H71762  -0.055   1.409   6.504 -2.0309 -0.7450  0.4897
  544MOL0     H71763  -0.106   1.579   6.502 -4.0041 -1.3827 -0.4443
  544MOL0     H71764  -0.211   1.561   6.713  0.0856  0.6406 -0.4203
  544MOL0     H71765  -0.159   1.383   6.715  2.7540 -1.3369 -2.3500
  544MOL0     H71766  -0.332   1.534   6.517  0.3835 -0.0788  1.7400
  544MOL0     H71767  -0.282   1.373   6.482 -1.0474 -0.5853 -0.2186
  544MOL0     H71768  -0.479   1.433   6.708  1.5893 -0.1672  1.1934
  544MOL0     H71769  -0.385   1.292   6.706 -4.0087 -2.0514  0.3197
  544MOL0     H71770  -0.666   1.150   6.402 -1.2755 -0.3121 -0.9140
  544MOL0     H71771  -0.881   1.203   6.323 -0.9188  1.0620  0.0989
  544MOL0     H71772  -1.269   1.453   6.400  0.8462  1.4376  4.2883
  544MOL0     H71773  -1.494   1.523   6.357 -1.4259  1.3248 -1.0683
  544MOL0     H71774  -1.508   1.893   6.102  0.5424  1.4244  1.1393
  544MOL0     H71775  -1.590   1.973   6.235  1.3210  0.4335 -1.1459
  544MOL0     H71776  -1.725   1.808   6.032  2.5839  0.2403 -0.0793
  544MOL0     H71777  -1.732   1.984   6.047  1.3334  1.1036  2.0996
  544MOL0     H71778  -1.842   1.794   6.261  3.4889 -0.8946 -1.3806
  544MOL0     H71779  -1.934   1.879   6.142 -0.2205 -2.2683  0.7526
  544MOL0     H71780  -1.770   2.016   6.365 -0.5979 -0.2433  1.0274
  544MOL0     H71781  -1.856   2.110   6.251  2.2178  0.2835  2.0405
  544MOL0     H71782  -1.998   1.942   6.466 -2.6880  0.7659 -0.1838
  544MOL0     H71783  -2.067   1.951   6.308 -1.8900 -0.4991  1.8023
  544MOL0     H71784  -2.064   2.188   6.314  2.2501  1.5398  1.0080
  544MOL0     H71785  -1.980   2.189   6.472  0.6503 -0.3898 -1.5389
  544MOL0     H71786  -2.196   2.029   6.523 -0.9466  0.0910 -0.3140
  544MOL0     H71787  -2.186   2.199   6.555  0.8542 -2.0939  1.7701
  544MOL0     H71788  -2.395   2.112   6.434  0.7089 -2.0485 -0.0079
  544MOL0     H71789  -2.299   2.081   6.292  1.4618  2.8293 -1.6381
  544MOL0     H71790  -1.340   1.912   6.236  0.4811 -0.0873 -1.9767
  544MOL0     H71791  -1.107   1.828   6.322  0.0997 -0.8358 -1.1524
  544MOL0     H71792  -0.822   1.609   6.489  1.2874 -0.2986  1.5301
  544MOL0     H71793  -0.610   1.540   6.564 -1.4604  0.5052  0.2658
  544MOL0     H71794   1.256   2.121   6.876 -2.6610 -1.0680 -0.7114
  544MOL0     H71795   1.458   2.131   7.025  0.2259 -0.4155  0.9800
  544MOL0     H71796   1.715   2.217   7.228 -0.9456  0.6148  0.6541
  544MOL0     H71797   1.943   2.250   7.289 -0.6177  0.7152 -0.6721
  544MOL0     H71798   2.055   2.328   7.725  0.9663 -0.5738 -0.6807
  544MOL0     H71799   2.077   2.465   7.607  1.1446 -0.3434 -1.4621
  544MOL0     H71800   2.273   2.371   7.741  1.8269 -0.1709 -0.5355
  544MOL0     H71801   2.268   2.233   7.629  2.6918 -0.2341 -0.8541
  544MOL0     H71802   2.290   2.528   7.533  0.1558 -0.8407  2.2113
  544MOL0     H71803   2.275   2.371   7.437 -0.5138 -1.2946  0.3719
  544MOL0     H71804   2.488   2.311   7.492 -0.9663 -0.4949 -0.2337
  544MOL0     H71805   2.494   2.469   7.420  0.5813  2.1965  1.6278
  544MOL0     H71806   2.684   2.562   7.782 -2.0500  2.9060 -1.7756
  544MOL0     H71807   1.851   2.237   7.703  1.3422 -1.4451 -1.2562
  544MOL0     H71808   1.607   2.189   7.647  1.2104 -0.6620  0.0995
  545MOL0     O71809   7.351  10.725   4.050 -0.6998 -0.6592 -0.5493
  545MOL0     C71810   7.383  10.612   4.061 -0.1297 -0.6452 -0.4620
  545MOL0     O71811   7.303  10.501   4.031  0.1120 -0.5810  0.0715
  545MOL0     C71812   7.170  10.523   4.021  0.5742 -0.7175 -0.4696
  545MOL0     C71813   7.096  10.580   4.120  0.3134 -0.0745  1.2408
  545MOL0     C71814   6.965  10.602   4.094  0.6563  1.1547 -0.4764
  545MOL0     C71815   6.897  10.554   3.975  0.0688 -0.8752 -0.3039
  545MOL0     O71816   6.762  10.564   3.948  0.0973 -0.3869 -0.0063
  545MOL0     C71817   6.674  10.633   4.038  0.0001 -0.6809  0.1709
  545MOL0     C71818   6.536  10.647   3.980 -0.8063  0.4672 -0.3816
  545MOL0     C71819   6.535  10.744   3.867 -0.4693 -0.1252 -0.0257
  545MOL0     C71820   6.397  10.741   3.794 -0.0815 -0.3930  0.1620
  545MOL0     C71821   6.413  10.766   3.639 -0.8687  1.0377  0.2872
  545MOL0     C71822   6.285  10.773   3.561  0.5036  0.1251 -0.6185
  545MOL0     C71823   6.225  10.916   3.545 -0.3517 -0.2537  0.0236
  545MOL0     C71824   6.320  11.001   3.456  0.2814 -0.2828  0.1790
  545MOL0     N71825   6.249  11.105   3.382  0.1239  0.2464  0.6591
  545MOL0     C71826   6.181  11.091   3.265  1.0450 -0.8156  0.0580
  545MOL0     C71827   6.113  11.215   3.257 -0.4742  0.3564 -1.3441
  545MOL0     C71828   6.000  11.252   3.164 -0.0294 -0.4013  0.6191
  545MOL0     C71829   5.897  11.357   3.221  0.1624 -0.4016 -0.7316
  545MOL0     C71830   5.787  11.404   3.128 -0.1341  0.8928 -0.2255
  545MOL0     C71831   5.673  11.477   3.196  0.0888  0.3741 -0.4726
  545MOL0     O71832   5.599  11.368   3.248 -0.2073 -0.5655 -0.2326
  545MOL0     C71833   5.517  11.393   3.360 -0.3394  0.2535  0.1712
  545MOL0     C71834   5.477  11.283   3.441 -0.5597 -0.8388 -0.3624
  545MOL0     C71835   5.398  11.312   3.559 -1.3653  1.1680 -0.5165
  545MOL0     C71836   5.343  11.442   3.587  0.1967  0.0281  0.5798
  545MOL0     C71837   5.242  11.468   3.702  0.0223  0.0092  0.3259
  545MOL0     O71838   5.199  11.602   3.719  0.0317  0.8820 -0.0064
  545MOL0     C71839   5.107  11.641   3.806  0.5698 -0.5988 -0.3552
  545MOL0     C71840   5.004  11.574   3.865 -0.4565 -0.2151 -1.5722
  545MOL0     C71841   4.915  11.636   3.954  0.1634 -0.0407  0.8325
  545MOL0     C71842   4.937  11.771   3.986  0.6431 -0.4789 -0.2734
  545MOL0     O71843   4.860  11.846   4.070 -0.0404  0.6889  0.5889
  545MOL0     C71844   4.764  11.793   4.159  0.1243 -0.4978 -0.2669
  545MOL0     C71845   4.645  11.896   4.170  0.1292  0.1253  0.2366
  545MOL0     C71846   4.526  11.846   4.241 -0.2581  0.2104  0.4682
  545MOL0     C71847   4.411  11.954   4.235  0.0369 -0.1060  0.7648
  545MOL0     C71848   4.292  11.910   4.308  0.1051  0.1273 -1.1781
  545MOL0     C71849   4.210  12.033   4.341  0.5352 -0.0564  0.8947
  545MOL0     C71850   4.072  11.987   4.385  0.0688  0.5401  0.4709
  545MOL0     C71851   3.983  12.103   4.432  0.4398 -0.0372 -0.1704
  545MOL0    Cl71852   3.836  12.030   4.524 -0.2010  0.1266 -0.6160
  545MOL0     C71853   5.051  11.834   3.947 -0.1554 -0.5613  0.4323
  545MOL0     C71854   5.129  11.769   3.851 -0.4086  0.0739 -0.0141
  545MOL0     O71855   5.204  11.370   3.773 -0.3136 -0.2283  0.9077
  545MOL0     C71856   5.386  11.548   3.504  0.0125  0.7695  0.1346
  545MOL0     C71857   5.474  11.522   3.397 -0.1424 -1.1007 -0.3103
  545MOL0     N71858   6.157  11.297   3.364  0.4536  0.1149  0.3724
  545MOL0     N71859   6.239  11.229   3.431 -1.0219 -0.0152 -0.0525
  545MOL0     C71860   6.978  10.499   3.877 -0.1339 -0.4428 -0.0209
  545MOL0     C71861   7.112  10.483   3.904  0.2243 -0.0110 -0.0586
  545MOL0     C71862   7.522  10.578   4.087 -0.7749  0.6396 -0.7786
  545MOL0     C71863   7.568  10.451   4.136  0.7976  0.8085 -0.4635
  545MOL0     C71864   7.703  10.422   4.157 -0.1649  0.4603 -0.9179
  545MOL0     C71865   7.803  10.522   4.143  0.2321  1.0093 -0.0327
  545MOL0     O71866   7.934  10.507   4.185  0.7643  0.3854 -0.3455
  545MOL0     C71867   7.982  10.380   4.226 -0.4536 -0.2757 -0.4127
  545MOL0     C71868   8.135  10.379   4.238 -0.4126 -0.1239 -0.0955
  545MOL0     C71869   8.181  10.226   4.248  0.1544  0.0274  0.1205
  545MOL0     C71870   8.330  10.217   4.286 -0.0807  0.3478  0.4168
  545MOL0     C71871   8.350  10.277   4.422 -0.9103  0.2208  0.1911
  545MOL0     C71872   8.383  10.319   4.532  0.4337  0.4735 -0.6956
  545MOL0     C71873   7.754  10.649   4.101 -0.1185  0.0151  0.4238
  545MOL0     C71874   7.622  10.680   4.076 -0.7631  0.2506  0.6185
  545MOL0     H71875   7.136  10.603   4.218 -0.3633 -0.4535  1.6167
  545MOL0     H71876   6.916  10.654   4.176  0.8395 -1.0812  1.1310
  545MOL0     H71877   6.712  10.735   4.049  1.2732 -0.8770 -1.9472
  545MOL0     H71878   6.677  10.592   4.140  5.2818 -1.4694 -0.0178
  545MOL0     H71879   6.474  10.683   4.062 -0.1397 -1.6902  1.1616
  545MOL0     H71880   6.501  10.548   3.947  0.4588 -0.1414  0.0245
  545MOL0     H71881   6.599  10.693   3.795 -0.1857  0.8655 -0.4961
  545MOL0     H71882   6.572  10.844   3.890  1.1008 -0.7815  0.4319
  545MOL0     H71883   6.356  10.640   3.794 -0.6965 -0.1861 -1.5944
  545MOL0     H71884   6.331  10.812   3.843  0.8883  0.6514  0.0104
  545MOL0     H71885   6.459  10.673   3.603 -1.3517  1.1649 -0.7014
  545MOL0     H71886   6.482  10.846   3.614  1.5082 -0.2661  2.2110
  545MOL0     H71887   6.216  10.707   3.614  0.2719  1.0535  0.2830
  545MOL0     H71888   6.289  10.735   3.459 -3.6003 -0.7788 -0.6380
  545MOL0     H71889   6.137  10.903   3.482  0.1128 -1.3359 -0.4208
  545MOL0     H71890   6.203  10.957   3.644 -3.6806 -3.1059  0.6293
  545MOL0     H71891   6.374  10.937   3.386  2.5862 -1.0819  2.4940
  545MOL0     H71892   6.396  11.050   3.518  0.2255  2.5378 -1.7684
  545MOL0     H71893   6.167  11.002   3.204 -0.9749 -0.4641 -0.0584
  545MOL0     H71894   5.950  11.158   3.140 -0.5585  0.0633 -0.1407
  545MOL0     H71895   6.040  11.295   3.071 -0.8607 -0.2421  0.3268
  545MOL0     H71896   5.949  11.435   3.278 -2.1709  0.6203  0.1202
  545MOL0     H71897   5.841  11.311   3.303 -0.6778  1.9561  0.0830
  545MOL0     H71898   5.825  11.483   3.063 -2.4212  0.2820 -2.4669
  545MOL0     H71899   5.740  11.325   3.068  1.8747 -1.3044  0.8836
  545MOL0     H71900   5.622  11.542   3.124  0.9217  2.6425  0.8854
  545MOL0     H71901   5.717  11.532   3.279  1.4810 -0.1626 -0.8405
  545MOL0     H71902   5.505  11.183   3.409  0.0868 -1.0287  0.7509
  545MOL0     H71903   5.378  11.239   3.637 -0.9718  0.5159 -1.0179
  545MOL0     H71904   5.004  11.468   3.843 -0.9615 -1.1059  2.0560
  545MOL0     H71905   4.834  11.574   3.992 -0.0123  0.4916  1.3327
  545MOL0     H71906   4.814  11.772   4.253 -0.0705  0.8563  0.1615
  545MOL0     H71907   4.715  11.700   4.128 -0.0062 -0.3786 -0.4211
  545MOL0     H71908   4.619  11.909   4.065  0.2612 -3.7689 -0.4216
  545MOL0     H71909   4.678  11.988   4.219 -1.0558  0.6316  0.1173
  545MOL0     H71910   4.544  11.818   4.345  2.1898  0.2737  0.1265
  545MOL0     H71911   4.487  11.753   4.199 -0.2010  0.3281  0.1505
  545MOL0     H71912   4.455  12.046   4.276  0.2548  0.0706  0.1398
  545MOL0     H71913   4.384  11.981   4.133  1.1528  2.7912  1.1096
  545MOL0     H71914   4.333  11.869   4.401  5.1748 -2.7961 -4.2125
  545MOL0     H71915   4.231  11.846   4.244 -3.1051  0.2923  1.4365
  545MOL0     H71916   4.214  12.100   4.254 -0.0036 -1.3091 -0.1360
  545MOL0     H71917   4.262  12.089   4.419  0.1438  1.6569 -0.0175
  545MOL0     H71918   4.027  11.940   4.298 -0.9671 -0.5927  1.5750
  545MOL0     H71919   4.087  11.913   4.465  0.6120  1.8424  1.6273
  545MOL0     H71920   3.960  12.158   4.341  1.0918 -1.1453 -1.0237
  545MOL0     H71921   4.044  12.172   4.493 -0.0170 -0.2112  0.4970
  545MOL0     H71922   5.091  11.925   3.991  0.3653 -0.8438  0.5594
  545MOL0     H71923   5.210  11.830   3.810 -1.3395  1.7758  0.5742
  545MOL0     H71924   5.346  11.649   3.517  1.4411  1.4321 -0.4390
  545MOL0     H71925   5.516  11.606   3.344 -0.6049 -0.5445  0.1952
  545MOL0     H71926   6.943  10.466   3.779  1.0917 -0.9320 -0.3045
  545MOL0     H71927   7.172  10.423   3.838  1.2752  0.8044  0.1264
  545MOL0     H71928   7.492  10.375   4.142 -0.6081  2.0150 -1.8619
  545MOL0     H71929   7.726  10.322   4.193  0.4654  0.5735 -1.0001
  545MOL0     H71930   7.949  10.305   4.153 -2.1126 -0.7454  0.7459
  545MOL0     H71931   7.936  10.358   4.323 -0.8576  0.6743 -0.3768
  545MOL0     H71932   8.185  10.424   4.152 -1.3496  0.2133 -0.4765
  545MOL0     H71933   8.166  10.437   4.325 -1.2122 -0.1426  0.2112
  545MOL0     H71934   8.158  10.176   4.154 -0.7867  0.8467 -0.1014
  545MOL0     H71935   8.117  10.183   4.325 -2.0396 -1.6172 -2.4626
  545MOL0     H71936   8.360  10.112   4.301 -0.0405  0.3037  0.0455
  545MOL0     H71937   8.394  10.262   4.210  2.1295 -3.0656  0.0336
  545MOL0     H71938   8.403  10.346   4.633 -2.0374  1.9973 -0.5462
  545MOL0     H71939   7.815  10.739   4.102  2.4527 -1.6170  1.3399
  545MOL0     H71940   7.594  10.777   4.038 -0.5832 -0.6513 -1.9840
  546MOL0     O71941  10.503   7.284   0.137 -0.0956 -0.0269  0.6766
  546MOL0     C71942  10.520   7.360   0.233  0.8434 -0.4698  0.4510
  546MOL0     O71943  10.423   7.394   0.323  0.4679 -0.0623 -0.7595
  546MOL0     C71944  10.296   7.345   0.299 -1.2017  0.3409  0.0441
  546MOL0     C71945  10.186   7.416   0.259  0.0234 -0.1504  0.2587
  546MOL0     C71946  10.060   7.361   0.247 -1.0514 -0.8279 -0.2054
  546MOL0     C71947  10.041   7.226   0.268  0.1373 -0.0187  0.3490
  546MOL0     O71948   9.909   7.173   0.250  0.2234  0.2342  1.0038
  546MOL0     C71949   9.894   7.042   0.193 -0.5950 -0.2641 -0.9474
  546MOL0     C71950   9.743   7.033   0.171 -0.0663  0.3751  0.1666
  546MOL0     C71951   9.682   7.019   0.314  0.5017  0.9016 -0.2153
  546MOL0     C71952   9.532   7.011   0.324 -0.2260 -0.5603  0.3455
  546MOL0     C71953   9.473   6.963   0.449 -0.5487 -0.4109 -0.1869
  546MOL0     C71954   9.321   6.968   0.435  0.8404  0.2960 -0.2215
  546MOL0     C71955   9.259   6.951   0.575  0.5334  0.3994  0.4263
  546MOL0     C71956   9.257   7.074   0.656  0.2690 -0.3142  0.2943
  546MOL0     N71957   9.248   7.048   0.803  0.4632  0.4334  0.5084
  546MOL0     C71958   9.134   6.991   0.860 -0.1114 -0.0506 -0.3946
  546MOL0     C71959   9.172   6.975   0.991  0.0969  0.1638  0.7144
  546MOL0     C71960   9.079   6.902   1.088 -0.7296 -0.2088 -0.3185
  546MOL0     C71961   8.974   6.994   1.133  0.9309 -0.7104 -0.1414
  546MOL0     C71962   8.890   6.922   1.238  0.5637  0.2822 -0.0539
  546MOL0     C71963   8.757   6.984   1.268  0.2611  0.1700  0.2060
  546MOL0     O71964   8.676   6.997   1.151  0.5791  0.3257  0.1051
  546MOL0     C71965   8.542   7.025   1.155  0.5042  0.6699  0.6069
  546MOL0     C71966   8.464   7.061   1.040 -0.2695 -0.2462 -0.4111
  546MOL0     C71967   8.331   7.101   1.044 -0.0357  0.3299 -0.5217
  546MOL0     C71968   8.268   7.116   1.169 -0.1926  0.6768  1.1437
  546MOL0     C71969   8.134   7.175   1.161  0.7920  0.5097 -0.8663
  546MOL0     O71970   8.087   7.239   1.057 -0.0277  0.0610  0.0335
  546MOL0     C71971   7.953   7.279   1.045 -0.8113 -0.3810 -0.3215
  546MOL0     C71972   7.873   7.333   1.151  0.5687  0.0235 -0.4709
  546MOL0     C71973   7.741   7.377   1.124 -0.5686 -0.0187 -0.4613
  546MOL0     C71974   7.694   7.389   0.993 -0.5095  0.2171 -0.0828
  546MOL0     O71975   7.570   7.435   0.961 -0.5466 -0.1706  1.0455
  546MOL0     C71976   7.561   7.559   0.881  1.7250 -0.0986  0.4823
  546MOL0     C71977   7.412   7.606   0.872 -0.2462 -0.2807  0.7170
  546MOL0     C71978   7.388   7.743   0.808 -0.6145 -0.2296  0.4693
  546MOL0     C71979   7.247   7.794   0.759  0.5365  0.1891 -0.2504
  546MOL0     C71980   7.161   7.846   0.879  0.3175 -1.1229  0.3908
  546MOL0     C71981   7.034   7.922   0.836  0.4845  1.2634  1.3140
  546MOL0     C71982   6.970   7.957   0.971  0.3111  0.5711  0.2611
  546MOL0     C71983   6.849   8.033   0.934  0.9065  0.6911  0.0883
  546MOL0    Cl71984   6.721   8.029   1.066  0.2151 -0.5688  0.1898
  546MOL0     C71985   7.782   7.348   0.892  0.7455  0.5446  1.1196
  546MOL0     C71986   7.913   7.297   0.920  0.7876 -0.6076 -0.3077
  546MOL0     O71987   8.071   7.146   1.262  0.1445  1.1744  0.0737
  546MOL0     C71988   8.335   7.074   1.284 -0.4980 -0.4602  1.0435
  546MOL0     C71989   8.466   7.027   1.276 -0.6858 -0.4142 -0.5101
  546MOL0     N71990   9.301   7.012   1.004 -0.4435  0.1795  0.3152
  546MOL0     N71991   9.347   7.063   0.894  0.4574 -0.2178 -0.0084
  546MOL0     C71992  10.159   7.152   0.279 -0.3903  0.0629 -0.4452
  546MOL0     C71993  10.281   7.205   0.303  0.0491  0.1682 -0.6346
  546MOL0     C71994  10.646   7.430   0.252 -0.1038 -0.0879 -0.6486
  546MOL0     C71995  10.670   7.506   0.370 -0.1284 -0.3291  0.6098
  546MOL0     C71996  10.793   7.570   0.397  1.0217  0.5872  0.4691
  546MOL0     C71997  10.893   7.557   0.296  0.5374  0.0893  0.8086
  546MOL0     O71998  11.022   7.616   0.293  0.7683 -0.4187  0.2857
  546MOL0     C71999  11.055   7.687   0.417  0.2063 -0.0560  0.0983
  546MOL0     C72000  11.194   7.759   0.395 -0.1221 -0.0188  0.7668
  546MOL0     C72001  11.182   7.885   0.296  1.1278 -0.6651 -0.7461
  546MOL0     C72002  11.089   7.990   0.354  0.6948 -0.1961  0.6189
  546MOL0     C72003  10.949   7.969   0.302  0.3161 -0.2296  0.7058
  546MOL0     C72004  10.849   7.962   0.242  0.0716 -0.5302  0.0588
  546MOL0     C72005  10.865   7.495   0.175 -0.1876  0.1914 -0.5866
  546MOL0     C72006  10.743   7.434   0.153 -0.0096  0.3154 -0.6303
  546MOL0     H72007  10.197   7.524   0.254 -0.8718  0.1852  3.3928
  546MOL0     H72008   9.978   7.431   0.233  1.1598  1.6900 -1.6381
  546MOL0     H72009   9.928   6.970   0.268  0.1418  3.9405  3.2126
  546MOL0     H72010   9.939   7.027   0.094 -0.4595 -0.5390 -0.8467
  546MOL0     H72011   9.713   6.952   0.104 -1.9896  1.9749 -1.0280
  546MOL0     H72012   9.710   7.131   0.135 -0.9547 -1.3407 -4.5030
  546MOL0     H72013   9.714   7.105   0.375 -0.9945  0.8552  0.6952
  546MOL0     H72014   9.721   6.923   0.348  0.4907  1.2961  0.9725
  546MOL0     H72015   9.500   7.113   0.298  0.3828 -0.7743 -1.3502
  546MOL0     H72016   9.485   6.951   0.245 -2.3851 -0.0336  1.1636
  546MOL0     H72017   9.522   7.020   0.529 -3.0800  0.5838  0.7525
  546MOL0     H72018   9.510   6.861   0.460  2.2466  0.5149 -0.2724
  546MOL0     H72019   9.282   6.892   0.368 -1.6679 -1.0251  2.5251
  546MOL0     H72020   9.281   7.060   0.391 -0.3898 -0.8240 -1.5148
  546MOL0     H72021   9.155   6.918   0.564  0.1791  1.5443  0.1703
  546MOL0     H72022   9.307   6.871   0.631 -0.8547  1.1818  2.9030
  546MOL0     H72023   9.170   7.131   0.622  0.6411  0.4091  0.5315
  546MOL0     H72024   9.350   7.130   0.641 -0.3564  0.8779  0.6872
  546MOL0     H72025   9.054   6.944   0.805  2.0005 -1.0463 -2.8582
  546MOL0     H72026   9.143   6.870   1.172 -0.6976  0.1749 -0.1902
  546MOL0     H72027   9.038   6.816   1.035  1.5990 -1.5658 -0.0651
  546MOL0     H72028   8.919   7.016   1.041 -0.6974  0.0725  0.9783
  546MOL0     H72029   9.025   7.082   1.173 -2.1341  2.3655 -2.3665
  546MOL0     H72030   8.891   6.818   1.203  0.6902  0.0042  0.7598
  546MOL0     H72031   8.937   6.914   1.336 -1.2841 -3.7346  0.7306
  546MOL0     H72032   8.775   7.088   1.298  0.1248  0.4641 -0.6866
  546MOL0     H72033   8.699   6.934   1.346 -1.7664  0.3317 -1.1162
  546MOL0     H72034   8.518   7.065   0.946 -1.5213 -4.3456 -1.5026
  546MOL0     H72035   8.282   7.132   0.952  2.2672  3.6150 -0.8214
  546MOL0     H72036   7.907   7.325   1.254 -0.1135 -1.4811 -0.3366
  546MOL0     H72037   7.677   7.405   1.207 -1.4443 -0.1659 -1.0766
  546MOL0     H72038   7.615   7.549   0.786  0.5034  1.1219 -0.3603
  546MOL0     H72039   7.618   7.635   0.936 -2.2815  2.8606  0.9393
  546MOL0     H72040   7.363   7.604   0.970 -0.2804  0.1401  0.7122
  546MOL0     H72041   7.362   7.537   0.803  0.2081 -0.2488  0.3505
  546MOL0     H72042   7.447   7.744   0.716  2.3258 -0.3937  2.2066
  546MOL0     H72043   7.423   7.818   0.879 -2.9595  0.8032  0.6268
  546MOL0     H72044   7.262   7.871   0.682 -3.2842 -1.2614 -2.7619
  546MOL0     H72045   7.201   7.713   0.701  1.6707  0.2461 -1.2746
  546MOL0     H72046   7.220   7.915   0.939 -0.0329  0.1615 -0.6990
  546MOL0     H72047   7.129   7.757   0.934  0.2654 -2.3225 -1.4502
  546MOL0     H72048   6.969   7.863   0.771  3.2567  1.0193 -1.4619
  546MOL0     H72049   7.065   8.005   0.773  0.9261  0.5852  0.6216
  546MOL0     H72050   6.944   7.858   1.011  2.8032 -1.2557 -2.2456
  546MOL0     H72051   7.038   8.020   1.028  0.4161 -1.7676  2.9723
  546MOL0     H72052   6.799   7.980   0.852  2.8027  0.6063 -1.0861
  546MOL0     H72053   6.868   8.138   0.911 -0.1773  1.3706  2.0874
  546MOL0     H72054   7.754   7.346   0.787  0.6906 -0.5366  1.1393
  546MOL0     H72055   7.983   7.275   0.840  0.2216 -4.6145  0.1378
  546MOL0     H72056   8.292   7.080   1.383  0.3597  0.8158  1.3709
  546MOL0     H72057   8.507   7.001   1.373  0.3876  0.6279 -0.6668
  546MOL0     H72058  10.154   7.044   0.284  1.1714 -0.1269 -2.1614
  546MOL0     H72059  10.365   7.138   0.315 -1.6442 -2.1422 -1.1473
  546MOL0     H72060  10.593   7.497   0.446 -1.5953 -1.2298 -0.9079
  546MOL0     H72061  10.797   7.629   0.488 -1.1541 -0.7391  1.4951
  546MOL0     H72062  11.065   7.612   0.496  5.0299 -0.8607 -0.9484
  546MOL0     H72063  10.976   7.758   0.445 -1.3245 -0.1852 -3.3914
  546MOL0     H72064  11.243   7.786   0.489 -2.1325  3.8546  0.9101
  546MOL0     H72065  11.261   7.694   0.338 -0.8374  1.8997 -2.5593
  546MOL0     H72066  11.143   7.845   0.202 -0.5649 -2.1422  0.5042
  546MOL0     H72067  11.278   7.934   0.277  0.7207 -0.3391 -2.0186
  546MOL0     H72068  11.095   7.993   0.464  1.6582 -0.8125  0.5939
  546MOL0     H72069  11.130   8.087   0.323  1.9458 -0.2718  1.9016
  546MOL0     H72070  10.761   7.939   0.186  2.9934 -2.0470 -4.4509
  546MOL0     H72071  10.940   7.498   0.096  1.0351  0.1364  0.5397
  546MOL0     H72072  10.728   7.379   0.061 -1.4407  2.0566 -1.5219
  547MOL0     O72073   0.357  10.219   9.632 -0.1657  0.3821 -0.5476
  547MOL0     C72074   0.453  10.295   9.631 -0.3855 -0.6042  0.1586
  547MOL0     O72075   0.532  10.314   9.516 -0.0284  0.4679 -0.1279
  547MOL0     C72076   0.499  10.237   9.412 -1.0938 -0.0673 -0.5432
  547MOL0     C72077   0.559  10.110   9.387  0.1862 -0.8942  0.6074
  547MOL0     C72078   0.523  10.034   9.272  0.1302  0.0045 -0.1300
  547MOL0     C72079   0.429  10.073   9.188  0.1542  1.1676 -0.0817
  547MOL0     O72080   0.396   9.979   9.096  0.0582  0.5079  0.2156
  547MOL0     C72081   0.273   9.920   9.122  0.6672  0.0310  0.0481
  547MOL0     C72082   0.280   9.765   9.104  0.8113  0.2994  0.8814
  547MOL0     C72083   0.148   9.709   9.137  0.7775  0.2428 -0.4728
  547MOL0     C72084   0.157   9.562   9.159 -0.4771 -0.0961  0.0829
  547MOL0     C72085   0.023   9.502   9.204  0.5417  0.1941  0.0682
  547MOL0     C72086  -0.093   9.533   9.101 -0.0464 -0.2360  0.6839
  547MOL0     C72087  -0.176   9.405   9.093 -0.2786 -0.2284  0.3727
  547MOL0     C72088  -0.314   9.444   9.049 -0.1710  0.3985  0.0526
  547MOL0     N72089  -0.391   9.517   9.148 -1.0221  0.0771  0.1883
  547MOL0     C72090  -0.426   9.475   9.273  0.3161 -0.0949  0.5735
  547MOL0     C72091  -0.497   9.590   9.315 -0.5187  0.3828 -1.0290
  547MOL0     C72092  -0.578   9.608   9.437 -0.0607  0.1280 -0.3485
  547MOL0     C72093  -0.735   9.624   9.397 -0.0815  0.8020  0.6200
  547MOL0     C72094  -0.800   9.490   9.353  0.4335  0.2480  0.3460
  547MOL0     C72095  -0.941   9.521   9.313  0.7022  1.3809  0.4073
  547MOL0     O72096  -1.017   9.554   9.433  0.2542 -0.1315  0.1925
  547MOL0     C72097  -1.152   9.563   9.425 -0.2770 -0.2904 -0.2144
  547MOL0     C72098  -1.226   9.543   9.309  0.5581  0.6032 -0.5945
  547MOL0     C72099  -1.364   9.557   9.313 -0.2222  0.9509 -0.6890
  547MOL0     C72100  -1.433   9.582   9.433 -0.8972 -1.0021 -1.2302
  547MOL0     C72101  -1.582   9.598   9.441  0.2326 -0.0505  0.1247
  547MOL0     O72102  -1.634   9.614   9.566 -0.8287 -0.6652  0.2705
  547MOL0     C72103  -1.771   9.635   9.586 -0.0549 -0.7384 -0.4933
  547MOL0     C72104  -1.846   9.523   9.634 -0.2780 -0.3723  0.8620
  547MOL0     C72105  -1.979   9.526   9.653 -0.3320 -0.1218  0.6470
  547MOL0     C72106  -2.050   9.640   9.621 -0.3436  0.0066 -0.4491
  547MOL0     O72107  -2.186   9.656   9.627 -0.0959  0.9490  0.0911
  547MOL0     C72108  -2.266   9.562   9.558  0.0743  0.0370 -0.3236
  547MOL0     C72109  -2.406   9.621   9.581 -0.1788 -0.3575  0.2446
  547MOL0     C72110  -2.471   9.617   9.718 -0.4274  0.1814 -0.1947
  547MOL0     C72111  -2.493   9.473   9.761 -0.0368  0.2077 -0.1486
  547MOL0     C72112  -2.562   9.473   9.898 -0.1576  0.6650  0.0521
  547MOL0     C72113  -2.700   9.529   9.904  0.6990  0.9509 -0.0915
  547MOL0     C72114  -2.798   9.428   9.846 -0.4104  0.0524 -1.0453
  547MOL0     C72115  -2.926   9.501   9.809  0.3889 -0.0292  0.0247
  547MOL0    Cl72116  -2.989   9.583   9.959 -0.0267  0.1827  0.0867
  547MOL0     C72117  -1.980   9.753   9.576  0.6799  0.0303  0.0916
  547MOL0     C72118  -1.841   9.751   9.552  0.0137  0.6987 -0.1463
  547MOL0     O72119  -1.651   9.591   9.335 -0.2461 -0.2258  0.5599
  547MOL0     C72120  -1.355   9.589   9.552  0.2571 -0.0727  0.7089
  547MOL0     C72121  -1.218   9.582   9.542  0.1547  0.0253  0.2068
  547MOL0     N72122  -0.488   9.688   9.222 -0.1326  0.7535 -0.3660
  547MOL0     N72123  -0.431   9.639   9.123 -0.3275  0.8840 -0.0990
  547MOL0     C72124   0.368  10.199   9.211  0.3818 -0.4641  0.0037
  547MOL0     C72125   0.413  10.287   9.313 -0.1452  0.3287  0.4232
  547MOL0     C72126   0.484  10.390   9.743 -0.0246  0.2179 -0.0649
  547MOL0     C72127   0.418  10.387   9.866 -0.3050  0.7020  0.1742
  547MOL0     C72128   0.457  10.474   9.974 -0.8260 -0.8741 -0.6238
  547MOL0     C72129   0.554  10.567   9.948  0.6037 -0.4842 -0.2144
  547MOL0     O72130   0.596  10.663  10.042 -0.3138  0.7165  0.0046
  547MOL0     C72131   0.535  10.664  10.168 -0.5354  0.0277 -0.0938
  547MOL0     C72132   0.595  10.773  10.261 -0.1431 -0.5370 -1.1583
  547MOL0     C72133   0.749  10.758  10.291 -0.0300  0.2782 -0.2200
  547MOL0     C72134   0.777  10.628  10.373  0.8476  0.3389  0.8023
  547MOL0     C72135   0.696  10.613  10.489 -0.4627  0.4025 -0.3462
  547MOL0     C72136   0.619  10.604  10.585  0.5852 -0.8210 -0.0720
  547MOL0     C72137   0.612  10.581   9.820  0.0816 -0.6011 -0.2564
  547MOL0     C72138   0.582  10.495   9.722  0.2676 -0.0637  0.2213
  547MOL0     H72139   0.634  10.082   9.461 -0.0840  0.5952  1.4995
  547MOL0     H72140   0.572   9.942   9.242 -2.0016 -1.0851 -0.4274
  547MOL0     H72141   0.205   9.965   9.049 -1.0221 -0.8855  0.9806
  547MOL0     H72142   0.245   9.947   9.224 -0.3731  1.1359 -0.5012
  547MOL0     H72143   0.347   9.718   9.176  1.9377  0.3269 -0.1097
  547MOL0     H72144   0.315   9.753   9.001  0.9377  2.4882  0.6091
  547MOL0     H72145   0.066   9.733   9.069 -2.5045 -1.7787  2.4647
  547MOL0     H72146   0.125   9.753   9.234  1.7737  0.2765 -0.2398
  547MOL0     H72147   0.186   9.509   9.067  2.2485  0.0368  0.7612
  547MOL0     H72148   0.234   9.550   9.236  0.3225 -0.3217 -0.7238
  547MOL0     H72149  -0.004   9.524   9.308 -3.0358 -0.0821 -0.6739
  547MOL0     H72150   0.046   9.396   9.219 -0.1365  0.3306  2.4871
  547MOL0     H72151  -0.056   9.558   9.001 -0.0565  0.3363  0.8221
  547MOL0     H72152  -0.151   9.618   9.139 -0.7759 -1.4884  2.5237
  547MOL0     H72153  -0.123   9.327   9.037  1.0468  1.1126 -0.3211
  547MOL0     H72154  -0.192   9.372   9.196 -3.5525  0.3679  0.1708
  547MOL0     H72155  -0.369   9.352   9.030 -2.6742  0.9485  3.5603
  547MOL0     H72156  -0.313   9.506   8.959 -0.5820  1.3468  0.6809
  547MOL0     H72157  -0.425   9.376   9.318 -1.6916 -0.2102  0.4821
  547MOL0     H72158  -0.538   9.693   9.494  0.1878 -1.6392  2.2517
  547MOL0     H72159  -0.553   9.523   9.501  3.0281  0.5506 -0.8136
  547MOL0     H72160  -0.745   9.702   9.321  1.2470  1.8097  1.4356
  547MOL0     H72161  -0.792   9.656   9.485 -1.0001 -0.6270  0.5943
  547MOL0     H72162  -0.745   9.450   9.268 -0.6174  0.2640 -0.3589
  547MOL0     H72163  -0.804   9.415   9.432 -3.4642 -0.4003 -0.2677
  547MOL0     H72164  -0.979   9.428   9.269  2.0080 -0.1467  2.3014
  547MOL0     H72165  -0.955   9.601   9.241 -0.0945  1.3535  0.5167
  547MOL0     H72166  -1.174   9.516   9.218  1.6091  2.7149 -0.6733
  547MOL0     H72167  -1.428   9.547   9.226 -1.2845 -0.1028  0.1705
  547MOL0     H72168  -1.805   9.424   9.654  1.9290  0.1443 -0.7442
  547MOL0     H72169  -2.046   9.446   9.683 -1.0567  0.4407  0.5591
  547MOL0     H72170  -2.256   9.459   9.592  5.0309 -0.7046 -3.1036
  547MOL0     H72171  -2.241   9.562   9.452  0.6522 -1.0094 -0.1970
  547MOL0     H72172  -2.474   9.584   9.504 -0.0746  0.9734 -0.5101
  547MOL0     H72173  -2.399   9.728   9.562  1.7048 -0.2537  1.2131
  547MOL0     H72174  -2.563   9.674   9.707 -1.9018 -1.8848  0.6218
  547MOL0     H72175  -2.400   9.655   9.792  0.4173 -0.4144 -0.6780
  547MOL0     H72176  -2.550   9.419   9.685 -2.7800  1.7736  0.6878
  547MOL0     H72177  -2.394   9.426   9.766  0.1950  0.8003  1.3561
  547MOL0     H72178  -2.500   9.516   9.977  3.4180 -0.9209 -1.7083
  547MOL0     H72179  -2.560   9.369   9.930 -0.4751 -0.0947 -2.2316
  547MOL0     H72180  -2.706   9.625   9.852 -0.2276  1.2220  0.5029
  547MOL0     H72181  -2.720   9.545  10.010 -3.6594 -0.9176 -0.4392
  547MOL0     H72182  -2.756   9.382   9.757  1.8099 -0.4577  0.1939
  547MOL0     H72183  -2.818   9.354   9.924  1.5677 -0.7981 -1.2774
  547MOL0     H72184  -3.002   9.434   9.767  0.2299 -0.5949  1.1719
  547MOL0     H72185  -2.911   9.584   9.740 -1.5302  0.7018  0.4342
  547MOL0     H72186  -2.032   9.840   9.538 -1.8508 -0.7510  1.5510
  547MOL0     H72187  -1.778   9.825   9.505  0.0188  1.3632  0.8849
  547MOL0     H72188  -1.393   9.605   9.652 -1.7657  1.4765 -0.2410
  547MOL0     H72189  -1.164   9.597   9.635 -2.2165 -0.3436  1.7281
  547MOL0     H72190   0.284  10.220   9.146 -0.4409 -0.9782  0.8751
  547MOL0     H72191   0.370  10.385   9.326 -0.8786 -0.2600  3.0145
  547MOL0     H72192   0.349  10.307   9.888  0.2978 -0.2426 -1.2191
  547MOL0     H72193   0.407  10.464  10.069  0.1097  0.3433  0.0205
  547MOL0     H72194   0.551  10.564  10.208  2.0209  0.3413 -0.1683
  547MOL0     H72195   0.427  10.679  10.168 -0.4646  0.7788 -1.9385
  547MOL0     H72196   0.574  10.876  10.228 -3.1753  0.0111  1.8901
  547MOL0     H72197   0.549  10.763  10.359  0.8399  0.6494 -0.5529
  547MOL0     H72198   0.794  10.838  10.350  1.8393 -1.3236  0.6609
  547MOL0     H72199   0.796  10.756  10.192 -0.4972  0.2506 -0.4460
  547MOL0     H72200   0.765  10.546  10.302  1.1535 -0.8834  2.1172
  547MOL0     H72201   0.882  10.626  10.403  1.5178 -2.1373 -1.3973
  547MOL0     H72202   0.568  10.607  10.679  1.1061 -3.4880  0.3821
  547MOL0     H72203   0.685  10.658   9.794 -0.7210 -0.0058 -0.7913
  547MOL0     H72204   0.636  10.506   9.629  0.4102 -2.2792 -0.0092
  548MOL0     O72205   3.081  10.536   0.948 -0.5585 -0.3219  0.4299
  548MOL0     C72206   3.113  10.478   0.845  0.1498 -0.3128 -0.2301
  548MOL0     O72207   3.031  10.396   0.782  0.3986  0.2433 -0.8284
  548MOL0     C72208   2.899  10.366   0.819  0.6534 -0.3463 -0.3464
  548MOL0     C72209   2.804  10.453   0.886 -0.7438  0.0733  0.1651
  548MOL0     C72210   2.678  10.398   0.921 -0.3332 -0.0293  0.0226
  548MOL0     C72211   2.632  10.270   0.876 -0.1641  0.6342 -0.6648
  548MOL0     O72212   2.508  10.217   0.907  0.8708 -0.2415  0.0755
  548MOL0     C72213   2.447  10.258   1.035 -0.1757 -0.3777 -0.1477
  548MOL0     C72214   2.316  10.186   1.056 -0.7449  0.2850  0.1530
  548MOL0     C72215   2.318  10.038   1.102  0.0728 -0.1834 -0.5539
  548MOL0     C72216   2.187   9.977   1.145  0.1280  0.1479  0.2889
  548MOL0     C72217   2.081  10.011   1.038 -0.0904 -0.4865 -0.2895
  548MOL0     C72218   1.946   9.942   1.076  1.0003  0.1622  0.0285
  548MOL0     C72219   1.949   9.791   1.031 -0.0699 -0.0521 -0.4818
  548MOL0     C72220   1.829   9.711   1.101  0.2238 -0.6025 -0.2842
  548MOL0     N72221   1.786   9.580   1.043 -0.1032 -0.4310  0.8021
  548MOL0     C72222   1.820   9.543   0.917  0.5396 -0.1058  0.8494
  548MOL0     C72223   1.793   9.412   0.908 -0.7355 -0.3131 -0.0158
  548MOL0     C72224   1.813   9.317   0.784  0.6222 -1.1729 -0.5945
  548MOL0     C72225   1.678   9.283   0.713 -0.1374 -0.1514 -0.3813
  548MOL0     C72226   1.699   9.157   0.625  0.1871  0.2043  0.2889
  548MOL0     C72227   1.573   9.126   0.537 -0.2839  0.2178 -0.3903
  548MOL0     O72228   1.472   9.074   0.623  0.3228 -0.6981 -0.2512
  548MOL0     C72229   1.348   9.040   0.571 -0.9453 -0.5371  0.7777
  548MOL0     C72230   1.242   9.017   0.657 -0.4749 -0.0480 -1.0693
  548MOL0     C72231   1.111   9.000   0.614  0.5048  0.0441 -0.0595
  548MOL0     C72232   1.090   8.977   0.474  0.3866  0.3066  0.2069
  548MOL0     C72233   0.954   8.925   0.424 -1.4001 -0.2315  0.5405
  548MOL0     O72234   0.949   8.876   0.295 -0.1783 -0.0995 -0.0578
  548MOL0     C72235   0.839   8.820   0.245  0.1878  0.5691  0.3401
  548MOL0     C72236   0.799   8.858   0.115 -0.8651  0.4524 -0.6454
  548MOL0     C72237   0.691   8.792   0.052 -0.4035  0.3536  0.5601
  548MOL0     C72238   0.629   8.678   0.115  0.2691 -0.4393  0.0720
  548MOL0     O72239   0.518   8.607   0.072 -0.2008  0.1419  0.4764
  548MOL0     C72240   0.434   8.671  -0.033  0.3642 -0.0549  0.2169
  548MOL0     C72241   0.301   8.593  -0.034  0.1633  0.0667  0.1784
  548MOL0     C72242   0.206   8.649  -0.143 -0.2939  0.2724 -0.0551
  548MOL0     C72243   0.079   8.567  -0.169  0.5526  0.3802  1.0770
  548MOL0     C72244  -0.011   8.643  -0.271  0.4900 -0.3531 -0.7149
  548MOL0     C72245  -0.125   8.540  -0.306  0.0886  0.5417 -0.3177
  548MOL0     C72246  -0.208   8.606  -0.416 -0.3296  0.0352 -0.7004
  548MOL0     C72247  -0.323   8.520  -0.463 -0.1459 -0.2565 -0.1575
  548MOL0    Cl72248  -0.432   8.618  -0.552 -0.2471  0.7022  0.1553
  548MOL0     C72249   0.675   8.645   0.242  0.4407  0.0760  0.8939
  548MOL0     C72250   0.764   8.720   0.313 -0.2018 -0.6916 -0.5186
  548MOL0     O72251   0.864   8.928   0.501  0.5248 -0.1981 -0.0107
  548MOL0     C72252   1.197   8.987   0.391 -0.1896 -0.6497  0.1162
  548MOL0     C72253   1.325   9.026   0.432 -1.0672 -0.1881  0.2319
  548MOL0     N72254   1.741   9.378   1.028 -0.5621  0.1352 -0.7463
  548MOL0     N72255   1.745   9.474   1.112 -0.0493 -0.0041  0.4318
  548MOL0     C72256   2.720  10.198   0.808 -0.1949 -0.0896 -0.4556
  548MOL0     C72257   2.849  10.239   0.772  0.1210  0.4101 -0.3110
  548MOL0     C72258   3.253  10.501   0.805 -0.7007 -0.0240 -0.1281
  548MOL0     C72259   3.335  10.602   0.856 -0.1456  0.6649  0.8536
  548MOL0     C72260   3.470  10.610   0.833 -0.0653  0.0682  0.2225
  548MOL0     C72261   3.529  10.521   0.746 -0.1292 -0.6387  0.4071
  548MOL0     O72262   3.662  10.518   0.715 -0.3141 -0.2665  0.3281
  548MOL0     C72263   3.758  10.545   0.823 -0.1841 -0.0727  0.5130
  548MOL0     C72264   3.908  10.499   0.785  0.2876  0.2184  0.3836
  548MOL0     C72265   3.952  10.572   0.660  0.7062  0.2967  0.1417
  548MOL0     C72266   4.088  10.525   0.604 -0.2642 -0.7043 -0.0099
  548MOL0     C72267   4.200  10.526   0.700  0.5231 -0.2832  0.2144
  548MOL0     C72268   4.304  10.526   0.770  0.5013 -0.4776 -0.4641
  548MOL0     C72269   3.454  10.418   0.685 -0.0199  0.6069 -0.3421
  548MOL0     C72270   3.316  10.412   0.717 -0.2006  0.1317 -1.3886
  548MOL0     H72271   2.832  10.553   0.917  1.2773  0.0814 -1.4642
  548MOL0     H72272   2.602  10.457   0.971 -2.1422 -1.0494 -1.3968
  548MOL0     H72273   2.414  10.363   1.033  0.2295 -0.2379  0.3510
  548MOL0     H72274   2.515  10.238   1.119 -0.1340 -1.2600 -0.3883
  548MOL0     H72275   2.251  10.199   0.969 -2.7921  0.4351  1.6106
  548MOL0     H72276   2.264  10.244   1.133  0.3697  0.7614  0.5598
  548MOL0     H72277   2.386  10.042   1.187 -1.0218 -1.4595  0.4176
  548MOL0     H72278   2.356   9.968   1.026 -0.6929 -2.2535  0.8787
  548MOL0     H72279   2.209   9.871   1.163  1.5607  0.5647  1.1880
  548MOL0     H72280   2.148  10.026   1.234 -2.1011 -0.2325 -0.4084
  548MOL0     H72281   2.119   9.987   0.939 -0.2186 -1.0644 -0.2038
  548MOL0     H72282   2.070  10.120   1.037 -1.4162 -0.5570 -3.2101
  548MOL0     H72283   1.871  10.001   1.021 -0.0459 -2.3766 -1.4504
  548MOL0     H72284   1.915   9.948   1.180  2.6971 -0.5043  0.5994
  548MOL0     H72285   1.948   9.769   0.923 -3.0079  2.0831 -1.0201
  548MOL0     H72286   2.029   9.735   1.080 -0.3461  0.5597  0.6879
  548MOL0     H72287   1.741   9.776   1.095  1.8255  1.5042 -2.5172
  548MOL0     H72288   1.859   9.702   1.206  0.5364  0.1055 -0.3091
  548MOL0     H72289   1.865   9.590   0.830 -0.4835 -2.6672 -1.1977
  548MOL0     H72290   1.859   9.228   0.829 -0.7254  0.7532  5.6215
  548MOL0     H72291   1.885   9.353   0.710  1.6763  1.6036  1.6085
  548MOL0     H72292   1.637   9.363   0.652 -3.5931  0.3095  2.2291
  548MOL0     H72293   1.593   9.265   0.780 -0.2687  0.4514 -0.3810
  548MOL0     H72294   1.789   9.167   0.564  1.0587 -0.5696  1.3975
  548MOL0     H72295   1.711   9.064   0.682 -1.7740 -0.6322 -0.5610
  548MOL0     H72296   1.592   9.048   0.463  1.5746 -2.8430  2.9938
  548MOL0     H72297   1.531   9.220   0.500 -2.0911  0.2781  1.6085
  548MOL0     H72298   1.262   9.016   0.763 -3.0420 -0.0799 -0.5141
  548MOL0     H72299   1.034   8.982   0.688  0.0436  1.1233 -0.2563
  548MOL0     H72300   0.851   8.946   0.078  0.3665 -0.5393 -1.3747
  548MOL0     H72301   0.662   8.815  -0.050 -2.4938 -1.4164  0.6922
  548MOL0     H72302   0.485   8.678  -0.130 -0.8624  0.0130 -0.4501
  548MOL0     H72303   0.406   8.773  -0.006  2.6338  1.3761 -2.3615
  548MOL0     H72304   0.243   8.596   0.058 -1.3515  1.1753 -0.7590
  548MOL0     H72305   0.327   8.488  -0.048  2.2392  0.6165 -0.4850
  548MOL0     H72306   0.256   8.658  -0.240 -3.4894 -0.8190 -1.9427
  548MOL0     H72307   0.183   8.750  -0.107  0.6668  0.6760 -0.5284
  548MOL0     H72308   0.109   8.474  -0.218 -0.4041  2.1922 -3.4665
  548MOL0     H72309   0.028   8.551  -0.074 -0.7003 -1.6778  0.1200
  548MOL0     H72310   0.052   8.678  -0.353 -0.3884  1.1169 -0.8061
  548MOL0     H72311  -0.046   8.737  -0.228  2.6083 -1.4219  3.9349
  548MOL0     H72312  -0.187   8.514  -0.220  1.7417  2.0393  1.4116
  548MOL0     H72313  -0.085   8.444  -0.340 -0.3278  0.5684 -0.9119
  548MOL0     H72314  -0.237   8.705  -0.379  0.2538  0.0910 -0.3826
  548MOL0     H72315  -0.142   8.630  -0.499 -0.0226 -0.4502 -0.5985
  548MOL0     H72316  -0.376   8.471  -0.381 -0.0869  2.6875  1.7791
  548MOL0     H72317  -0.281   8.440  -0.526 -0.6634 -2.2474  1.9044
  548MOL0     H72318   0.625   8.565   0.296  0.8516 -1.9259 -1.5084
  548MOL0     H72319   0.802   8.686   0.409  1.5303 -0.0761 -0.9496
  548MOL0     H72320   1.175   8.966   0.287 -0.4517 -0.0485  0.0471
  548MOL0     H72321   1.394   9.061   0.355  0.2056  1.8288  2.1682
  548MOL0     H72322   2.692  10.099   0.774  1.3048 -0.5598 -0.3978
  548MOL0     H72323   2.918  10.175   0.718  2.4291 -0.8331  3.6827
  548MOL0     H72324   3.295  10.677   0.924  0.2933  0.0241  1.8494
  548MOL0     H72325   3.532  10.684   0.882  0.0720 -0.6501  1.1725
  548MOL0     H72326   3.730  10.498   0.917 -0.7226  0.9947  0.8947
  548MOL0     H72327   3.756  10.653   0.835  0.5846 -0.0002  0.0558
  548MOL0     H72328   3.986  10.512   0.861  2.3062  1.1668 -1.7145
  548MOL0     H72329   3.913  10.391   0.771  1.6015  0.3796 -0.5778
  548MOL0     H72330   3.961  10.679   0.677 -0.5593  0.5392 -0.5905
  548MOL0     H72331   3.877  10.561   0.581 -1.1257 -2.6048  2.0697
  548MOL0     H72332   4.075  10.427   0.558  0.6123 -1.7749  1.9518
  548MOL0     H72333   4.111  10.594   0.522  0.3395 -0.5875  0.2513
  548MOL0     H72334   4.391  10.530   0.832  0.5758 -1.5861 -0.4744
  548MOL0     H72335   3.515  10.357   0.620  0.1920 -0.0695  0.4717
  548MOL0     H72336   3.265  10.329   0.668  0.3252  0.1796 -2.0326
  549MOL0     O72337  10.786   7.383   6.707 -0.3688  0.4960 -0.0560
  549MOL0     C72338  10.709   7.360   6.802 -0.5398  0.5690  0.6529
  549MOL0     O72339  10.730   7.377   6.930 -0.1699  0.2478 -0.3294
  549MOL0     C72340  10.846   7.434   6.983  0.2307  0.9319 -0.2751
  549MOL0     C72341  10.943   7.516   6.921  0.3366  0.0970 -0.6213
  549MOL0     C72342  11.050   7.563   6.991  0.4521 -0.0844  0.1050
  549MOL0     C72343  11.068   7.543   7.125  0.5246 -0.2819 -1.2158
  549MOL0     O72344  11.164   7.611   7.195 -0.0698  0.1705 -0.5806
  549MOL0     C72345  11.293   7.586   7.148 -0.9688 -0.1723  1.0805
  549MOL0     C72346  11.400   7.623   7.255 -0.4371 -0.0717  0.6067
  549MOL0     C72347  11.394   7.776   7.276  0.0483 -0.3806  0.1522
  549MOL0     C72348  11.484   7.839   7.373  0.5900 -0.0760 -0.7447
  549MOL0     C72349  11.628   7.802   7.346  0.2052 -0.5246  0.1840
  549MOL0     C72350  11.682   7.844   7.205  0.7844  0.5877 -0.5752
  549MOL0     C72351  11.838   7.821   7.193 -0.5989  0.0840 -0.4338
  549MOL0     C72352  11.880   7.674   7.203  0.0299  0.5501 -0.0434
  549MOL0     N72353  12.018   7.664   7.172 -0.7826  0.7729  0.0531
  549MOL0     C72354  12.123   7.629   7.253  0.2967 -0.2570  0.5576
  549MOL0     C72355  12.222   7.632   7.166 -0.3873  0.5730 -0.1778
  549MOL0     C72356  12.363   7.591   7.210  0.2130 -0.7797 -0.0770
  549MOL0     C72357  12.428   7.688   7.317  0.3647  0.6441  0.8096
  549MOL0     C72358  12.538   7.621   7.400 -0.2806  0.3440  0.4231
  549MOL0     C72359  12.671   7.589   7.339 -0.3593 -0.2957  0.3658
  549MOL0     O72360  12.734   7.487   7.429 -0.0356 -0.1216  0.0949
  549MOL0     C72361  12.866   7.461   7.418  0.1122 -0.1056  0.8629
  549MOL0     C72362  12.927   7.373   7.502  0.2972  0.7254  0.2315
  549MOL0     C72363  13.043   7.302   7.481  0.1891  0.1888  0.3979
  549MOL0     C72364  13.125   7.350   7.383  0.8037 -0.2006 -1.0782
  549MOL0     C72365  13.244   7.278   7.355  0.5180  0.2755  0.3289
  549MOL0     O72366  13.293   7.204   7.455  0.7790  0.0395 -0.9349
  549MOL0     C72367  13.413   7.133   7.451 -0.0419 -0.1373  0.8530
  549MOL0     C72368  13.535   7.182   7.400  1.0718  0.1607  0.2222
  549MOL0     C72369  13.647   7.097   7.392  0.5621  0.5234  0.6779
  549MOL0     C72370  13.641   6.960   7.413  0.6454  0.9435 -0.4290
  549MOL0     O72371  13.740   6.867   7.386 -0.7545  0.1349 -0.6777
  549MOL0     C72372  13.874   6.904   7.342 -0.2812 -0.7727 -0.1767
  549MOL0     C72373  13.958   6.786   7.302 -0.2483  0.1774 -0.3125
  549MOL0     C72374  14.086   6.839   7.244 -0.2385 -0.1748  0.2102
  549MOL0     C72375  14.185   6.720   7.227 -0.5328 -0.6151  0.1374
  549MOL0     C72376  14.305   6.771   7.158 -0.5981 -0.2615 -0.9810
  549MOL0     C72377  14.390   6.827   7.273 -1.2483  0.4124  0.7776
  549MOL0     C72378  14.519   6.889   7.213 -0.0403 -0.9290 -0.5380
  549MOL0     C72379  14.597   6.971   7.325 -0.8799  0.8279  1.0138
  549MOL0    Cl72380  14.750   7.028   7.249 -0.1573  0.0939  0.0321
  549MOL0     C72381  13.519   6.908   7.467 -0.2694 -0.7572  0.3650
  549MOL0     C72382  13.406   6.995   7.486 -0.2179  0.7051  0.4401
  549MOL0     O72383  13.299   7.305   7.248 -0.1483  0.5958 -0.3341
  549MOL0     C72384  13.078   7.460   7.300 -0.1465  0.3415 -0.2137
  549MOL0     C72385  12.950   7.515   7.316  0.3342  0.2706  0.0514
  549MOL0     N72386  12.187   7.671   7.035 -0.0060  0.3796  0.0381
  549MOL0     N72387  12.058   7.686   7.037 -0.2859  0.7792 -0.9984
  549MOL0     C72388  10.962   7.473   7.198 -0.0009  0.2375 -0.7672
  549MOL0     C72389  10.853   7.418   7.122  0.2105  0.7415  0.1479
  549MOL0     C72390  10.587   7.296   6.759  0.1360  0.5800  1.1955
  549MOL0     C72391  10.563   7.287   6.622 -0.3663  0.0405 -0.1456
  549MOL0     C72392  10.445   7.235   6.570  0.6545 -0.0679 -0.8755
  549MOL0     C72393  10.337   7.193   6.657 -0.7805 -0.2490 -0.5821
  549MOL0     O72394  10.226   7.145   6.593  0.6113  0.9573 -0.3938
  549MOL0     C72395  10.106   7.143   6.675  0.8287 -0.6104 -0.2187
  549MOL0     C72396   9.985   7.074   6.611  0.6619 -0.4598  0.5828
  549MOL0     C72397   9.939   7.150   6.480 -0.3369  1.0258 -0.1753
  549MOL0     C72398   9.814   7.074   6.435  0.4459  0.4950 -0.1737
  549MOL0     C72399   9.795   7.093   6.287  0.3035  0.6129 -0.2700
  549MOL0     C72400   9.783   7.123   6.173  0.6158 -0.1415 -0.4777
  549MOL0     C72401  10.359   7.220   6.795 -0.2007 -0.4518  0.6555
  549MOL0     C72402  10.477   7.273   6.842 -0.0120 -0.1066 -0.2315
  549MOL0     H72403  10.929   7.539   6.816 -1.4104 -0.8854 -0.6484
  549MOL0     H72404  11.111   7.639   6.941 -0.2558  0.8356  0.6098
  549MOL0     H72405  11.316   7.648   7.061  0.8764 -1.4459  0.5908
  549MOL0     H72406  11.293   7.480   7.120 -0.9404  0.4246 -1.3446
  549MOL0     H72407  11.500   7.584   7.234 -0.5921 -1.7766  2.6372
  549MOL0     H72408  11.367   7.581   7.351 -1.1493  0.7770  0.7385
  549MOL0     H72409  11.292   7.813   7.292  0.5334  1.2813 -0.4330
  549MOL0     H72410  11.422   7.830   7.185  1.8951  0.8708  1.4002
  549MOL0     H72411  11.484   7.948   7.372  0.4637 -0.0586 -3.3710
  549MOL0     H72412  11.463   7.823   7.480  0.8182  1.1043 -0.5102
  549MOL0     H72413  11.630   7.695   7.368 -0.2680 -0.2391  1.7958
  549MOL0     H72414  11.691   7.852   7.421  2.0939 -2.7302  0.1823
  549MOL0     H72415  11.661   7.950   7.186 -1.6438  0.1810 -0.4754
  549MOL0     H72416  11.637   7.785   7.125  0.2772 -0.4894  0.4775
  549MOL0     H72417  11.861   7.851   7.091  1.1189 -2.8224 -0.9980
  549MOL0     H72418  11.897   7.883   7.262  1.4430 -0.2603 -1.7885
  549MOL0     H72419  11.814   7.622   7.133 -0.4762  2.8868 -1.4107
  549MOL0     H72420  11.861   7.640   7.305 -0.6703  1.5983  0.1904
  549MOL0     H72421  12.126   7.603   7.358  0.4325 -0.4633  0.5034
  549MOL0     H72422  12.429   7.577   7.124 -3.2894 -2.8693 -2.6985
  549MOL0     H72423  12.349   7.490   7.250  0.2925  0.1463  2.5053
  549MOL0     H72424  12.358   7.732   7.388 -0.0480  0.0225  0.7908
  549MOL0     H72425  12.475   7.771   7.263  0.0170 -0.3526 -1.1251
  549MOL0     H72426  12.568   7.696   7.474 -1.3786  0.9108  0.3077
  549MOL0     H72427  12.497   7.531   7.448 -0.5597 -2.2362 -4.0893
  549MOL0     H72428  12.743   7.671   7.341 -0.5829 -0.0250 -1.2524
  549MOL0     H72429  12.652   7.550   7.239 -2.1245 -0.8195  0.8649
  549MOL0     H72430  12.857   7.337   7.576  0.3459 -2.0552 -0.9118
  549MOL0     H72431  13.063   7.215   7.543  2.3538  0.9002  0.7721
  549MOL0     H72432  13.545   7.283   7.359 -2.5594  0.9659  0.9441
  549MOL0     H72433  13.734   7.143   7.345 -0.5409 -0.4587 -2.6118
  549MOL0     H72434  13.922   6.968   7.416 -1.6691  0.3771 -0.2234
  549MOL0     H72435  13.871   6.958   7.247  0.0481  0.9288  0.7494
  549MOL0     H72436  13.900   6.738   7.222  0.9056  0.0630 -1.1134
  549MOL0     H72437  13.965   6.718   7.387 -1.1746  2.7533  1.9837
  549MOL0     H72438  14.130   6.920   7.303  0.1993  1.0153 -1.6595
  549MOL0     H72439  14.064   6.892   7.151 -0.0490 -0.7348 -0.1583
  549MOL0     H72440  14.203   6.667   7.321  0.9351 -0.0300  0.2170
  549MOL0     H72441  14.147   6.645   7.157  0.9580 -1.8285  0.5796
  549MOL0     H72442  14.274   6.855   7.095 -0.8347 -1.0532 -1.9593
  549MOL0     H72443  14.357   6.692   7.102  0.7196 -0.6585  0.6969
  549MOL0     H72444  14.412   6.750   7.347 -0.4494  1.3105  1.5011
  549MOL0     H72445  14.333   6.909   7.319 -0.7021  1.3677 -0.2093
  549MOL0     H72446  14.582   6.810   7.171  1.5401 -0.3259  0.5690
  549MOL0     H72447  14.508   6.972   7.143 -1.5033  2.5733  3.3826
  549MOL0     H72448  14.615   6.911   7.415 -0.4564 -1.0498 -0.2859
  549MOL0     H72449  14.534   7.052   7.364 -0.5367  1.0145  1.1962
  549MOL0     H72450  13.509   6.804   7.498  2.5235 -1.9853 -2.3033
  549MOL0     H72451  13.323   6.944   7.532  0.8459 -1.8269 -0.2621
  549MOL0     H72452  13.138   7.481   7.213 -2.1088 -0.5853 -1.8821
  549MOL0     H72453  12.911   7.578   7.237  3.8532  0.7578 -1.4672
  549MOL0     H72454  10.973   7.463   7.306  1.3923 -0.0995 -0.9129
  549MOL0     H72455  10.769   7.364   7.165 -0.4639  1.2798 -0.4836
  549MOL0     H72456  10.643   7.294   6.549  0.5561 -0.1357  0.8362
  549MOL0     H72457  10.432   7.220   6.463  2.2451  1.2098 -1.2989
  549MOL0     H72458  10.086   7.248   6.698 -2.2677 -0.4668 -2.8203
  549MOL0     H72459  10.137   7.090   6.765  2.0094 -0.9910 -0.8355
  549MOL0     H72460  10.008   6.970   6.587 -1.0673 -0.6251 -0.4987
  549MOL0     H72461   9.904   7.086   6.684  2.2816  0.7544  2.2988
  549MOL0     H72462  10.016   7.137   6.403  1.4677  0.4512  1.6459
  549MOL0     H72463   9.918   7.255   6.498  1.6192  1.2506  1.0423
  549MOL0     H72464   9.816   6.965   6.443  1.6512  0.6138  2.1082
  549MOL0     H72465   9.725   7.109   6.489 -1.2471 -1.1785 -1.7620
  549MOL0     H72466   9.796   7.165   6.075  3.1290  0.8839  0.2116
  549MOL0     H72467  10.288   7.179   6.866  1.1976 -2.6577  0.8755
  549MOL0     H72468  10.482   7.298   6.947 -1.0890  0.2771 -0.2611
  550MOL0     O72469   4.896   3.264   0.952 -0.6382 -0.3386 -0.3623
  550MOL0     C72470   4.873   3.358   0.883  0.3226 -0.1997  0.6397
  550MOL0     O72471   4.776   3.449   0.896 -0.2294  0.2277 -0.0085
  550MOL0     C72472   4.667   3.434   0.981 -0.0624 -0.5025  0.1118
  550MOL0     C72473   4.581   3.543   0.973  0.1977  0.5765  0.9179
  550MOL0     C72474   4.459   3.537   1.045 -0.0805 -0.7848 -0.2243
  550MOL0     C72475   4.418   3.429   1.121 -0.6466 -0.2409 -0.7252
  550MOL0     O72476   4.297   3.430   1.178  0.0869  0.1418  0.0383
  550MOL0     C72477   4.193   3.422   1.079  0.1607 -0.3610 -1.0540
  550MOL0     C72478   4.057   3.394   1.157  0.0682  1.0263 -0.1548
  550MOL0     C72479   3.995   3.517   1.229  0.6335  0.1344  0.4583
  550MOL0     C72480   3.946   3.626   1.122 -0.4869  0.3788 -0.5452
  550MOL0     C72481   3.879   3.734   1.202  0.9186  0.4157  1.5024
  550MOL0     C72482   3.744   3.701   1.270 -0.0160 -0.3132  0.1671
  550MOL0     C72483   3.637   3.656   1.168  0.0112  0.0981  0.8242
  550MOL0     C72484   3.504   3.715   1.176  1.2006  0.0758 -0.0001
  550MOL0     N72485   3.405   3.668   1.078 -0.6195 -0.1054 -0.5543
  550MOL0     C72486   3.267   3.684   1.079  0.3676 -0.3301 -1.0990
  550MOL0     C72487   3.218   3.638   0.965 -0.0947 -0.3205  0.5374
  550MOL0     C72488   3.076   3.625   0.907 -0.3409 -0.6055 -0.2172
  550MOL0     C72489   2.984   3.529   0.986  0.0927 -0.1547 -1.2095
  550MOL0     C72490   2.840   3.547   0.960  0.0299 -0.2131  0.1116
  550MOL0     C72491   2.739   3.447   1.014  0.8992 -0.2364 -0.7045
  550MOL0     O72492   2.611   3.466   0.951  0.3115 -0.2501  0.0572
  550MOL0     C72493   2.501   3.400   1.003  0.4364  0.2230  0.2643
  550MOL0     C72494   2.376   3.428   0.950  0.0192 -0.4804 -1.0703
  550MOL0     C72495   2.258   3.361   0.986 -0.5228 -0.4809  0.0827
  550MOL0     C72496   2.250   3.270   1.095 -0.7798  0.4263  0.0732
  550MOL0     C72497   2.120   3.214   1.137 -0.3081  0.0007 -0.3942
  550MOL0     O72498   2.002   3.265   1.102  0.7207 -0.9650 -0.1363
  550MOL0     C72499   1.890   3.186   1.113 -1.3380 -0.6959  0.3583
  550MOL0     C72500   1.772   3.257   1.128  0.0015 -0.2562  0.5313
  550MOL0     C72501   1.643   3.193   1.108 -0.5017 -0.0879  0.3995
  550MOL0     C72502   1.640   3.050   1.083  0.7337 -0.6363  0.6605
  550MOL0     O72503   1.522   2.979   1.065  0.4724 -0.2327  0.2458
  550MOL0     C72504   1.397   3.032   1.111 -0.5098 -1.1439 -0.1636
  550MOL0     C72505   1.287   2.928   1.123 -0.2194  0.2132  0.2958
  550MOL0     C72506   1.158   2.970   1.198  0.5109 -0.7432 -1.0048
  550MOL0     C72507   1.068   3.066   1.116 -0.4772 -0.0002  0.3794
  550MOL0     C72508   0.952   3.113   1.202  0.9723 -0.0121 -0.3739
  550MOL0     C72509   0.861   3.201   1.118  0.3863 -0.7152 -0.6338
  550MOL0     C72510   0.758   3.272   1.206  0.2344  0.2220 -0.1690
  550MOL0     C72511   0.637   3.300   1.113  0.1862 -0.0321 -0.5348
  550MOL0    Cl72512   0.513   3.393   1.208  0.1267 -0.3785  0.0611
  550MOL0     C72513   1.759   2.985   1.073  0.5367 -0.2968 -0.0799
  550MOL0     C72514   1.882   3.045   1.078 -0.0224 -1.1865  0.5925
  550MOL0     O72515   2.136   3.117   1.212  0.6424 -0.7926  0.5151
  550MOL0     C72516   2.379   3.242   1.150 -0.5676  0.2223 -0.1547
  550MOL0     C72517   2.501   3.300   1.100  0.1156  0.7117 -0.1642
  550MOL0     N72518   3.327   3.575   0.901 -0.6192  0.0548  0.3349
  550MOL0     N72519   3.440   3.608   0.956  0.1376  0.8431  0.0407
  550MOL0     C72520   4.515   3.328   1.132  0.4164 -0.4753 -0.4787
  550MOL0     C72521   4.636   3.332   1.068 -0.4700  0.5845 -0.0010
  550MOL0     C72522   4.975   3.380   0.774  0.6861 -0.7818  0.3780
  550MOL0     C72523   4.958   3.461   0.661  0.5408  0.0297  0.6958
  550MOL0     C72524   5.053   3.488   0.570  0.2120  0.0319 -0.5966
  550MOL0     C72525   5.174   3.423   0.579 -0.3693 -0.4399  0.3759
  550MOL0     O72526   5.269   3.443   0.473 -0.0194 -0.6476  0.1036
  550MOL0     C72527   5.362   3.332   0.457 -0.3828 -0.5056  1.0494
  550MOL0     C72528   5.470   3.385   0.362  0.5238  0.2625 -0.1259
  550MOL0     C72529   5.567   3.284   0.336  0.2560  0.2598 -0.7766
  550MOL0     C72530   5.717   3.327   0.340  0.8225 -0.1467  0.2840
  550MOL0     C72531   5.757   3.330   0.484  0.5543  0.2532  0.0499
  550MOL0     C72532   5.789   3.314   0.601  0.2465  1.0368 -0.2744
  550MOL0     C72533   5.199   3.342   0.687 -0.1344  1.0211  0.0421
  550MOL0     C72534   5.099   3.326   0.784  0.4827  0.5479  0.2478
  550MOL0     H72535   4.602   3.633   0.916  0.1225 -0.1143 -0.2324
  550MOL0     H72536   4.394   3.623   1.031 -1.2703 -1.4130  1.1394
  550MOL0     H72537   4.212   3.340   1.009 -0.3947 -0.8483 -0.6436
  550MOL0     H72538   4.178   3.511   1.017 -0.9961 -1.2133 -2.0438
  550MOL0     H72539   4.085   3.309   1.220  0.8573  2.4494  1.4917
  550MOL0     H72540   3.985   3.356   1.083  1.1864 -1.1957 -0.1759
  550MOL0     H72541   4.065   3.560   1.301 -0.2187  0.7226  0.9453
  550MOL0     H72542   3.908   3.486   1.288 -0.3451  0.5815 -0.6966
  550MOL0     H72543   4.041   3.658   1.079  2.1819 -3.0685  2.1542
  550MOL0     H72544   3.880   3.586   1.044 -2.9232  1.6436  0.7505
  550MOL0     H72545   3.856   3.812   1.128 -3.5467 -1.3161  0.7481
  550MOL0     H72546   3.944   3.784   1.274  1.7772  2.4369 -0.5272
  550MOL0     H72547   3.702   3.791   1.315  0.6264  0.2583 -0.3587
  550MOL0     H72548   3.752   3.623   1.347 -1.1340  1.3437  2.0551
  550MOL0     H72549   3.674   3.679   1.067  1.4870  0.6242  1.4510
  550MOL0     H72550   3.624   3.548   1.170 -1.6209  0.0611 -2.9469
  550MOL0     H72551   3.511   3.823   1.159  2.4816  0.3432  1.9214
  550MOL0     H72552   3.466   3.698   1.278 -1.9607 -1.3912 -1.2905
  550MOL0     H72553   3.212   3.727   1.162  0.6973  0.7820 -1.4422
  550MOL0     H72554   3.090   3.590   0.805 -0.2002 -0.1131 -0.3705
  550MOL0     H72555   3.033   3.726   0.915 -1.0917 -0.9603  0.3497
  550MOL0     H72556   3.012   3.541   1.092  0.1223  1.7819 -1.4083
  550MOL0     H72557   3.016   3.427   0.961  1.0242  0.0446 -0.8745
  550MOL0     H72558   2.807   3.642   1.003 -3.2637 -0.4482 -1.5343
  550MOL0     H72559   2.822   3.563   0.853  0.4685  1.5169  0.2750
  550MOL0     H72560   2.738   3.452   1.123 -0.3605  0.2924 -0.7242
  550MOL0     H72561   2.764   3.342   0.994 -1.8874 -1.0011 -0.6423
  550MOL0     H72562   2.374   3.509   0.878 -1.1564 -0.2774 -0.8163
  550MOL0     H72563   2.167   3.375   0.930 -0.7125  0.0030  0.5068
  550MOL0     H72564   1.774   3.364   1.148  1.7272 -0.2839  0.6053
  550MOL0     H72565   1.550   3.247   1.121 -0.4935  0.0129  0.0516
  550MOL0     H72566   1.369   3.099   1.029  0.6641  0.6289  0.8031
  550MOL0     H72567   1.404   3.087   1.206 -1.2490  0.4614 -0.9984
  550MOL0     H72568   1.325   2.839   1.174  0.5554  0.2765 -0.1412
  550MOL0     H72569   1.263   2.905   1.019  0.8880 -0.6759  0.2083
  550MOL0     H72570   1.179   3.005   1.300 -1.0319 -0.2411 -0.8205
  550MOL0     H72571   1.107   2.877   1.224 -3.3329  1.4874  0.3850
  550MOL0     H72572   1.126   3.154   1.085 -1.1982  0.2297 -0.3653
  550MOL0     H72573   1.042   3.023   1.019  1.8133  0.9657 -0.7268
  550MOL0     H72574   0.977   3.173   1.291 -1.4934 -2.3024  2.0684
  550MOL0     H72575   0.900   3.021   1.230  1.7864  0.0661  1.5873
  550MOL0     H72576   0.810   3.129   1.054 -0.6405 -0.0971 -0.5491
  550MOL0     H72577   0.909   3.268   1.046  1.6771 -1.9617 -0.9804
  550MOL0     H72578   0.711   3.224   1.293 -1.7418  0.7744 -0.8679
  550MOL0     H72579   0.796   3.363   1.252  1.7440 -0.3065 -0.3174
  550MOL0     H72580   0.597   3.205   1.076 -0.3873 -0.2114  0.5016
  550MOL0     H72581   0.666   3.360   1.026  2.3826 -3.4920 -2.3984
  550MOL0     H72582   1.754   2.877   1.063  0.8727 -0.1184 -3.3194
  550MOL0     H72583   1.972   2.990   1.053  1.0207  1.0663 -0.9247
  550MOL0     H72584   2.385   3.175   1.236 -1.9215  0.3135  0.0400
  550MOL0     H72585   2.594   3.274   1.150 -0.7047  1.4309  1.8411
  550MOL0     H72586   4.477   3.239   1.181  0.4323 -1.0790 -1.5416
  550MOL0     H72587   4.701   3.245   1.067 -1.5717 -0.2600  0.0115
  550MOL0     H72588   4.870   3.525   0.653 -0.1146 -1.0672 -1.6502
  550MOL0     H72589   5.026   3.548   0.484 -3.2584 -2.0739 -1.1775
  550MOL0     H72590   5.314   3.242   0.418 -0.4004 -0.6840  1.4791
  550MOL0     H72591   5.411   3.303   0.550 -4.0299 -0.4127  3.1888
  550MOL0     H72592   5.427   3.419   0.267  1.2881 -1.5788 -1.1935
  550MOL0     H72593   5.518   3.470   0.411  2.1411 -0.7169  0.0535
  550MOL0     H72594   5.535   3.233   0.244  1.3493  0.1495 -1.1082
  550MOL0     H72595   5.562   3.199   0.405 -1.5973  0.3448 -0.7562
  550MOL0     H72596   5.773   3.250   0.288  2.8667 -1.3095  3.8283
  550MOL0     H72597   5.725   3.429   0.301 -2.8663  0.0449 -0.3229
  550MOL0     H72598   5.797   3.290   0.705 -0.4961  0.3675 -0.3638
  550MOL0     H72599   5.294   3.301   0.718 -0.5543  0.4755  0.6450
  550MOL0     H72600   5.122   3.267   0.872  0.7307  0.5786  0.2068
  551MOL0     O72601   9.396   1.134   9.484  0.4550  0.1542 -0.3610
  551MOL0     C72602   9.429   1.015   9.494 -0.5489 -0.3756 -0.3192
  551MOL0     O72603   9.351   0.903   9.497 -0.3556 -0.1656  0.4872
  551MOL0     C72604   9.216   0.904   9.495  0.1568 -0.1572  0.1348
  551MOL0     C72605   9.149   0.788   9.446  0.0221 -1.1055 -0.6653
  551MOL0     C72606   9.009   0.785   9.429 -0.5204  0.1392  0.8486
  551MOL0     C72607   8.919   0.897   9.457  0.2470 -0.8486 -0.1429
  551MOL0     O72608   8.786   0.910   9.434 -0.7910  0.7127 -1.1070
  551MOL0     C72609   8.723   0.822   9.347  0.0988 -0.0438 -0.6217
  551MOL0     C72610   8.601   0.893   9.292 -1.3252  1.3277  0.6035
  551MOL0     C72611   8.480   0.890   9.386 -1.0554 -0.1888  0.2294
  551MOL0     C72612   8.340   0.918   9.322 -0.0090 -0.3453  0.7654
  551MOL0     C72613   8.316   1.070   9.351  0.4102  0.9149 -0.4355
  551MOL0     C72614   8.183   1.119   9.303 -0.9622  0.5017  0.2716
  551MOL0     C72615   8.052   1.041   9.340 -0.3336 -0.0108 -0.2199
  551MOL0     C72616   8.042   1.026   9.498 -0.1208 -0.0932  0.0233
  551MOL0     N72617   7.901   1.004   9.541  0.4408 -1.3749 -0.2877
  551MOL0     C72618   7.786   1.074   9.501 -0.0138 -0.2546 -1.1725
  551MOL0     C72619   7.679   1.033   9.574  1.0560 -0.0928 -0.0565
  551MOL0     C72620   7.528   1.058   9.539  0.4038  0.7480  0.1050
  551MOL0     C72621   7.459   0.931   9.511  0.2353  0.1086 -0.0529
  551MOL0     C72622   7.528   0.852   9.403  0.6437  0.2347 -0.3886
  551MOL0     C72623   7.461   0.722   9.358  0.1164 -0.2594  0.5989
  551MOL0     O72624   7.544   0.637   9.274 -0.0177 -0.0129 -0.2479
  551MOL0     C72625   7.668   0.599   9.320 -0.8718  0.1063  0.3725
  551MOL0     C72626   7.786   0.664   9.272 -0.0118  0.1365 -0.7484
  551MOL0     C72627   7.904   0.632   9.332  0.7586  0.6434 -0.2922
  551MOL0     C72628   7.915   0.542   9.436 -0.1760  0.6883 -0.4013
  551MOL0     C72629   8.047   0.516   9.490 -0.5889 -0.1539 -0.0715
  551MOL0     O72630   8.143   0.602   9.441 -0.1478  0.2618  0.1957
  551MOL0     C72631   8.272   0.575   9.493  0.0052  0.2561  0.5839
  551MOL0     C72632   8.381   0.539   9.413  0.3838  0.8168  0.0024
  551MOL0     C72633   8.505   0.521   9.464  0.0373  0.4162 -0.1519
  551MOL0     C72634   8.531   0.538   9.602 -0.9399 -0.4319 -0.1566
  551MOL0     O72635   8.644   0.521   9.665 -0.5473  0.5473 -0.1144
  551MOL0     C72636   8.753   0.466   9.591 -0.7592  0.0861 -1.2857
  551MOL0     C72637   8.869   0.462   9.694  0.0843  0.4729  0.3243
  551MOL0     C72638   8.999   0.402   9.632 -0.1020  0.4901 -0.0239
  551MOL0     C72639   9.070   0.322   9.739 -0.6114 -0.1723  0.4119
  551MOL0     C72640   9.221   0.320   9.707  0.0364  0.2037  0.4533
  551MOL0     C72641   9.290   0.205   9.785 -0.5697  0.1174  0.3750
  551MOL0     C72642   9.433   0.216   9.835  0.0262 -0.2033  1.1841
  551MOL0     C72643   9.451   0.316   9.947 -0.1358  0.0418 -0.4694
  551MOL0    Cl72644   9.625   0.345   9.966  0.3909  0.1025  0.2074
  551MOL0     C72645   8.419   0.567   9.686  0.0558 -0.2611  0.0482
  551MOL0     C72646   8.294   0.587   9.635 -0.0360  0.1252 -0.0715
  551MOL0     O72647   8.063   0.426   9.577  0.3095  0.2145 -1.1664
  551MOL0     C72648   7.803   0.466   9.480  0.7843 -0.4353  0.9807
  551MOL0     C72649   7.676   0.497   9.418  0.2314 -0.5645 -0.6991
  551MOL0     N72650   7.732   0.937   9.667 -0.1288 -0.3752 -0.2513
  551MOL0     N72651   7.859   0.933   9.646  0.7092 -1.1231  0.0246
  551MOL0     C72652   8.988   1.000   9.526  0.0414 -0.1423  0.1706
  551MOL0     C72653   9.127   1.004   9.531 -0.0896  0.4964  0.1267
  551MOL0     C72654   9.577   1.001   9.503  1.0477  0.7737  0.3792
  551MOL0     C72655   9.625   0.880   9.547  1.4944  0.0077  0.3496
  551MOL0     C72656   9.757   0.877   9.574 -0.3888 -0.0999 -0.4569
  551MOL0     C72657   9.851   0.980   9.540 -0.1954  1.4321 -0.1530
  551MOL0     O72658   9.981   0.984   9.577 -0.0187  0.0324 -0.1984
  551MOL0     C72659  10.040   0.856   9.593 -1.2228  0.8597 -0.5159
  551MOL0     C72660  10.175   0.860   9.511  0.5221  1.1348 -0.1563
  551MOL0     C72661  10.257   0.731   9.523  0.4146 -0.4863 -0.0213
  551MOL0     C72662  10.378   0.716   9.434 -0.4690  0.2415 -0.2038
  551MOL0     C72663  10.511   0.710   9.497  0.8216  0.1281  0.3480
  551MOL0     C72664  10.618   0.702   9.550  0.9124  0.0504  0.3308
  551MOL0     C72665   9.804   1.094   9.479 -0.0453  0.7899 -0.6139
  551MOL0     C72666   9.665   1.102   9.464  0.4388 -0.0418  0.8847
  551MOL0     H72667   9.224   0.717   9.413  1.5914 -0.3474  1.1004
  551MOL0     H72668   8.968   0.690   9.398 -3.8093  1.4166  0.8989
  551MOL0     H72669   8.686   0.735   9.402 -0.1134  1.0860  1.1146
  551MOL0     H72670   8.794   0.793   9.269  1.8661  4.7135 -1.1341
  551MOL0     H72671   8.581   0.830   9.205  0.1589 -0.3291  1.4026
  551MOL0     H72672   8.630   0.994   9.262  4.1602  0.0441  0.6424
  551MOL0     H72673   8.502   0.957   9.469 -3.1776  0.2366  0.5102
  551MOL0     H72674   8.477   0.793   9.435 -1.2533 -2.3153 -3.5583
  551MOL0     H72675   8.335   0.889   9.217 -0.4799 -2.2459  1.2637
  551MOL0     H72676   8.257   0.858   9.360 -0.6621 -1.5897 -2.3192
  551MOL0     H72677   8.400   1.125   9.308  1.1262  2.2037  2.3890
  551MOL0     H72678   8.327   1.087   9.459  1.9465  0.8960 -0.5776
  551MOL0     H72679   8.190   1.132   9.194  1.4791 -2.2955 -0.0076
  551MOL0     H72680   8.172   1.221   9.341 -1.5642 -0.6093  3.3299
  551MOL0     H72681   7.969   1.104   9.307  0.4956  0.7658 -0.9046
  551MOL0     H72682   8.037   0.946   9.290 -1.1567 -1.8791  3.2863
  551MOL0     H72683   8.067   1.122   9.543 -2.4515  1.0439 -0.9588
  551MOL0     H72684   8.115   0.954   9.538  0.2887 -0.0421 -0.6231
  551MOL0     H72685   7.796   1.140   9.416  1.8856 -1.5024 -1.9907
  551MOL0     H72686   7.521   1.134   9.460 -0.9848  0.4540 -0.0860
  551MOL0     H72687   7.475   1.095   9.627 -1.2481 -0.1905 -0.4510
  551MOL0     H72688   7.357   0.960   9.485  0.5346  2.4269  1.0893
  551MOL0     H72689   7.461   0.879   9.607 -1.1058  0.3683  0.1303
  551MOL0     H72690   7.550   0.917   9.317 -0.8845 -0.5896 -1.4577
  551MOL0     H72691   7.624   0.822   9.445  0.2862 -0.4191 -0.0202
  551MOL0     H72692   7.368   0.753   9.308 -1.1017 -0.3131  2.7319
  551MOL0     H72693   7.437   0.670   9.451 -0.0534  1.6619  1.6759
  551MOL0     H72694   7.768   0.720   9.181 -1.8633  2.0712  0.6835
  551MOL0     H72695   7.987   0.687   9.287  1.6531 -0.1100  0.4001
  551MOL0     H72696   8.371   0.528   9.306  2.6741 -2.7835 -0.0255
  551MOL0     H72697   8.582   0.486   9.395 -1.7774  0.3583 -2.2800
  551MOL0     H72698   8.776   0.537   9.511  1.7050  1.6301  0.6339
  551MOL0     H72699   8.737   0.365   9.552  0.8945 -1.0680  0.7820
  551MOL0     H72700   8.837   0.401   9.779 -3.2663 -2.8892 -2.9509
  551MOL0     H72701   8.889   0.565   9.724  2.1307  0.3515 -0.4486
  551MOL0     H72702   9.068   0.483   9.607 -1.2250  0.9906 -1.6433
  551MOL0     H72703   8.981   0.352   9.537 -2.5388  1.2529 -0.0274
  551MOL0     H72704   9.058   0.378   9.833 -2.3036  1.8073 -0.8626
  551MOL0     H72705   9.039   0.217   9.739 -2.3207  0.2669  1.8460
  551MOL0     H72706   9.266   0.417   9.731  0.9405 -0.2449  0.6045
  551MOL0     H72707   9.236   0.300   9.600  0.3452  0.5130  0.4382
  551MOL0     H72708   9.285   0.114   9.725  1.7404 -0.2719  0.6781
  551MOL0     H72709   9.231   0.176   9.872  1.4023  2.0307  2.5007
  551MOL0     H72710   9.466   0.120   9.876 -0.4041 -2.0054 -2.3108
  551MOL0     H72711   9.501   0.246   9.754  0.4717  1.0813  1.9976
  551MOL0     H72712   9.417   0.273  10.041  2.2376  0.2235  0.5327
  551MOL0     H72713   9.395   0.406   9.920 -0.6771 -0.4994 -1.2110
  551MOL0     H72714   8.434   0.561   9.793 -0.8190 -1.9363  0.1188
  551MOL0     H72715   8.212   0.632   9.690 -1.1436  0.7257 -2.0973
  551MOL0     H72716   7.794   0.393   9.560 -0.2425 -0.5927  0.7375
  551MOL0     H72717   7.587   0.446   9.454  0.9445  0.7892  3.4771
  551MOL0     H72718   8.937   1.093   9.550 -4.7538 -2.5192  0.3277
  551MOL0     H72719   9.161   1.103   9.560 -6.5502  3.6514 -1.3000
  551MOL0     H72720   9.570   0.789   9.571  0.9695  0.0845 -0.5131
  551MOL0     H72721   9.792   0.784   9.617 -2.4399 -1.4531 -1.5726
  551MOL0     H72722   9.982   0.773   9.552 -1.0868  0.2099  0.5812
  551MOL0     H72723  10.064   0.830   9.696 -3.6310  0.4597  0.0091
  551MOL0     H72724  10.146   0.880   9.407 -0.0441  3.9207  0.4803
  551MOL0     H72725  10.228   0.949   9.545 -0.1397  0.8721  1.6466
  551MOL0     H72726  10.193   0.644   9.505 -2.1279  1.3576 -0.4212
  551MOL0     H72727  10.304   0.726   9.621  2.6645 -3.8741 -1.0520
  551MOL0     H72728  10.367   0.617   9.388  1.8956  0.0116 -0.4030
  551MOL0     H72729  10.387   0.803   9.368  0.2166 -0.2280 -0.7513
  551MOL0     H72730  10.717   0.683   9.587  1.4219 -1.0207 -1.4767
  551MOL0     H72731   9.873   1.161   9.429 -0.9611  0.8829 -1.8104
  551MOL0     H72732   9.623   1.184   9.406  0.3992 -1.4905 -1.2785
  552MOL0     O72733   7.629   1.843   4.806  0.1150  0.6682  0.2619
  552MOL0     C72734   7.652   1.962   4.773 -0.0242  0.5158 -0.0037
  552MOL0     O72735   7.557   2.055   4.728  0.0909  1.3564  0.1327
  552MOL0     C72736   7.436   1.999   4.690  0.2371 -0.3826  0.5060
  552MOL0     C72737   7.391   2.001   4.552  0.6806 -0.8949 -0.9217
  552MOL0     C72738   7.256   1.972   4.524 -0.4014  0.7995 -0.5980
  552MOL0     C72739   7.164   1.936   4.626 -1.0133  0.2137 -0.4143
  552MOL0     O72740   7.040   1.898   4.583 -0.6734  0.2280  1.1793
  552MOL0     C72741   6.988   1.778   4.646  0.5981  1.1273 -0.4133
  552MOL0     C72742   6.945   1.679   4.539  0.7495 -0.4107  0.0631
  552MOL0     C72743   6.815   1.729   4.462  1.0128  0.7638  0.4008
  552MOL0     C72744   6.761   1.602   4.393  0.9953 -0.1050  0.2309
  552MOL0     C72745   6.635   1.630   4.315  0.0509 -0.8048  0.9619
  552MOL0     C72746   6.527   1.696   4.404 -0.3163  0.3147 -0.3723
  552MOL0     C72747   6.393   1.713   4.333 -0.0117  1.1096  0.2194
  552MOL0     C72748   6.292   1.795   4.422  0.1099 -0.5468  0.7351
  552MOL0     N72749   6.175   1.856   4.349 -1.1371  0.5022 -0.2585
  552MOL0     C72750   6.174   1.990   4.313  0.7385  0.3114 -1.1193
  552MOL0     C72751   6.044   2.013   4.273  0.4998  0.2244 -0.4825
  552MOL0     C72752   5.989   2.157   4.242  0.1671  0.4818 -0.1843
  552MOL0     C72753   6.033   2.207   4.099 -1.2457  0.3723 -1.2312
  552MOL0     C72754   6.056   2.359   4.087 -0.1825 -0.4474  0.0537
  552MOL0     C72755   5.949   2.446   4.146  0.7139  0.6344  0.6010
  552MOL0     O72756   5.821   2.403   4.098  0.6572 -0.7542 -0.2119
  552MOL0     C72757   5.707   2.477   4.125 -0.1692 -0.0273 -0.0678
  552MOL0     C72758   5.697   2.587   4.216  0.6325 -0.7378  0.1167
  552MOL0     C72759   5.577   2.653   4.226 -0.3346  0.4762  0.1243
  552MOL0     C72760   5.473   2.620   4.139  0.5259 -0.8899  0.4545
  552MOL0     C72761   5.365   2.708   4.139 -0.4251 -0.3017 -0.6034
  552MOL0     O72762   5.328   2.766   4.253  0.1287  0.3441  0.9341
  552MOL0     C72763   5.235   2.867   4.249 -0.0763  0.0340  0.5766
  552MOL0     C72764   5.256   3.007   4.218  0.2068  0.8180 -0.7043
  552MOL0     C72765   5.139   3.090   4.218  0.2938  0.0994  0.2480
  552MOL0     C72766   5.009   3.043   4.242 -0.1005  0.1311 -1.4912
  552MOL0     O72767   4.910   3.130   4.236  0.0005  0.2139 -0.5607
  552MOL0     C72768   4.907   3.237   4.340 -0.1973  0.1869  0.8130
  552MOL0     C72769   4.777   3.316   4.342  0.4363  0.9189 -0.2947
  552MOL0     C72770   4.688   3.285   4.219  0.6734  0.4314  0.3139
  552MOL0     C72771   4.566   3.370   4.217  0.4446  0.1786  0.4552
  552MOL0     C72772   4.464   3.303   4.117 -0.5239 -0.1031  0.4584
  552MOL0     C72773   4.339   3.395   4.106  0.7198  0.7526  0.5878
  552MOL0     C72774   4.232   3.316   4.037  0.2447 -0.2513 -0.1677
  552MOL0     C72775   4.109   3.404   4.013 -0.2103 -0.1507 -0.2903
  552MOL0    Cl72776   4.006   3.447   4.163  0.3326  0.0081  0.0196
  552MOL0     C72777   4.989   2.912   4.274  1.2158  0.3672 -0.1990
  552MOL0     C72778   5.101   2.824   4.270 -0.0940 -0.0920  0.0594
  552MOL0     O72779   5.308   2.732   4.035  0.0388  0.2382 -0.2611
  552MOL0     C72780   5.487   2.518   4.041 -0.4224 -0.1600 -0.5706
  552MOL0     C72781   5.605   2.445   4.033  0.5850 -0.1164 -0.9529
  552MOL0     N72782   5.969   1.894   4.287 -0.0366  0.1232 -0.5850
  552MOL0     N72783   6.053   1.798   4.330  0.0142 -0.1187 -0.1875
  552MOL0     C72784   7.210   1.932   4.759  0.3931 -0.7337  0.3041
  552MOL0     C72785   7.348   1.951   4.792  1.2828 -0.4825  0.6321
  552MOL0     C72786   7.783   2.025   4.795 -0.0827 -0.2781  0.0604
  552MOL0     C72787   7.842   2.098   4.691  0.7849  1.1595  0.0973
  552MOL0     C72788   7.975   2.151   4.701  0.4103 -0.8882 -0.4874
  552MOL0     C72789   8.046   2.140   4.824  0.4338 -0.2528 -0.1173
  552MOL0     O72790   8.167   2.202   4.825 -0.1819 -0.2711 -0.0943
  552MOL0     C72791   8.269   2.172   4.918 -0.4415  0.6619 -0.8669
  552MOL0     C72792   8.323   2.049   4.868 -0.5509  0.3379  0.2126
  552MOL0     C72793   8.394   2.047   4.736  0.4869 -0.1091 -0.7977
  552MOL0     C72794   8.490   2.164   4.714  1.0084  0.3865 -0.5018
  552MOL0     C72795   8.581   2.181   4.823  0.7904  0.7921 -0.2458
  552MOL0     C72796   8.668   2.203   4.900 -0.0877  0.0741  0.3177
  552MOL0     C72797   7.991   2.059   4.929  0.6890  0.1979  0.4234
  552MOL0     C72798   7.857   2.000   4.917 -0.8713 -0.0406  0.2834
  552MOL0     H72799   7.454   2.031   4.468  0.1315 -3.6353 -2.4321
  552MOL0     H72800   7.219   1.970   4.422  1.5726  0.6215 -1.3516
  552MOL0     H72801   6.905   1.813   4.708  1.8191  3.9467 -0.1811
  552MOL0     H72802   7.069   1.740   4.709  1.8259  4.6223  0.3800
  552MOL0     H72803   6.927   1.582   4.588 -2.4161  0.3065  0.5354
  552MOL0     H72804   7.030   1.669   4.471  2.7614 -0.6934  2.4831
  552MOL0     H72805   6.840   1.795   4.378  0.0304 -1.4483 -1.7851
  552MOL0     H72806   6.741   1.768   4.532 -1.3344  0.8881 -2.0047
  552MOL0     H72807   6.838   1.557   4.330  0.8377  1.7135 -1.3562
  552MOL0     H72808   6.726   1.535   4.471 -0.0173  0.0231 -0.1005
  552MOL0     H72809   6.588   1.549   4.259 -3.8806  1.6470  0.3832
  552MOL0     H72810   6.674   1.695   4.236  1.5887 -3.1816 -0.3883
  552MOL0     H72811   6.555   1.801   4.417  0.4745  0.5088 -3.1505
  552MOL0     H72812   6.516   1.648   4.502  1.0051  2.2740  0.8120
  552MOL0     H72813   6.407   1.768   4.240 -2.1051 -0.8335 -1.3555
  552MOL0     H72814   6.360   1.612   4.308 -2.1285  1.9573 -0.6225
  552MOL0     H72815   6.339   1.883   4.467 -1.9798  1.9377 -1.5243
  552MOL0     H72816   6.263   1.741   4.513  0.2545  1.6388  2.1617
  552MOL0     H72817   6.249   2.068   4.313  0.3694  0.6634 -0.9034
  552MOL0     H72818   6.018   2.223   4.324  0.6207  1.0023 -0.7593
  552MOL0     H72819   5.881   2.145   4.255  0.4766 -2.0220  0.7756
  552MOL0     H72820   5.957   2.183   4.024 -1.6207  3.2202 -1.8560
  552MOL0     H72821   6.122   2.149   4.072 -0.6369 -0.1874  1.6359
  552MOL0     H72822   6.158   2.388   4.113 -0.5086  0.1624  0.6710
  552MOL0     H72823   6.050   2.397   3.985 -0.7593  1.3853  0.7452
  552MOL0     H72824   5.958   2.549   4.110 -1.0873 -0.2564 -2.7688
  552MOL0     H72825   5.965   2.449   4.254  1.0924  2.6096  0.5406
  552MOL0     H72826   5.776   2.602   4.288  1.3731  2.8576 -1.2532
  552MOL0     H72827   5.556   2.725   4.305  0.3787 -0.3434  1.1001
  552MOL0     H72828   5.359   3.033   4.199  0.6731  1.4308  2.2262
  552MOL0     H72829   5.159   3.196   4.214 -0.6847  0.3975  1.9292
  552MOL0     H72830   4.989   3.308   4.325  3.2414 -3.7288 -0.5534
  552MOL0     H72831   4.925   3.186   4.435  0.1343 -1.7478 -0.2476
  552MOL0     H72832   4.805   3.421   4.339 -1.6396  1.6222  1.9621
  552MOL0     H72833   4.730   3.303   4.440 -1.1220  0.0532 -1.1127
  552MOL0     H72834   4.651   3.182   4.221  0.5927  0.3313 -2.4716
  552MOL0     H72835   4.751   3.306   4.132  1.7157  1.5270  1.2900
  552MOL0     H72836   4.520   3.374   4.316 -1.8867  0.4633 -0.5861
  552MOL0     H72837   4.578   3.471   4.178  0.9813  1.4557  3.6228
  552MOL0     H72838   4.448   3.201   4.153  1.8697  0.2654  2.8637
  552MOL0     H72839   4.505   3.297   4.015  1.7265  2.9502  1.0435
  552MOL0     H72840   4.360   3.486   4.050  3.6468 -0.5201 -0.5793
  552MOL0     H72841   4.304   3.418   4.207 -0.1924  3.2949 -0.2283
  552MOL0     H72842   4.274   3.291   3.939  1.5983  0.3488  0.2353
  552MOL0     H72843   4.206   3.224   4.088  1.4353 -1.5359 -1.7679
  552MOL0     H72844   4.037   3.348   3.954 -0.6480 -0.6440  0.6787
  552MOL0     H72845   4.139   3.493   3.957 -1.1995  0.6770  0.4457
  552MOL0     H72846   4.886   2.892   4.302  1.7604 -0.7015  1.1850
  552MOL0     H72847   5.083   2.721   4.302 -1.2401  0.4211  1.1553
  552MOL0     H72848   5.415   2.494   3.964  0.1457 -4.4059 -0.0142
  552MOL0     H72849   5.613   2.360   3.966 -1.0987 -0.3816 -0.8530
  552MOL0     H72850   7.142   1.905   4.839 -0.0664  1.3818  0.6785
  552MOL0     H72851   7.379   1.939   4.895  2.0398 -1.0332  0.3526
  552MOL0     H72852   7.796   2.112   4.594 -0.9944 -2.2653  0.3200
  552MOL0     H72853   8.021   2.203   4.618  1.4311  0.2962  0.7712
  552MOL0     H72854   8.230   2.166   5.020 -1.9111  1.5269 -1.3376
  552MOL0     H72855   8.340   2.255   4.919  1.1039 -0.6155  0.6623
  552MOL0     H72856   8.397   2.004   4.934 -0.0890  0.1117 -0.4457
  552MOL0     H72857   8.254   1.963   4.864  1.5972 -1.4273 -1.3428
  552MOL0     H72858   8.313   2.044   4.662  0.8697  2.8450 -1.4687
  552MOL0     H72859   8.452   1.956   4.719  0.5129 -0.5175  1.2851
  552MOL0     H72860   8.550   2.158   4.622 -1.4112 -0.3156 -2.1240
  552MOL0     H72861   8.439   2.261   4.714  1.6515  0.8280  2.5365
  552MOL0     H72862   8.764   2.199   4.947  1.1541  0.4824 -2.0072
  552MOL0     H72863   8.054   2.035   5.014  0.9454  0.5049  0.3201
  552MOL0     H72864   7.805   1.936   4.987 -3.3671  0.5425 -0.8912
  553MOL0     O72865   7.303   2.143   6.471  0.5824  0.0339  0.1937
  553MOL0     C72866   7.298   2.077   6.575 -0.6414 -0.2663  0.4906
  553MOL0     O72867   7.189   2.058   6.654  0.7641 -0.2290  0.1030
  553MOL0     C72868   7.082   2.136   6.641 -0.3417 -0.6396  1.4005
  553MOL0     C72869   7.089   2.274   6.601  0.2758  0.4526  0.4499
  553MOL0     C72870   6.980   2.359   6.587  0.2011  0.2572  0.1881
  553MOL0     C72871   6.847   2.304   6.617  0.0183 -1.0722  0.3405
  553MOL0     O72872   6.743   2.401   6.617 -0.2628 -0.4169 -1.2992
  553MOL0     C72873   6.612   2.368   6.566  0.2602  0.3369 -0.0658
  553MOL0     C72874   6.519   2.496   6.574  0.7195 -0.6839 -0.1848
  553MOL0     C72875   6.370   2.489   6.527  0.4940 -0.1797 -0.2481
  553MOL0     C72876   6.277   2.395   6.600 -0.0168  0.1045  0.0253
  553MOL0     C72877   6.123   2.426   6.576  0.7033  0.4123  0.0195
  553MOL0     C72878   6.030   2.346   6.662 -0.4792 -0.8724  0.1923
  553MOL0     C72879   5.880   2.373   6.622 -0.5901  0.2440 -0.0208
  553MOL0     C72880   5.813   2.255   6.676  0.4992 -0.0437 -0.0154
  553MOL0     N72881   5.667   2.278   6.672 -0.1497  0.4877 -0.1119
  553MOL0     C72882   5.603   2.322   6.782  0.0095 -0.0588 -0.1307
  553MOL0     C72883   5.473   2.290   6.751 -0.0982  0.1984 -1.1203
  553MOL0     C72884   5.359   2.336   6.829  0.7477 -0.3068  0.2691
  553MOL0     C72885   5.352   2.282   6.974 -0.5904  0.5012 -0.6290
  553MOL0     C72886   5.292   2.144   7.009  0.4005  0.4849 -0.4729
  553MOL0     C72887   5.145   2.138   7.039 -0.0776  1.0802  0.2982
  553MOL0     O72888   5.069   2.131   6.911 -0.1681  0.8284  0.5917
  553MOL0     C72889   4.941   2.073   6.900 -0.0987 -0.6948  0.1980
  553MOL0     C72890   4.875   2.009   6.999  0.3498  0.1331 -0.5724
  553MOL0     C72891   4.747   1.969   6.982  0.8444  0.1295 -0.4419
  553MOL0     C72892   4.678   1.994   6.860  0.4560  0.4481  0.2725
  553MOL0     C72893   4.532   1.969   6.854 -0.2350 -1.0323 -0.4452
  553MOL0     O72894   4.466   2.048   6.768  0.0892 -0.2574 -0.3511
  553MOL0     C72895   4.329   2.028   6.752 -0.0501 -0.0198 -0.9522
  553MOL0     C72896   4.273   1.976   6.631 -1.0021 -0.7467 -0.0581
  553MOL0     C72897   4.139   1.957   6.615  0.1589 -0.0072  0.4270
  553MOL0     C72898   4.051   1.994   6.708 -0.0497 -0.9952 -0.7484
  553MOL0     O72899   3.918   1.972   6.682  0.1515 -0.2910  0.3826
  553MOL0     C72900   3.805   1.997   6.777 -0.6682 -0.3835  0.4037
  553MOL0     C72901   3.765   1.878   6.864  0.0282 -0.2294  0.4153
  553MOL0     C72902   3.691   1.755   6.818 -0.5128  0.2963  0.7503
  553MOL0     C72903   3.757   1.700   6.690 -0.0838 -0.5470  0.1095
  553MOL0     C72904   3.679   1.601   6.605  0.8258 -0.9046 -0.0723
  553MOL0     C72905   3.658   1.472   6.675  0.3249  0.7184 -0.0064
  553MOL0     C72906   3.586   1.371   6.577  0.7976  0.5593  0.5355
  553MOL0     C72907   3.581   1.226   6.633 -0.3954 -0.1706  0.5457
  553MOL0    Cl72908   3.499   1.213   6.789 -0.1230 -0.0969 -0.0826
  553MOL0     C72909   4.096   2.016   6.836  0.1887 -1.1487  0.0390
  553MOL0     C72910   4.234   2.039   6.859 -0.8149  0.3608  0.3493
  553MOL0     O72911   4.486   1.874   6.918  0.2496 -0.7279  0.0201
  553MOL0     C72912   4.753   2.057   6.752  0.1090 -0.1952 -0.0835
  553MOL0     C72913   4.877   2.109   6.782  0.9645  0.8479  0.1701
  553MOL0     N72914   5.455   2.224   6.632 -0.2734  0.5767  0.0943
  553MOL0     N72915   5.580   2.217   6.584  0.3247 -0.1553 -0.1562
  553MOL0     C72916   6.839   2.177   6.659 -0.0963  1.0749 -0.8793
  553MOL0     C72917   6.956   2.098   6.675 -0.7862  0.0270 -0.7716
  553MOL0     C72918   7.423   2.009   6.610  0.4205  0.2663 -1.2322
  553MOL0     C72919   7.460   1.974   6.739 -0.5600  0.5587 -0.0544
  553MOL0     C72920   7.588   1.922   6.769  0.2855  0.5826 -0.6095
  553MOL0     C72921   7.685   1.898   6.676  1.1077 -0.2987 -0.4338
  553MOL0     O72922   7.808   1.865   6.726 -0.3506 -1.0393  0.1169
  553MOL0     C72923   7.928   1.887   6.647 -0.0024  1.0769 -0.4313
  553MOL0     C72924   8.037   1.925   6.749  0.1746  0.2524 -0.0488
  553MOL0     C72925   8.172   1.924   6.674  0.7131  0.0489  0.1561
  553MOL0     C72926   8.283   1.975   6.758 -0.0875 -0.5409  0.1839
  553MOL0     C72927   8.409   2.000   6.679 -0.7474 -0.1677 -0.4162
  553MOL0     C72928   8.516   2.033   6.632  0.0083 -0.3493  0.2451
  553MOL0     C72929   7.648   1.939   6.544 -0.2369  1.1663  0.5441
  553MOL0     C72930   7.526   1.994   6.510 -0.3277  0.0058  1.2343
  553MOL0     H72931   7.187   2.318   6.588  0.1134  1.2831  1.9171
  553MOL0     H72932   6.988   2.463   6.555 -0.5804  0.4736  0.6521
  553MOL0     H72933   6.569   2.281   6.617 -0.7233 -0.3024 -1.9095
  553MOL0     H72934   6.625   2.346   6.460  3.1616  2.7706 -0.3418
  553MOL0     H72935   6.567   2.571   6.511  0.9318 -3.2250 -3.3255
  553MOL0     H72936   6.519   2.522   6.680  0.5779  2.2940 -0.8284
  553MOL0     H72937   6.386   2.462   6.423  2.3812 -0.6700  0.1350
  553MOL0     H72938   6.336   2.593   6.529  0.3260 -0.2383  1.1402
  553MOL0     H72939   6.298   2.298   6.555 -0.8376 -0.3253  0.5401
  553MOL0     H72940   6.302   2.392   6.706  2.7980 -1.1654 -0.5781
  553MOL0     H72941   6.090   2.414   6.472  1.6797 -0.0880 -0.2407
  553MOL0     H72942   6.092   2.528   6.600 -2.4775 -1.0600  3.1039
  553MOL0     H72943   6.053   2.375   6.764  0.0161 -3.2394  0.8121
  553MOL0     H72944   6.064   2.242   6.657 -0.2259 -0.7338 -2.0385
  553MOL0     H72945   5.846   2.465   6.671 -0.8820  0.3859 -0.4852
  553MOL0     H72946   5.861   2.380   6.515 -0.6181  0.2288 -0.0165
  553MOL0     H72947   5.846   2.227   6.777 -1.0434 -1.3430  0.1657
  553MOL0     H72948   5.834   2.167   6.614 -1.4677 -1.8587  1.6959
  553MOL0     H72949   5.633   2.384   6.866  2.0002 -1.3944  0.2290
  553MOL0     H72950   5.270   2.315   6.767  1.7559  1.0603 -1.7551
  553MOL0     H72951   5.367   2.444   6.838 -1.0711 -0.0923 -0.2691
  553MOL0     H72952   5.309   2.363   7.034  1.6954  1.0846  0.3472
  553MOL0     H72953   5.458   2.263   6.996  0.1035  1.6754 -2.6412
  553MOL0     H72954   5.311   2.085   6.920  1.5455  0.9374 -0.5469
  553MOL0     H72955   5.353   2.115   7.095 -0.7986  1.8686  0.9110
  553MOL0     H72956   5.107   2.220   7.100 -1.2124  1.3242 -0.7020
  553MOL0     H72957   5.124   2.046   7.094 -0.1008 -0.8458 -2.7046
  553MOL0     H72958   4.920   1.969   7.089 -0.2561 -0.3491 -0.4767
  553MOL0     H72959   4.700   1.912   7.061 -1.3402  2.1146 -0.2079
  553MOL0     H72960   4.347   1.953   6.555  1.4752  1.7324  1.4140
  553MOL0     H72961   4.099   1.917   6.522  1.1113 -0.1115  0.0507
  553MOL0     H72962   3.714   2.020   6.721 -0.8059 -2.2395 -0.2010
  553MOL0     H72963   3.820   2.084   6.841  0.1781 -1.4940  1.7711
  553MOL0     H72964   3.707   1.916   6.949 -2.6519  0.7901 -1.7249
  553MOL0     H72965   3.861   1.840   6.900  1.7460  2.1970 -1.3411
  553MOL0     H72966   3.586   1.783   6.804 -1.0963 -1.6318  0.9318
  553MOL0     H72967   3.691   1.679   6.897  0.4437 -2.2152 -1.4705
  553MOL0     H72968   3.775   1.781   6.619  1.4056 -1.5483 -0.7209
  553MOL0     H72969   3.853   1.650   6.706 -0.6504 -2.3104 -1.4963
  553MOL0     H72970   3.744   1.593   6.518  2.1995  2.3713  0.5060
  553MOL0     H72971   3.586   1.651   6.576  1.2733 -0.6870 -1.1743
  553MOL0     H72972   3.595   1.486   6.763 -0.5114  2.3379 -0.8337
  553MOL0     H72973   3.757   1.437   6.706  0.0767 -1.0307 -1.0357
  553MOL0     H72974   3.492   1.417   6.545  1.0073  0.5563 -0.1071
  553MOL0     H72975   3.651   1.356   6.491 -0.3231 -0.3548 -0.1762
  553MOL0     H72976   3.684   1.189   6.636  1.1873  3.6987  0.2807
  553MOL0     H72977   3.542   1.152   6.563  1.9338 -1.7673  0.8159
  553MOL0     H72978   4.037   2.038   6.924 -0.1994  0.2757 -0.5471
  553MOL0     H72979   4.278   2.077   6.951  2.3791 -1.4881 -0.2463
  553MOL0     H72980   4.700   2.083   6.661 -2.6459 -0.6490  1.2670
  553MOL0     H72981   4.936   2.167   6.712  0.6008  1.6251  0.4901
  553MOL0     H72982   6.757   2.136   6.718  0.8150 -0.7754 -0.8117
  553MOL0     H72983   6.955   2.001   6.723  3.7816  0.8201  1.4840
  553MOL0     H72984   7.397   1.989   6.826 -0.0096 -1.8453  0.8415
  553MOL0     H72985   7.611   1.910   6.875  1.4574 -3.7263 -1.1408
  553MOL0     H72986   7.923   1.982   6.594  0.4062  1.1698 -0.3033
  553MOL0     H72987   7.951   1.805   6.579 -0.4017 -0.4394  1.1862
  553MOL0     H72988   8.009   2.022   6.792  0.9226  0.4926 -0.0951
  553MOL0     H72989   8.051   1.864   6.839  2.9679 -0.4887 -0.8972
  553MOL0     H72990   8.161   1.989   6.587  1.0843 -0.8262 -0.5637
  553MOL0     H72991   8.195   1.822   6.641 -2.2969 -0.5600 -0.4305
  553MOL0     H72992   8.267   2.064   6.818  1.5169  0.9831 -1.5211
  553MOL0     H72993   8.316   1.904   6.834 -0.7776  1.6893  2.7041
  553MOL0     H72994   8.610   2.065   6.591 -0.0972 -1.3391 -0.7926
  553MOL0     H72995   7.716   1.939   6.459 -0.5734 -1.9905  0.1646
  553MOL0     H72996   7.514   2.032   6.409  1.1457  1.2303  1.4818
  554MOL0     O72997  11.227   7.944   1.584 -0.2094  0.4943  0.2138
  554MOL0     C72998  11.252   7.870   1.678 -0.0860  0.4177 -0.5725
  554MOL0     O72999  11.152   7.809   1.760  0.3324 -0.7331 -0.1397
  554MOL0     C73000  11.013   7.818   1.744  0.1038  0.6523 -0.0488
  554MOL0     C73001  10.941   7.919   1.670 -1.1071  0.3529  0.6603
  554MOL0     C73002  10.808   7.932   1.664  0.3609  0.9394 -1.2817
  554MOL0     C73003  10.732   7.844   1.737 -0.0866 -0.3044 -0.0799
  554MOL0     O73004  10.599   7.845   1.723 -0.8463  0.2193 -0.2872
  554MOL0     C73005  10.550   7.741   1.633 -0.0692 -0.3117  0.2929
  554MOL0     C73006  10.403   7.717   1.669  0.2778 -0.3852  0.4546
  554MOL0     C73007  10.314   7.667   1.555  0.7232 -0.8040 -0.0732
  554MOL0     C73008  10.333   7.520   1.521  0.3367 -0.4121 -0.5241
  554MOL0     C73009  10.236   7.472   1.415 -0.2260  0.8542 -1.5547
  554MOL0     C73010  10.279   7.335   1.370 -0.4598  0.0623 -0.0409
  554MOL0     C73011  10.187   7.285   1.260  0.0986  0.4558 -0.4286
  554MOL0     C73012  10.225   7.144   1.217 -0.3199  0.7000  0.6652
  554MOL0     N73013  10.198   7.050   1.327  0.4895 -0.1765  0.2682
  554MOL0     C73014  10.076   7.002   1.374  0.2574 -0.6542  0.3604
  554MOL0     C73015  10.113   6.926   1.481 -0.6543 -0.7361 -0.5345
  554MOL0     C73016  10.034   6.843   1.569  0.0848  0.3709  0.7586
  554MOL0     C73017   9.899   6.904   1.606 -0.6113  0.4325  0.9444
  554MOL0     C73018   9.820   6.828   1.720  0.1602  0.0102 -0.1463
  554MOL0     C73019   9.678   6.885   1.720 -0.1122  0.4329  0.4060
  554MOL0     O73020   9.609   6.828   1.835 -0.5287 -0.0110  0.3869
  554MOL0     C73021   9.475   6.836   1.831 -0.4153  0.0266  0.5412
  554MOL0     C73022   9.394   6.736   1.772 -0.8769  0.0544 -0.4572
  554MOL0     C73023   9.254   6.742   1.786  0.2865 -0.0486  0.0277
  554MOL0     C73024   9.188   6.845   1.851 -0.1229 -0.7523  0.2816
  554MOL0     C73025   9.039   6.846   1.874  0.2722  0.2613  1.2183
  554MOL0     O73026   9.000   6.939   1.960 -0.4335 -0.4122 -0.0743
  554MOL0     C73027   8.870   6.951   1.991 -1.3359 -0.4758 -1.1670
  554MOL0     C73028   8.785   6.842   2.027  0.6930 -0.6514  0.9267
  554MOL0     C73029   8.652   6.876   2.066 -0.1724  0.5906  0.1028
  554MOL0     C73030   8.609   7.008   2.087 -0.3755  0.2647  0.3791
  554MOL0     O73031   8.479   7.036   2.125 -0.2506 -0.0801  0.0606
  554MOL0     C73032   8.416   7.170   2.116  0.1348  0.3771  0.4002
  554MOL0     C73033   8.305   7.146   2.211  0.1570 -0.7324 -0.8798
  554MOL0     C73034   8.219   7.272   2.221  0.5044 -0.2179 -1.1428
  554MOL0     C73035   8.156   7.282   2.363  0.5991 -0.2960 -0.5963
  554MOL0     C73036   8.015   7.341   2.380  0.6231 -0.4227  0.4642
  554MOL0     C73037   7.912   7.262   2.308  0.3845  0.4631  0.2173
  554MOL0     C73038   7.771   7.304   2.333 -0.3306 -0.9668 -0.4397
  554MOL0     C73039   7.728   7.285   2.477  0.0178  0.4098 -0.0107
  554MOL0    Cl73040   7.729   7.110   2.511  0.0155 -0.5432 -0.0726
  554MOL0     C73041   8.703   7.112   2.048  0.6110 -0.3692 -0.6777
  554MOL0     C73042   8.831   7.087   2.000  0.2329  0.2214  0.2882
  554MOL0     O73043   8.964   6.781   1.802 -0.1475  0.1849 -0.1703
  554MOL0     C73044   9.265   6.948   1.899  0.3538  0.5170 -0.0547
  554MOL0     C73045   9.411   6.942   1.893 -0.2514  0.6071 -0.7010
  554MOL0     N73046  10.245   6.925   1.513 -0.5101 -0.1314 -0.3890
  554MOL0     N73047  10.289   6.997   1.414  0.0987  0.0812  0.7355
  554MOL0     C73048  10.798   7.752   1.815  0.0429 -0.3336  0.4064
  554MOL0     C73049  10.938   7.734   1.823 -0.5510 -0.2978  0.5629
  554MOL0     C73050  11.397   7.835   1.709 -0.2959  0.3939  0.2766
  554MOL0     C73051  11.508   7.902   1.645  1.3069  0.1442 -0.6076
  554MOL0     C73052  11.637   7.875   1.687 -0.5979 -1.2401 -0.3500
  554MOL0     C73053  11.668   7.783   1.788 -0.0762 -0.5095  0.1678
  554MOL0     O73054  11.806   7.767   1.812 -0.0993  0.5983 -0.1322
  554MOL0     C73055  11.839   7.713   1.938  0.4592  0.6564  0.0550
  554MOL0     C73056  11.985   7.761   1.945  0.8834 -0.2601  0.2794
  554MOL0     C73057  12.081   7.698   1.851 -0.4733 -0.2120  0.4147
  554MOL0     C73058  12.226   7.735   1.878 -0.6212 -0.1970  0.2288
  554MOL0     C73059  12.242   7.883   1.876  0.3032 -0.1596 -1.8580
  554MOL0     C73060  12.241   7.999   1.888  0.1070  0.2116  0.2575
  554MOL0     C73061  11.565   7.714   1.857  0.2423 -0.5188  0.6200
  554MOL0     C73062  11.432   7.744   1.812 -0.2246  0.3829  0.5724
  554MOL0     H73063  10.988   7.996   1.610 -4.0570 -0.1482 -2.6315
  554MOL0     H73064  10.757   7.995   1.592 -0.3595 -0.4983 -2.0789
  554MOL0     H73065  10.603   7.646   1.645 -1.0800 -1.1173 -1.2747
  554MOL0     H73066  10.572   7.771   1.530  1.2423 -0.1397  0.6006
  554MOL0     H73067  10.361   7.811   1.707 -1.2329 -0.4317 -0.9817
  554MOL0     H73068  10.390   7.644   1.750 -1.8326 -1.1474 -0.4870
  554MOL0     H73069  10.328   7.723   1.462 -0.3757 -3.3141 -1.8437
  554MOL0     H73070  10.212   7.681   1.591 -0.1145 -2.0534 -1.8082
  554MOL0     H73071  10.438   7.507   1.493  0.4632  2.3626 -1.6689
  554MOL0     H73072  10.320   7.451   1.605  1.2546  0.3581  0.2717
  554MOL0     H73073  10.231   7.545   1.333 -2.1806  0.2523 -2.0210
  554MOL0     H73074  10.137   7.451   1.457  0.5535 -3.3719 -1.4103
  554MOL0     H73075  10.271   7.267   1.455  1.3292  1.0860  1.0169
  554MOL0     H73076  10.382   7.347   1.337 -0.7095  0.9794 -0.5332
  554MOL0     H73077  10.080   7.289   1.283  0.0279 -1.5629 -0.2616
  554MOL0     H73078  10.191   7.354   1.174 -2.2064  1.7057  0.3896
  554MOL0     H73079  10.329   7.128   1.189 -0.8947 -3.6500  0.2993
  554MOL0     H73080  10.164   7.104   1.135  0.5721 -0.3263  0.4943
  554MOL0     H73081   9.976   7.009   1.333  0.1558 -1.3851  0.4685
  554MOL0     H73082  10.080   6.831   1.667  2.3435 -0.3203 -0.2945
  554MOL0     H73083  10.028   6.743   1.525 -0.5755 -0.3770  2.4821
  554MOL0     H73084   9.849   6.906   1.509 -0.1084  0.9777  0.6958
  554MOL0     H73085   9.905   7.010   1.630 -0.9881  1.2065 -1.9424
  554MOL0     H73086   9.815   6.723   1.692  0.5950  0.0723 -0.4701
  554MOL0     H73087   9.860   6.843   1.821 -1.1016  0.3274  0.3283
  554MOL0     H73088   9.625   6.864   1.626  0.5569  0.3397  0.0461
  554MOL0     H73089   9.685   6.993   1.733  1.2268  0.4272 -0.0824
  554MOL0     H73090   9.441   6.652   1.722 -1.1831  0.4136 -1.3654
  554MOL0     H73091   9.193   6.669   1.734 -0.8268  0.2817  0.8456
  554MOL0     H73092   8.813   6.738   2.026  1.6739 -0.4078  1.5478
  554MOL0     H73093   8.594   6.784   2.073  1.8154 -0.8253 -1.0971
  554MOL0     H73094   8.368   7.197   2.021  2.4938  0.0391 -0.9635
  554MOL0     H73095   8.471   7.258   2.150  2.4829  0.0722 -2.1947
  554MOL0     H73096   8.348   7.137   2.311 -2.3326 -0.1860  0.3368
  554MOL0     H73097   8.244   7.058   2.190 -0.0399 -1.0276  0.7832
  554MOL0     H73098   8.150   7.248   2.140 -0.0847  0.9229 -0.9978
  554MOL0     H73099   8.266   7.367   2.195  1.6630 -1.1683 -2.7356
  554MOL0     H73100   8.135   7.184   2.406 -0.8582 -0.2489 -1.1212
  554MOL0     H73101   8.222   7.340   2.428  2.1461 -1.6940 -0.8686
  554MOL0     H73102   8.018   7.437   2.328 -0.0265 -0.3882  0.4847
  554MOL0     H73103   7.985   7.359   2.483 -1.6361 -0.6256 -0.1076
  554MOL0     H73104   7.924   7.158   2.341 -0.7885 -0.1653 -1.1689
  554MOL0     H73105   7.937   7.275   2.202 -2.4412  1.3588 -0.4281
  554MOL0     H73106   7.758   7.410   2.308  3.1868 -0.2798  0.1615
  554MOL0     H73107   7.697   7.265   2.262 -2.8649  1.4607  0.6721
  554MOL0     H73108   7.634   7.338   2.493 -1.6631 -1.7137 -2.0463
  554MOL0     H73109   7.797   7.323   2.554  1.5151  1.3672 -1.7530
  554MOL0     H73110   8.678   7.215   2.074  0.3457 -1.0088  1.9037
  554MOL0     H73111   8.899   7.167   1.973 -2.8595  2.0969 -2.6040
  554MOL0     H73112   9.217   7.034   1.945 -0.6863  0.0051 -0.1597
  554MOL0     H73113   9.463   7.029   1.933 -1.6397  2.0233 -1.8286
  554MOL0     H73114  10.729   7.691   1.873 -1.2866  2.8972  2.5468
  554MOL0     H73115  10.967   7.651   1.887 -0.4589 -1.7842 -1.3165
  554MOL0     H73116  11.498   7.973   1.563  0.5535 -1.6687 -2.1606
  554MOL0     H73117  11.715   7.935   1.642  0.5134  0.3826  3.3943
  554MOL0     H73118  11.834   7.605   1.954  1.4088  0.7945  1.4988
  554MOL0     H73119  11.771   7.760   2.011 -2.5442 -0.7018 -1.6830
  554MOL0     H73120  11.989   7.868   1.924 -1.4862 -0.3499 -1.0558
  554MOL0     H73121  12.007   7.739   2.050  0.9658  0.0785  0.3330
  554MOL0     H73122  12.047   7.714   1.748 -1.8777 -3.5679  0.2183
  554MOL0     H73123  12.073   7.589   1.864  0.4457 -0.2413  0.7559
  554MOL0     H73124  12.266   7.698   1.973  2.6199  2.1446 -0.0491
  554MOL0     H73125  12.288   7.686   1.802 -0.0049  0.4333  0.3180
  554MOL0     H73126  12.244   8.106   1.884 -3.2565  0.4022 -0.3039
  554MOL0     H73127  11.586   7.652   1.943 -0.5328 -0.3354  0.9445
  554MOL0     H73128  11.352   7.701   1.871 -0.5191  1.0603  0.6706
  555MOL0     O73129   5.609   6.907   8.544 -0.9549 -0.0054 -1.0176
  555MOL0     C73130   5.706   6.895   8.610  0.4103  0.1139 -0.3854
  555MOL0     O73131   5.716   6.832   8.732 -0.2613 -0.9463  0.5242
  555MOL0     C73132   5.598   6.799   8.794 -0.5285 -0.1041 -0.6719
  555MOL0     C73133   5.561   6.878   8.902 -0.1731 -0.0468 -0.1039
  555MOL0     C73134   5.430   6.877   8.957  0.3781  0.4156 -0.5180
  555MOL0     C73135   5.351   6.768   8.923  0.2640 -0.4097 -0.4931
  555MOL0     O73136   5.221   6.740   8.966 -0.1763 -0.7190  0.2666
  555MOL0     C73137   5.154   6.831   9.043 -0.4568 -0.0217  0.2865
  555MOL0     C73138   4.995   6.797   9.037 -0.2788 -0.8831  0.8889
  555MOL0     C73139   4.971   6.643   9.053  1.1190  0.8483 -0.2815
  555MOL0     C73140   4.829   6.612   9.033  0.8251 -0.0322  0.8724
  555MOL0     C73141   4.797   6.474   9.088 -0.0221 -0.3254  0.6834
  555MOL0     C73142   4.644   6.459   9.088  0.0627  0.0754 -0.0017
  555MOL0     C73143   4.609   6.309   9.108 -1.1500 -0.0290 -0.1018
  555MOL0     C73144   4.453   6.301   9.129 -0.1630  0.8674  0.6187
  555MOL0     N73145   4.403   6.181   9.197  0.1041 -0.7886 -0.4718
  555MOL0     C73146   4.315   6.179   9.304 -1.0957  0.2239  0.3333
  555MOL0     C73147   4.307   6.045   9.344  0.0292 -0.0315  0.3113
  555MOL0     C73148   4.238   6.006   9.470 -1.4460 -0.8584  0.3377
  555MOL0     C73149   4.091   6.019   9.465  0.1951 -0.6812 -0.8447
  555MOL0     C73150   4.013   5.911   9.390 -0.2987  0.2958  0.3540
  555MOL0     C73151   3.875   5.900   9.446  0.4591  0.6399 -0.0907
  555MOL0     O73152   3.887   5.865   9.584  0.7481 -0.1266 -0.5115
  555MOL0     C73153   3.771   5.828   9.650  0.0407  0.4093 -0.4435
  555MOL0     C73154   3.782   5.792   9.786 -0.0417  1.5059 -0.3832
  555MOL0     C73155   3.667   5.750   9.860 -0.1803  0.5756  1.2740
  555MOL0     C73156   3.545   5.734   9.799  0.1836  0.6229 -0.3807
  555MOL0     C73157   3.422   5.672   9.863 -0.0665  0.0703 -0.5082
  555MOL0     O73158   3.300   5.676   9.807 -1.0140 -0.4395 -0.5323
  555MOL0     C73159   3.200   5.593   9.847  0.7543  0.5590  0.1746
  555MOL0     C73160   3.075   5.650   9.877 -0.1040  0.0557 -0.0092
  555MOL0     C73161   2.968   5.568   9.921 -0.8814  0.5288  0.0711
  555MOL0     C73162   2.975   5.429   9.941  0.0700 -0.3880  0.0852
  555MOL0     O73163   2.866   5.356   9.981  1.0163  0.6752 -0.4638
  555MOL0     C73164   2.875   5.214   9.978  0.8298  0.2145  0.0066
  555MOL0     C73165   2.754   5.138  10.038  0.2802 -0.0207  0.4282
  555MOL0     C73166   2.737   5.162  10.186  0.9809 -0.7875  0.0664
  555MOL0     C73167   2.594   5.119  10.232 -0.4830  0.0877  0.0177
  555MOL0     C73168   2.582   5.116  10.384 -0.4168  0.4835 -0.3383
  555MOL0     C73169   2.445   5.071  10.423  0.0980  0.1702  0.2545
  555MOL0     C73170   2.422   5.078  10.582  0.7209 -0.5740  0.0003
  555MOL0     C73171   2.270   5.064  10.597  0.7036 -0.2884 -0.2649
  555MOL0    Cl73172   2.212   4.918  10.514 -0.4083  0.2172  0.2506
  555MOL0     C73173   3.098   5.374   9.907 -0.0030  0.0545 -0.5825
  555MOL0     C73174   3.206   5.455   9.871  0.1892 -0.2128  0.6656
  555MOL0     O73175   3.451   5.598   9.963 -0.6421 -0.2446 -0.1803
  555MOL0     C73176   3.534   5.770   9.665 -0.2935 -0.1355  0.5360
  555MOL0     C73177   3.641   5.826   9.593  0.7431  0.1306  0.3155
  555MOL0     N73178   4.387   5.974   9.256 -0.1053  0.1771 -0.3443
  555MOL0     N73179   4.438   6.054   9.174 -0.2360  0.2719  0.0094
  555MOL0     C73180   5.394   6.678   8.825 -0.0048  0.3614  0.4398
  555MOL0     C73181   5.522   6.683   8.762 -0.4675  0.1596  0.4230
  555MOL0     C73182   5.830   6.956   8.553 -0.0514 -0.1177 -0.8769
  555MOL0     C73183   5.940   6.996   8.635  0.0701 -0.4946 -1.0876
  555MOL0     C73184   6.052   7.049   8.585 -0.3695 -0.1086  0.5907
  555MOL0     C73185   6.061   7.081   8.447  0.4350  0.3157  0.2032
  555MOL0     O73186   6.162   7.146   8.385 -0.7740  0.0402  0.2793
  555MOL0     C73187   6.289   7.170   8.467  0.4377  0.4042 -0.5367
  555MOL0     C73188   6.397   7.060   8.468  0.5856  0.3729  0.2105
  555MOL0     C73189   6.535   7.125   8.485 -0.4693  0.4977 -0.5375
  555MOL0     C73190   6.552   7.218   8.611  0.9729 -0.5420  0.4078
  555MOL0     C73191   6.695   7.249   8.633 -0.0494  0.7633  0.8013
  555MOL0     C73192   6.811   7.263   8.656 -0.3621  0.1070 -0.2888
  555MOL0     C73193   5.953   7.044   8.366  0.7593  1.5354  0.9392
  555MOL0     C73194   5.837   6.982   8.415  0.5709  0.2740 -1.0206
  555MOL0     H73195   5.631   6.953   8.939 -1.0326  0.0448  1.4265
  555MOL0     H73196   5.410   6.950   9.035  1.4798 -1.8959  2.0907
  555MOL0     H73197   5.163   6.934   9.008 -1.1968 -0.2372 -0.6005
  555MOL0     H73198   5.195   6.833   9.144 -0.0460  1.5868  0.1227
  555MOL0     H73199   4.961   6.837   8.942 -0.2267  1.5482  1.8395
  555MOL0     H73200   4.937   6.853   9.110 -0.5919  1.4908 -1.0811
  555MOL0     H73201   5.005   6.614   9.153  0.2371  0.6573 -0.0306
  555MOL0     H73202   5.027   6.584   8.979 -1.6714 -0.0758 -1.7934
  555MOL0     H73203   4.767   6.678   9.094  0.0314  0.2625 -0.2173
  555MOL0     H73204   4.795   6.618   8.929 -2.4845 -2.1421  1.6844
  555MOL0     H73205   4.839   6.460   9.188  0.9821 -0.4270  0.2615
  555MOL0     H73206   4.843   6.399   9.022  1.6269  0.1835  1.2004
  555MOL0     H73207   4.595   6.497   8.999  1.2422 -0.5426 -0.9450
  555MOL0     H73208   4.621   6.510   9.182 -0.8756  0.1542 -0.2671
  555MOL0     H73209   4.640   6.238   9.031 -1.2594 -0.9936  0.7209
  555MOL0     H73210   4.648   6.283   9.207 -0.5927  0.7549 -0.1052
  555MOL0     H73211   4.406   6.310   9.031  1.1096  0.6445 -0.0451
  555MOL0     H73212   4.424   6.389   9.187 -0.2149  1.2764 -0.0161
  555MOL0     H73213   4.292   6.263   9.369  1.3046  0.7197  0.6386
  555MOL0     H73214   4.281   6.071   9.547  2.2125 -0.8369 -1.5060
  555MOL0     H73215   4.258   5.903   9.499  0.2192 -0.4106  0.9044
  555MOL0     H73216   4.058   6.117   9.427 -1.0025 -0.0347  1.6756
  555MOL0     H73217   4.055   6.014   9.568  0.8320 -3.7513 -0.6640
  555MOL0     H73218   3.997   5.916   9.282 -1.8076 -1.3248  0.4509
  555MOL0     H73219   4.065   5.817   9.412  1.2308  0.8515 -0.6872
  555MOL0     H73220   3.830   5.817   9.391  0.4362  1.6847 -1.7236
  555MOL0     H73221   3.812   5.988   9.434 -0.8748  0.1401  2.4660
  555MOL0     H73222   3.874   5.810   9.839 -0.0358  1.1117 -0.2599
  555MOL0     H73223   3.683   5.717   9.963  0.9520 -1.9974  0.3614
  555MOL0     H73224   3.049   5.751   9.847  1.5816 -0.0793 -2.1546
  555MOL0     H73225   2.872   5.618   9.936 -0.1746  2.0879 -0.3425
  555MOL0     H73226   2.963   5.175  10.031  0.0816 -3.3852 -1.0873
  555MOL0     H73227   2.876   5.180   9.874  0.5131 -1.1511  0.4189
  555MOL0     H73228   2.757   5.031  10.016  2.5694  0.3030 -1.2851
  555MOL0     H73229   2.672   5.186   9.985 -0.7401 -1.0150  1.0611
  555MOL0     H73230   2.763   5.266  10.208  1.2372 -1.1923  1.8207
  555MOL0     H73231   2.812   5.109  10.246  1.7705 -0.6888 -0.8098
  555MOL0     H73232   2.519   5.190  10.197  0.5571  1.0817 -0.2415
  555MOL0     H73233   2.570   5.021  10.190  0.6642  0.4573 -1.5839
  555MOL0     H73234   2.609   5.210  10.433  1.4482 -0.3458  0.3033
  555MOL0     H73235   2.652   5.045  10.429 -0.2298  1.7737  1.5181
  555MOL0     H73236   2.423   4.968  10.391 -1.4527 -0.5599  3.2256
  555MOL0     H73237   2.372   5.144  10.387  0.5207  1.8741  2.6369
  555MOL0     H73238   2.478   5.000  10.634  2.2979 -0.1680 -1.0090
  555MOL0     H73239   2.449   5.177  10.620 -1.8906 -0.8198  2.8322
  555MOL0     H73240   2.215   5.151  10.559  0.2282  0.0803  1.2043
  555MOL0     H73241   2.253   5.057  10.705  0.9130 -2.1855 -0.3201
  555MOL0     H73242   3.119   5.268   9.913 -2.8311 -0.5536  0.1470
  555MOL0     H73243   3.300   5.406   9.846 -0.5614 -1.2960 -0.1641
  555MOL0     H73244   3.440   5.795   9.616  0.1142  2.1440  0.7781
  555MOL0     H73245   3.617   5.860   9.492  1.7465 -3.6560 -1.3950
  555MOL0     H73246   5.314   6.611   8.793 -1.1722  2.8208 -2.1994
  555MOL0     H73247   5.564   6.614   8.690  1.2415  0.7504  0.8158
  555MOL0     H73248   5.938   6.974   8.742 -0.3261  1.3613 -0.6794
  555MOL0     H73249   6.133   7.066   8.656  1.2323 -1.4441 -0.8322
  555MOL0     H73250   6.259   7.215   8.562 -0.1100  2.2792 -1.5282
  555MOL0     H73251   6.328   7.259   8.417  0.7782  1.4545  1.4907
  555MOL0     H73252   6.382   6.991   8.552 -0.8288  1.9507  1.3358
  555MOL0     H73253   6.377   7.007   8.375 -1.1095 -2.0104  1.8388
  555MOL0     H73254   6.570   7.182   8.399  0.4518  2.3027  0.9650
  555MOL0     H73255   6.604   7.042   8.504  0.9091  1.6473 -0.3328
  555MOL0     H73256   6.500   7.313   8.599 -0.2221 -1.1124  0.9105
  555MOL0     H73257   6.521   7.171   8.705  0.0078 -0.9666 -0.1157
  555MOL0     H73258   6.916   7.265   8.676 -0.6607  1.9631  1.3162
  555MOL0     H73259   5.948   7.066   8.260 -1.1896  1.5520  0.9954
  555MOL0     H73260   5.751   6.959   8.353 -0.4804 -0.5643  0.6566
  556MOL0     O73261   0.919   1.886  10.543 -0.5445  0.2620 -0.9459
  556MOL0     C73262   0.927   1.890  10.416 -0.4944  0.5100  0.0596
  556MOL0     O73263   0.820   1.883  10.329  0.5184 -0.9150  0.4015
  556MOL0     C73264   0.693   1.840  10.377  0.4044 -0.5015  0.4474
  556MOL0     C73265   0.672   1.743  10.465  0.1275  0.1590 -0.1225
  556MOL0     C73266   0.545   1.716  10.512 -0.0799 -0.5056  0.3131
  556MOL0     C73267   0.438   1.779  10.451  0.3107 -0.4342  1.2741
  556MOL0     O73268   0.322   1.718  10.473  0.0790 -0.5018 -0.7452
  556MOL0     C73269   0.207   1.757  10.400  0.0794 -0.7677 -0.2182
  556MOL0     C73270   0.157   1.900  10.438 -0.1554  0.2387 -0.0002
  556MOL0     C73271   0.098   1.993  10.321  1.0193 -0.3697 -0.4607
  556MOL0     C73272   0.001   1.922  10.227  0.1172  0.0827 -0.4362
  556MOL0     C73273  -0.025   1.991  10.095 -0.5722 -0.8411  0.0334
  556MOL0     C73274  -0.100   2.128  10.104 -0.0779  0.0013  0.0666
  556MOL0     C73275  -0.255   2.114  10.132 -0.3280 -0.0063  0.3016
  556MOL0     C73276  -0.328   2.250  10.158 -0.6391  0.1605  0.6912
  556MOL0     N73277  -0.475   2.245  10.167 -0.2108  0.8681 -0.1844
  556MOL0     C73278  -0.535   2.185  10.057  0.3925  0.2378 -0.3690
  556MOL0     C73279  -0.659   2.140  10.099 -0.5989 -0.3294  0.3662
  556MOL0     C73280  -0.756   2.060  10.013  0.3870 -0.0428  0.7900
  556MOL0     C73281  -0.817   1.933  10.092 -0.5466  0.0765 -0.3793
  556MOL0     C73282  -0.921   1.855  10.004 -0.2497 -0.3199 -0.6150
  556MOL0     C73283  -0.864   1.809   9.868 -0.3889 -1.0129 -0.4600
  556MOL0     O73284  -0.898   1.677   9.831 -0.6250 -0.3058 -0.5573
  556MOL0     C73285  -1.022   1.650   9.785  0.5169 -0.1689  0.3188
  556MOL0     C73286  -1.132   1.735   9.780  0.0031  1.0793 -0.8696
  556MOL0     C73287  -1.257   1.696   9.722  0.3717 -0.8073  0.7430
  556MOL0     C73288  -1.269   1.564   9.685 -0.1812 -0.8252  0.9236
  556MOL0     C73289  -1.406   1.514   9.644 -0.3187 -0.3057  0.1229
  556MOL0     O73290  -1.517   1.596   9.646 -0.2757  0.5422  0.6435
  556MOL0     C73291  -1.634   1.564   9.571  0.0457 -0.8441 -0.3025
  556MOL0     C73292  -1.631   1.486   9.453 -0.2121 -0.2620  0.0739
  556MOL0     C73293  -1.749   1.462   9.387 -0.3888  0.1076  0.1276
  556MOL0     C73294  -1.871   1.507   9.426  0.5785 -1.1331 -0.7160
  556MOL0     O73295  -1.982   1.492   9.359 -0.0059 -0.8064 -0.0918
  556MOL0     C73296  -2.039   1.353   9.370 -0.2046 -0.7245  0.0060
  556MOL0     C73297  -2.184   1.340   9.336 -0.3003 -0.0596  0.2083
  556MOL0     C73298  -2.203   1.436   9.219 -0.5259  0.5140 -0.6670
  556MOL0     C73299  -2.338   1.427   9.155  0.7480 -0.1007  0.9357
  556MOL0     C73300  -2.436   1.515   9.234 -0.3192  0.0197  0.4544
  556MOL0     C73301  -2.576   1.500   9.167  0.0887  1.0962  0.1719
  556MOL0     C73302  -2.681   1.588   9.232 -0.1709 -0.2110  0.0117
  556MOL0     C73303  -2.819   1.570   9.168  0.4813  0.4020  0.1599
  556MOL0    Cl73304  -2.900   1.446   9.262 -0.4292  0.0511  0.3211
  556MOL0     C73305  -1.878   1.581   9.543 -0.6135  0.3731  0.5688
  556MOL0     C73306  -1.759   1.608   9.613 -0.0402  0.8259  0.4168
  556MOL0     O73307  -1.412   1.392   9.617  0.1812 -0.1520 -0.0130
  556MOL0     C73308  -1.157   1.475   9.693  0.8783 -0.7199  0.0334
  556MOL0     C73309  -1.037   1.518   9.739  0.9511  0.5408 -0.0515
  556MOL0     N73310  -0.668   2.166  10.232  0.7235 -0.4306 -0.1862
  556MOL0     N73311  -0.564   2.225  10.277  0.7214 -0.1098  0.8365
  556MOL0     C73312   0.452   1.877  10.347  0.4569 -0.7977 -0.6749
  556MOL0     C73313   0.586   1.906  10.316 -0.2884 -0.4026 -0.9334
  556MOL0     C73314   1.059   1.890  10.357 -0.3214 -0.6589  1.1010
  556MOL0     C73315   1.166   1.951  10.421 -0.3377  0.1758  0.5888
  556MOL0     C73316   1.284   1.963  10.352  0.1499 -1.1177  0.5344
  556MOL0     C73317   1.301   1.932  10.218  0.2564 -0.4184  0.3459
  556MOL0     O73318   1.411   1.954  10.128 -0.8650  0.0046  0.1283
  556MOL0     C73319   1.534   2.000  10.194  0.7301  0.2334 -0.6433
  556MOL0     C73320   1.646   1.982  10.094 -0.4141  0.0077  0.1157
  556MOL0     C73321   1.621   2.079   9.972 -0.2131 -0.4081 -0.0169
  556MOL0     C73322   1.702   2.022   9.851 -0.4433 -0.8475  0.0693
  556MOL0     C73323   1.842   2.065   9.862  0.0496  0.2222 -0.4890
  556MOL0     C73324   1.952   2.099   9.893  0.4101  0.0906  0.0174
  556MOL0     C73325   1.195   1.882  10.153  0.4978 -0.0993  0.5721
  556MOL0     C73326   1.073   1.855  10.221  0.6695  0.1909  0.6123
  556MOL0     H73327   0.757   1.690  10.507  0.6418 -0.1945 -1.5404
  556MOL0     H73328   0.517   1.641  10.584 -2.0913  2.0632  2.4415
  556MOL0     H73329   0.132   1.679  10.413 -1.5347  0.9704  1.4294
  556MOL0     H73330   0.236   1.756  10.294  1.4499  1.1308  0.0801
  556MOL0     H73331   0.231   1.963  10.488 -1.1868  3.9740 -2.7486
  556MOL0     H73332   0.076   1.886  10.511 -0.9337  0.8019 -0.7392
  556MOL0     H73333   0.178   2.016  10.250  0.8567  0.0979 -0.4940
  556MOL0     H73334   0.055   2.086  10.359 -1.2221 -0.5874 -2.2667
  556MOL0     H73335   0.044   1.824  10.203 -1.8801 -1.0102  0.1781
  556MOL0     H73336  -0.091   1.909  10.286 -1.1898 -0.5959 -2.5225
  556MOL0     H73337  -0.086   1.932  10.026 -2.3053  0.7552  0.1449
  556MOL0     H73338   0.069   2.005  10.041  0.2943 -0.9256  1.4702
  556MOL0     H73339  -0.089   2.186  10.012  1.8469 -1.0715 -0.4293
  556MOL0     H73340  -0.072   2.185  10.193  0.3876  0.1424 -0.1670
  556MOL0     H73341  -0.308   2.067  10.048 -2.4617  3.5386 -0.5401
  556MOL0     H73342  -0.258   2.066  10.230 -2.1930  1.0241  0.7870
  556MOL0     H73343  -0.313   2.311  10.068 -4.6262 -1.0570 -0.9916
  556MOL0     H73344  -0.298   2.302  10.250 -0.0596  1.1941 -0.0608
  556MOL0     H73345  -0.504   2.184   9.953 -0.1366  2.8768 -0.6337
  556MOL0     H73346  -0.698   2.034   9.925 -2.3904  0.9821 -1.5099
  556MOL0     H73347  -0.830   2.125   9.964  1.0761  0.6676  0.6701
  556MOL0     H73348  -0.849   1.965  10.191  0.6722 -0.3167  0.1608
  556MOL0     H73349  -0.734   1.867  10.119 -0.9916 -1.2527 -2.0403
  556MOL0     H73350  -0.957   1.772  10.065  0.9769  1.1369  2.3251
  556MOL0     H73351  -1.010   1.917   9.989  0.5891  0.5506 -2.2609
  556MOL0     H73352  -0.755   1.816   9.866 -0.5143  1.7854 -1.3520
  556MOL0     H73353  -0.894   1.880   9.790 -0.8013 -1.0921 -0.3761
  556MOL0     H73354  -1.129   1.834   9.822  0.4712  1.0341 -0.7932
  556MOL0     H73355  -1.334   1.772   9.718  2.1222  1.2454  3.1372
  556MOL0     H73356  -1.535   1.462   9.408 -0.3720  0.3019 -0.5896
  556MOL0     H73357  -1.740   1.408   9.293  0.3301 -2.6586  1.6648
  556MOL0     H73358  -2.027   1.314   9.471 -1.2442 -0.0520  0.3978
  556MOL0     H73359  -1.979   1.306   9.291 -1.6662 -0.2643 -1.4343
  556MOL0     H73360  -2.246   1.377   9.419  0.0123 -0.9714  0.8663
  556MOL0     H73361  -2.211   1.234   9.336 -0.4323 -0.0476  1.4358
  556MOL0     H73362  -2.128   1.421   9.141 -0.4485  2.8997 -1.1362
  556MOL0     H73363  -2.191   1.539   9.255  0.4188  0.0856  0.2676
  556MOL0     H73364  -2.327   1.462   9.052  0.0982 -2.6005 -0.0541
  556MOL0     H73365  -2.376   1.325   9.149 -0.8033  0.5367 -1.1771
  556MOL0     H73366  -2.404   1.620   9.239 -3.1080  0.9625  0.3349
  556MOL0     H73367  -2.457   1.478   9.334  2.1962 -4.0241 -0.2967
  556MOL0     H73368  -2.622   1.401   9.159 -0.3951  1.3806 -0.6302
  556MOL0     H73369  -2.569   1.540   9.066 -0.2228  1.0983  0.1502
  556MOL0     H73370  -2.693   1.558   9.336 -1.1506 -0.5609 -0.1918
  556MOL0     H73371  -2.660   1.696   9.231 -3.8249  0.6334  1.5102
  556MOL0     H73372  -2.810   1.555   9.060 -2.3308  1.2793 -0.2752
  556MOL0     H73373  -2.879   1.661   9.182  0.2082  0.7066 -2.4022
  556MOL0     H73374  -1.970   1.631   9.572 -1.6357 -1.0245 -0.1634
  556MOL0     H73375  -1.760   1.660   9.708 -1.9352 -0.4099  1.1292
  556MOL0     H73376  -1.161   1.371   9.662 -0.3330 -0.7898  0.3649
  556MOL0     H73377  -0.947   1.457   9.743 -0.2354 -1.3706 -0.9308
  556MOL0     H73378   0.387   1.939  10.287 -0.0120  0.7372  1.3120
  556MOL0     H73379   0.618   1.992  10.258 -0.2677  0.7221  0.6621
  556MOL0     H73380   1.147   1.988  10.521 -1.3715  2.6362 -0.4377
  556MOL0     H73381   1.366   2.020  10.396  0.6875  0.6090 -2.4236
  556MOL0     H73382   1.559   1.935  10.278  1.4975  1.2606 -0.0607
  556MOL0     H73383   1.529   2.105  10.222  1.9444 -0.3277  2.0395
  556MOL0     H73384   1.746   1.990  10.136  0.0963 -0.7642 -0.9110
  556MOL0     H73385   1.638   1.876  10.066  0.4037 -0.4470  1.4931
  556MOL0     H73386   1.647   2.183   9.995 -1.2086 -0.0734 -0.3518
  556MOL0     H73387   1.518   2.086   9.938 -1.0637  2.9768  2.6987
  556MOL0     H73388   1.700   1.913   9.848 -2.0987 -0.8613 -3.4788
  556MOL0     H73389   1.665   2.065   9.757  2.5842  1.4125 -0.2188
  556MOL0     H73390   2.050   2.129   9.924  0.1669  0.1795  0.7197
  556MOL0     H73391   1.218   1.873  10.048  0.0124 -0.4472  0.4892
  556MOL0     H73392   0.992   1.813  10.162  0.2095  2.8165 -0.7802
  557MOL0     O73393   5.037  10.406   5.969  0.1981  0.3516  0.0024
  557MOL0     C73394   5.042  10.493   6.050 -0.2283  0.2732 -1.0138
  557MOL0     O73395   4.948  10.522   6.150 -0.3886  0.8803 -0.4928
  557MOL0     C73396   4.825  10.464   6.154  0.2120  0.4181 -0.2624
  557MOL0     C73397   4.777  10.431   6.279 -0.4544 -0.2270 -0.0124
  557MOL0     C73398   4.655  10.360   6.291  0.9031 -0.8306 -0.1546
  557MOL0     C73399   4.577  10.325   6.186 -0.5617  0.8993  0.1819
  557MOL0     O73400   4.453  10.258   6.211  0.2340 -0.0929 -0.5610
  557MOL0     C73401   4.388  10.180   6.103  0.8028  0.1494 -0.2205
  557MOL0     C73402   4.469  10.053   6.078 -0.5259  0.3828 -0.0931
  557MOL0     C73403   4.401   9.926   6.132  0.3047  0.6129 -0.3337
  557MOL0     C73404   4.493   9.803   6.140 -0.7712 -0.1953 -0.4520
  557MOL0     C73405   4.424   9.668   6.145 -1.0238 -0.8603  0.2799
  557MOL0     C73406   4.378   9.620   6.284 -0.1581 -0.4618 -0.2579
  557MOL0     C73407   4.313   9.483   6.270  0.5893 -0.0242 -0.4849
  557MOL0     C73408   4.284   9.419   6.410  0.1457 -0.9349 -0.0644
  557MOL0     N73409   4.392   9.427   6.504 -0.1760 -0.2306 -0.0490
  557MOL0     C73410   4.509   9.350   6.501 -0.0004  0.1845 -0.7138
  557MOL0     C73411   4.573   9.382   6.618 -0.2590 -0.0592 -0.2861
  557MOL0     C73412   4.704   9.326   6.679 -0.0865 -0.5457 -0.2796
  557MOL0     C73413   4.709   9.177   6.708 -0.2077 -0.7200 -0.0239
  557MOL0     C73414   4.674   9.089   6.593  0.8009 -0.5706 -0.9918
  557MOL0     C73415   4.716   8.946   6.598 -0.1468 -0.2595 -0.9128
  557MOL0     O73416   4.652   8.891   6.484  0.2665  0.7224  0.0185
  557MOL0     C73417   4.664   8.760   6.469  0.2002 -0.4604  1.3070
  557MOL0     C73418   4.706   8.669   6.575  0.8985  0.2260  0.4213
  557MOL0     C73419   4.722   8.527   6.550  0.1569 -0.5070  0.6021
  557MOL0     C73420   4.676   8.470   6.425 -0.6711 -0.8381 -0.1274
  557MOL0     C73421   4.684   8.322   6.407  0.2912 -0.4117 -0.4372
  557MOL0     O73422   4.626   8.262   6.309  0.5187 -0.1260 -0.0415
  557MOL0     C73423   4.634   8.125   6.308  0.1458 -0.4370  0.7836
  557MOL0     C73424   4.576   8.042   6.405 -0.6458 -0.8711 -0.5677
  557MOL0     C73425   4.561   7.900   6.385 -0.4465  0.7796 -0.6487
  557MOL0     C73426   4.632   7.832   6.285 -0.2333  0.2458 -1.2309
  557MOL0     O73427   4.628   7.695   6.280  0.3159  0.5950 -0.0909
  557MOL0     C73428   4.566   7.642   6.163 -1.3228  0.1000 -1.4969
  557MOL0     C73429   4.418   7.668   6.165  0.6923 -0.2728 -0.9111
  557MOL0     C73430   4.347   7.583   6.272  0.5078 -0.4857 -0.2407
  557MOL0     C73431   4.203   7.617   6.268 -0.3521 -0.0790  0.2001
  557MOL0     C73432   4.122   7.500   6.330 -0.2176 -0.0584  0.3240
  557MOL0     C73433   3.975   7.517   6.298 -0.4006 -0.0785 -0.6590
  557MOL0     C73434   3.914   7.644   6.358 -0.8820  0.5042  0.2716
  557MOL0     C73435   3.762   7.649   6.335 -0.9973  0.6375  0.1653
  557MOL0    Cl73436   3.697   7.780   6.451 -0.0167 -0.5112  0.0611
  557MOL0     C73437   4.692   7.914   6.189  0.2358 -0.5707  0.3329
  557MOL0     C73438   4.694   8.057   6.199  0.2169 -0.7838 -0.4256
  557MOL0     O73439   4.728   8.268   6.504 -0.1231  0.6815  0.2372
  557MOL0     C73440   4.615   8.559   6.330 -0.2233 -0.0480  0.8754
  557MOL0     C73441   4.614   8.698   6.347 -0.2745 -0.6067 -0.1841
  557MOL0     N73442   4.489   9.461   6.694 -0.0163 -0.0451 -0.1364
  557MOL0     N73443   4.382   9.485   6.625 -0.6747 -0.0988  0.6412
  557MOL0     C73444   4.627  10.356   6.052 -0.0967 -0.0056 -0.0224
  557MOL0     C73445   4.753  10.423   6.046  0.1920  0.2009 -0.2960
  557MOL0     C73446   5.164  10.580   6.030  0.0991 -0.4129  0.5644
  557MOL0     C73447   5.236  10.579   5.906  1.1395  1.2327 -0.0778
  557MOL0     C73448   5.363  10.643   5.893 -0.3054  0.2643  0.2252
  557MOL0     C73449   5.396  10.736   5.996 -0.5098 -0.3332  0.5756
  557MOL0     O73450   5.515  10.805   5.964  0.3454 -0.5402  0.0345
  557MOL0     C73451   5.549  10.903   6.063 -0.2452  0.4515  0.1788
  557MOL0     C73452   5.688  10.954   6.028 -0.1518  0.2818 -0.5481
  557MOL0     C73453   5.776  10.926   6.151  0.7997 -0.2974 -1.0287
  557MOL0     C73454   5.901  11.012   6.129 -0.3816  0.8273 -0.0665
  557MOL0     C73455   5.984  11.021   6.250  0.2693 -0.4366  0.4910
  557MOL0     C73456   6.052  11.044   6.348 -0.1760 -0.0321  0.4096
  557MOL0     C73457   5.315  10.755   6.106  1.0020 -0.1313 -0.3601
  557MOL0     C73458   5.205  10.675   6.125 -0.2668 -0.8065 -0.7649
  557MOL0     H73459   4.830  10.454   6.371 -1.5463 -0.8000  0.7791
  557MOL0     H73460   4.610  10.320   6.381 -2.5919  1.4817 -0.7078
  557MOL0     H73461   4.374  10.241   6.013  1.3385 -0.1831 -0.5335
  557MOL0     H73462   4.290  10.138   6.126  0.3061  0.1412 -2.2456
  557MOL0     H73463   4.573  10.042   6.108 -0.3266 -6.0531 -1.6131
  557MOL0     H73464   4.490  10.044   5.971  0.7736  0.0177  0.1703
  557MOL0     H73465   4.313   9.905   6.070  0.3761 -0.7202 -0.0123
  557MOL0     H73466   4.357   9.947   6.230  3.1419 -2.9310  1.9614
  557MOL0     H73467   4.564   9.806   6.057 -0.0306 -1.0492  0.1364
  557MOL0     H73468   4.560   9.814   6.226 -0.3972 -0.4131 -0.7153
  557MOL0     H73469   4.489   9.589   6.106  0.1038  0.7885 -1.3921
  557MOL0     H73470   4.337   9.687   6.081 -0.5605  1.0024  0.1642
  557MOL0     H73471   4.305   9.690   6.325  1.1169 -0.6467  2.6173
  557MOL0     H73472   4.465   9.611   6.351 -1.1633  0.3138  1.2110
  557MOL0     H73473   4.218   9.492   6.217  0.0085 -4.5206 -0.6000
  557MOL0     H73474   4.381   9.420   6.212  4.3743  0.8009  2.6139
  557MOL0     H73475   4.245   9.317   6.414  3.5448 -2.3578  0.1626
  557MOL0     H73476   4.207   9.482   6.457  0.7533 -1.0091  1.0645
  557MOL0     H73477   4.533   9.280   6.421  0.4798 -0.2004 -0.2405
  557MOL0     H73478   4.721   9.382   6.772  2.5240  0.4142 -1.2517
  557MOL0     H73479   4.788   9.359   6.617  0.2597 -1.8690 -0.5352
  557MOL0     H73480   4.648   9.158   6.797 -1.6956  0.5143 -0.7359
  557MOL0     H73481   4.815   9.159   6.731 -0.0111  3.2285  3.2205
  557MOL0     H73482   4.566   9.094   6.574  0.7661  2.0478 -0.5364
  557MOL0     H73483   4.713   9.141   6.505 -0.7144  0.9521 -0.8151
  557MOL0     H73484   4.687   8.906   6.696  1.6618  2.5014  0.9022
  557MOL0     H73485   4.823   8.926   6.583  0.1560  2.1582 -2.4932
  557MOL0     H73486   4.734   8.704   6.673 -0.7051 -0.6988  1.2624
  557MOL0     H73487   4.773   8.464   6.621 -0.9328 -0.1311  1.7527
  557MOL0     H73488   4.513   8.091   6.479 -0.0741 -1.8300  0.5900
  557MOL0     H73489   4.503   7.842   6.456  0.3692 -1.2312 -1.5523
  557MOL0     H73490   4.592   7.537   6.180  1.4089  0.9217 -0.0080
  557MOL0     H73491   4.612   7.680   6.071  2.1596  2.1415  0.8748
  557MOL0     H73492   4.382   7.640   6.065  0.1777 -0.6826 -0.6098
  557MOL0     H73493   4.390   7.772   6.182  0.2641 -0.1702 -2.1102
  557MOL0     H73494   4.394   7.615   6.365 -3.1003  2.2195  0.8729
  557MOL0     H73495   4.360   7.476   6.252 -0.5554 -0.7331  0.3484
  557MOL0     H73496   4.194   7.713   6.318  1.4472  0.9583 -1.3179
  557MOL0     H73497   4.167   7.636   6.166 -1.3315 -1.5916  0.2316
  557MOL0     H73498   4.132   7.495   6.438  3.2392  2.5480  0.3230
  557MOL0     H73499   4.159   7.413   6.275 -0.9905 -1.5906  2.1486
  557MOL0     H73500   3.915   7.438   6.344 -0.1424  0.3404  0.4467
  557MOL0     H73501   3.968   7.529   6.190  1.6103 -0.9660 -0.9324
  557MOL0     H73502   3.937   7.637   6.464  0.1894 -1.7562 -0.0608
  557MOL0     H73503   3.961   7.738   6.326 -1.2841  0.4391 -0.5397
  557MOL0     H73504   3.713   7.556   6.363 -2.6208  0.6544 -2.3404
  557MOL0     H73505   3.749   7.670   6.228  2.2759 -0.1910 -0.5100
  557MOL0     H73506   4.757   7.859   6.120 -1.3181  0.4462 -2.0773
  557MOL0     H73507   4.736   8.125   6.126 -0.4988  0.5822  0.3742
  557MOL0     H73508   4.582   8.528   6.232 -1.1154  0.2994  1.0505
  557MOL0     H73509   4.585   8.759   6.262  0.1901  2.4806  1.6977
  557MOL0     H73510   4.579  10.326   5.959  2.9774 -0.9377 -1.4168
  557MOL0     H73511   4.785  10.456   5.948 -1.2893  2.4071 -0.1177
  557MOL0     H73512   5.193  10.523   5.823 -1.8107 -0.8638  2.6555
  557MOL0     H73513   5.414  10.644   5.798 -2.2004 -0.8053 -0.8638
  557MOL0     H73514   5.545  10.867   6.166  1.8096 -3.2364 -0.8413
  557MOL0     H73515   5.476  10.985   6.057  0.1060  0.6829 -1.7038
  557MOL0     H73516   5.723  10.887   5.949 -1.0642 -2.4940  1.2681
  557MOL0     H73517   5.696  11.060   6.000 -0.1340  0.5027  0.2583
  557MOL0     H73518   5.818  10.825   6.144  3.1727  0.5869 -0.6817
  557MOL0     H73519   5.727  10.947   6.246  3.9537  2.1111  0.2514
  557MOL0     H73520   5.962  10.980   6.044 -0.7340  0.3929 -0.1610
  557MOL0     H73521   5.868  11.104   6.081 -0.8335 -2.0059 -6.0856
  557MOL0     H73522   6.109  11.061   6.437  1.7355  1.9353 -1.0642
  557MOL0     H73523   5.337  10.820   6.191 -3.5733 -2.0765  2.7333
  557MOL0     H73524   5.144  10.686   6.214  2.0032 -1.8666  1.0363
  558MOL0     O73525   9.960   9.728   4.667  0.4297 -0.0710  0.7031
  558MOL0     C73526  10.060   9.702   4.596  0.2005  0.1321 -0.5288
  558MOL0     O73527  10.074   9.725   4.457  0.4937  0.5329  0.2526
  558MOL0     C73528   9.964   9.740   4.374 -0.0137  0.2036  0.6592
  558MOL0     C73529   9.838   9.803   4.418 -0.0654  0.5310 -0.0744
  558MOL0     C73530   9.740   9.840   4.321  0.7674 -0.4411  0.5782
  558MOL0     C73531   9.769   9.819   4.186 -0.1768 -0.8267  0.7726
  558MOL0     O73532   9.677   9.868   4.092 -0.5121 -0.1722  0.6707
  558MOL0     C73533   9.533   9.868   4.121 -0.5663 -0.2384  0.7736
  558MOL0     C73534   9.469   9.940   4.002  0.7266 -0.3699 -0.6597
  558MOL0     C73535   9.327   9.881   3.979  0.2158  0.5982 -0.0564
  558MOL0     C73536   9.237   9.984   3.900 -0.6860  0.8953  0.2499
  558MOL0     C73537   9.096   9.949   3.895  0.2450  0.1123  0.6476
  558MOL0     C73538   9.020  10.064   3.833 -0.4983 -0.1741  0.1196
  558MOL0     C73539   8.873  10.033   3.836 -0.1026 -1.4131 -0.0613
  558MOL0     C73540   8.779  10.148   3.787  0.2162  0.1419 -0.3560
  558MOL0     N73541   8.642  10.113   3.821 -0.3861  0.1231  0.1228
  558MOL0     C73542   8.550  10.071   3.732 -0.0261 -0.8421  0.1633
  558MOL0     C73543   8.428  10.083   3.793  0.3650  0.4288  0.1371
  558MOL0     C73544   8.305  10.055   3.714  0.5336 -0.8372  0.5301
  558MOL0     C73545   8.228  10.186   3.712 -0.2875 -0.3900  0.3797
  558MOL0     C73546   8.140  10.213   3.838  0.0025  0.7205  0.4271
  558MOL0     C73547   8.002  10.155   3.830  0.7135 -0.1064 -0.9097
  558MOL0     O73548   7.932  10.228   3.730  0.2192  0.3658 -0.0721
  558MOL0     C73549   7.808  10.178   3.694  0.8616 -0.0985  0.6232
  558MOL0     C73550   7.691  10.201   3.770 -0.7961  0.4644 -0.4059
  558MOL0     C73551   7.567  10.148   3.746  0.0695  0.5104  0.0528
  558MOL0     C73552   7.535  10.073   3.627 -0.6180  0.1472  0.0510
  558MOL0     C73553   7.411  10.001   3.598 -0.8257 -0.4003  0.0990
  558MOL0     O73554   7.379   9.980   3.466 -0.4884 -0.1117  0.0054
  558MOL0     C73555   7.263   9.905   3.434 -0.2000 -0.5004 -0.1766
  558MOL0     C73556   7.143   9.977   3.416 -0.2235  0.0008 -0.8010
  558MOL0     C73557   7.036   9.907   3.373 -0.4860  1.1936 -0.5038
  558MOL0     C73558   7.030   9.763   3.367 -1.8740  0.2185  0.5774
  558MOL0     O73559   6.912   9.703   3.329 -0.1548  0.4611 -0.1405
  558MOL0     C73560   6.933   9.560   3.302  0.7300 -0.3133  0.1042
  558MOL0     C73561   6.815   9.489   3.240 -0.2275 -0.2705  0.8890
  558MOL0     C73562   6.689   9.487   3.331 -0.0561  0.2646 -0.6763
  558MOL0     C73563   6.564   9.443   3.254 -0.0135 -0.7460 -0.2912
  558MOL0     C73564   6.445   9.494   3.345 -0.2093  0.2554 -0.0160
  558MOL0     C73565   6.317   9.474   3.277  1.0182 -0.2172 -0.2293
  558MOL0     C73566   6.198   9.541   3.356 -0.3702  0.4384  0.1385
  558MOL0     C73567   6.071   9.541   3.275 -0.4469 -0.1061 -0.4883
  558MOL0    Cl73568   5.962   9.413   3.334 -0.2770  0.5256 -0.3974
  558MOL0     C73569   7.146   9.690   3.393  1.0479 -0.0107  1.0233
  558MOL0     C73570   7.262   9.762   3.424  0.5525 -0.7292 -0.4192
  558MOL0     O73571   7.337   9.970   3.691 -0.2465 -0.3111 -0.6220
  558MOL0     C73572   7.653  10.050   3.551  0.5148  0.0038  1.0859
  558MOL0     C73573   7.779  10.101   3.578  0.3668 -0.0419  0.4343
  558MOL0     N73574   8.446  10.148   3.920  0.0741  0.0355  0.2409
  558MOL0     N73575   8.575  10.151   3.935  0.7610 -0.2762  0.4071
  558MOL0     C73576   9.887   9.759   4.142 -0.0629  0.2497 -0.4877
  558MOL0     C73577   9.988   9.735   4.232 -0.6104 -0.1695 -0.1951
  558MOL0     C73578  10.184   9.670   4.666 -1.1698  0.1081 -0.0809
  558MOL0     C73579  10.176   9.606   4.791 -0.0794 -0.2589  0.8150
  558MOL0     C73580  10.284   9.565   4.865  0.8982 -0.0663 -0.0617
  558MOL0     C73581  10.413   9.572   4.816  0.0629  0.7405  0.6453
  558MOL0     O73582  10.505   9.511   4.895 -0.1427 -0.1037  0.5838
  558MOL0     C73583  10.646   9.523   4.863 -0.6622  0.0000 -0.3049
  558MOL0     C73584  10.723   9.408   4.919 -0.1223  0.9371  0.2064
  558MOL0     C73585  10.872   9.430   4.907 -0.2922 -0.4342  0.1493
  558MOL0     C73586  10.916   9.516   5.032  0.0307  0.2099 -0.8343
  558MOL0     C73587  11.062   9.502   5.049 -0.1580  0.0629 -0.9748
  558MOL0     C73588  11.181   9.483   5.080  0.2596  0.0580 -0.0107
  558MOL0     C73589  10.432   9.637   4.691 -0.2832 -0.3915 -0.1536
  558MOL0     C73590  10.322   9.689   4.616  0.0654  0.4473 -0.6734
  558MOL0     H73591   9.819   9.850   4.514 -1.0352  0.2285 -0.1142
  558MOL0     H73592   9.647   9.883   4.357  0.0464  0.2258 -1.8580
  558MOL0     H73593   9.502   9.929   4.207 -0.1343  2.1154 -0.6372
  558MOL0     H73594   9.502   9.764   4.126  0.3244 -0.9354 -3.8825
  558MOL0     H73595   9.528   9.942   3.910  2.7997 -0.5436  0.6001
  558MOL0     H73596   9.462  10.045   4.032  1.3699 -0.4805 -0.1098
  558MOL0     H73597   9.291   9.873   4.082  2.9275  1.1632  1.0470
  558MOL0     H73598   9.322   9.785   3.926 -1.5775  0.5173  0.1984
  558MOL0     H73599   9.238  10.083   3.946  0.0359  0.6163  0.8651
  558MOL0     H73600   9.277   9.993   3.798 -2.3455  0.9538 -0.4153
  558MOL0     H73601   9.063   9.931   3.997 -3.6515  2.1488 -0.0481
  558MOL0     H73602   9.089   9.857   3.834  1.7912  0.6033 -0.3201
  558MOL0     H73603   9.039  10.069   3.726 -2.4695  0.1767 -0.2592
  558MOL0     H73604   9.036  10.161   3.882 -0.9069  1.9387 -3.5389
  558MOL0     H73605   8.851   9.948   3.771  1.3721 -1.6710 -0.2685
  558MOL0     H73606   8.847  10.007   3.939 -2.0000 -0.6270 -0.3086
  558MOL0     H73607   8.784  10.165   3.679  3.4670  0.7889 -0.1985
  558MOL0     H73608   8.809  10.238   3.840  1.1936 -0.5881  0.3655
  558MOL0     H73609   8.557  10.048   3.626  0.9713  2.6111 -0.6501
  558MOL0     H73610   8.249   9.982   3.774 -1.1965 -0.3706 -0.4580
  558MOL0     H73611   8.314  10.020   3.611 -1.6114 -1.0290  0.3618
  558MOL0     H73612   8.153  10.165   3.636 -0.1608  1.1714 -0.2057
  558MOL0     H73613   8.285  10.272   3.677  0.4449 -2.0928 -2.9494
  558MOL0     H73614   8.197  10.179   3.925  1.8786 -0.7255 -1.2537
  558MOL0     H73615   8.130  10.320   3.856 -2.1142  0.8440 -1.0136
  558MOL0     H73616   7.952  10.184   3.923  2.4635  1.2745 -0.3433
  558MOL0     H73617   8.007  10.047   3.809 -1.1475 -0.2751 -0.6594
  558MOL0     H73618   7.697  10.272   3.852  1.2271  0.7814 -0.7781
  558MOL0     H73619   7.485  10.174   3.812  0.0750  1.1516 -0.1777
  558MOL0     H73620   7.132  10.085   3.413 -2.3471 -0.1484 -0.3306
  558MOL0     H73621   6.946   9.962   3.349 -2.4817 -2.8706 -3.6773
  558MOL0     H73622   6.950   9.503   3.393 -2.1384 -0.2751  0.7804
  558MOL0     H73623   7.009   9.557   3.224 -0.2964  2.1372 -1.1112
  558MOL0     H73624   6.848   9.387   3.218  0.1610  0.1779 -0.6952
  558MOL0     H73625   6.801   9.545   3.147 -0.3207 -1.0406  0.4284
  558MOL0     H73626   6.673   9.591   3.361 -1.0325  0.3623 -1.4495
  558MOL0     H73627   6.713   9.429   3.420  3.3298 -1.1655 -2.3288
  558MOL0     H73628   6.552   9.484   3.153  1.1636  1.2491  0.3334
  558MOL0     H73629   6.568   9.333   3.249  1.4302 -0.8077  1.4006
  558MOL0     H73630   6.464   9.599   3.366  0.9844  0.0349  0.0985
  558MOL0     H73631   6.439   9.439   3.440 -0.7717  1.2637  0.5522
  558MOL0     H73632   6.287   9.370   3.261  0.0446  0.1961 -1.2134
  558MOL0     H73633   6.323   9.519   3.177 -1.7194  0.3781 -0.1878
  558MOL0     H73634   6.191   9.477   3.444  0.6669 -0.6372 -0.5249
  558MOL0     H73635   6.221   9.646   3.375 -1.3195  1.3258 -3.0336
  558MOL0     H73636   6.082   9.539   3.166  4.9915 -2.7459 -0.2218
  558MOL0     H73637   6.024   9.639   3.289 -2.3131 -0.8927 -0.8131
  558MOL0     H73638   7.156   9.582   3.400  3.3314 -0.5447 -4.7618
  558MOL0     H73639   7.350   9.701   3.442  1.6433  0.5188 -1.3109
  558MOL0     H73640   7.646   9.988   3.462 -1.2824 -0.4554  1.5060
  558MOL0     H73641   7.859  10.088   3.506  0.7477  0.7205  0.7183
  558MOL0     H73642   9.914   9.754   4.037  1.4063 -0.6410 -0.0932
  558MOL0     H73643  10.088   9.715   4.194 -1.0830  0.8041 -2.0846
  558MOL0     H73644  10.076   9.604   4.833 -0.3442  0.7554  0.2625
  558MOL0     H73645  10.287   9.531   4.968  1.9013  1.0541  0.2936
  558MOL0     H73646  10.679   9.618   4.906 -1.9591  1.4106 -2.2522
  558MOL0     H73647  10.662   9.530   4.755  0.3114 -2.3947 -0.3597
  558MOL0     H73648  10.696   9.398   5.024  1.3644  0.0068  0.5241
  558MOL0     H73649  10.709   9.312   4.867 -2.6513  1.1221  0.4377
  558MOL0     H73650  10.898   9.473   4.810  0.5904 -1.3262 -0.0280
  558MOL0     H73651  10.918   9.330   4.909 -0.0400 -0.3194  2.2009
  558MOL0     H73652  10.899   9.621   5.010  1.3213  0.2012 -1.9753
  558MOL0     H73653  10.870   9.483   5.126  2.3522  0.4196  0.4829
  558MOL0     H73654  11.281   9.469   5.116  1.0027  0.6967 -1.7034
  558MOL0     H73655  10.534   9.645   4.654 -0.3278 -1.2042 -0.4753
  558MOL0     H73656  10.332   9.743   4.523  0.1573 -2.5014 -2.4901
  559MOL0     O73657  10.963   2.865   9.225  0.2920  0.0552 -0.4143
  559MOL0     C73658  11.000   2.760   9.270  0.1766  0.4013 -1.1519
  559MOL0     O73659  10.921   2.660   9.324  0.5161 -0.7198  0.5553
  559MOL0     C73660  10.789   2.659   9.289 -0.0970  0.1570  1.1690
  559MOL0     C73661  10.746   2.633   9.155 -0.9093  1.0191 -0.5134
  559MOL0     C73662  10.607   2.631   9.134 -0.4324  0.2803  0.1263
  559MOL0     C73663  10.515   2.644   9.244  0.1367 -0.0751  0.9685
  559MOL0     O73664  10.377   2.651   9.226  0.3635  0.7001  0.2542
  559MOL0     C73665  10.311   2.600   9.116 -0.4538  0.4608 -0.6243
  559MOL0     C73666  10.169   2.565   9.148 -0.1488  0.7354  0.9622
  559MOL0     C73667  10.087   2.690   9.185  0.0623  0.0389 -0.6071
  559MOL0     C73668   9.950   2.640   9.232 -0.2112 -0.4613 -0.3965
  559MOL0     C73669   9.873   2.740   9.324  0.3776 -0.7016  0.5225
  559MOL0     C73670   9.814   2.863   9.251  0.3990  0.1218  0.4128
  559MOL0     C73671   9.698   2.927   9.315  0.8878 -0.1861 -0.2712
  559MOL0     C73672   9.640   3.036   9.235  0.7839  0.4592  0.9803
  559MOL0     N73673   9.524   3.095   9.296  0.1836  0.3021 -0.6484
  559MOL0     C73674   9.399   3.101   9.240 -0.0864 -0.2429 -0.2852
  559MOL0     C73675   9.312   3.164   9.331 -0.3330  0.3990 -0.2277
  559MOL0     C73676   9.170   3.195   9.290 -0.0860  0.5056 -0.1916
  559MOL0     C73677   9.060   3.098   9.339  0.1014  0.0916  0.6140
  559MOL0     C73678   9.059   3.073   9.487  0.1655  0.2812  0.4653
  559MOL0     C73679   9.020   3.205   9.569 -0.8991 -0.2402  0.1111
  559MOL0     O73680   8.962   3.169   9.707 -0.0804 -0.2775  0.1081
  559MOL0     C73681   8.830   3.123   9.715 -0.1432 -0.0700 -1.2530
  559MOL0     C73682   8.790   3.091   9.842  0.4824  0.5788 -0.0283
  559MOL0     C73683   8.652   3.054   9.876 -1.1184 -0.7443 -0.3369
  559MOL0     C73684   8.552   3.055   9.776 -0.5287  0.3834  0.4322
  559MOL0     C73685   8.411   3.024   9.814 -0.7903  0.4440 -0.1042
  559MOL0     O73686   8.375   3.029   9.946  0.0454  0.9152  0.2735
  559MOL0     C73687   8.245   3.004   9.985 -0.0268 -0.3233  0.2468
  559MOL0     C73688   8.148   2.935   9.921  0.1604 -0.7430  0.1187
  559MOL0     C73689   8.014   2.922   9.967 -0.0485 -0.8760 -0.2849
  559MOL0     C73690   7.979   2.976  10.090 -0.2225  1.1988 -0.4154
  559MOL0     O73691   7.851   2.957  10.141  0.2264 -0.7500 -0.3374
  559MOL0     C73692   7.808   3.002  10.268  0.1678  0.5846  1.5259
  559MOL0     C73693   7.654   2.968  10.279 -0.3130 -0.4656  0.0127
  559MOL0     C73694   7.632   2.828  10.309 -0.0616  0.3682 -0.0858
  559MOL0     C73695   7.476   2.797  10.316 -0.4722 -0.0392 -0.5660
  559MOL0     C73696   7.450   2.645  10.317  0.2261 -0.2202  0.0107
  559MOL0     C73697   7.441   2.584  10.174 -0.8126 -0.1201  0.4587
  559MOL0     C73698   7.368   2.458  10.169  0.2752  0.7296 -0.4350
  559MOL0     C73699   7.234   2.462  10.113  0.9059 -0.3565  0.5837
  559MOL0    Cl73700   7.159   2.297  10.120 -0.4812 -0.3854 -0.1444
  559MOL0     C73701   8.081   3.039  10.163  0.9734 -0.8327  0.6054
  559MOL0     C73702   8.210   3.043  10.120 -0.8526  0.3161  0.5420
  559MOL0     O73703   8.336   3.010   9.720 -0.1017  0.3836  0.5719
  559MOL0     C73704   8.596   3.091   9.646  0.0696  0.0862  0.1600
  559MOL0     C73705   8.735   3.117   9.613 -0.7820 -0.4505 -0.0934
  559MOL0     N73706   9.397   3.204   9.433  0.2393  0.1463 -0.3365
  559MOL0     N73707   9.520   3.169   9.410 -0.9564 -0.5120  0.7286
  559MOL0     C73708  10.560   2.677   9.371 -0.2927  0.2054 -0.2580
  559MOL0     C73709  10.696   2.682   9.396 -0.1965 -0.4143 -0.5553
  559MOL0     C73710  11.145   2.738   9.279 -0.0145  0.8181 -0.6728
  559MOL0     C73711  11.194   2.624   9.353  0.8233 -0.5611  0.1794
  559MOL0     C73712  11.328   2.605   9.381 -0.5503 -0.7768 -0.1440
  559MOL0     C73713  11.418   2.705   9.332  0.5588  0.3013 -0.4694
  559MOL0     O73714  11.547   2.674   9.359 -0.3035  0.4234  0.1263
  559MOL0     C73715  11.640   2.774   9.312 -0.3298 -0.3089 -0.2081
  559MOL0     C73716  11.772   2.719   9.317  0.5934 -0.3800 -0.1471
  559MOL0     C73717  11.854   2.731   9.447  0.1052 -0.2183 -0.5468
  559MOL0     C73718  11.964   2.839   9.425 -0.7629 -0.4012  0.1260
  559MOL0     C73719  12.070   2.801   9.323  0.0571  0.7700 -0.4134
  559MOL0     C73720  12.164   2.789   9.249 -0.0310  0.0318  0.4345
  559MOL0     C73721  11.374   2.816   9.264  0.3591  0.3225  0.2905
  559MOL0     C73722  11.237   2.833   9.234 -0.7590  0.2990  0.8723
  559MOL0     H73723  10.820   2.613   9.078 -1.2146 -0.4524 -0.4527
  559MOL0     H73724  10.578   2.607   9.032 -1.2861  0.3715  0.3380
  559MOL0     H73725  10.370   2.515   9.080 -0.2553 -0.9069  2.5431
  559MOL0     H73726  10.309   2.681   9.044 -1.1145  1.3186  0.3209
  559MOL0     H73727  10.163   2.492   9.229  0.4439 -0.5165 -0.0823
  559MOL0     H73728  10.113   2.525   9.063  0.7753  0.7187  0.3413
  559MOL0     H73729  10.070   2.754   9.098  0.1776 -1.4580 -1.7873
  559MOL0     H73730  10.133   2.739   9.271  0.6748  1.2228 -1.5778
  559MOL0     H73731   9.893   2.611   9.144  0.1643  1.0354 -1.1626
  559MOL0     H73732   9.952   2.556   9.302  1.1981  0.1057  0.3101
  559MOL0     H73733   9.935   2.781   9.404 -0.5636  0.7592  0.5328
  559MOL0     H73734   9.782   2.692   9.362 -0.9874  2.1734  1.1600
  559MOL0     H73735   9.782   2.827   9.153  0.7038  0.2661  0.2577
  559MOL0     H73736   9.890   2.941   9.236 -1.4155  1.4652 -2.9765
  559MOL0     H73737   9.613   2.861   9.335 -1.1190  2.6844  1.5240
  559MOL0     H73738   9.724   2.952   9.419 -1.9475 -1.2970  0.7914
  559MOL0     H73739   9.609   2.987   9.142  1.3543  0.4207  0.8023
  559MOL0     H73740   9.707   3.120   9.213 -1.0534  1.5682 -0.7499
  559MOL0     H73741   9.361   3.066   9.145 -1.0733  3.9161 -1.6347
  559MOL0     H73742   9.164   3.216   9.183 -0.3548  0.1474 -0.2485
  559MOL0     H73743   9.144   3.292   9.333  0.9015 -0.7668  3.5980
  559MOL0     H73744   9.071   3.004   9.285 -0.4984 -0.1581  0.9222
  559MOL0     H73745   8.959   3.132   9.313 -0.5006 -0.1889  2.4711
  559MOL0     H73746   8.985   2.993   9.500  1.2043 -1.2184 -2.0886
  559MOL0     H73747   9.156   3.032   9.517  0.3425  0.5182  0.2153
  559MOL0     H73748   8.949   3.263   9.509 -0.1485  1.2991  0.6650
  559MOL0     H73749   9.114   3.260   9.578  0.0433 -2.0269  2.1032
  559MOL0     H73750   8.861   3.093   9.924  3.6373 -0.6564 -2.5383
  559MOL0     H73751   8.630   3.041   9.982  2.4382 -0.6336  0.5344
  559MOL0     H73752   8.156   2.905   9.817 -2.4745  2.7383 -1.3109
  559MOL0     H73753   7.938   2.881   9.901  0.1040 -1.2571 -0.2253
  559MOL0     H73754   7.828   3.108  10.283  2.8587  0.0546  2.2909
  559MOL0     H73755   7.869   2.952  10.345 -0.7610 -0.5971  1.5227
  559MOL0     H73756   7.602   3.013  10.194  0.4433  0.8050  0.1940
  559MOL0     H73757   7.609   3.012  10.368 -1.2575 -2.2189  0.4356
  559MOL0     H73758   7.673   2.807  10.408 -0.7871  3.4078  0.9731
  559MOL0     H73759   7.676   2.773  10.226  1.8105  1.5008  0.0921
  559MOL0     H73760   7.441   2.832  10.413 -1.4596 -0.6365 -0.6865
  559MOL0     H73761   7.425   2.855  10.238 -2.8601  0.3592  1.1683
  559MOL0     H73762   7.353   2.628  10.363 -0.4065  1.2338 -0.7272
  559MOL0     H73763   7.522   2.596  10.384 -1.0959  1.4931  2.8334
  559MOL0     H73764   7.536   2.591  10.121 -1.6992  3.7943 -0.9527
  559MOL0     H73765   7.386   2.649  10.106  1.2304 -0.3291 -1.4851
  559MOL0     H73766   7.435   2.389  10.118  0.8483 -0.3771  1.6800
  559MOL0     H73767   7.357   2.414  10.269 -2.1394 -1.3558 -1.4922
  559MOL0     H73768   7.240   2.483  10.006 -3.5137  0.9910  0.4093
  559MOL0     H73769   7.169   2.542  10.150 -0.2388 -0.6893 -0.6236
  559MOL0     H73770   8.064   3.103  10.249 -3.5897  0.2234 -0.8113
  559MOL0     H73771   8.292   3.093  10.170  0.4077 -1.2255  0.1069
  559MOL0     H73772   8.518   3.103   9.571 -0.8832 -0.0973  1.0950
  559MOL0     H73773   8.762   3.144   9.512  0.2640 -0.1708  0.2518
  559MOL0     H73774  10.497   2.702   9.455 -0.0021  1.8326 -0.4853
  559MOL0     H73775  10.743   2.699   9.492 -1.0508 -0.8818 -0.0324
  559MOL0     H73776  11.119   2.565   9.406 -0.2688 -1.0016 -1.7716
  559MOL0     H73777  11.360   2.520   9.440  0.3084 -1.5610 -1.6720
  559MOL0     H73778  11.641   2.861   9.379 -1.4822  0.3570 -1.0228
  559MOL0     H73779  11.627   2.809   9.209  2.8820 -1.7223 -1.2340
  559MOL0     H73780  11.759   2.614   9.292 -2.2320 -0.6408  1.9589
  559MOL0     H73781  11.826   2.763   9.232  0.1739 -1.3619 -0.9271
  559MOL0     H73782  11.901   2.634   9.467  2.9898  1.4057  1.2077
  559MOL0     H73783  11.792   2.751   9.535 -0.3772 -1.7645 -0.5141
  559MOL0     H73784  11.909   2.930   9.400  0.5755  1.2216  2.6444
  559MOL0     H73785  12.015   2.860   9.519 -1.4336 -0.8822  0.6109
  559MOL0     H73786  12.238   2.780   9.173 -2.0909 -0.8505 -1.5922
  559MOL0     H73787  11.437   2.901   9.240  0.8609  0.0113  0.5027
  559MOL0     H73788  11.202   2.912   9.168 -2.1062 -0.2553  0.9108
  560MOL0     O73789   7.590  10.016   7.745  0.4175 -0.6711 -0.1108
  560MOL0     C73790   7.573   9.895   7.740  0.9000  0.0803  0.1577
  560MOL0     O73791   7.450   9.831   7.744  0.5392 -0.3699 -0.1264
  560MOL0     C73792   7.341   9.914   7.769 -0.8648 -0.0349 -0.1569
  560MOL0     C73793   7.277   9.940   7.895 -0.8975  0.3133 -1.1147
  560MOL0     C73794   7.162  10.023   7.904  0.3693  0.5438  0.0514
  560MOL0     C73795   7.105  10.083   7.793  0.5623 -0.2606  0.4377
  560MOL0     O73796   6.990  10.158   7.819 -0.5468  0.0805 -0.2842
  560MOL0     C73797   6.899  10.169   7.711 -0.0301 -0.5334  0.3464
  560MOL0     C73798   6.794  10.264   7.755  0.4365  0.0128 -1.2376
  560MOL0     C73799   6.673  10.271   7.666  0.1949 -0.7825 -0.8979
  560MOL0     C73800   6.571  10.388   7.710  0.1696  0.3347  0.6176
  560MOL0     C73801   6.446  10.394   7.626  1.0004 -0.2082  0.0285
  560MOL0     C73802   6.340  10.493   7.674  0.5243 -1.2705 -0.2536
  560MOL0     C73803   6.248  10.540   7.558 -0.3498 -0.0624 -0.5052
  560MOL0     C73804   6.154  10.660   7.576 -0.5222  0.5269 -0.0298
  560MOL0     N73805   6.052  10.661   7.470 -0.0714  0.5691  0.3175
  560MOL0     C73806   5.928  10.604   7.487  0.0487  0.1799 -0.3774
  560MOL0     C73807   5.867  10.637   7.370 -0.0150 -0.0748  0.3311
  560MOL0     C73808   5.717  10.633   7.350 -0.6907 -0.1003 -0.4553
  560MOL0     C73809   5.671  10.488   7.361 -0.0059 -0.2275  1.2958
  560MOL0     C73810   5.722  10.403   7.238  0.5413 -0.8036  0.1181
  560MOL0     C73811   5.655  10.275   7.201  0.5403 -0.6305 -1.2582
  560MOL0     O73812   5.653  10.178   7.309  0.3962  0.3355 -0.1038
  560MOL0     C73813   5.524  10.150   7.351  0.8233 -1.0028  0.5953
  560MOL0     C73814   5.448  10.044   7.289 -0.9297 -0.5719  0.2479
  560MOL0     C73815   5.315  10.026   7.328  0.3431  1.0562 -1.1212
  560MOL0     C73816   5.254  10.096   7.434  0.1780 -0.4814  1.0358
  560MOL0     C73817   5.126  10.056   7.489 -0.1149  0.7932 -0.6550
  560MOL0     O73818   5.050   9.980   7.406  0.1550 -0.2436 -0.7642
  560MOL0     C73819   4.926   9.948   7.449  0.3199 -0.2573  0.7516
  560MOL0     C73820   4.895   9.813   7.477 -0.0703 -0.3711  0.7820
  560MOL0     C73821   4.758   9.774   7.489  0.9704  0.3963 -0.7616
  560MOL0     C73822   4.650   9.865   7.477  0.3465 -0.6010 -0.5665
  560MOL0     O73823   4.513   9.845   7.488  0.2870 -0.1516  0.1835
  560MOL0     C73824   4.478   9.702   7.510 -0.2401 -0.1681  0.0734
  560MOL0     C73825   4.328   9.695   7.487 -0.4125 -0.8216 -0.8077
  560MOL0     C73826   4.271   9.550   7.511 -0.3283  0.1186 -0.4291
  560MOL0     C73827   4.150   9.509   7.423 -0.4087  0.1242 -0.4092
  560MOL0     C73828   4.079   9.387   7.490  0.3527  0.2048  0.9005
  560MOL0     C73829   3.969   9.339   7.394  0.4325  0.5265 -0.1471
  560MOL0     C73830   3.890   9.221   7.463 -0.5386 -0.1237 -0.4151
  560MOL0     C73831   3.786   9.149   7.371 -0.5609 -0.6609  0.8642
  560MOL0    Cl73832   3.710   9.013   7.455  0.2522 -0.2817 -0.6138
  560MOL0     C73833   4.691   9.996   7.462 -0.3493  0.0159  0.2822
  560MOL0     C73834   4.823  10.042   7.445  0.7639  1.1445 -1.1058
  560MOL0     O73835   5.088  10.082   7.603 -0.7477  0.0995 -0.6230
  560MOL0     C73836   5.323  10.207   7.487  0.5769  0.9399 -0.5865
  560MOL0     C73837   5.456  10.231   7.450  0.2620  0.2339  0.1612
  560MOL0     N73838   5.953  10.722   7.295 -0.4037 -0.5088  0.0319
  560MOL0     N73839   6.065  10.742   7.356  0.0406 -0.4273 -0.4780
  560MOL0     C73840   7.161  10.049   7.663  0.8742  0.7129 -0.3741
  560MOL0     C73841   7.272   9.959   7.655  0.4084  0.0190  0.0544
  560MOL0     C73842   7.693   9.805   7.728  0.0271  0.1215 -0.6375
  560MOL0     C73843   7.685   9.668   7.722  0.7653 -0.1749 -0.0467
  560MOL0     C73844   7.792   9.583   7.720  0.1884 -0.3855 -0.0397
  560MOL0     C73845   7.923   9.638   7.706  0.3990  0.4560 -0.0081
  560MOL0     O73846   8.029   9.557   7.711  0.2342  0.3722  0.1665
  560MOL0     C73847   8.135   9.576   7.615  0.2955  0.8695 -0.0017
  560MOL0     C73848   8.274   9.576   7.682  0.5917 -0.0439 -0.2174
  560MOL0     C73849   8.301   9.453   7.764 -0.0257  0.3974 -0.5028
  560MOL0     C73850   8.320   9.333   7.676 -0.1087  0.4708  0.9749
  560MOL0     C73851   8.282   9.211   7.743  0.5513 -0.0198  0.0335
  560MOL0     C73852   8.227   9.110   7.790  0.9493 -0.6609 -1.0249
  560MOL0     C73853   7.938   9.779   7.710  0.6129 -0.1940 -0.2100
  560MOL0     C73854   7.827   9.859   7.725 -0.1381 -0.1285 -0.0019
  560MOL0     H73855   7.322   9.912   7.990  0.2965  3.2657 -0.6949
  560MOL0     H73856   7.108  10.025   7.999 -0.5266 -0.5512 -0.4094
  560MOL0     H73857   6.857  10.069   7.697  0.1275 -0.7304  1.2259
  560MOL0     H73858   6.949  10.201   7.619 -3.4769  0.0459 -1.5082
  560MOL0     H73859   6.835  10.363   7.779  0.0181 -0.5626  2.3820
  560MOL0     H73860   6.760  10.215   7.846 -1.5065  2.7014 -0.3967
  560MOL0     H73861   6.621  10.174   7.665 -0.5061 -0.4241 -0.3084
  560MOL0     H73862   6.707  10.283   7.562  0.0235  0.0752 -0.8608
  560MOL0     H73863   6.532  10.368   7.810 -1.1338  1.9954  0.4952
  560MOL0     H73864   6.616  10.487   7.720 -0.0650  0.3478  1.6994
  560MOL0     H73865   6.400  10.295   7.625  0.3704 -0.0271  2.8544
  560MOL0     H73866   6.477  10.421   7.525 -1.4828  2.0382 -0.2189
  560MOL0     H73867   6.388  10.580   7.720 -0.0775 -1.4623  0.7562
  560MOL0     H73868   6.284  10.462   7.762 -2.0859  3.4937  0.0869
  560MOL0     H73869   6.298  10.560   7.463 -0.6579 -5.0810 -2.0200
  560MOL0     H73870   6.177  10.459   7.538 -1.7086  1.0000 -0.0984
  560MOL0     H73871   6.221  10.747   7.569  1.8227 -1.2117 -0.2404
  560MOL0     H73872   6.111  10.674   7.676  1.8561  0.5217  1.0690
  560MOL0     H73873   5.890  10.544   7.569  1.8373 -2.0801 -1.0729
  560MOL0     H73874   5.687  10.670   7.252 -2.1170 -0.3727 -0.1488
  560MOL0     H73875   5.669  10.702   7.421 -1.5927 -0.2884 -0.8705
  560MOL0     H73876   5.562  10.482   7.358 -0.0202  0.1255  0.8989
  560MOL0     H73877   5.692  10.442   7.458  1.2241  0.5931  1.4370
  560MOL0     H73878   5.724  10.468   7.149 -2.6105 -0.3054  0.2931
  560MOL0     H73879   5.827  10.378   7.259  0.6300 -0.7107 -0.2041
  560MOL0     H73880   5.712  10.234   7.117  1.4481 -0.2388 -0.8459
  560MOL0     H73881   5.556  10.295   7.160  0.6514 -0.0192 -1.2386
  560MOL0     H73882   5.483   9.990   7.202  0.0288  0.1110  0.1934
  560MOL0     H73883   5.267   9.940   7.282 -0.1891  0.4172  0.5215
  560MOL0     H73884   4.969   9.734   7.478  1.8418  1.3173  0.0269
  560MOL0     H73885   4.749   9.667   7.506  0.1731  0.5001 -0.5077
  560MOL0     H73886   4.513   9.657   7.603 -4.0753 -2.9271  0.3932
  560MOL0     H73887   4.529   9.644   7.432  0.6903  1.1291 -0.3264
  560MOL0     H73888   4.291   9.723   7.388 -2.9078  0.3468  0.3659
  560MOL0     H73889   4.280   9.765   7.556 -0.9041 -3.4158  1.6560
  560MOL0     H73890   4.248   9.553   7.617  0.1420 -0.4482 -0.3083
  560MOL0     H73891   4.352   9.477   7.503 -1.2148 -0.8447 -0.7330
  560MOL0     H73892   4.089   9.600   7.427 -0.4420  0.0603  2.2672
  560MOL0     H73893   4.182   9.477   7.323 -0.2696 -2.1422  0.3022
  560MOL0     H73894   4.038   9.406   7.589 -2.1016  1.9779 -0.3382
  560MOL0     H73895   4.136   9.293   7.494 -1.8185 -1.4414 -2.2760
  560MOL0     H73896   4.003   9.301   7.297  0.8358 -0.9782  0.5404
  560MOL0     H73897   3.897   9.419   7.376 -0.0274  0.1166 -0.1520
  560MOL0     H73898   3.962   9.146   7.498  2.7223  2.3599 -1.3056
  560MOL0     H73899   3.845   9.256   7.556 -0.7726 -1.9021  0.1802
  560MOL0     H73900   3.847   9.102   7.293  1.8935  0.8213  1.7797
  560MOL0     H73901   3.709   9.216   7.332  0.6422  0.8821  1.0410
  560MOL0     H73902   4.605  10.063   7.461 -2.2826 -2.3117 -1.1937
  560MOL0     H73903   4.848  10.146   7.428 -0.0976  1.3325 -1.2582
  560MOL0     H73904   5.271  10.254   7.570  0.3955  0.2960 -0.3282
  560MOL0     H73905   5.516  10.306   7.500  0.4068 -1.7480  3.2135
  560MOL0     H73906   7.121  10.076   7.566 -1.0406 -3.4012 -0.9384
  560MOL0     H73907   7.312   9.921   7.560  0.3137  0.5917 -0.2155
  560MOL0     H73908   7.586   9.626   7.741  0.3294  0.5131 -0.7769
  560MOL0     H73909   7.773   9.476   7.722 -1.3343 -0.1299  0.1557
  560MOL0     H73910   8.126   9.672   7.562 -2.6967 -0.2247 -1.7159
  560MOL0     H73911   8.129   9.491   7.547 -0.5333  2.3452 -1.8803
  560MOL0     H73912   8.355   9.577   7.608 -1.6126 -1.1771 -2.7949
  560MOL0     H73913   8.285   9.656   7.756  3.7654 -1.0896  0.6422
  560MOL0     H73914   8.216   9.430   7.829  1.9835 -3.3888  1.0842
  560MOL0     H73915   8.392   9.463   7.824  0.0318  3.3334 -0.9550
  560MOL0     H73916   8.269   9.340   7.580  0.6341  0.8715  0.5963
  560MOL0     H73917   8.426   9.324   7.651  0.2844  0.4827  2.5325
  560MOL0     H73918   8.201   9.020   7.841  2.1103  0.4002  1.6261
  560MOL0     H73919   8.035   9.825   7.693  0.6362 -0.2446 -0.2127
  560MOL0     H73920   7.840   9.964   7.745 -0.5966 -0.2324  0.8607
  561MOL0     O73921   7.049   6.920   6.977 -0.5980 -0.0220  0.1709
  561MOL0     C73922   7.109   6.817   6.989 -0.2153  0.9806 -0.1806
  561MOL0     O73923   7.050   6.696   6.972  0.5251 -0.4773 -0.2236
  561MOL0     C73924   6.910   6.691   6.945 -0.4039 -0.7090  0.3714
  561MOL0     C73925   6.878   6.631   6.827 -0.3115 -0.2881  0.5465
  561MOL0     C73926   6.748   6.621   6.786  0.0857  0.3062  0.5199
  561MOL0     C73927   6.638   6.668   6.861 -0.4511 -0.2176  0.4940
  561MOL0     O73928   6.514   6.646   6.813 -0.0641 -0.5372 -0.0766
  561MOL0     C73929   6.419   6.747   6.845  0.7778 -0.3090 -1.5758
  561MOL0     C73930   6.295   6.696   6.788  0.3352  0.4117 -0.3513
  561MOL0     C73931   6.178   6.790   6.811  0.1944 -0.0706 -0.0817
  561MOL0     C73932   6.179   6.929   6.729 -0.4792 -0.2205 -0.7888
  561MOL0     C73933   6.036   6.982   6.728 -0.1509 -0.3643 -0.5866
  561MOL0     C73934   6.026   7.103   6.636  0.1376 -0.4171 -0.3431
  561MOL0     C73935   5.870   7.151   6.634  0.4726  0.7817 -0.2084
  561MOL0     C73936   5.782   7.068   6.540 -0.5367 -0.4654 -0.3297
  561MOL0     N73937   5.651   7.139   6.545  0.0915  0.5259  0.4681
  561MOL0     C73938   5.574   7.131   6.661 -0.5740  0.2118 -0.5548
  561MOL0     C73939   5.461   7.197   6.633  0.6619 -0.4692  0.5664
  561MOL0     C73940   5.324   7.208   6.717 -0.2197  0.5086  0.2678
  561MOL0     C73941   5.218   7.112   6.666 -0.2400  0.7150 -0.3213
  561MOL0     C73942   5.119   7.166   6.560  0.1222 -0.2147 -0.4903
  561MOL0     C73943   5.000   7.056   6.538  0.4445 -0.6011  0.6765
  561MOL0     O73944   4.902   7.123   6.446  0.6172 -0.4041  0.2205
  561MOL0     C73945   4.788   7.053   6.416 -0.4499 -0.0920 -0.3483
  561MOL0     C73946   4.747   6.932   6.472 -0.1987 -0.6426 -0.2921
  561MOL0     C73947   4.624   6.869   6.442  0.1680 -0.1332  0.2813
  561MOL0     C73948   4.551   6.922   6.334  0.2284  0.0305 -0.0391
  561MOL0     C73949   4.450   6.843   6.272  0.1046  0.1727 -0.3056
  561MOL0     O73950   4.396   6.898   6.170 -0.2643  0.1328  0.6434
  561MOL0     C73951   4.281   6.842   6.118  0.1472 -0.6727  0.0203
  561MOL0     C73952   4.277   6.791   5.988 -0.1610  0.9458  1.0919
  561MOL0     C73953   4.151   6.741   5.932 -1.1468  0.4634 -1.3221
  561MOL0     C73954   4.029   6.746   6.008  0.1692 -0.3584 -0.2257
  561MOL0     O73955   3.909   6.701   5.967 -0.3294 -0.2600  1.5656
  561MOL0     C73956   3.880   6.670   5.828 -0.0083  0.3906  0.3577
  561MOL0     C73957   3.919   6.526   5.795 -0.0331 -0.2245 -0.4202
  561MOL0     C73958   3.836   6.428   5.890 -0.7650  0.2589 -0.2058
  561MOL0     C73959   3.841   6.280   5.841 -0.3102 -0.0387 -0.2775
  561MOL0     C73960   3.791   6.190   5.953  0.0801  0.5392  0.1563
  561MOL0     C73961   3.646   6.202   6.001  0.3767 -0.8488  0.4099
  561MOL0     C73962   3.603   6.103   6.113  0.3438  0.6792  0.1342
  561MOL0     C73963   3.529   5.982   6.081  0.2318 -0.0904  0.7684
  561MOL0    Cl73964   3.381   6.014   5.995 -0.1868 -0.0992  0.0255
  561MOL0     C73965   4.039   6.794   6.138  0.1238 -1.6734 -0.3945
  561MOL0     C73966   4.163   6.838   6.189  0.2965  0.4192 -0.3137
  561MOL0     O73967   4.415   6.731   6.319 -0.3047 -0.5042 -0.3000
  561MOL0     C73968   4.598   7.034   6.274 -0.4011 -0.8324  0.0851
  561MOL0     C73969   4.714   7.101   6.312 -0.6985  0.3424 -0.2107
  561MOL0     N73970   5.472   7.256   6.511  0.0281 -0.5383 -0.0095
  561MOL0     N73971   5.587   7.220   6.451  0.3934 -0.3604 -0.3564
  561MOL0     C73972   6.674   6.718   6.986  0.9300  0.4362  0.6815
  561MOL0     C73973   6.803   6.736   7.030  0.4883  0.0997 -0.2251
  561MOL0     C73974   7.260   6.824   6.986 -0.7837 -0.2432 -0.5743
  561MOL0     C73975   7.346   6.714   6.999 -0.7421 -0.4330 -0.5497
  561MOL0     C73976   7.485   6.726   6.998  0.2403 -0.0163  0.1707
  561MOL0     C73977   7.544   6.851   6.964  0.0303 -0.8858  0.9631
  561MOL0     O73978   7.680   6.868   6.948 -0.5093  0.2214  0.1817
  561MOL0     C73979   7.746   6.998   6.944  0.4306  0.5652 -0.7902
  561MOL0     C73980   7.895   6.988   6.949 -0.3283  0.4066  0.0346
  561MOL0     C73981   7.982   7.101   6.890  0.1613  0.5840  0.0571
  561MOL0     C73982   7.954   7.233   6.945 -0.5832  0.2342 -0.4170
  561MOL0     C73983   8.026   7.330   6.860 -0.2179 -0.2986  0.0511
  561MOL0     C73984   8.072   7.411   6.785  0.6683  0.3609  0.6543
  561MOL0     C73985   7.455   6.962   6.948  0.1412 -1.0264  0.0934
  561MOL0     C73986   7.321   6.948   6.967  0.2557 -0.0546  0.8953
  561MOL0     H73987   6.954   6.595   6.758  1.3371  2.1614  0.9429
  561MOL0     H73988   6.721   6.579   6.689 -1.6099  0.9214  0.6851
  561MOL0     H73989   6.444   6.840   6.792 -0.7781  1.3572  0.4465
  561MOL0     H73990   6.403   6.766   6.951  1.3615 -1.4239 -1.2691
  561MOL0     H73991   6.264   6.600   6.830  0.0006  0.1132 -1.2619
  561MOL0     H73992   6.298   6.676   6.681 -1.6474 -1.1546 -0.1745
  561MOL0     H73993   6.184   6.830   6.913 -1.9896 -1.7247  0.7878
  561MOL0     H73994   6.086   6.733   6.794  0.4144 -1.4952  2.8056
  561MOL0     H73995   6.237   7.002   6.787 -1.2687 -2.2295  2.7763
  561MOL0     H73996   6.229   6.906   6.634 -0.4529 -2.3853 -0.2872
  561MOL0     H73997   5.999   7.005   6.828 -2.5145 -2.8754 -0.7729
  561MOL0     H73998   5.962   6.911   6.690 -3.8249  1.9892  1.5761
  561MOL0     H73999   6.054   7.076   6.534  0.1036 -3.3422  0.3332
  561MOL0     H74000   6.088   7.187   6.668  1.1626 -1.6176  0.9672
  561MOL0     H74001   5.828   7.141   6.735 -0.6136 -0.2549 -0.7465
  561MOL0     H74002   5.875   7.253   6.594  1.1715  0.0053 -2.2329
  561MOL0     H74003   5.767   6.965   6.573 -1.5503 -0.8764 -1.9521
  561MOL0     H74004   5.817   7.078   6.436 -0.1846  4.4176  0.0176
  561MOL0     H74005   5.600   7.080   6.754 -1.7886 -0.3078 -0.4848
  561MOL0     H74006   5.293   7.313   6.710 -0.2875  0.4543 -0.2555
  561MOL0     H74007   5.354   7.177   6.818  1.1770 -2.6834 -0.9897
  561MOL0     H74008   5.166   7.085   6.758 -1.2864 -0.6365 -1.2829
  561MOL0     H74009   5.267   7.021   6.631  0.8578  0.7249  1.0984
  561MOL0     H74010   5.069   7.259   6.588  0.1334  0.2866 -2.0599
  561MOL0     H74011   5.178   7.177   6.469  0.6532 -0.2391 -0.1582
  561MOL0     H74012   4.955   7.033   6.635 -0.1197  4.0539  1.7567
  561MOL0     H74013   5.029   6.958   6.501 -4.0941 -2.2624  0.9083
  561MOL0     H74014   4.803   6.884   6.551 -0.0195 -2.5200 -1.4938
  561MOL0     H74015   4.606   6.770   6.483 -2.3116  0.5984  1.1909
  561MOL0     H74016   4.371   6.788   5.933 -1.3987  0.8941 -1.1151
  561MOL0     H74017   4.163   6.707   5.830  0.1664  0.8144 -1.3036
  561MOL0     H74018   3.929   6.736   5.756 -0.2184 -2.9250 -3.1682
  561MOL0     H74019   3.771   6.677   5.815 -0.6728 -4.0866  1.5820
  561MOL0     H74020   4.023   6.513   5.824 -0.2698  1.8519  1.7384
  561MOL0     H74021   3.904   6.496   5.691  1.3100 -2.2542 -0.0745
  561MOL0     H74022   3.730   6.452   5.879 -0.5636  0.2703 -2.7244
  561MOL0     H74023   3.888   6.437   5.986  1.0951  3.1497 -1.3635
  561MOL0     H74024   3.774   6.265   5.756 -0.2233 -0.0923 -0.3376
  561MOL0     H74025   3.944   6.252   5.814 -0.1514 -1.3295  1.4668
  561MOL0     H74026   3.854   6.200   6.042  0.6670  0.3957 -0.2391
  561MOL0     H74027   3.804   6.086   5.922 -2.9735  0.2182 -0.4328
  561MOL0     H74028   3.590   6.179   5.910  3.4847 -2.5759 -1.2602
  561MOL0     H74029   3.634   6.300   6.048 -0.1339 -0.4896 -0.4646
  561MOL0     H74030   3.691   6.071   6.170  2.9685  1.2498 -3.2694
  561MOL0     H74031   3.537   6.159   6.180 -0.2412  1.3221 -0.9496
  561MOL0     H74032   3.504   5.922   6.168  0.5898  0.4265  1.2334
  561MOL0     H74033   3.596   5.929   6.012 -1.7170 -0.0044 -1.3075
  561MOL0     H74034   3.952   6.810   6.201 -1.6675  2.5335 -3.4406
  561MOL0     H74035   4.163   6.884   6.287 -0.2461  0.4383 -0.3219
  561MOL0     H74036   4.550   7.065   6.181  0.9056  1.8115  0.2256
  561MOL0     H74037   4.748   7.182   6.248 -1.2199  0.1108 -0.7899
  561MOL0     H74038   6.592   6.760   7.044  2.2068 -0.2208  3.1054
  561MOL0     H74039   6.827   6.777   7.128 -0.6931  0.4007 -0.0432
  561MOL0     H74040   7.296   6.620   7.016 -0.4752 -0.1544  2.1454
  561MOL0     H74041   7.548   6.640   7.020 -0.9392 -0.6205  1.3803
  561MOL0     H74042   7.707   7.065   7.021 -2.0738 -0.9371 -0.6459
  561MOL0     H74043   7.720   7.041   6.846 -0.3013  4.2711  0.8218
  561MOL0     H74044   7.924   6.971   7.053  2.1693 -1.2439 -0.8417
  561MOL0     H74045   7.928   6.903   6.889  2.8487  2.2234 -1.0131
  561MOL0     H74046   7.969   7.097   6.782  2.2710 -2.2676 -0.2190
  561MOL0     H74047   8.087   7.076   6.909  0.4900  2.4905  0.9889
  561MOL0     H74048   7.844   7.236   6.941 -0.6482  0.2645  1.0674
  561MOL0     H74049   7.993   7.224   7.046 -2.9264 -0.5603  0.4944
  561MOL0     H74050   8.112   7.460   6.699 -0.0152 -0.1113  0.0558
  561MOL0     H74051   7.493   7.057   6.912 -0.4928 -0.4184  0.9978
  561MOL0     H74052   7.268   7.042   6.957  0.2968 -0.1340 -0.2736
  562MOL0     O74053   0.200   3.185   9.450 -0.4066 -0.9136 -0.4103
  562MOL0     C74054   0.269   3.240   9.361 -0.7969  0.7468 -0.3010
  562MOL0     O74055   0.236   3.293   9.241  0.0970  0.1410  0.6362
  562MOL0     C74056   0.104   3.317   9.221 -0.1856  0.2792  0.4507
  562MOL0     C74057   0.001   3.229   9.246  0.2566 -0.2491 -0.0120
  562MOL0     C74058  -0.133   3.259   9.198 -0.5583 -0.7561 -0.5953
  562MOL0     C74059  -0.162   3.371   9.125  0.3353 -0.5575 -0.5875
  562MOL0     O74060  -0.293   3.382   9.095 -0.8115  0.5788  1.0516
  562MOL0     C74061  -0.317   3.483   9.002  0.2624  0.1264  0.8506
  562MOL0     C74062  -0.441   3.474   8.918  0.5225 -0.1480 -0.2686
  562MOL0     C74063  -0.568   3.513   8.995  0.0544  0.0725  0.1941
  562MOL0     C74064  -0.681   3.434   8.932 -0.0180 -0.0009 -0.7326
  562MOL0     C74065  -0.817   3.471   8.993  0.3571  0.2662 -0.2843
  562MOL0     C74066  -0.929   3.402   8.922 -1.3240 -0.1093  0.1898
  562MOL0     C74067  -1.067   3.453   8.951 -0.4688  0.2264 -0.6554
  562MOL0     C74068  -1.129   3.419   9.091 -0.0222 -0.9019 -0.3688
  562MOL0     N74069  -1.275   3.454   9.072 -1.6407  0.3705  0.4854
  562MOL0     C74070  -1.381   3.370   9.089 -1.4633  0.5302  0.1091
  562MOL0     C74071  -1.491   3.440   9.080  0.1387 -0.7503 -0.0119
  562MOL0     C74072  -1.624   3.387   9.084  0.0337  0.7281  0.9454
  562MOL0     C74073  -1.722   3.494   9.043  0.5863  0.6593  0.4250
  562MOL0     C74074  -1.863   3.446   9.061 -1.0571  0.5452 -0.0688
  562MOL0     C74075  -1.960   3.534   8.988 -0.4063  0.2668  0.2599
  562MOL0     O74076  -2.089   3.468   8.977  0.0615 -0.8329  0.1633
  562MOL0     C74077  -2.181   3.489   9.083 -0.4676 -0.0410 -0.9524
  562MOL0     C74078  -2.158   3.552   9.210  0.0113 -0.7932 -0.5896
  562MOL0     C74079  -2.250   3.543   9.314 -0.2204 -0.0052  1.0681
  562MOL0     C74080  -2.371   3.473   9.299  0.6410  0.1569 -0.5168
  562MOL0     C74081  -2.474   3.487   9.403 -0.2895 -0.2290  0.7751
  562MOL0     O74082  -2.426   3.530   9.531 -0.2879  0.7305 -0.4427
  562MOL0     C74083  -2.523   3.518   9.629 -0.1232 -0.0986 -0.7382
  562MOL0     C74084  -2.629   3.608   9.634  0.0712 -0.3063 -0.6162
  562MOL0     C74085  -2.722   3.605   9.744 -0.2897  0.2304 -0.1304
  562MOL0     C74086  -2.707   3.520   9.856 -0.0699 -0.4784  0.4991
  562MOL0     O74087  -2.791   3.526   9.960 -0.0801 -0.0640 -0.7931
  562MOL0     C74088  -2.794   3.412  10.040 -0.0982 -0.0601 -0.6635
  562MOL0     C74089  -2.927   3.428  10.129 -0.6944  0.5976 -0.3516
  562MOL0     C74090  -3.051   3.422  10.050 -0.1760  0.1200  0.4674
  562MOL0     C74091  -3.175   3.415  10.130  1.0794 -0.3001  0.2513
  562MOL0     C74092  -3.285   3.360  10.030  0.0773 -0.0313  0.4806
  562MOL0     C74093  -3.427   3.378  10.089 -0.3169 -0.9567  0.2182
  562MOL0     C74094  -3.537   3.321   9.998 -0.5163 -0.1406 -0.6139
  562MOL0     C74095  -3.539   3.371   9.848 -0.8008  0.0458  0.2351
  562MOL0    Cl74096  -3.695   3.311   9.773 -0.2058  0.0460  0.0829
  562MOL0     C74097  -2.594   3.430   9.853 -0.4908 -0.0665  0.3951
  562MOL0     C74098  -2.503   3.434   9.743  0.5428  0.0799  0.9683
  562MOL0     O74099  -2.591   3.467   9.367 -0.4087  0.3642  0.0192
  562MOL0     C74100  -2.397   3.410   9.175  0.1490  0.1149  1.1433
  562MOL0     C74101  -2.298   3.418   9.075 -0.4981 -0.4320 -0.2614
  562MOL0     N74102  -1.449   3.577   9.058  0.0472  0.1573 -0.1703
  562MOL0     N74103  -1.320   3.582   9.045  0.2345  0.1630 -0.3174
  562MOL0     C74104  -0.048   3.455   9.092  0.3145  0.3651  0.0078
  562MOL0     C74105   0.083   3.424   9.137  0.4173 -0.0621  0.1512
  562MOL0     C74106   0.414   3.244   9.388  0.5408  0.1498  0.0363
  562MOL0     C74107   0.499   3.317   9.309 -0.1474 -0.4356  0.0946
  562MOL0     C74108   0.635   3.335   9.337 -0.2874  0.5590  0.0189
  562MOL0     C74109   0.687   3.259   9.445  0.4568  0.8260 -0.3396
  562MOL0     O74110   0.822   3.267   9.463 -0.2349 -0.5704 -0.7016
  562MOL0     C74111   0.892   3.196   9.563  0.5882 -0.4040 -0.4926
  562MOL0     C74112   0.997   3.110   9.492  0.1740 -0.1605 -0.4077
  562MOL0     C74113   1.121   3.198   9.461  0.9705  0.1950 -0.2041
  562MOL0     C74114   1.222   3.113   9.381  0.0644  0.2796 -0.1975
  562MOL0     C74115   1.349   3.181   9.354  1.0437 -1.0105  0.4068
  562MOL0     C74116   1.444   3.257   9.342 -0.4503  0.6424  0.7519
  562MOL0     C74117   0.598   3.194   9.527  0.6508  0.3057 -0.7465
  562MOL0     C74118   0.464   3.178   9.501  0.3494  0.3264 -0.1370
  562MOL0     H74119   0.020   3.137   9.301 -3.4879 -1.0227  0.2479
  562MOL0     H74120  -0.212   3.190   9.227  1.6428 -2.8856  0.7793
  562MOL0     H74121  -0.238   3.488   8.926 -1.1886 -0.0010 -0.7266
  562MOL0     H74122  -0.334   3.576   9.057 -0.6223  0.8751 -0.6158
  562MOL0     H74123  -0.454   3.372   8.882  0.0480  0.5148 -2.0463
  562MOL0     H74124  -0.433   3.540   8.831  1.6288 -0.7144 -0.6163
  562MOL0     H74125  -0.595   3.619   8.984 -1.5865 -0.2033  1.1790
  562MOL0     H74126  -0.557   3.493   9.102  1.2132 -0.3889  0.0063
  562MOL0     H74127  -0.666   3.453   8.826  2.9364  1.8840 -0.0825
  562MOL0     H74128  -0.655   3.327   8.939  0.5990  0.2183  0.7215
  562MOL0     H74129  -0.832   3.579   8.980  1.7296  0.5222  0.0377
  562MOL0     H74130  -0.822   3.441   9.097 -1.0561  1.4113  0.0072
  562MOL0     H74131  -0.927   3.298   8.956 -0.7440 -0.7966 -1.7844
  562MOL0     H74132  -0.911   3.405   8.814 -0.2176  0.9872  0.3762
  562MOL0     H74133  -1.072   3.562   8.941 -1.1705  0.3434  0.7152
  562MOL0     H74134  -1.127   3.401   8.876  0.3604  1.2338 -2.0721
  562MOL0     H74135  -1.084   3.477   9.172  0.0521 -0.2872 -0.8449
  562MOL0     H74136  -1.111   3.311   9.098 -0.4889 -0.8646  3.2255
  562MOL0     H74137  -1.381   3.263   9.103 -0.4259  0.5601  0.3929
  562MOL0     H74138  -1.641   3.344   9.183 -0.4049 -0.7191  0.2849
  562MOL0     H74139  -1.637   3.300   9.019  1.3274  0.2983  1.2319
  562MOL0     H74140  -1.699   3.520   8.940  1.1911 -0.4890  0.2598
  562MOL0     H74141  -1.707   3.583   9.105  2.8611 -0.0811  1.0663
  562MOL0     H74142  -1.869   3.346   9.018  0.8525 -0.1845  1.2619
  562MOL0     H74143  -1.890   3.433   9.166 -0.5619  0.0687 -0.0012
  562MOL0     H74144  -1.925   3.542   8.884 -3.1223  0.4239 -0.7055
  562MOL0     H74145  -1.968   3.628   9.043 -3.0596 -2.2616  4.8512
  562MOL0     H74146  -2.067   3.603   9.240 -0.5482 -0.4502  0.6320
  562MOL0     H74147  -2.230   3.590   9.410 -1.1298 -2.7904  2.7285
  562MOL0     H74148  -2.648   3.685   9.560  0.3563  0.0163 -0.3618
  562MOL0     H74149  -2.811   3.667   9.738 -0.5038 -0.2319 -3.1419
  562MOL0     H74150  -2.722   3.404  10.123 -2.0036 -1.5580  0.9646
  562MOL0     H74151  -2.792   3.318   9.984 -1.4444 -0.0422 -0.7772
  562MOL0     H74152  -2.919   3.524  10.181  3.3351  0.7370 -0.8992
  562MOL0     H74153  -2.938   3.348  10.203  0.8562  0.9300  0.2800
  562MOL0     H74154  -3.039   3.338   9.980 -0.0527 -0.3950  1.1002
  562MOL0     H74155  -3.050   3.520  10.000  2.9497 -0.1566 -0.1687
  562MOL0     H74156  -3.163   3.352  10.218 -0.4860 -0.6722  0.2259
  562MOL0     H74157  -3.201   3.516  10.163  2.4555 -0.6843  2.7381
  562MOL0     H74158  -3.266   3.253  10.015  0.2249  0.0962 -0.2862
  562MOL0     H74159  -3.288   3.419   9.938 -2.7396 -0.9567 -0.0929
  562MOL0     H74160  -3.445   3.485  10.104  2.1152 -0.5997  1.0357
  562MOL0     H74161  -3.426   3.332  10.189  0.2068 -1.1770  0.1145
  562MOL0     H74162  -3.519   3.213   9.993 -1.3579 -0.2428 -1.7667
  562MOL0     H74163  -3.632   3.337  10.048  0.5886  0.6925  1.3174
  562MOL0     H74164  -3.455   3.336   9.787 -0.5943 -1.4326  1.3179
  562MOL0     H74165  -3.544   3.480   9.852 -4.5326  0.1132 -1.7099
  562MOL0     H74166  -2.568   3.378   9.945 -0.2985  0.6732  0.7696
  562MOL0     H74167  -2.415   3.373   9.756  3.3609  3.2865 -1.3727
  562MOL0     H74168  -2.492   3.363   9.156 -0.2913  1.8565 -1.7694
  562MOL0     H74169  -2.312   3.376   8.976 -1.9101 -0.5032 -0.0506
  562MOL0     H74170  -0.066   3.548   9.039  0.5192  1.6614  2.1056
  562MOL0     H74171   0.170   3.471   9.092 -1.2736  0.3024 -3.0344
  562MOL0     H74172   0.463   3.369   9.221 -3.3987 -1.4847  0.6725
  562MOL0     H74173   0.693   3.399   9.271  0.0127 -0.1298 -0.3992
  562MOL0     H74174   0.832   3.135   9.630  2.9216 -1.2830  0.8956
  562MOL0     H74175   0.933   3.267   9.635 -0.6962  1.1809 -1.2585
  562MOL0     H74176   1.011   3.023   9.557 -4.6590 -1.0129 -0.1362
  562MOL0     H74177   0.954   3.073   9.398 -0.7167  1.0081 -0.4925
  562MOL0     H74178   1.166   3.244   9.550 -0.0302 -0.0196  0.4406
  562MOL0     H74179   1.100   3.282   9.394  0.6742  0.8642  0.7026
  562MOL0     H74180   1.254   3.024   9.437  1.0595  0.1348 -0.9535
  562MOL0     H74181   1.171   3.087   9.288  0.2015 -0.1280 -0.1606
  562MOL0     H74182   1.522   3.328   9.327  0.3291  0.9662  5.0597
  562MOL0     H74183   0.634   3.165   9.625 -2.1681  0.3210  0.4015
  562MOL0     H74184   0.413   3.122   9.578 -2.1108  2.8174  0.2225
  563MOL0     O74185   6.267   7.623   9.877  0.2990 -0.1312  0.5235
  563MOL0     C74186   6.347   7.529   9.887  0.3804  0.0646 -0.3531
  563MOL0     O74187   6.317   7.412   9.939  0.1034 -0.0646 -0.2637
  563MOL0     C74188   6.185   7.384   9.964 -0.2661  1.2600 -0.3928
  563MOL0     C74189   6.145   7.377  10.098  0.3534  0.0039 -0.6593
  563MOL0     C74190   6.006   7.367  10.124 -0.4497  0.2764  0.3342
  563MOL0     C74191   5.919   7.339  10.017  0.0717  0.2214 -0.1237
  563MOL0     O74192   5.787   7.304  10.066 -0.0125 -0.0255  0.1222
  563MOL0     C74193   5.689   7.277   9.972 -0.3832  0.1875  0.2555
  563MOL0     C74194   5.696   7.134   9.925  0.0719  0.1111 -0.3263
  563MOL0     C74195   5.563   7.094   9.859  0.0031 -0.1960  0.3407
  563MOL0     C74196   5.573   6.941   9.808 -0.2079 -0.0882  0.1685
  563MOL0     C74197   5.557   6.851   9.933  0.5715 -0.3877  0.6344
  563MOL0     C74198   5.563   6.700   9.901 -0.0802  0.0613  0.3300
  563MOL0     C74199   5.688   6.631   9.851 -0.2051  0.2509  0.1378
  563MOL0     C74200   5.680   6.516   9.751  1.2063 -0.2152 -0.4495
  563MOL0     N74201   5.579   6.423   9.797  0.4630  0.4454 -0.0795
  563MOL0     C74202   5.585   6.366   9.924 -0.3062  0.1588  0.0797
  563MOL0     C74203   5.462   6.330   9.956  0.2904  0.3781 -0.1148
  563MOL0     C74204   5.445   6.245  10.084 -0.2154 -0.0360  0.7840
  563MOL0     C74205   5.314   6.227  10.136  0.2936  0.6680  0.1801
  563MOL0     C74206   5.238   6.356  10.169 -0.7754  1.4961  0.6993
  563MOL0     C74207   5.106   6.323  10.237  0.5385  1.2411 -0.4740
  563MOL0     O74208   5.129   6.315  10.386  0.6032 -0.3084  0.4759
  563MOL0     C74209   5.017   6.348  10.456  0.9030 -0.7393  0.4049
  563MOL0     C74210   5.023   6.413  10.573 -1.0911 -0.3702 -0.2688
  563MOL0     C74211   4.910   6.463  10.643 -0.1772  0.0562  0.1029
  563MOL0     C74212   4.787   6.423  10.594 -0.0384  0.0927 -0.3596
  563MOL0     C74213   4.661   6.440  10.670 -0.8160  0.0492  0.3425
  563MOL0     O74214   4.547   6.416  10.595 -0.5414 -0.0892 -0.3765
  563MOL0     C74215   4.431   6.408  10.670 -0.3248  0.2157 -0.2539
  563MOL0     C74216   4.359   6.517  10.718 -0.9986 -0.0371 -0.6343
  563MOL0     C74217   4.253   6.491  10.805  0.0946  0.8533 -0.6391
  563MOL0     C74218   4.205   6.362  10.827  0.2348 -0.8967  0.2540
  563MOL0     O74219   4.091   6.337  10.902 -0.2854  0.6061  0.1080
  563MOL0     C74220   3.972   6.417  10.882 -1.1614 -0.4317 -0.2874
  563MOL0     C74221   3.866   6.394  10.985  0.5117  0.2261  0.2862
  563MOL0     C74222   3.740   6.479  10.941  0.2467 -0.1227 -0.6137
  563MOL0     C74223   3.634   6.478  11.051  0.3386  0.0107  0.3978
  563MOL0     C74224   3.515   6.383  11.021 -0.1657 -0.9592  0.1979
  563MOL0     C74225   3.409   6.412  11.131  0.5365 -0.2647 -0.7609
  563MOL0     C74226   3.273   6.342  11.095  0.7675 -0.0243  0.0886
  563MOL0     C74227   3.177   6.341  11.212 -0.3454  0.1101  0.7489
  563MOL0    Cl74228   3.027   6.266  11.158 -0.0358  0.0022 -0.0867
  563MOL0     C74229   4.272   6.256  10.760 -0.8749 -0.0450 -0.0349
  563MOL0     C74230   4.391   6.281  10.693  0.3602 -0.4602  0.3738
  563MOL0     O74231   4.673   6.467  10.787 -0.5142 -0.6373  0.0540
  563MOL0     C74232   4.777   6.337  10.478  0.4524 -0.5165  0.4189
  563MOL0     C74233   4.892   6.298  10.410  0.6833  0.5164 -0.3010
  563MOL0     N74234   5.372   6.371   9.855  0.1566 -0.4825  0.2895
  563MOL0     N74235   5.447   6.424   9.758  0.0551 -0.0369  0.4434
  563MOL0     C74236   5.966   7.330   9.888  0.6318 -0.5963  0.4812
  563MOL0     C74237   6.096   7.355   9.861  0.3728  0.5994  0.5700
  563MOL0     C74238   6.486   7.556   9.836  0.5987  0.4891 -0.4436
  563MOL0     C74239   6.525   7.683   9.785  0.7053 -0.4474 -0.7518
  563MOL0     C74240   6.656   7.700   9.739 -0.7546  0.2754  0.5782
  563MOL0     C74241   6.752   7.594   9.738 -0.1374 -0.7502  0.2510
  563MOL0     O74242   6.883   7.601   9.698  0.2557 -0.4497  0.1046
  563MOL0     C74243   6.944   7.732   9.683 -0.4461 -0.3182 -0.0531
  563MOL0     C74244   7.095   7.706   9.698 -0.0079  0.6621  0.9449
  563MOL0     C74245   7.180   7.828   9.672  0.0463 -0.1761  0.6573
  563MOL0     C74246   7.329   7.812   9.701 -0.3958  0.0938  0.4804
  563MOL0     C74247   7.377   7.735   9.590 -0.2989  0.5345  0.4697
  563MOL0     C74248   7.400   7.668   9.491 -0.5776 -0.2322 -0.0069
  563MOL0     C74249   6.702   7.470   9.774  0.0246 -0.1991 -0.1187
  563MOL0     C74250   6.568   7.448   9.813 -1.2249  0.0654 -0.2891
  563MOL0     H74251   6.212   7.397  10.181  0.5876  0.3326 -0.9221
  563MOL0     H74252   5.961   7.361  10.223  1.2503  2.6353  1.3504
  563MOL0     H74253   5.705   7.352   9.894  1.8821  1.5407  1.8959
  563MOL0     H74254   5.590   7.296  10.013 -1.0831 -1.1911 -0.7233
  563MOL0     H74255   5.727   7.068  10.007  1.0974 -3.6884 -3.5008
  563MOL0     H74256   5.775   7.123   9.850 -0.5466 -0.6610 -0.8768
  563MOL0     H74257   5.538   7.156   9.772  3.3702 -0.9664 -1.3593
  563MOL0     H74258   5.478   7.113   9.925  0.0239  0.5089  0.1788
  563MOL0     H74259   5.495   6.921   9.734  0.4809 -0.7034 -0.4072
  563MOL0     H74260   5.669   6.917   9.762 -0.2933 -1.8047  0.8352
  563MOL0     H74261   5.453   6.861   9.967  0.0641 -1.7725 -0.4240
  563MOL0     H74262   5.621   6.880  10.017  0.9000 -1.3939  0.7430
  563MOL0     H74263   5.489   6.681   9.823 -0.0044 -0.3053  0.3441
  563MOL0     H74264   5.538   6.635   9.986  0.9176 -2.0523 -0.9274
  563MOL0     H74265   5.752   6.702   9.797 -0.1588  0.1585  0.0715
  563MOL0     H74266   5.744   6.601   9.940  0.0756 -1.7875 -0.6760
  563MOL0     H74267   5.771   6.456   9.750 -1.6488 -5.2723  1.1806
  563MOL0     H74268   5.670   6.544   9.646  1.7143  1.1046 -0.1632
  563MOL0     H74269   5.672   6.344   9.986 -0.3379  0.6387  0.2945
  563MOL0     H74270   5.506   6.282  10.168 -0.2456  0.0531  0.7674
  563MOL0     H74271   5.492   6.149  10.063 -0.1914  0.2189 -0.3570
  563MOL0     H74272   5.325   6.171  10.229  2.8228 -1.6536 -1.3785
  563MOL0     H74273   5.244   6.183  10.065  0.2228  4.0477 -2.0586
  563MOL0     H74274   5.303   6.405  10.242  3.0103 -0.3668 -1.1518
  563MOL0     H74275   5.231   6.421  10.082  1.1472 -0.3009 -0.9078
  563MOL0     H74276   5.058   6.235  10.194  4.9271 -0.6039 -2.1770
  563MOL0     H74277   5.031   6.402  10.223  1.2022  1.8656 -0.5803
  563MOL0     H74278   5.116   6.448  10.617  0.2902 -4.5559  0.5903
  563MOL0     H74279   4.930   6.512  10.737 -0.5884 -1.9229  1.2761
  563MOL0     H74280   4.391   6.619  10.705  5.0190 -1.3475  0.8233
  563MOL0     H74281   4.206   6.572  10.861 -0.5129 -0.3441  0.6319
  563MOL0     H74282   3.934   6.405  10.780  0.9636  0.3700 -1.2280
  563MOL0     H74283   4.003   6.521  10.875  1.0655 -1.1417 -2.3683
  563MOL0     H74284   3.890   6.432  11.085 -1.6113  1.9970  0.1960
  563MOL0     H74285   3.839   6.288  10.995  1.6417  0.0647  2.0357
  563MOL0     H74286   3.703   6.432  10.849 -4.3348  0.0972  0.8933
  563MOL0     H74287   3.765   6.584  10.921  2.1128 -0.5533 -0.7324
  563MOL0     H74288   3.674   6.441  11.146  3.4484  1.1435 -0.3615
  563MOL0     H74289   3.597   6.578  11.077  3.3538  0.9170  1.6707
  563MOL0     H74290   3.526   6.276  11.039 -0.1449 -0.7403  1.6201
  563MOL0     H74291   3.482   6.396  10.917 -1.0657 -0.9706  0.4707
  563MOL0     H74292   3.389   6.518  11.150 -1.2252 -1.0050  2.3933
  563MOL0     H74293   3.442   6.368  11.226 -0.8260 -1.4909 -0.8251
  563MOL0     H74294   3.232   6.404  11.015  2.8064 -0.0957 -1.0673
  563MOL0     H74295   3.289   6.240  11.058 -0.1941  0.4715 -1.8195
  563MOL0     H74296   3.155   6.448  11.220 -2.4520 -0.2311  0.1548
  563MOL0     H74297   3.230   6.306  11.300  1.0430  1.3052  0.4264
  563MOL0     H74298   4.221   6.161  10.773 -1.9784  0.6591  0.9966
  563MOL0     H74299   4.449   6.202  10.646 -0.7216 -1.0294 -0.0373
  563MOL0     H74300   4.683   6.296  10.443 -0.1465  0.7067  0.5088
  563MOL0     H74301   4.875   6.233  10.325  2.9862 -0.3881 -0.1276
  563MOL0     H74302   5.902   7.318   9.802 -1.2824 -1.3345  1.9362
  563MOL0     H74303   6.139   7.350   9.761  0.2772  0.0773  0.5502
  563MOL0     H74304   6.446   7.756   9.768  0.7798 -0.2884 -0.4190
  563MOL0     H74305   6.694   7.792   9.695 -0.6148 -0.9655 -2.1053
  563MOL0     H74306   6.906   7.793   9.764  0.0088  0.5016 -0.4450
  563MOL0     H74307   6.912   7.775   9.588 -0.7774 -0.8550 -0.1918
  563MOL0     H74308   7.118   7.663   9.796 -0.7194  2.4689  1.9537
  563MOL0     H74309   7.119   7.627   9.626 -3.6324 -0.9447  1.3023
  563MOL0     H74310   7.141   7.910   9.733  1.0719 -0.6873  2.0589
  563MOL0     H74311   7.173   7.855   9.566  3.8324 -1.3359 -0.0360
  563MOL0     H74312   7.380   7.908   9.714 -0.4961  0.2453 -0.2054
  563MOL0     H74313   7.343   7.748   9.788  0.5622  0.3431  0.5171
  563MOL0     H74314   7.413   7.606   9.405 -2.2179 -1.2645  0.4277
  563MOL0     H74315   6.763   7.382   9.757  0.0010 -0.8880  2.8757
  563MOL0     H74316   6.530   7.347   9.818 -1.1537  0.0248 -0.5539
  564MOL0     O74317   0.834   3.054   2.746 -0.2586  0.9127 -0.3647
  564MOL0     C74318   0.905   2.969   2.695 -0.3348  0.5153  0.8788
  564MOL0     O74319   0.863   2.842   2.657  0.2716 -0.2514  0.5712
  564MOL0     C74320   0.731   2.812   2.631  0.6595  1.2483 -0.3838
  564MOL0     C74321   0.619   2.891   2.649  0.4754 -0.3772  0.3214
  564MOL0     C74322   0.488   2.856   2.607  0.1061 -0.2162  0.0255
  564MOL0     C74323   0.479   2.741   2.520  0.2206  0.4163 -0.7766
  564MOL0     O74324   0.373   2.709   2.448 -0.0364  0.1655 -0.0629
  564MOL0     C74325   0.237   2.718   2.493 -0.2773 -0.9069 -0.4308
  564MOL0     C74326   0.179   2.819   2.406 -0.4213 -0.4358 -0.7438
  564MOL0     C74327   0.034   2.852   2.440  0.0595  0.5047  0.2922
  564MOL0     C74328  -0.057   2.761   2.346  0.3685  0.1115 -0.6639
  564MOL0     C74329  -0.198   2.797   2.340  0.3675 -0.3497 -0.0370
  564MOL0     C74330  -0.270   2.708   2.245 -0.7569 -0.2326 -0.4798
  564MOL0     C74331  -0.423   2.710   2.254  0.5005  0.4895  1.4012
  564MOL0     C74332  -0.478   2.808   2.149  0.0165 -0.2499  0.5996
  564MOL0     N74333  -0.624   2.798   2.142 -0.2198 -0.0475  0.4169
  564MOL0     C74334  -0.697   2.691   2.092  0.6699 -0.0815  0.7664
  564MOL0     C74335  -0.824   2.713   2.124 -0.0178 -0.6819  0.9576
  564MOL0     C74336  -0.941   2.626   2.087 -0.0267 -1.1038  0.8460
  564MOL0     C74337  -1.030   2.701   1.989  0.4402 -0.6966  0.5002
  564MOL0     C74338  -1.130   2.609   1.915  0.5904  0.9510 -1.1015
  564MOL0     C74339  -1.218   2.698   1.819  0.0639 -0.1879 -0.5525
  564MOL0     O74340  -1.280   2.632   1.710 -0.0914 -0.3679  0.1328
  564MOL0     C74341  -1.357   2.710   1.633 -0.2154  0.2114  1.2448
  564MOL0     C74342  -1.420   2.646   1.519 -0.3572 -0.1789  0.5759
  564MOL0     C74343  -1.490   2.716   1.419  0.1583  0.0543  0.0476
  564MOL0     C74344  -1.502   2.854   1.435  0.2968  0.0500  0.7133
  564MOL0     C74345  -1.571   2.927   1.323 -1.4042  0.1993 -0.0666
  564MOL0     O74346  -1.643   2.846   1.237  0.1036 -0.3916 -0.1224
  564MOL0     C74347  -1.737   2.902   1.153  0.0021 -0.7506  0.1187
  564MOL0     C74348  -1.738   2.867   1.016  0.3181  0.1035 -0.3605
  564MOL0     C74349  -1.828   2.925   0.925  0.3246  0.2228  0.3739
  564MOL0     C74350  -1.923   3.022   0.964 -1.0044 -0.2535  0.5268
  564MOL0     O74351  -2.024   3.071   0.882 -0.5237  0.0078 -0.4502
  564MOL0     C74352  -1.991   3.079   0.744 -0.3826  0.0149 -0.7685
  564MOL0     C74353  -2.080   3.195   0.689  0.5301  0.3628  0.0948
  564MOL0     C74354  -2.022   3.330   0.718 -1.8479 -0.1631  0.1276
  564MOL0     C74355  -2.107   3.453   0.677 -1.3761  0.0947  0.0027
  564MOL0     C74356  -2.057   3.584   0.741 -0.2747  0.5825  0.1815
  564MOL0     C74357  -2.139   3.714   0.719  0.4143  0.7718  0.7934
  564MOL0     C74358  -2.122   3.773   0.577  0.0782  1.1699  0.1448
  564MOL0     C74359  -2.220   3.889   0.554 -0.4812 -0.2491  0.0937
  564MOL0    Cl74360  -2.384   3.834   0.538  0.1429  0.0276 -0.1976
  564MOL0     C74361  -1.931   3.053   1.100 -1.2323  0.2631  0.8311
  564MOL0     C74362  -1.834   3.003   1.194  0.3007  0.3184 -0.2723
  564MOL0     O74363  -1.576   3.046   1.330 -0.3995 -0.0954 -1.1411
  564MOL0     C74364  -1.439   2.913   1.541  0.6279  0.3064  0.2125
  564MOL0     C74365  -1.369   2.851   1.635 -0.2389 -0.2510 -0.8024
  564MOL0     N74366  -0.833   2.835   2.196 -1.5156 -0.1327  0.3853
  564MOL0     N74367  -0.711   2.885   2.212  0.2356  0.3819 -0.0322
  564MOL0     C74368   0.586   2.652   2.500  0.2113 -0.4700 -0.7867
  564MOL0     C74369   0.708   2.688   2.556 -0.8545  0.2786 -0.0999
  564MOL0     C74370   1.049   3.010   2.668  0.0638  0.3257 -0.3192
  564MOL0     C74371   1.097   3.141   2.676 -0.4316 -0.3024  0.6857
  564MOL0     C74372   1.226   3.176   2.628 -0.4256 -0.4253 -0.5745
  564MOL0     C74373   1.313   3.079   2.570 -0.2923  0.0996 -1.2209
  564MOL0     O74374   1.446   3.101   2.528  0.4149 -0.2007  0.4152
  564MOL0     C74375   1.452   3.220   2.450  0.4761  0.3592  0.1527
  564MOL0     C74376   1.564   3.198   2.347 -0.2817  0.5905  0.7563
  564MOL0     C74377   1.564   3.311   2.240  0.1784  0.3109  0.6190
  564MOL0     C74378   1.640   3.283   2.105 -0.3083  0.6582 -0.5517
  564MOL0     C74379   1.636   3.400   2.026  1.0269 -0.3647  1.0080
  564MOL0     C74380   1.632   3.492   1.946 -0.4422  0.5380 -0.2361
  564MOL0     C74381   1.264   2.947   2.563 -0.1008  0.2915  0.4631
  564MOL0     C74382   1.140   2.915   2.610  0.3070  0.3220  0.1971
  564MOL0     H74383   0.633   2.975   2.716  2.9988 -2.4923  2.6668
  564MOL0     H74384   0.406   2.923   2.629 -0.0043  0.2322 -1.5852
  564MOL0     H74385   0.207   2.747   2.595 -1.5767 -0.8508 -0.8105
  564MOL0     H74386   0.196   2.619   2.472  3.1173 -2.5484  0.1365
  564MOL0     H74387   0.191   2.797   2.299 -0.0755 -1.5695 -0.4828
  564MOL0     H74388   0.239   2.909   2.420  2.3552 -2.0248 -1.5878
  564MOL0     H74389   0.005   2.954   2.414 -1.2049  0.1248  0.1542
  564MOL0     H74390   0.007   2.852   2.546 -0.9057 -2.3538  0.1331
  564MOL0     H74391  -0.019   2.764   2.243  1.3106 -2.1530 -0.4510
  564MOL0     H74392  -0.048   2.659   2.385 -2.4844  0.6563  1.7966
  564MOL0     H74393  -0.203   2.897   2.296  0.6998 -0.9017 -1.3954
  564MOL0     H74394  -0.244   2.795   2.439  1.9842 -0.7308  0.7273
  564MOL0     H74395  -0.252   2.610   2.290 -1.6890 -0.6782 -1.0408
  564MOL0     H74396  -0.220   2.720   2.149  1.1731 -0.5123  0.4435
  564MOL0     H74397  -0.463   2.610   2.232  0.2036  0.9137 -0.1431
  564MOL0     H74398  -0.458   2.744   2.352 -0.8511 -2.0466  1.8971
  564MOL0     H74399  -0.439   2.779   2.052 -1.0159 -2.6642  0.8531
  564MOL0     H74400  -0.444   2.910   2.170  0.8110 -0.6120  1.1311
  564MOL0     H74401  -0.644   2.613   2.038  2.8889  1.2335  0.9343
  564MOL0     H74402  -1.008   2.594   2.167 -2.4065  0.0816 -0.5219
  564MOL0     H74403  -0.902   2.537   2.038 -0.8207 -1.3178  0.5782
  564MOL0     H74404  -0.957   2.746   1.921  1.7121 -1.9183  1.0201
  564MOL0     H74405  -1.083   2.775   2.049  0.9463 -1.5257  2.0028
  564MOL0     H74406  -1.071   2.531   1.866  0.6266 -0.2933  0.8216
  564MOL0     H74407  -1.191   2.563   1.994 -0.5572  1.3147 -1.7500
  564MOL0     H74408  -1.160   2.781   1.777  0.3268 -1.3071 -2.5557
  564MOL0     H74409  -1.293   2.740   1.886  1.0176  1.3603 -0.4019
  564MOL0     H74410  -1.410   2.540   1.494 -0.6634 -0.1692  0.4081
  564MOL0     H74411  -1.527   2.662   1.333  0.4070 -1.1018  0.6436
  564MOL0     H74412  -1.674   2.787   0.979 -0.4379 -0.4393 -0.5212
  564MOL0     H74413  -1.815   2.896   0.822  1.3108  0.1980  0.4968
  564MOL0     H74414  -1.995   2.988   0.683  4.9404 -1.4413  0.5038
  564MOL0     H74415  -1.888   3.110   0.729 -0.5987  1.9845  1.2476
  564MOL0     H74416  -2.180   3.192   0.732  0.9336 -3.3067  1.0713
  564MOL0     H74417  -2.090   3.188   0.581 -0.1552  1.3480  0.0780
  564MOL0     H74418  -1.927   3.347   0.667 -1.9579  0.9459  0.2594
  564MOL0     H74419  -2.002   3.338   0.825  0.0378  2.1483 -0.3139
  564MOL0     H74420  -2.097   3.465   0.569  1.7097  0.3991  0.2280
  564MOL0     H74421  -2.208   3.421   0.705 -2.0619  2.9447  1.0868
  564MOL0     H74422  -1.959   3.615   0.703 -0.3296  0.6403  0.0861
  564MOL0     H74423  -2.045   3.568   0.849  0.0294  0.9801  0.2072
  564MOL0     H74424  -2.103   3.786   0.793  3.8669 -0.0160  0.0766
  564MOL0     H74425  -2.244   3.686   0.720  0.7801 -2.6235 -5.1918
  564MOL0     H74426  -2.016   3.801   0.573  0.2868  0.2949 -1.4001
  564MOL0     H74427  -2.147   3.700   0.498 -0.4640  2.3366 -0.8010
  564MOL0     H74428  -2.196   3.947   0.464  1.6936  1.8086  1.8704
  564MOL0     H74429  -2.198   3.964   0.630  2.1540 -0.2119 -0.6091
  564MOL0     H74430  -2.012   3.121   1.120 -0.7708  0.9971  0.2697
  564MOL0     H74431  -1.843   3.019   1.301  0.3960  1.6905 -0.4495
  564MOL0     H74432  -1.455   3.019   1.556  1.4469  0.1598  2.7387
  564MOL0     H74433  -1.305   2.906   1.703 -0.7540 -3.7281  2.9168
  564MOL0     H74434   0.566   2.578   2.424 -3.3264 -1.6051  1.0367
  564MOL0     H74435   0.794   2.628   2.528 -1.1389 -0.0168 -0.3393
  564MOL0     H74436   1.039   3.226   2.712 -3.3220 -0.9452 -2.0682
  564MOL0     H74437   1.260   3.279   2.624  1.9138 -1.1693 -2.0250
  564MOL0     H74438   1.470   3.312   2.506 -0.2161  0.9189 -0.5302
  564MOL0     H74439   1.360   3.237   2.393  0.9091  2.7329  0.0497
  564MOL0     H74440   1.661   3.193   2.396  1.1863 -0.0414 -1.9864
  564MOL0     H74441   1.541   3.099   2.307 -3.4005  1.7108 -0.5922
  564MOL0     H74442   1.599   3.405   2.284  1.8795  0.7957 -1.5995
  564MOL0     H74443   1.462   3.324   2.202  0.3054 -1.4070 -0.3918
  564MOL0     H74444   1.745   3.254   2.120 -0.1168 -0.2616 -3.1077
  564MOL0     H74445   1.602   3.200   2.045  2.6285 -1.8824  0.8315
  564MOL0     H74446   1.644   3.565   1.868  1.0694 -1.0119 -1.5289
  564MOL0     H74447   1.308   2.870   2.500 -0.2798  1.0346 -0.5969
  564MOL0     H74448   1.118   2.809   2.606  1.2159  0.1497 -2.4662
  565MOL0     O74449   7.693   3.210   6.802  0.5666 -0.3227 -0.2524
  565MOL0     C74450   7.696   3.089   6.802  0.5145  0.4701  0.4140
  565MOL0     O74451   7.594   3.004   6.831 -0.4081 -0.6684 -0.6765
  565MOL0     C74452   7.479   3.052   6.888 -0.1903  0.5723 -0.4440
  565MOL0     C74453   7.369   2.983   6.854 -0.2842  0.1429  0.1618
  565MOL0     C74454   7.234   3.026   6.891 -1.2635  1.0985  0.4149
  565MOL0     C74455   7.231   3.144   6.958  0.6858  0.3630 -0.0086
  565MOL0     O74456   7.114   3.212   7.000 -0.6653  0.0965 -0.1649
  565MOL0     C74457   6.989   3.172   6.944  0.0010 -0.1868 -0.7046
  565MOL0     C74458   6.873   3.253   6.995  0.8944  0.0007 -0.0932
  565MOL0     C74459   6.741   3.223   6.927 -0.3483  0.3032  0.2558
  565MOL0     C74460   6.634   3.308   6.996 -0.4326 -0.4554 -0.9063
  565MOL0     C74461   6.498   3.246   6.973  0.1504  0.4378  0.3621
  565MOL0     C74462   6.396   3.301   7.069 -0.2583 -0.2338  0.6373
  565MOL0     C74463   6.266   3.219   7.063  0.6134  0.0205 -0.3166
  565MOL0     C74464   6.162   3.293   7.145 -0.7313  0.1795 -0.6901
  565MOL0     N74465   6.046   3.208   7.169  0.9328  0.3074 -0.3785
  565MOL0     C74466   6.029   3.122   7.278 -0.2826  0.1193 -0.7928
  565MOL0     C74467   5.897   3.094   7.275  0.1987 -0.0907 -0.2887
  565MOL0     C74468   5.832   3.016   7.381 -0.8327  0.1078 -0.3999
  565MOL0     C74469   5.715   2.926   7.329  0.0500  0.3377  0.1544
  565MOL0     C74470   5.581   3.001   7.330  0.2753 -0.0483 -0.3578
  565MOL0     C74471   5.472   2.922   7.383  0.0268 -0.3465 -0.7400
  565MOL0     O74472   5.344   2.968   7.336  0.1495  0.2791  0.1702
  565MOL0     C74473   5.233   2.917   7.399 -1.0343  0.2536  0.5120
  565MOL0     C74474   5.239   2.821   7.494  0.1371 -0.5110 -0.0952
  565MOL0     C74475   5.123   2.780   7.560 -0.3688  0.3992  0.5578
  565MOL0     C74476   4.999   2.839   7.522 -0.2064  0.4723 -0.8193
  565MOL0     C74477   4.876   2.816   7.605 -0.0208  0.2417  1.0664
  565MOL0     O74478   4.755   2.829   7.539  0.0496 -0.4998  0.1240
  565MOL0     C74479   4.648   2.784   7.601 -0.1860  0.0261  0.7157
  565MOL0     C74480   4.631   2.648   7.621 -0.1014  0.5184 -0.7690
  565MOL0     C74481   4.509   2.592   7.648 -1.0173  0.6644 -0.0975
  565MOL0     C74482   4.401   2.676   7.680 -0.3300  0.4026 -1.3267
  565MOL0     O74483   4.276   2.629   7.701  0.0010 -0.3283 -0.1100
  565MOL0     C74484   4.269   2.533   7.812 -0.6059  0.1628  0.3433
  565MOL0     C74485   4.128   2.488   7.813  0.2680  0.6042 -0.7249
  565MOL0     C74486   4.036   2.615   7.819 -0.5259  0.5834  0.1097
  565MOL0     C74487   3.899   2.569   7.872 -0.8765  0.8702  0.5081
  565MOL0     C74488   3.783   2.670   7.854 -0.7362 -0.4695  0.1102
  565MOL0     C74489   3.638   2.620   7.835 -0.1681 -0.2875 -0.8621
  565MOL0     C74490   3.583   2.535   7.951  0.2942  0.5869 -0.3188
  565MOL0     C74491   3.430   2.567   7.974 -0.1927 -0.3158  0.4268
  565MOL0    Cl74492   3.335   2.529   7.822 -0.0399  0.2699 -0.9735
  565MOL0     C74493   4.419   2.816   7.668  1.2855  0.4548 -0.3597
  565MOL0     C74494   4.544   2.867   7.639  0.1734 -0.0767  0.8615
  565MOL0     O74495   4.897   2.791   7.724 -0.3331  0.0710 -0.4176
  565MOL0     C74496   4.997   2.941   7.430  0.0500  0.3736  0.5823
  565MOL0     C74497   5.114   2.972   7.369  0.0875 -0.3100  1.2610
  565MOL0     N74498   5.834   3.167   7.181 -0.6038 -0.4912  0.2528
  565MOL0     N74499   5.917   3.222   7.109  0.5906  0.2357 -0.1900
  565MOL0     C74500   7.340   3.217   6.995 -0.1667  0.5522  0.8814
  565MOL0     C74501   7.465   3.172   6.960  0.2813  0.7758  0.0959
  565MOL0     C74502   7.816   3.021   6.758  0.1813  0.0910 -0.9940
  565MOL0     C74503   7.820   2.889   6.702  0.2449 -0.1706  0.2930
  565MOL0     C74504   7.933   2.828   6.648  0.4039  0.4773  0.1165
  565MOL0     C74505   8.048   2.902   6.644 -0.9116 -0.0095  0.3923
  565MOL0     O74506   8.163   2.875   6.569  0.6853  0.1151 -0.0843
  565MOL0     C74507   8.155   2.781   6.464  0.3756 -0.3145 -0.5943
  565MOL0     C74508   8.281   2.778   6.379 -0.4651 -0.0151 -0.1922
  565MOL0     C74509   8.295   2.917   6.302  0.2381  0.1194 -0.3336
  565MOL0     C74510   8.294   2.903   6.155 -0.1107 -0.5640  0.6742
  565MOL0     C74511   8.400   2.819   6.093  0.2713  0.5740 -0.3637
  565MOL0     C74512   8.490   2.770   6.033 -0.1593  0.3269  0.8666
  565MOL0     C74513   8.050   3.029   6.705  0.0389  0.7308 -0.1597
  565MOL0     C74514   7.938   3.090   6.765  0.0238 -0.1823 -0.5328
  565MOL0     H74515   7.386   2.885   6.812  2.1244 -0.7326  2.8166
  565MOL0     H74516   7.148   2.964   6.868  1.6981 -2.2947 -2.5362
  565MOL0     H74517   6.969   3.072   6.984 -2.1183  1.8199  3.9586
  565MOL0     H74518   7.004   3.174   6.835 -1.6305  2.1014 -0.9715
  565MOL0     H74519   6.894   3.360   6.995  0.6000  0.0670 -0.5502
  565MOL0     H74520   6.869   3.226   7.101 -3.1813  0.2048 -0.0226
  565MOL0     H74521   6.723   3.118   6.950 -4.1946  0.9904  1.0510
  565MOL0     H74522   6.749   3.236   6.819 -1.7490  0.3111  0.1323
  565MOL0     H74523   6.670   3.299   7.099  1.0950  4.1620 -0.7937
  565MOL0     H74524   6.621   3.411   6.962 -4.9035 -1.0287 -1.5699
  565MOL0     H74525   6.506   3.140   6.999 -0.8658  0.0261 -0.8933
  565MOL0     H74526   6.481   3.239   6.865  4.1474 -1.3702 -0.3549
  565MOL0     H74527   6.373   3.403   7.035 -3.9929 -0.9261  0.6560
  565MOL0     H74528   6.433   3.299   7.172  2.4508 -1.6547 -0.2777
  565MOL0     H74529   6.228   3.216   6.960 -0.7720  1.6479  0.1083
  565MOL0     H74530   6.289   3.123   7.110  0.2755 -0.1683 -0.5301
  565MOL0     H74531   6.132   3.380   7.086 -1.3243 -0.2666 -1.0592
  565MOL0     H74532   6.201   3.332   7.240 -1.2416  1.4279 -0.9663
  565MOL0     H74533   6.101   3.089   7.352 -0.6565  1.2778  0.1259
  565MOL0     H74534   5.795   3.087   7.457 -0.6422 -1.5977  1.3714
  565MOL0     H74535   5.905   2.948   7.426 -0.7062 -1.7403 -3.1838
  565MOL0     H74536   5.708   2.834   7.388 -0.4604 -0.5569 -1.2409
  565MOL0     H74537   5.733   2.892   7.227  0.0469 -3.8608  1.3588
  565MOL0     H74538   5.591   3.099   7.378 -1.4432  0.2377 -0.5228
  565MOL0     H74539   5.559   3.018   7.225 -0.4584 -2.3437 -0.6397
  565MOL0     H74540   5.468   2.934   7.492  0.6588  1.5686 -0.8919
  565MOL0     H74541   5.482   2.821   7.343  0.1945  0.0136 -1.6311
  565MOL0     H74542   5.333   2.776   7.525  0.0404 -1.5555 -1.2315
  565MOL0     H74543   5.120   2.698   7.631 -3.6910 -1.0506 -1.0537
  565MOL0     H74544   4.700   2.569   7.593  0.2199 -0.2150  1.8022
  565MOL0     H74545   4.511   2.484   7.656  2.5432  0.7120  1.1023
  565MOL0     H74546   4.309   2.566   7.908  1.8320  0.1874 -0.6048
  565MOL0     H74547   4.333   2.449   7.785 -0.4587 -0.3624  2.2243
  565MOL0     H74548   4.106   2.425   7.900 -0.6797  0.4118 -1.0958
  565MOL0     H74549   4.102   2.430   7.724 -2.3376 -1.5523  1.3032
  565MOL0     H74550   4.017   2.659   7.720  0.3996 -0.3014 -0.4721
  565MOL0     H74551   4.066   2.692   7.891 -2.0401 -1.3643  3.0308
  565MOL0     H74552   3.878   2.487   7.803  2.1684 -0.7344  1.3024
  565MOL0     H74553   3.906   2.529   7.974 -1.6770 -2.7851 -0.7363
  565MOL0     H74554   3.799   2.724   7.760 -1.5727 -2.9316 -1.5690
  565MOL0     H74555   3.776   2.739   7.939 -1.5527 -1.4603  0.8730
  565MOL0     H74556   3.637   2.547   7.753 -1.7276 -0.4397 -0.7474
  565MOL0     H74557   3.571   2.703   7.809  1.7664  1.6011 -0.0592
  565MOL0     H74558   3.594   2.429   7.927 -0.1348  0.1872  1.1434
  565MOL0     H74559   3.641   2.556   8.042  1.2474  1.2127 -1.0438
  565MOL0     H74560   3.429   2.672   8.003  2.4569 -0.7904  2.7074
  565MOL0     H74561   3.396   2.515   8.064  1.6508 -0.2130  1.2412
  565MOL0     H74562   4.330   2.873   7.693  0.6381 -0.6218 -0.1267
  565MOL0     H74563   4.538   2.975   7.640 -0.7100 -0.1052  0.1723
  565MOL0     H74564   4.912   3.004   7.405  0.5231  1.0489  0.6587
  565MOL0     H74565   5.120   3.052   7.296 -1.6088 -1.4670 -0.2402
  565MOL0     H74566   7.332   3.309   7.052 -2.0006  0.2355  1.2187
  565MOL0     H74567   7.553   3.223   6.996  1.0259  0.2392 -0.9313
  565MOL0     H74568   7.738   2.819   6.688 -1.6596  1.7011  1.5815
  565MOL0     H74569   7.923   2.732   6.598 -0.1570  0.4254  0.3203
  565MOL0     H74570   8.062   2.803   6.411 -1.5737  0.3642  2.7825
  565MOL0     H74571   8.137   2.682   6.507  0.5033  0.2203  0.7363
  565MOL0     H74572   8.360   2.777   6.455 -0.2611  1.0084 -0.3739
  565MOL0     H74573   8.284   2.694   6.309  0.8597  0.5233 -0.8277
  565MOL0     H74574   8.382   2.974   6.335 -0.6630  0.1316  2.2463
  565MOL0     H74575   8.211   2.982   6.328  1.2529  0.6472  1.8182
  565MOL0     H74576   8.195   2.863   6.132  2.3686 -5.1575 -4.3057
  565MOL0     H74577   8.302   3.003   6.112 -1.5316 -0.0145  1.6279
  565MOL0     H74578   8.570   2.730   5.973  0.0775 -2.0966  2.6170
  565MOL0     H74579   8.141   3.087   6.695  0.9576 -0.6334 -0.0210
  565MOL0     H74580   7.948   3.183   6.820  1.9909 -1.2644  1.0503
  566MOL0     O74581   2.898   5.410   8.323  0.6440 -0.0666 -0.2819
  566MOL0     C74582   2.908   5.503   8.248  0.0008 -0.3611 -0.5982
  566MOL0     O74583   2.803   5.558   8.191  0.0714  0.5860  0.3290
  566MOL0     C74584   2.678   5.506   8.215  0.2783  0.1642 -0.8239
  566MOL0     C74585   2.622   5.424   8.114 -1.0432 -0.0815  0.5069
  566MOL0     C74586   2.490   5.382   8.130  0.4207  0.2655 -0.3952
  566MOL0     C74587   2.419   5.412   8.250  0.2509  0.0965  0.2054
  566MOL0     O74588   2.296   5.360   8.289  0.6388  0.1991  0.0309
  566MOL0     C74589   2.222   5.283   8.196  0.1141 -0.0706  0.2283
  566MOL0     C74590   2.101   5.225   8.269 -0.6845 -0.2081 -0.2288
  566MOL0     C74591   1.976   5.274   8.197  0.2501 -0.9578 -0.3953
  566MOL0     C74592   1.851   5.212   8.255 -0.1604 -0.8778  0.4261
  566MOL0     C74593   1.724   5.261   8.176 -0.6528 -0.6453  0.0737
  566MOL0     C74594   1.701   5.412   8.186  1.0018 -0.1740 -0.5340
  566MOL0     C74595   1.543   5.445   8.199  0.1984  0.7831 -0.4981
  566MOL0     C74596   1.532   5.603   8.211  0.3290 -0.1998 -0.0312
  566MOL0     N74597   1.413   5.659   8.156  0.9784 -0.1650 -0.0529
  566MOL0     C74598   1.365   5.656   8.024  0.5324 -0.7127 -0.2639
  566MOL0     C74599   1.244   5.714   8.037 -0.6915 -0.3266  0.3750
  566MOL0     C74600   1.146   5.731   7.923 -0.1591 -0.0831 -0.7957
  566MOL0     C74601   1.075   5.604   7.875 -1.2009 -0.7499 -0.5004
  566MOL0     C74602   0.995   5.539   7.998 -0.2923  0.0653 -0.3415
  566MOL0     C74603   0.913   5.635   8.085  0.4427 -0.3320  0.2048
  566MOL0     O74604   0.813   5.562   8.158 -0.4802 -0.1339  0.2221
  566MOL0     C74605   0.685   5.580   8.117 -0.2231  0.5179  0.2408
  566MOL0     C74606   0.642   5.618   7.988 -0.7863  0.2209 -0.8818
  566MOL0     C74607   0.511   5.622   7.951 -0.7136 -0.1620 -0.2060
  566MOL0     C74608   0.414   5.586   8.048 -0.0208  0.1249  1.3329
  566MOL0     C74609   0.264   5.592   8.007  0.4806 -0.3745 -0.5076
  566MOL0     O74610   0.165   5.565   8.097 -0.3395  0.2020  0.3038
  566MOL0     C74611   0.039   5.531   8.048 -0.9117  0.5259 -0.2316
  566MOL0     C74612   0.011   5.463   7.927  0.3471 -0.1373  0.1753
  566MOL0     C74613  -0.119   5.429   7.891 -0.0984 -0.0157  0.6461
  566MOL0     C74614  -0.225   5.454   7.978 -0.9345  0.1079 -0.5208
  566MOL0     O74615  -0.355   5.423   7.957 -0.3462 -0.2580  1.1252
  566MOL0     C74616  -0.391   5.395   7.812  0.1532 -0.2429 -0.6928
  566MOL0     C74617  -0.533   5.365   7.790  0.2006  0.3120 -0.0683
  566MOL0     C74618  -0.634   5.477   7.800  0.0668  0.2952  0.3139
  566MOL0     C74619  -0.742   5.453   7.695  0.6637 -0.8065 -0.1141
  566MOL0     C74620  -0.864   5.549   7.719  0.3832  0.7904 -0.6116
  566MOL0     C74621  -0.953   5.570   7.590 -1.2321  0.5789 -0.1430
  566MOL0     C74622  -1.090   5.625   7.635 -0.4259  0.6936 -0.2023
  566MOL0     C74623  -1.171   5.654   7.509 -0.4209 -0.1887 -0.5925
  566MOL0    Cl74624  -1.329   5.712   7.559 -0.0845 -0.4046  0.3931
  566MOL0     C74625  -0.195   5.505   8.101 -0.3140  0.5274 -0.5010
  566MOL0     C74626  -0.066   5.545   8.135  0.1074 -0.9484  0.1952
  566MOL0     O74627   0.247   5.625   7.886 -0.1933  0.4902 -0.3450
  566MOL0     C74628   0.456   5.534   8.166  0.4951 -0.5560 -0.2331
  566MOL0     C74629   0.587   5.531   8.206 -0.5426 -0.3665 -0.4299
  566MOL0     N74630   1.222   5.761   8.163  0.9335  0.0027  0.1006
  566MOL0     N74631   1.318   5.730   8.231 -0.2180  0.3699 -0.4443
  566MOL0     C74632   2.475   5.492   8.349  0.2502 -0.1014  0.4596
  566MOL0     C74633   2.602   5.543   8.324  0.1310  0.7170  0.4983
  566MOL0     C74634   3.050   5.546   8.216  0.6031 -1.0276  0.0942
  566MOL0     C74635   3.159   5.495   8.282 -0.9529  0.0879  1.3257
  566MOL0     C74636   3.292   5.521   8.243 -0.1579  0.0562 -0.0645
  566MOL0     C74637   3.313   5.601   8.135 -0.5248  0.1806  0.0170
  566MOL0     O74638   3.445   5.630   8.104  0.1108  0.4996 -0.5661
  566MOL0     C74639   3.467   5.712   7.987 -0.1808 -0.4419  0.1618
  566MOL0     C74640   3.614   5.693   7.947 -0.5535 -0.2041  0.6942
  566MOL0     C74641   3.719   5.737   8.046 -0.1151  0.1518  0.6991
  566MOL0     C74642   3.860   5.750   7.987 -0.5862 -0.2557  0.0012
  566MOL0     C74643   3.936   5.629   7.981  0.0373 -0.8509  0.8330
  566MOL0     C74644   4.018   5.536   7.964  0.9000  0.3266 -0.0568
  566MOL0     C74645   3.205   5.662   8.077  0.5676  0.7776  0.1633
  566MOL0     C74646   3.072   5.643   8.120  0.2617 -0.0958 -0.5386
  566MOL0     H74647   2.670   5.397   8.021 -0.4331  2.5722 -0.0321
  566MOL0     H74648   2.437   5.324   8.055  0.5814 -0.7659  0.2696
  566MOL0     H74649   2.286   5.205   8.153  0.6698 -0.8124  2.2711
  566MOL0     H74650   2.177   5.349   8.121  0.4689  1.4651  1.3119
  566MOL0     H74651   2.091   5.260   8.372 -0.8615  1.0324 -0.6541
  566MOL0     H74652   2.107   5.116   8.280 -1.7910 -0.0736  2.9553
  566MOL0     H74653   1.988   5.269   8.088 -0.2541  0.2067 -0.5225
  566MOL0     H74654   1.959   5.382   8.201  1.4581 -0.6997 -1.5548
  566MOL0     H74655   1.857   5.103   8.258 -0.3061 -0.9867 -1.8868
  566MOL0     H74656   1.836   5.254   8.355 -0.9119 -0.0178 -0.0339
  566MOL0     H74657   1.634   5.211   8.213 -0.8276 -0.1677  0.3046
  566MOL0     H74658   1.728   5.227   8.072  0.8910  0.3718 -0.2320
  566MOL0     H74659   1.735   5.457   8.093  2.8632  1.5336  0.8855
  566MOL0     H74660   1.751   5.458   8.272  0.5923 -0.0361 -0.3632
  566MOL0     H74661   1.489   5.411   8.110  0.5428 -1.0319 -0.0556
  566MOL0     H74662   1.496   5.401   8.287 -0.8891  1.7828 -0.5586
  566MOL0     H74663   1.611   5.652   8.154  1.0829 -0.4256  0.7825
  566MOL0     H74664   1.542   5.641   8.314 -0.9317  0.5719 -0.1781
  566MOL0     H74665   1.412   5.632   7.929  0.7564 -2.0073  0.1616
  566MOL0     H74666   1.205   5.773   7.841 -0.7710  2.1427 -0.1851
  566MOL0     H74667   1.079   5.810   7.958  1.3072  0.1374  1.7069
  566MOL0     H74668   1.150   5.530   7.845 -1.2557  0.2080 -3.2520
  566MOL0     H74669   1.014   5.613   7.785 -0.4725 -1.0841 -1.0386
  566MOL0     H74670   0.930   5.458   7.962 -0.0894 -0.7126  0.9742
  566MOL0     H74671   1.074   5.493   8.058  2.0311  2.1712 -1.6384
  566MOL0     H74672   0.875   5.720   8.027  0.9095  0.5406  1.1520
  566MOL0     H74673   0.965   5.675   8.173 -1.8608 -3.5392  3.3127
  566MOL0     H74674   0.711   5.649   7.910 -0.6416  1.3170 -0.3223
  566MOL0     H74675   0.484   5.668   7.856  0.9571  2.7216  0.5917
  566MOL0     H74676   0.092   5.426   7.865  1.2781  0.1379  1.2092
  566MOL0     H74677  -0.127   5.384   7.792 -2.3799  1.3925  0.0978
  566MOL0     H74678  -0.328   5.309   7.787  3.1068  1.0622  1.6231
  566MOL0     H74679  -0.357   5.479   7.750  0.9122 -0.8651 -1.1344
  566MOL0     H74680  -0.560   5.291   7.867  0.1220 -0.5947 -0.9479
  566MOL0     H74681  -0.542   5.321   7.691  2.3916  0.0280 -0.1877
  566MOL0     H74682  -0.602   5.581   7.791 -1.0794  0.7251  0.9461
  566MOL0     H74683  -0.670   5.481   7.904  1.5569 -0.6063  0.9055
  566MOL0     H74684  -0.696   5.460   7.596  1.7289 -0.4732  0.3884
  566MOL0     H74685  -0.770   5.348   7.710  5.4336 -2.4781 -1.1799
  566MOL0     H74686  -0.842   5.650   7.756  0.1877  0.7332 -0.3301
  566MOL0     H74687  -0.914   5.495   7.800  0.6128 -0.4442 -1.2783
  566MOL0     H74688  -0.966   5.468   7.553 -0.0971  0.0462  0.8296
  566MOL0     H74689  -0.902   5.634   7.517  0.2749  0.0056  0.3574
  566MOL0     H74690  -1.146   5.546   7.685  0.0425 -0.5321 -1.5257
  566MOL0     H74691  -1.088   5.716   7.696  0.0820  0.0700  0.7379
  566MOL0     H74692  -1.173   5.567   7.444  1.0303 -0.6165 -0.1053
  566MOL0     H74693  -1.116   5.717   7.439  0.4973 -1.6158 -1.1908
  566MOL0     H74694  -0.273   5.511   8.177 -3.9909  0.6037 -3.9328
  566MOL0     H74695  -0.053   5.605   8.224 -1.8152 -0.0774 -0.0581
  566MOL0     H74696   0.382   5.486   8.230  0.2151 -0.5826 -0.5775
  566MOL0     H74697   0.616   5.494   8.304 -0.5833 -0.6249 -0.5159
  566MOL0     H74698   2.432   5.519   8.444 -2.3278  2.4636 -1.2556
  566MOL0     H74699   2.640   5.612   8.399  2.6207  0.8995 -0.8313
  566MOL0     H74700   3.142   5.420   8.359 -0.3402 -0.4832  0.9224
  566MOL0     H74701   3.379   5.492   8.300 -1.2391 -1.0894  1.0515
  566MOL0     H74702   3.452   5.817   8.014  2.0542 -0.5432  2.1117
  566MOL0     H74703   3.397   5.684   7.907 -0.8679  0.3786  0.4598
  566MOL0     H74704   3.618   5.588   7.917 -2.1580  0.5941 -2.9093
  566MOL0     H74705   3.639   5.745   7.854  0.4988 -1.7883  0.0515
  566MOL0     H74706   3.718   5.668   8.131 -0.0465 -2.3330 -1.1935
  566MOL0     H74707   3.688   5.837   8.079  1.5764  1.3240 -1.0292
  566MOL0     H74708   3.860   5.801   7.890  0.1202  2.2092  1.1850
  566MOL0     H74709   3.919   5.813   8.055 -2.1576 -2.3566  3.5887
  566MOL0     H74710   4.092   5.461   7.945  0.8240  0.2859 -0.1911
  566MOL0     H74711   3.211   5.733   7.994  1.8191 -0.3619 -0.7623
  566MOL0     H74712   2.992   5.708   8.085  0.5989  0.6692  0.1029
  567MOL0     O74713   5.207   4.014   5.507  0.0673  0.0474  0.0263
  567MOL0     C74714   5.206   3.895   5.474  0.1406 -0.0036  0.4733
  567MOL0     O74715   5.104   3.810   5.470 -0.2832 -0.2639 -0.9687
  567MOL0     C74716   4.972   3.857   5.464  0.0069  0.2163 -0.5860
  567MOL0     C74717   4.923   3.965   5.384 -0.6006 -0.3926 -0.0083
  567MOL0     C74718   4.788   4.003   5.385  1.1694 -0.7992 -0.1111
  567MOL0     C74719   4.692   3.930   5.468 -0.4970 -0.5572  0.5830
  567MOL0     O74720   4.558   3.955   5.491  0.7495  0.6579 -0.6547
  567MOL0     C74721   4.494   4.071   5.438 -0.2909  0.6015  0.3392
  567MOL0     C74722   4.344   4.081   5.472  0.3674 -0.4326 -0.2009
  567MOL0     C74723   4.267   3.958   5.432  1.2327  0.4883  0.4087
  567MOL0     C74724   4.120   3.975   5.465 -0.1286  0.5739 -0.5175
  567MOL0     C74725   4.037   3.866   5.396  1.0790  0.5438  0.7804
  567MOL0     C74726   3.884   3.882   5.402 -1.3064  0.3242  0.0583
  567MOL0     C74727   3.805   3.765   5.349 -0.1869  0.7948 -0.1477
  567MOL0     C74728   3.656   3.771   5.375 -0.1398 -0.4571 -0.6224
  567MOL0     N74729   3.586   3.642   5.357  0.4008  0.0921  0.1572
  567MOL0     C74730   3.471   3.597   5.416  0.6063 -0.8988  1.0963
  567MOL0     C74731   3.469   3.467   5.382 -0.2862 -0.2101 -0.0624
  567MOL0     C74732   3.354   3.366   5.399 -0.6060 -0.4965 -0.9181
  567MOL0     C74733   3.352   3.302   5.533  0.4643  0.5431 -0.1896
  567MOL0     C74734   3.234   3.205   5.536 -0.5002 -0.9046 -0.9310
  567MOL0     C74735   3.100   3.282   5.557 -0.5372 -0.4719  0.1864
  567MOL0     O74736   3.103   3.351   5.687  0.3312 -0.3201  1.0443
  567MOL0     C74737   2.985   3.321   5.754 -0.0190  0.0250 -0.6723
  567MOL0     C74738   2.888   3.421   5.758  0.0091  0.5999  0.3551
  567MOL0     C74739   2.769   3.397   5.820  0.4372 -0.0150 -0.2677
  567MOL0     C74740   2.744   3.269   5.888 -0.2921  0.5070  0.3708
  567MOL0     C74741   2.614   3.244   5.957  0.0281 -0.0824 -0.1057
  567MOL0     O74742   2.527   3.345   5.959  0.4810 -0.3616  0.2660
  567MOL0     C74743   2.399   3.308   5.968 -0.5274 -0.0793  0.3065
  567MOL0     C74744   2.344   3.282   6.092 -0.0680  0.4440 -0.1071
  567MOL0     C74745   2.206   3.252   6.099  0.3653  0.7264 -0.0870
  567MOL0     C74746   2.128   3.256   5.985 -0.2735 -0.7093  0.1530
  567MOL0     O74747   1.990   3.224   5.988  0.6681  1.5453 -0.0468
  567MOL0     C74748   1.934   3.177   6.110  0.5371 -0.6589  0.5171
  567MOL0     C74749   1.784   3.141   6.075  0.0007  0.0073  0.0845
  567MOL0     C74750   1.704   3.098   6.204 -0.6488  0.2865  0.5590
  567MOL0     C74751   1.563   3.048   6.168  0.1071  0.3644  0.1259
  567MOL0     C74752   1.479   2.984   6.284 -0.3777  0.2009  0.1694
  567MOL0     C74753   1.443   3.087   6.394 -0.1173 -0.0267  0.0287
  567MOL0     C74754   1.372   3.015   6.505  0.4072  0.0459  0.2557
  567MOL0     C74755   1.323   3.112   6.616  0.7387 -0.4242 -0.2786
  567MOL0    Cl74756   1.191   3.218   6.560 -0.0067  0.3939 -0.4442
  567MOL0     C74757   2.184   3.296   5.864  0.2253  0.3358  0.0125
  567MOL0     C74758   2.320   3.315   5.853  0.1504 -0.2715  0.2771
  567MOL0     O74759   2.593   3.129   6.002 -0.3939 -0.2907 -0.7236
  567MOL0     C74760   2.839   3.166   5.868  0.2691 -0.4663 -0.1275
  567MOL0     C74761   2.961   3.190   5.807  0.7218  0.5909 -0.1356
  567MOL0     N74762   3.585   3.438   5.311  0.3515 -0.8802  1.1859
  567MOL0     N74763   3.664   3.542   5.302  0.2242  0.7567 -0.8790
  567MOL0     C74764   4.745   3.819   5.548  0.2387 -0.2347 -0.5143
  567MOL0     C74765   4.882   3.784   5.544 -0.0356 -0.7676 -0.0430
  567MOL0     C74766   5.345   3.855   5.436  0.6686 -0.5710 -0.7710
  567MOL0     C74767   5.447   3.956   5.433  0.8759  0.4720 -0.6204
  567MOL0     C74768   5.584   3.922   5.428 -0.4100  0.2727  0.3100
  567MOL0     C74769   5.615   3.779   5.407 -0.2408 -0.9131 -0.6791
  567MOL0     O74770   5.743   3.739   5.401 -0.2920  0.3206 -0.1830
  567MOL0     C74771   5.801   3.779   5.280  0.6209 -0.9997  0.6960
  567MOL0     C74772   5.933   3.706   5.254 -0.0656  0.4530 -0.1174
  567MOL0     C74773   5.986   3.723   5.116 -0.0187 -0.2064 -0.6081
  567MOL0     C74774   6.135   3.689   5.101 -0.0574  0.4988 -0.1152
  567MOL0     C74775   6.166   3.700   4.960  0.1111  0.8375 -0.1508
  567MOL0     C74776   6.201   3.714   4.844 -0.1154  0.4130  0.2214
  567MOL0     C74777   5.514   3.693   5.388  0.4624  0.4694 -0.8493
  567MOL0     C74778   5.376   3.728   5.407 -0.6096  0.5897  0.1669
  567MOL0     H74779   5.005   4.012   5.330  0.6883 -2.0062  0.4432
  567MOL0     H74780   4.739   4.087   5.338  0.8343 -0.3360  1.0364
  567MOL0     H74781   4.491   4.059   5.329  1.7239  2.4870  0.0008
  567MOL0     H74782   4.551   4.160   5.466 -1.1737  1.4843 -0.5817
  567MOL0     H74783   4.306   4.182   5.459  2.0440  0.0984 -1.3886
  567MOL0     H74784   4.336   4.083   5.581  1.3015  1.3474 -0.1318
  567MOL0     H74785   4.304   3.864   5.474 -1.2779 -2.0195 -2.4995
  567MOL0     H74786   4.283   3.950   5.324 -0.7302  0.2034  0.0974
  567MOL0     H74787   4.107   3.973   5.573 -2.3367 -1.9771 -0.7112
  567MOL0     H74788   4.077   4.066   5.422  1.3903  0.5479 -2.2437
  567MOL0     H74789   4.061   3.770   5.444  0.2877 -0.8449 -1.4217
  567MOL0     H74790   4.067   3.855   5.292  2.5501  3.0890  0.8616
  567MOL0     H74791   3.852   3.977   5.359 -2.3038  1.2577  2.6409
  567MOL0     H74792   3.870   3.896   5.510  3.1717 -0.5835  0.9512
  567MOL0     H74793   3.822   3.766   5.241  2.3122  3.0050  0.1670
  567MOL0     H74794   3.846   3.674   5.394  0.2439  2.2210  2.5679
  567MOL0     H74795   3.617   3.845   5.304  2.1665 -0.5552 -2.0894
  567MOL0     H74796   3.632   3.812   5.473  1.9892  0.2283 -0.3426
  567MOL0     H74797   3.404   3.660   5.473  3.4466  1.5453  2.0453
  567MOL0     H74798   3.349   3.293   5.318 -1.0159 -1.6278  0.1000
  567MOL0     H74799   3.263   3.425   5.388 -0.2170  0.2896 -0.0073
  567MOL0     H74800   3.337   3.369   5.618  0.7679  1.3205 -0.7433
  567MOL0     H74801   3.440   3.239   5.546  0.9965  1.2191 -0.4358
  567MOL0     H74802   3.228   3.146   5.444  0.5061  1.2828 -2.4752
  567MOL0     H74803   3.250   3.139   5.623 -0.6014  2.2352  1.6572
  567MOL0     H74804   3.028   3.200   5.564  0.1938 -1.0505  1.2756
  567MOL0     H74805   3.087   3.358   5.479  1.4558  1.5809  1.7289
  567MOL0     H74806   2.919   3.513   5.710 -1.4712 -0.3602 -2.7084
  567MOL0     H74807   2.696   3.477   5.824  0.9022  0.3679  1.0371
  567MOL0     H74808   2.413   3.260   6.173  2.2557  0.1387 -2.0840
  567MOL0     H74809   2.163   3.235   6.197  2.5095 -0.9309  0.6490
  567MOL0     H74810   1.938   3.262   6.178 -0.3134 -0.1408 -0.0556
  567MOL0     H74811   1.989   3.092   6.151  1.2418  0.1197  1.2027
  567MOL0     H74812   1.783   3.058   6.003 -0.5903  1.9765 -2.3171
  567MOL0     H74813   1.738   3.224   6.022  1.0997  0.9649  0.5821
  567MOL0     H74814   1.697   3.175   6.282 -0.0213 -1.9858  2.9939
  567MOL0     H74815   1.757   3.015   6.252  0.5449  0.6408 -0.1002
  567MOL0     H74816   1.504   3.132   6.128  0.5328  0.0342 -1.2104
  567MOL0     H74817   1.567   2.974   6.088  0.3540 -1.2932  1.6133
  567MOL0     H74818   1.536   2.908   6.339 -0.2985  0.5690  0.6024
  567MOL0     H74819   1.391   2.937   6.241  0.1224 -1.2148  0.6405
  567MOL0     H74820   1.380   3.166   6.354 -2.1266 -0.7133  1.6574
  567MOL0     H74821   1.536   3.134   6.425  0.4678 -2.2001  1.7919
  567MOL0     H74822   1.290   2.956   6.462  1.4803 -1.5406  0.3293
  567MOL0     H74823   1.448   2.952   6.551  1.0737  0.2904 -0.4968
  567MOL0     H74824   1.406   3.172   6.653 -0.1731 -0.0691  1.2773
  567MOL0     H74825   1.290   3.060   6.707  3.6541 -0.9336  0.5726
  567MOL0     H74826   2.110   3.301   5.785 -1.2887 -2.4396  1.1176
  567MOL0     H74827   2.362   3.339   5.755 -1.1434 -2.2736 -0.8275
  567MOL0     H74828   2.823   3.061   5.891 -0.2051 -0.3538  0.0857
  567MOL0     H74829   3.038   3.113   5.798 -0.6701 -0.8892  0.1676
  567MOL0     H74830   4.678   3.779   5.623 -2.0323  1.2656 -1.6188
  567MOL0     H74831   4.917   3.697   5.599  2.3668 -1.5310 -2.5913
  567MOL0     H74832   5.418   4.060   5.445  1.0438  0.5147 -0.5929
  567MOL0     H74833   5.655   4.003   5.418  0.6170 -0.8619 -2.5673
  567MOL0     H74834   5.816   3.886   5.264  2.6876 -1.5776 -2.0182
  567MOL0     H74835   5.733   3.751   5.198 -0.5019  0.5158  1.0602
  567MOL0     H74836   6.005   3.742   5.327  1.6349 -0.3155 -1.3545
  567MOL0     H74837   5.909   3.599   5.258 -0.7600  0.5156 -1.7049
  567MOL0     H74838   5.967   3.827   5.089 -2.8110 -0.6548 -0.6475
  567MOL0     H74839   5.928   3.654   5.054  1.0107 -0.4580 -1.3262
  567MOL0     H74840   6.199   3.750   5.165 -0.2594 -1.5065  2.1344
  567MOL0     H74841   6.150   3.584   5.129 -2.8481  0.1800  0.4748
  567MOL0     H74842   6.251   3.736   4.752 -0.7255  1.1430  0.0548
  567MOL0     H74843   5.548   3.591   5.376 -1.5867 -0.5322  1.0932
  567MOL0     H74844   5.297   3.654   5.401 -0.2515  0.3118 -1.4647
  568MOL0     O74845   1.782   2.890   5.748  0.2095 -0.1747  0.6629
  568MOL0     C74846   1.844   2.900   5.639  0.3137  0.2653  0.7716
  568MOL0     O74847   1.799   2.879   5.512  0.3387 -0.0885 -0.4655
  568MOL0     C74848   1.667   2.834   5.499 -0.7136  0.1202 -0.3582
  568MOL0     C74849   1.652   2.700   5.478 -0.1964 -0.0375 -0.1010
  568MOL0     C74850   1.527   2.643   5.470  0.4039 -0.8740  0.3809
  568MOL0     C74851   1.413   2.717   5.468 -0.5603 -0.1594  0.2513
  568MOL0     O74852   1.298   2.645   5.458 -0.6070  0.2094  0.5065
  568MOL0     C74853   1.176   2.703   5.517 -0.8330 -0.6510  0.2495
  568MOL0     C74854   1.065   2.596   5.517 -0.7156  0.1929  0.7145
  568MOL0     C74855   0.926   2.639   5.579  0.1982  0.0513 -0.7641
  568MOL0     C74856   0.846   2.510   5.605  1.6599  0.3608  0.0922
  568MOL0     C74857   0.692   2.535   5.571  0.0571 -0.1814 -0.3055
  568MOL0     C74858   0.668   2.547   5.420 -0.6665 -0.5912 -0.5145
  568MOL0     C74859   0.522   2.529   5.379  0.2040  1.0317 -0.3333
  568MOL0     C74860   0.481   2.609   5.257  0.3867 -0.3211 -0.6446
  568MOL0     N74861   0.352   2.581   5.192 -0.5771 -0.1329  0.1616
  568MOL0     C74862   0.323   2.473   5.114  0.4568  0.2344  0.8765
  568MOL0     C74863   0.188   2.486   5.090  0.4447  0.0348 -0.0999
  568MOL0     C74864   0.102   2.384   5.010 -0.5054 -0.0602  0.1467
  568MOL0     C74865  -0.041   2.375   5.067 -1.2306  0.1700  0.1095
  568MOL0     C74866  -0.108   2.244   5.026 -1.2436  0.5032 -0.6522
  568MOL0     C74867  -0.256   2.235   5.068  0.2060 -0.0577 -0.0203
  568MOL0     O74868  -0.336   2.339   5.005 -0.6588  0.1566  0.4583
  568MOL0     C74869  -0.473   2.309   4.996  0.5571  0.7109  0.5293
  568MOL0     C74870  -0.531   2.184   4.989  0.4162  0.5692  0.2343
  568MOL0     C74871  -0.677   2.167   4.993 -1.1371  1.3070 -0.2616
  568MOL0     C74872  -0.761   2.281   5.003 -0.0783  0.3739 -0.3517
  568MOL0     C74873  -0.903   2.266   4.990  0.1656 -0.4649  1.0211
  568MOL0     O74874  -0.956   2.150   4.929  0.4673 -0.5530 -0.1697
  568MOL0     C74875  -1.090   2.145   4.901  0.5623 -0.8530  0.0750
  568MOL0     C74876  -1.194   2.174   4.986  0.3868 -0.3381 -0.6677
  568MOL0     C74877  -1.327   2.145   4.951  0.1332 -0.3615  0.1749
  568MOL0     C74878  -1.364   2.099   4.823  0.1041  0.6016  0.1153
  568MOL0     O74879  -1.494   2.059   4.801 -0.0261 -0.2009  0.6984
  568MOL0     C74880  -1.525   1.985   4.685 -0.6059 -0.4557 -0.7445
  568MOL0     C74881  -1.644   1.906   4.716  0.0991  0.0443 -0.0291
  568MOL0     C74882  -1.773   1.991   4.713 -0.0166  0.4991  0.7525
  568MOL0     C74883  -1.895   1.909   4.748  0.5701  0.8677 -0.2156
  568MOL0     C74884  -2.027   1.986   4.728  0.6285 -0.5414  0.2409
  568MOL0     C74885  -2.047   2.109   4.821 -0.4096 -0.1901 -0.2900
  568MOL0     C74886  -2.041   2.087   4.976  0.6339  0.4384  0.6122
  568MOL0     C74887  -2.069   2.219   5.050  0.0266  0.0595 -0.8946
  568MOL0    Cl74888  -2.213   2.323   4.988  0.4170  0.1800  0.1568
  568MOL0     C74889  -1.255   2.077   4.728 -0.1924  0.9100  0.3217
  568MOL0     C74890  -1.125   2.098   4.770  0.1005  0.0767 -0.8344
  568MOL0     O74891  -0.969   2.362   5.014  0.5787 -0.0313 -0.1737
  568MOL0     C74892  -0.701   2.408   5.010 -0.8884  0.1238  0.3823
  568MOL0     C74893  -0.556   2.422   5.007  0.2728 -0.6163  0.4043
  568MOL0     N74894   0.139   2.601   5.147 -0.4699 -0.1369 -0.3102
  568MOL0     N74895   0.241   2.653   5.219 -0.2899 -0.3675  0.4992
  568MOL0     C74896   1.429   2.855   5.492  0.4261  0.6293 -1.0374
  568MOL0     C74897   1.555   2.921   5.499  0.3374 -0.6885  0.5513
  568MOL0     C74898   1.987   2.946   5.634 -0.4539 -0.8559 -0.1454
  568MOL0     C74899   2.059   2.967   5.753 -0.4917  0.6262  0.2282
  568MOL0     C74900   2.200   2.981   5.761  1.2716 -0.6181  0.5684
  568MOL0     C74901   2.269   2.992   5.640 -0.2558  0.0017 -0.8578
  568MOL0     O74902   2.398   3.007   5.656 -0.2678 -0.6539 -0.4517
  568MOL0     C74903   2.488   3.056   5.549  0.0403 -0.0135 -0.2128
  568MOL0     C74904   2.635   3.069   5.598  0.7603 -0.1240 -0.1845
  568MOL0     C74905   2.739   3.085   5.484 -1.1356  0.5168 -0.2646
  568MOL0     C74906   2.724   3.226   5.426  0.4773 -0.5276  0.1794
  568MOL0     C74907   2.824   3.242   5.327  0.2136 -0.1277  0.6271
  568MOL0     C74908   2.918   3.241   5.251  0.1131 -0.4578 -0.2517
  568MOL0     C74909   2.208   2.971   5.515  0.4392 -0.7155 -0.0548
  568MOL0     C74910   2.067   2.962   5.515  0.2825 -0.1997 -1.1908
  568MOL0     H74911   1.737   2.636   5.454  1.0577  2.0678 -1.7116
  568MOL0     H74912   1.510   2.539   5.447  0.1353 -0.4960 -1.2323
  568MOL0     H74913   1.138   2.782   5.452  2.1481  1.6254  1.0713
  568MOL0     H74914   1.190   2.748   5.615  0.8016 -1.2104  0.3025
  568MOL0     H74915   1.105   2.514   5.578  2.1574 -0.2291 -1.5464
  568MOL0     H74916   1.050   2.565   5.413 -3.1840  0.8306  0.8140
  568MOL0     H74917   0.872   2.714   5.520 -0.2437 -2.9350 -4.5492
  568MOL0     H74918   0.948   2.691   5.672  0.9551 -0.0180 -0.8945
  568MOL0     H74919   0.889   2.429   5.545  3.7805  0.7095  1.0570
  568MOL0     H74920   0.854   2.487   5.711 -0.4265  1.0515  0.4462
  568MOL0     H74921   0.661   2.628   5.619  2.9905 -0.4186  2.3657
  568MOL0     H74922   0.638   2.446   5.605  1.2383 -0.8992 -0.2400
  568MOL0     H74923   0.732   2.494   5.349 -0.1628  0.5160 -0.9289
  568MOL0     H74924   0.695   2.651   5.397 -2.2014  0.0672  0.4996
  568MOL0     H74925   0.520   2.421   5.362 -1.6408  1.1280 -0.9325
  568MOL0     H74926   0.452   2.550   5.460  0.7644 -1.0510  0.7707
  568MOL0     H74927   0.557   2.592   5.180 -1.2339 -1.0545 -2.1445
  568MOL0     H74928   0.486   2.716   5.278 -2.0007  0.2212 -2.4323
  568MOL0     H74929   0.392   2.400   5.074  0.5481 -0.0239  1.5062
  568MOL0     H74930   0.155   2.289   5.020 -0.1673  0.1065 -0.0242
  568MOL0     H74931   0.093   2.412   4.905 -2.4781 -1.4410 -0.1014
  568MOL0     H74932  -0.109   2.453   5.034 -2.2743 -0.1119  1.4790
  568MOL0     H74933  -0.014   2.373   5.173  1.5751 -2.4269 -0.4946
  568MOL0     H74934  -0.103   2.232   4.917 -0.0979 -1.4383 -0.4230
  568MOL0     H74935  -0.050   2.162   5.069 -3.5075 -0.1610  1.3555
  568MOL0     H74936  -0.285   2.222   5.172  0.4590  0.6666  0.1454
  568MOL0     H74937  -0.285   2.137   5.029 -0.6063  0.5862 -1.1166
  568MOL0     H74938  -0.470   2.096   4.973 -1.3901 -0.7877  0.5622
  568MOL0     H74939  -0.729   2.072   4.988  0.9375  0.0145  1.2495
  568MOL0     H74940  -1.165   2.224   5.078 -1.4334  1.4058 -0.9783
  568MOL0     H74941  -1.414   2.157   5.016 -0.8554 -0.0563 -1.1635
  568MOL0     H74942  -1.450   1.913   4.651 -1.3861 -1.9399  0.5676
  568MOL0     H74943  -1.537   2.058   4.604  1.9754  1.2762  0.2791
  568MOL0     H74944  -1.635   1.865   4.817  0.5259 -0.3533 -0.2238
  568MOL0     H74945  -1.645   1.827   4.640 -0.0622 -0.7383  0.7686
  568MOL0     H74946  -1.788   2.026   4.611 -0.4912 -1.3119  0.1620
  568MOL0     H74947  -1.753   2.075   4.780  3.9551  2.3829 -2.3490
  568MOL0     H74948  -1.888   1.817   4.690  1.5142  2.2456 -2.3915
  568MOL0     H74949  -1.893   1.875   4.852 -1.8956  2.4580  0.4450
  568MOL0     H74950  -2.116   1.925   4.743 -1.3856  2.2904  0.5755
  568MOL0     H74951  -2.030   2.021   4.624 -1.0319 -1.5522 -0.0976
  568MOL0     H74952  -2.136   2.161   4.783  0.6307  0.9847 -1.2356
  568MOL0     H74953  -1.962   2.172   4.794  1.9306 -3.4616 -1.0199
  568MOL0     H74954  -2.093   1.998   5.010  4.4089 -2.1368  0.3227
  568MOL0     H74955  -1.936   2.059   4.990  0.9671  1.0440 -0.4750
  568MOL0     H74956  -1.985   2.289   5.045  0.3453  0.1483  3.0166
  568MOL0     H74957  -2.081   2.195   5.156 -0.7903 -1.4095 -1.2948
  568MOL0     H74958  -1.258   2.047   4.624  3.1436 -2.7123  1.0428
  568MOL0     H74959  -1.046   2.085   4.697 -1.4894 -4.3200 -2.0913
  568MOL0     H74960  -0.757   2.500   5.018 -3.0383 -0.9309 -1.5176
  568MOL0     H74961  -0.506   2.518   5.000 -2.5293  0.9556  0.8716
  568MOL0     H74962   1.333   2.905   5.495 -0.1260 -0.4316 -0.3192
  568MOL0     H74963   1.574   3.026   5.515 -0.3916 -0.7525  1.9642
  568MOL0     H74964   1.994   2.976   5.840 -1.4932  2.4565 -0.6482
  568MOL0     H74965   2.246   2.987   5.859  0.0768  0.5122  1.0868
  568MOL0     H74966   2.462   3.147   5.494  0.6563  0.1072 -0.3109
  568MOL0     H74967   2.499   2.972   5.479 -1.2214  2.3671 -3.5432
  568MOL0     H74968   2.634   3.149   5.673 -4.2988  2.2067 -2.2438
  568MOL0     H74969   2.653   2.980   5.659 -1.7641 -0.7276 -0.1914
  568MOL0     H74970   2.726   2.999   5.417 -0.3689 -0.0324  0.2780
  568MOL0     H74971   2.834   3.078   5.536  0.1214  1.2848 -2.3194
  568MOL0     H74972   2.632   3.246   5.369  0.2728 -0.0708  0.6623
  568MOL0     H74973   2.729   3.296   5.509 -0.5070  0.7162 -0.7609
  568MOL0     H74974   3.005   3.252   5.189 -0.5454  0.8497 -0.9884
  568MOL0     H74975   2.267   2.985   5.425 -0.7443  3.7072 -0.3601
  568MOL0     H74976   2.020   2.959   5.417 -0.2400 -0.4490 -0.9379
  569MOL0     O74977   9.024   2.549   0.138 -0.8776 -0.6389  0.0464
  569MOL0     C74978   9.028   2.488   0.028 -0.7909 -0.4309  0.0632
  569MOL0     O74979   9.125   2.407  -0.022 -0.0160 -0.0418  0.0023
  569MOL0     C74980   9.244   2.376   0.039  0.5800 -0.7109  0.0976
  569MOL0     C74981   9.294   2.433   0.153  0.8576  0.6793 -0.4952
  569MOL0     C74982   9.412   2.393   0.212 -0.4231 -0.2374  0.1283
  569MOL0     C74983   9.495   2.294   0.151  0.2331  0.3089  0.1548
  569MOL0     O74984   9.622   2.263   0.182 -0.3772  0.5502 -0.1347
  569MOL0     C74985   9.652   2.273   0.327  0.2101  0.7101  1.2810
  569MOL0     C74986   9.797   2.254   0.356 -0.7442 -0.5884  0.1716
  569MOL0     C74987   9.879   2.364   0.287  0.7935  0.0423  0.6108
  569MOL0     C74988  10.017   2.376   0.333  0.1543 -0.0137  0.2106
  569MOL0     C74989  10.097   2.493   0.273  0.6657  0.3587 -0.1628
  569MOL0     C74990  10.086   2.522   0.123 -0.0518 -0.2268 -0.1754
  569MOL0     C74991  10.177   2.637   0.077 -0.0467 -0.4555  0.1606
  569MOL0     C74992  10.321   2.646   0.120 -0.2934  0.7821 -0.5431
  569MOL0     N74993  10.400   2.544   0.058  0.0100  0.9450  0.0306
  569MOL0     C74994  10.395   2.412   0.085  0.0062 -0.6307  0.2783
  569MOL0     C74995  10.487   2.351  -0.001  0.3382 -0.4232  0.8286
  569MOL0     C74996  10.501   2.202  -0.028  0.7767 -0.0244 -0.7272
  569MOL0     C74997  10.368   2.129  -0.060 -0.2185  0.4315 -0.4282
  569MOL0     C74998  10.318   2.195  -0.190  0.0860  0.5145  0.1141
  569MOL0     C74999  10.186   2.144  -0.248  0.4539  1.1113 -0.3810
  569MOL0     O75000  10.074   2.196  -0.173  0.3480  0.0056 -0.0179
  569MOL0     C75001   9.954   2.131  -0.173  0.5037 -0.0357 -0.6044
  569MOL0     C75002   9.888   2.112  -0.053  0.4577  0.2253  0.2052
  569MOL0     C75003   9.768   2.035  -0.060 -0.3797 -0.8423  0.3301
  569MOL0     C75004   9.711   1.990  -0.184  0.0042 -0.5322 -0.0404
  569MOL0     C75005   9.602   1.881  -0.186 -0.9108  0.2404 -0.3564
  569MOL0     O75006   9.506   1.884  -0.087  0.0542 -0.3118 -0.2485
  569MOL0     C75007   9.404   1.790  -0.065 -0.8179 -0.0458 -0.2500
  569MOL0     C75008   9.338   1.714  -0.156 -0.3047  0.6409  0.5460
  569MOL0     C75009   9.249   1.620  -0.109 -0.3131 -0.0971  0.4390
  569MOL0     C75010   9.204   1.607   0.024  0.7854 -0.0437  0.2218
  569MOL0     O75011   9.095   1.526   0.049 -0.7750 -0.1560 -0.6158
  569MOL0     C75012   8.984   1.567   0.126  0.1608  0.0836  0.1940
  569MOL0     C75013   8.880   1.648   0.047  0.0548  0.5194  0.3541
  569MOL0     C75014   8.815   1.567  -0.056  0.4211 -0.0354  0.3744
  569MOL0     C75015   8.670   1.589  -0.111  0.2768 -0.3638 -0.8768
  569MOL0     C75016   8.561   1.531  -0.023 -0.2093  0.7037 -0.6616
  569MOL0     C75017   8.571   1.584   0.118 -0.1971  0.5199 -0.5029
  569MOL0     C75018   8.464   1.519   0.211  0.9792  0.5592  0.1696
  569MOL0     C75019   8.516   1.389   0.279 -0.4536 -0.4234 -0.0473
  569MOL0    Cl75020   8.665   1.416   0.383 -0.1641  0.4004  0.2083
  569MOL0     C75021   9.261   1.696   0.112 -0.2936 -0.1640 -0.2075
  569MOL0     C75022   9.365   1.785   0.068  0.1315 -0.5362 -0.2964
  569MOL0     O75023   9.594   1.806  -0.287 -0.2692  0.1501  0.2362
  569MOL0     C75024   9.779   2.033  -0.297 -0.6030  0.0855  1.2101
  569MOL0     C75025   9.899   2.102  -0.296  0.6306  0.2431 -0.0254
  569MOL0     N75026  10.538   2.450  -0.075 -0.0596 -0.4291  0.5028
  569MOL0     N75027  10.502   2.562  -0.029  0.1503  0.3584  0.5316
  569MOL0     C75028   9.441   2.237   0.040  0.0220  0.3146 -0.2972
  569MOL0     C75029   9.316   2.270  -0.014 -0.3561  1.0948 -1.1218
  569MOL0     C75030   8.906   2.499  -0.053  0.2593  0.3357 -0.9774
  569MOL0     C75031   8.791   2.566  -0.009 -0.8495  0.1273 -0.1154
  569MOL0     C75032   8.675   2.557  -0.088  0.2441  0.3113 -0.9262
  569MOL0     C75033   8.668   2.477  -0.206 -0.3786 -0.7412 -0.4873
  569MOL0     O75034   8.549   2.489  -0.277 -0.3881  0.1746 -0.6928
  569MOL0     C75035   8.469   2.378  -0.263 -0.1405 -0.3707  0.5259
  569MOL0     C75036   8.373   2.374  -0.371  0.8942 -0.4815  0.3512
  569MOL0     C75037   8.272   2.254  -0.376  0.4986  0.0405  0.2377
  569MOL0     C75038   8.148   2.288  -0.457  0.6538  0.0996  0.4648
  569MOL0     C75039   8.165   2.328  -0.592  0.2156 -0.5224  0.1573
  569MOL0     C75040   8.188   2.368  -0.707  0.7009 -0.0700  0.3529
  569MOL0     C75041   8.785   2.417  -0.252  1.0011 -0.0150 -0.1669
  569MOL0     C75042   8.897   2.422  -0.171  0.2229  0.3633 -0.2852
  569MOL0     H75043   9.251   2.522   0.196 -2.2541 -0.5825 -0.7321
  569MOL0     H75044   9.449   2.447   0.298  3.0483 -0.3318 -1.1365
  569MOL0     H75045   9.584   2.206   0.379 -2.1760  0.5535 -1.7280
  569MOL0     H75046   9.628   2.375   0.360 -1.8731  0.4635  0.7249
  569MOL0     H75047   9.836   2.155   0.331 -2.1445 -0.4348 -3.1811
  569MOL0     H75048   9.798   2.273   0.464  1.4962 -1.4673  0.3681
  569MOL0     H75049   9.829   2.460   0.306 -0.0658 -0.1887 -0.3614
  569MOL0     H75050   9.892   2.350   0.179  1.8760 -0.8614  0.8408
  569MOL0     H75051  10.020   2.371   0.442  0.9040  1.1189  0.2502
  569MOL0     H75052  10.064   2.286   0.292 -0.1535 -0.8400  1.5896
  569MOL0     H75053  10.200   2.472   0.303  1.0694 -2.1160 -2.7897
  569MOL0     H75054  10.052   2.579   0.323 -2.2325 -1.3080  0.3580
  569MOL0     H75055   9.981   2.542   0.099 -0.9341 -2.8987  1.1168
  569MOL0     H75056  10.106   2.433   0.063 -0.1525 -0.9126  0.7959
  569MOL0     H75057  10.186   2.620  -0.031 -0.8774 -0.0907  0.0278
  569MOL0     H75058  10.137   2.736   0.100  0.2379 -0.7473  2.0169
  569MOL0     H75059  10.340   2.647   0.227  3.3183 -0.0431 -1.0468
  569MOL0     H75060  10.369   2.738   0.083  1.1703 -0.0271 -0.7460
  569MOL0     H75061  10.319   2.363   0.145 -1.4246  2.7848  1.5147
  569MOL0     H75062  10.540   2.151   0.061 -0.3985  1.4986  0.7195
  569MOL0     H75063  10.572   2.184  -0.109  2.1954  0.2451  0.4018
  569MOL0     H75064  10.289   2.140   0.015  0.5405 -0.4754  0.5233
  569MOL0     H75065  10.397   2.028  -0.089  1.1881  1.9704 -5.5403
  569MOL0     H75066  10.302   2.303  -0.177  0.2755  0.8396 -2.0488
  569MOL0     H75067  10.397   2.189  -0.265  3.7081 -0.2442  3.5886
  569MOL0     H75068  10.191   2.034  -0.252 -0.4469  0.9896  1.1019
  569MOL0     H75069  10.171   2.193  -0.345 -0.3750  2.0223  0.2026
  569MOL0     H75070   9.940   2.140   0.038 -0.6520 -0.3300  1.0383
  569MOL0     H75071   9.719   1.998   0.030  2.9521 -1.7540  1.9507
  569MOL0     H75072   9.358   1.722  -0.263  0.8126 -2.6812  0.4037
  569MOL0     H75073   9.189   1.553  -0.169 -1.0200 -1.0596  2.1506
  569MOL0     H75074   9.017   1.616   0.218 -3.0667 -0.7967  1.9801
  569MOL0     H75075   8.931   1.477   0.159 -0.4411  0.2901 -0.1873
  569MOL0     H75076   8.943   1.727   0.005  1.6398 -0.2341  1.2142
  569MOL0     H75077   8.807   1.693   0.114  0.8155  2.4441 -0.0500
  569MOL0     H75078   8.827   1.460  -0.033  0.2485 -0.4505 -1.3562
  569MOL0     H75079   8.886   1.581  -0.138  0.7859  2.2407  1.0161
  569MOL0     H75080   8.640   1.694  -0.111 -0.1565 -0.3792  2.0954
  569MOL0     H75081   8.664   1.558  -0.215  0.6168  0.3322 -1.1069
  569MOL0     H75082   8.572   1.423  -0.017 -1.4161  0.6355  2.7690
  569MOL0     H75083   8.462   1.559  -0.060 -0.8081 -1.7718 -1.1019
  569MOL0     H75084   8.565   1.693   0.118  1.5786  0.6647  0.0462
  569MOL0     H75085   8.660   1.544   0.168 -0.7587 -0.4513 -0.2624
  569MOL0     H75086   8.439   1.590   0.290 -3.4736 -0.6216  0.1164
  569MOL0     H75087   8.378   1.501   0.146  0.0647 -0.2506  1.5573
  569MOL0     H75088   8.546   1.307   0.214 -0.9866 -1.2029  0.6747
  569MOL0     H75089   8.434   1.356   0.343  1.6013 -0.0575  2.9681
  569MOL0     H75090   9.229   1.689   0.215  0.8445 -1.1143  0.1115
  569MOL0     H75091   9.400   1.841   0.155 -3.3355 -0.4387  1.2127
  569MOL0     H75092   9.742   2.012  -0.397  1.6381  1.3483  0.0285
  569MOL0     H75093   9.937   2.125  -0.395 -1.2988  1.0238 -0.6375
  569MOL0     H75094   9.491   2.152  -0.006  2.3165  1.2278  0.3784
  569MOL0     H75095   9.273   2.235  -0.107 -2.0894  0.7141 -0.2260
  569MOL0     H75096   8.787   2.624   0.082 -0.0865  0.7081 -0.4391
  569MOL0     H75097   8.585   2.594  -0.039  1.3787  0.1633  1.4395
  569MOL0     H75098   8.412   2.393  -0.171  1.2216 -1.4260  1.6003
  569MOL0     H75099   8.527   2.286  -0.255  1.6399  0.7624  1.4794
  569MOL0     H75100   8.331   2.475  -0.360  0.5133 -0.7337  1.3064
  569MOL0     H75101   8.423   2.364  -0.468  1.9341  2.2453  0.5216
  569MOL0     H75102   8.244   2.231  -0.273  4.9144  2.0411  2.1568
  569MOL0     H75103   8.323   2.167  -0.420  0.5201  0.0823  0.1803
  569MOL0     H75104   8.091   2.195  -0.454  0.2941  0.2901 -0.2947
  569MOL0     H75105   8.097   2.369  -0.404  2.6823  3.1315 -1.9047
  569MOL0     H75106   8.199   2.415  -0.803  0.4938 -3.1086 -1.2873
  569MOL0     H75107   8.785   2.364  -0.347 -4.4206 -1.2950  0.1953
  569MOL0     H75108   8.988   2.379  -0.213 -0.4165 -0.0320 -1.2823
  570MOL0     O75109   3.507   9.474   1.352 -0.0397  0.1920 -0.0656
  570MOL0     C75110   3.531   9.363   1.393  0.0177  0.9379 -1.0709
  570MOL0     O75111   3.443   9.282   1.444  0.1224  0.3648  0.1928
  570MOL0     C75112   3.305   9.310   1.435  0.1818  0.4115  0.4183
  570MOL0     C75113   3.230   9.277   1.548  1.0460  0.4191  0.9964
  570MOL0     C75114   3.085   9.285   1.549 -0.0852  0.5732 -0.1553
  570MOL0     C75115   3.019   9.323   1.436  0.1756 -1.0280  0.2630
  570MOL0     O75116   2.883   9.302   1.431  0.2417 -0.5181 -0.0070
  570MOL0     C75117   2.806   9.343   1.314  0.2848  0.8320  0.0533
  570MOL0     C75118   2.684   9.255   1.328  0.0557 -0.5741 -0.6782
  570MOL0     C75119   2.611   9.261   1.473  0.0884  0.0674  0.0614
  570MOL0     C75120   2.458   9.239   1.481 -0.0520 -0.5726  0.0512
  570MOL0     C75121   2.401   9.122   1.393  0.4365 -0.2238  0.6476
  570MOL0     C75122   2.417   8.982   1.446 -0.9546 -0.5556  0.2613
  570MOL0     C75123   2.380   8.964   1.595  0.2389 -0.3028 -0.0247
  570MOL0     C75124   2.241   9.013   1.640 -0.1649  1.1057  0.1665
  570MOL0     N75125   2.134   8.938   1.579 -0.5920 -1.0829  0.2446
  570MOL0     C75126   2.080   8.818   1.615 -0.3256 -0.0950  0.1322
  570MOL0     C75127   1.984   8.796   1.517 -0.3286 -0.1946 -0.3568
  570MOL0     C75128   1.888   8.686   1.507  0.0535 -0.3164 -0.1108
  570MOL0     C75129   1.931   8.577   1.414 -0.2137 -0.0465  0.4445
  570MOL0     C75130   1.813   8.507   1.343 -0.3756  1.0557  0.7030
  570MOL0     C75131   1.856   8.401   1.239 -0.4972 -0.6189 -0.1960
  570MOL0     O75132   1.745   8.353   1.155 -0.0278  0.7841  0.2858
  570MOL0     C75133   1.646   8.265   1.202  0.1646  0.0728  0.1562
  570MOL0     C75134   1.557   8.216   1.105 -0.5440  0.2860 -0.3942
  570MOL0     C75135   1.439   8.145   1.131 -0.0171 -0.2601 -0.3758
  570MOL0     C75136   1.411   8.110   1.262 -0.0420 -0.1622  0.4988
  570MOL0     C75137   1.288   8.032   1.288  0.4680 -0.5477  0.0327
  570MOL0     O75138   1.233   8.038   1.414 -0.5273  0.5346 -0.5258
  570MOL0     C75139   1.117   7.971   1.429 -0.3836  1.6354  0.6066
  570MOL0     C75140   0.995   8.014   1.366  0.5917 -0.1839  0.3257
  570MOL0     C75141   0.873   7.941   1.362  0.1587  0.0093  0.2417
  570MOL0     C75142   0.864   7.815   1.431  0.1013 -0.5373 -0.0207
  570MOL0     O75143   0.746   7.740   1.440 -0.3192  0.0227 -0.3038
  570MOL0     C75144   0.632   7.788   1.378 -0.0116  0.4855  0.1430
  570MOL0     C75145   0.528   7.679   1.395  0.3657  0.0222 -0.0471
  570MOL0     C75146   0.389   7.709   1.329  0.7758  0.0244 -0.3228
  570MOL0     C75147   0.300   7.589   1.339 -0.1550  0.1760  0.0522
  570MOL0     C75148   0.158   7.628   1.284 -0.3535  0.4534  0.5559
  570MOL0     C75149   0.059   7.515   1.287  0.6918  0.0732 -0.0951
  570MOL0     C75150  -0.069   7.534   1.209  0.2064  0.0859  0.9320
  570MOL0     C75151  -0.126   7.386   1.177 -0.9664  0.1398 -0.8126
  570MOL0    Cl75152  -0.036   7.326   1.028 -0.6544 -0.4832 -0.5374
  570MOL0     C75153   0.987   7.773   1.490 -0.2378  0.7028  0.4018
  570MOL0     C75154   1.109   7.846   1.487 -0.0292 -0.3473  0.0315
  570MOL0     O75155   1.244   7.964   1.194  0.8149 -0.0930  0.1074
  570MOL0     C75156   1.495   8.153   1.367  1.1220 -0.0464 -0.0151
  570MOL0     C75157   1.619   8.226   1.335 -0.3968 -0.0298 -0.1712
  570MOL0     N75158   2.003   8.898   1.423  0.7565  0.4981 -0.5222
  570MOL0     N75159   2.075   8.988   1.470 -0.6178  0.5725  1.0530
  570MOL0     C75160   3.092   9.372   1.327  0.1396 -0.2233 -0.6021
  570MOL0     C75161   3.235   9.361   1.324  0.2615 -1.7169 -0.3572
  570MOL0     C75162   3.664   9.311   1.367  0.8824  0.1589  0.1494
  570MOL0     C75163   3.692   9.172   1.353  0.1442  0.5683 -0.2918
  570MOL0     C75164   3.820   9.129   1.342  0.5760  0.8595  0.1458
  570MOL0     C75165   3.927   9.214   1.331 -1.0599 -0.2439 -0.6950
  570MOL0     O75166   4.053   9.174   1.309  0.6392 -0.2405  0.0728
  570MOL0     C75167   4.079   9.036   1.329 -0.2925 -0.0056  0.3221
  570MOL0     C75168   4.230   9.011   1.314  0.8928 -0.0657 -1.1914
  570MOL0     C75169   4.302   9.060   1.436 -0.6244 -0.1734  1.3277
  570MOL0     C75170   4.328   9.214   1.445 -0.5342  0.4714 -0.3082
  570MOL0     C75171   4.423   9.246   1.332 -0.8123  0.0796 -0.7320
  570MOL0     C75172   4.504   9.271   1.248 -0.2132 -0.1318  0.2685
  570MOL0     C75173   3.904   9.347   1.343  0.6170  0.4398  0.5216
  570MOL0     C75174   3.773   9.397   1.362 -0.4370  0.1048  0.3739
  570MOL0     H75175   3.283   9.226   1.628  1.6363 -1.2987 -0.4236
  570MOL0     H75176   3.032   9.256   1.639 -0.7042 -1.8668 -1.2158
  570MOL0     H75177   2.856   9.322   1.219 -1.2972  0.1941 -0.6824
  570MOL0     H75178   2.774   9.447   1.322 -3.9182 -0.4102  3.0355
  570MOL0     H75179   2.717   9.151   1.320  0.5057 -0.4808 -0.1173
  570MOL0     H75180   2.615   9.275   1.246 -0.5562 -5.8642 -1.8526
  570MOL0     H75181   2.629   9.360   1.518 -0.9974  0.1640  0.3089
  570MOL0     H75182   2.654   9.189   1.544  1.1351  0.6548  0.0486
  570MOL0     H75183   2.421   9.226   1.583 -1.0063  1.3078 -0.0132
  570MOL0     H75184   2.418   9.335   1.447  0.5372  0.0871  1.1587
  570MOL0     H75185   2.451   9.118   1.296 -1.8846  0.7292 -0.6680
  570MOL0     H75186   2.297   9.146   1.370 -0.5905 -2.3024  2.7132
  570MOL0     H75187   2.522   8.951   1.440 -0.8014  0.1741 -1.2376
  570MOL0     H75188   2.356   8.913   1.387  1.0566 -1.5713 -0.7477
  570MOL0     H75189   2.392   8.858   1.618  0.3491 -0.3413 -0.2675
  570MOL0     H75190   2.455   9.021   1.652  0.3082  0.5276 -0.9304
  570MOL0     H75191   2.227   9.120   1.624 -1.0785  0.7916 -1.2852
  570MOL0     H75192   2.241   8.988   1.747  1.7133 -0.5866 -0.1598
  570MOL0     H75193   2.102   8.750   1.696  0.7195 -1.9142 -1.5931
  570MOL0     H75194   1.791   8.729   1.480 -0.1446  0.3064  1.4868
  570MOL0     H75195   1.875   8.644   1.608 -0.6550  0.8346  0.2943
  570MOL0     H75196   1.985   8.497   1.466  2.0854  1.0985 -0.0442
  570MOL0     H75197   1.996   8.610   1.332 -1.3066 -0.2711 -0.5410
  570MOL0     H75198   1.748   8.461   1.418 -0.8618 -0.2214 -0.4773
  570MOL0     H75199   1.758   8.578   1.280  0.2973  1.5384  0.6434
  570MOL0     H75200   1.903   8.318   1.291  0.3583 -0.8849 -1.3528
  570MOL0     H75201   1.931   8.445   1.171  0.6809 -1.9188  0.2223
  570MOL0     H75202   1.581   8.248   1.004  3.7876  1.4912  0.7684
  570MOL0     H75203   1.369   8.116   1.054 -0.4010 -2.4531  0.7032
  570MOL0     H75204   0.986   8.110   1.316  1.5982  0.5281  1.4727
  570MOL0     H75205   0.795   7.996   1.309 -0.4571 -1.1931 -0.1249
  570MOL0     H75206   0.642   7.800   1.270 -0.6632  0.9286  0.1274
  570MOL0     H75207   0.599   7.880   1.428 -2.9386 -1.1120  1.4120
  570MOL0     H75208   0.513   7.645   1.498  0.9159 -2.0518 -0.6178
  570MOL0     H75209   0.558   7.588   1.344  0.0124 -0.4587  0.5898
  570MOL0     H75210   0.417   7.738   1.228  4.4770 -2.0770 -0.0773
  570MOL0     H75211   0.342   7.792   1.383  3.1294  0.2076  1.6530
  570MOL0     H75212   0.339   7.507   1.278 -1.2545 -1.3449  1.2749
  570MOL0     H75213   0.284   7.548   1.440 -1.5171  2.2594  0.7445
  570MOL0     H75214   0.172   7.658   1.180 -1.4232 -1.3128 -0.1222
  570MOL0     H75215   0.114   7.712   1.339  0.2611  0.6088  0.8297
  570MOL0     H75216   0.036   7.500   1.393  0.0761  2.1722  0.1334
  570MOL0     H75217   0.111   7.429   1.247 -0.8444 -1.2684  0.6545
  570MOL0     H75218  -0.134   7.597   1.270  0.7306  2.2596 -0.6207
  570MOL0     H75219  -0.060   7.589   1.115 -1.6011 -2.7679 -1.0747
  570MOL0     H75220  -0.233   7.402   1.166 -1.1382  1.1212  1.5300
  570MOL0     H75221  -0.112   7.317   1.262  1.1065  0.3950 -0.8892
  570MOL0     H75222   0.985   7.672   1.530  0.6705  0.4534 -0.1393
  570MOL0     H75223   1.193   7.814   1.549 -1.0731 -0.1431  1.6135
  570MOL0     H75224   1.468   8.132   1.470  2.1072 -1.2840  0.0120
  570MOL0     H75225   1.676   8.256   1.422  0.1408 -1.3485 -0.0410
  570MOL0     H75226   3.046   9.397   1.232  0.1440  0.5465 -0.4056
  570MOL0     H75227   3.286   9.380   1.230  0.0490 -1.5252 -0.4373
  570MOL0     H75228   3.625   9.087   1.349  3.9247 -2.7385  0.1089
  570MOL0     H75229   3.841   9.023   1.341  1.1707  0.9770  0.1663
  570MOL0     H75230   4.032   8.986   1.244  0.8886 -0.8015  0.1156
  570MOL0     H75231   4.039   8.990   1.420 -2.0785 -2.1714 -1.4469
  570MOL0     H75232   4.248   8.904   1.304 -1.5686 -0.5108 -1.3144
  570MOL0     H75233   4.265   9.059   1.222  0.8423  0.0760 -1.1367
  570MOL0     H75234   4.400   9.010   1.440 -0.5190 -0.0322  0.5545
  570MOL0     H75235   4.250   9.022   1.524 -0.4820 -0.7414  1.1712
  570MOL0     H75236   4.244   9.280   1.419 -2.0947 -1.1635  0.3619
  570MOL0     H75237   4.381   9.241   1.536 -0.9033 -1.4769  0.5321
  570MOL0     H75238   4.580   9.295   1.176 -0.4592 -0.4891 -0.1141
  570MOL0     H75239   3.993   9.410   1.344  0.3537  0.8214  1.9448
  570MOL0     H75240   3.749   9.501   1.383 -3.3843 -0.1148 -1.3971
  571MOL0     O75241   2.395  11.116   8.993 -0.9665  0.5124  0.3365
  571MOL0     C75242   2.431  11.023   9.069 -0.2778 -0.2116  0.1162
  571MOL0     O75243   2.546  10.957   9.062  0.3692 -0.8933  0.4487
  571MOL0     C75244   2.634  10.988   8.965 -0.4796  0.0199 -0.2526
  571MOL0     C75245   2.772  10.985   9.014 -1.2476 -1.6784 -0.6076
  571MOL0     C75246   2.870  11.032   8.922  0.4425  0.7233 -0.1483
  571MOL0     C75247   2.839  11.072   8.794 -0.0071  0.1123 -0.1864
  571MOL0     O75248   2.926  11.112   8.692  0.1606 -0.2152  0.5548
  571MOL0     C75249   3.070  11.114   8.714 -0.4956  0.1736 -0.3510
  571MOL0     C75250   3.121  10.981   8.667 -0.5906  0.1689  0.1059
  571MOL0     C75251   3.277  10.955   8.691  0.3453  0.0660 -0.6081
  571MOL0     C75252   3.370  11.073   8.660  0.3553  1.3403 -0.9759
  571MOL0     C75253   3.513  11.053   8.714  0.4694  0.3950  0.1575
  571MOL0     C75254   3.582  10.940   8.631  0.3237  0.2433 -0.3214
  571MOL0     C75255   3.728  10.967   8.610  0.5526  0.5325 -0.1933
  571MOL0     C75256   3.804  11.002   8.737  0.6066  0.1782 -0.5957
  571MOL0     N75257   3.935  11.053   8.713  0.7396  0.2115  0.4197
  571MOL0     C75258   4.049  10.984   8.671 -0.3460  0.5124  0.3587
  571MOL0     C75259   4.144  11.075   8.667 -0.1722 -0.5659 -0.0886
  571MOL0     C75260   4.294  11.059   8.645 -0.6538 -0.7355 -0.2807
  571MOL0     C75261   4.341  11.050   8.502 -1.0346  0.3462 -0.4624
  571MOL0     C75262   4.335  11.186   8.431  0.5933  0.2638  0.1399
  571MOL0     C75263   4.376  11.173   8.278 -0.3466 -0.4529  0.9752
  571MOL0     O75264   4.330  11.279   8.197 -0.3225 -0.0216  1.0774
  571MOL0     C75265   4.201  11.288   8.156 -1.4467 -0.9932  0.2308
  571MOL0     C75266   4.107  11.191   8.167 -0.5577 -0.3350 -0.4349
  571MOL0     C75267   3.979  11.204   8.095 -0.3795  0.3262  0.0393
  571MOL0     C75268   3.963  11.311   8.018 -1.0682  0.3930 -0.1323
  571MOL0     C75269   3.827  11.322   7.955  0.2745  0.5426  0.7579
  571MOL0     O75270   3.729  11.241   7.991  0.5740  0.0405  0.1786
  571MOL0     C75271   3.606  11.213   7.927 -0.0635  0.4648  0.4303
  571MOL0     C75272   3.556  11.102   7.976  0.4290  0.2367  0.3733
  571MOL0     C75273   3.431  11.058   7.929  0.2393  0.3081  0.0118
  571MOL0     C75274   3.369  11.131   7.826 -0.4984  0.3888  0.2690
  571MOL0     O75275   3.256  11.068   7.780  1.2225 -0.2778 -0.0981
  571MOL0     C75276   3.212  11.094   7.644  0.1862  0.4124  0.0044
  571MOL0     C75277   3.115  10.980   7.600 -0.9210 -1.3077 -1.2645
  571MOL0     C75278   3.004  10.941   7.707 -0.1615 -0.2594 -0.3012
  571MOL0     C75279   2.909  10.841   7.650 -0.0094  1.2851 -0.2340
  571MOL0     C75280   2.799  10.792   7.744  0.2883  0.1803  0.1431
  571MOL0     C75281   2.701  10.695   7.683 -0.7935 -0.0383 -0.1802
  571MOL0     C75282   2.615  10.747   7.577 -0.1904  0.0428 -0.2679
  571MOL0     C75283   2.487  10.668   7.551  0.0014  0.2117 -1.1321
  571MOL0    Cl75284   2.402  10.738   7.418  0.0228 -0.0375  0.4135
  571MOL0     C75285   3.426  11.244   7.770 -0.5306  0.6243 -0.0089
  571MOL0     C75286   3.550  11.284   7.819  0.0084 -0.2453 -0.7784
  571MOL0     O75287   3.819  11.415   7.873 -0.4880 -0.6543 -1.0816
  571MOL0     C75288   4.063  11.406   8.003  0.6069 -0.5197  0.2700
  571MOL0     C75289   4.179  11.399   8.077 -0.6958  0.1598  0.8897
  571MOL0     N75290   4.103  11.191   8.726  0.3285  0.4322  0.0096
  571MOL0     N75291   3.980  11.175   8.745 -0.3401  0.3287  0.2980
  571MOL0     C75292   2.701  11.067   8.759  0.1460 -0.6944  0.8867
  571MOL0     C75293   2.604  11.032   8.838 -0.3489 -0.2681  0.3880
  571MOL0     C75294   2.340  10.987   9.183 -0.0433  0.7010  1.2929
  571MOL0     C75295   2.368  10.874   9.255  0.0779  0.0924  0.0824
  571MOL0     C75296   2.277  10.825   9.344  0.7148 -0.3547  0.3190
  571MOL0     C75297   2.152  10.878   9.368  0.4631 -1.1093  0.2047
  571MOL0     O75298   2.060  10.806   9.438  1.1859  0.0675 -0.1972
  571MOL0     C75299   1.918  10.840   9.451  0.6947 -0.2650  0.4689
  571MOL0     C75300   1.843  10.792   9.325 -0.4049 -0.0121 -0.2538
  571MOL0     C75301   1.713  10.873   9.312  0.5513 -0.4343  0.6077
  571MOL0     C75302   1.629  10.811   9.202  0.2851 -0.3128  0.3819
  571MOL0     C75303   1.503  10.887   9.186 -0.1993 -0.6233 -0.1027
  571MOL0     C75304   1.407  10.962   9.192  0.5626 -0.8340 -0.0663
  571MOL0     C75305   2.121  10.996   9.302 -0.1502 -1.1871  0.3868
  571MOL0     C75306   2.215  11.053   9.212  0.3906  0.3607  0.0166
  571MOL0     H75307   2.803  10.955   9.113 -0.2074 -3.3751 -1.3933
  571MOL0     H75308   2.974  11.020   8.951  0.1173  0.0716  0.8293
  571MOL0     H75309   3.100  11.140   8.816 -2.1880  3.2034 -0.5200
  571MOL0     H75310   3.093  11.204   8.657 -3.2124 -0.0727 -2.0437
  571MOL0     H75311   3.107  10.984   8.559  0.1612 -0.1924 -0.0020
  571MOL0     H75312   3.069  10.893   8.706  1.6130 -3.0938 -3.6893
  571MOL0     H75313   3.289  10.863   8.633 -0.0024  0.0176 -0.6067
  571MOL0     H75314   3.284  10.926   8.796  1.1104  2.0946 -0.0462
  571MOL0     H75315   3.376  11.107   8.556  2.0549  0.7659 -1.1042
  571MOL0     H75316   3.336  11.148   8.731  2.5214  0.5402  1.0250
  571MOL0     H75317   3.500  11.029   8.820 -1.8139 -0.9519 -0.3683
  571MOL0     H75318   3.562  11.149   8.695 -1.6590  1.6559  0.7307
  571MOL0     H75319   3.532  10.924   8.535 -1.0236 -2.8800  0.7733
  571MOL0     H75320   3.569  10.852   8.694 -0.9810 -0.7008 -1.8409
  571MOL0     H75321   3.758  10.869   8.570 -2.3865 -0.4286 -0.2392
  571MOL0     H75322   3.745  11.039   8.529  1.2091 -0.9957 -1.4666
  571MOL0     H75323   3.808  10.909   8.795 -0.0235 -0.7020 -1.9037
  571MOL0     H75324   3.757  11.076   8.802 -2.2229 -1.7787 -0.2442
  571MOL0     H75325   4.053  10.880   8.642  0.4400  0.6862 -0.1729
  571MOL0     H75326   4.320  10.964   8.694 -1.5542 -0.9822 -0.2684
  571MOL0     H75327   4.347  11.145   8.687 -1.3448 -0.4240 -0.0401
  571MOL0     H75328   4.276  10.977   8.452  1.2583 -1.0150 -1.6064
  571MOL0     H75329   4.446  11.021   8.505 -0.7099  1.5326  0.6497
  571MOL0     H75330   4.232  11.222   8.435  0.9377  1.1831  3.4984
  571MOL0     H75331   4.397  11.261   8.481 -1.2286  1.6758  0.3999
  571MOL0     H75332   4.348  11.073   8.245  3.3314 -1.1471 -0.4996
  571MOL0     H75333   4.484  11.160   8.275 -0.3965 -0.9540 -2.4130
  571MOL0     H75334   4.127  11.097   8.217  1.5813 -0.9769 -2.3434
  571MOL0     H75335   3.909  11.121   8.092  0.5769 -0.5040  0.1197
  571MOL0     H75336   3.605  11.041   8.051  0.2523 -3.2639 -2.0647
  571MOL0     H75337   3.398  10.965   7.973  1.8306 -1.2533 -1.8916
  571MOL0     H75338   3.296  11.100   7.574  1.5178  0.4996  1.5500
  571MOL0     H75339   3.155  11.188   7.643 -2.5005 -1.0949 -2.0386
  571MOL0     H75340   3.176  10.891   7.584  3.7698  1.0253  1.5428
  571MOL0     H75341   3.059  11.021   7.515 -2.8043  3.8085  1.9372
  571MOL0     H75342   2.949  11.026   7.750 -1.4469 -1.8085  1.2820
  571MOL0     H75343   3.060  10.899   7.791  1.2488 -1.0422 -1.5943
  571MOL0     H75344   2.868  10.868   7.552  0.0625 -2.7079 -1.5497
  571MOL0     H75345   2.972  10.754   7.627 -0.0376  0.5726  2.1382
  571MOL0     H75346   2.743  10.881   7.775 -0.2992  0.6143 -1.9725
  571MOL0     H75347   2.836  10.737   7.830 -1.2357 -2.0005 -0.5075
  571MOL0     H75348   2.637  10.647   7.759 -0.4119  1.2071  0.9547
  571MOL0     H75349   2.766  10.619   7.638 -0.6262  1.8962 -3.5326
  571MOL0     H75350   2.596  10.847   7.617 -1.8299 -0.1876 -0.3860
  571MOL0     H75351   2.661  10.770   7.480  0.3569  4.4304  0.8643
  571MOL0     H75352   2.425  10.670   7.641  0.3554 -1.4055 -0.8181
  571MOL0     H75353   2.501  10.562   7.527 -2.5612 -0.1847 -1.1290
  571MOL0     H75354   3.382  11.294   7.684  0.3050 -1.9110 -2.0269
  571MOL0     H75355   3.587  11.379   7.781 -1.0427 -0.4634 -2.4479
  571MOL0     H75356   4.040  11.491   7.939  1.8544  0.0863  0.6007
  571MOL0     H75357   4.251  11.481   8.077 -0.6320  0.1242  2.2205
  571MOL0     H75358   2.670  11.107   8.663  0.8483 -0.8908  0.5671
  571MOL0     H75359   2.506  11.041   8.792 -0.0632  0.8820 -0.0122
  571MOL0     H75360   2.461  10.819   9.243 -1.6241 -3.6541  2.3880
  571MOL0     H75361   2.296  10.736   9.404 -1.5899 -0.9832  0.2456
  571MOL0     H75362   1.901  10.948   9.456  1.1824  0.0062 -2.1652
  571MOL0     H75363   1.881  10.793   9.543  2.5654 -0.6982  1.0532
  571MOL0     H75364   1.892  10.812   9.229 -3.0857 -1.6865 -2.1068
  571MOL0     H75365   1.828  10.686   9.345 -1.2266 -0.1466 -1.5160
  571MOL0     H75366   1.750  10.971   9.280  1.6624  0.8971  5.1807
  571MOL0     H75367   1.659  10.879   9.406  0.9320 -1.5541  0.9090
  571MOL0     H75368   1.681  10.822   9.106 -3.1973 -0.3043 -1.6604
  571MOL0     H75369   1.609  10.706   9.225 -0.4859 -1.0175 -2.9371
  571MOL0     H75370   1.335  11.039   9.211  3.1951  1.2915  2.1416
  571MOL0     H75371   2.020  11.035   9.311 -1.1772 -3.4352 -0.6826
  571MOL0     H75372   2.187  11.135   9.146  1.6684 -1.9146 -3.6442
  572MOL0     O75373   7.661  10.606   5.060  0.2648  0.8516  0.0103
  572MOL0     C75374   7.626  10.695   4.977  0.3102 -0.0058  0.0913
  572MOL0     O75375   7.496  10.711   4.927 -0.2396 -0.2725  0.4966
  572MOL0     C75376   7.394  10.649   4.993 -0.8058  0.4728  0.8320
  572MOL0     C75377   7.399  10.513   5.041 -0.5089 -0.3486  0.4414
  572MOL0     C75378   7.287  10.465   5.110 -0.4445  0.2401 -0.6864
  572MOL0     C75379   7.174  10.545   5.136 -0.2633  0.7283  0.3383
  572MOL0     O75380   7.066  10.498   5.211 -0.4412  0.1049 -0.1702
  572MOL0     C75381   7.005  10.376   5.169  0.0339  0.0367 -0.1771
  572MOL0     C75382   6.920  10.393   5.040  0.8142 -1.0545  1.0918
  572MOL0     C75383   6.843  10.520   5.066 -0.0117  0.1470  0.2027
  572MOL0     C75384   6.714  10.547   4.986  0.2140  0.0094  0.7371
  572MOL0     C75385   6.751  10.608   4.845  0.1643  0.3095  0.2412
  572MOL0     C75386   6.621  10.662   4.787  0.8033 -0.2891  0.3523
  572MOL0     C75387   6.620  10.671   4.636 -1.4741  0.5070  0.0777
  572MOL0     C75388   6.481  10.717   4.591 -0.5856  1.0803  0.4061
  572MOL0     N75389   6.474  10.860   4.575 -0.4302  0.8778  0.2100
  572MOL0     C75390   6.493  10.953   4.677 -0.0927  0.0912  0.0249
  572MOL0     C75391   6.508  11.069   4.605  0.1632  1.0813  0.6114
  572MOL0     C75392   6.533  11.204   4.665 -0.3090 -0.8972 -0.4809
  572MOL0     C75393   6.674  11.198   4.721 -0.4005 -0.3817 -0.0903
  572MOL0     C75394   6.714  11.317   4.795 -0.1140  0.6070  0.0752
  572MOL0     C75395   6.862  11.288   4.850  0.2617 -0.1672  0.4021
  572MOL0     O75396   6.861  11.308   4.994 -0.6799  0.1630  0.1143
  572MOL0     C75397   6.954  11.253   5.081 -1.5156 -0.3933  0.3152
  572MOL0     C75398   6.952  11.290   5.214 -0.8666 -0.6201 -0.2111
  572MOL0     C75399   7.052  11.254   5.305 -1.0627  0.4910 -0.1817
  572MOL0     C75400   7.155  11.157   5.266  0.3576 -1.5666  0.2677
  572MOL0     C75401   7.254  11.093   5.357  0.4916  0.4449 -0.6437
  572MOL0     O75402   7.299  11.170   5.464  0.4649 -0.0275  0.2359
  572MOL0     C75403   7.397  11.111   5.542 -0.3994 -0.2790  0.2710
  572MOL0     C75404   7.389  10.994   5.614 -0.6575 -0.7935 -0.3482
  572MOL0     C75405   7.500  10.948   5.687  0.4988 -0.2679 -0.6366
  572MOL0     C75406   7.626  11.012   5.684 -1.1194  0.0277 -0.8269
  572MOL0     O75407   7.754  10.974   5.742  0.6196 -0.0890  0.3459
  572MOL0     C75408   7.753  10.846   5.802  0.3624 -0.4539 -1.1288
  572MOL0     C75409   7.901  10.798   5.812  0.3974  0.1072  0.0554
  572MOL0     C75410   7.986  10.900   5.884  0.5618 -1.3288  0.8446
  572MOL0     C75411   8.121  10.829   5.911 -0.5467  0.4949 -0.0635
  572MOL0     C75412   8.227  10.930   5.949  0.1781 -0.2232  0.0354
  572MOL0     C75413   8.364  10.861   5.948 -0.2285  0.2109  0.2154
  572MOL0     C75414   8.474  10.954   6.006 -0.1696 -0.3502 -0.4750
  572MOL0     C75415   8.605  10.870   6.024 -0.3929  0.3102  0.1025
  572MOL0    Cl75416   8.598  10.737   6.140  0.3191  0.2042 -0.4344
  572MOL0     C75417   7.628  11.135   5.615 -0.6680  0.1574 -0.1803
  572MOL0     C75418   7.517  11.187   5.544 -0.1259 -0.1329  0.4359
  572MOL0     O75419   7.284  10.980   5.331 -0.1336 -0.0999 -0.8714
  572MOL0     C75420   7.149  11.117   5.128  0.1620  0.2756 -0.6444
  572MOL0     C75421   7.060  11.167   5.045  0.4994 -0.3137  0.3233
  572MOL0     N75422   6.501  11.049   4.460 -0.2918 -1.2511 -0.0237
  572MOL0     N75423   6.483  10.920   4.449  0.1124 -0.5020  0.0025
  572MOL0     C75424   7.170  10.675   5.087  0.5839  0.2865 -0.5712
  572MOL0     C75425   7.279  10.718   5.003  0.4973  0.1416 -0.0646
  572MOL0     C75426   7.721  10.795   4.924 -0.4679 -0.4620 -0.1515
  572MOL0     C75427   7.681  10.904   4.832 -0.3735  0.8371  0.4451
  572MOL0     C75428   7.785  10.977   4.785 -0.2246 -1.0887 -0.2366
  572MOL0     C75429   7.920  10.969   4.827  0.5379 -0.0716  0.8869
  572MOL0     O75430   8.018  11.054   4.785 -0.5385  0.5729 -0.1000
  572MOL0     C75431   7.996  11.156   4.685  0.2816  0.3757 -0.7389
  572MOL0     C75432   8.118  11.241   4.669  0.6538  0.2049 -0.9144
  572MOL0     C75433   8.105  11.344   4.557 -0.3298  0.2371 -0.6530
  572MOL0     C75434   8.214  11.457   4.558 -0.3076 -0.1999 -0.3448
  572MOL0     C75435   8.217  11.529   4.684 -0.3078 -0.3435  0.4566
  572MOL0     C75436   8.204  11.599   4.782  0.3924 -0.6021  0.1306
  572MOL0     C75437   7.955  10.866   4.915  0.2448  0.2518 -0.0832
  572MOL0     C75438   7.855  10.773   4.956  0.7168  0.4888  0.0246
  572MOL0     H75439   7.477  10.443   5.015 -1.1475 -1.3661  1.1852
  572MOL0     H75440   7.284  10.360   5.135 -0.2904  0.5199  0.5765
  572MOL0     H75441   6.932  10.356   5.248 -0.4165  0.2113 -0.5456
  572MOL0     H75442   7.079  10.296   5.160  0.3846  0.5617 -2.8819
  572MOL0     H75443   6.845  10.314   5.032 -1.7162  1.1092  1.9303
  572MOL0     H75444   6.982  10.403   4.950 -0.4934  3.0161  0.4449
  572MOL0     H75445   6.915  10.599   5.045  1.5131 -1.5535 -1.2465
  572MOL0     H75446   6.816  10.543   5.170  0.7634 -0.2066  0.4926
  572MOL0     H75447   6.649  10.461   4.964 -0.7742  1.6088 -3.6213
  572MOL0     H75448   6.644  10.618   5.032 -0.7967  0.9748 -2.0461
  572MOL0     H75449   6.814  10.541   4.786  3.1111 -0.5126  3.8938
  572MOL0     H75450   6.815  10.697   4.854  1.4764  0.1829 -4.7035
  572MOL0     H75451   6.604  10.760   4.831  2.1935 -0.2253  0.7814
  572MOL0     H75452   6.537  10.598   4.817 -2.9384  2.3704 -3.2948
  572MOL0     H75453   6.694  10.746   4.606 -1.5823  0.9911  1.0029
  572MOL0     H75454   6.653  10.570   4.608  0.0469  0.6597  1.1961
  572MOL0     H75455   6.405  10.668   4.653  1.9310  1.7839  4.3886
  572MOL0     H75456   6.465  10.682   4.488  0.1974  2.8053 -0.3371
  572MOL0     H75457   6.495  10.938   4.784 -0.5129  3.2607  0.5937
  572MOL0     H75458   6.455  11.229   4.738 -0.6757  0.2513 -1.2361
  572MOL0     H75459   6.523  11.277   4.584 -2.8313 -0.2645  0.2981
  572MOL0     H75460   6.745  11.188   4.639  0.0870 -0.8270  0.3810
  572MOL0     H75461   6.691  11.112   4.785  3.9639  1.8180  2.1437
  572MOL0     H75462   6.724  11.401   4.725 -0.3819  0.5431 -0.0413
  572MOL0     H75463   6.642  11.341   4.873 -0.4675 -1.2659  0.3724
  572MOL0     H75464   6.938  11.353   4.804  0.4668 -2.5111 -2.9697
  572MOL0     H75465   6.896  11.191   4.812  2.1966  1.0882 -1.3159
  572MOL0     H75466   6.881  11.368   5.242  1.0130  0.3040  2.2803
  572MOL0     H75467   7.062  11.285   5.408  0.9513 -0.7950  0.0809
  572MOL0     H75468   7.298  10.936   5.606 -1.0856 -0.0498 -1.0403
  572MOL0     H75469   7.487  10.857   5.745  1.2964 -0.5018 -0.8132
  572MOL0     H75470   7.691  10.773   5.749  0.6603 -2.4902  1.1395
  572MOL0     H75471   7.709  10.854   5.902  1.5695  0.0878 -0.6183
  572MOL0     H75472   7.942  10.789   5.711 -0.2711 -0.9562 -0.1421
  572MOL0     H75473   7.911  10.698   5.855  0.0901  0.0204 -0.0664
  572MOL0     H75474   7.940  10.936   5.977  2.1637 -2.1194  1.9981
  572MOL0     H75475   8.006  10.992   5.829  0.9303 -1.8742  0.0546
  572MOL0     H75476   8.113  10.760   5.996  1.0409  1.5986  1.0376
  572MOL0     H75477   8.147  10.771   5.822 -1.5128  0.0491 -0.0732
  572MOL0     H75478   8.192  10.979   6.040 -1.5675 -0.8793 -0.2415
  572MOL0     H75479   8.224  11.002   5.866  0.1791 -0.1644  0.0873
  572MOL0     H75480   8.401  10.843   5.846  0.0356  1.8715 -0.0115
  572MOL0     H75481   8.361  10.774   6.014 -0.3105  0.2310  0.2368
  572MOL0     H75482   8.500  11.033   5.935  0.2033 -2.5139 -2.9083
  572MOL0     H75483   8.440  10.992   6.103  4.0863 -0.4938  1.2986
  572MOL0     H75484   8.692  10.935   6.039  1.9429 -1.6833 -3.3391
  572MOL0     H75485   8.627  10.819   5.930 -1.2648  0.2703 -0.0916
  572MOL0     H75486   7.717  11.196   5.611 -0.9739  0.5293 -3.1728
  572MOL0     H75487   7.526  11.280   5.489  2.4169 -0.5006  0.1382
  572MOL0     H75488   7.229  11.057   5.088 -0.4775 -0.5597 -0.6929
  572MOL0     H75489   7.073  11.143   4.940  0.7017  0.1148  0.2478
  572MOL0     H75490   7.088  10.744   5.107  1.2097  1.0227 -0.4631
  572MOL0     H75491   7.277  10.817   4.958  1.1415 -0.4084 -1.3754
  572MOL0     H75492   7.577  10.920   4.805 -0.7356  1.7464  2.2743
  572MOL0     H75493   7.763  11.066   4.726 -0.7830 -1.3349 -0.4028
  572MOL0     H75494   7.907  11.216   4.706  1.1177  0.6492  2.6327
  572MOL0     H75495   7.990  11.098   4.593 -0.8200 -1.0438  0.1790
  572MOL0     H75496   8.136  11.291   4.765  1.3097 -0.4461 -0.6936
  572MOL0     H75497   8.200  11.169   4.665  0.5041 -0.0571  0.3912
  572MOL0     H75498   8.004  11.388   4.560 -1.2542 -1.7388 -1.2657
  572MOL0     H75499   8.099  11.294   4.460 -2.5965 -1.2882  0.1858
  572MOL0     H75500   8.306  11.399   4.552 -0.8498 -1.2684  1.1818
  572MOL0     H75501   8.206  11.531   4.477  1.0466 -0.2200 -0.5059
  572MOL0     H75502   8.203  11.648   4.877 -1.5680  1.4824 -0.8912
  572MOL0     H75503   8.060  10.859   4.940 -0.1005 -2.0524  0.9940
  572MOL0     H75504   7.871  10.679   5.008 -1.5924  0.5790  1.0166
  573MOL0     O75505   6.381   0.731   0.924 -0.7336  0.4987 -0.9994
  573MOL0     C75506   6.403   0.784   0.822 -0.3040 -0.2989 -0.2266
  573MOL0     O75507   6.309   0.854   0.739  0.2580 -0.0429 -0.4851
  573MOL0     C75508   6.178   0.830   0.762  0.3049  0.1124 -0.1910
  573MOL0     C75509   6.113   0.706   0.772 -0.8907 -0.4107  0.4283
  573MOL0     C75510   5.986   0.695   0.809 -0.5667 -0.4670  0.1887
  573MOL0     C75511   5.911   0.815   0.828 -1.0073 -0.2727 -0.2809
  573MOL0     O75512   5.785   0.811   0.883 -0.4688 -0.8334 -0.2984
  573MOL0     C75513   5.713   0.690   0.874  0.5428  0.5883  0.5119
  573MOL0     C75514   5.569   0.712   0.924  0.0602 -0.2474  0.1998
  573MOL0     C75515   5.487   0.766   0.807 -0.6759 -0.0336 -0.1065
  573MOL0     C75516   5.351   0.787   0.859  0.1883 -0.6579 -0.0837
  573MOL0     C75517   5.260   0.862   0.762 -1.0345  0.6408 -0.5253
  573MOL0     C75518   5.117   0.866   0.830  0.1097  0.1010  0.8720
  573MOL0     C75519   5.016   0.930   0.731  0.2040 -0.7520 -1.0945
  573MOL0     C75520   4.886   0.998   0.791 -0.1755  0.5531 -0.0497
  573MOL0     N75521   4.809   0.885   0.848 -0.4618 -0.4309  0.4919
  573MOL0     C75522   4.811   0.833   0.980 -0.1462 -0.6073  1.0395
  573MOL0     C75523   4.708   0.748   0.983  0.4050  0.6419 -0.1505
  573MOL0     C75524   4.645   0.699   1.106  0.0495  0.5588 -0.1283
  573MOL0     C75525   4.545   0.795   1.178 -0.1640 -0.1469 -0.2554
  573MOL0     C75526   4.465   0.727   1.287 -0.6801  0.7906  0.0122
  573MOL0     C75527   4.332   0.796   1.329  0.2842  0.0202 -0.3823
  573MOL0     O75528   4.247   0.808   1.212 -0.4666 -0.8120 -0.0319
  573MOL0     C75529   4.135   0.888   1.230  0.0503 -1.2949  0.0590
  573MOL0     C75530   4.060   0.920   1.114 -0.5226  0.7455 -0.0571
  573MOL0     C75531   3.949   1.006   1.121  0.3164 -0.2359  0.3804
  573MOL0     C75532   3.914   1.054   1.248  0.6086  0.2156  0.0181
  573MOL0     C75533   3.774   1.131   1.260 -0.3213 -0.0244  0.2550
  573MOL0     O75534   3.709   1.157   1.142 -0.0961 -0.2004 -0.0555
  573MOL0     C75535   3.584   1.219   1.147  0.2639  0.4714  0.6215
  573MOL0     C75536   3.556   1.298   1.034  0.3483 -1.4599 -0.9969
  573MOL0     C75537   3.433   1.365   1.023 -0.2261 -0.4586  0.7132
  573MOL0     C75538   3.334   1.346   1.118 -0.4418 -0.3704 -0.2147
  573MOL0     O75539   3.206   1.390   1.101 -0.1551  0.1431 -0.1446
  573MOL0     C75540   3.126   1.303   1.028  0.0573  0.2134 -0.1216
  573MOL0     C75541   3.019   1.363   0.930  0.2760 -0.1399 -0.5682
  573MOL0     C75542   2.939   1.464   1.010 -0.0056  0.3229 -0.8855
  573MOL0     C75543   2.832   1.511   0.917  0.4864  0.1626  0.6236
  573MOL0     C75544   2.739   1.619   0.969 -0.2158 -0.9311 -0.3500
  573MOL0     C75545   2.813   1.743   1.024 -0.5415  0.3954 -0.0805
  573MOL0     C75546   2.717   1.855   1.062 -0.4500  0.3374 -0.8801
  573MOL0     C75547   2.779   1.961   1.151 -0.3126  0.3987 -0.1441
  573MOL0    Cl75548   2.727   1.937   1.313  0.3202  0.2619  0.2728
  573MOL0     C75549   3.359   1.262   1.224 -0.9151 -0.5903  0.1108
  573MOL0     C75550   3.481   1.192   1.234  0.6774 -0.1264  0.2598
  573MOL0     O75551   3.739   1.161   1.373  0.2825 -0.3668  0.3865
  573MOL0     C75552   3.979   1.017   1.364  0.5324  0.1548 -0.6169
  573MOL0     C75553   4.097   0.940   1.352  0.3185  0.5446  0.3220
  573MOL0     N75554   4.655   0.739   0.854  0.1942  0.8730 -0.0334
  573MOL0     N75555   4.712   0.819   0.776 -0.1572  0.4516 -0.7301
  573MOL0     C75556   5.967   0.943   0.800  1.1321 -0.3753  0.7356
  573MOL0     C75557   6.101   0.943   0.769  0.0676 -0.3655  0.4374
  573MOL0     C75558   6.550   0.786   0.784  0.2639 -0.2481 -0.3501
  573MOL0     C75559   6.640   0.699   0.838  0.6302 -0.3892  0.3753
  573MOL0     C75560   6.775   0.695   0.800  0.4569 -0.1779 -0.1545
  573MOL0     C75561   6.822   0.789   0.700 -0.5189  0.1307 -0.2052
  573MOL0     O75562   6.959   0.784   0.674 -0.3844 -0.0121  0.3233
  573MOL0     C75563   7.022   0.891   0.604 -0.6573 -0.4204 -0.3302
  573MOL0     C75564   7.170   0.866   0.568 -0.1667  0.1986 -0.2053
  573MOL0     C75565   7.185   0.755   0.463  0.2471  0.4402 -0.0032
  573MOL0     C75566   7.220   0.623   0.516  0.1732  0.1626 -0.3797
  573MOL0     C75567   7.361   0.620   0.547 -0.2944 -0.1180 -0.9484
  573MOL0     C75568   7.479   0.623   0.586 -0.2913 -0.2811  0.4993
  573MOL0     C75569   6.727   0.880   0.648  0.2184  1.0645  0.7660
  573MOL0     C75570   6.598   0.871   0.689  0.4049 -0.5703  0.3708
  573MOL0     H75571   6.174   0.616   0.768  0.3572  0.4304  0.1511
  573MOL0     H75572   5.954   0.591   0.814 -0.1211 -0.9345 -3.7615
  573MOL0     H75573   5.759   0.612   0.937  0.4563 -0.6351 -0.8811
  573MOL0     H75574   5.713   0.651   0.772  0.1703  1.4741  0.1664
  573MOL0     H75575   5.563   0.783   1.006 -0.0284 -1.0629  0.9199
  573MOL0     H75576   5.532   0.616   0.962 -0.5234  0.5631  1.7725
  573MOL0     H75577   5.489   0.696   0.723 -1.0307 -1.7303  1.2401
  573MOL0     H75578   5.530   0.863   0.778  0.1939 -0.0376  1.0858
  573MOL0     H75579   5.293   0.696   0.875 -2.3065  0.9915  0.8128
  573MOL0     H75580   5.363   0.839   0.955  2.3204 -1.0060 -0.1130
  573MOL0     H75581   5.247   0.804   0.670 -1.6158 -1.4132  0.7732
  573MOL0     H75582   5.293   0.963   0.737 -2.2937  1.3177  0.3933
  573MOL0     H75583   5.124   0.931   0.918  3.0653 -1.2837  1.7686
  573MOL0     H75584   5.090   0.763   0.855 -1.3097  0.3384  0.4186
  573MOL0     H75585   5.065   1.014   0.681  0.6213 -1.1408 -1.3345
  573MOL0     H75586   4.988   0.856   0.656  0.4624 -2.0048  0.0118
  573MOL0     H75587   4.836   1.050   0.709 -1.2788 -0.7967 -0.2816
  573MOL0     H75588   4.915   1.065   0.872 -1.0676  0.0061  0.7475
  573MOL0     H75589   4.865   0.874   1.064 -1.4095 -3.3126  3.3437
  573MOL0     H75590   4.730   0.677   1.172  0.7950  3.4814  0.0467
  573MOL0     H75591   4.584   0.615   1.074  3.2092 -0.9251 -2.9067
  573MOL0     H75592   4.476   0.817   1.095  1.5167 -1.3139 -2.0340
  573MOL0     H75593   4.584   0.888   1.220 -1.6283  0.4627 -0.1814
  573MOL0     H75594   4.453   0.621   1.262  1.3847  1.3219 -4.2019
  573MOL0     H75595   4.533   0.733   1.373 -0.5980  2.6510 -0.1519
  573MOL0     H75596   4.352   0.895   1.371 -1.2267  0.8364 -1.4748
  573MOL0     H75597   4.286   0.732   1.406 -2.8277  0.9952 -1.2803
  573MOL0     H75598   4.083   0.875   1.018 -1.3866  0.3845 -0.1005
  573MOL0     H75599   3.891   1.017   1.030  0.7231 -1.2751 -0.0215
  573MOL0     H75600   3.636   1.317   0.963 -0.2231  0.6843 -1.1253
  573MOL0     H75601   3.428   1.416   0.928  1.5067 -3.9567 -1.4628
  573MOL0     H75602   3.071   1.242   1.100  0.9790 -0.8478 -0.2913
  573MOL0     H75603   3.181   1.223   0.979 -3.4852 -1.6762 -1.4028
  573MOL0     H75604   2.953   1.288   0.886 -0.4672 -0.7953  1.5100
  573MOL0     H75605   3.076   1.421   0.857  1.0017  1.5980  1.2716
  573MOL0     H75606   3.001   1.547   1.046  2.2799 -0.8010 -2.0469
  573MOL0     H75607   2.901   1.424   1.105  0.0806 -0.2128 -1.0765
  573MOL0     H75608   2.878   1.547   0.825  1.3686 -2.4268 -0.0427
  573MOL0     H75609   2.761   1.431   0.891 -1.4216  1.6255  1.0750
  573MOL0     H75610   2.676   1.577   1.047  2.6510 -0.4207  2.4805
  573MOL0     H75611   2.679   1.664   0.889  1.8844  0.8602 -1.0369
  573MOL0     H75612   2.886   1.779   0.950 -0.9021  1.5687  0.1166
  573MOL0     H75613   2.869   1.722   1.116  1.0145 -0.0115 -1.0774
  573MOL0     H75614   2.685   1.907   0.971  2.0289 -0.2339 -2.1602
  573MOL0     H75615   2.634   1.812   1.119  0.3692 -0.3691 -0.2030
  573MOL0     H75616   2.732   2.050   1.106 -2.8412 -0.2503  1.0511
  573MOL0     H75617   2.888   1.954   1.146 -0.2577 -0.4437  1.5810
  573MOL0     H75618   3.278   1.246   1.294 -0.3932 -1.5890  0.5104
  573MOL0     H75619   3.496   1.132   1.323 -1.3718 -1.8115 -0.4519
  573MOL0     H75620   3.962   1.059   1.462 -0.2787  1.2030 -1.1885
  573MOL0     H75621   4.155   0.914   1.440  0.3666  0.7634  0.3554
  573MOL0     H75622   5.897   1.025   0.793  2.9249  1.1616 -0.0484
  573MOL0     H75623   6.148   1.036   0.741  2.8704 -1.2280  1.9078
  573MOL0     H75624   6.613   0.623   0.910 -0.6562 -0.3973 -0.0843
  573MOL0     H75625   6.844   0.618   0.831  0.4814 -0.9865 -2.0773
  573MOL0     H75626   7.008   0.981   0.665 -0.5738  2.3671 -4.0255
  573MOL0     H75627   6.972   0.908   0.508  0.1069 -3.2023 -1.3161
  573MOL0     H75628   7.201   0.961   0.524 -2.4572  0.4816 -1.3784
  573MOL0     H75629   7.232   0.843   0.655 -0.8728  1.7783  0.7361
  573MOL0     H75630   7.256   0.780   0.384  0.9603 -1.4524 -0.0289
  573MOL0     H75631   7.093   0.753   0.403 -0.3885  1.1273  0.9174
  573MOL0     H75632   7.159   0.605   0.605  0.3353  1.0250 -0.0792
  573MOL0     H75633   7.181   0.551   0.444  0.6999 -0.3480 -0.1638
  573MOL0     H75634   7.579   0.627   0.625 -0.3996  1.3433  0.6671
  573MOL0     H75635   6.754   0.961   0.582 -1.0049 -0.0516 -1.1882
  573MOL0     H75636   6.534   0.932   0.626  0.7257 -3.2590 -2.8848
  574MOL0     O75637   8.789   1.482  10.426  0.8589 -0.9070 -0.4393
  574MOL0     C75638   8.755   1.594  10.467  0.1686  0.4786 -0.1731
  574MOL0     O75639   8.646   1.630  10.545 -0.6037 -0.0031  0.0293
  574MOL0     C75640   8.545   1.549  10.584  0.3443  0.3443 -0.2295
  574MOL0     C75641   8.425   1.617  10.628  0.6265  0.7501 -0.0879
  574MOL0     C75642   8.313   1.543  10.673  0.2661  0.2066  0.1328
  574MOL0     C75643   8.317   1.413  10.668  0.0321  0.6697 -0.0148
  574MOL0     O75644   8.211   1.350  10.726  0.9795 -0.2070  0.3501
  574MOL0     C75645   8.140   1.251  10.647 -1.2489 -0.4409  0.0218
  574MOL0     C75646   8.013   1.199  10.708  0.5345 -0.4029  0.4269
  574MOL0     C75647   7.922   1.310  10.784  0.5895  0.5261  0.1120
  574MOL0     C75648   7.781   1.245  10.811  0.3432 -0.5919 -0.3518
  574MOL0     C75649   7.678   1.353  10.855 -0.5302 -0.1589  0.0787
  574MOL0     C75650   7.538   1.303  10.869 -0.0520 -0.3140 -0.3277
  574MOL0     C75651   7.449   1.394  10.958  0.7835 -0.5824  0.4153
  574MOL0     C75652   7.311   1.324  10.977  0.3724  0.7707 -0.4293
  574MOL0     N75653   7.242   1.405  11.082  0.0893  0.2742 -0.0009
  574MOL0     C75654   7.122   1.463  11.060 -0.1253  0.5557  1.0365
  574MOL0     C75655   7.108   1.530  11.179 -0.3268  0.2831  0.4069
  574MOL0     C75656   6.995   1.630  11.217  0.1888 -0.0116  0.0916
  574MOL0     C75657   6.851   1.573  11.209 -0.1584  0.1155 -0.2212
  574MOL0     C75658   6.751   1.681  11.251 -0.2474  0.0978  0.0929
  574MOL0     C75659   6.610   1.631  11.261 -0.0881  0.1387  0.2419
  574MOL0     O75660   6.517   1.734  11.263 -0.3027  0.0700  0.0860
  574MOL0     C75661   6.388   1.699  11.287 -1.1309 -0.3606 -0.8705
  574MOL0     C75662   6.283   1.733  11.204 -0.1919 -0.0134 -0.6553
  574MOL0     C75663   6.148   1.697  11.232  0.9419 -0.3340  0.7920
  574MOL0     C75664   6.117   1.617  11.346  0.0453 -0.1382  0.2548
  574MOL0     C75665   5.982   1.567  11.382 -0.0299 -0.2148  0.2696
  574MOL0     O75666   5.871   1.616  11.306  0.0888  0.9540 -0.0287
  574MOL0     C75667   5.743   1.590  11.344  0.4376 -0.3231  0.2237
  574MOL0     C75668   5.705   1.463  11.383 -0.5712  0.2775  0.6258
  574MOL0     C75669   5.575   1.428  11.402  0.1652 -0.0267 -0.0320
  574MOL0     C75670   5.472   1.521  11.380 -0.3452  0.0558  0.0847
  574MOL0     O75671   5.339   1.488  11.371 -0.0269 -0.0943  0.0712
  574MOL0     C75672   5.275   1.527  11.489  0.6190 -0.6250 -0.0784
  574MOL0     C75673   5.249   1.411  11.584 -0.7354 -0.3504  0.3851
  574MOL0     C75674   5.210   1.274  11.516  0.5129  0.5332 -0.2646
  574MOL0     C75675   5.205   1.160  11.610 -0.6488 -0.7217 -0.7248
  574MOL0     C75676   5.137   1.024  11.554 -0.3709  0.4849  0.1126
  574MOL0     C75677   4.994   1.036  11.517  0.9797 -0.4578 -0.0935
  574MOL0     C75678   4.943   0.897  11.498 -0.2576 -0.3241 -0.1901
  574MOL0     C75679   4.801   0.908  11.463  0.5822  0.5979 -0.3912
  574MOL0    Cl75680   4.746   0.735  11.451  0.1104 -0.1062  0.1401
  574MOL0     C75681   5.512   1.646  11.337  0.5741 -0.8670  0.4066
  574MOL0     C75682   5.644   1.682  11.318 -0.8207  0.4308 -0.7437
  574MOL0     O75683   5.980   1.491  11.483 -0.4007  0.4249 -0.4596
  574MOL0     C75684   6.224   1.587  11.433 -0.9874  0.7479 -0.0028
  574MOL0     C75685   6.359   1.622  11.403 -0.1058 -0.0198  0.7213
  574MOL0     N75686   7.209   1.497  11.261  1.0982  0.2115  0.7614
  574MOL0     N75687   7.296   1.421  11.209  0.3283  0.2256  0.1535
  574MOL0     C75688   8.421   1.341  10.617  0.2749 -1.3261  0.5321
  574MOL0     C75689   8.540   1.407  10.581  0.3167 -0.0630  0.1002
  574MOL0     C75690   8.865   1.700  10.439  0.1681 -0.3960 -0.6144
  574MOL0     C75691   8.837   1.827  10.492 -0.9078 -0.2341  0.0664
  574MOL0     C75692   8.934   1.927  10.486  1.0523  0.3605 -0.0893
  574MOL0     C75693   9.057   1.900  10.425 -0.5039  0.0211  0.2398
  574MOL0     O75694   9.131   2.011  10.407 -0.4754 -0.0049 -0.2777
  574MOL0     C75695   9.264   1.997  10.344 -1.1454  0.3319 -1.0295
  574MOL0     C75696   9.366   1.943  10.447  0.3158  0.0349 -0.5822
  574MOL0     C75697   9.396   2.066  10.551 -0.2064  0.4364 -0.1562
  574MOL0     C75698   9.497   2.012  10.656 -0.3065  0.1605  0.3661
  574MOL0     C75699   9.636   2.018  10.612  0.4272  0.3974  0.0873
  574MOL0     C75700   9.758   2.024  10.591  0.5719 -0.2150 -0.1112
  574MOL0     C75701   9.085   1.768  10.385 -0.4108  0.4143 -0.3325
  574MOL0     C75702   8.995   1.667  10.393  0.4072 -0.0230  0.3570
  574MOL0     H75703   8.425   1.724  10.639  0.2431  0.7236  0.1932
  574MOL0     H75704   8.234   1.599  10.722 -1.1119  1.5089 -3.2409
  574MOL0     H75705   8.208   1.166  10.638 -0.1520 -0.1366  3.7443
  574MOL0     H75706   8.114   1.287  10.547 -0.0733  0.4385  0.0153
  574MOL0     H75707   8.034   1.119  10.780  2.5111  1.8449  2.5186
  574MOL0     H75708   7.951   1.163  10.625 -1.0538  0.4303  1.2012
  574MOL0     H75709   7.910   1.400  10.722 -0.0320 -0.1769 -0.8070
  574MOL0     H75710   7.973   1.338  10.877  0.4091 -0.6826  0.5852
  574MOL0     H75711   7.739   1.208  10.717 -0.5745  0.1993 -0.2583
  574MOL0     H75712   7.784   1.167  10.888 -1.8802  0.1798  0.5800
  574MOL0     H75713   7.674   1.447  10.800 -4.2269 -1.9767 -3.2516
  574MOL0     H75714   7.710   1.384  10.955  0.4927 -1.1289  0.0743
  574MOL0     H75715   7.534   1.203  10.914 -1.7149 -0.4429 -0.6765
  574MOL0     H75716   7.495   1.286  10.770 -2.7670 -0.6540  0.8234
  574MOL0     H75717   7.505   1.410  11.051  2.1175 -0.3624 -0.4021
  574MOL0     H75718   7.431   1.488  10.906 -0.5702 -0.7970  0.4667
  574MOL0     H75719   7.315   1.220  11.010  0.7427  1.2027  0.9502
  574MOL0     H75720   7.257   1.326  10.882  2.3020 -0.0041 -1.5839
  574MOL0     H75721   7.053   1.467  10.976  1.3499  2.6102 -0.1753
  574MOL0     H75722   7.000   1.718  11.151 -3.5858 -1.2626 -2.1699
  574MOL0     H75723   7.008   1.663  11.320 -0.5353  1.3534 -0.2292
  574MOL0     H75724   6.843   1.493  11.283 -1.2020  2.8492  2.9101
  574MOL0     H75725   6.828   1.525  11.114 -3.9511  0.2608  0.4656
  574MOL0     H75726   6.788   1.725  11.344  2.2547  2.0988 -1.6774
  574MOL0     H75727   6.764   1.766  11.182  0.0197  0.5639  0.7074
  574MOL0     H75728   6.603   1.564  11.347 -0.6927  0.4782  0.4586
  574MOL0     H75729   6.590   1.571  11.171 -1.4017  1.3207 -0.2997
  574MOL0     H75730   6.323   1.775  11.112  0.2748  0.1359 -0.3900
  574MOL0     H75731   6.064   1.724  11.169  2.4170  1.0720 -0.6404
  574MOL0     H75732   5.778   1.382  11.383  0.3821  0.9098 -3.4014
  574MOL0     H75733   5.549   1.326  11.427  1.2358 -0.3399 -0.1224
  574MOL0     H75734   5.171   1.550  11.469  1.2441  2.2575 -0.4182
  574MOL0     H75735   5.317   1.618  11.533  0.1457 -0.8609  0.8745
  574MOL0     H75736   5.170   1.454  11.646  3.7560  3.1462  4.4722
  574MOL0     H75737   5.338   1.410  11.649 -0.7711  0.3167  0.4466
  574MOL0     H75738   5.275   1.250  11.432  1.2768  0.7800  0.2514
  574MOL0     H75739   5.110   1.290  11.474  0.7103  0.4596 -0.7717
  574MOL0     H75740   5.304   1.144  11.653 -1.9183  1.1197  3.4503
  574MOL0     H75741   5.143   1.186  11.697  0.9438  2.8625 -0.4710
  574MOL0     H75742   5.155   0.949  11.632  0.6526  0.0758 -0.4945
  574MOL0     H75743   5.194   0.983  11.470 -1.7485  0.1523 -0.6917
  574MOL0     H75744   4.994   1.094  11.425  2.6442 -1.0611 -0.5032
  574MOL0     H75745   4.930   1.087  11.590  0.4663 -0.9840 -0.1643
  574MOL0     H75746   4.994   0.844  11.417  1.6238  1.6255 -0.3751
  574MOL0     H75747   4.949   0.835  11.588 -1.2284  0.6841  0.5933
  574MOL0     H75748   4.777   0.966  11.374 -1.1877 -0.3573 -0.5818
  574MOL0     H75749   4.754   0.953  11.551  1.8609  3.0863 -0.8870
  574MOL0     H75750   5.436   1.721  11.317  0.7392 -1.2954 -2.1555
  574MOL0     H75751   5.670   1.776  11.271  0.3818  0.6710  0.3450
  574MOL0     H75752   6.215   1.533  11.528 -1.9435 -1.8759 -1.4638
  574MOL0     H75753   6.442   1.595  11.467  3.6302  2.2373 -2.6296
  574MOL0     H75754   8.418   1.233  10.627  1.5358 -1.3895  0.3170
  574MOL0     H75755   8.621   1.340  10.555 -3.1183 -4.1490 -1.2548
  574MOL0     H75756   8.739   1.845  10.535 -0.5341  2.4672 -0.0217
  574MOL0     H75757   8.910   2.022  10.532 -1.4100 -0.4422  0.4090
  574MOL0     H75758   9.304   2.094  10.314 -1.6832  0.9958  0.3052
  574MOL0     H75759   9.254   1.932  10.257  0.7791 -0.1006 -0.9676
  574MOL0     H75760   9.333   1.851  10.495  1.5839 -1.4408 -2.3762
  574MOL0     H75761   9.454   1.919  10.387  0.0556 -2.0058 -0.2026
  574MOL0     H75762   9.306   2.084  10.611 -0.0509 -2.8208  1.2689
  574MOL0     H75763   9.433   2.160  10.511  1.8133 -0.0324  0.5176
  574MOL0     H75764   9.489   2.075  10.745 -0.3857  0.7489 -0.0538
  574MOL0     H75765   9.469   1.912  10.692 -1.1260  1.1817  2.7484
  574MOL0     H75766   9.858   2.049  10.561  1.4693 -1.8483  1.3755
  574MOL0     H75767   9.185   1.743  10.350  0.1853  0.1613  1.4455
  574MOL0     H75768   9.017   1.563  10.371 -2.0501 -0.2539 -1.3836
  575MOL0     O75769   1.891   3.118   8.099 -0.0720 -0.3677 -0.2955
  575MOL0     C75770   1.888   3.209   8.019  0.3582  0.0514  0.6117
  575MOL0     O75771   1.772   3.252   7.962 -0.1108 -0.4051  0.1210
  575MOL0     C75772   1.645   3.219   8.010  0.0146 -1.1340  0.4254
  575MOL0     C75773   1.540   3.243   7.915 -0.8878  0.2256  0.1164
  575MOL0     C75774   1.404   3.213   7.941 -0.5700  0.9986  0.7914
  575MOL0     C75775   1.374   3.145   8.062 -0.8754 -0.1274 -0.5963
  575MOL0     O75776   1.251   3.097   8.095 -0.5847 -1.0277 -0.1730
  575MOL0     C75777   1.139   3.123   8.011  0.6660  0.0606 -0.1755
  575MOL0     C75778   1.018   3.071   8.081 -0.0558  0.3960 -0.2036
  575MOL0     C75779   0.887   3.074   7.999 -0.1297  0.4772  0.4666
  575MOL0     C75780   0.790   2.975   8.068  0.3606 -0.1319  1.2259
  575MOL0     C75781   0.658   3.011   7.998  0.3199  0.8639 -0.0217
  575MOL0     C75782   0.548   2.906   8.022  0.7419 -0.3426 -0.1553
  575MOL0     C75783   0.415   2.974   7.968 -0.6268 -0.3732  0.0030
  575MOL0     C75784   0.308   2.863   7.960 -0.0441 -0.3245 -0.1315
  575MOL0     N75785   0.194   2.924   7.883 -0.3604  0.2425  0.1635
  575MOL0     C75786   0.119   2.853   7.792  0.7951 -0.3421 -0.2729
  575MOL0     C75787   0.033   2.953   7.751  1.1921 -0.2223 -0.4706
  575MOL0     C75788  -0.081   2.937   7.649 -0.5989 -0.0714  0.2102
  575MOL0     C75789  -0.223   2.947   7.710  0.0930 -0.0116 -0.7123
  575MOL0     C75790  -0.332   2.878   7.621 -0.7405 -0.7476  0.4185
  575MOL0     C75791  -0.475   2.907   7.676  0.1316  0.2896 -0.0951
  575MOL0     O75792  -0.568   2.826   7.603  0.1917  0.4123 -0.2993
  575MOL0     C75793  -0.696   2.823   7.654  0.3927 -0.7854 -0.0805
  575MOL0     C75794  -0.744   2.890   7.767  0.1884  0.3536 -0.9907
  575MOL0     C75795  -0.880   2.869   7.813 -0.3164  0.5044  0.6699
  575MOL0     C75796  -0.969   2.793   7.736 -0.4735 -0.4401  0.1886
  575MOL0     C75797  -1.107   2.780   7.772 -0.4175 -0.4522  0.5729
  575MOL0     O75798  -1.196   2.766   7.665  0.1842 -0.5604  0.0472
  575MOL0     C75799  -1.333   2.735   7.682 -0.1092 -0.1505  0.3497
  575MOL0     C75800  -1.376   2.651   7.783  0.6774 -0.0316 -1.0063
  575MOL0     C75801  -1.514   2.623   7.793  0.4341  0.3130  0.1051
  575MOL0     C75802  -1.608   2.666   7.703  0.1744 -0.1955  0.2777
  575MOL0     O75803  -1.744   2.645   7.734 -0.3423 -0.3764  0.3899
  575MOL0     C75804  -1.838   2.679   7.631 -0.0420  1.0833  0.0174
  575MOL0     C75805  -1.985   2.655   7.666  0.4226  0.2855  0.9800
  575MOL0     C75806  -2.083   2.721   7.564  0.3124 -0.0228 -0.2913
  575MOL0     C75807  -2.228   2.709   7.607  0.2613  0.5467 -0.6770
  575MOL0     C75808  -2.316   2.765   7.504 -0.2621 -0.6805  0.1921
  575MOL0     C75809  -2.459   2.760   7.553 -0.1368  0.5005 -0.7326
  575MOL0     C75810  -2.565   2.818   7.462  0.6649 -0.1232  0.1672
  575MOL0     C75811  -2.527   2.956   7.410 -0.8355  0.4765  0.0640
  575MOL0    Cl75812  -2.523   3.077   7.549  0.7452 -0.0742  0.4119
  575MOL0     C75813  -1.557   2.745   7.596  0.0434 -0.7320  0.0950
  575MOL0     C75814  -1.427   2.786   7.589 -0.3621 -0.0087 -0.1073
  575MOL0     O75815  -1.136   2.776   7.888  0.0067  0.5914 -0.3234
  575MOL0     C75816  -0.919   2.738   7.621  0.0734 -0.7877 -0.1623
  575MOL0     C75817  -0.785   2.748   7.578 -0.6989  0.7024 -0.0490
  575MOL0     N75818   0.054   3.072   7.819 -0.5154  0.3453  0.3768
  575MOL0     N75819   0.147   3.049   7.909  0.0582 -0.5190 -0.5048
  575MOL0     C75820   1.472   3.120   8.153 -0.5728 -0.1109  0.1711
  575MOL0     C75821   1.608   3.159   8.130 -0.1843  0.0311 -0.0023
  575MOL0     C75822   2.025   3.261   8.004 -0.0735 -0.6886  0.2865
  575MOL0     C75823   2.042   3.366   7.915 -0.3135  0.2025 -0.8853
  575MOL0     C75824   2.166   3.432   7.902 -0.5779 -0.2341 -0.4180
  575MOL0     C75825   2.279   3.374   7.957  0.8362 -0.4316 -0.0035
  575MOL0     O75826   2.406   3.422   7.929  0.0823  0.0158  0.1544
  575MOL0     C75827   2.508   3.411   8.027 -0.1274  0.5229  1.0755
  575MOL0     C75828   2.589   3.281   8.013 -0.3109  0.3129 -0.3710
  575MOL0     C75829   2.684   3.267   7.891  0.0300 -0.9223  0.4850
  575MOL0     C75830   2.754   3.396   7.840  0.0678 -0.2929 -0.3192
  575MOL0     C75831   2.838   3.455   7.943  0.2447  0.1279 -0.7693
  575MOL0     C75832   2.912   3.525   8.015 -0.6275 -0.5434 -0.4316
  575MOL0     C75833   2.261   3.263   8.042 -0.1852  0.2828 -0.2638
  575MOL0     C75834   2.139   3.207   8.068 -0.3964  0.3564 -0.6287
  575MOL0     H75835   1.575   3.290   7.824  1.4889 -0.2241  0.7302
  575MOL0     H75836   1.340   3.239   7.857 -0.0374  0.0421  0.0732
  575MOL0     H75837   1.161   3.079   7.913  1.3213 -2.2951  0.9797
  575MOL0     H75838   1.127   3.231   7.993  1.3388  0.3034  0.7391
  575MOL0     H75839   1.000   3.132   8.170 -0.8418 -1.0204  0.6444
  575MOL0     H75840   1.034   2.968   8.114 -1.5144  0.4659  0.8210
  575MOL0     H75841   0.901   3.048   7.894  0.9585 -3.5917  1.4112
  575MOL0     H75842   0.854   3.177   7.984  0.6606  0.7595  0.6183
  575MOL0     H75843   0.816   2.872   8.043 -3.3029 -0.5748 -1.6050
  575MOL0     H75844   0.801   2.987   8.177  2.6558  1.7358  0.8651
  575MOL0     H75845   0.682   3.016   7.892  3.2368 -2.5815  0.2564
  575MOL0     H75846   0.629   3.111   8.032  2.0587  1.3323  0.1837
  575MOL0     H75847   0.532   2.882   8.128 -1.7313 -0.4670 -0.4914
  575MOL0     H75848   0.565   2.811   7.970 -0.6740 -0.3721 -0.6095
  575MOL0     H75849   0.392   3.056   8.036  3.1049  0.5778  0.3650
  575MOL0     H75850   0.437   3.009   7.867 -0.9410 -0.1691  0.0070
  575MOL0     H75851   0.286   2.820   8.058  0.3965  1.3477  0.7326
  575MOL0     H75852   0.346   2.777   7.903  4.0547  0.7260  0.7032
  575MOL0     H75853   0.132   2.753   7.750  1.3407  0.3745 -1.8970
  575MOL0     H75854  -0.060   2.846   7.592 -0.6531  0.8436 -1.3252
  575MOL0     H75855  -0.071   3.013   7.570  0.3364  1.6905  1.9365
  575MOL0     H75856  -0.233   3.048   7.749  2.9942 -0.5062  1.6214
  575MOL0     H75857  -0.232   2.892   7.804 -1.4544 -0.7170 -1.2421
  575MOL0     H75858  -0.321   2.917   7.520 -0.5244  1.1782  1.1414
  575MOL0     H75859  -0.314   2.770   7.613  3.0737 -0.1528 -1.6588
  575MOL0     H75860  -0.507   3.011   7.663 -0.5404  0.4416  2.2685
  575MOL0     H75861  -0.476   2.883   7.783 -1.7825 -0.9313 -0.3425
  575MOL0     H75862  -0.693   2.953   7.839 -0.5405 -0.0702 -0.0727
  575MOL0     H75863  -0.925   2.912   7.902 -2.1916 -1.5418  0.7738
  575MOL0     H75864  -1.305   2.614   7.856 -1.4314 -0.7441  0.7702
  575MOL0     H75865  -1.552   2.563   7.876 -0.2189  0.4826 -0.0607
  575MOL0     H75866  -1.812   2.642   7.531 -1.2192 -0.3725  0.2052
  575MOL0     H75867  -1.831   2.788   7.633 -1.8771  1.2184  1.0803
  575MOL0     H75868  -2.022   2.695   7.761 -1.0661  2.1180 -0.3054
  575MOL0     H75869  -2.003   2.547   7.661 -0.1152  0.4359 -1.0798
  575MOL0     H75870  -2.065   2.677   7.465  0.0685  0.1273 -0.4030
  575MOL0     H75871  -2.059   2.828   7.563 -0.2653  0.1647  1.7277
  575MOL0     H75872  -2.262   2.607   7.625  0.1094  0.6998 -0.0705
  575MOL0     H75873  -2.244   2.764   7.700  0.0875 -0.0718 -0.3404
  575MOL0     H75874  -2.305   2.710   7.410 -2.5021  1.4344 -1.4492
  575MOL0     H75875  -2.286   2.868   7.482  1.9919 -1.4161 -0.4943
  575MOL0     H75876  -2.470   2.790   7.658  1.9078 -1.6871  0.2071
  575MOL0     H75877  -2.476   2.652   7.552  0.2945  0.4046 -3.4837
  575MOL0     H75878  -2.568   2.754   7.374 -0.6637  0.6675 -0.3860
  575MOL0     H75879  -2.664   2.824   7.507  1.3355  2.2006  1.5059
  575MOL0     H75880  -2.594   2.989   7.331  0.4674  0.4557 -1.0915
  575MOL0     H75881  -2.433   2.950   7.353 -1.3366  0.1243 -0.7423
  575MOL0     H75882  -1.615   2.783   7.513  0.5162  3.2303  1.3957
  575MOL0     H75883  -1.390   2.844   7.505  1.8065 -0.6371  0.3564
  575MOL0     H75884  -0.988   2.686   7.555 -0.0245  0.5923 -1.1819
  575MOL0     H75885  -0.742   2.708   7.487  1.9676  3.3864 -0.1493
  575MOL0     H75886   1.442   3.064   8.241 -0.6987 -1.8294 -0.9258
  575MOL0     H75887   1.695   3.147   8.195  2.4182  0.5104 -3.1303
  575MOL0     H75888   1.958   3.420   7.871  0.6647  2.6617  0.0428
  575MOL0     H75889   2.174   3.530   7.855 -1.2152 -0.7147 -1.5608
  575MOL0     H75890   2.462   3.425   8.125 -0.4064  1.3722  0.8319
  575MOL0     H75891   2.581   3.491   8.009  1.3875 -0.9671  0.2867
  575MOL0     H75892   2.656   3.269   8.099  1.6921  2.6936 -1.4630
  575MOL0     H75893   2.532   3.187   8.017 -0.3413  0.3323  3.4440
  575MOL0     H75894   2.621   3.224   7.812  0.1075 -2.5190  1.2614
  575MOL0     H75895   2.764   3.198   7.920  1.4351 -0.8718 -2.7674
  575MOL0     H75896   2.809   3.370   7.749  1.3080  0.3872  0.2104
  575MOL0     H75897   2.673   3.459   7.801  0.5052 -0.3573 -1.3657
  575MOL0     H75898   2.975   3.585   8.078  0.5640 -0.7884 -1.3698
  575MOL0     H75899   2.343   3.217   8.096 -1.0436 -2.9285 -1.4499
  575MOL0     H75900   2.131   3.139   8.152 -0.9837  1.4713  0.2459
  576MOL0     O75901   9.601   8.159  10.798 -0.1719  0.2094 -0.4749
  576MOL0     C75902   9.617   8.195  10.684 -0.5349  0.6673  0.4304
  576MOL0     O75903   9.526   8.176  10.592 -0.5912  0.1713  0.1104
  576MOL0     C75904   9.405   8.127  10.626 -0.3693  0.0213  0.3733
  576MOL0     C75905   9.298   8.189  10.575 -0.1463 -0.6662  0.3196
  576MOL0     C75906   9.172   8.140  10.587  0.2036 -0.2101 -1.1574
  576MOL0     C75907   9.144   8.015  10.638 -0.7337  1.0589  0.4143
  576MOL0     O75908   9.016   7.963  10.637 -0.7232  0.3439 -0.3071
  576MOL0     C75909   8.982   7.842  10.709 -0.3470 -0.1039  0.3669
  576MOL0     C75910   8.827   7.841  10.717  0.4968  1.0723  0.2889
  576MOL0     C75911   8.773   7.842  10.577  1.2173  0.1160  1.0396
  576MOL0     C75912   8.619   7.852  10.580  0.5470  0.5634 -0.3325
  576MOL0     C75913   8.550   7.893  10.459  0.7269 -0.0778  0.5726
  576MOL0     C75914   8.411   7.840  10.452 -1.0222 -0.3373 -0.2428
  576MOL0     C75915   8.371   7.847  10.309  0.0315 -0.2696  0.3234
  576MOL0     C75916   8.230   7.787  10.289  0.7173  0.3950 -0.1712
  576MOL0     N75917   8.159   7.827  10.169  0.2155  0.2466 -0.0171
  576MOL0     C75918   8.031   7.893  10.171 -0.9774  0.5226 -0.1504
  576MOL0     C75919   7.988   7.897  10.043 -0.1865  0.1738  0.0607
  576MOL0     C75920   7.860   7.951   9.984  0.2074 -0.2167 -0.0250
  576MOL0     C75921   7.748   7.986  10.093  0.4728 -0.0615  0.6721
  576MOL0     C75922   7.632   8.014  10.005 -0.0201 -0.3344 -0.0523
  576MOL0     C75923   7.504   8.040  10.080  0.5670 -0.1712 -0.6984
  576MOL0     O75924   7.407   8.087   9.981  0.4041 -0.6474 -0.1025
  576MOL0     C75925   7.276   8.058   9.985  0.1021  0.4217 -1.1288
  576MOL0     C75926   7.225   7.951  10.068 -0.9350 -0.3699  0.3732
  576MOL0     C75927   7.091   7.922  10.054  0.2249  1.4607  0.6234
  576MOL0     C75928   7.003   8.004   9.970  0.0769 -0.1236 -0.1878
  576MOL0     C75929   6.862   7.970   9.956 -0.1075 -0.0429  0.7633
  576MOL0     O75930   6.813   7.859  10.024  0.0471 -0.3025 -0.0066
  576MOL0     C75931   6.693   7.847  10.085  1.2830 -0.3043 -0.2729
  576MOL0     C75932   6.585   7.939  10.067 -0.2034 -0.1118 -0.6589
  576MOL0     C75933   6.465   7.919  10.145  0.1338  0.2523  0.6212
  576MOL0     C75934   6.445   7.807  10.220  1.3289  0.5850  0.6406
  576MOL0     O75935   6.320   7.795  10.283  0.2406 -0.1817  0.7175
  576MOL0     C75936   6.216   7.743  10.206 -0.8244  0.3665  0.1773
  576MOL0     C75937   6.093   7.803  10.274  0.6988  0.0649 -0.7436
  576MOL0     C75938   5.963   7.773  10.188 -0.3354  0.4084 -0.4580
  576MOL0     C75939   5.827   7.774  10.272 -1.5016 -0.5336 -0.5234
  576MOL0     C75940   5.706   7.776  10.173  0.7146  0.1892 -0.4629
  576MOL0     C75941   5.688   7.911  10.100  0.0960 -0.2535 -0.9175
  576MOL0     C75942   5.602   8.006  10.184 -0.1648 -0.1065  0.2665
  576MOL0     C75943   5.583   8.152  10.115  0.2986 -0.0854 -0.4856
  576MOL0    Cl75944   5.509   8.265  10.236 -0.4851 -0.2815  0.1076
  576MOL0     C75945   6.548   7.720  10.234 -0.0751  0.0306 -0.0948
  576MOL0     C75946   6.667   7.738  10.169  0.7534 -0.5362 -0.0869
  576MOL0     O75947   6.797   8.046   9.887 -0.0341  0.8172 -0.0542
  576MOL0     C75948   7.062   8.105   9.897 -0.2744  0.2575 -0.4544
  576MOL0     C75949   7.197   8.136   9.902  0.2703 -0.1273 -0.8488
  576MOL0     N75950   8.092   7.844   9.967 -0.3581  0.0422  0.5745
  576MOL0     N75951   8.193   7.820  10.040  0.0887  0.9909  0.0989
  576MOL0     C75952   9.254   7.940  10.680 -0.0813  0.1542  0.2990
  576MOL0     C75953   9.384   7.991  10.675  0.1441 -1.0484 -0.2816
  576MOL0     C75954   9.751   8.249  10.653  0.1579  0.4965  0.3408
  576MOL0     C75955   9.774   8.351  10.557 -0.0039  0.5727 -0.1640
  576MOL0     C75956   9.907   8.388  10.530  0.3176  0.3293  0.1711
  576MOL0     C75957  10.013   8.338  10.609  0.0052  0.5149 -0.7309
  576MOL0     O75958  10.131   8.402  10.602  0.5445 -0.2483 -0.3979
  576MOL0     C75959  10.242   8.352  10.680  0.4466  0.4327  0.0184
  576MOL0     C75960  10.364   8.445  10.658  0.9535 -0.5031  0.2406
  576MOL0     C75961  10.417   8.428  10.521  0.4970  0.5273  0.0949
  576MOL0     C75962  10.554   8.484  10.504  0.8901  0.0708  0.0855
  576MOL0     C75963  10.605   8.525  10.371  0.3529  0.2237  0.2991
  576MOL0     C75964  10.640   8.557  10.259 -0.2843 -0.3147 -0.3490
  576MOL0     C75965   9.987   8.226  10.695  0.3758  0.4403 -1.3192
  576MOL0     C75966   9.856   8.184  10.720  0.6090  0.3921 -0.8415
  576MOL0     H75967   9.322   8.282  10.524  0.1568  0.2069  1.9754
  576MOL0     H75968   9.089   8.193  10.541 -0.3778 -0.3773 -0.3097
  576MOL0     H75969   9.025   7.850  10.809  1.0237  1.4139 -0.2958
  576MOL0     H75970   9.031   7.760  10.656 -1.5148  0.6059 -1.9898
  576MOL0     H75971   8.784   7.926  10.772 -5.8814 -1.0436 -0.6680
  576MOL0     H75972   8.797   7.754  10.777  1.3728  1.0294  0.6825
  576MOL0     H75973   8.809   7.758  10.516  0.1010 -0.3069  0.9344
  576MOL0     H75974   8.798   7.936  10.528 -1.3690  0.3035 -0.0692
  576MOL0     H75975   8.576   7.756  10.611 -1.8293  1.2596 -1.2023
  576MOL0     H75976   8.595   7.923  10.660 -0.3590 -1.1171  0.9691
  576MOL0     H75977   8.602   7.849  10.374 -1.3976 -0.8380 -0.4217
  576MOL0     H75978   8.550   8.002  10.457 -2.8986  0.0523  0.9643
  576MOL0     H75979   8.348   7.893  10.523  1.1339  0.3875  1.2360
  576MOL0     H75980   8.412   7.733  10.474  2.1675 -0.4602 -0.5376
  576MOL0     H75981   8.360   7.953  10.285  1.2210 -0.3905 -0.8737
  576MOL0     H75982   8.449   7.802  10.247 -0.7169 -3.9283  1.7813
  576MOL0     H75983   8.164   7.813  10.372 -0.4776  1.5474 -1.4344
  576MOL0     H75984   8.235   7.678  10.291 -1.2042  0.2842  0.9808
  576MOL0     H75985   7.977   7.934  10.256 -1.2066 -1.3001  0.6363
  576MOL0     H75986   7.823   7.873   9.917 -1.5116  0.0454  0.5688
  576MOL0     H75987   7.888   8.040   9.928  1.0675 -1.4271 -1.6114
  576MOL0     H75988   7.778   8.079  10.143  3.1825 -0.5473  0.0855
  576MOL0     H75989   7.718   7.910  10.166  0.1850  0.2062  0.8344
  576MOL0     H75990   7.649   8.097   9.936  0.1480  1.9067  2.5172
  576MOL0     H75991   7.618   7.932   9.934  1.2997  1.5306 -2.6400
  576MOL0     H75992   7.522   8.109  10.163  3.2323 -0.9775 -0.5180
  576MOL0     H75993   7.471   7.945  10.124 -1.5422  0.8953  0.1438
  576MOL0     H75994   7.287   7.889  10.131 -2.6017 -1.9631  0.5393
  576MOL0     H75995   7.046   7.853  10.125  2.2766  2.2575  2.8361
  576MOL0     H75996   6.606   8.027  10.007 -1.0559  0.4268 -0.1895
  576MOL0     H75997   6.387   7.994  10.150 -1.4996 -1.0665 -2.3179
  576MOL0     H75998   6.221   7.634  10.211  2.7505  0.3676 -0.5078
  576MOL0     H75999   6.224   7.773  10.101  2.2560 -1.5967 -0.2864
  576MOL0     H76000   6.096   7.910  10.296 -0.1664 -0.1880  0.6963
  576MOL0     H76001   6.087   7.748  10.368  0.7123  0.3084 -0.5989
  576MOL0     H76002   5.969   7.678  10.133 -2.1249  1.3381 -2.4178
  576MOL0     H76003   5.966   7.858  10.119 -2.0556 -1.9575 -3.7399
  576MOL0     H76004   5.826   7.689  10.341 -0.2503  1.3263  1.8893
  576MOL0     H76005   5.815   7.860  10.338 -0.4542 -0.1267 -0.8420
  576MOL0     H76006   5.611   7.753  10.222 -1.0730  1.8067 -2.9621
  576MOL0     H76007   5.723   7.693  10.103  0.4161  0.4240 -0.8156
  576MOL0     H76008   5.648   7.888  10.001 -1.8147 -1.8321  0.1362
  576MOL0     H76009   5.781   7.964  10.079  0.1259  0.0902  0.0161
  576MOL0     H76010   5.510   7.958  10.217  1.4014 -2.4251  1.6002
  576MOL0     H76011   5.666   8.021  10.272  0.4910 -2.8763  0.3612
  576MOL0     H76012   5.515   8.143  10.029 -0.5831 -0.0254  0.1830
  576MOL0     H76013   5.671   8.204  10.077 -0.9268  2.0772 -0.5636
  576MOL0     H76014   6.532   7.634  10.298 -1.6875  0.1307 -0.3399
  576MOL0     H76015   6.744   7.662  10.181  0.4682 -0.7152  0.6289
  576MOL0     H76016   7.003   8.160   9.824 -1.4813 -0.3885 -0.0019
  576MOL0     H76017   7.249   8.212   9.844  0.2762  3.1353  3.0172
  576MOL0     H76018   9.238   7.842  10.723  1.0565  0.1564  0.7602
  576MOL0     H76019   9.477   7.948  10.713 -0.1885 -0.0421  1.8597
  576MOL0     H76020   9.696   8.394  10.495  0.9014 -0.8698 -2.4063
  576MOL0     H76021   9.920   8.472  10.461 -0.0556 -1.3301 -2.0341
  576MOL0     H76022  10.274   8.253  10.647 -0.8292 -0.6185  1.7068
  576MOL0     H76023  10.220   8.351  10.788  1.5853  0.7722  0.2643
  576MOL0     H76024  10.326   8.547  10.671 -2.2856 -1.6870  1.1401
  576MOL0     H76025  10.447   8.422  10.725  1.3805 -1.9073 -0.7218
  576MOL0     H76026  10.353   8.477  10.448 -0.3049 -0.2171  0.2827
  576MOL0     H76027  10.420   8.324  10.488 -1.2127  0.3658  0.3400
  576MOL0     H76028  10.552   8.580  10.557 -1.5748  0.8092 -1.2141
  576MOL0     H76029  10.631   8.425  10.555  0.6971  0.1721  0.4923
  576MOL0     H76030  10.655   8.580  10.156  1.6131 -1.4873 -0.3802
  576MOL0     H76031  10.052   8.170  10.761 -0.5992 -2.0438 -2.3386
  576MOL0     H76032   9.848   8.096  10.784 -0.3025  0.6334 -0.6102
  577MOL0     O76033  10.400   2.597   5.398 -0.6131  0.5782  0.1512
  577MOL0     C76034  10.467   2.584   5.500  0.9021  0.4418 -0.1412
  577MOL0     O76035  10.425   2.527   5.613  0.0761  0.0221  0.0635
  577MOL0     C76036  10.306   2.456   5.613  0.2507 -0.3600  0.3528
  577MOL0     C76037  10.183   2.499   5.555  0.4110 -0.1877 -0.4625
  577MOL0     C76038  10.061   2.429   5.553 -0.0663 -0.2031  0.0123
  577MOL0     C76039  10.050   2.313   5.630  0.0583  0.5038 -0.1292
  577MOL0     O76040   9.928   2.253   5.631 -0.1079 -0.2375 -0.6853
  577MOL0     C76041   9.903   2.137   5.705  0.1159  0.9338  0.3092
  577MOL0     C76042   9.760   2.088   5.679 -0.5258  0.7985  0.6142
  577MOL0     C76043   9.651   2.186   5.728 -0.1836  0.8396 -0.3485
  577MOL0     C76044   9.517   2.112   5.727 -0.4471 -0.3223  0.1637
  577MOL0     C76045   9.423   2.197   5.814  0.6763  0.6314  0.5729
  577MOL0     C76046   9.281   2.175   5.771 -0.5036  0.6432 -1.0708
  577MOL0     C76047   9.171   2.244   5.859 -1.3595 -0.4427  0.4060
  577MOL0     C76048   9.020   2.209   5.811 -0.8865 -0.0914  0.1475
  577MOL0     N76049   8.933   2.320   5.864 -0.2854  0.7103  0.4706
  577MOL0     C76050   8.903   2.352   6.001 -0.3181  0.4407 -0.2924
  577MOL0     C76051   8.824   2.461   5.994  0.3805 -0.5541  0.2948
  577MOL0     C76052   8.759   2.530   6.109  0.3493 -1.0337 -0.4236
  577MOL0     C76053   8.660   2.436   6.183  0.2910  0.1145  0.8569
  577MOL0     C76054   8.607   2.508   6.312 -1.1235 -0.0982 -0.4530
  577MOL0     C76055   8.481   2.451   6.377 -0.1247  0.7063  0.3409
  577MOL0     O76056   8.469   2.512   6.507 -0.2610 -0.7792  0.1507
  577MOL0     C76057   8.347   2.496   6.566 -0.1161  0.5409 -0.2966
  577MOL0     C76058   8.237   2.418   6.527 -0.1821  0.2459 -0.0943
  577MOL0     C76059   8.117   2.408   6.590 -0.2335  0.0710  0.3117
  577MOL0     C76060   8.105   2.460   6.719  0.1267 -0.0006  0.4319
  577MOL0     C76061   7.979   2.447   6.792  0.7706 -0.7261  0.3179
  577MOL0     O76062   7.879   2.384   6.727  0.0175 -0.3056 -0.5641
  577MOL0     C76063   7.745   2.402   6.761 -0.4747 -0.7160  0.2902
  577MOL0     C76064   7.698   2.531   6.796 -0.1927 -0.1246  0.2296
  577MOL0     C76065   7.563   2.553   6.826  0.4967 -0.8723 -0.2431
  577MOL0     C76066   7.472   2.454   6.829 -0.1849 -0.3954 -0.6430
  577MOL0     O76067   7.345   2.480   6.869  0.2143  0.5057 -0.6084
  577MOL0     C76068   7.254   2.382   6.922  0.2010 -0.3598  0.6165
  577MOL0     C76069   7.125   2.452   6.940  0.9924 -1.4927  0.3534
  577MOL0     C76070   7.023   2.374   7.022 -0.5470 -0.2392  0.1005
  577MOL0     C76071   6.873   2.435   7.014 -0.2110  0.3129 -0.6969
  577MOL0     C76072   6.776   2.334   7.081  0.6574 -0.0178  0.5111
  577MOL0     C76073   6.634   2.379   7.135 -0.4456  0.9486 -0.1329
  577MOL0     C76074   6.544   2.412   7.013  0.2583 -0.4362 -0.1459
  577MOL0     C76075   6.414   2.467   7.071  0.4639  0.0074  0.0812
  577MOL0    Cl76076   6.340   2.330   7.164  0.2576 -0.2167 -0.1814
  577MOL0     C76077   7.521   2.328   6.809  0.0219 -0.3938 -0.3033
  577MOL0     C76078   7.649   2.301   6.763  0.3945 -0.2339 -0.0996
  577MOL0     O76079   7.971   2.496   6.905  0.1865  0.7564  0.6442
  577MOL0     C76080   8.207   2.540   6.766 -1.2887 -0.7908  1.0506
  577MOL0     C76081   8.326   2.570   6.688  0.5548  1.0685  0.1281
  577MOL0     N76082   8.820   2.500   5.854  0.2368 -0.1033  0.8916
  577MOL0     N76083   8.884   2.412   5.780 -0.7686 -0.9788  0.4756
  577MOL0     C76084  10.171   2.266   5.696  0.7408  0.6727  0.6494
  577MOL0     C76085  10.295   2.332   5.685 -0.4155  0.0270 -0.1723
  577MOL0     C76086  10.608   2.623   5.499 -0.4536  0.9093 -0.1194
  577MOL0     C76087  10.663   2.682   5.392 -0.3791  0.3030 -0.0052
  577MOL0     C76088  10.800   2.727   5.396 -0.1726  0.1568  0.0065
  577MOL0     C76089  10.879   2.725   5.521 -0.1757  0.4751 -1.2000
  577MOL0     O76090  11.014   2.759   5.528  0.6068 -0.0718 -0.7291
  577MOL0     C76091  11.071   2.830   5.416 -0.4130  0.2978 -0.5711
  577MOL0     C76092  11.210   2.889   5.472 -0.6673  0.1759  0.1738
  577MOL0     C76093  11.292   2.960   5.357 -1.5582  0.2301  0.9103
  577MOL0     C76094  11.435   3.010   5.394  0.0313 -0.3290 -0.3307
  577MOL0     C76095  11.481   3.133   5.326 -0.2584  0.1687  0.3814
  577MOL0     C76096  11.520   3.233   5.267 -0.0625 -1.1923 -0.4190
  577MOL0     C76097  10.819   2.649   5.623 -0.0135 -1.0599  0.0391
  577MOL0     C76098  10.691   2.598   5.612  0.3303 -0.2275 -0.4633
  577MOL0     H76099  10.193   2.597   5.511 -0.0068  0.9839  1.9165
  577MOL0     H76100   9.974   2.475   5.507  0.2900  1.0946  0.5835
  577MOL0     H76101   9.914   2.140   5.814 -1.6021  0.7451  0.5222
  577MOL0     H76102   9.979   2.064   5.674  0.1916  1.3715 -0.5386
  577MOL0     H76103   9.742   1.993   5.730 -5.2562  2.7776  3.3419
  577MOL0     H76104   9.753   2.066   5.573  4.7750 -0.4983  0.2722
  577MOL0     H76105   9.648   2.279   5.670  0.8332  2.0764  1.4784
  577MOL0     H76106   9.669   2.217   5.831  1.2604  0.4863 -0.4651
  577MOL0     H76107   9.482   2.117   5.624  0.4150  1.7517 -0.0680
  577MOL0     H76108   9.529   2.006   5.754  0.0976 -0.5519 -0.9515
  577MOL0     H76109   9.429   2.306   5.808 -5.4226  1.2712 -2.2441
  577MOL0     H76110   9.435   2.172   5.920 -1.6367 -1.0459  0.5263
  577MOL0     H76111   9.269   2.067   5.779  2.3507  0.4256  3.5267
  577MOL0     H76112   9.278   2.212   5.667  1.5414  0.7857 -1.1123
  577MOL0     H76113   9.177   2.218   5.965 -2.6345  0.4643  0.7270
  577MOL0     H76114   9.197   2.350   5.855 -0.5158 -0.6861 -1.6578
  577MOL0     H76115   8.987   2.111   5.847 -1.3739  0.4490  1.2056
  577MOL0     H76116   9.023   2.211   5.702 -0.6028  0.3565  0.1588
  577MOL0     H76117   8.923   2.285   6.084 -2.1255 -1.4492 -1.3029
  577MOL0     H76118   8.711   2.616   6.062  1.2058 -0.5245 -0.3958
  577MOL0     H76119   8.835   2.560   6.182  3.1745 -3.7037 -2.0425
  577MOL0     H76120   8.702   2.335   6.190  0.4197  0.0475 -0.5994
  577MOL0     H76121   8.574   2.430   6.116  0.1159 -0.8115  1.1517
  577MOL0     H76122   8.691   2.516   6.381 -0.1940  1.9160 -1.7460
  577MOL0     H76123   8.578   2.611   6.286 -3.0134 -0.8241 -1.4228
  577MOL0     H76124   8.491   2.342   6.378  0.2198  0.7165 -0.5759
  577MOL0     H76125   8.392   2.462   6.314 -0.6245 -2.0839  0.4126
  577MOL0     H76126   8.246   2.356   6.438 -1.5291 -2.2745  1.4238
  577MOL0     H76127   8.035   2.348   6.553 -3.0355  3.1969  0.9495
  577MOL0     H76128   7.766   2.615   6.785 -0.1213 -0.0725  1.0447
  577MOL0     H76129   7.524   2.654   6.832 -0.1406 -0.9402 -2.4751
  577MOL0     H76130   7.296   2.336   7.012  2.6996 -0.8057 -0.6830
  577MOL0     H76131   7.231   2.299   6.855 -1.0470  1.8329 -1.8458
  577MOL0     H76132   7.083   2.482   6.844  2.2721  0.1273  0.2698
  577MOL0     H76133   7.134   2.545   6.996 -0.0042 -1.4680  0.4886
  577MOL0     H76134   7.061   2.362   7.124  0.3655  0.6747 -0.1138
  577MOL0     H76135   7.012   2.276   6.976  2.3944  0.3227 -2.1085
  577MOL0     H76136   6.873   2.530   7.068  2.7793  0.3302 -0.5844
  577MOL0     H76137   6.856   2.449   6.906  1.8907 -0.4121 -1.1573
  577MOL0     H76138   6.815   2.283   7.169 -0.1674 -0.6693  0.5127
  577MOL0     H76139   6.761   2.249   7.014  2.3748  0.3076 -0.3341
  577MOL0     H76140   6.654   2.466   7.198 -0.5937  0.9382 -0.0717
  577MOL0     H76141   6.598   2.293   7.192  2.0162 -1.6847 -2.2032
  577MOL0     H76142   6.596   2.489   6.955  0.5515  0.4317  1.1974
  577MOL0     H76143   6.523   2.316   6.965  0.4127 -1.1070  1.0799
  577MOL0     H76144   6.349   2.507   6.992 -2.9228 -1.1318  2.0882
  577MOL0     H76145   6.445   2.550   7.135 -0.5106 -0.2292  0.8878
  577MOL0     H76146   7.445   2.252   6.796 -0.9186  1.0134 -4.6805
  577MOL0     H76147   7.660   2.198   6.733  0.8751 -0.2445  0.0990
  577MOL0     H76148   8.210   2.601   6.857 -0.3227 -0.9810  1.1623
  577MOL0     H76149   8.402   2.644   6.710  2.2190 -0.6688  0.4324
  577MOL0     H76150  10.155   2.189   5.771  0.5869  0.7138  0.6594
  577MOL0     H76151  10.384   2.303   5.739  0.0946 -0.0383 -1.0313
  577MOL0     H76152  10.602   2.703   5.305 -0.7630 -0.5074  0.0634
  577MOL0     H76153  10.835   2.763   5.299  0.9430 -2.7732 -0.7751
  577MOL0     H76154  11.010   2.915   5.382 -0.1767 -0.3120 -2.6862
  577MOL0     H76155  11.090   2.771   5.326 -2.0945  0.3731 -1.0109
  577MOL0     H76156  11.190   2.956   5.556  1.8630 -1.2680  2.0707
  577MOL0     H76157  11.274   2.808   5.509  1.8572  2.7895  1.9253
  577MOL0     H76158  11.240   3.050   5.323 -0.1422 -0.3100 -3.2136
  577MOL0     H76159  11.302   2.900   5.266  0.0244  3.1049 -0.9619
  577MOL0     H76160  11.444   3.017   5.503 -0.6509  1.9418 -0.3724
  577MOL0     H76161  11.493   2.921   5.368  1.6442  0.7704 -0.6589
  577MOL0     H76162  11.548   3.328   5.225 -0.7277 -0.4944  0.6719
  577MOL0     H76163  10.883   2.635   5.710  1.0324  3.3750  0.1954
  577MOL0     H76164  10.651   2.556   5.704 -0.5879  2.3694  0.3880
  578MOL0     O76165   0.451  10.076   0.026  0.1091  0.2141  0.3609
  578MOL0     C76166   0.518  10.181   0.040  0.3409 -0.4071 -0.4719
  578MOL0     O76167   0.497  10.300  -0.026 -0.2278 -0.0330  0.1569
  578MOL0     C76168   0.377  10.327  -0.090  0.4361  0.5812  0.8155
  578MOL0     C76169   0.318  10.234  -0.180 -0.2180 -0.3972 -0.1934
  578MOL0     C76170   0.217  10.271  -0.263 -0.2495 -0.8473  0.2372
  578MOL0     C76171   0.145  10.391  -0.246 -0.4572  0.9135  1.0292
  578MOL0     O76172   0.027  10.401  -0.317  0.5223  0.2586  0.2408
  578MOL0     C76173  -0.003  10.525  -0.363 -0.9883 -0.0928  0.2843
  578MOL0     C76174  -0.101  10.532  -0.474  0.1350 -0.8168  1.2683
  578MOL0     C76175  -0.071  10.454  -0.597  0.3716 -0.2680  0.4742
  578MOL0     C76176  -0.165  10.480  -0.727 -0.3050 -0.1239 -0.4909
  578MOL0     C76177  -0.311  10.440  -0.701  0.7620  0.0545  0.3917
  578MOL0     C76178  -0.405  10.449  -0.835 -0.1546 -0.0991  0.0517
  578MOL0     C76179  -0.550  10.415  -0.793 -0.1293  0.7299 -0.3865
  578MOL0     C76180  -0.652  10.435  -0.904  0.5028  1.1551 -0.1839
  578MOL0     N76181  -0.775  10.379  -0.852  0.9032 -0.7823  0.1479
  578MOL0     C76182  -0.887  10.442  -0.790 -0.0710 -0.1812 -0.1860
  578MOL0     C76183  -0.974  10.345  -0.762  0.4367 -0.1828  0.0101
  578MOL0     C76184  -1.111  10.356  -0.688 -0.3858 -0.3520 -0.1112
  578MOL0     C76185  -1.234  10.335  -0.776  0.7746 -1.0732  0.8392
  578MOL0     C76186  -1.279  10.189  -0.754 -0.5473  0.0474 -0.4342
  578MOL0     C76187  -1.416  10.153  -0.806  0.2135 -0.5131  0.0269
  578MOL0     O76188  -1.521  10.225  -0.735 -0.4565  0.0654 -0.9360
  578MOL0     C76189  -1.647  10.161  -0.722 -0.1879 -0.1221  0.7220
  578MOL0     C76190  -1.712  10.092  -0.830 -0.3454  0.5640  0.3060
  578MOL0     C76191  -1.841  10.038  -0.815 -0.0861 -0.0097  0.7718
  578MOL0     C76192  -1.905  10.042  -0.689 -0.3857 -0.7325 -0.3910
  578MOL0     C76193  -2.041   9.975  -0.669 -0.4706  0.7313 -0.0548
  578MOL0     O76194  -2.103   9.917  -0.775 -0.3408  0.3223  0.6142
  578MOL0     C76195  -2.234   9.865  -0.775 -0.5577  0.1871 -0.2178
  578MOL0     C76196  -2.329   9.920  -0.686 -0.4581 -0.1425  0.3710
  578MOL0     C76197  -2.449   9.855  -0.660  0.1689 -0.3292  0.3555
  578MOL0     C76198  -2.470   9.730  -0.719  0.4942 -0.0640 -0.2431
  578MOL0     O76199  -2.578   9.652  -0.695  0.0794  0.1210  0.6454
  578MOL0     C76200  -2.669   9.684  -0.591 -0.9352 -0.2764  0.2146
  578MOL0     C76201  -2.764   9.572  -0.574 -0.0373 -0.3917 -0.4625
  578MOL0     C76202  -2.869   9.621  -0.468 -0.5011 -0.5098 -0.4727
  578MOL0     C76203  -2.811   9.670  -0.331 -0.8509  0.5878  0.1470
  578MOL0     C76204  -2.899   9.644  -0.216  0.4364 -0.6984 -0.8855
  578MOL0     C76205  -2.851   9.713  -0.081  0.2644  0.5339 -0.0406
  578MOL0     C76206  -2.970   9.717   0.023  0.3889  0.0455  0.7076
  578MOL0     C76207  -3.022   9.582   0.063 -0.7067 -0.3577  0.1907
  578MOL0    Cl76208  -2.889   9.482   0.131  0.3615  0.1331 -0.1584
  578MOL0     C76209  -2.387   9.688  -0.829  0.2423  0.7852  0.5181
  578MOL0     C76210  -2.262   9.752  -0.852  0.8525  0.1456  0.3502
  578MOL0     O76211  -2.086   9.973  -0.560 -0.1574 -0.3333 -0.1861
  578MOL0     C76212  -1.842  10.111  -0.585  0.2883  0.1502  0.2682
  578MOL0     C76213  -1.713  10.168  -0.603  0.2707 -0.0813 -1.4968
  578MOL0     N76214  -0.942  10.229  -0.834 -0.6277  0.1469  0.7144
  578MOL0     N76215  -0.825  10.253  -0.887  0.5213  0.1929  0.1063
  578MOL0     C76216   0.192  10.479  -0.148  0.7579  0.4196 -0.2175
  578MOL0     C76217   0.305  10.442  -0.073 -0.2201  0.0191 -0.6356
  578MOL0     C76218   0.624  10.173   0.140 -0.3194 -0.2368  0.6216
  578MOL0     C76219   0.717  10.277   0.149 -0.5766 -0.7505  0.3803
  578MOL0     C76220   0.820  10.258   0.241  0.6433 -0.5999 -0.5423
  578MOL0     C76221   0.822  10.152   0.332 -0.9540  0.1456  0.4623
  578MOL0     O76222   0.933  10.129   0.410  0.4280 -0.1187  0.0062
  578MOL0     C76223   1.007  10.237   0.473 -0.2157 -1.1688 -0.3431
  578MOL0     C76224   1.038  10.194   0.615  0.7450  0.2428  0.3071
  578MOL0     C76225   0.911  10.133   0.691  0.5929  0.0347 -0.1663
  578MOL0     C76226   0.787  10.232   0.678  0.7211  0.9266 -0.2400
  578MOL0     C76227   0.659  10.196   0.741 -0.3156 -0.6591  0.8962
  578MOL0     C76228   0.542  10.176   0.780 -0.8395  0.4387 -0.1985
  578MOL0     C76229   0.724  10.057   0.326  1.3685 -0.2458  0.4347
  578MOL0     C76230   0.621  10.075   0.236 -0.4197  1.1373  0.3821
  578MOL0     H76231   0.363  10.136  -0.196  0.1739  0.1338 -2.7800
  578MOL0     H76232   0.170  10.197  -0.327 -0.5705  0.5112 -1.1828
  578MOL0     H76233   0.085  10.582  -0.394 -0.0653 -1.8817 -0.5576
  578MOL0     H76234  -0.054  10.573  -0.279 -0.4420  0.2245  0.4353
  578MOL0     H76235  -0.112  10.635  -0.510 -0.2158 -1.6129 -1.1396
  578MOL0     H76236  -0.198  10.501  -0.435 -1.8486  0.4841 -2.1701
  578MOL0     H76237  -0.062  10.346  -0.583  0.9124 -0.4494 -1.0461
  578MOL0     H76238   0.027  10.490  -0.629  0.0700 -1.5650 -2.1906
  578MOL0     H76239  -0.162  10.586  -0.755  1.9260  0.4021  1.4037
  578MOL0     H76240  -0.132  10.417  -0.809  0.6892 -0.5859  0.2364
  578MOL0     H76241  -0.344  10.514  -0.628  1.9750 -1.9306  3.1037
  578MOL0     H76242  -0.323  10.342  -0.654  2.0747 -0.8322 -1.0206
  578MOL0     H76243  -0.362  10.372  -0.900  2.0831 -1.3901  2.8297
  578MOL0     H76244  -0.399  10.550  -0.876 -2.2738 -0.6709 -1.8707
  578MOL0     H76245  -0.545  10.311  -0.761  0.6577  1.0580  0.6207
  578MOL0     H76246  -0.568  10.476  -0.704 -0.4280  1.4761 -0.9514
  578MOL0     H76247  -0.612  10.378  -0.988  2.9987  0.7105  1.2030
  578MOL0     H76248  -0.661  10.541  -0.928 -0.6564  1.2061  0.3956
  578MOL0     H76249  -0.904  10.546  -0.766 -0.7618 -0.0083 -1.3123
  578MOL0     H76250  -1.100  10.456  -0.644  0.6411 -0.1505 -0.7784
  578MOL0     H76251  -1.116  10.296  -0.597 -0.0831  1.2672  1.0295
  578MOL0     H76252  -1.225  10.359  -0.882 -2.1311  0.4568  0.8434
  578MOL0     H76253  -1.314  10.391  -0.727 -0.1957 -2.6480  1.1084
  578MOL0     H76254  -1.207  10.124  -0.805  0.6640  0.2566  0.9354
  578MOL0     H76255  -1.274  10.163  -0.648 -0.5224  0.4995 -0.3211
  578MOL0     H76256  -1.430  10.046  -0.826  1.5980 -0.3743 -1.9392
  578MOL0     H76257  -1.423  10.194  -0.907 -2.0950  3.1011  1.4526
  578MOL0     H76258  -1.653  10.054  -0.913  0.5792  1.1884  0.6542
  578MOL0     H76259  -1.901   9.979  -0.883  1.5386 -0.2220 -0.5349
  578MOL0     H76260  -2.317  10.006  -0.620 -2.1770  0.0932  0.4162
  578MOL0     H76261  -2.520   9.889  -0.586  0.4619  2.2561 -0.4633
  578MOL0     H76262  -2.728   9.774  -0.609  0.2278  0.4185 -0.2594
  578MOL0     H76263  -2.600   9.703  -0.508 -0.2759 -2.1414  0.1401
  578MOL0     H76264  -2.716   9.481  -0.537 -1.5682 -0.3344  1.8915
  578MOL0     H76265  -2.806   9.551  -0.673  0.4239  0.0975 -0.7686
  578MOL0     H76266  -2.920   9.529  -0.438  1.2039 -1.0445  0.9655
  578MOL0     H76267  -2.944   9.690  -0.508  0.4791  0.5717 -0.4920
  578MOL0     H76268  -2.717   9.619  -0.310 -1.1806  0.0154  0.2590
  578MOL0     H76269  -2.790   9.778  -0.332  0.6567  0.3687  1.9232
  578MOL0     H76270  -2.912   9.536  -0.206  0.8726 -1.0584 -3.4706
  578MOL0     H76271  -2.997   9.680  -0.247 -0.6270 -1.4027  1.3840
  578MOL0     H76272  -2.808   9.812  -0.096 -0.0084  1.0169  2.0254
  578MOL0     H76273  -2.768   9.659  -0.034  2.7293  2.4408 -1.9120
  578MOL0     H76274  -2.941   9.770   0.115 -0.0472  0.9110  0.3566
  578MOL0     H76275  -3.045   9.788  -0.013  1.6706  1.6540  1.0682
  578MOL0     H76276  -3.069   9.536  -0.025  2.8213 -4.0197 -0.1062
  578MOL0     H76277  -3.103   9.583   0.136 -1.3308 -0.9649 -0.4712
  578MOL0     H76278  -2.421   9.611  -0.896  1.0904  0.9434 -0.1134
  578MOL0     H76279  -2.187   9.717  -0.922  1.4070 -1.8844  1.8473
  578MOL0     H76280  -1.890  10.119  -0.488 -1.0147  1.4201 -0.4453
  578MOL0     H76281  -1.672  10.223  -0.519  0.2162  0.6309 -1.9291
  578MOL0     H76282   0.135  10.565  -0.114  0.6466 -0.1723  1.1900
  578MOL0     H76283   0.334  10.517   0.000 -1.6893 -0.1691  0.1756
  578MOL0     H76284   0.704  10.370   0.094 -2.4585 -0.3840  1.3274
  578MOL0     H76285   0.903  10.328   0.248 -0.5067  0.8387 -0.6743
  578MOL0     H76286   0.956  10.333   0.465 -0.3644 -1.3992 -2.9336
  578MOL0     H76287   1.101  10.253   0.420  0.5172 -2.0242  0.6535
  578MOL0     H76288   1.126  10.130   0.610 -0.8416 -1.9956 -1.1599
  578MOL0     H76289   1.073  10.285   0.664  0.0170  0.0850  1.1582
  578MOL0     H76290   0.938  10.111   0.795 -0.5692 -2.1262 -0.2568
  578MOL0     H76291   0.875  10.040   0.647 -4.2236  0.9271  1.2604
  578MOL0     H76292   0.813  10.329   0.722 -3.0213  1.4418  1.2028
  578MOL0     H76293   0.765  10.256   0.574 -0.6575 -2.4043 -0.8394
  578MOL0     H76294   0.440  10.151   0.806 -0.8393 -1.2447 -1.5740
  578MOL0     H76295   0.714   9.969   0.389  1.5316 -1.0049 -0.5755
  578MOL0     H76296   0.551   9.993   0.245  2.4109 -1.3310  1.0708
  579MOL0     O76297   2.290   5.867   3.596  0.5972 -0.3368 -0.2615
  579MOL0     C76298   2.253   5.889   3.708 -0.7218 -0.3760 -0.0298
  579MOL0     O76299   2.137   5.852   3.766 -0.0541 -0.3473  0.0631
  579MOL0     C76300   2.051   5.777   3.700  0.3296 -0.4039  0.5851
  579MOL0     C76301   2.073   5.642   3.672  0.0174  0.8184 -0.7214
  579MOL0     C76302   1.968   5.563   3.625 -0.0097  0.1005  0.6334
  579MOL0     C76303   1.848   5.618   3.575 -0.2155  0.1928 -0.4348
  579MOL0     O76304   1.761   5.534   3.508  0.1928  0.1653  0.1281
  579MOL0     C76305   1.659   5.471   3.587  0.7402  0.2640 -0.6403
  579MOL0     C76306   1.580   5.363   3.515 -0.3578 -0.6852  0.4652
  579MOL0     C76307   1.483   5.289   3.608 -0.4765 -0.8631 -0.0522
  579MOL0     C76308   1.389   5.185   3.540 -1.0614 -1.1544 -0.5006
  579MOL0     C76309   1.282   5.126   3.642 -1.4943 -0.0478 -0.1374
  579MOL0     C76310   1.165   5.217   3.665  0.1845 -0.4223  0.2859
  579MOL0     C76311   1.063   5.148   3.756  0.0305 -0.3516 -0.0304
  579MOL0     C76312   0.952   5.247   3.776  0.5246  0.9980 -0.2980
  579MOL0     N76313   0.831   5.184   3.834  0.5480  0.7030 -0.9131
  579MOL0     C76314   0.702   5.170   3.781 -0.0630 -0.3793  0.8101
  579MOL0     C76315   0.618   5.133   3.880 -0.3835  0.1092  0.8882
  579MOL0     C76316   0.473   5.113   3.858 -0.6514 -0.0606 -0.6025
  579MOL0     C76317   0.436   4.968   3.896 -0.0109 -0.0920 -0.6177
  579MOL0     C76318   0.476   4.872   3.795  0.3675  0.1496 -0.2313
  579MOL0     C76319   0.466   4.729   3.843 -0.1322  0.0268  0.1012
  579MOL0     O76320   0.338   4.691   3.889  0.1874  0.3786  0.0772
  579MOL0     C76321   0.233   4.681   3.795  0.5374 -0.5890 -0.6008
  579MOL0     C76322   0.103   4.672   3.852  0.4983  0.9355 -0.6611
  579MOL0     C76323  -0.009   4.676   3.768  0.3159  0.4299  0.1166
  579MOL0     C76324  -0.002   4.665   3.628  0.3395  0.1919  0.3584
  579MOL0     C76325  -0.132   4.653   3.549 -0.2262  0.2250  0.0349
  579MOL0     O76326  -0.251   4.649   3.616 -0.0532  0.0405 -0.2422
  579MOL0     C76327  -0.362   4.632   3.544 -0.0722 -0.8957 -0.5310
  579MOL0     C76328  -0.420   4.742   3.479 -0.1308  0.1078  0.3152
  579MOL0     C76329  -0.543   4.744   3.419  0.8040  0.1741  0.4307
  579MOL0     C76330  -0.618   4.627   3.417 -0.0516  0.3264 -1.2743
  579MOL0     O76331  -0.743   4.604   3.370 -0.6762  0.1099  0.0433
  579MOL0     C76332  -0.814   4.718   3.324 -0.2357  1.4781  0.7712
  579MOL0     C76333  -0.958   4.670   3.302  0.1242  0.3357  0.1803
  579MOL0     C76334  -0.966   4.615   3.158 -0.3194 -0.2347  0.0795
  579MOL0     C76335  -1.103   4.558   3.126 -0.1336 -0.5278 -0.1588
  579MOL0     C76336  -1.108   4.522   2.977  0.0847  0.1269  0.2109
  579MOL0     C76337  -1.042   4.386   2.944 -0.7349  0.3636 -1.2244
  579MOL0     C76338  -1.083   4.342   2.802  0.1141 -0.7343 -0.1401
  579MOL0     C76339  -0.992   4.242   2.736 -0.4748 -0.0006 -0.3022
  579MOL0    Cl76340  -1.014   4.081   2.793  0.0777 -0.2527 -0.2858
  579MOL0     C76341  -0.570   4.517   3.491 -0.1799  0.9084  0.0895
  579MOL0     C76342  -0.443   4.515   3.557  0.4241 -0.0270  0.1959
  579MOL0     O76343  -0.120   4.640   3.430 -0.3813  0.0856 -0.6755
  579MOL0     C76344   0.133   4.669   3.571  0.4534  0.1620 -0.2784
  579MOL0     C76345   0.248   4.675   3.654  0.5862  0.6784 -0.2280
  579MOL0     N76346   0.692   5.137   3.997  0.3473  0.8421  0.0996
  579MOL0     N76347   0.817   5.163   3.971  0.2032 -0.0597  0.6781
  579MOL0     C76348   1.829   5.759   3.594 -0.8879  0.4369 -0.8238
  579MOL0     C76349   1.930   5.838   3.656  0.0494  0.8647  0.6854
  579MOL0     C76350   2.355   5.954   3.791 -0.8106 -0.0625 -0.0688
  579MOL0     C76351   2.322   6.000   3.924 -0.5983  0.0135 -1.1597
  579MOL0     C76352   2.429   6.054   4.004 -0.9354  0.7307 -0.1769
  579MOL0     C76353   2.552   6.077   3.952 -0.4702  0.1519 -0.9662
  579MOL0     O76354   2.646   6.132   4.044  0.5504 -0.5435  0.5123
  579MOL0     C76355   2.782   6.144   3.997  0.1258 -1.0210 -0.3522
  579MOL0     C76356   2.875   6.172   4.113 -0.8223 -0.1496 -0.0487
  579MOL0     C76357   3.026   6.160   4.068 -0.5732 -0.3585  0.0838
  579MOL0     C76358   3.074   6.286   4.007 -0.3384 -0.0131 -0.4556
  579MOL0     C76359   3.218   6.292   3.993  0.3820  0.9836 -0.2808
  579MOL0     C76360   3.338   6.281   3.975  1.1339  0.3412  0.3685
  579MOL0     C76361   2.576   6.052   3.819 -0.8378  0.1651  0.4731
  579MOL0     C76362   2.482   5.987   3.741 -0.4488 -0.7871  0.3869
  579MOL0     H76363   2.162   5.585   3.695 -0.1558  0.3489 -1.2126
  579MOL0     H76364   1.976   5.455   3.622 -1.1273 -0.1239  3.0125
  579MOL0     H76365   1.591   5.553   3.614  0.6415 -0.3146  1.0011
  579MOL0     H76366   1.708   5.426   3.674  0.6462 -1.2194 -1.3332
  579MOL0     H76367   1.659   5.292   3.488  0.2388 -0.5965  1.8876
  579MOL0     H76368   1.533   5.393   3.421  3.5592 -0.1036 -1.5071
  579MOL0     H76369   1.421   5.366   3.655  0.6572 -0.1012  0.2297
  579MOL0     H76370   1.547   5.238   3.681 -0.5386 -0.3529  0.3629
  579MOL0     H76371   1.347   5.245   3.458  0.1852 -1.8178 -1.6754
  579MOL0     H76372   1.453   5.105   3.502  5.0645  2.1575  1.6193
  579MOL0     H76373   1.326   5.095   3.737 -2.8716  3.6772  1.9135
  579MOL0     H76374   1.249   5.038   3.585 -0.7789 -2.1423  2.4327
  579MOL0     H76375   1.120   5.249   3.571  0.3739 -2.7183 -0.6474
  579MOL0     H76376   1.191   5.314   3.709  0.6442 -0.6621  0.5513
  579MOL0     H76377   1.033   5.049   3.720 -0.0713 -1.1799  2.1778
  579MOL0     H76378   1.101   5.130   3.857 -1.4905  2.1729  1.0880
  579MOL0     H76379   0.922   5.302   3.686  1.7211 -0.6842 -1.7909
  579MOL0     H76380   0.995   5.323   3.841 -1.2497  0.6110  1.4251
  579MOL0     H76381   0.665   5.186   3.680  1.3419 -0.8196  0.2010
  579MOL0     H76382   0.438   5.134   3.756  1.8796 -0.1519 -1.5571
  579MOL0     H76383   0.430   5.200   3.908 -0.7261  0.5084 -1.6290
  579MOL0     H76384   0.327   4.964   3.892 -0.1111  1.8510 -0.9463
  579MOL0     H76385   0.484   4.943   3.991  0.9900  1.1913 -0.7435
  579MOL0     H76386   0.416   4.878   3.704  1.0564  0.7316 -0.6556
  579MOL0     H76387   0.579   4.882   3.760  1.0409 -0.3534  1.4779
  579MOL0     H76388   0.536   4.719   3.926  0.9132  2.0743 -0.4696
  579MOL0     H76389   0.499   4.657   3.768  2.2360  0.1138  0.9893
  579MOL0     H76390   0.091   4.657   3.959  2.7918 -1.6310 -0.6529
  579MOL0     H76391  -0.108   4.681   3.813  0.9770 -0.7747  1.8162
  579MOL0     H76392  -0.367   4.837   3.484  0.7258 -0.3405 -0.1299
  579MOL0     H76393  -0.580   4.829   3.363  2.8502  1.2334  0.5807
  579MOL0     H76394  -0.771   4.769   3.238  1.5694 -0.4804  0.4334
  579MOL0     H76395  -0.815   4.794   3.402 -1.8391  1.9755  0.3192
  579MOL0     H76396  -1.030   4.744   3.338  1.6067  1.5714  0.7114
  579MOL0     H76397  -0.975   4.595   3.380 -1.2984 -2.0978 -2.2891
  579MOL0     H76398  -0.889   4.537   3.156  0.8550  0.8799  0.2667
  579MOL0     H76399  -0.927   4.687   3.086  2.1524 -2.7849 -1.3182
  579MOL0     H76400  -1.108   4.467   3.187  3.2972  0.4203  1.8068
  579MOL0     H76401  -1.191   4.618   3.152 -2.4595 -2.0578 -3.7026
  579MOL0     H76402  -1.063   4.598   2.912  2.8302 -2.7224 -1.5166
  579MOL0     H76403  -1.212   4.514   2.944  0.1515 -0.2123  0.0839
  579MOL0     H76404  -1.071   4.303   3.010  1.1233  1.1146  0.6746
  579MOL0     H76405  -0.934   4.397   2.963 -0.7607 -2.8611  1.9828
  579MOL0     H76406  -1.182   4.299   2.812 -0.1766  0.2532  1.7767
  579MOL0     H76407  -1.075   4.437   2.748  1.5747 -1.7975 -1.9362
  579MOL0     H76408  -0.890   4.272   2.764 -0.7898 -1.2774  2.5082
  579MOL0     H76409  -1.010   4.241   2.628 -1.6503 -2.7472 -0.1595
  579MOL0     H76410  -0.636   4.430   3.493  1.8545 -0.7364  2.7586
  579MOL0     H76411  -0.406   4.432   3.617 -1.8442 -1.3636 -0.1184
  579MOL0     H76412   0.146   4.663   3.463 -0.4424  2.3687 -0.5672
  579MOL0     H76413   0.343   4.661   3.604  0.1773 -1.6811 -0.4375
  579MOL0     H76414   1.747   5.819   3.556  0.7185  1.4159 -2.9760
  579MOL0     H76415   1.930   5.945   3.671 -3.3259  1.1469 -0.5891
  579MOL0     H76416   2.224   5.979   3.964  0.5287 -0.1232  1.7529
  579MOL0     H76417   2.414   6.064   4.111  1.1554 -0.7981  0.3328
  579MOL0     H76418   2.793   6.236   3.939  1.5513 -0.8327  0.1703
  579MOL0     H76419   2.827   6.063   3.937 -0.1490 -1.1036 -0.4493
  579MOL0     H76420   2.860   6.272   4.154  1.9882  1.6294 -2.8821
  579MOL0     H76421   2.855   6.104   4.196  1.7763  0.1340  0.8994
  579MOL0     H76422   3.042   6.081   3.995 -2.7592  0.2186 -1.0975
  579MOL0     H76423   3.096   6.154   4.152  3.1727  0.0750 -2.7617
  579MOL0     H76424   3.039   6.299   3.904 -2.2085  0.5448  0.2102
  579MOL0     H76425   3.029   6.367   4.065 -1.9287 -0.0775 -1.5299
  579MOL0     H76426   3.444   6.272   3.971  1.1165  0.6009 -2.1151
  579MOL0     H76427   2.675   6.075   3.782 -1.3933  0.0272 -1.1780
  579MOL0     H76428   2.501   5.942   3.644  0.5487  0.5558 -0.0629
  580MOL0     O76429   2.933   4.043  10.008  0.4261  0.4120 -0.9322
  580MOL0     C76430   2.997   3.950   9.969 -1.2136 -0.4912  0.8325
  580MOL0     O76431   2.956   3.819   9.968  0.5776 -1.0544 -0.0285
  580MOL0     C76432   2.816   3.803   9.986 -0.8700  0.1316  0.3177
  580MOL0     C76433   2.763   3.705  10.075 -1.0017 -0.2383 -0.2872
  580MOL0     C76434   2.629   3.661  10.068  0.4995 -0.3652  0.2100
  580MOL0     C76435   2.538   3.727   9.983 -0.2018 -0.0252 -0.2712
  580MOL0     O76436   2.414   3.692   9.943 -0.1119 -0.0961 -1.2058
  580MOL0     C76437   2.355   3.599  10.038  0.1023 -0.0436  0.3891
  580MOL0     C76438   2.204   3.606  10.018  0.9897  0.0488 -0.0413
  580MOL0     C76439   2.132   3.502  10.101  0.7871 -0.0114 -0.6801
  580MOL0     C76440   1.983   3.473  10.051 -0.5189 -0.5908 -0.6804
  580MOL0     C76441   1.948   3.343  10.120 -0.1053 -0.8656  0.2069
  580MOL0     C76442   1.801   3.319  10.099  0.4919  0.1360  0.0093
  580MOL0     C76443   1.755   3.194  10.167  0.8103  0.0070  0.5395
  580MOL0     C76444   1.598   3.182  10.165 -0.1144 -0.5505  0.1503
  580MOL0     N76445   1.567   3.045  10.190  0.2387 -0.2022  0.1207
  580MOL0     C76446   1.457   2.970  10.144 -0.2700 -0.5374 -0.2386
  580MOL0     C76447   1.461   2.854  10.209 -0.5459 -0.1381 -0.1191
  580MOL0     C76448   1.380   2.727  10.175  0.2510  0.5281 -0.2364
  580MOL0     C76449   1.230   2.757  10.170 -0.1043 -0.0645  0.3950
  580MOL0     C76450   1.174   2.801  10.310 -0.3246  0.6177 -0.4837
  580MOL0     C76451   1.027   2.842  10.321  0.4972 -0.0600 -0.4947
  580MOL0     O76452   0.944   2.734  10.272 -0.0576 -0.0286 -0.3175
  580MOL0     C76453   0.813   2.746  10.265 -0.5532 -0.2983  0.5396
  580MOL0     C76454   0.735   2.648  10.199 -0.5230  0.0260 -0.2787
  580MOL0     C76455   0.601   2.657  10.185  0.1529 -0.1842 -0.1790
  580MOL0     C76456   0.535   2.776  10.232  0.1813  0.2160  0.6195
  580MOL0     C76457   0.384   2.798  10.214 -0.4895  0.7005 -0.7395
  580MOL0     O76458   0.336   2.912  10.277 -0.2147  0.6985  0.3281
  580MOL0     C76459   0.206   2.918  10.272  0.4535  0.6830 -0.0749
  580MOL0     C76460   0.131   2.889  10.384  0.2465  0.2161 -0.2904
  580MOL0     C76461  -0.010   2.888  10.373  0.5550 -0.0240  0.1477
  580MOL0     C76462  -0.072   2.926  10.255  0.1897  0.6230 -0.3721
  580MOL0     O76463  -0.207   2.941  10.235  0.0769  0.5776  0.2911
  580MOL0     C76464  -0.292   2.925  10.351 -0.4960 -0.2998 -0.6455
  580MOL0     C76465  -0.441   2.936  10.315  0.3250  0.0439 -0.5840
  580MOL0     C76466  -0.472   3.087  10.267  0.6120  0.9091  0.1649
  580MOL0     C76467  -0.461   3.189  10.374 -0.2821  0.7121  0.2409
  580MOL0     C76468  -0.559   3.162  10.492  0.2636  0.1734 -0.8257
  580MOL0     C76469  -0.591   3.294  10.566 -0.1006 -0.6676 -0.7687
  580MOL0     C76470  -0.470   3.389  10.602  0.5868  0.7921 -0.6241
  580MOL0     C76471  -0.343   3.317  10.659  0.6615 -0.3455 -0.9319
  580MOL0    Cl76472  -0.366   3.249  10.831 -0.6757  0.6117 -0.0878
  580MOL0     C76473   0.006   2.947  10.143  0.0926 -0.0432 -0.3897
  580MOL0     C76474   0.145   2.949  10.149  0.7215 -1.3073  0.6267
  580MOL0     O76475   0.329   2.709  10.152 -0.0265 -0.1248  0.8432
  580MOL0     C76476   0.611   2.866  10.306 -0.1401  0.3546 -0.0820
  580MOL0     C76477   0.751   2.860  10.320 -0.1378 -0.8967  0.0433
  580MOL0     N76478   1.576   2.860  10.291 -0.4231 -0.0784 -0.2568
  580MOL0     N76479   1.630   2.973  10.279 -0.7036  0.6038  0.4172
  580MOL0     C76480   2.589   3.832   9.905 -0.8839  0.5045  0.3228
  580MOL0     C76481   2.728   3.861   9.892  0.6888 -1.0785  0.4727
  580MOL0     C76482   3.143   3.965   9.927  0.5350 -0.2225 -0.7558
  580MOL0     C76483   3.217   3.857   9.872  0.4639 -0.5596  0.0799
  580MOL0     C76484   3.349   3.877   9.825  0.2497 -0.1619 -0.0663
  580MOL0     C76485   3.405   4.008   9.827 -0.1674 -0.2940  0.9833
  580MOL0     O76486   3.521   4.018   9.750 -0.5769  0.3414 -0.2977
  580MOL0     C76487   3.606   4.134   9.769 -0.2184 -0.4819 -0.3007
  580MOL0     C76488   3.562   4.257   9.681 -0.7066  0.1363  1.1349
  580MOL0     C76489   3.666   4.371   9.682 -0.4008 -0.1924  0.0512
  580MOL0     C76490   3.805   4.319   9.633  0.7401 -0.4933 -0.3556
  580MOL0     C76491   3.904   4.274   9.733  0.6706  0.2512  0.1163
  580MOL0     C76492   3.988   4.221   9.806  1.0204  0.2615 -0.3608
  580MOL0     C76493   3.338   4.117   9.889  0.7478  1.0234  0.0265
  580MOL0     C76494   3.206   4.101   9.930  0.8185  0.3545  0.5206
  580MOL0     H76495   2.841   3.669  10.142 -0.5245  0.1386 -0.6392
  580MOL0     H76496   2.587   3.584  10.131  1.9433 -1.3667 -0.0093
  580MOL0     H76497   2.363   3.624  10.144 -1.4561 -2.0693  1.0604
  580MOL0     H76498   2.400   3.500  10.022  0.4981 -0.0826  1.6731
  580MOL0     H76499   2.189   3.591   9.911  0.1852 -1.5875  0.2775
  580MOL0     H76500   2.173   3.705  10.054  3.0712  0.2090  1.5626
  580MOL0     H76501   2.134   3.528  10.207  3.2559 -2.0666 -0.1212
  580MOL0     H76502   2.185   3.407  10.088  3.8154  0.7822  3.6137
  580MOL0     H76503   1.923   3.555  10.092 -0.5768 -0.6726 -0.6008
  580MOL0     H76504   1.969   3.468   9.942  2.1211 -0.6353 -1.0767
  580MOL0     H76505   1.977   3.361  10.224  0.9392 -4.7681  0.7581
  580MOL0     H76506   2.009   3.259  10.085  0.7893 -1.2517  2.4925
  580MOL0     H76507   1.792   3.308   9.991 -0.8282  0.5307  0.0625
  580MOL0     H76508   1.744   3.404  10.138 -0.5912 -0.9136  0.8004
  580MOL0     H76509   1.797   3.104  10.121 -1.9370 -0.6798 -0.8448
  580MOL0     H76510   1.777   3.209  10.273 -3.0673  2.9565  1.1596
  580MOL0     H76511   1.562   3.209  10.066  3.1257  1.7692 -0.5575
  580MOL0     H76512   1.553   3.264  10.222  0.9173  0.7498 -0.8643
  580MOL0     H76513   1.388   2.993  10.063 -0.5520 -1.6861 -0.3399
  580MOL0     H76514   1.403   2.659  10.257  0.0472  0.3831 -0.2992
  580MOL0     H76515   1.418   2.688  10.080 -0.3950  0.1404 -0.3419
  580MOL0     H76516   1.170   2.671  10.137  1.3984 -0.9886 -0.0442
  580MOL0     H76517   1.197   2.825  10.091 -1.0751 -2.2585 -1.2093
  580MOL0     H76518   1.188   2.721  10.384  0.1642  0.7000 -0.4829
  580MOL0     H76519   1.233   2.887  10.342  0.2089  0.2335 -0.4067
  580MOL0     H76520   1.011   2.923  10.249  0.1471 -3.0418 -4.0745
  580MOL0     H76521   1.008   2.868  10.425  2.3143  2.5620 -0.7228
  580MOL0     H76522   0.770   2.556  10.155  0.3548 -0.3918  1.2101
  580MOL0     H76523   0.549   2.578  10.131 -1.2719  1.7534 -1.8243
  580MOL0     H76524   0.182   2.864  10.477 -2.9096  0.8517  1.7696
  580MOL0     H76525  -0.070   2.885  10.463 -0.4982  1.9084 -0.4428
  580MOL0     H76526  -0.263   2.989  10.435  0.8465 -0.3280 -1.0527
  580MOL0     H76527  -0.282   2.824  10.393  1.2037 -0.6156 -1.6902
  580MOL0     H76528  -0.488   2.923  10.413 -1.7353  4.0578 -0.8150
  580MOL0     H76529  -0.481   2.865  10.242  0.8894 -2.3906  1.3313
  580MOL0     H76530  -0.578   3.095  10.242 -1.0700  0.5250  5.8365
  580MOL0     H76531  -0.408   3.103  10.179  0.8508 -0.6455  0.0314
  580MOL0     H76532  -0.359   3.185  10.414 -0.3116 -2.0139  0.2517
  580MOL0     H76533  -0.467   3.293  10.343  2.3351  1.1949  1.0805
  580MOL0     H76534  -0.516   3.096  10.569  0.8157  1.0235 -0.3822
  580MOL0     H76535  -0.655   3.124  10.456  0.4182 -2.9237  1.5315
  580MOL0     H76536  -0.638   3.258  10.657 -0.6176  0.3895 -0.5974
  580MOL0     H76537  -0.672   3.336  10.505  0.3194 -0.1018 -0.9556
  580MOL0     H76538  -0.434   3.455  10.524  1.6291 -0.0535 -0.8804
  580MOL0     H76539  -0.498   3.465  10.676  1.2486  0.5671 -0.1352
  580MOL0     H76540  -0.275   3.402  10.676  0.8486 -0.4762 -1.0187
  580MOL0     H76541  -0.299   3.245  10.590  1.5730 -1.3739  0.6654
  580MOL0     H76542  -0.047   2.967  10.051 -2.6665 -0.9428  0.9101
  580MOL0     H76543   0.198   2.978  10.059 -0.0004  0.8403  0.8436
  580MOL0     H76544   0.555   2.952  10.343 -0.9159 -0.9383  1.9163
  580MOL0     H76545   0.793   2.934  10.389 -0.0250 -4.5546  4.3595
  580MOL0     H76546   2.518   3.874   9.834 -3.3272 -3.3149  0.1750
  580MOL0     H76547   2.749   3.926   9.808 -2.6094 -1.4303 -0.7630
  580MOL0     H76548   3.166   3.762   9.861 -1.9122  0.6295 -0.0713
  580MOL0     H76549   3.400   3.805   9.762  2.1560  1.1742 -0.1463
  580MOL0     H76550   3.705   4.098   9.740 -1.0669 -1.2622 -2.4506
  580MOL0     H76551   3.618   4.165   9.873  0.0651 -1.0483 -0.1629
  580MOL0     H76552   3.523   4.231   9.582  0.2691  0.8333  0.5528
  580MOL0     H76553   3.469   4.299   9.722 -0.2318  2.1885  0.2329
  580MOL0     H76554   3.666   4.404   9.787 -3.1600 -1.1038  0.4137
  580MOL0     H76555   3.631   4.456   9.623 -3.2554 -0.2994  1.4037
  580MOL0     H76556   3.794   4.244   9.553  0.7555  0.5951 -1.4137
  580MOL0     H76557   3.840   4.408   9.580 -3.5525  0.2116 -2.5607
  580MOL0     H76558   4.071   4.179   9.860  0.2277 -0.2481  0.5022
  580MOL0     H76559   3.382   4.216   9.896 -0.6986  1.8219 -1.4024
  580MOL0     H76560   3.155   4.186   9.973  1.1255  1.0308 -0.4209
  581MOL0     O76561  11.021   3.325  10.165 -0.4329 -0.2401 -0.3834
  581MOL0     C76562  11.034   3.423  10.244 -0.4087  1.2161 -0.0662
  581MOL0     O76563  10.973   3.536  10.233  0.0567 -0.0238 -0.8760
  581MOL0     C76564  10.906   3.568  10.117  0.0541  0.6721  0.5596
  581MOL0     C76565  10.768   3.602  10.112 -0.3109 -1.5168  0.7290
  581MOL0     C76566  10.703   3.632   9.993 -0.2013 -0.6634  0.2825
  581MOL0     C76567  10.776   3.646   9.874 -0.6191  0.1526 -0.9578
  581MOL0     O76568  10.721   3.677   9.753  0.4025 -0.7762 -0.7747
  581MOL0     C76569  10.648   3.566   9.701  0.3789  0.2529 -0.1338
  581MOL0     C76570  10.734   3.473   9.614 -0.5756  0.2181 -0.4018
  581MOL0     C76571  10.654   3.413   9.497  0.9768 -0.1610 -0.4733
  581MOL0     C76572  10.746   3.330   9.397 -0.9951 -0.3641 -0.0247
  581MOL0     C76573  10.667   3.270   9.291  0.2564  0.7897 -0.2694
  581MOL0     C76574  10.606   3.138   9.342 -0.0359  0.1549  0.0850
  581MOL0     C76575  10.452   3.146   9.328 -1.1662 -0.3168 -0.5469
  581MOL0     C76576  10.381   3.018   9.369 -0.3373  0.1121  0.2625
  581MOL0     N76577  10.238   3.050   9.390 -0.3955  0.1597 -0.8706
  581MOL0     C76578  10.183   3.059   9.514  0.3168 -0.2255  0.0227
  581MOL0     C76579  10.049   3.069   9.496  0.8273  0.0972 -0.5655
  581MOL0     C76580   9.953   3.097   9.610 -0.4801 -0.0807 -0.3394
  581MOL0     C76581   9.852   3.207   9.581 -0.2320  0.4219  0.0861
  581MOL0     C76582   9.787   3.248   9.710  0.1112 -0.6027 -0.8110
  581MOL0     C76583   9.634   3.240   9.707 -0.1582 -0.4626 -0.3373
  581MOL0     O76584   9.603   3.254   9.847 -0.7331 -0.2565  0.3015
  581MOL0     C76585   9.477   3.293   9.878  0.4853  0.1094 -0.1649
  581MOL0     C76586   9.374   3.310   9.790  0.1810  0.2863  0.1708
  581MOL0     C76587   9.248   3.341   9.845 -0.3448  0.1339 -0.6425
  581MOL0     C76588   9.225   3.337   9.985 -0.0541 -0.2971  0.3127
  581MOL0     C76589   9.089   3.346  10.046 -0.3980 -0.0712  0.7322
  581MOL0     O76590   9.080   3.402  10.168  0.2997 -0.2626  0.4821
  581MOL0     C76591   8.953   3.427  10.213  1.0909 -0.1694 -0.6163
  581MOL0     C76592   8.852   3.493  10.142 -0.0940 -0.9133  0.9754
  581MOL0     C76593   8.730   3.527  10.201  0.0010  1.0659  0.0230
  581MOL0     C76594   8.700   3.501  10.335 -0.1913  1.0160  0.0157
  581MOL0     O76595   8.573   3.529  10.377 -0.0151 -0.1319  0.7597
  581MOL0     C76596   8.518   3.468  10.495  0.3017  0.1480 -0.5747
  581MOL0     C76597   8.371   3.482  10.499 -0.0360 -0.0855  0.4008
  581MOL0     C76598   8.313   3.624  10.496 -0.9825  0.0136 -0.6479
  581MOL0     C76599   8.171   3.628  10.538 -0.6636 -0.6463 -0.0544
  581MOL0     C76600   8.080   3.565  10.434  0.4740  0.3093  0.1525
  581MOL0     C76601   7.930   3.587  10.460 -0.4763  0.5333  0.6863
  581MOL0     C76602   7.878   3.521  10.589 -0.2776 -0.1311 -0.1174
  581MOL0     C76603   7.727   3.516  10.587  0.2900 -0.5478 -0.3251
  581MOL0    Cl76604   7.662   3.429  10.449 -0.3152  0.2640  0.4805
  581MOL0     C76605   8.803   3.443  10.415  0.3850 -0.4960 -0.3029
  581MOL0     C76606   8.932   3.409  10.352  0.4305  0.4586 -0.5334
  581MOL0     O76607   8.997   3.302   9.969  0.1603  0.3485 -0.0512
  581MOL0     C76608   9.339   3.342  10.067  1.0423  0.6684  0.1563
  581MOL0     C76609   9.465   3.318  10.013  0.0464  0.1558  0.3521
  581MOL0     N76610  10.026   3.070   9.361 -0.6757 -0.0685 -0.3270
  581MOL0     N76611  10.142   3.053   9.293  0.0171 -0.3187 -0.9793
  581MOL0     C76612  10.908   3.619   9.876  0.6807  0.1363  0.0633
  581MOL0     C76613  10.976   3.586   9.991  0.3441 -0.0789  1.3121
  581MOL0     C76614  11.119   3.404  10.365  0.2917 -0.1715  0.5324
  581MOL0     C76615  11.161   3.508  10.451 -0.5487 -0.1870 -0.6583
  581MOL0     C76616  11.235   3.485  10.562 -0.5367 -0.0889 -0.5373
  581MOL0     C76617  11.280   3.353  10.598 -0.6948  0.1776 -0.5240
  581MOL0     O76618  11.345   3.309  10.721  0.3101  0.1605  0.1787
  581MOL0     C76619  11.391   3.413  10.805  0.4305 -0.3641  0.1372
  581MOL0     C76620  11.285   3.456  10.923  0.2977 -0.3493 -0.5707
  581MOL0     C76621  11.210   3.333  10.975 -0.5232  0.4061 -0.8866
  581MOL0     C76622  11.307   3.231  11.043  0.0146  0.8720  0.1116
  581MOL0     C76623  11.223   3.127  11.115 -0.1908 -0.1134  0.1071
  581MOL0     C76624  11.140   3.058  11.165 -0.7390  0.1475 -0.2879
  581MOL0     C76625  11.244   3.248  10.510  0.3573 -0.4224 -0.6013
  581MOL0     C76626  11.166   3.273  10.395  0.1540  0.8666 -0.3231
  581MOL0     H76627  10.711   3.610  10.204 -0.1614 -0.4998  0.7488
  581MOL0     H76628  10.596   3.652   9.993 -0.3435 -1.4085  0.5838
  581MOL0     H76629  10.573   3.606   9.633 -2.9548 -0.1706  2.9912
  581MOL0     H76630  10.586   3.509   9.771 -0.4588 -0.5104 -1.4342
  581MOL0     H76631  10.783   3.397   9.676  0.3360 -0.4607 -1.8845
  581MOL0     H76632  10.807   3.535   9.561  0.8178 -0.0221  1.1630
  581MOL0     H76633  10.600   3.493   9.447  0.0231 -1.1353 -1.0113
  581MOL0     H76634  10.578   3.343   9.533  0.4315  0.0612 -1.1939
  581MOL0     H76635  10.822   3.386   9.341  0.4517 -0.9384  1.3022
  581MOL0     H76636  10.793   3.252   9.458 -1.0968 -0.6111 -0.2619
  581MOL0     H76637  10.723   3.248   9.200 -0.5905  2.1549 -1.1580
  581MOL0     H76638  10.589   3.333   9.247  2.2885  1.8793 -2.5426
  581MOL0     H76639  10.628   3.116   9.447 -0.9465 -1.1120  0.0421
  581MOL0     H76640  10.641   3.052   9.284 -1.3443 -1.1517  1.1520
  581MOL0     H76641  10.421   3.234   9.385 -0.2803  0.0326 -0.5885
  581MOL0     H76642  10.423   3.163   9.224 -4.2098 -0.8139  0.1080
  581MOL0     H76643  10.425   2.969   9.457  2.5261  0.5044 -0.8260
  581MOL0     H76644  10.401   2.939   9.297 -1.0254 -0.5108  0.7444
  581MOL0     H76645  10.236   3.071   9.608  2.7923  0.2693 -1.3577
  581MOL0     H76646  10.013   3.127   9.696 -1.2560  0.4545  0.0255
  581MOL0     H76647   9.897   3.002   9.617  1.1268 -1.0189  0.2128
  581MOL0     H76648   9.778   3.159   9.516  0.0254 -0.5873  0.5179
  581MOL0     H76649   9.908   3.293   9.542 -0.5897  1.3822  1.6062
  581MOL0     H76650   9.810   3.185   9.796 -3.5813  1.1233  1.7141
  581MOL0     H76651   9.825   3.348   9.732  0.2934 -1.1099  1.3583
  581MOL0     H76652   9.595   3.147   9.666 -0.9420 -0.5430  0.5644
  581MOL0     H76653   9.590   3.324   9.651 -1.5459  2.4522  4.5577
  581MOL0     H76654   9.395   3.286   9.687  1.5754  0.0345  0.4904
  581MOL0     H76655   9.164   3.334   9.777  0.6999 -1.1803 -1.8567
  581MOL0     H76656   8.883   3.518  10.041  0.9251 -1.9152  1.0214
  581MOL0     H76657   8.656   3.578  10.140 -0.7392  1.1496  0.9508
  581MOL0     H76658   8.557   3.532  10.575 -1.7719  1.0870 -0.2663
  581MOL0     H76659   8.559   3.367  10.508  1.3393  0.6222  0.0666
  581MOL0     H76660   8.339   3.437  10.593 -0.2096 -0.9952 -0.0745
  581MOL0     H76661   8.336   3.421  10.414 -1.2120  0.1830  0.6725
  581MOL0     H76662   8.313   3.678  10.401 -0.7157  1.0260 -0.0884
  581MOL0     H76663   8.370   3.670  10.578 -1.4414 -1.9781  0.8687
  581MOL0     H76664   8.154   3.584  10.636 -0.5553  0.5244  0.4969
  581MOL0     H76665   8.152   3.734  10.554 -1.3032 -0.0431 -3.8696
  581MOL0     H76666   8.103   3.458  10.435 -3.0951 -0.5619  0.6441
  581MOL0     H76667   8.107   3.600  10.334  1.0980 -1.1320 -0.2177
  581MOL0     H76668   7.884   3.545  10.370 -1.0217 -0.5779  1.4504
  581MOL0     H76669   7.904   3.693  10.460 -1.7063  0.2995 -1.6265
  581MOL0     H76670   7.916   3.419  10.597  0.5057  0.1597 -0.0015
  581MOL0     H76671   7.921   3.585  10.667 -0.1883  1.2984 -1.2917
  581MOL0     H76672   7.700   3.622  10.587  1.0538 -0.3421 -0.1180
  581MOL0     H76673   7.688   3.469  10.678 -0.0699 -2.3968 -1.3958
  581MOL0     H76674   8.794   3.434  10.523 -0.9592  2.8542  0.0076
  581MOL0     H76675   9.002   3.376  10.428 -0.1255 -1.1979 -0.6960
  581MOL0     H76676   9.327   3.350  10.175 -2.7808  0.7959 -0.1406
  581MOL0     H76677   9.552   3.298  10.074  1.3695  0.3414 -1.3970
  581MOL0     H76678  10.958   3.633   9.781  2.5664  0.3004  1.0209
  581MOL0     H76679  11.084   3.576   9.987  0.3887  0.5835  0.3907
  581MOL0     H76680  11.136   3.608  10.418  0.0228  0.4395  0.7390
  581MOL0     H76681  11.249   3.570  10.628 -0.8061 -0.5133  0.0823
  581MOL0     H76682  11.415   3.509  10.759  1.4415 -0.4829  0.3771
  581MOL0     H76683  11.484   3.381  10.854  0.0667 -1.4628  0.1358
  581MOL0     H76684  11.343   3.511  10.998 -1.1877  0.7561 -0.1642
  581MOL0     H76685  11.210   3.529  10.891 -0.4143  0.0146  1.7159
  581MOL0     H76686  11.151   3.276  10.903  2.1622 -2.7801 -0.7856
  581MOL0     H76687  11.144   3.351  11.061 -1.8957 -1.0906 -1.5791
  581MOL0     H76688  11.369   3.178  10.970  0.2531  0.9732  0.2417
  581MOL0     H76689  11.377   3.279  11.112  3.2187 -0.5900 -1.8988
  581MOL0     H76690  11.061   2.993  11.197 -2.8155  1.6457 -2.0520
  581MOL0     H76691  11.270   3.143  10.521 -3.6757 -1.5784 -0.3036
  581MOL0     H76692  11.139   3.181  10.343  0.1299 -0.5304  2.0441
  582MOL0     O76693   4.120   4.835  11.027 -0.3744 -0.8718  0.1790
  582MOL0     C76694   4.134   4.836  11.145  0.2035 -0.4943 -0.0004
  582MOL0     O76695   4.038   4.768  11.224 -0.4234 -0.3227  0.3180
  582MOL0     C76696   3.928   4.701  11.176  0.1914  0.1868  0.3587
  582MOL0     C76697   3.847   4.749  11.078  0.2380 -0.6303  0.7726
  582MOL0     C76698   3.726   4.684  11.044  0.0264 -0.0845 -0.0784
  582MOL0     C76699   3.692   4.570  11.115  0.4379 -0.6333  0.3366
  582MOL0     O76700   3.567   4.501  11.073 -0.2607 -0.2672 -0.0057
  582MOL0     C76701   3.545   4.366  11.118  0.1659  0.6318 -0.2345
  582MOL0     C76702   3.404   4.325  11.070  0.4638 -0.4089 -0.2686
  582MOL0     C76703   3.374   4.177  11.097  0.3263 -0.6891 -0.2648
  582MOL0     C76704   3.242   4.158  11.024  0.1398  0.3721 -0.2167
  582MOL0     C76705   3.200   4.013  11.063 -0.3527  1.1234 -0.1386
  582MOL0     C76706   3.061   3.981  11.010  0.7284 -0.8970 -0.1057
  582MOL0     C76707   3.028   3.837  11.054  1.1049 -0.0823  0.2191
  582MOL0     C76708   2.881   3.816  11.012  0.0450 -0.7694 -0.0553
  582MOL0     N76709   2.829   3.677  11.015 -0.6360  0.0432 -0.6013
  582MOL0     C76710   2.703   3.654  11.000  0.0474  0.5262 -0.8766
  582MOL0     C76711   2.697   3.516  10.990  0.5654  0.2171 -0.5908
  582MOL0     C76712   2.571   3.434  10.969  0.7370  0.7533  0.0829
  582MOL0     C76713   2.569   3.302  11.053 -0.4281  0.5164 -0.0287
  582MOL0     C76714   2.575   3.319  11.201  0.3463 -0.2985 -0.2198
  582MOL0     C76715   2.448   3.383  11.270 -0.5014 -0.5213  0.8327
  582MOL0     O76716   2.339   3.292  11.240 -0.3633  0.8241 -0.3231
  582MOL0     C76717   2.215   3.329  11.273  0.1597  0.2024 -0.2236
  582MOL0     C76718   2.114   3.231  11.267  0.0958  0.4235 -0.3755
  582MOL0     C76719   1.980   3.268  11.313 -0.5128  0.3166 -0.2558
  582MOL0     C76720   1.954   3.398  11.358 -0.3100  0.3659 -0.2388
  582MOL0     C76721   1.812   3.434  11.391  0.8409  0.4304 -0.3000
  582MOL0     O76722   1.772   3.573  11.372  0.2101  0.2671  0.5742
  582MOL0     C76723   1.642   3.617  11.377 -0.3538  0.5233 -1.1514
  582MOL0     C76724   1.532   3.551  11.319  1.0060  0.9673  0.7108
  582MOL0     C76725   1.407   3.613  11.316  0.2516 -0.8494 -0.1917
  582MOL0     C76726   1.389   3.744  11.368 -0.1987 -0.1236  1.2022
  582MOL0     O76727   1.271   3.809  11.354 -1.1633  0.1092 -0.1490
  582MOL0     C76728   1.155   3.731  11.312 -0.0621 -0.4292 -0.1486
  582MOL0     C76729   1.042   3.835  11.334 -0.1330 -0.3586  0.0458
  582MOL0     C76730   0.904   3.775  11.305 -0.3153 -0.6107  0.9287
  582MOL0     C76731   0.797   3.874  11.344 -0.7983  0.3143  0.1678
  582MOL0     C76732   0.668   3.850  11.267 -0.2552  0.2177 -1.2555
  582MOL0     C76733   0.665   3.945  11.141  1.0489  0.7277 -0.7237
  582MOL0     C76734   0.639   3.874  10.999 -0.6813 -0.3381  0.5718
  582MOL0     C76735   0.736   3.756  10.966 -0.4221 -0.4682 -0.0132
  582MOL0    Cl76736   0.912   3.802  10.947 -0.1390 -0.2723  0.2274
  582MOL0     C76737   1.488   3.812  11.430 -0.9090 -0.4745  0.0563
  582MOL0     C76738   1.615   3.741  11.436 -0.1778 -1.4127 -1.1580
  582MOL0     O76739   1.734   3.344  11.427  0.7305 -0.6769 -0.6801
  582MOL0     C76740   2.052   3.488  11.361  0.4856 -1.0421  0.1762
  582MOL0     C76741   2.178   3.458  11.316 -0.3391  0.5533 -0.4999
  582MOL0     N76742   2.824   3.465  11.011 -0.0220  0.8527  0.0446
  582MOL0     N76743   2.904   3.566  11.029  0.3443 -0.6325  0.3563
  582MOL0     C76744   3.782   4.516  11.206 -0.3470  0.7089 -0.1145
  582MOL0     C76745   3.895   4.588  11.246  0.5392  0.0897 -0.5343
  582MOL0     C76746   4.262   4.895  11.202  0.2049 -0.4997 -0.4118
  582MOL0     C76747   4.372   4.908  11.117  0.0524 -0.0253  0.1190
  582MOL0     C76748   4.495   4.972  11.158 -0.2586 -0.6120  0.0908
  582MOL0     C76749   4.512   4.996  11.292  0.1072 -1.2997  0.0740
  582MOL0     O76750   4.628   5.063  11.342  0.3132  0.8751 -0.5113
  582MOL0     C76751   4.720   5.133  11.256 -0.2068  0.8471 -0.8141
  582MOL0     C76752   4.856   5.144  11.319 -0.2164  0.4101  0.5900
  582MOL0     C76753   4.960   5.236  11.235  0.4599 -0.2687 -0.7493
  582MOL0     C76754   5.096   5.214  11.299 -0.6556  0.1101  0.6476
  582MOL0     C76755   5.109   5.297  11.420  0.4512 -0.1499 -0.7157
  582MOL0     C76756   5.129   5.373  11.515 -0.0379  0.2467 -0.0604
  582MOL0     C76757   4.409   4.963  11.378  0.6834  0.1269  0.3374
  582MOL0     C76758   4.282   4.923  11.336 -0.0696 -0.7034  0.5892
  582MOL0     H76759   3.869   4.842  11.028 -0.5300 -0.6983  0.2912
  582MOL0     H76760   3.659   4.718  10.966  1.3963 -2.0917 -2.2703
  582MOL0     H76761   3.550   4.364  11.228  0.9187  2.2799 -0.2093
  582MOL0     H76762   3.617   4.299  11.070  1.2444  1.4906  0.1471
  582MOL0     H76763   3.397   4.335  10.962 -1.3488  0.5065 -0.1098
  582MOL0     H76764   3.332   4.397  11.112  0.0752 -1.5456  1.1192
  582MOL0     H76765   3.354   4.153  11.202  1.9053  0.6494  0.3900
  582MOL0     H76766   3.449   4.105  11.063 -0.3027 -1.5208  0.0934
  582MOL0     H76767   3.168   4.231  11.055 -0.1552  1.1654 -2.5869
  582MOL0     H76768   3.271   4.172  10.919  1.6920  2.0056  0.3776
  582MOL0     H76769   3.207   4.017  11.172  2.3795  1.1214 -0.2296
  582MOL0     H76770   3.275   3.941  11.028 -0.4189  0.6641  0.6396
  582MOL0     H76771   3.054   3.995  10.902  0.1834 -1.4809 -0.1549
  582MOL0     H76772   2.990   4.056  11.044 -0.4411 -1.2542 -1.6420
  582MOL0     H76773   3.083   3.762  10.996  2.1349  0.7392  0.0978
  582MOL0     H76774   3.045   3.836  11.162  1.3627  0.9223  0.1998
  582MOL0     H76775   2.863   3.840  10.907 -1.0996  1.3445  0.5723
  582MOL0     H76776   2.816   3.877  11.076  0.4667  1.0678 -1.3324
  582MOL0     H76777   2.629   3.733  11.004 -1.6862 -0.9024 -2.8180
  582MOL0     H76778   2.570   3.404  10.864 -2.3425 -3.1301  0.9660
  582MOL0     H76779   2.476   3.486  10.985  0.9780  1.1410  0.2778
  582MOL0     H76780   2.651   3.237  11.021 -1.0998  0.0821 -0.9281
  582MOL0     H76781   2.478   3.252  11.018 -1.8501  1.7817  1.6473
  582MOL0     H76782   2.589   3.217  11.238  1.0115  0.8553  2.9500
  582MOL0     H76783   2.666   3.371  11.232 -0.2622 -0.5920  2.2278
  582MOL0     H76784   2.427   3.477  11.219 -1.4455 -0.8070  0.6873
  582MOL0     H76785   2.465   3.403  11.376 -1.9379 -0.3875  1.0574
  582MOL0     H76786   2.145   3.129  11.250  2.4740  0.2143  3.8043
  582MOL0     H76787   1.891   3.207  11.326 -0.6384  0.0693 -1.9908
  582MOL0     H76788   1.547   3.457  11.268  2.5425  0.3372  2.2394
  582MOL0     H76789   1.329   3.553  11.270 -0.4825 -1.8214  2.1815
  582MOL0     H76790   1.146   3.648  11.383  0.1831  0.5883  1.1177
  582MOL0     H76791   1.159   3.699  11.207  0.5022 -1.8126  0.2728
  582MOL0     H76792   1.065   3.910  11.257  0.5564 -1.4014 -0.8126
  582MOL0     H76793   1.044   3.872  11.437  2.6621 -1.0954  0.3589
  582MOL0     H76794   0.890   3.694  11.376 -0.0129 -0.3676  1.2701
  582MOL0     H76795   0.895   3.744  11.200  0.5812  0.4004  0.5238
  582MOL0     H76796   0.772   3.854  11.448 -1.1003  0.5515  0.1411
  582MOL0     H76797   0.840   3.974  11.341 -1.1184  0.5192  1.7010
  582MOL0     H76798   0.579   3.869  11.328 -1.1603 -1.5097 -1.9957
  582MOL0     H76799   0.646   3.746  11.245 -2.9347  0.2373  0.8132
  582MOL0     H76800   0.749   4.014  11.125  0.4875  2.6034  3.2796
  582MOL0     H76801   0.581   4.016  11.148  1.8686  1.5538  3.2449
  582MOL0     H76802   0.537   3.836  10.992 -0.4471 -0.8506 -0.2164
  582MOL0     H76803   0.655   3.951  10.923 -0.4845 -2.2527 -1.4483
  582MOL0     H76804   0.700   3.710  10.873  1.5445 -1.3344 -0.3922
  582MOL0     H76805   0.734   3.685  11.049  0.1434  0.9300  1.2300
  582MOL0     H76806   1.480   3.913  11.469  0.3329  0.1898 -1.3184
  582MOL0     H76807   1.704   3.792  11.470  0.9511 -2.8679 -1.8177
  582MOL0     H76808   2.020   3.587  11.393 -1.8831 -1.2321 -1.4039
  582MOL0     H76809   2.245   3.540  11.343  1.2180 -1.6809  3.1660
  582MOL0     H76810   3.758   4.418  11.247  0.5296  0.3429 -0.4639
  582MOL0     H76811   3.962   4.561  11.327  3.2928  3.3516 -1.4570
  582MOL0     H76812   4.361   4.870  11.016  0.2761 -1.4342  0.5974
  582MOL0     H76813   4.574   4.984  11.085 -2.7417 -0.9267 -2.8610
  582MOL0     H76814   4.693   5.229  11.209  0.4698 -0.0167 -3.1068
  582MOL0     H76815   4.730   5.067  11.169 -1.4495 -0.6735  0.1358
  582MOL0     H76816   4.846   5.188  11.419  3.2122 -2.1685  2.2810
  582MOL0     H76817   4.909   5.049  11.330 -0.9426 -0.1667 -0.6514
  582MOL0     H76818   4.929   5.340  11.238  0.9307 -0.1328 -0.6196
  582MOL0     H76819   4.960   5.206  11.129  0.2330 -0.0205 -0.8180
  582MOL0     H76820   5.119   5.110  11.323 -0.8022  0.1342  0.8979
  582MOL0     H76821   5.179   5.240  11.233  0.6286 -2.7894  0.9859
  582MOL0     H76822   5.139   5.441  11.598  2.6333  2.1303 -1.7670
  582MOL0     H76823   4.412   4.978  11.485 -1.1199 -4.5657  1.2648
  582MOL0     H76824   4.195   4.897  11.396 -0.5822 -1.7958 -0.5858
  583MOL0     O76825   1.534   2.355   9.679 -0.5080  0.4339  0.0826
  583MOL0     C76826   1.564   2.402   9.785 -0.5237 -0.9752 -0.0729
  583MOL0     O76827   1.494   2.390   9.905 -0.4148  0.3197  0.0292
  583MOL0     C76828   1.374   2.329   9.926 -0.5818 -0.2531  0.1252
  583MOL0     C76829   1.309   2.234   9.843 -0.3702  0.2644 -0.9104
  583MOL0     C76830   1.192   2.177   9.878  0.3317  0.2094  0.4254
  583MOL0     C76831   1.126   2.220   9.994  0.6863  0.1070 -0.0990
  583MOL0     O76832   1.001   2.180  10.033 -0.4996 -0.2897  0.4454
  583MOL0     C76833   0.938   2.080   9.957 -0.1148  0.0286  0.2338
  583MOL0     C76834   0.815   2.030  10.028  0.9443  0.2157  1.0225
  583MOL0     C76835   0.728   1.934   9.956  0.3119 -0.1353 -0.6456
  583MOL0     C76836   0.684   1.982   9.814  0.1623  0.7586  0.3082
  583MOL0     C76837   0.557   1.901   9.769 -0.2769 -0.3941 -0.8131
  583MOL0     C76838   0.432   1.965   9.833  0.4496  0.1887 -0.1994
  583MOL0     C76839   0.306   1.896   9.831  0.3581 -0.8449  1.3204
  583MOL0     C76840   0.265   1.852   9.691  0.1334  0.2147  0.5405
  583MOL0     N76841   0.122   1.818   9.686  0.3401 -0.8749 -0.2475
  583MOL0     C76842   0.016   1.896   9.742  0.4702 -0.0834 -0.0817
  583MOL0     C76843  -0.100   1.827   9.704  0.8520  0.0835 -0.7801
  583MOL0     C76844  -0.238   1.876   9.730 -0.0246 -0.3231  0.2142
  583MOL0     C76845  -0.346   1.823   9.644 -0.0033  0.0871 -0.2802
  583MOL0     C76846  -0.478   1.893   9.673 -0.2862 -0.0834  0.1986
  583MOL0     C76847  -0.597   1.826   9.600  0.1576 -1.3301  0.1447
  583MOL0     O76848  -0.703   1.928   9.591 -0.0325  0.5553  0.2794
  583MOL0     C76849  -0.823   1.894   9.529 -0.4175  0.1776  0.0521
  583MOL0     C76850  -0.880   1.767   9.506 -0.7141 -1.0609 -0.0131
  583MOL0     C76851  -1.011   1.762   9.454  0.8582 -0.2605 -0.1874
  583MOL0     C76852  -1.082   1.882   9.421 -0.1834  0.3381  0.5981
  583MOL0     C76853  -1.216   1.874   9.368 -0.5410  0.0277 -0.4881
  583MOL0     O76854  -1.250   1.768   9.286  0.3073  0.1948  0.1375
  583MOL0     C76855  -1.373   1.784   9.222 -0.1053 -0.3208  0.4126
  583MOL0     C76856  -1.481   1.766   9.304  0.9902  1.0191  0.2531
  583MOL0     C76857  -1.608   1.787   9.248 -0.8498 -0.3058 -0.0495
  583MOL0     C76858  -1.627   1.825   9.113  1.0168  0.1638 -0.1289
  583MOL0     O76859  -1.748   1.848   9.060  0.5315  0.4260 -0.6687
  583MOL0     C76860  -1.872   1.835   9.134 -0.4011 -0.5493  0.8670
  583MOL0     C76861  -1.952   1.710   9.102  0.5698  0.5693  0.3058
  583MOL0     C76862  -1.994   1.705   8.948 -0.2448 -0.2402 -0.0947
  583MOL0     C76863  -2.107   1.607   8.925 -0.6740 -0.3982 -0.8614
  583MOL0     C76864  -2.177   1.623   8.785 -0.5361 -0.1560 -0.4213
  583MOL0     C76865  -2.318   1.564   8.766  0.4242  0.2770  0.4239
  583MOL0     C76866  -2.429   1.661   8.817 -0.3904  0.4369  0.2744
  583MOL0     C76867  -2.566   1.602   8.814 -0.2669 -0.2325  0.4144
  583MOL0    Cl76868  -2.667   1.717   8.908 -0.2056 -0.1186 -0.4752
  583MOL0     C76869  -1.509   1.852   9.039  1.3531  0.2989 -1.4909
  583MOL0     C76870  -1.383   1.831   9.094  0.4333 -0.5470 -0.2375
  583MOL0     O76871  -1.290   1.965   9.412 -0.0450 -0.5327  0.1478
  583MOL0     C76872  -1.019   1.999   9.437  0.2340 -0.2512 -0.0272
  583MOL0     C76873  -0.892   2.010   9.495 -0.7682  0.4483 -0.2597
  583MOL0     N76874  -0.058   1.710   9.633  0.1860 -1.0102 -0.0899
  583MOL0     N76875   0.064   1.716   9.615 -0.1287 -0.4382 -0.0536
  583MOL0     C76876   1.183   2.316  10.078  0.2816 -0.5590 -0.0871
  583MOL0     C76877   1.310   2.362  10.047 -0.5536  0.6072  0.5444
  583MOL0     C76878   1.677   2.495   9.775  0.5470  0.4244 -1.4394
  583MOL0     C76879   1.739   2.552   9.888 -0.0866  0.0233  0.5519
  583MOL0     C76880   1.839   2.649   9.875  0.0613  0.7291  0.0326
  583MOL0     C76881   1.888   2.692   9.750  0.3226  0.1330 -0.1078
  583MOL0     O76882   1.995   2.776   9.750  0.2569  0.0899  0.5855
  583MOL0     C76883   2.063   2.790   9.624 -1.3363 -0.2715 -1.0099
  583MOL0     C76884   2.205   2.856   9.659  0.0425  0.2487  0.7343
  583MOL0     C76885   2.297   2.783   9.754 -0.4641 -0.5161  1.1879
  583MOL0     C76886   2.325   2.632   9.718  0.2779 -0.3672 -0.8907
  583MOL0     C76887   2.212   2.534   9.750 -0.4069  0.2365  0.5044
  583MOL0     C76888   2.120   2.458   9.781  0.0901 -0.5199 -0.9053
  583MOL0     C76889   1.821   2.637   9.640  0.0508 -0.6668 -0.2790
  583MOL0     C76890   1.718   2.544   9.656 -0.2711  0.3661 -0.5734
  583MOL0     H76891   1.348   2.202   9.747  0.5566  0.7804 -0.7203
  583MOL0     H76892   1.153   2.101   9.811  1.9771  0.4065 -0.8283
  583MOL0     H76893   1.008   1.997   9.943 -0.1514  0.0889 -0.3258
  583MOL0     H76894   0.917   2.133   9.864  1.3133  1.4897  0.6858
  583MOL0     H76895   0.751   2.117  10.043  3.4091  2.9212 -2.4830
  583MOL0     H76896   0.848   1.986  10.123 -2.7195 -1.0381  1.8888
  583MOL0     H76897   0.641   1.925  10.022  0.1047  1.8239 -0.5707
  583MOL0     H76898   0.779   1.838   9.952  1.0436  0.2321 -0.2889
  583MOL0     H76899   0.663   2.089   9.804 -2.1446  0.2264 -1.5060
  583MOL0     H76900   0.766   1.957   9.746  0.2966  0.8635  0.4330
  583MOL0     H76901   0.553   1.795   9.797 -0.7651 -0.3477 -0.6869
  583MOL0     H76902   0.551   1.913   9.660 -0.5900  2.7412 -0.5502
  583MOL0     H76903   0.415   2.059   9.780 -1.8152 -0.4844 -0.7822
  583MOL0     H76904   0.449   1.990   9.938  1.0441  1.0194 -0.4895
  583MOL0     H76905   0.314   1.802   9.887  1.3745 -1.7350 -0.2714
  583MOL0     H76906   0.220   1.955   9.866 -1.2400 -2.8892  1.0865
  583MOL0     H76907   0.330   1.766   9.673 -2.8063 -1.7165 -1.7965
  583MOL0     H76908   0.284   1.935   9.623 -0.5502  1.1095  1.4115
  583MOL0     H76909   0.025   1.991   9.793  2.7623  0.0695 -0.6358
  583MOL0     H76910  -0.232   1.985   9.717  1.3505 -0.6849 -3.2258
  583MOL0     H76911  -0.257   1.854   9.836 -0.5173  2.6477  0.8360
  583MOL0     H76912  -0.362   1.716   9.660 -0.8726  0.1110 -0.9480
  583MOL0     H76913  -0.314   1.846   9.542  0.3314  2.3833  0.2928
  583MOL0     H76914  -0.491   1.899   9.782  3.5705  2.4857  0.7021
  583MOL0     H76915  -0.459   1.997   9.646  2.1595 -0.0188  1.8477
  583MOL0     H76916  -0.631   1.746   9.666  1.3072  0.4529  3.0377
  583MOL0     H76917  -0.564   1.800   9.498 -0.7337  1.1118 -0.8418
  583MOL0     H76918  -0.818   1.681   9.531 -0.0312 -0.2260  1.2598
  583MOL0     H76919  -1.061   1.667   9.447  2.1692 -1.1150  1.2339
  583MOL0     H76920  -1.474   1.757   9.412 -2.0500  0.2354  0.4973
  583MOL0     H76921  -1.681   1.765   9.325  0.4079 -0.2219  1.2037
  583MOL0     H76922  -1.941   1.916   9.107 -0.8521 -1.3961 -0.6107
  583MOL0     H76923  -1.857   1.850   9.242  0.5390  1.0984  0.5431
  583MOL0     H76924  -2.044   1.709   9.160 -0.6646 -0.1640 -1.5354
  583MOL0     H76925  -1.895   1.621   9.132 -0.7867 -0.4176  0.0572
  583MOL0     H76926  -1.908   1.685   8.883 -0.0247  0.1744  0.0657
  583MOL0     H76927  -2.032   1.806   8.931 -0.5440  0.1652  2.6566
  583MOL0     H76928  -2.075   1.505   8.948  0.2131  0.0445 -0.0941
  583MOL0     H76929  -2.187   1.627   8.997  0.0109 -2.9678  0.7335
  583MOL0     H76930  -2.110   1.575   8.713 -0.3779 -1.9801  0.8820
  583MOL0     H76931  -2.166   1.730   8.765  2.4731 -0.6817 -2.3815
  583MOL0     H76932  -2.320   1.462   8.805  0.1933 -1.5252 -3.8060
  583MOL0     H76933  -2.333   1.556   8.658  3.3792  0.3288 -0.0691
  583MOL0     H76934  -2.404   1.699   8.917 -4.0942  2.0082  0.7774
  583MOL0     H76935  -2.425   1.748   8.750 -0.9665 -0.1146 -0.4922
  583MOL0     H76936  -2.557   1.505   8.863 -0.5637 -0.3170  0.3086
  583MOL0     H76937  -2.614   1.580   8.718  1.2535 -1.4378 -0.0924
  583MOL0     H76938  -1.528   1.892   8.940  2.3562  4.0316 -0.3598
  583MOL0     H76939  -1.287   1.859   9.052  0.6202  0.4714  0.8039
  583MOL0     H76940  -1.071   2.092   9.420  2.7802  1.3093  0.1596
  583MOL0     H76941  -0.844   2.102   9.528  0.9458 -0.3138 -0.5058
  583MOL0     H76942   1.135   2.343  10.171 -0.1993  0.2258 -0.5511
  583MOL0     H76943   1.383   2.417  10.105  1.2030 -1.9978  0.9926
  583MOL0     H76944   1.712   2.527   9.990 -1.8243  2.9495  0.9148
  583MOL0     H76945   1.886   2.693   9.963 -1.6967 -0.7183  1.7966
  583MOL0     H76946   2.024   2.866   9.555 -0.8690  0.4827 -0.4577
  583MOL0     H76947   2.073   2.695   9.570  2.0314  0.9520 -2.8132
  583MOL0     H76948   2.260   2.870   9.566  0.7213 -1.4997  0.8523
  583MOL0     H76949   2.178   2.951   9.708  1.5665 -0.1673  2.4786
  583MOL0     H76950   2.250   2.778   9.852 -0.4883  2.9139  1.4642
  583MOL0     H76951   2.394   2.834   9.758  0.2926 -1.6604 -0.7457
  583MOL0     H76952   2.341   2.631   9.609 -0.4795  2.1713 -1.0826
  583MOL0     H76953   2.419   2.597   9.760 -0.1257  1.7850  2.0881
  583MOL0     H76954   2.039   2.395   9.812 -2.7567  3.0070 -0.4588
  583MOL0     H76955   1.872   2.665   9.548  1.5000  0.5269  0.8406
  583MOL0     H76956   1.684   2.509   9.559  1.4135  1.0089 -1.4474
  584MOL0     O76957   7.007   4.720  10.096  0.4744  0.0520  0.5993
  584MOL0     C76958   6.985   4.844  10.098 -0.2819  0.7290 -1.0844
  584MOL0     O76959   6.871   4.908  10.137  0.2766 -0.4688 -0.4801
  584MOL0     C76960   6.748   4.847  10.167  0.2436  0.0565 -0.9223
  584MOL0     C76961   6.719   4.714  10.153 -0.2938 -0.6345  0.0688
  584MOL0     C76962   6.593   4.666  10.183 -0.4766  0.4698 -0.9816
  584MOL0     C76963   6.490   4.752  10.213 -0.4971  0.3760  0.2001
  584MOL0     O76964   6.371   4.687  10.232  0.1535  0.0721 -0.0382
  584MOL0     C76965   6.251   4.766  10.234  0.7821 -0.2626  1.2602
  584MOL0     C76966   6.134   4.670  10.217 -0.0985 -0.2069 -0.1619
  584MOL0     C76967   6.001   4.744  10.200 -0.6034 -0.2002 -0.2752
  584MOL0     C76968   5.889   4.670  10.278  0.2332  0.1990  0.3181
  584MOL0     C76969   5.749   4.723  10.262 -0.9965 -0.1946  0.3560
  584MOL0     C76970   5.641   4.671  10.355  0.2974 -0.0790 -0.1768
  584MOL0     C76971   5.511   4.742  10.328  0.5690 -0.2485 -0.2595
  584MOL0     C76972   5.383   4.695  10.407 -0.3655 -0.5164  0.1992
  584MOL0     N76973   5.276   4.786  10.373  0.6890  0.3926  0.0752
  584MOL0     C76974   5.174   4.755  10.295  1.2111  0.4095  0.1563
  584MOL0     C76975   5.072   4.845  10.308 -0.1082 -0.6628 -0.5946
  584MOL0     C76976   4.947   4.854  10.228  0.2894 -0.5904 -0.3049
  584MOL0     C76977   4.821   4.918  10.293  0.2604 -0.7870 -0.1965
  584MOL0     C76978   4.710   4.915  10.184  0.1574 -0.6140 -1.2508
  584MOL0     C76979   4.572   4.961  10.230 -0.7152 -0.0947 -0.3476
  584MOL0     O76980   4.474   4.964  10.124  0.1123  0.6146  0.3625
  584MOL0     C76981   4.350   5.007  10.155 -0.5014 -0.1638  0.0297
  584MOL0     C76982   4.254   4.977  10.061 -0.1280  0.3765  0.4809
  584MOL0     C76983   4.123   5.030  10.070 -0.2527 -0.1126 -0.3261
  584MOL0     C76984   4.092   5.111  10.172  0.2085 -0.0594  0.6542
  584MOL0     C76985   3.961   5.174  10.184  0.2644  0.2583  0.1203
  584MOL0     O76986   3.944   5.275  10.274  0.8895 -0.0828 -0.7389
  584MOL0     C76987   3.812   5.302  10.302  0.6632 -0.7030  0.1971
  584MOL0     C76988   3.742   5.382  10.213  0.7766 -0.6546  0.7280
  584MOL0     C76989   3.602   5.393  10.231 -0.2049 -0.0752 -0.5272
  584MOL0     C76990   3.530   5.331  10.337 -0.2648 -0.2044  0.7899
  584MOL0     O76991   3.397   5.340  10.363 -0.4379  1.2361  0.4498
  584MOL0     C76992   3.302   5.395  10.271 -0.0481 -0.8948  0.1509
  584MOL0     C76993   3.160   5.407  10.338 -0.3740 -0.1905  0.1741
  584MOL0     C76994   3.093   5.275  10.389  0.0489  0.1180 -0.3710
  584MOL0     C76995   2.999   5.298  10.513 -0.3234 -0.8706  0.7352
  584MOL0     C76996   2.885   5.400  10.491  0.5321 -0.8000  0.6375
  584MOL0     C76997   2.796   5.420  10.620  0.2858 -1.0629  0.6032
  584MOL0     C76998   2.737   5.560  10.610  0.5551 -0.7008  0.3612
  584MOL0     C76999   2.616   5.583  10.706  0.1248 -1.0194 -0.6326
  584MOL0    Cl77000   2.629   5.556  10.883 -0.4149 -0.4531 -0.1352
  584MOL0     C77001   3.611   5.257  10.425  0.2801 -0.3399 -0.0990
  584MOL0     C77002   3.745   5.238  10.405 -0.7505  0.9820 -0.6963
  584MOL0     O77003   3.868   5.117  10.118 -0.5165  0.0713  0.3151
  584MOL0     C77004   4.183   5.135  10.276  0.3795 -1.0245 -1.0679
  584MOL0     C77005   4.313   5.081  10.272 -0.2932 -0.6275  0.0692
  584MOL0     N77006   5.114   4.933  10.406  0.2262 -1.0976  0.4759
  584MOL0     N77007   5.241   4.896  10.443 -0.7091 -0.9699 -0.8498
  584MOL0     C77008   6.518   4.886  10.231 -0.8154 -0.4633 -0.3624
  584MOL0     C77009   6.647   4.936  10.208 -0.6352  0.1614 -0.4972
  584MOL0     C77010   7.105   4.931  10.066 -0.8018 -0.2844 -0.0440
  584MOL0     C77011   7.228   4.879  10.021  0.1712 -0.5473  0.8817
  584MOL0     C77012   7.330   4.961   9.974  0.3649  0.4826  1.0413
  584MOL0     C77013   7.304   5.104   9.970 -0.3888 -0.9618  0.4270
  584MOL0     O77014   7.396   5.203   9.922 -0.0096  0.8401  0.8533
  584MOL0     C77015   7.530   5.157   9.872  0.8767  0.2770 -0.8183
  584MOL0     C77016   7.583   5.278   9.796 -0.1680 -0.1121 -0.4696
  584MOL0     C77017   7.726   5.265   9.743  0.0502 -0.8883  0.0854
  584MOL0     C77018   7.761   5.142   9.657 -0.1554 -0.3917 -0.3364
  584MOL0     C77019   7.902   5.126   9.617 -0.1814  0.0912 -0.5865
  584MOL0     C77020   8.017   5.116   9.578  0.5069 -0.0203  0.6497
  584MOL0     C77021   7.187   5.159  10.027  0.5174  0.6053 -0.4933
  584MOL0     C77022   7.092   5.069  10.081 -0.2534 -0.3971 -0.4222
  584MOL0     H77023   6.793   4.647  10.112 -1.3036 -1.1850 -0.8955
  584MOL0     H77024   6.585   4.559  10.171  3.3378 -0.1661  0.7547
  584MOL0     H77025   6.250   4.832  10.146  0.1763 -4.5255 -2.2504
  584MOL0     H77026   6.234   4.818  10.329 -0.9581 -0.8406  1.3012
  584MOL0     H77027   6.125   4.600  10.301 -0.8269 -1.1340 -0.9944
  584MOL0     H77028   6.142   4.603  10.131  0.8214 -0.0529 -0.2058
  584MOL0     H77029   5.976   4.753  10.094  0.4504  0.9597 -0.4493
  584MOL0     H77030   6.005   4.846  10.240 -1.0361 -1.0486  2.0949
  584MOL0     H77031   5.886   4.566  10.244 -0.1849  0.0363  0.8454
  584MOL0     H77032   5.921   4.658  10.382 -1.9569 -2.9545  0.7728
  584MOL0     H77033   5.721   4.715  10.157 -0.1655 -1.7281  0.2152
  584MOL0     H77034   5.759   4.831  10.279  0.3767 -0.2536  0.0471
  584MOL0     H77035   5.682   4.697  10.454 -1.2047  2.2050 -0.0688
  584MOL0     H77036   5.639   4.562  10.347  0.6929 -0.1951  0.9964
  584MOL0     H77037   5.520   4.847  10.358 -3.2440  0.4720 -1.1095
  584MOL0     H77038   5.491   4.725  10.222 -0.9189 -1.0194  0.1144
  584MOL0     H77039   5.397   4.704  10.515 -0.8447  1.0004  0.1632
  584MOL0     H77040   5.348   4.596  10.377 -0.8916 -0.3838  0.3604
  584MOL0     H77041   5.174   4.686  10.212  1.0291  0.6799 -0.0724
  584MOL0     H77042   4.932   4.749  10.200  0.8565 -0.8593  0.3570
  584MOL0     H77043   4.970   4.903  10.133 -1.9197 -1.0077 -1.1032
  584MOL0     H77044   4.838   5.022  10.320 -0.4169 -0.6765 -0.1911
  584MOL0     H77045   4.790   4.861  10.381  1.6231  0.5862  1.2148
  584MOL0     H77046   4.734   4.959  10.087 -0.1889 -1.1163 -1.5700
  584MOL0     H77047   4.691   4.809  10.167  1.1162 -0.9731 -0.2671
  584MOL0     H77048   4.582   5.067  10.255 -0.1190 -0.0388 -0.7961
  584MOL0     H77049   4.530   4.901  10.311  0.4001  0.4224  0.6425
  584MOL0     H77050   4.274   4.912   9.976 -2.4568 -3.1303  2.3378
  584MOL0     H77051   4.037   5.007  10.007 -3.6026 -0.6545  4.0101
  584MOL0     H77052   3.785   5.429  10.125 -0.4745  0.2199  0.5607
  584MOL0     H77053   3.549   5.464  10.169  1.9373  0.4814 -1.8216
  584MOL0     H77054   3.279   5.328  10.187 -0.3729 -1.3472  0.5935
  584MOL0     H77055   3.325   5.497  10.240 -0.5906 -0.3736  1.4033
  584MOL0     H77056   3.095   5.457  10.266  1.3955  1.2429 -0.4987
  584MOL0     H77057   3.184   5.476  10.418 -0.5585  0.4302 -0.2972
  584MOL0     H77058   3.175   5.205  10.405  2.5682  2.3096 -2.7416
  584MOL0     H77059   3.033   5.229  10.309 -0.3919  1.2505 -0.7106
  584MOL0     H77060   2.964   5.197  10.535 -1.2678 -0.9522 -1.0237
  584MOL0     H77061   3.064   5.333  10.594 -0.3661 -1.7305  1.1554
  584MOL0     H77062   2.820   5.379  10.405 -0.8719  5.0377 -0.1710
  584MOL0     H77063   2.936   5.493  10.464  1.6094 -1.5821 -0.0896
  584MOL0     H77064   2.868   5.432  10.701 -0.8366  0.5377  1.4043
  584MOL0     H77065   2.722   5.343  10.643 -1.6328  0.8148  0.9791
  584MOL0     H77066   2.811   5.636  10.635 -0.5092  1.0066 -1.3890
  584MOL0     H77067   2.704   5.577  10.507  1.0232  0.0092  0.3191
  584MOL0     H77068   2.536   5.517  10.673 -0.9528 -0.0613 -0.0400
  584MOL0     H77069   2.582   5.686  10.689  1.9333 -0.3237 -0.3393
  584MOL0     H77070   3.566   5.208  10.511  1.4409 -2.6201 -0.7195
  584MOL0     H77071   3.804   5.170  10.465 -0.2064  1.1864 -0.9870
  584MOL0     H77072   4.147   5.186  10.365 -1.2841 -3.1334 -0.4323
  584MOL0     H77073   4.385   5.106  10.349  0.8431 -3.1304 -0.0963
  584MOL0     H77074   6.448   4.960  10.266 -0.6932 -0.4667 -0.1071
  584MOL0     H77075   6.671   5.039  10.232  0.1684 -0.3736  1.0886
  584MOL0     H77076   7.239   4.771  10.021  3.0091 -0.3727 -1.0505
  584MOL0     H77077   7.419   4.909   9.939 -0.1353  0.7239 -0.6608
  584MOL0     H77078   7.527   5.070   9.805  1.1157 -1.3135  1.1594
  584MOL0     H77079   7.594   5.119   9.952  0.4985 -2.4421 -1.7031
  584MOL0     H77080   7.517   5.315   9.716  0.9051  2.4804 -0.2630
  584MOL0     H77081   7.585   5.357   9.872 -0.1565 -1.1608  0.6583
  584MOL0     H77082   7.792   5.262   9.830  0.3083  4.4350  0.3897
  584MOL0     H77083   7.760   5.352   9.686  2.2995 -2.6093 -1.3780
  584MOL0     H77084   7.730   5.056   9.717  0.7764 -0.4050  0.1488
  584MOL0     H77085   7.701   5.142   9.566 -1.4662 -1.6995  0.4872
  584MOL0     H77086   8.115   5.128   9.537  0.0447  0.0118 -0.4864
  584MOL0     H77087   7.172   5.267  10.033 -0.9181  0.4071  0.1045
  584MOL0     H77088   7.005   5.126  10.109 -0.0951 -0.4201  0.1144
  585MOL0     O77089  11.020   8.569   1.853 -0.0819 -0.0760  0.0365
  585MOL0     C77090  11.047   8.471   1.783 -0.3542 -0.0324  0.0856
  585MOL0     O77091  10.950   8.386   1.731 -0.1011 -0.0388  1.0764
  585MOL0     C77092  10.813   8.413   1.744  0.3075  0.6312 -0.0306
  585MOL0     C77093  10.732   8.301   1.742 -0.4622  0.0660 -0.0361
  585MOL0     C77094  10.590   8.312   1.747  0.1770  0.4169  0.4273
  585MOL0     C77095  10.529   8.437   1.745 -0.5392 -1.3417  0.1551
  585MOL0     O77096  10.397   8.450   1.778  0.0162 -0.2307  0.4887
  585MOL0     C77097  10.314   8.331   1.807 -0.6116 -0.1218  0.0452
  585MOL0     C77098  10.189   8.383   1.865  0.2771 -1.0548 -0.3277
  585MOL0     C77099  10.068   8.299   1.825  0.3268  0.9907 -0.6072
  585MOL0     C77100   9.944   8.357   1.875  0.1248 -0.2009  0.0747
  585MOL0     C77101   9.816   8.270   1.847 -0.4927  0.7265 -0.4450
  585MOL0     C77102   9.690   8.350   1.891  1.3626 -0.7149 -0.7379
  585MOL0     C77103   9.684   8.414   2.033  0.0983  0.4987  0.2776
  585MOL0     C77104   9.572   8.503   2.052 -0.2896 -0.2279 -0.2788
  585MOL0     N77105   9.446   8.440   2.034  0.5023  1.1302 -1.2203
  585MOL0     C77106   9.396   8.341   2.126  0.3764 -0.1457  0.0300
  585MOL0     C77107   9.262   8.345   2.103  0.0384 -0.0634  0.3256
  585MOL0     C77108   9.156   8.271   2.178  0.6863 -0.3118  0.6242
  585MOL0     C77109   9.084   8.355   2.273 -0.5098 -0.4121 -0.0358
  585MOL0     C77110   9.014   8.483   2.210 -0.4382 -0.1087  0.4254
  585MOL0     C77111   8.960   8.580   2.331  0.8064  0.6143 -0.1393
  585MOL0     O77112   8.844   8.520   2.387  0.0162  0.1011 -0.2068
  585MOL0     C77113   8.730   8.513   2.314 -0.6179 -0.6768 -0.3588
  585MOL0     C77114   8.635   8.424   2.360  0.5972 -0.2292  0.9243
  585MOL0     C77115   8.515   8.397   2.292  1.0079 -0.4104  0.6095
  585MOL0     C77116   8.494   8.456   2.166 -0.8332 -0.5858  0.2530
  585MOL0     C77117   8.370   8.428   2.090 -0.6478  0.7717 -0.3596
  585MOL0     O77118   8.345   8.518   1.979 -0.1553  0.2130  0.9995
  585MOL0     C77119   8.216   8.510   1.922 -0.7909  0.1908 -0.4296
  585MOL0     C77120   8.139   8.625   1.925 -0.8987  0.0113 -0.2855
  585MOL0     C77121   8.035   8.634   1.843  0.0196 -0.5659 -0.6005
  585MOL0     C77122   7.985   8.512   1.776  0.3489 -0.3879 -0.7469
  585MOL0     O77123   7.868   8.499   1.706  0.7122 -1.3063 -0.3088
  585MOL0     C77124   7.770   8.601   1.710  0.4047 -0.7702 -0.2657
  585MOL0     C77125   7.640   8.529   1.724  0.5522 -0.5153  0.1537
  585MOL0     C77126   7.591   8.457   1.594  0.0461 -0.3542 -0.3452
  585MOL0     C77127   7.450   8.405   1.622  1.1696 -0.6915  0.5531
  585MOL0     C77128   7.406   8.280   1.539 -0.4993  0.7627 -0.0549
  585MOL0     C77129   7.310   8.177   1.612  0.5828  0.0299  0.6203
  585MOL0     C77130   7.384   8.094   1.716 -0.1563  0.0961  0.1003
  585MOL0     C77131   7.289   8.039   1.818  0.7353  0.2967 -0.9330
  585MOL0    Cl77132   7.369   7.913   1.905  0.4884  0.0766 -0.1038
  585MOL0     C77133   8.056   8.397   1.780  0.1158 -0.0930 -1.2756
  585MOL0     C77134   8.178   8.393   1.846 -0.4988  0.2051 -0.5022
  585MOL0     O77135   8.288   8.342   2.130  0.1314 -0.4890  0.1204
  585MOL0     C77136   8.597   8.545   2.112  0.6731  0.0408 -0.1197
  585MOL0     C77137   8.709   8.574   2.189 -0.4602  0.4588 -0.4308
  585MOL0     N77138   9.237   8.418   1.990 -0.2734  0.2873  0.6866
  585MOL0     N77139   9.348   8.471   1.948 -0.7098 -0.0331 -0.4804
  585MOL0     C77140  10.602   8.550   1.739 -0.3824  0.2095 -0.9567
  585MOL0     C77141  10.741   8.537   1.744 -0.9945 -0.0045  0.0980
  585MOL0     C77142  11.187   8.419   1.773 -0.7976 -0.4851  0.0053
  585MOL0     C77143  11.228   8.322   1.683  0.3794 -0.2123 -0.5961
  585MOL0     C77144  11.358   8.267   1.688  0.1578 -0.0042 -0.2894
  585MOL0     C77145  11.454   8.312   1.772 -0.7534 -0.3392 -0.4981
  585MOL0     O77146  11.571   8.243   1.786 -0.4664  0.2648  0.2038
  585MOL0     C77147  11.690   8.297   1.841 -0.9762 -0.0379 -0.1618
  585MOL0     C77148  11.725   8.437   1.782  0.0449 -0.0695 -0.9149
  585MOL0     C77149  11.872   8.479   1.769 -0.0488 -0.7149  0.5082
  585MOL0     C77150  11.969   8.413   1.865 -0.4369  0.4065  1.1804
  585MOL0     C77151  12.101   8.478   1.848 -0.4346  0.7161  0.9804
  585MOL0     C77152  12.214   8.505   1.838  0.7860 -0.6123  0.0056
  585MOL0     C77153  11.428   8.420   1.848  0.1504  0.6139  0.8897
  585MOL0     C77154  11.295   8.471   1.846 -0.0947  0.0793  0.0221
  585MOL0     H77155  10.788   8.208   1.737 -0.4105  0.0331  1.0560
  585MOL0     H77156  10.527   8.225   1.761 -0.4176  1.0933  2.1748
  585MOL0     H77157  10.359   8.251   1.867 -1.1569 -2.0768 -2.0213
  585MOL0     H77158  10.280   8.291   1.711  0.1422 -0.1116 -0.2339
  585MOL0     H77159  10.182   8.486   1.828  0.9537 -0.9913 -0.3023
  585MOL0     H77160  10.193   8.378   1.974 -1.1341  2.0185 -0.0118
  585MOL0     H77161  10.079   8.197   1.863  0.4591  0.2843 -2.4599
  585MOL0     H77162  10.051   8.287   1.718 -1.2380 -1.4971 -0.1607
  585MOL0     H77163   9.946   8.366   1.984 -0.1944  0.1191  0.0547
  585MOL0     H77164   9.923   8.458   1.839  0.9149  1.6544  4.1902
  585MOL0     H77165   9.808   8.178   1.907 -1.2463  1.7670  1.1223
  585MOL0     H77166   9.820   8.242   1.741  1.7814 -2.3276  0.3082
  585MOL0     H77167   9.601   8.286   1.885  1.3107 -0.7910  0.4633
  585MOL0     H77168   9.672   8.432   1.821 -0.1180  0.4173  0.8543
  585MOL0     H77169   9.682   8.326   2.098  0.5319 -1.5654 -2.3120
  585MOL0     H77170   9.775   8.474   2.042  1.6921 -1.7986  0.2448
  585MOL0     H77171   9.577   8.592   1.988  3.0234 -0.6256 -0.7756
  585MOL0     H77172   9.574   8.540   2.155 -3.2151 -0.3269 -0.1143
  585MOL0     H77173   9.443   8.300   2.214 -0.4843  0.8288  0.9722
  585MOL0     H77174   9.196   8.187   2.236 -0.2428 -1.5476 -0.4286
  585MOL0     H77175   9.075   8.238   2.111 -0.0037 -1.0303  1.7783
  585MOL0     H77176   9.159   8.397   2.341 -0.7607  1.6547 -0.9740
  585MOL0     H77177   9.023   8.307   2.351  1.8515  0.4434  2.4926
  585MOL0     H77178   9.091   8.536   2.153  0.0004 -0.0232  1.0907
  585MOL0     H77179   8.930   8.465   2.141 -2.7429  1.6179  2.5697
  585MOL0     H77180   8.938   8.678   2.289  1.1258  0.2598 -1.1632
  585MOL0     H77181   9.036   8.587   2.409 -1.0103  0.2405  1.7338
  585MOL0     H77182   8.649   8.373   2.455 -1.6437 -0.0149  1.4439
  585MOL0     H77183   8.458   8.312   2.328 -0.0608 -0.1504 -0.4209
  585MOL0     H77184   8.175   8.713   1.976  0.7357 -0.9705  0.3333
  585MOL0     H77185   7.980   8.727   1.843 -1.7224 -1.4592  2.3958
  585MOL0     H77186   7.768   8.670   1.624  3.4225  4.4774  3.3306
  585MOL0     H77187   7.773   8.667   1.797 -1.7732  3.4101 -2.9923
  585MOL0     H77188   7.559   8.598   1.747 -0.4693 -1.4851 -0.4223
  585MOL0     H77189   7.646   8.455   1.804  2.4492  1.5332  2.0347
  585MOL0     H77190   7.653   8.373   1.560  0.1226  0.3458 -2.0206
  585MOL0     H77191   7.592   8.529   1.512  1.0403 -0.7627 -0.7011
  585MOL0     H77192   7.445   8.381   1.728 -1.9290  2.3136  1.2711
  585MOL0     H77193   7.378   8.486   1.606  1.7601 -0.0374  1.0976
  585MOL0     H77194   7.485   8.222   1.491 -3.5755 -2.1425 -2.0287
  585MOL0     H77195   7.342   8.312   1.457  0.5807  0.4941 -1.0309
  585MOL0     H77196   7.275   8.102   1.541 -0.5762 -0.8176  2.0116
  585MOL0     H77197   7.225   8.229   1.658  0.3456  0.2310 -0.0377
  585MOL0     H77198   7.436   8.013   1.663  1.7765  0.4916  1.3400
  585MOL0     H77199   7.461   8.147   1.771  1.4796 -1.4218 -0.6328
  585MOL0     H77200   7.201   7.992   1.773  0.2870  1.9152 -1.8544
  585MOL0     H77201   7.255   8.124   1.879 -1.8604  0.5852 -2.5987
  585MOL0     H77202   8.031   8.305   1.729  0.2386  0.2989 -2.0501
  585MOL0     H77203   8.228   8.300   1.819 -0.4051  0.1789 -0.2451
  585MOL0     H77204   8.577   8.590   2.015 -1.7855 -2.1007 -0.7464
  585MOL0     H77205   8.788   8.637   2.150  2.1786 -1.2884  1.6434
  585MOL0     H77206  10.564   8.651   1.755 -0.0115  0.1881  0.1621
  585MOL0     H77207  10.800   8.629   1.746  0.1257 -0.6837  2.5039
  585MOL0     H77208  11.151   8.281   1.619 -0.1135 -3.6803  1.9595
  585MOL0     H77209  11.391   8.183   1.629 -1.5815 -1.4819  0.7462
  585MOL0     H77210  11.774   8.230   1.820 -0.3096  0.3974  0.9803
  585MOL0     H77211  11.682   8.296   1.950  0.7669  0.4914  0.0103
  585MOL0     H77212  11.677   8.438   1.684  1.3590 -0.5200 -1.5943
  585MOL0     H77213  11.676   8.522   1.831 -1.8611 -0.6367 -1.7359
  585MOL0     H77214  11.873   8.587   1.786 -2.8713 -0.6009  0.5078
  585MOL0     H77215  11.906   8.468   1.665 -0.9375  1.4216 -0.0808
  585MOL0     H77216  11.935   8.414   1.969 -0.3746 -0.1214  1.2059
  585MOL0     H77217  11.979   8.310   1.830 -1.5719  0.9554 -0.9865
  585MOL0     H77218  12.311   8.539   1.806  0.2674  0.5527 -0.3923
  585MOL0     H77219  11.499   8.466   1.917  0.7253  2.8400 -1.0631
  585MOL0     H77220  11.262   8.551   1.911 -1.5239 -0.0210 -0.5472
  586MOL0     O77221   2.689   8.583   6.945  0.2758  0.5751  0.4487
  586MOL0     C77222   2.708   8.698   6.912  0.2864 -0.4635  0.3095
  586MOL0     O77223   2.645   8.763   6.812 -0.2269  0.4843  0.3682
  586MOL0     C77224   2.562   8.694   6.724  0.6988 -0.4533 -0.5147
  586MOL0     C77225   2.554   8.717   6.584  0.3235  0.2393 -1.0381
  586MOL0     C77226   2.452   8.670   6.508 -0.7035  0.9766 -0.5757
  586MOL0     C77227   2.344   8.600   6.573 -0.5647  1.4440  0.4819
  586MOL0     O77228   2.245   8.537   6.501 -0.5687  0.1863 -0.4379
  586MOL0     C77229   2.215   8.574   6.368 -0.3880 -0.1542  0.3156
  586MOL0     C77230   2.077   8.527   6.336  0.5035  0.4052  0.1756
  586MOL0     C77231   2.005   8.605   6.218 -0.3225  0.0511 -0.1088
  586MOL0     C77232   1.863   8.565   6.202  0.0166  0.3399 -0.5379
  586MOL0     C77233   1.777   8.670   6.119 -0.3563  0.1121  0.1069
  586MOL0     C77234   1.654   8.597   6.063  0.4231  0.5028  0.0811
  586MOL0     C77235   1.557   8.676   5.977 -0.0238 -0.0154  0.6452
  586MOL0     C77236   1.440   8.587   5.930 -0.4368 -0.1513  0.7484
  586MOL0     N77237   1.347   8.667   5.848  0.6747 -0.4411  0.3141
  586MOL0     C77238   1.228   8.733   5.893 -0.4656  0.4819  0.3102
  586MOL0     C77239   1.184   8.809   5.788 -0.1450  1.1149  0.4618
  586MOL0     C77240   1.063   8.900   5.786  0.2098  0.1190 -0.0991
  586MOL0     C77241   1.084   8.999   5.668  0.4003  0.0520 -1.2989
  586MOL0     C77242   0.988   9.113   5.664 -0.1444 -0.5757 -0.0778
  586MOL0     C77243   0.846   9.070   5.619  0.1229 -0.1171  0.2439
  586MOL0     O77244   0.765   9.189   5.588 -0.0954  0.3324 -0.1731
  586MOL0     C77245   0.645   9.184   5.520  0.9350 -0.9534 -0.4240
  586MOL0     C77246   0.573   9.295   5.485  0.2469 -0.3719  0.3286
  586MOL0     C77247   0.441   9.283   5.438 -0.2386 -0.0961  0.6945
  586MOL0     C77248   0.385   9.160   5.415 -0.4276 -0.3774  0.1409
  586MOL0     C77249   0.251   9.144   5.365  0.5571 -0.1975 -0.1091
  586MOL0     O77250   0.155   9.247   5.376 -0.0569 -0.7596 -0.5025
  586MOL0     C77251   0.023   9.210   5.361 -0.2411 -0.9231  1.1275
  586MOL0     C77252  -0.022   9.174   5.230  0.2324 -1.1934 -0.3625
  586MOL0     C77253  -0.155   9.142   5.205 -0.5002 -0.0890 -0.4407
  586MOL0     C77254  -0.247   9.156   5.312  1.4995 -0.2817  0.7693
  586MOL0     O77255  -0.386   9.131   5.313  0.2632 -0.0865  0.4010
  586MOL0     C77256  -0.451   9.121   5.183  0.8021 -0.1476  0.7110
  586MOL0     C77257  -0.606   9.118   5.200  0.1316  0.5181  0.6309
  586MOL0     C77258  -0.672   9.231   5.284  0.4704  0.0956  0.3927
  586MOL0     C77259  -0.819   9.236   5.273 -0.5708  0.5483 -0.7879
  586MOL0     C77260  -0.875   9.275   5.141  0.0265 -1.1952  0.4874
  586MOL0     C77261  -1.030   9.313   5.153  0.3306 -0.6204 -0.7274
  586MOL0     C77262  -1.127   9.197   5.211 -0.8684 -0.6692 -0.0777
  586MOL0     C77263  -1.272   9.218   5.190 -1.1210  0.7873  0.5988
  586MOL0    Cl77264  -1.286   9.271   5.018 -0.3277  0.0653 -0.5330
  586MOL0     C77265  -0.199   9.180   5.439 -0.2362 -0.0338  0.1763
  586MOL0     C77266  -0.062   9.212   5.467 -0.3021  1.1699 -0.3883
  586MOL0     O77267   0.226   9.032   5.321  0.9223 -0.7304 -0.3440
  586MOL0     C77268   0.463   9.046   5.445 -0.4633 -0.5141 -0.6085
  586MOL0     C77269   0.589   9.060   5.496  0.4876  0.3419 -0.0755
  586MOL0     N77270   1.281   8.787   5.687  0.7074  0.4174  0.0879
  586MOL0     N77271   1.373   8.703   5.713  0.8777 -0.8518 -0.1990
  586MOL0     C77272   2.351   8.570   6.705  0.2002  0.2564 -1.0605
  586MOL0     C77273   2.458   8.622   6.782 -0.0538  0.0966 -0.9037
  586MOL0     C77274   2.827   8.769   6.980  0.1884 -0.0808  0.6856
  586MOL0     C77275   2.855   8.904   6.945 -0.2072 -0.7093 -0.5122
  586MOL0     C77276   2.970   8.965   6.995 -0.1207 -0.3688 -0.9897
  586MOL0     C77277   3.057   8.908   7.080 -0.4905 -0.6038 -0.0162
  586MOL0     O77278   3.168   8.978   7.126 -0.1719  0.1279 -0.1403
  586MOL0     C77279   3.230   8.940   7.250  0.3074 -0.4055 -0.1790
  586MOL0     C77280   3.375   8.985   7.252 -0.2276 -0.3276  0.4838
  586MOL0     C77281   3.467   8.932   7.142  0.2122 -0.8033 -0.8836
  586MOL0     C77282   3.461   8.783   7.110 -0.3136  0.9639 -0.2324
  586MOL0     C77283   3.518   8.699   7.212  0.3291 -0.0936  0.7588
  586MOL0     C77284   3.561   8.626   7.297 -0.3350  0.8019  0.2819
  586MOL0     C77285   3.018   8.779   7.116 -0.7828  0.6719  0.3745
  586MOL0     C77286   2.908   8.710   7.072 -0.3133 -0.1801  0.1968
  586MOL0     H77287   2.625   8.773   6.525  1.0977 -0.9050 -1.2261
  586MOL0     H77288   2.457   8.678   6.400  0.8286  0.2218 -0.5714
  586MOL0     H77289   2.288   8.528   6.301 -0.3369  0.0785  0.2139
  586MOL0     H77290   2.205   8.682   6.360 -2.4002 -0.2423  0.8736
  586MOL0     H77291   2.011   8.531   6.423 -1.8750  2.1608 -1.5490
  586MOL0     H77292   2.079   8.423   6.305 -1.8473 -0.0981  1.4457
  586MOL0     H77293   2.055   8.591   6.122  0.9766  0.5861  0.4636
  586MOL0     H77294   2.002   8.710   6.247  1.0457 -0.2495  1.2467
  586MOL0     H77295   1.860   8.465   6.158  0.4424  0.2092 -0.2789
  586MOL0     H77296   1.822   8.559   6.303  3.6953  3.0522  1.3303
  586MOL0     H77297   1.831   8.717   6.036 -1.2392  0.4558 -0.2850
  586MOL0     H77298   1.747   8.752   6.184  1.8098  0.0962  1.2135
  586MOL0     H77299   1.600   8.568   6.153  0.7724  2.1938  0.8872
  586MOL0     H77300   1.690   8.510   6.009  1.9560  0.6841  0.7500
  586MOL0     H77301   1.514   8.759   6.033 -1.7407  1.1846 -2.1945
  586MOL0     H77302   1.608   8.713   5.887 -1.9718  0.8665 -0.1614
  586MOL0     H77303   1.394   8.535   6.014 -1.0917  1.1406  1.2038
  586MOL0     H77304   1.480   8.509   5.864 -1.7678  0.0480 -0.3535
  586MOL0     H77305   1.185   8.713   5.990 -0.1073  0.2441  0.4258
  586MOL0     H77306   1.074   8.946   5.885 -1.0480 -0.8813  0.5211
  586MOL0     H77307   0.973   8.841   5.769 -0.3601  1.0550 -0.3833
  586MOL0     H77308   1.080   8.944   5.573  0.6453 -2.4473  0.0552
  586MOL0     H77309   1.184   9.039   5.683  0.3646 -0.3646  0.2161
  586MOL0     H77310   0.985   9.165   5.760  1.2246  1.1625 -0.9114
  586MOL0     H77311   1.023   9.185   5.590  0.6190  0.0023  0.8243
  586MOL0     H77312   0.803   9.009   5.698  3.6367 -0.9303  1.7065
  586MOL0     H77313   0.852   9.006   5.530  1.3138  3.4199 -2.4362
  586MOL0     H77314   0.618   9.393   5.498  1.0208 -0.4057 -1.7488
  586MOL0     H77315   0.372   9.358   5.403 -3.0248 -3.1627 -0.9956
  586MOL0     H77316   0.047   9.179   5.147 -3.6204  1.7507 -3.7889
  586MOL0     H77317  -0.190   9.113   5.107  0.8195  2.6134 -1.8198
  586MOL0     H77318  -0.416   9.032   5.130  3.6269  0.9797  0.5061
  586MOL0     H77319  -0.424   9.201   5.113  2.3169 -0.9590  0.3174
  586MOL0     H77320  -0.645   9.026   5.245 -1.8169  1.8485  1.8084
  586MOL0     H77321  -0.648   9.129   5.100 -2.3652  0.8592  1.6446
  586MOL0     H77322  -0.631   9.331   5.268 -0.8607  0.6442  0.2882
  586MOL0     H77323  -0.654   9.213   5.390  0.4426 -1.8463  0.1120
  586MOL0     H77324  -0.866   9.142   5.305  2.8047 -0.4982  1.5525
  586MOL0     H77325  -0.856   9.312   5.342 -1.5194  0.4758 -1.1904
  586MOL0     H77326  -0.867   9.200   5.062 -1.4036 -3.0576  2.0059
  586MOL0     H77327  -0.823   9.365   5.109  3.1342 -3.4989 -1.5413
  586MOL0     H77328  -1.069   9.353   5.059 -0.6073 -0.7847 -0.4167
  586MOL0     H77329  -1.033   9.401   5.219  2.3415 -1.8114  1.1001
  586MOL0     H77330  -1.095   9.101   5.170  0.9841  0.2514 -0.9133
  586MOL0     H77331  -1.118   9.203   5.320  2.2469 -0.8285 -0.2360
  586MOL0     H77332  -1.321   9.292   5.254  0.3144  2.2396  0.0866
  586MOL0     H77333  -1.321   9.120   5.200  0.0162 -0.0574 -1.5250
  586MOL0     H77334  -0.266   9.186   5.524  0.1398 -2.3339  0.7086
  586MOL0     H77335  -0.025   9.238   5.566 -1.4878 -0.6528  0.5975
  586MOL0     H77336   0.409   8.953   5.430 -0.3330 -0.2060 -3.6321
  586MOL0     H77337   0.636   8.968   5.529  1.2911  0.7825  0.0195
  586MOL0     H77338   2.268   8.514   6.747  1.0860  0.3649  0.9400
  586MOL0     H77339   2.450   8.612   6.890 -0.6747 -1.6782 -1.0803
  586MOL0     H77340   2.795   8.965   6.877  1.4489 -0.8697 -2.2282
  586MOL0     H77341   2.991   9.071   6.983 -4.1066  0.7000 -0.1286
  586MOL0     H77342   3.235   8.832   7.267  0.8610 -0.4844 -0.8049
  586MOL0     H77343   3.175   8.976   7.337  1.9496  0.3557  0.5961
  586MOL0     H77344   3.380   9.093   7.235 -2.8769  0.2695  2.9088
  586MOL0     H77345   3.423   8.972   7.349 -0.1576  2.1164  0.8550
  586MOL0     H77346   3.567   8.953   7.181 -0.7939 -0.9282  1.9857
  586MOL0     H77347   3.462   8.995   7.053  3.3897 -0.2919 -0.8210
  586MOL0     H77348   3.373   8.745   7.057 -0.4506  1.2246 -0.1934
  586MOL0     H77349   3.528   8.768   7.025  0.7768 -0.8860  0.8775
  586MOL0     H77350   3.606   8.576   7.381  0.3747 -3.7653 -2.5247
  586MOL0     H77351   3.081   8.722   7.183 -1.4319 -1.5816 -0.8207
  586MOL0     H77352   2.876   8.613   7.110  0.2915 -1.0546 -1.3962
  587MOL0     O77353   6.375   4.845   0.476 -0.1543  0.5381  0.0906
  587MOL0     C77354   6.411   4.789   0.580 -0.3615  0.0095  0.3967
  587MOL0     O77355   6.338   4.685   0.639 -0.0443  0.2930  0.1664
  587MOL0     C77356   6.197   4.686   0.622  0.1376 -0.5656  0.4769
  587MOL0     C77357   6.136   4.562   0.634 -0.0941  0.0250 -0.0529
  587MOL0     C77358   6.005   4.553   0.611  0.5016 -0.4003  0.0724
  587MOL0     C77359   5.925   4.665   0.580  1.0088 -0.4120 -0.0586
  587MOL0     O77360   5.795   4.663   0.553  0.4229 -0.3494  0.3013
  587MOL0     C77361   5.713   4.574   0.632  0.4246  0.4327 -0.4455
  587MOL0     C77362   5.571   4.592   0.577 -0.5625 -0.2542  0.2784
  587MOL0     C77363   5.526   4.742   0.555 -1.2588 -0.7264  0.0609
  587MOL0     C77364   5.386   4.763   0.503  0.0712  0.1909 -0.0000
  587MOL0     C77365   5.363   4.899   0.440  1.3556 -0.5557  0.9187
  587MOL0     C77366   5.413   5.013   0.536 -0.4358 -0.4992 -0.1233
  587MOL0     C77367   5.345   5.144   0.505  0.4438  0.5400  0.2584
  587MOL0     C77368   5.410   5.260   0.582 -0.6130 -0.7719 -0.4424
  587MOL0     N77369   5.345   5.383   0.555  0.6831  0.6599  0.9067
  587MOL0     C77370   5.411   5.493   0.504  0.8194  0.3498  0.7501
  587MOL0     C77371   5.336   5.600   0.539 -0.9400 -0.4029  0.0659
  587MOL0     C77372   5.352   5.740   0.494  0.3977  1.0151  0.3081
  587MOL0     C77373   5.306   5.762   0.350  0.0046 -0.1252 -0.0293
  587MOL0     C77374   5.276   5.910   0.303 -0.3580  0.0579 -0.8147
  587MOL0     C77375   5.346   6.021   0.393 -0.0288  0.2287  0.1779
  587MOL0     O77376   5.488   5.998   0.394  0.5985  0.5114 -0.1612
  587MOL0     C77377   5.569   6.042   0.283  0.8757  0.2368 -0.2038
  587MOL0     C77378   5.705   6.016   0.280  0.7527  0.1776  0.6802
  587MOL0     C77379   5.781   6.058   0.176 -0.2621 -1.0888 -0.5781
  587MOL0     C77380   5.730   6.142   0.074  0.2574 -0.1959 -0.3216
  587MOL0     C77381   5.814   6.202  -0.034  0.7157 -0.0997  0.5705
  587MOL0     O77382   5.947   6.177  -0.039 -0.6481  0.0084  0.1299
  587MOL0     C77383   6.030   6.237  -0.134  0.2197 -0.8689 -0.0529
  587MOL0     C77384   6.133   6.158  -0.183 -0.7742 -0.4323  0.1167
  587MOL0     C77385   6.232   6.207  -0.271 -0.0290  0.1863  0.3397
  587MOL0     C77386   6.229   6.339  -0.312  0.0671 -0.0253 -0.6649
  587MOL0     O77387   6.308   6.375  -0.410  0.2449 -0.0714  0.0405
  587MOL0     C77388   6.363   6.514  -0.406  0.3052 -0.4617  0.1685
  587MOL0     C77389   6.487   6.515  -0.497 -0.0064  0.0735 -0.3180
  587MOL0     C77390   6.549   6.659  -0.510  0.1719 -0.0469  0.0862
  587MOL0     C77391   6.666   6.654  -0.601  0.7434 -0.5385  0.7134
  587MOL0     C77392   6.790   6.597  -0.547 -0.6792  0.3710 -0.6216
  587MOL0     C77393   6.911   6.644  -0.634  0.6135  0.5133 -0.1852
  587MOL0     C77394   6.945   6.574  -0.773  0.5743 -0.0505  0.6282
  587MOL0     C77395   7.080   6.631  -0.838 -0.0698  0.6591 -0.9673
  587MOL0    Cl77396   7.128   6.556  -0.996  0.0966  0.2838 -0.3526
  587MOL0     C77397   6.131   6.425  -0.258  0.0818 -0.6559 -1.2020
  587MOL0     C77398   6.036   6.374  -0.170 -0.5466 -0.7016 -0.4983
  587MOL0     O77399   5.753   6.266  -0.121 -0.0335  0.3606 -0.0098
  587MOL0     C77400   5.595   6.153   0.068  0.3975  0.0439 -0.4372
  587MOL0     C77401   5.517   6.110   0.170  0.0759 -0.0740  0.4991
  587MOL0     N77402   5.219   5.562   0.608  0.0068  0.6330  0.2501
  587MOL0     N77403   5.232   5.432   0.613  0.5154 -0.3819  0.4462
  587MOL0     C77404   5.981   4.794   0.593  0.4437  0.4202  0.2841
  587MOL0     C77405   6.118   4.807   0.607  0.5574 -0.1100 -0.1937
  587MOL0     C77406   6.549   4.822   0.632  0.4141 -1.0245  0.2754
  587MOL0     C77407   6.597   4.761   0.748  0.5294  0.2580  0.3928
  587MOL0     C77408   6.724   4.797   0.806 -0.3982 -0.7351 -0.4112
  587MOL0     C77409   6.805   4.895   0.742 -0.2472  0.2339 -0.6657
  587MOL0     O77410   6.931   4.930   0.796  0.6071 -0.0109 -0.6348
  587MOL0     C77411   6.984   4.862   0.914 -1.1344  0.1098  0.5601
  587MOL0     C77412   7.040   4.725   0.868  0.6812  0.2747 -0.3973
  587MOL0     C77413   7.159   4.744   0.780 -0.2113 -0.2508 -1.0994
  587MOL0     C77414   7.289   4.737   0.862 -0.1961  0.3137  0.9931
  587MOL0     C77415   7.305   4.829   0.974 -0.4288 -0.3697  0.5089
  587MOL0     C77416   7.311   4.917   1.054  0.9751 -0.0919 -0.4035
  587MOL0     C77417   6.742   4.966   0.636  0.2797 -0.3486 -0.8263
  587MOL0     C77418   6.621   4.933   0.584  0.6367 -0.5147  0.5070
  587MOL0     H77419   6.198   4.473   0.642 -1.4145 -0.9207 -0.0117
  587MOL0     H77420   5.954   4.457   0.622 -1.0296  0.5067  1.4971
  587MOL0     H77421   5.706   4.597   0.739  0.8327 -0.5228 -0.2072
  587MOL0     H77422   5.742   4.469   0.620  1.1373  0.4231  1.0926
  587MOL0     H77423   5.507   4.538   0.648  0.7206 -0.9669  0.9377
  587MOL0     H77424   5.558   4.545   0.479 -0.4753  0.8099 -0.2538
  587MOL0     H77425   5.590   4.791   0.481  0.4666 -2.3755  0.3980
  587MOL0     H77426   5.541   4.797   0.649  1.7734  1.0477 -1.2991
  587MOL0     H77427   5.347   4.680   0.443 -0.2660  0.1064  0.3309
  587MOL0     H77428   5.319   4.758   0.590 -0.3770  1.0608 -0.2807
  587MOL0     H77429   5.257   4.920   0.420  2.5222  2.3966 -3.8409
  587MOL0     H77430   5.411   4.906   0.342 -2.4795  0.4650 -1.1203
  587MOL0     H77431   5.518   5.028   0.511 -0.8369  1.3762 -0.8496
  587MOL0     H77432   5.397   4.986   0.641 -1.2561  0.3958  0.0012
  587MOL0     H77433   5.345   5.170   0.399  0.9462 -1.1470 -0.1861
  587MOL0     H77434   5.241   5.141   0.538 -0.8152 -1.7632 -3.4034
  587MOL0     H77435   5.515   5.264   0.552  0.0166  0.0823  1.6744
  587MOL0     H77436   5.424   5.227   0.686  3.2782 -1.0210 -0.8908
  587MOL0     H77437   5.509   5.494   0.457  0.7415  1.4966  0.5927
  587MOL0     H77438   5.460   5.761   0.499  0.4199  1.7351 -2.0213
  587MOL0     H77439   5.305   5.812   0.562  1.4256 -1.0493  3.4372
  587MOL0     H77440   5.220   5.697   0.333 -0.9657  1.1097 -0.0213
  587MOL0     H77441   5.382   5.728   0.279  0.7666  0.0466  0.6946
  587MOL0     H77442   5.314   5.923   0.201 -1.0096  0.2024 -1.0393
  587MOL0     H77443   5.168   5.918   0.309 -0.3340 -0.2527  0.3667
  587MOL0     H77444   5.308   6.021   0.495 -3.5988  2.1636 -0.9926
  587MOL0     H77445   5.327   6.122   0.357  1.4972  1.7551  3.3251
  587MOL0     H77446   5.758   5.950   0.348  4.1182 -0.7087 -2.4851
  587MOL0     H77447   5.887   6.035   0.184 -0.1900 -0.1173  3.5624
  587MOL0     H77448   6.129   6.054  -0.153 -1.9602 -1.5108 -3.2865
  587MOL0     H77449   6.296   6.126  -0.306 -1.9961 -0.8993 -0.9295
  587MOL0     H77450   6.383   6.547  -0.304  3.5913  0.1345 -0.5505
  587MOL0     H77451   6.293   6.585  -0.451  0.3944  0.5063  1.5166
  587MOL0     H77452   6.449   6.478  -0.592  0.5905 -2.2403  0.2890
  587MOL0     H77453   6.566   6.451  -0.456 -0.3415 -0.6434 -0.7795
  587MOL0     H77454   6.585   6.703  -0.417  1.8228 -0.3754 -0.3657
  587MOL0     H77455   6.473   6.726  -0.550 -2.9375 -2.2693  1.8742
  587MOL0     H77456   6.644   6.604  -0.696 -0.0414 -2.0751  1.6798
  587MOL0     H77457   6.677   6.759  -0.631  0.8071 -0.6643  0.2774
  587MOL0     H77458   6.796   6.488  -0.537  3.5397  0.6183  1.6277
  587MOL0     H77459   6.810   6.637  -0.447 -1.5062  2.0187 -1.0755
  587MOL0     H77460   6.995   6.617  -0.569  0.5770  0.6365 -0.0885
  587MOL0     H77461   6.926   6.752  -0.633  0.1702  0.5736 -0.2413
  587MOL0     H77462   6.947   6.466  -0.761  1.9575 -0.2362 -0.9386
  587MOL0     H77463   6.855   6.592  -0.833  0.8249 -1.0734 -0.0756
  587MOL0     H77464   7.159   6.612  -0.764 -1.7331 -1.9241  0.3225
  587MOL0     H77465   7.076   6.739  -0.849  2.0919  0.9719  0.6064
  587MOL0     H77466   6.131   6.524  -0.304  0.4006 -1.0660 -2.1145
  587MOL0     H77467   5.969   6.449  -0.127  0.4333 -1.2584  2.2114
  587MOL0     H77468   5.545   6.195  -0.019  2.0216  1.8293 -0.5842
  587MOL0     H77469   5.410   6.123   0.160  0.3631  3.4454  0.7961
  587MOL0     H77470   5.910   4.875   0.579 -1.4237 -0.7995  2.0778
  587MOL0     H77471   6.163   4.905   0.609  0.1978  0.1328 -2.0441
  587MOL0     H77472   6.538   4.685   0.798  0.5080 -0.2888 -0.4253
  587MOL0     H77473   6.748   4.741   0.897 -3.7910  2.5481  2.8692
  587MOL0     H77474   6.898   4.851   0.980 -2.6504  3.5616 -0.6194
  587MOL0     H77475   7.066   4.923   0.953 -0.0962  0.5784 -2.1257
  587MOL0     H77476   7.060   4.660   0.954  1.8299  2.3894  1.0174
  587MOL0     H77477   6.971   4.671   0.802  0.7612 -0.7424  0.3254
  587MOL0     H77478   7.154   4.845   0.739  0.0205  0.8714  1.4478
  587MOL0     H77479   7.144   4.684   0.690 -2.3571  0.1654 -1.0699
  587MOL0     H77480   7.303   4.635   0.898  1.7108 -0.1365 -0.8482
  587MOL0     H77481   7.368   4.755   0.789  0.6079 -2.7997  0.9643
  587MOL0     H77482   7.314   4.986   1.136  0.3439 -0.1154 -0.3544
  587MOL0     H77483   6.800   5.051   0.601 -0.4435  1.1476  1.3758
  587MOL0     H77484   6.591   5.000   0.504  2.2607  0.4098  0.6435
  588MOL0     O77485   9.584   4.486   4.290 -0.2014  0.5299  0.3383
  588MOL0     C77486   9.591   4.499   4.411  0.1002  0.0008 -0.2698
  588MOL0     O77487   9.484   4.482   4.492 -0.4758 -0.8369 -0.5517
  588MOL0     C77488   9.373   4.413   4.451 -1.3629 -0.5653 -0.1180
  588MOL0     C77489   9.331   4.312   4.538 -0.3265 -0.5697 -0.3743
  588MOL0     C77490   9.212   4.241   4.518 -0.2552 -0.2315  0.2587
  588MOL0     C77491   9.135   4.267   4.402 -0.1219 -0.4101  0.2892
  588MOL0     O77492   9.013   4.211   4.372  0.1528  0.4188  0.6274
  588MOL0     C77493   8.996   4.076   4.402 -0.4508 -0.5171  0.2096
  588MOL0     C77494   8.852   4.036   4.373  0.0109  0.2355 -0.3500
  588MOL0     C77495   8.818   4.056   4.227 -0.7744 -0.4159 -0.8901
  588MOL0     C77496   8.690   3.977   4.193  0.3138  0.2933 -0.1311
  588MOL0     C77497   8.562   4.046   4.170 -0.6400 -0.4173  0.1246
  588MOL0     C77498   8.456   3.958   4.115  0.3929 -0.0672  0.1476
  588MOL0     C77499   8.323   4.023   4.115 -0.5375  0.7352  0.2698
  588MOL0     C77500   8.230   3.943   4.025 -0.6759 -0.4611 -0.2998
  588MOL0     N77501   8.122   4.039   3.999 -0.7185  0.0182  0.6684
  588MOL0     C77502   8.063   4.104   4.099  0.3558  0.1510 -0.7449
  588MOL0     C77503   7.970   4.177   4.042  0.0948 -1.0861  0.0405
  588MOL0     C77504   7.890   4.285   4.115  0.5238 -0.5892 -0.2342
  588MOL0     C77505   7.761   4.234   4.186 -0.5713 -0.0306  0.4192
  588MOL0     C77506   7.670   4.340   4.221  0.2285 -0.5460  0.8430
  588MOL0     C77507   7.555   4.282   4.299  0.2196  0.2040 -0.1764
  588MOL0     O77508   7.456   4.390   4.335 -0.1578 -0.6240 -0.2011
  588MOL0     C77509   7.321   4.362   4.326 -0.1420  1.0300 -0.7134
  588MOL0     C77510   7.230   4.465   4.365 -0.8389  0.5943 -0.5244
  588MOL0     C77511   7.094   4.449   4.351  0.3405  1.0630 -0.2289
  588MOL0     C77512   7.039   4.344   4.289  0.8405 -0.5299 -0.3065
  588MOL0     C77513   6.894   4.330   4.278  0.0988  0.5946 -0.0604
  588MOL0     O77514   6.821   4.406   4.363 -0.3884 -0.2121 -0.3993
  588MOL0     C77515   6.680   4.425   4.349  0.2402  0.0951  0.5154
  588MOL0     C77516   6.610   4.413   4.467  0.7551  0.0331  0.3302
  588MOL0     C77517   6.469   4.447   4.468 -0.6004 -0.4708 -0.1398
  588MOL0     C77518   6.408   4.487   4.351 -0.3987 -0.2057  0.1916
  588MOL0     O77519   6.276   4.513   4.359  0.8775 -0.3563  0.0440
  588MOL0     C77520   6.228   4.635   4.284  0.4824  0.5815 -0.3293
  588MOL0     C77521   6.072   4.635   4.283  0.0766 -0.1606  0.4367
  588MOL0     C77522   6.001   4.637   4.414 -0.7405 -0.4626 -0.0907
  588MOL0     C77523   5.858   4.601   4.387  0.5511  0.5349  0.2752
  588MOL0     C77524   5.772   4.611   4.511  0.2970  0.2116  0.1025
  588MOL0     C77525   5.625   4.567   4.485 -0.1109 -0.1496 -0.2883
  588MOL0     C77526   5.541   4.658   4.407 -0.0489  0.3933 -0.3581
  588MOL0     C77527   5.414   4.578   4.361 -0.3047  0.4321 -0.0434
  588MOL0    Cl77528   5.307   4.700   4.279  0.5403 -0.0097  0.0098
  588MOL0     C77529   6.484   4.510   4.239  0.0277  0.1632  0.1792
  588MOL0     C77530   6.618   4.471   4.232  0.3010  0.1522  0.4732
  588MOL0     O77531   6.851   4.238   4.206 -0.3509 -0.5461  0.1057
  588MOL0     C77532   7.123   4.235   4.251  0.3330 -0.4584  0.0206
  588MOL0     C77533   7.268   4.242   4.267 -0.4320 -0.3261 -0.6090
  588MOL0     N77534   7.976   4.156   3.908 -0.2715  0.1577 -0.3725
  588MOL0     N77535   8.075   4.077   3.882  0.0485 -0.2034 -0.6456
  588MOL0     C77536   9.178   4.369   4.319 -0.6275 -0.2877 -0.0518
  588MOL0     C77537   9.297   4.440   4.335  0.4250 -0.4118 -0.0348
  588MOL0     C77538   9.730   4.532   4.463  0.0736 -0.1780  0.0345
  588MOL0     C77539   9.825   4.577   4.374  0.2392  0.0906  0.4491
  588MOL0     C77540   9.961   4.602   4.411  0.9433  0.5301 -0.8697
  588MOL0     C77541   9.998   4.564   4.538 -0.4115 -0.0029 -0.3903
  588MOL0     O77542  10.130   4.565   4.555  0.0103 -0.3012  0.3675
  588MOL0     C77543  10.191   4.614   4.675  0.2500  0.0188  0.1108
  588MOL0     C77544  10.296   4.719   4.641 -0.3173 -0.1937  0.2461
  588MOL0     C77545  10.420   4.661   4.571 -0.0921  0.8870 -0.2742
  588MOL0     C77546  10.532   4.768   4.563  0.3804  0.0125 -0.1658
  588MOL0     C77547  10.633   4.730   4.458 -0.2946  0.2436  0.2048
  588MOL0     C77548  10.726   4.710   4.380 -0.3838  0.0076  0.4748
  588MOL0     C77549   9.899   4.521   4.633 -0.8352  0.6772  0.9742
  588MOL0     C77550   9.768   4.505   4.592 -0.2397 -0.7942 -0.7133
  588MOL0     H77551   9.378   4.300   4.635  1.0865  0.1983 -0.9343
  588MOL0     H77552   9.174   4.168   4.589 -1.1635 -0.6887 -0.6791
  588MOL0     H77553   9.020   4.062   4.508 -0.2822  0.8129  0.3580
  588MOL0     H77554   9.056   4.004   4.345  2.2286  1.3905  0.4022
  588MOL0     H77555   8.786   4.097   4.435 -1.9276 -0.5990 -1.5119
  588MOL0     H77556   8.853   3.930   4.401  1.6946 -0.0471 -1.3181
  588MOL0     H77557   8.897   4.018   4.161 -0.0771 -1.7577  0.6399
  588MOL0     H77558   8.797   4.161   4.207 -2.7110 -0.3363  1.1675
  588MOL0     H77559   8.717   3.933   4.096 -0.8811  0.6272 -0.6287
  588MOL0     H77560   8.682   3.891   4.260  1.0724  0.7255  0.5318
  588MOL0     H77561   8.570   4.138   4.110 -4.1579 -0.6274 -0.8832
  588MOL0     H77562   8.527   4.086   4.265 -1.3476  1.7514 -0.9876
  588MOL0     H77563   8.451   3.866   4.173 -3.2361 -2.5377 -3.5505
  588MOL0     H77564   8.489   3.940   4.012 -0.4423  1.1554 -0.3550
  588MOL0     H77565   8.277   4.034   4.214 -2.6655  1.0500 -0.6771
  588MOL0     H77566   8.336   4.122   4.071  0.7848  0.0769 -0.9079
  588MOL0     H77567   8.199   3.863   4.093  0.4113  0.3330  1.1921
  588MOL0     H77568   8.270   3.893   3.937 -1.8454 -0.4480 -0.8570
  588MOL0     H77569   8.096   4.116   4.201 -1.4686  2.0909 -0.3127
  588MOL0     H77570   7.862   4.365   4.046  1.6620  0.9042  0.9493
  588MOL0     H77571   7.947   4.318   4.203  0.2319 -1.6007  0.3425
  588MOL0     H77572   7.790   4.180   4.276 -2.2882  1.6732  2.1037
  588MOL0     H77573   7.717   4.172   4.108  0.8542  2.1797 -2.3447
  588MOL0     H77574   7.726   4.407   4.287  1.1559  0.6546 -1.0684
  588MOL0     H77575   7.637   4.388   4.129 -1.5841 -0.3778  1.5331
  588MOL0     H77576   7.588   4.217   4.380 -2.4051 -3.2545 -1.6457
  588MOL0     H77577   7.509   4.198   4.245 -1.2665 -0.3782  1.8876
  588MOL0     H77578   7.286   4.545   4.412  0.6414 -0.2352 -0.8119
  588MOL0     H77579   7.033   4.532   4.385 -1.2855 -0.6800  1.4503
  588MOL0     H77580   6.662   4.385   4.558 -0.7850  0.2848  1.3307
  588MOL0     H77581   6.420   4.425   4.563  2.6460 -0.5399  1.6720
  588MOL0     H77582   6.256   4.639   4.178 -1.8488 -0.8613 -1.0894
  588MOL0     H77583   6.281   4.721   4.326  2.3590 -0.1134 -1.1630
  588MOL0     H77584   6.046   4.549   4.220 -1.5749  1.9267 -1.9650
  588MOL0     H77585   6.033   4.725   4.234  0.2024  0.6557  1.7841
  588MOL0     H77586   5.996   4.740   4.450 -0.6509 -0.0356 -1.2513
  588MOL0     H77587   6.044   4.561   4.481 -0.1802 -1.3153 -1.3829
  588MOL0     H77588   5.815   4.674   4.318  0.4542  0.1779 -0.0490
  588MOL0     H77589   5.856   4.500   4.345 -2.7176  0.0333  1.3480
  588MOL0     H77590   5.765   4.710   4.558 -0.4462 -0.5827  1.7713
  588MOL0     H77591   5.800   4.547   4.596 -1.2687 -0.1018  0.4106
  588MOL0     H77592   5.582   4.548   4.584  0.3124 -1.9634 -0.4222
  588MOL0     H77593   5.604   4.465   4.451 -2.3673 -0.4765  1.7732
  588MOL0     H77594   5.524   4.752   4.461 -1.2447 -0.2947  0.4965
  588MOL0     H77595   5.590   4.693   4.315 -2.4669 -1.2991 -2.4032
  588MOL0     H77596   5.358   4.535   4.444 -2.9198 -0.6490 -2.2181
  588MOL0     H77597   5.449   4.496   4.297 -0.6467  0.3602 -0.1358
  588MOL0     H77598   6.440   4.549   4.148 -0.6991 -2.8128 -0.8627
  588MOL0     H77599   6.679   4.495   4.146 -1.0496  0.8752 -0.3124
  588MOL0     H77600   7.090   4.143   4.204  2.1639 -1.8784  1.3415
  588MOL0     H77601   7.324   4.154   4.236 -1.6598 -2.4441  2.6358
  588MOL0     H77602   9.115   4.396   4.235  1.4492  3.5239 -0.6662
  588MOL0     H77603   9.325   4.510   4.257  1.0253 -0.3019  0.2819
  588MOL0     H77604   9.799   4.610   4.274  2.4602  1.7351  0.3241
  588MOL0     H77605  10.036   4.632   4.339  1.4017  3.0418  0.5361
  588MOL0     H77606  10.241   4.530   4.725 -1.7889 -1.6843 -0.5808
  588MOL0     H77607  10.117   4.642   4.750  1.8351  0.2938  1.6601
  588MOL0     H77608  10.244   4.799   4.588 -0.1287 -0.2542 -0.0294
  588MOL0     H77609  10.319   4.757   4.742  1.4422 -0.1267 -0.1503
  588MOL0     H77610  10.394   4.633   4.469  1.8581 -1.5092 -0.2182
  588MOL0     H77611  10.457   4.577   4.631 -1.6060  0.7081  0.4607
  588MOL0     H77612  10.485   4.866   4.551  0.4943  0.7971  4.2030
  588MOL0     H77613  10.579   4.768   4.662 -1.3654 -2.1046  0.7418
  588MOL0     H77614  10.799   4.716   4.302 -2.0656 -0.1457 -1.1759
  588MOL0     H77615   9.944   4.473   4.720  0.5005 -0.1136 -0.0985
  588MOL0     H77616   9.695   4.477   4.667 -0.4189 -3.0684 -1.6496
  589MOL0     O77617   6.445   4.062   2.270 -0.0480  0.2687  0.6465
  589MOL0     C77618   6.447   4.032   2.150 -0.8331 -0.2637  0.6001
  589MOL0     O77619   6.343   3.985   2.070  0.2722 -0.4982 -0.2583
  589MOL0     C77620   6.222   3.962   2.131 -0.1330 -0.9148 -0.6177
  589MOL0     C77621   6.155   3.851   2.080  0.3533 -0.5239 -0.0361
  589MOL0     C77622   6.029   3.830   2.121 -0.0571  0.4524 -0.9793
  589MOL0     C77623   5.958   3.906   2.212 -0.0431 -0.7470  0.1328
  589MOL0     O77624   5.830   3.883   2.218  0.5840  0.5533  0.5628
  589MOL0     C77625   5.746   3.974   2.287 -1.3832  0.1158  0.5185
  589MOL0     C77626   5.611   3.908   2.306 -0.0121 -0.1103 -0.3968
  589MOL0     C77627   5.510   4.012   2.373  0.2472 -0.6235  0.4676
  589MOL0     C77628   5.372   3.980   2.314  0.6655 -0.2422 -0.3039
  589MOL0     C77629   5.261   4.078   2.382 -0.4342 -0.3157  0.1455
  589MOL0     C77630   5.266   4.229   2.346  0.0432 -0.5226  0.1634
  589MOL0     C77631   5.252   4.272   2.196  0.3610 -0.1472 -0.4297
  589MOL0     C77632   5.134   4.206   2.127  0.0333 -0.0801 -0.4813
  589MOL0     N77633   5.137   4.225   1.977  0.0454  0.6093 -0.1878
  589MOL0     C77634   5.252   4.239   1.898 -0.2416 -0.5942  0.2195
  589MOL0     C77635   5.203   4.221   1.772 -0.8915 -0.3065 -0.1678
  589MOL0     C77636   5.277   4.211   1.640  0.4614  0.7868  0.3328
  589MOL0     C77637   5.427   4.257   1.634  0.3238 -0.9668 -0.5900
  589MOL0     C77638   5.433   4.406   1.672  0.1133 -0.4790 -0.2004
  589MOL0     C77639   5.577   4.450   1.652  0.5376  0.3620  0.4523
  589MOL0     O77640   5.595   4.507   1.528 -1.1472  0.2471 -0.1000
  589MOL0     C77641   5.726   4.538   1.490 -0.1507 -0.7298  0.0632
  589MOL0     C77642   5.750   4.582   1.362  0.6110  1.0994 -0.1012
  589MOL0     C77643   5.873   4.619   1.317 -0.0508  0.0634 -0.0848
  589MOL0     C77644   5.988   4.612   1.400  0.0955  0.4808  0.4390
  589MOL0     C77645   6.121   4.672   1.360 -0.9521 -0.1662 -0.5436
  589MOL0     O77646   6.139   4.741   1.238  0.6304  0.1763 -0.7239
  589MOL0     C77647   6.251   4.818   1.209  0.7338 -1.0243  0.0000
  589MOL0     C77648   6.244   4.929   1.120  0.3998 -0.1163 -0.3982
  589MOL0     C77649   6.359   5.012   1.097  0.3452  0.1417 -0.0109
  589MOL0     C77650   6.483   4.983   1.154 -0.6044  0.4863  0.6089
  589MOL0     O77651   6.599   5.053   1.141 -0.4336 -0.7440 -0.7019
  589MOL0     C77652   6.602   5.204   1.138  0.8267  0.0936  0.8862
  589MOL0     C77653   6.732   5.251   1.073  0.3284  0.3699  0.2780
  589MOL0     C77654   6.849   5.216   1.165  0.2915  0.0229  0.2701
  589MOL0     C77655   6.982   5.279   1.142  0.6216 -0.1878 -0.3653
  589MOL0     C77656   7.046   5.250   1.010 -0.4186  0.7730  0.6186
  589MOL0     C77657   7.182   5.311   0.983  1.2235  0.4686  0.1188
  589MOL0     C77658   7.232   5.277   0.845 -0.4212  0.3826  0.1883
  589MOL0     C77659   7.377   5.321   0.824 -0.6597 -0.5471  0.4300
  589MOL0    Cl77660   7.445   5.293   0.656  0.0011  0.5982  0.3399
  589MOL0     C77661   6.494   4.857   1.207  0.1273 -0.5725  0.2500
  589MOL0     C77662   6.380   4.785   1.242 -0.4684  0.3502 -0.0151
  589MOL0     O77663   6.208   4.651   1.444  0.0002  0.3723 -0.1402
  589MOL0     C77664   5.963   4.559   1.530 -0.1452  0.8632 -0.7131
  589MOL0     C77665   5.835   4.519   1.571 -0.3920 -0.2088 -0.2323
  589MOL0     N77666   5.059   4.218   1.779  0.1232  0.7498  0.9297
  589MOL0     N77667   5.021   4.229   1.904  0.6025 -0.1637 -0.0881
  589MOL0     C77668   6.021   4.017   2.262  1.0966 -0.2123  0.1387
  589MOL0     C77669   6.157   4.048   2.223  0.6391 -0.2062  0.0318
  589MOL0     C77670   6.582   4.053   2.078 -0.5881  0.3930 -0.1347
  589MOL0     C77671   6.707   4.096   2.137  0.7979 -0.4057  0.3674
  589MOL0     C77672   6.823   4.083   2.063  0.4385  0.3194 -0.2930
  589MOL0     C77673   6.822   4.050   1.930 -0.7084  1.0967  0.3937
  589MOL0     O77674   6.926   4.049   1.846  0.3942  0.3644 -0.4379
  589MOL0     C77675   7.056   4.099   1.892  0.0105 -0.2002  0.2095
  589MOL0     C77676   7.132   4.153   1.765 -0.2172  0.3829 -0.1706
  589MOL0     C77677   7.278   4.181   1.773  0.2373  0.2664 -0.0503
  589MOL0     C77678   7.351   4.207   1.636  0.0013 -0.0657  1.1187
  589MOL0     C77679   7.491   4.247   1.643  1.1138  1.0169  0.2525
  589MOL0     C77680   7.602   4.300   1.659  0.2681 -0.4172 -0.2589
  589MOL0     C77681   6.702   4.026   1.869  0.4354  0.0871  0.0227
  589MOL0     C77682   6.590   4.015   1.947  0.0042  0.6778 -0.0241
  589MOL0     H77683   6.200   3.774   2.018 -0.5497 -2.0734  1.1557
  589MOL0     H77684   5.974   3.749   2.075 -1.0067  0.0621  0.7374
  589MOL0     H77685   5.736   4.062   2.224  1.5915  0.0254 -0.2586
  589MOL0     H77686   5.794   3.995   2.384  2.5065 -1.4161 -0.8541
  589MOL0     H77687   5.616   3.826   2.379  3.8502  1.3631  1.2698
  589MOL0     H77688   5.580   3.870   2.208 -0.7266  1.1544 -0.6806
  589MOL0     H77689   5.542   4.112   2.340 -2.4958  0.8029  1.7981
  589MOL0     H77690   5.527   3.999   2.480  1.0862 -1.8208  0.2037
  589MOL0     H77691   5.369   4.003   2.207 -2.6134  2.0069  0.1212
  589MOL0     H77692   5.345   3.875   2.327 -0.2755 -0.1824 -1.5603
  589MOL0     H77693   5.279   4.078   2.490  0.3151  3.9666  0.1597
  589MOL0     H77694   5.164   4.032   2.356 -0.5582 -0.6509  1.1567
  589MOL0     H77695   5.356   4.283   2.377  0.8574 -2.2944  1.0676
  589MOL0     H77696   5.187   4.275   2.405  1.2336 -1.5415  2.6786
  589MOL0     H77697   5.233   4.379   2.186 -1.3782 -0.1044  2.1779
  589MOL0     H77698   5.347   4.243   2.150  2.0150 -1.0455  3.1787
  589MOL0     H77699   5.040   4.241   2.170  0.2283 -2.2021  1.9144
  589MOL0     H77700   5.140   4.099   2.150  1.0343  0.0183 -0.2505
  589MOL0     H77701   5.355   4.260   1.926  0.0503  2.6387 -2.5982
  589MOL0     H77702   5.223   4.277   1.572  1.0077  0.2328 -0.6643
  589MOL0     H77703   5.272   4.111   1.596  1.0900  1.8610 -2.3450
  589MOL0     H77704   5.474   4.241   1.537 -1.6163  0.5957 -1.8723
  589MOL0     H77705   5.485   4.211   1.714  1.2647  0.5004 -0.3935
  589MOL0     H77706   5.360   4.462   1.614  1.0230 -1.4563 -2.3994
  589MOL0     H77707   5.403   4.429   1.775 -2.2563  1.2726 -1.1886
  589MOL0     H77708   5.630   4.356   1.666 -1.2928 -0.5558  1.6401
  589MOL0     H77709   5.615   4.516   1.732  2.0356 -0.1264  0.1689
  589MOL0     H77710   5.661   4.609   1.307  2.5917  1.3494 -3.4188
  589MOL0     H77711   5.883   4.670   1.222  5.0707  0.2658  0.2730
  589MOL0     H77712   6.151   4.956   1.070  1.1717  0.2863 -1.6869
  589MOL0     H77713   6.350   5.098   1.033  2.2356  0.2223 -0.2320
  589MOL0     H77714   6.597   5.245   1.239 -0.6302  1.5350  0.2784
  589MOL0     H77715   6.516   5.238   1.079  0.2798 -3.0773 -0.3640
  589MOL0     H77716   6.719   5.357   1.050 -0.8659  0.3571  0.8121
  589MOL0     H77717   6.753   5.203   0.977  0.4467  0.9292  0.0231
  589MOL0     H77718   6.859   5.108   1.153  2.0940  0.1622  0.1800
  589MOL0     H77719   6.819   5.244   1.266 -0.6270  1.5493 -0.3857
  589MOL0     H77720   6.973   5.388   1.148 -0.1008  0.0680 -4.0232
  589MOL0     H77721   7.053   5.246   1.219 -1.2230 -5.6856 -0.5936
  589MOL0     H77722   6.978   5.285   0.932  0.4517 -2.3093 -1.7258
  589MOL0     H77723   7.056   5.143   0.993  1.1716  1.0421 -0.3132
  589MOL0     H77724   7.246   5.257   1.053  0.1254 -0.7501  0.2176
  589MOL0     H77725   7.177   5.419   0.999  1.9368  0.6248 -0.6475
  589MOL0     H77726   7.220   5.173   0.816  0.1963  0.0218  1.1773
  589MOL0     H77727   7.174   5.327   0.766  0.0703  0.2860 -0.2358
  589MOL0     H77728   7.440   5.269   0.896  1.3348 -2.8160 -2.7120
  589MOL0     H77729   7.387   5.426   0.852  0.7239 -0.2504 -1.0189
  589MOL0     H77730   6.593   4.831   1.242  0.5729 -0.3326 -0.7934
  589MOL0     H77731   6.391   4.692   1.297 -0.3735  0.1274 -0.4079
  589MOL0     H77732   6.045   4.552   1.601  0.4593 -0.2574 -1.4869
  589MOL0     H77733   5.833   4.484   1.674  1.0954  1.5825  0.4612
  589MOL0     H77734   5.972   4.092   2.323 -1.7876 -3.2107  1.8465
  589MOL0     H77735   6.196   4.140   2.264 -1.5431  1.0646 -0.5860
  589MOL0     H77736   6.711   4.118   2.243 -1.9796 -0.5806  0.5864
  589MOL0     H77737   6.911   4.122   2.113 -1.5993  1.1358  2.9795
  589MOL0     H77738   7.116   4.012   1.921 -0.3533 -0.3120  0.6242
  589MOL0     H77739   7.062   4.175   1.970 -0.9163  0.3266 -0.2197
  589MOL0     H77740   7.110   4.075   1.692  0.1195 -0.9170  1.0719
  589MOL0     H77741   7.093   4.250   1.734  0.7382  1.0222  0.5483
  589MOL0     H77742   7.323   4.089   1.811 -0.8418 -1.0354 -1.7707
  589MOL0     H77743   7.302   4.264   1.839 -1.3582  0.3019  0.5398
  589MOL0     H77744   7.340   4.122   1.568 -1.8551 -0.7986  2.2497
  589MOL0     H77745   7.303   4.283   1.574  1.1205 -0.8991 -0.8825
  589MOL0     H77746   7.695   4.346   1.684  0.7679 -2.3971  1.8644
  589MOL0     H77747   6.688   4.020   1.761 -1.6465 -1.2489  0.3060
  589MOL0     H77748   6.505   3.974   1.894 -1.0866  0.5964  1.6913
  590MOL0     O77749   8.056   4.801   8.009  0.3614  0.6435  0.1852
  590MOL0     C77750   8.141   4.709   8.002  0.5389  0.6351 -0.2921
  590MOL0     O77751   8.115   4.587   8.056 -0.0385 -0.4885  0.6294
  590MOL0     C77752   8.002   4.556   8.127  1.0262  0.8663 -1.2259
  590MOL0     C77753   8.000   4.556   8.270 -0.1800  0.3750 -0.5850
  590MOL0     C77754   7.888   4.519   8.347  0.3671  0.3253  0.0748
  590MOL0     C77755   7.772   4.477   8.282  1.0215 -0.1958 -0.9278
  590MOL0     O77756   7.665   4.425   8.352  0.6792 -0.3813  1.1234
  590MOL0     C77757   7.562   4.350   8.289 -0.1262  0.0017 -0.0059
  590MOL0     C77758   7.460   4.301   8.394 -0.0420 -0.0705 -0.1306
  590MOL0     C77759   7.525   4.221   8.507 -0.1679  0.0840 -0.2737
  590MOL0     C77760   7.410   4.157   8.583 -0.5510  0.3223 -0.0568
  590MOL0     C77761   7.296   4.243   8.644 -0.1525  0.1552  0.4896
  590MOL0     C77762   7.167   4.210   8.567 -0.4049 -0.7797 -0.2872
  590MOL0     C77763   7.080   4.327   8.558 -0.3066 -0.8403  0.2843
  590MOL0     C77764   6.974   4.308   8.451 -0.8715 -0.0338 -0.4635
  590MOL0     N77765   6.865   4.409   8.457 -0.2474  0.7817  0.0653
  590MOL0     C77766   6.877   4.543   8.444  0.2873  0.0769  0.9130
  590MOL0     C77767   6.752   4.593   8.460 -0.2484  0.3664  0.3445
  590MOL0     C77768   6.729   4.734   8.438  0.3882  0.0914 -0.1412
  590MOL0     C77769   6.688   4.801   8.572 -0.1263 -0.0352  0.4519
  590MOL0     C77770   6.674   4.948   8.560 -0.0795  0.6071  0.2473
  590MOL0     C77771   6.640   5.010   8.692 -0.3710  0.2347  0.4520
  590MOL0     O77772   6.504   4.991   8.729 -0.2058 -0.5784  0.4997
  590MOL0     C77773   6.468   5.067   8.835  0.1615 -0.6480  0.3367
  590MOL0     C77774   6.327   5.058   8.852  0.7238 -0.2180 -0.2896
  590MOL0     C77775   6.268   5.143   8.949 -0.1229 -0.0051  0.3267
  590MOL0     C77776   6.342   5.230   9.034  0.2260 -1.1056 -0.0992
  590MOL0     C77777   6.273   5.325   9.123  0.1010  0.3061  0.0937
  590MOL0     O77778   6.141   5.336   9.107  0.5473  0.3320 -0.4667
  590MOL0     C77779   6.064   5.401   9.203  0.1781  1.0045  0.2174
  590MOL0     C77780   6.093   5.534   9.228  0.5565 -0.4506  0.0568
  590MOL0     C77781   6.004   5.614   9.300  0.2438  0.4917 -0.1420
  590MOL0     C77782   5.891   5.563   9.363  0.3884 -0.1112  0.4228
  590MOL0     O77783   5.798   5.649   9.420  0.1305 -0.1276  0.0882
  590MOL0     C77784   5.676   5.602   9.469  0.0262 -0.1324 -0.1454
  590MOL0     C77785   5.585   5.703   9.538 -0.4538  0.6796  0.0374
  590MOL0     C77786   5.452   5.641   9.577  0.0330 -0.1840  0.6846
  590MOL0     C77787   5.449   5.567   9.707 -0.0846 -0.3443  0.0470
  590MOL0     C77788   5.312   5.582   9.776  0.1682  0.3152 -0.0926
  590MOL0     C77789   5.209   5.494   9.700  0.3382  0.5587 -0.1309
  590MOL0     C77790   5.056   5.514   9.750 -0.3027  0.0998 -1.0781
  590MOL0     C77791   4.996   5.650   9.719  0.1417  0.0097 -0.2964
  590MOL0    Cl77792   4.814   5.642   9.729  0.1409 -0.0613  0.5715
  590MOL0     C77793   5.867   5.420   9.340 -0.2280 -1.6805 -0.3734
  590MOL0     C77794   5.946   5.342   9.257  0.0543 -0.0295  0.1159
  590MOL0     O77795   6.349   5.382   9.210  0.2467  0.0249 -0.2494
  590MOL0     C77796   6.476   5.240   9.006 -0.5502  0.6781 -0.9698
  590MOL0     C77797   6.540   5.169   8.911  0.1618 -0.0116  0.0429
  590MOL0     N77798   6.662   4.486   8.474 -0.4313 -0.3441  0.3791
  590MOL0     N77799   6.733   4.378   8.469  0.0304 -0.2412 -0.3864
  590MOL0     C77800   7.776   4.486   8.142 -0.5288 -0.6694  0.5048
  590MOL0     C77801   7.883   4.520   8.066  0.2308  0.0774  0.6195
  590MOL0     C77802   8.271   4.725   7.927 -0.3624  0.5001  0.3309
  590MOL0     C77803   8.278   4.820   7.825  0.0839 -0.2282 -0.4044
  590MOL0     C77804   8.400   4.835   7.752 -0.1857  0.0262  0.3879
  590MOL0     C77805   8.509   4.753   7.775 -0.2544  0.2456 -0.3690
  590MOL0     O77806   8.630   4.769   7.714 -0.5031 -0.5406 -0.4561
  590MOL0     C77807   8.673   4.898   7.669  0.9479 -0.4114  0.2466
  590MOL0     C77808   8.679   4.890   7.525 -0.3904  0.9172 -0.0602
  590MOL0     C77809   8.775   4.786   7.469  0.6602  0.6383  0.4834
  590MOL0     C77810   8.924   4.790   7.515  0.9082  0.0773  0.0727
  590MOL0     C77811   8.993   4.921   7.488  0.8827  0.8472 -0.3608
  590MOL0     C77812   9.056   5.026   7.481  0.0112  0.2653  0.3026
  590MOL0     C77813   8.493   4.644   7.869  0.8273  1.4469  0.5702
  590MOL0     C77814   8.374   4.633   7.940  0.3753  0.0620  0.2787
  590MOL0     H77815   8.086   4.577   8.332  1.2478 -1.7139 -1.7330
  590MOL0     H77816   7.891   4.499   8.454  2.6433 -3.3000 -0.4873
  590MOL0     H77817   7.599   4.262   8.236  0.8000 -0.8169  1.8842
  590MOL0     H77818   7.513   4.410   8.212  0.0194 -2.3027 -2.0168
  590MOL0     H77819   7.376   4.251   8.344  1.4164 -0.0356 -2.8424
  590MOL0     H77820   7.415   4.393   8.432 -0.8458 -0.0543 -1.0598
  590MOL0     H77821   7.579   4.296   8.566 -0.4660 -1.1958  1.7331
  590MOL0     H77822   7.600   4.147   8.477 -0.4922 -0.5965  0.5555
  590MOL0     H77823   7.358   4.072   8.538 -1.7687 -0.6100  2.8857
  590MOL0     H77824   7.451   4.110   8.673  1.3525  0.8434 -0.6073
  590MOL0     H77825   7.328   4.346   8.625 -1.2082  0.0053 -2.6875
  590MOL0     H77826   7.277   4.230   8.751 -2.9053 -0.2725  0.0373
  590MOL0     H77827   7.130   4.119   8.615  2.2869 -2.4177 -1.1111
  590MOL0     H77828   7.178   4.177   8.463 -0.5682 -2.8137  0.2989
  590MOL0     H77829   7.035   4.351   8.654  1.8313  0.1112  1.1358
  590MOL0     H77830   7.138   4.414   8.523  0.8296 -2.8560 -3.4775
  590MOL0     H77831   6.923   4.210   8.457 -1.4953  0.2570 -0.9294
  590MOL0     H77832   7.015   4.306   8.350 -2.5567 -2.5309 -1.1969
  590MOL0     H77833   6.966   4.605   8.436  2.0426 -2.5863 -3.5373
  590MOL0     H77834   6.636   4.746   8.381 -1.4475  2.5402  3.0725
  590MOL0     H77835   6.811   4.783   8.383  0.6246 -2.2785 -2.0927
  590MOL0     H77836   6.760   4.790   8.654 -1.5923  0.7726  1.9230
  590MOL0     H77837   6.595   4.755   8.609 -0.2509  1.5337  2.2443
  590MOL0     H77838   6.770   4.979   8.517 -1.1517  1.5004 -1.6352
  590MOL0     H77839   6.604   4.970   8.479  1.1489 -1.6090 -1.5409
  590MOL0     H77840   6.652   5.118   8.680  1.2651  0.0330  0.0001
  590MOL0     H77841   6.705   4.976   8.773 -1.2656 -2.1403  0.2710
  590MOL0     H77842   6.264   4.981   8.807 -1.6393  1.3417  0.1411
  590MOL0     H77843   6.162   5.138   8.971 -0.1194 -1.4744  0.0809
  590MOL0     H77844   6.187   5.574   9.191  0.8030 -3.2768 -2.7153
  590MOL0     H77845   6.021   5.719   9.322  2.2421  0.1078  0.3484
  590MOL0     H77846   5.699   5.530   9.548  0.3098  1.0788  0.9051
  590MOL0     H77847   5.623   5.549   9.389 -0.1808 -0.8053  0.4283
  590MOL0     H77848   5.565   5.780   9.463  0.6962  1.9730  0.9898
  590MOL0     H77849   5.645   5.743   9.621  1.8091  0.7266 -1.5403
  590MOL0     H77850   5.422   5.573   9.497  1.1707 -1.1768  1.0699
  590MOL0     H77851   5.383   5.726   9.589 -0.2132 -0.3747  0.6322
  590MOL0     H77852   5.468   5.461   9.689 -2.6239 -0.8713  0.2091
  590MOL0     H77853   5.523   5.615   9.773 -0.7559 -1.7100  1.8896
  590MOL0     H77854   5.272   5.683   9.780 -0.6749 -0.0077 -0.2160
  590MOL0     H77855   5.323   5.549   9.880 -1.9138 -1.7576 -0.4394
  590MOL0     H77856   5.242   5.390   9.701  0.7613  0.6171 -2.8249
  590MOL0     H77857   5.227   5.521   9.596  2.9390 -0.2660  0.0417
  590MOL0     H77858   4.978   5.449   9.707 -0.2071  0.8871 -2.5054
  590MOL0     H77859   5.052   5.498   9.858  0.3093 -1.2731 -1.2423
  590MOL0     H77860   5.024   5.676   9.617 -0.2956  3.7349  0.4147
  590MOL0     H77861   5.029   5.735   9.780 -2.2493 -0.9228  2.5560
  590MOL0     H77862   5.788   5.356   9.378  0.8769 -4.0433 -1.7677
  590MOL0     H77863   5.908   5.242   9.235 -1.2562  0.2780  0.9093
  590MOL0     H77864   6.545   5.311   9.050 -0.8025  0.9303 -0.9833
  590MOL0     H77865   6.641   5.207   8.894 -0.3562  1.7209  0.6173
  590MOL0     H77866   7.682   4.475   8.088 -0.8501  2.3170  0.2940
  590MOL0     H77867   7.872   4.504   7.959 -1.1779 -2.0193  1.0169
  590MOL0     H77868   8.199   4.890   7.801 -1.4265 -1.3576  1.0022
  590MOL0     H77869   8.398   4.901   7.666 -2.5235 -1.9748 -1.2273
  590MOL0     H77870   8.772   4.915   7.713  0.9292 -0.6267  0.3701
  590MOL0     H77871   8.615   4.986   7.698  0.6603 -1.1819  2.1461
  590MOL0     H77872   8.579   4.884   7.481 -0.2886 -0.2702 -0.1817
  590MOL0     H77873   8.722   4.983   7.487 -2.4672  1.0336 -2.4361
  590MOL0     H77874   8.758   4.780   7.361 -1.5831  0.9139  0.7659
  590MOL0     H77875   8.744   4.688   7.508  0.2960  0.6651  0.2642
  590MOL0     H77876   8.930   4.768   7.622 -1.3888 -1.5868 -0.0475
  590MOL0     H77877   8.990   4.712   7.474  2.8519  2.0141 -0.6547
  590MOL0     H77878   9.106   5.120   7.474  2.6310 -1.1034 -1.1363
  590MOL0     H77879   8.568   4.568   7.882 -0.1632  0.7519  2.6442
  590MOL0     H77880   8.367   4.558   8.018  2.1253  1.2653  1.6799
  591MOL0     O77881   4.876   8.518   2.571  0.7091 -0.8628  0.6149
  591MOL0     C77882   4.802   8.487   2.664  0.0408  0.3013  0.5535
  591MOL0     O77883   4.841   8.409   2.771 -0.5463  0.2591  0.2651
  591MOL0     C77884   4.967   8.368   2.798 -0.2243 -0.3578  0.1810
  591MOL0     C77885   4.983   8.271   2.901  0.4536  0.7433  0.4824
  591MOL0     C77886   5.113   8.235   2.947  0.1010  0.1422  0.0445
  591MOL0     C77887   5.223   8.289   2.898 -0.1789  0.3883  1.3750
  591MOL0     O77888   5.345   8.250   2.949 -0.5969 -0.5496  0.3829
  591MOL0     C77889   5.419   8.359   3.016  0.4329  0.3732  0.8076
  591MOL0     C77890   5.562   8.311   3.031 -0.6250  0.4091  0.3122
  591MOL0     C77891   5.675   8.415   3.041 -0.2440 -0.2885 -0.0275
  591MOL0     C77892   5.672   8.510   3.158  0.0203 -0.1210  0.2532
  591MOL0     C77893   5.788   8.608   3.139  0.8269  0.0600  0.0900
  591MOL0     C77894   5.766   8.729   3.052 -0.5168  0.6641 -0.2609
  591MOL0     C77895   5.888   8.825   3.054 -0.8370  0.3868 -0.1905
  591MOL0     C77896   5.869   8.956   2.987  0.2499  0.2880 -0.0989
  591MOL0     N77897   5.833   8.941   2.845 -0.2881  0.4335 -0.4180
  591MOL0     C77898   5.708   8.929   2.795 -0.0331 -0.5748  0.3987
  591MOL0     C77899   5.719   8.905   2.653 -0.0869 -0.7740  0.3964
  591MOL0     C77900   5.619   8.878   2.543  0.3398  0.2506  0.1231
  591MOL0     C77901   5.663   8.979   2.433  0.0640  0.1925 -0.1718
  591MOL0     C77902   5.570   8.979   2.315  0.1551  0.5097  0.4732
  591MOL0     C77903   5.428   9.025   2.344  1.2171 -0.9312 -0.5021
  591MOL0     O77904   5.345   8.916   2.383  0.2695  0.4600  0.4868
  591MOL0     C77905   5.209   8.926   2.371 -0.1003  1.1601 -0.0689
  591MOL0     C77906   5.125   8.807   2.386  0.2372 -0.2408  0.2587
  591MOL0     C77907   4.984   8.822   2.391  0.8891 -0.4566  0.8952
  591MOL0     C77908   4.928   8.948   2.364 -0.2815  0.0372  0.1032
  591MOL0     C77909   4.782   8.972   2.342  0.1639 -1.1059  0.0371
  591MOL0     O77910   4.735   9.104   2.318 -0.8485 -0.2130 -0.4933
  591MOL0     C77911   4.598   9.118   2.333 -0.9635  0.2730  0.4902
  591MOL0     C77912   4.530   9.176   2.439  0.7185  0.6923 -0.2084
  591MOL0     C77913   4.390   9.192   2.434 -0.7790 -0.7049  0.1757
  591MOL0     C77914   4.326   9.156   2.321  1.4139  0.7658 -0.1069
  591MOL0     O77915   4.187   9.166   2.334 -0.0917 -0.0198 -0.0537
  591MOL0     C77916   4.102   9.071   2.276  0.7807  0.5770 -0.7810
  591MOL0     C77917   3.958   9.103   2.313  0.4164 -0.3087  0.0500
  591MOL0     C77918   3.943   9.152   2.456 -0.6673  0.5971  0.0038
  591MOL0     C77919   3.797   9.167   2.489  0.0274  0.1376  0.5607
  591MOL0     C77920   3.777   9.235   2.625  0.0024  0.1832  0.0220
  591MOL0     C77921   3.623   9.253   2.666 -0.0906 -0.1217 -0.3074
  591MOL0     C77922   3.558   9.129   2.727  1.1506 -0.4329 -0.1274
  591MOL0     C77923   3.599   9.090   2.868 -0.1397 -0.4399 -0.1728
  591MOL0    Cl77924   3.588   9.234   2.982  0.4484  0.1075 -0.1785
  591MOL0     C77925   4.388   9.083   2.220 -0.1185 -0.7425 -0.8983
  591MOL0     C77926   4.528   9.079   2.219  0.4615 -0.0784  0.5828
  591MOL0     O77927   4.713   8.872   2.339 -0.0855 -0.2068  0.1107
  591MOL0     C77928   5.013   9.057   2.343 -0.4683 -0.2020  0.0509
  591MOL0     C77929   5.153   9.048   2.349  0.2581 -0.0548  0.5866
  591MOL0     N77930   5.860   8.902   2.638 -0.6262  0.4995  0.7512
  591MOL0     N77931   5.924   8.931   2.745 -0.1191  0.0400 -0.1278
  591MOL0     C77932   5.212   8.384   2.800  0.3840 -0.4889 -0.1405
  591MOL0     C77933   5.087   8.419   2.745  0.7541  0.2317  1.0376
  591MOL0     C77934   4.660   8.535   2.658 -0.1618 -0.5772 -0.5898
  591MOL0     C77935   4.578   8.525   2.769  0.5890  0.4529  0.4141
  591MOL0     C77936   4.457   8.585   2.771 -0.5432  0.1804 -0.3415
  591MOL0     C77937   4.403   8.652   2.658  0.4783 -0.2122  0.7410
  591MOL0     O77938   4.280   8.705   2.645  0.0855  0.3717  0.5506
  591MOL0     C77939   4.197   8.698   2.768  0.0243  0.3447  0.7809
  591MOL0     C77940   4.069   8.779   2.749  0.2250 -0.0716  0.3900
  591MOL0     C77941   3.944   8.725   2.666 -0.3307 -0.4430  0.7369
  591MOL0     C77942   3.811   8.801   2.701  0.6319  0.2791 -1.5731
  591MOL0     C77943   3.716   8.794   2.588 -0.0910 -0.2338 -0.5136
  591MOL0     C77944   3.663   8.777   2.483 -0.1692  1.0150  0.6889
  591MOL0     C77945   4.483   8.667   2.544 -0.2382  0.3103  0.0624
  591MOL0     C77946   4.613   8.626   2.553  0.6905 -0.1867 -0.3222
  591MOL0     H77947   4.899   8.216   2.942 -0.2924 -0.3114 -2.2517
  591MOL0     H77948   5.123   8.155   3.020  0.2752 -0.2599 -0.4119
  591MOL0     H77949   5.376   8.390   3.112  0.7818 -0.5243  1.2712
  591MOL0     H77950   5.410   8.446   2.951 -5.0085 -0.3822  0.0845
  591MOL0     H77951   5.591   8.243   2.950  2.7426  0.4781  1.3080
  591MOL0     H77952   5.572   8.251   3.121 -0.4956 -1.3069 -0.8000
  591MOL0     H77953   5.679   8.466   2.944 -1.7212  0.0068  0.0418
  591MOL0     H77954   5.767   8.356   3.051 -1.2407 -1.8454  0.4729
  591MOL0     H77955   5.574   8.558   3.167 -0.3701 -0.2717 -2.4669
  591MOL0     H77956   5.700   8.446   3.242 -0.9731 -1.0083 -0.0746
  591MOL0     H77957   5.878   8.553   3.111 -0.3612 -2.1810  0.4864
  591MOL0     H77958   5.819   8.652   3.235  1.7825 -1.2853  0.4299
  591MOL0     H77959   5.678   8.788   3.080  0.1081  0.1842  3.0657
  591MOL0     H77960   5.728   8.693   2.955 -1.6627  0.8899  0.0881
  591MOL0     H77961   5.927   8.838   3.155 -1.2342 -0.3895  0.0765
  591MOL0     H77962   5.967   8.773   2.999 -1.5161 -1.5351  0.5389
  591MOL0     H77963   5.959   9.016   3.003  0.3542  0.2111 -0.3724
  591MOL0     H77964   5.794   8.995   3.056  1.5055 -2.7811  3.3473
  591MOL0     H77965   5.611   8.913   2.840 -0.4259 -2.6016 -1.0506
  591MOL0     H77966   5.515   8.896   2.575  0.4210 -0.2925  0.7167
  591MOL0     H77967   5.623   8.771   2.522 -0.7695  0.2108  0.0421
  591MOL0     H77968   5.761   8.949   2.394  0.0482 -0.6747  0.4324
  591MOL0     H77969   5.678   9.076   2.480  1.8083 -0.4747  0.7246
  591MOL0     H77970   5.612   9.038   2.234 -2.2271 -1.6801 -2.5919
  591MOL0     H77971   5.563   8.875   2.282 -1.8527  0.6228  0.4279
  591MOL0     H77972   5.391   9.085   2.261  2.3097 -0.3990 -0.6228
  591MOL0     H77973   5.431   9.099   2.424 -1.2420 -1.2194 -0.0776
  591MOL0     H77974   5.167   8.709   2.407  1.2369  0.2242  0.5158
  591MOL0     H77975   4.917   8.737   2.399  0.1949 -0.3264 -2.3294
  591MOL0     H77976   4.580   9.214   2.528  1.5157 -1.0440  0.1227
  591MOL0     H77977   4.347   9.232   2.525  2.3192 -0.7850  1.8376
  591MOL0     H77978   4.113   8.976   2.330  2.1510  1.7095  1.0355
  591MOL0     H77979   4.122   9.047   2.172  3.7278 -0.3955 -0.0718
  591MOL0     H77980   3.908   9.007   2.293 -0.0914 -0.5394  2.2209
  591MOL0     H77981   3.914   9.172   2.241 -0.7865  1.9567  2.7714
  591MOL0     H77982   3.999   9.245   2.470 -0.6371  0.1963  3.3708
  591MOL0     H77983   3.989   9.082   2.526 -1.3867  0.6032  0.4939
  591MOL0     H77984   3.747   9.226   2.411 -0.7044 -1.0016  0.1524
  591MOL0     H77985   3.758   9.066   2.478 -2.1142  0.9800 -0.1710
  591MOL0     H77986   3.814   9.337   2.615  1.5229 -0.5007 -2.1080
  591MOL0     H77987   3.824   9.175   2.703 -1.6986  0.2773  1.1890
  591MOL0     H77988   3.564   9.289   2.581 -1.0753 -0.7592  0.0901
  591MOL0     H77989   3.615   9.338   2.734 -2.2764 -1.9289  1.8881
  591MOL0     H77990   3.450   9.140   2.735  1.0692  0.1584 -1.6814
  591MOL0     H77991   3.569   9.046   2.657  1.9504  0.2894 -0.8978
  591MOL0     H77992   3.707   9.071   2.867  0.0052 -0.1437 -3.8537
  591MOL0     H77993   3.548   9.001   2.905 -0.9268  0.3304  0.6272
  591MOL0     H77994   4.331   9.038   2.139  0.1344 -2.1453 -0.3348
  591MOL0     H77995   4.585   9.035   2.138 -0.4002  0.0914 -0.1171
  591MOL0     H77996   4.967   9.152   2.318  1.9744  0.9805 -0.2480
  591MOL0     H77997   5.219   9.134   2.343  0.1176  0.1028  1.2871
  591MOL0     H77998   5.299   8.434   2.759 -0.7603  1.7859  0.0426
  591MOL0     H77999   5.087   8.487   2.660 -0.1218  0.8954  1.5390
  591MOL0     H78000   4.617   8.471   2.854  0.8104  0.6312  0.4263
  591MOL0     H78001   4.407   8.571   2.867 -1.0453 -0.5506 -0.7025
  591MOL0     H78002   4.261   8.734   2.849  1.0335  0.0557  0.1312
  591MOL0     H78003   4.159   8.598   2.791 -1.5294  0.6034 -0.4486
  591MOL0     H78004   4.036   8.816   2.846 -0.2512 -0.4633  0.3830
  591MOL0     H78005   4.089   8.871   2.692 -1.4941 -0.0298 -0.2042
  591MOL0     H78006   3.924   8.618   2.680 -2.4220  0.0040  1.5635
  591MOL0     H78007   3.969   8.742   2.561 -0.7954 -1.3043  0.4768
  591MOL0     H78008   3.767   8.755   2.790  1.1598  0.5439 -1.1653
  591MOL0     H78009   3.821   8.908   2.722 -1.4704  0.2648 -0.2879
  591MOL0     H78010   3.622   8.765   2.385  0.7670  2.1307  0.1382
  591MOL0     H78011   4.455   8.731   2.461  2.7800 -0.1855 -1.4554
  591MOL0     H78012   4.669   8.656   2.465  1.5958 -2.7137 -0.6941
  592MOL0     O78013   2.852   5.196   7.979 -0.4127  0.2216  0.3770
  592MOL0     C78014   2.920   5.122   8.045  1.1243  0.6689  0.1116
  592MOL0     O78015   2.888   5.020   8.131  0.0836 -0.2437  0.0997
  592MOL0     C78016   2.753   5.000   8.162  0.4564  0.7227 -0.2135
  592MOL0     C78017   2.695   4.873   8.141  0.0548  0.2438  0.4034
  592MOL0     C78018   2.562   4.848   8.183 -0.2109 -0.7180  0.2272
  592MOL0     C78019   2.494   4.950   8.255 -0.2046 -0.5685 -0.3990
  592MOL0     O78020   2.360   4.934   8.277  0.3055  0.1384 -0.0109
  592MOL0     C78021   2.318   4.830   8.371 -0.6334  0.2491  0.4789
  592MOL0     C78022   2.168   4.831   8.385  0.2081 -0.7874  0.6209
  592MOL0     C78023   2.102   4.754   8.280 -0.3752 -1.1340 -0.3942
  592MOL0     C78024   1.949   4.748   8.295 -0.7562 -0.5635  0.4374
  592MOL0     C78025   1.896   4.626   8.209 -0.0473 -0.5007  0.2143
  592MOL0     C78026   1.754   4.594   8.245  0.3819 -0.1752 -0.4243
  592MOL0     C78027   1.697   4.472   8.164  0.2934  0.1683 -0.0069
  592MOL0     C78028   1.548   4.483   8.141 -0.2453 -0.5512 -1.0008
  592MOL0     N78029   1.470   4.515   8.259  0.6573  1.1014  0.0908
  592MOL0     C78030   1.340   4.554   8.250  0.0015 -0.0936 -0.0439
  592MOL0     C78031   1.274   4.492   8.356  0.2850 -0.1441  0.2283
  592MOL0     C78032   1.129   4.521   8.386  0.9623 -0.3811  0.4836
  592MOL0     C78033   1.046   4.433   8.293  0.1540 -0.3036 -0.0549
  592MOL0     C78034   0.900   4.437   8.339  0.1217 -0.1266 -0.2727
  592MOL0     C78035   0.860   4.453   8.491 -0.6183  0.2030  0.3480
  592MOL0     O78036   0.725   4.408   8.517 -0.3991 -0.4080  0.8121
  592MOL0     C78037   0.624   4.474   8.460  0.1852  0.1069  0.5941
  592MOL0     C78038   0.504   4.400   8.452  1.0670  0.5045 -0.6379
  592MOL0     C78039   0.381   4.461   8.414 -0.2327 -0.0809  0.0105
  592MOL0     C78040   0.379   4.599   8.378 -0.3980  0.4184  0.0256
  592MOL0     C78041   0.255   4.673   8.359 -0.4467  0.7475  0.5557
  592MOL0     O78042   0.139   4.610   8.383  0.0354  0.0158 -0.1782
  592MOL0     C78043   0.016   4.667   8.351  0.0173  0.9906  0.2459
  592MOL0     C78044  -0.025   4.786   8.401  0.4512 -0.7096  1.6861
  592MOL0     C78045  -0.148   4.834   8.368  0.3122  0.3190  0.8808
  592MOL0     C78046  -0.228   4.766   8.272 -0.3935 -0.4834  0.0728
  592MOL0     O78047  -0.334   4.841   8.226 -0.2542 -0.0582  0.1511
  592MOL0     C78048  -0.438   4.770   8.158  1.1541  0.1259  0.5453
  592MOL0     C78049  -0.564   4.852   8.146 -0.1568 -0.3693  0.1695
  592MOL0     C78050  -0.674   4.775   8.079 -0.9800 -0.5084 -0.0928
  592MOL0     C78051  -0.789   4.864   8.051 -0.4229  0.2185 -0.3672
  592MOL0     C78052  -0.887   4.795   7.958  0.2990  0.3147 -0.0848
  592MOL0     C78053  -1.028   4.850   7.952  0.4086  0.0787 -0.1968
  592MOL0     C78054  -1.112   4.779   7.842  0.3821 -0.2427 -0.4839
  592MOL0     C78055  -1.241   4.859   7.813  0.9441  0.1915  0.0980
  592MOL0    Cl78056  -1.353   4.873   7.955 -0.4728 -0.3411  0.0264
  592MOL0     C78057  -0.193   4.633   8.227  0.4388 -1.1467  1.1080
  592MOL0     C78058  -0.070   4.585   8.275  0.4637 -0.1364 -0.7457
  592MOL0     O78059   0.261   4.787   8.326  0.1945 -0.4231 -0.1688
  592MOL0     C78060   0.504   4.666   8.368 -0.1008  0.1774  1.0630
  592MOL0     C78061   0.621   4.605   8.422  0.4805  0.2476 -0.0800
  592MOL0     N78062   1.362   4.419   8.431  0.2473 -0.2137  0.3339
  592MOL0     N78063   1.481   4.435   8.372  0.1702 -0.1649  0.4934
  592MOL0     C78064   2.555   5.084   8.285  0.4160 -0.6163  0.5369
  592MOL0     C78065   2.682   5.102   8.232 -0.8555 -0.3002 -0.4363
  592MOL0     C78066   3.067   5.135   8.035  0.1859 -0.1998  0.2864
  592MOL0     C78067   3.126   5.261   8.023  0.2406 -0.1713  0.6701
  592MOL0     C78068   3.268   5.274   8.014  0.5794 -0.9564  0.3488
  592MOL0     C78069   3.353   5.166   8.032  0.1917 -0.4157 -0.1441
  592MOL0     O78070   3.489   5.167   8.045 -0.5140  0.1531 -0.2439
  592MOL0     C78071   3.561   5.290   8.047 -0.0068  0.2710  0.1058
  592MOL0     C78072   3.711   5.266   8.072 -0.4138  0.0893 -0.7128
  592MOL0     C78073   3.776   5.196   7.948  0.6777  0.6584 -0.2212
  592MOL0     C78074   3.771   5.267   7.819  1.0458 -0.7417 -0.7677
  592MOL0     C78075   3.856   5.185   7.734  0.6575 -1.3319  0.6466
  592MOL0     C78076   3.939   5.120   7.678  0.3635 -0.9876  0.3197
  592MOL0     C78077   3.293   5.043   8.053  0.6017 -0.7253 -0.3674
  592MOL0     C78078   3.148   5.026   8.046 -1.3410  0.0620 -0.5702
  592MOL0     H78079   2.750   4.793   8.092 -2.8919 -1.1285 -0.8808
  592MOL0     H78080   2.504   4.760   8.156  0.4102 -1.2969  0.7677
  592MOL0     H78081   2.363   4.850   8.468  1.3059 -2.8942  0.3519
  592MOL0     H78082   2.357   4.732   8.340 -0.6109  0.1428  0.8435
  592MOL0     H78083   2.134   4.934   8.386 -2.7333 -1.5825  4.2175
  592MOL0     H78084   2.148   4.783   8.481 -1.1361 -2.4080 -0.4092
  592MOL0     H78085   2.152   4.657   8.267  0.5694 -0.6063 -0.7883
  592MOL0     H78086   2.125   4.806   8.187 -0.5222 -2.2966 -1.0999
  592MOL0     H78087   1.922   4.731   8.399  2.7320 -0.9775  1.3998
  592MOL0     H78088   1.911   4.845   8.262 -0.8163 -0.2425  1.4252
  592MOL0     H78089   1.964   4.541   8.222  0.6150 -0.0021  0.0606
  592MOL0     H78090   1.901   4.658   8.104 -2.7970 -1.8124 -0.4373
  592MOL0     H78091   1.708   4.688   8.215  0.0405 -0.2283 -0.0787
  592MOL0     H78092   1.736   4.581   8.353  0.1371 -2.9688 -0.7179
  592MOL0     H78093   1.754   4.472   8.070  0.7702  0.7124  0.2703
  592MOL0     H78094   1.715   4.375   8.210  0.4562  0.3231  0.2632
  592MOL0     H78095   1.506   4.394   8.093 -5.4223  0.4390  1.0101
  592MOL0     H78096   1.524   4.564   8.072 -2.1820 -1.3494 -1.3151
  592MOL0     H78097   1.303   4.609   8.165  0.8991 -1.0082 -1.0629
  592MOL0     H78098   1.108   4.625   8.360  1.5595 -0.9152 -2.6112
  592MOL0     H78099   1.117   4.506   8.493 -0.3604  2.9099  0.9178
  592MOL0     H78100   1.068   4.327   8.278 -2.4467 -0.6788 -2.1378
  592MOL0     H78101   1.060   4.481   8.196  0.3914  0.7082  0.4681
  592MOL0     H78102   0.845   4.507   8.275 -2.3225 -1.4932  0.2148
  592MOL0     H78103   0.854   4.341   8.310  0.3100 -0.8181  1.6003
  592MOL0     H78104   0.872   4.556   8.526  1.0038  0.0104  0.4090
  592MOL0     H78105   0.929   4.389   8.546 -0.2221  1.1138  0.9208
  592MOL0     H78106   0.500   4.292   8.461 -2.5467 -0.0517 -5.1125
  592MOL0     H78107   0.287   4.407   8.409 -0.9991  1.2934 -2.7258
  592MOL0     H78108   0.035   4.832   8.479  0.0498 -1.0444  2.1989
  592MOL0     H78109  -0.198   4.923   8.405 -1.3140  0.1126 -0.6755
  592MOL0     H78110  -0.462   4.671   8.197  0.3204 -0.4375 -1.2866
  592MOL0     H78111  -0.402   4.741   8.058  0.5540 -1.0962  0.6616
  592MOL0     H78112  -0.545   4.945   8.093  1.1187 -0.6538  0.0865
  592MOL0     H78113  -0.586   4.874   8.251 -0.3330 -0.3196  0.1214
  592MOL0     H78114  -0.709   4.701   8.151  2.2959  1.0776  3.4574
  592MOL0     H78115  -0.640   4.726   7.987  0.1455 -4.6903  2.3039
  592MOL0     H78116  -0.846   4.883   8.142  0.6848  2.6126 -0.1041
  592MOL0     H78117  -0.765   4.964   8.014  1.1595 -0.1144 -0.3256
  592MOL0     H78118  -0.899   4.688   7.979  0.3630 -0.1642 -2.3328
  592MOL0     H78119  -0.840   4.803   7.860  0.2965  0.6908 -0.0534
  592MOL0     H78120  -1.018   4.958   7.937 -2.0192  0.1160 -2.2816
  592MOL0     H78121  -1.078   4.851   8.050  0.5030  1.1643 -0.1395
  592MOL0     H78122  -1.048   4.773   7.753  0.7857  0.7881 -0.2737
  592MOL0     H78123  -1.126   4.680   7.885  2.5894 -0.5196 -0.2619
  592MOL0     H78124  -1.298   4.803   7.739 -0.5001 -0.4621  1.6338
  592MOL0     H78125  -1.218   4.956   7.769  0.0261 -0.0410 -0.9384
  592MOL0     H78126  -0.259   4.575   8.162  1.6141 -0.5996 -0.6350
  592MOL0     H78127  -0.035   4.489   8.239  0.6337 -1.3810  2.3947
  592MOL0     H78128   0.523   4.764   8.327  0.9925 -0.0648  0.9355
  592MOL0     H78129   0.709   4.668   8.431 -0.5533  1.6552  0.5316
  592MOL0     H78130   2.504   5.168   8.333  0.9922 -0.1334  0.3028
  592MOL0     H78131   2.741   5.192   8.238 -0.7744 -0.3326 -0.7105
  592MOL0     H78132   3.062   5.349   8.019 -1.0331 -1.1168 -1.6504
  592MOL0     H78133   3.306   5.375   8.003  0.0761 -0.8193 -0.1974
  592MOL0     H78134   3.517   5.344   8.131 -0.4582  0.4050 -0.2105
  592MOL0     H78135   3.540   5.337   7.951 -2.3902 -2.5141 -0.8942
  592MOL0     H78136   3.762   5.360   8.092  1.3641 -1.0661  0.4757
  592MOL0     H78137   3.710   5.199   8.159 -0.4321  0.9012 -0.0816
  592MOL0     H78138   3.734   5.096   7.937  0.5895  0.7372 -0.5943
  592MOL0     H78139   3.881   5.173   7.971  0.8477  0.1438 -1.4539
  592MOL0     H78140   3.668   5.282   7.787  0.7349  2.1939  1.2282
  592MOL0     H78141   3.806   5.370   7.834 -0.2872 -0.4903  1.0256
  592MOL0     H78142   4.008   5.062   7.619  0.8929 -1.9745  1.8438
  592MOL0     H78143   3.354   4.953   8.057  3.3630  1.0708  0.1159
  592MOL0     H78144   3.113   4.924   8.060  0.6721 -0.7828 -1.2225
  593MOL0     O78145  10.784   2.256   2.341 -0.0520 -0.4412  0.2714
  593MOL0     C78146  10.671   2.311   2.333 -0.1277 -0.1626  0.4816
  593MOL0     O78147  10.566   2.275   2.258  0.6494  0.2388  0.0578
  593MOL0     C78148  10.569   2.160   2.181 -0.2270 -0.5184 -0.0413
  593MOL0     C78149  10.616   2.040   2.228 -0.0684  0.2527 -0.7403
  593MOL0     C78150  10.617   1.926   2.155 -0.3424 -0.5773  0.5310
  593MOL0     C78151  10.573   1.930   2.019 -0.7702 -0.0225  0.0993
  593MOL0     O78152  10.570   1.826   1.932 -0.1532  0.3376  1.3259
  593MOL0     C78153  10.526   1.702   1.987  0.4240  0.0030 -0.3196
  593MOL0     C78154  10.447   1.612   1.888  0.2007  0.0975 -0.1155
  593MOL0     C78155  10.411   1.471   1.932  0.0412 -0.1286  0.1430
  593MOL0     C78156  10.289   1.460   2.026  0.4579  0.1184  0.3769
  593MOL0     C78157  10.271   1.309   2.071  0.2117  0.0404 -0.0577
  593MOL0     C78158  10.350   1.278   2.203  0.1874 -0.1159 -0.1879
  593MOL0     C78159  10.300   1.155   2.272  0.0363 -0.8296  0.7030
  593MOL0     C78160  10.367   1.026   2.226 -0.7093 -0.8021  0.4125
  593MOL0     N78161  10.333   1.006   2.087 -0.9131 -0.0132  0.4161
  593MOL0     C78162  10.207   0.966   2.049  0.2949  0.3724  1.0051
  593MOL0     C78163  10.226   0.926   1.924  0.7340 -0.3401 -0.0959
  593MOL0     C78164  10.133   0.878   1.815 -0.4269 -0.4903 -0.6330
  593MOL0     C78165  10.095   0.996   1.721 -0.9588  0.4453 -0.5001
  593MOL0     C78166  10.029   1.108   1.812  0.2655 -0.1940  0.2695
  593MOL0     C78167   9.950   1.213   1.727 -0.6218 -0.1628  0.2544
  593MOL0     O78168   9.843   1.141   1.677  0.7202 -0.0518  0.0952
  593MOL0     C78169   9.738   1.200   1.617 -0.3772  0.0209  0.4909
  593MOL0     C78170   9.646   1.128   1.545  0.3002 -0.4016 -0.6462
  593MOL0     C78171   9.534   1.184   1.486  0.1430 -0.3190  0.3740
  593MOL0     C78172   9.519   1.326   1.482  0.2247  0.1874  0.5762
  593MOL0     C78173   9.394   1.383   1.420 -0.2386 -0.7507 -0.1649
  593MOL0     O78174   9.399   1.513   1.380  0.3680  0.6206 -0.1301
  593MOL0     C78175   9.296   1.590   1.332 -0.9975  0.1484 -0.3931
  593MOL0     C78176   9.170   1.547   1.280 -0.8832 -0.7848  0.4936
  593MOL0     C78177   9.072   1.636   1.241 -0.5755 -0.8675 -0.3019
  593MOL0     C78178   9.091   1.776   1.263  0.7392  0.0533  0.9374
  593MOL0     O78179   8.997   1.876   1.228  0.0410  0.3214  0.3152
  593MOL0     C78180   8.860   1.834   1.239 -0.6390 -1.0267  0.0208
  593MOL0     C78181   8.787   1.962   1.227  0.3430  0.1727 -0.3617
  593MOL0     C78182   8.629   1.935   1.217 -0.1780  0.0839  0.5106
  593MOL0     C78183   8.570   2.077   1.212  0.0153 -0.1949  0.5074
  593MOL0     C78184   8.414   2.080   1.199  0.8100 -0.1775  0.6631
  593MOL0     C78185   8.370   2.227   1.195  0.1496 -0.0732  0.1970
  593MOL0     C78186   8.221   2.237   1.230 -0.0685  0.0951 -1.0048
  593MOL0     C78187   8.157   2.368   1.192 -0.7077 -0.4834  0.8059
  593MOL0    Cl78188   7.984   2.372   1.247 -0.0708 -0.4256 -0.1717
  593MOL0     C78189   9.216   1.817   1.304  0.1136  0.2058 -0.8216
  593MOL0     C78190   9.315   1.723   1.338  0.0440 -0.1433 -0.8211
  593MOL0     O78191   9.298   1.306   1.409  0.5107 -0.4300  0.2952
  593MOL0     C78192   9.613   1.410   1.545  0.0331  1.2157  0.4604
  593MOL0     C78193   9.713   1.338   1.624 -0.2680  0.8356 -0.0214
  593MOL0     N78194  10.362   0.937   1.894 -0.0173  0.3093  0.7350
  593MOL0     N78195  10.429   0.976   1.996 -0.0222  0.2498  0.3447
  593MOL0     C78196  10.524   2.052   1.971  0.0381 -0.2522  0.4722
  593MOL0     C78197  10.512   2.167   2.056 -0.3515 -0.0462  0.0738
  593MOL0     C78198  10.638   2.426   2.420  0.8558 -0.0953 -1.3540
  593MOL0     C78199  10.521   2.506   2.407 -0.1585  0.3400 -0.6222
  593MOL0     C78200  10.500   2.626   2.486  0.6419  0.0873  0.2071
  593MOL0     C78201  10.596   2.657   2.579  0.3408 -0.3715 -0.6605
  593MOL0     O78202  10.603   2.770   2.652 -0.2157 -0.2144  0.7926
  593MOL0     C78203  10.527   2.885   2.612  0.0307 -0.6600  0.1899
  593MOL0     C78204  10.579   3.019   2.681 -0.1302  0.0304 -0.5904
  593MOL0     C78205  10.734   3.037   2.682  0.0815  0.5877  0.8495
  593MOL0     C78206  10.798   3.030   2.542  0.7195 -0.6136 -0.5767
  593MOL0     C78207  10.733   3.101   2.438 -0.8529  0.5944  1.2805
  593MOL0     C78208  10.685   3.150   2.340 -0.9645 -0.7570  0.3346
  593MOL0     C78209  10.709   2.572   2.600 -0.6183  0.7158 -0.5532
  593MOL0     C78210  10.732   2.465   2.527 -0.1770  0.2786  0.1754
  593MOL0     H78211  10.661   2.046   2.327 -0.1350  1.8302 -0.7791
  593MOL0     H78212  10.667   1.837   2.193  2.4765  0.2151 -1.0184
  593MOL0     H78213  10.454   1.708   2.070  1.5432  0.6070  0.6402
  593MOL0     H78214  10.614   1.645   2.016 -0.9495 -1.8993  0.3504
  593MOL0     H78215  10.515   1.593   1.805 -1.3406  0.0183 -1.4257
  593MOL0     H78216  10.365   1.677   1.856  1.5987  2.6011  1.1141
  593MOL0     H78217  10.497   1.425   1.983  1.4143  3.8669  1.8604
  593MOL0     H78218  10.389   1.413   1.842  1.0738  2.8410 -2.2010
  593MOL0     H78219  10.292   1.521   2.118  2.5382  0.6456  0.0203
  593MOL0     H78220  10.203   1.488   1.964 -0.9478 -0.5011  1.9660
  593MOL0     H78221  10.307   1.240   1.994  1.9720 -0.4719  1.1619
  593MOL0     H78222  10.166   1.300   2.101 -0.6004  2.7046 -1.7095
  593MOL0     H78223  10.339   1.362   2.273  3.2357  0.9006 -0.8145
  593MOL0     H78224  10.458   1.278   2.188  0.3070 -1.9063  0.5281
  593MOL0     H78225  10.319   1.177   2.378 -3.1976  1.2027  1.0054
  593MOL0     H78226  10.192   1.160   2.263  0.1266 -1.2872 -1.0565
  593MOL0     H78227  10.331   0.938   2.281 -3.0819 -1.1600 -1.5484
  593MOL0     H78228  10.477   1.024   2.231 -0.4386  2.6478 -1.3307
  593MOL0     H78229  10.113   0.968   2.104 -1.3048 -3.1783 -1.2099
  593MOL0     H78230  10.043   0.845   1.868 -0.1284  2.1266  1.7806
  593MOL0     H78231  10.172   0.785   1.772  0.0842 -0.5742 -0.0229
  593MOL0     H78232  10.026   0.963   1.643 -1.4381 -1.4632  0.6642
  593MOL0     H78233  10.185   1.048   1.686 -2.1640  0.5359 -3.8253
  593MOL0     H78234   9.970   1.063   1.892  0.1818  0.1068  0.3764
  593MOL0     H78235  10.109   1.167   1.857 -0.8471  0.0648  1.9904
  593MOL0     H78236  10.009   1.260   1.648  0.7880  0.0678  1.4118
  593MOL0     H78237   9.920   1.298   1.789 -0.0478  0.9276 -0.9243
  593MOL0     H78238   9.661   1.024   1.518  0.8759 -0.3679 -0.4712
  593MOL0     H78239   9.461   1.122   1.435 -1.6472  2.2103 -0.3423
  593MOL0     H78240   9.175   1.440   1.265  2.1189 -0.7829  0.9209
  593MOL0     H78241   8.983   1.602   1.188 -2.2211  1.6128  0.6811
  593MOL0     H78242   8.839   1.781   1.332  1.3322  0.3165  1.3107
  593MOL0     H78243   8.840   1.762   1.160  0.7767 -1.2398 -0.1717
  593MOL0     H78244   8.822   2.023   1.143  0.0157 -0.8934 -1.2994
  593MOL0     H78245   8.804   2.014   1.321 -1.2144  0.6162 -0.2985
  593MOL0     H78246   8.599   1.888   1.311 -1.0527 -0.3884  0.0110
  593MOL0     H78247   8.594   1.875   1.132 -0.0539 -0.1215  0.6043
  593MOL0     H78248   8.594   2.138   1.300 -2.4354 -0.5203  1.4578
  593MOL0     H78249   8.620   2.120   1.124  0.3814  0.1493  0.8801
  593MOL0     H78250   8.376   2.038   1.292 -1.4312  0.1396 -0.0452
  593MOL0     H78251   8.388   2.018   1.113  2.3310 -2.9615  2.0803
  593MOL0     H78252   8.380   2.276   1.098 -1.5996 -0.7946 -0.3898
  593MOL0     H78253   8.427   2.279   1.272  1.5468  0.0398 -0.8789
  593MOL0     H78254   8.170   2.154   1.181 -0.2327  0.8648 -2.1980
  593MOL0     H78255   8.213   2.214   1.336  1.6364  0.9468 -0.6577
  593MOL0     H78256   8.157   2.370   1.082  0.2258 -1.3747  0.7681
  593MOL0     H78257   8.211   2.451   1.237 -1.2931  0.2863  0.1312
  593MOL0     H78258   9.233   1.922   1.326  0.1886 -0.2911  1.9680
  593MOL0     H78259   9.408   1.751   1.386 -0.4121  1.4353 -0.8176
  593MOL0     H78260   9.604   1.518   1.557  1.8315  1.1703  3.0822
  593MOL0     H78261   9.764   1.404   1.693 -1.0708  1.8697 -0.4100
  593MOL0     H78262  10.478   2.056   1.873  2.0030 -0.3189 -0.4879
  593MOL0     H78263  10.479   2.262   2.017  0.4082 -0.2888 -1.2361
  593MOL0     H78264  10.452   2.471   2.331 -0.0347  0.3927 -0.7587
  593MOL0     H78265  10.415   2.690   2.468 -0.9781 -1.8528  0.5867
  593MOL0     H78266  10.419   2.879   2.628 -0.4105  4.3540  0.8388
  593MOL0     H78267  10.535   2.913   2.507 -0.3534  0.0103  0.3290
  593MOL0     H78268  10.534   3.112   2.645 -2.4135 -1.0618 -0.7098
  593MOL0     H78269  10.547   3.013   2.785  0.4693  0.0786 -0.4024
  593MOL0     H78270  10.778   2.972   2.758  0.0010  0.8261  1.1010
  593MOL0     H78271  10.749   3.137   2.723  0.9656  0.9359 -0.2701
  593MOL0     H78272  10.902   3.063   2.554 -0.2764  1.8477  2.7523
  593MOL0     H78273  10.813   2.926   2.511  0.4165 -1.3268  1.5013
  593MOL0     H78274  10.658   3.174   2.239 -0.8540  0.1819  0.5196
  593MOL0     H78275  10.773   2.595   2.684 -0.4761  2.0863 -1.0066
  593MOL0     H78276  10.811   2.392   2.545 -1.3635 -1.0262  0.2754
  594MOL0     O78277   0.987   8.769  10.703 -0.2650  0.0860  0.6145
  594MOL0     C78278   1.034   8.654  10.711  1.0113  0.1806  0.0044
  594MOL0     O78279   0.978   8.534  10.672  0.2208 -0.0480  0.3451
  594MOL0     C78280   0.839   8.526  10.645 -0.5288  0.2488  0.2308
  594MOL0     C78281   0.747   8.494  10.749  0.6034 -0.2994 -0.8293
  594MOL0     C78282   0.613   8.493  10.716  0.2584  0.1219 -0.4970
  594MOL0     C78283   0.562   8.514  10.588 -0.8093  0.2705  0.1721
  594MOL0     O78284   0.432   8.522  10.552 -0.3180 -0.0756  0.1145
  594MOL0     C78285   0.335   8.450  10.621  0.9037 -0.4083 -0.0600
  594MOL0     C78286   0.195   8.508  10.599 -0.4985  0.4074  0.2158
  594MOL0     C78287   0.158   8.498  10.450  0.4153 -0.6515 -0.5251
  594MOL0     C78288   0.022   8.568  10.416 -0.2244 -0.0510 -0.3205
  594MOL0     C78289   0.018   8.579  10.263  0.7113 -0.3005  1.0969
  594MOL0     C78290  -0.068   8.708  10.238 -0.7823 -0.1438  0.6658
  594MOL0     C78291  -0.214   8.687  10.272 -0.0150  0.0808 -0.1654
  594MOL0     C78292  -0.299   8.813  10.243 -1.3749  0.5214 -0.1007
  594MOL0     N78293  -0.271   8.914  10.345 -0.6738 -0.0490  0.5404
  594MOL0     C78294  -0.326   8.911  10.471 -0.3494 -0.5852  0.4953
  594MOL0     C78295  -0.281   9.030  10.529  0.8482  0.0915  0.2431
  594MOL0     C78296  -0.313   9.079  10.667 -0.3056  0.0441  1.1415
  594MOL0     C78297  -0.456   9.144  10.671 -0.3771  1.0218  0.8159
  594MOL0     C78298  -0.476   9.228  10.793 -0.1965 -1.7057  0.0738
  594MOL0     C78299  -0.579   9.335  10.765 -0.4752  0.1435 -0.3782
  594MOL0     O78300  -0.608   9.406  10.889  0.0515  1.0575 -0.0169
  594MOL0     C78301  -0.739   9.396  10.932  0.6781  0.7352 -0.4278
  594MOL0     C78302  -0.810   9.504  10.914  0.0843 -0.2204  0.1000
  594MOL0     C78303  -0.950   9.500  10.946  0.3420  0.7076 -0.5851
  594MOL0     C78304  -1.019   9.386  10.981  0.6382  0.3943  0.3706
  594MOL0     C78305  -1.172   9.388  11.000 -0.0556  0.1836 -0.4358
  594MOL0     O78306  -1.226   9.273  11.040 -0.2929  0.3807 -0.3411
  594MOL0     C78307  -1.366   9.262  11.039 -0.5531 -0.1398 -0.1110
  594MOL0     C78308  -1.437   9.295  10.922  0.3555  0.1116  0.0589
  594MOL0     C78309  -1.577   9.296  10.929 -0.4298  0.0256 -0.2248
  594MOL0     C78310  -1.646   9.251  11.046  0.0065  0.1716 -0.2015
  594MOL0     O78311  -1.788   9.260  11.041 -0.5894  0.5238 -0.1033
  594MOL0     C78312  -1.870   9.221  11.148 -0.7881 -0.4551  0.0961
  594MOL0     C78313  -2.005   9.252  11.101 -0.2625 -0.6436 -0.0293
  594MOL0     C78314  -2.117   9.197  11.190 -0.6664 -0.7573  0.1855
  594MOL0     C78315  -2.242   9.277  11.181 -0.0586 -0.6252  0.7334
  594MOL0     C78316  -2.354   9.230  11.273 -0.1776  0.0275  0.6625
  594MOL0     C78317  -2.501   9.272  11.255 -0.3548  1.2116 -0.6440
  594MOL0     C78318  -2.530   9.423  11.262 -0.7970  0.0078 -0.2915
  594MOL0     C78319  -2.506   9.479  11.406  0.6446  0.5038  0.3329
  594MOL0    Cl78320  -2.619   9.398  11.507  0.3336 -0.2749 -0.3376
  594MOL0     C78321  -1.576   9.209  11.158 -0.2195 -0.6866 -0.8987
  594MOL0     C78322  -1.434   9.220  11.151  0.0160 -0.4203  0.0271
  594MOL0     O78323  -1.231   9.493  10.990  0.2700  0.0541  0.1375
  594MOL0     C78324  -0.937   9.271  10.993  0.7645  0.4073 -0.9204
  594MOL0     C78325  -0.799   9.279  10.982 -0.5571 -0.4760 -0.7950
  594MOL0     N78326  -0.204   9.104  10.439  0.2456 -0.1001 -0.4387
  594MOL0     N78327  -0.200   9.027  10.336  0.7282 -0.2786  0.0197
  594MOL0     C78328   0.650   8.550  10.489 -0.3273 -0.2807 -0.4710
  594MOL0     C78329   0.791   8.556  10.523 -0.3307 -0.3336 -0.2715
  594MOL0     C78330   1.165   8.639  10.768 -0.4724 -0.7812  0.6426
  594MOL0     C78331   1.226   8.745  10.835  0.1055  0.3690  0.1889
  594MOL0     C78332   1.350   8.727  10.898 -0.1153  0.2604  0.6364
  594MOL0     C78333   1.427   8.612  10.886  0.4379 -0.3430 -0.4820
  594MOL0     O78334   1.542   8.590  10.945  0.6576 -0.5582  0.2311
  594MOL0     C78335   1.600   8.699  11.021 -0.3364 -0.5842  0.2002
  594MOL0     C78336   1.726   8.639  11.074 -1.1151 -0.5991 -0.8630
  594MOL0     C78337   1.793   8.733  11.185 -0.3632  0.2965  0.0395
  594MOL0     C78338   1.835   8.867  11.115  0.0939  0.0136  0.3675
  594MOL0     C78339   1.912   8.936  11.218 -0.2751 -0.2979  0.1567
  594MOL0     C78340   1.972   8.986  11.306 -0.0598 -0.7753 -0.0616
  594MOL0     C78341   1.369   8.514  10.808 -0.7263  0.0402 -0.2252
  594MOL0     C78342   1.247   8.529  10.739 -0.0485 -0.1193  0.7057
  594MOL0     H78343   0.789   8.470  10.846  2.5548  2.2467 -0.9373
  594MOL0     H78344   0.557   8.485  10.808  1.1553  2.9685  0.3857
  594MOL0     H78345   0.351   8.458  10.729  0.2000  0.0522  0.0214
  594MOL0     H78346   0.331   8.349  10.579 -0.1236 -0.5325  0.2993
  594MOL0     H78347   0.177   8.608  10.638 -0.3974  0.6733 -0.4208
  594MOL0     H78348   0.134   8.443  10.663  1.1217 -1.5080 -0.0886
  594MOL0     H78349   0.151   8.397  10.407 -2.4568 -0.1114 -1.5796
  594MOL0     H78350   0.226   8.561  10.392 -1.6085  0.4452 -1.8200
  594MOL0     H78351  -0.060   8.504  10.451 -0.0114  0.6524  1.5357
  594MOL0     H78352   0.017   8.663  10.469 -0.9003 -0.0476 -0.3857
  594MOL0     H78353  -0.017   8.487  10.216  0.1416 -0.0645  1.0507
  594MOL0     H78354   0.117   8.606  10.224 -0.0551  2.6995  0.9269
  594MOL0     H78355  -0.059   8.750  10.137 -2.9630  2.2061  1.3441
  594MOL0     H78356  -0.028   8.785  10.304 -0.2376 -0.4554  0.7078
  594MOL0     H78357  -0.257   8.609  10.209  0.3697  1.3243 -2.0598
  594MOL0     H78358  -0.220   8.660  10.378 -1.3023 -0.1394 -0.2769
  594MOL0     H78359  -0.405   8.787  10.242 -0.9539 -1.3130  0.2378
  594MOL0     H78360  -0.268   8.842  10.142  1.4982 -1.1149  0.1845
  594MOL0     H78361  -0.392   8.834  10.509 -0.9723 -1.4388 -2.1144
  594MOL0     H78362  -0.240   9.153  10.700 -0.2604  0.2429  0.6062
  594MOL0     H78363  -0.315   8.992  10.733  1.3326 -0.5429  0.4794
  594MOL0     H78364  -0.537   9.072  10.663  0.5128  0.0788 -0.1132
  594MOL0     H78365  -0.459   9.206  10.580 -0.5423 -2.8233 -2.0439
  594MOL0     H78366  -0.509   9.165  10.876 -1.3994  1.6813  2.4116
  594MOL0     H78367  -0.384   9.283  10.816 -2.1314  1.3362  1.1129
  594MOL0     H78368  -0.675   9.285  10.748 -1.0451  1.0138  0.1457
  594MOL0     H78369  -0.554   9.394  10.676 -0.7741  1.3218  0.2976
  594MOL0     H78370  -0.767   9.598  10.879 -0.9268  0.5618  0.8755
  594MOL0     H78371  -1.010   9.591  10.938 -2.9995 -0.7882  3.8624
  594MOL0     H78372  -1.395   9.314  10.824 -1.2591 -1.5459 -1.0221
  594MOL0     H78373  -1.636   9.313  10.840  2.0243 -0.5077 -2.0439
  594MOL0     H78374  -1.854   9.280  11.239 -0.3733  0.5125 -0.5904
  594MOL0     H78375  -1.869   9.117  11.181  1.2639 -1.2617 -2.1767
  594MOL0     H78376  -2.025   9.228  10.996  0.1732 -2.3659  0.2466
  594MOL0     H78377  -2.008   9.359  11.120  1.7732  0.1462 -3.3247
  594MOL0     H78378  -2.071   9.204  11.290  1.4951 -2.8242 -0.5705
  594MOL0     H78379  -2.142   9.094  11.163 -1.5197 -0.5915  0.3012
  594MOL0     H78380  -2.228   9.383  11.205 -2.7697  0.2602 -1.1805
  594MOL0     H78381  -2.278   9.269  11.078  0.5508 -1.7079  0.5932
  594MOL0     H78382  -2.332   9.266  11.374  1.7467  2.7807 -0.6073
  594MOL0     H78383  -2.346   9.121  11.285  1.4419  0.2070  1.4724
  594MOL0     H78384  -2.544   9.221  11.342  1.0854  2.3161  0.7869
  594MOL0     H78385  -2.550   9.233  11.165  1.6164  1.0855 -1.7036
  594MOL0     H78386  -2.465   9.477  11.192  0.0080 -0.6481 -0.0725
  594MOL0     H78387  -2.636   9.438  11.240 -0.7292  1.3306  0.2168
  594MOL0     H78388  -2.510   9.588  11.415  2.6731  0.5617  1.1167
  594MOL0     H78389  -2.408   9.456  11.450  0.5309  1.4167  1.1163
  594MOL0     H78390  -1.621   9.172  11.249 -0.4440  1.6819  0.0289
  594MOL0     H78391  -1.375   9.206  11.242 -0.2944  2.1668  0.7090
  594MOL0     H78392  -0.978   9.171  11.002  0.6328  0.3456 -2.0298
  594MOL0     H78393  -0.724   9.201  10.977  1.2393  1.0637  0.6085
  594MOL0     H78394   0.605   8.573  10.393 -2.0822 -0.5448  0.2585
  594MOL0     H78395   0.856   8.583  10.440  1.7358 -2.4839  0.5189
  594MOL0     H78396   1.172   8.838  10.849  1.9743  1.6351 -0.5704
  594MOL0     H78397   1.385   8.807  10.963 -0.0425 -0.9049  2.0990
  594MOL0     H78398   1.543   8.725  11.110 -2.0806  0.0800 -1.0447
  594MOL0     H78399   1.617   8.787  10.958 -1.3590 -1.7595 -1.8313
  594MOL0     H78400   1.701   8.555  11.140  0.9232 -0.8133 -0.2869
  594MOL0     H78401   1.794   8.611  10.993  0.3461 -2.0171  0.7568
  594MOL0     H78402   1.880   8.686  11.232 -1.2575 -0.1865  1.2421
  594MOL0     H78403   1.725   8.759  11.267 -1.0422  3.0680 -1.2731
  594MOL0     H78404   1.891   8.850  11.023  1.1994  2.0164  0.6066
  594MOL0     H78405   1.749   8.926  11.080  2.0393  3.4696  0.9602
  594MOL0     H78406   2.022   9.034  11.388  1.7849 -1.8865 -0.4781
  594MOL0     H78407   1.440   8.438  10.777 -0.3927  0.2414  0.0339
  594MOL0     H78408   1.206   8.454  10.672  1.1917  0.4638 -0.7448
  595MOL0     O78409   6.167   5.975   0.133  0.4371  0.0577  0.7104
  595MOL0     C78410   6.273   6.042   0.139 -0.5378 -0.0283  0.6225
  595MOL0     O78411   6.306   6.148   0.211  0.1624 -0.1604  0.3803
  595MOL0     C78412   6.219   6.174   0.318  0.1745  0.0007  0.6478
  595MOL0     C78413   6.113   6.258   0.289  0.4589 -0.2845 -0.6459
  595MOL0     C78414   6.006   6.264   0.384 -0.0892  0.5342 -0.5493
  595MOL0     C78415   6.011   6.191   0.500  0.6061  0.5320 -0.7009
  595MOL0     O78416   5.912   6.186   0.594 -0.6196  0.8800 -0.5851
  595MOL0     C78417   5.821   6.296   0.604 -0.0509 -0.4294  0.0039
  595MOL0     C78418   5.726   6.302   0.726 -0.2359 -0.0986  0.3159
  595MOL0     C78419   5.630   6.174   0.724 -0.6711 -0.7223 -0.0306
  595MOL0     C78420   5.530   6.185   0.838  0.2731  0.4390 -0.0722
  595MOL0     C78421   5.453   6.046   0.861  0.9150  0.1890 -0.7025
  595MOL0     C78422   5.398   6.055   1.007  0.7921 -0.8092 -0.4542
  595MOL0     C78423   5.299   5.944   1.027  0.2378 -0.4022 -0.0816
  595MOL0     C78424   5.361   5.808   1.074  0.4536 -0.1953 -0.0880
  595MOL0     N78425   5.252   5.714   1.064 -0.3123  0.3017 -0.7440
  595MOL0     C78426   5.209   5.651   0.950 -0.0587 -0.1088 -0.4146
  595MOL0     C78427   5.098   5.588   0.988  0.2936  0.3958 -0.4131
  595MOL0     C78428   5.016   5.500   0.898 -0.2889 -0.7911 -0.6387
  595MOL0     C78429   4.891   5.562   0.830 -0.2401 -0.5693 -0.4617
  595MOL0     C78430   4.815   5.464   0.734  0.5197  0.0641  0.0327
  595MOL0     C78431   4.895   5.394   0.628  0.5622 -0.4935  0.5157
  595MOL0     O78432   4.796   5.300   0.567  0.1751  0.1376 -0.5629
  595MOL0     C78433   4.818   5.176   0.539  0.6394  0.3278 -0.6434
  595MOL0     C78434   4.925   5.104   0.574 -0.0666  0.6633  0.0736
  595MOL0     C78435   4.944   4.967   0.539  0.5637 -0.4476  0.1829
  595MOL0     C78436   4.842   4.902   0.472 -1.1110 -0.0911  0.3204
  595MOL0     C78437   4.855   4.765   0.433 -0.5438  0.4545 -0.9747
  595MOL0     O78438   4.964   4.710   0.476  0.1724  0.1929 -0.1195
  595MOL0     C78439   4.998   4.576   0.473  0.5082 -0.4255 -0.4357
  595MOL0     C78440   4.916   4.487   0.555 -0.7821  0.2596 -0.2611
  595MOL0     C78441   4.954   4.356   0.573 -0.2557  0.5468  0.4030
  595MOL0     C78442   5.069   4.304   0.520  0.4815  0.7781  0.3522
  595MOL0     O78443   5.115   4.177   0.544 -0.0680 -0.3479  0.1944
  595MOL0     C78444   5.013   4.083   0.574  0.1210 -0.5043 -0.1398
  595MOL0     C78445   5.074   3.944   0.552 -0.1048  0.0699 -0.2727
  595MOL0     C78446   5.178   3.924   0.665  0.6848  0.2028 -1.1758
  595MOL0     C78447   5.221   3.779   0.657 -0.3651  0.0368 -0.6197
  595MOL0     C78448   5.343   3.752   0.750 -0.0623  0.1998 -0.7236
  595MOL0     C78449   5.307   3.770   0.896  0.7690  0.4382 -0.4707
  595MOL0     C78450   5.166   3.710   0.939 -0.8746  0.1198  0.0111
  595MOL0     C78451   5.134   3.711   1.084  0.3158 -0.1211  0.0163
  595MOL0    Cl78452   4.977   3.657   1.106 -0.1932 -0.2917  0.3249
  595MOL0     C78453   5.141   4.388   0.430  0.4703 -0.6570  0.4389
  595MOL0     C78454   5.111   4.530   0.413 -0.4137 -0.0057  0.3659
  595MOL0     O78455   4.757   4.706   0.380 -0.0709 -0.2484  0.1179
  595MOL0     C78456   4.728   4.980   0.427 -0.5783 -0.2764  0.7029
  595MOL0     C78457   4.717   5.117   0.456  0.1666  0.0126 -0.0898
  595MOL0     N78458   5.079   5.603   1.128  0.2396 -0.7305  1.3241
  595MOL0     N78459   5.176   5.670   1.170  0.3915 -0.1468  0.4533
  595MOL0     C78460   6.124   6.103   0.525 -0.1309  0.7735 -0.0141
  595MOL0     C78461   6.222   6.096   0.428  0.0361  0.7752 -0.3281
  595MOL0     C78462   6.381   5.996   0.044 -0.1163 -0.3022  0.6312
  595MOL0     C78463   6.359   5.892  -0.048 -0.4311 -1.3160 -0.1420
  595MOL0     C78464   6.464   5.864  -0.145  0.2910  0.2980 -0.2771
  595MOL0     C78465   6.586   5.928  -0.129 -0.5620 -0.7901  1.1162
  595MOL0     O78466   6.703   5.901  -0.201 -0.4586  0.1281 -0.1160
  595MOL0     C78467   6.684   5.799  -0.304 -0.3600 -0.0260  0.5020
  595MOL0     C78468   6.819   5.778  -0.382  0.6913 -0.1990  0.7543
  595MOL0     C78469   6.892   5.905  -0.434  0.7646 -0.1194  0.6580
  595MOL0     C78470   6.801   5.989  -0.527  0.6547 -1.1188 -0.7023
  595MOL0     C78471   6.716   6.081  -0.452  0.8321 -1.0921  0.3140
  595MOL0     C78472   6.634   6.152  -0.394 -0.2479  0.0207 -0.1719
  595MOL0     C78473   6.607   6.036  -0.038  0.6853 -0.2493 -0.1302
  595MOL0     C78474   6.502   6.066   0.047 -0.2469 -0.6882 -0.0064
  595MOL0     H78475   6.107   6.326   0.205  1.7314  1.7692  0.8118
  595MOL0     H78476   5.918   6.327   0.370 -1.0097 -0.7910 -0.9751
  595MOL0     H78477   5.761   6.283   0.514 -0.4243 -0.0940  0.2008
  595MOL0     H78478   5.877   6.390   0.601  1.6994 -1.4021  0.7002
  595MOL0     H78479   5.663   6.391   0.721  0.1283  0.1057 -1.5910
  595MOL0     H78480   5.782   6.312   0.819 -1.3280  0.4543  0.9342
  595MOL0     H78481   5.683   6.079   0.734 -2.6446 -2.3937 -3.5100
  595MOL0     H78482   5.579   6.164   0.628 -1.1309  1.5217 -0.0632
  595MOL0     H78483   5.585   6.206   0.930 -1.6073  1.1889  0.9424
  595MOL0     H78484   5.468   6.274   0.827 -0.1885  0.0177 -0.9523
  595MOL0     H78485   5.522   5.962   0.861  0.8343 -0.0107  2.7027
  595MOL0     H78486   5.370   6.038   0.789  1.1080 -1.8805 -0.7560
  595MOL0     H78487   5.345   6.150   1.025  0.5117 -1.2320  1.1245
  595MOL0     H78488   5.477   6.052   1.082  1.1652  2.0909 -0.6194
  595MOL0     H78489   5.222   5.976   1.097 -1.9774 -2.2807 -1.5306
  595MOL0     H78490   5.255   5.934   0.927  2.1964  0.4420 -1.1010
  595MOL0     H78491   5.411   5.809   1.171  1.8062 -1.0101 -0.7438
  595MOL0     H78492   5.440   5.780   1.004  0.7587 -0.3231  0.3095
  595MOL0     H78493   5.259   5.644   0.853 -0.2835  0.8739 -0.6065
  595MOL0     H78494   4.983   5.419   0.963 -3.0789 -0.0357 -0.9693
  595MOL0     H78495   5.086   5.454   0.828 -0.5152 -1.1852 -0.6079
  595MOL0     H78496   4.916   5.653   0.775 -0.4496 -0.0288  0.3154
  595MOL0     H78497   4.822   5.588   0.911  0.2174 -0.9283  0.0514
  595MOL0     H78498   4.762   5.389   0.793  0.4078  1.2661  1.5116
  595MOL0     H78499   4.734   5.523   0.689  0.9560 -0.7511 -1.9227
  595MOL0     H78500   4.979   5.345   0.678  0.0616  0.0726  1.9812
  595MOL0     H78501   4.950   5.457   0.557  2.0471  0.6277  2.5332
  595MOL0     H78502   5.005   5.145   0.633  2.0642 -0.1689 -2.0818
  595MOL0     H78503   5.039   4.920   0.562 -0.0464 -2.5868 -1.3602
  595MOL0     H78504   4.829   4.538   0.595  1.0669  1.1403  3.0225
  595MOL0     H78505   4.904   4.293   0.645  0.2058 -1.1047 -0.6776
  595MOL0     H78506   4.931   4.089   0.502  0.9387  1.9291 -0.9711
  595MOL0     H78507   4.977   4.091   0.677  1.3702 -0.3503  0.3009
  595MOL0     H78508   5.119   3.932   0.453 -0.3068  0.0650 -0.3642
  595MOL0     H78509   5.002   3.862   0.555 -0.8778  0.7366 -0.0901
  595MOL0     H78510   5.137   3.943   0.764  0.9406 -1.7009 -0.6583
  595MOL0     H78511   5.260   3.993   0.645  1.9990 -1.4225 -1.6002
  595MOL0     H78512   5.133   3.716   0.673 -1.7790  2.4277  1.6857
  595MOL0     H78513   5.254   3.760   0.554  2.0440 -2.0671  0.4014
  595MOL0     H78514   5.419   3.817   0.705 -0.7787  0.5979 -1.3992
  595MOL0     H78515   5.382   3.651   0.740  1.0741  0.5378  0.0204
  595MOL0     H78516   5.308   3.875   0.927  2.7437 -0.1787  1.8141
  595MOL0     H78517   5.385   3.725   0.957  2.4170  0.8963 -2.1655
  595MOL0     H78518   5.094   3.785   0.903 -0.1585  0.8953  0.1588
  595MOL0     H78519   5.148   3.613   0.892 -1.8378  0.1746  0.2370
  595MOL0     H78520   5.145   3.812   1.126 -0.2435 -0.8678  2.0635
  595MOL0     H78521   5.201   3.647   1.140 -0.1488  0.6282  1.4748
  595MOL0     H78522   5.216   4.341   0.367 -0.0956 -1.7844  0.5890
  595MOL0     H78523   5.161   4.597   0.344  1.1726  0.3776  1.8335
  595MOL0     H78524   4.655   4.934   0.361  1.4238 -2.1823 -0.3212
  595MOL0     H78525   4.628   5.168   0.420 -2.2485 -2.5391  1.8702
  595MOL0     H78526   6.126   6.035   0.610 -1.9756 -0.7846 -1.1429
  595MOL0     H78527   6.303   6.023   0.434  0.8703  1.7515  0.8757
  595MOL0     H78528   6.261   5.846  -0.050 -0.3652 -1.6380  2.1284
  595MOL0     H78529   6.446   5.786  -0.218  0.9398 -1.5370  1.4293
  595MOL0     H78530   6.610   5.839  -0.373  0.0567 -0.5071 -0.2409
  595MOL0     H78531   6.642   5.705  -0.266 -1.8804  0.7176  0.7223
  595MOL0     H78532   6.891   5.720  -0.323  0.3452  0.0624  1.4509
  595MOL0     H78533   6.786   5.721  -0.469 -2.3102  0.6363  1.2395
  595MOL0     H78534   6.986   5.874  -0.482  1.1752  2.9750 -0.8085
  595MOL0     H78535   6.915   5.967  -0.347  0.1508 -0.4035  1.0260
  595MOL0     H78536   6.856   6.055  -0.595  0.5052 -1.6603 -1.3558
  595MOL0     H78537   6.746   5.922  -0.593  0.3888 -1.0745 -0.5243
  595MOL0     H78538   6.559   6.211  -0.343  1.3072 -0.4964  2.9746
  595MOL0     H78539   6.700   6.092  -0.033  0.4782  0.0208  0.8445
  595MOL0     H78540   6.514   6.142   0.124 -0.9057 -1.2020  0.6222
  596MOL0     O78541   9.531   0.224   7.348 -0.1652  0.0283 -0.0658
  596MOL0     C78542   9.555   0.169   7.240 -0.8782 -0.3661  0.6009
  596MOL0     O78543   9.472   0.145   7.133  1.3789 -0.4122 -0.3412
  596MOL0     C78544   9.346   0.194   7.155  0.6489  0.2632 -0.2698
  596MOL0     C78545   9.308   0.316   7.193 -0.4980  0.3177 -0.0675
  596MOL0     C78546   9.174   0.357   7.182 -0.4670 -0.3551  0.6305
  596MOL0     C78547   9.066   0.273   7.139  0.3555 -0.0487  0.1494
  596MOL0     O78548   8.940   0.314   7.124  0.9825  0.5955  0.0007
  596MOL0     C78549   8.899   0.441   7.188 -0.4911 -0.2622 -0.3968
  596MOL0     C78550   8.753   0.431   7.220 -0.2550  0.3226 -0.1867
  596MOL0     C78551   8.651   0.483   7.117 -0.4552 -0.3117 -0.3010
  596MOL0     C78552   8.517   0.515   7.174  1.0407 -0.0013  0.3152
  596MOL0     C78553   8.433   0.392   7.212 -0.0565  0.7808  0.0108
  596MOL0     C78554   8.389   0.314   7.080  0.1580 -0.1025 -0.8027
  596MOL0     C78555   8.265   0.236   7.117 -0.4220 -0.6140 -0.4708
  596MOL0     C78556   8.216   0.141   7.005  0.0617 -0.0338  0.3454
  596MOL0     N78557   8.163   0.005   7.041  0.3739 -0.3184 -0.2192
  596MOL0     C78558   8.234  -0.106   7.050  0.9441 -0.1460 -0.2514
  596MOL0     C78559   8.148  -0.199   7.086 -0.1484 -0.3391  0.8246
  596MOL0     C78560   8.184  -0.349   7.090 -0.6089 -0.6339  0.1404
  596MOL0     C78561   8.140  -0.424   6.968 -0.0667 -0.4083  0.1566
  596MOL0     C78562   8.231  -0.398   6.841  0.7729  0.7086 -0.4200
  596MOL0     C78563   8.154  -0.466   6.723  1.4204  0.2925 -0.3334
  596MOL0     O78564   8.173  -0.611   6.733 -0.4937  0.6552  0.1132
  596MOL0     C78565   8.099  -0.691   6.645  0.7388  0.2449  0.3225
  596MOL0     C78566   8.154  -0.811   6.586  0.0478  0.7175 -0.1364
  596MOL0     C78567   8.079  -0.886   6.498  0.2343 -0.7024  0.1064
  596MOL0     C78568   7.949  -0.855   6.468  0.4421  0.3646  0.0489
  596MOL0     C78569   7.866  -0.936   6.380 -0.0281 -0.4074 -0.2339
  596MOL0     O78570   7.878  -1.075   6.394 -0.2250  0.2202  0.3042
  596MOL0     C78571   7.798  -1.159   6.311 -0.1486 -0.9967 -1.3449
  596MOL0     C78572   7.660  -1.149   6.296 -0.2214 -0.6710  0.5867
  596MOL0     C78573   7.601  -1.251   6.218  0.8627 -0.3259 -0.3065
  596MOL0     C78574   7.675  -1.348   6.144 -0.0227 -0.1108  0.1581
  596MOL0     O78575   7.610  -1.433   6.057 -0.0727 -0.3893  0.0447
  596MOL0     C78576   7.558  -1.359   5.945 -1.3847  0.2135 -0.4721
  596MOL0     C78577   7.437  -1.418   5.867 -0.7592 -0.7486  0.2394
  596MOL0     C78578   7.315  -1.383   5.941 -0.1022 -0.8069  2.2236
  596MOL0     C78579   7.193  -1.454   5.875  0.4672 -0.3322  0.0150
  596MOL0     C78580   7.166  -1.430   5.729 -0.0415  0.3974  0.6360
  596MOL0     C78581   7.055  -1.519   5.683  0.2045  0.2228  0.4873
  596MOL0     C78582   7.001  -1.489   5.543 -0.6795 -0.8222 -0.2848
  596MOL0     C78583   7.103  -1.513   5.438  0.7826 -0.2808  0.4900
  596MOL0    Cl78584   6.997  -1.536   5.291 -0.2101 -0.0647 -0.5001
  596MOL0     C78585   7.813  -1.350   6.149  0.0347  0.6600 -0.9611
  596MOL0     C78586   7.862  -1.262   6.248 -0.6110 -0.1676 -0.1492
  596MOL0     O78587   7.791  -0.876   6.306  0.2122  0.2667  0.0778
  596MOL0     C78588   7.896  -0.741   6.525  0.4308  0.1207 -0.8390
  596MOL0     C78589   7.962  -0.661   6.614 -0.3709  0.3771 -0.1626
  596MOL0     N78590   8.029  -0.138   7.111  0.3823  0.0589 -0.0987
  596MOL0     N78591   8.034  -0.014   7.081  0.2928  0.5736 -0.5899
  596MOL0     C78592   9.105   0.150   7.093 -0.1080  0.9118 -0.4790
  596MOL0     C78593   9.240   0.113   7.111  0.3828  0.1958  0.3590
  596MOL0     C78594   9.691   0.122   7.213 -0.4384  0.0508  0.4900
  596MOL0     C78595   9.735   0.062   7.094  0.3258  0.4815  1.0207
  596MOL0     C78596   9.866   0.036   7.063 -0.4588  0.4691 -0.8815
  596MOL0     C78597   9.965   0.037   7.165  0.4598  0.4274 -0.3811
  596MOL0     O78598  10.089  -0.001   7.124 -0.0119  0.1915  0.2461
  596MOL0     C78599  10.195   0.026   7.207 -0.8131 -0.8355  0.8310
  596MOL0     C78600  10.331   0.009   7.133  0.4536 -0.0569 -0.0674
  596MOL0     C78601  10.446   0.076   7.189  0.4430  0.5166 -0.5823
  596MOL0     C78602  10.449   0.092   7.349 -0.2154 -0.2965 -0.7129
  596MOL0     C78603  10.429  -0.047   7.394  0.5206 -0.3558 -0.4888
  596MOL0     C78604  10.408  -0.159   7.446 -1.1128  0.5535 -0.2291
  596MOL0     C78605   9.919   0.073   7.290  0.1785  0.2398  1.2134
  596MOL0     C78606   9.786   0.124   7.317 -1.1625  0.5961 -1.3556
  596MOL0     H78607   9.387   0.387   7.216 -0.8920  1.0284 -0.8765
  596MOL0     H78608   9.156   0.460   7.212  0.0570 -0.2497  0.5807
  596MOL0     H78609   8.925   0.531   7.131 -0.3317  0.2589  0.4814
  596MOL0     H78610   8.945   0.445   7.288 -0.2501 -3.0362 -0.3122
  596MOL0     H78611   8.745   0.474   7.320 -2.8509 -2.4090  0.9616
  596MOL0     H78612   8.733   0.324   7.231 -0.7527  0.3500 -0.7340
  596MOL0     H78613   8.641   0.416   7.032 -0.4041  0.0979 -0.6381
  596MOL0     H78614   8.688   0.579   7.078 -2.0348 -0.2831 -1.8859
  596MOL0     H78615   8.530   0.575   7.265  3.3921 -1.1688  0.8326
  596MOL0     H78616   8.460   0.578   7.105  0.5331 -0.2467  0.5071
  596MOL0     H78617   8.347   0.422   7.273  0.6716  0.5660  1.1713
  596MOL0     H78618   8.488   0.321   7.275 -1.5524 -1.0809 -0.6774
  596MOL0     H78619   8.469   0.243   7.056  2.6738  2.7061 -1.1851
  596MOL0     H78620   8.373   0.384   6.998 -1.5392 -1.6346 -1.8444
  596MOL0     H78621   8.285   0.170   7.202  1.4353 -1.2627 -1.3484
  596MOL0     H78622   8.185   0.310   7.125 -1.8431 -2.2797  2.0125
  596MOL0     H78623   8.304   0.126   6.942  0.7803 -2.5740  1.7903
  596MOL0     H78624   8.142   0.185   6.938  0.2649 -0.4632 -0.1618
  596MOL0     H78625   8.330  -0.137   7.009  1.8406 -0.1216  1.6829
  596MOL0     H78626   8.135  -0.405   7.170 -1.4847 -1.1453 -0.7178
  596MOL0     H78627   8.290  -0.356   7.115 -0.9593  1.7871  2.6966
  596MOL0     H78628   8.040  -0.388   6.942  0.0203  0.7828  1.3957
  596MOL0     H78629   8.143  -0.532   6.984  3.0335 -0.4416 -0.0782
  596MOL0     H78630   8.255  -0.294   6.821 -0.6430  1.0500 -0.5011
  596MOL0     H78631   8.332  -0.440   6.844  0.3039 -0.4453  1.9269
  596MOL0     H78632   8.194  -0.444   6.624  1.0670  0.4817 -0.4409
  596MOL0     H78633   8.049  -0.435   6.730  0.9612 -1.3155  0.2576
  596MOL0     H78634   8.259  -0.832   6.605  0.2409  0.3306 -1.5619
  596MOL0     H78635   8.119  -0.967   6.437  0.1585  0.8798 -2.1647
  596MOL0     H78636   7.607  -1.063   6.332 -0.2525  1.8377 -4.5397
  596MOL0     H78637   7.493  -1.245   6.208  0.6903 -2.6308 -0.5061
  596MOL0     H78638   7.639  -1.351   5.872 -0.7988 -0.1905  0.1225
  596MOL0     H78639   7.533  -1.255   5.969 -1.4072  0.3397 -1.0342
  596MOL0     H78640   7.447  -1.523   5.838  1.7941 -0.0576 -1.7436
  596MOL0     H78641   7.430  -1.370   5.769  1.4752 -2.9374 -1.0978
  596MOL0     H78642   7.301  -1.274   5.947  2.6791 -0.2603  0.6961
  596MOL0     H78643   7.337  -1.425   6.040 -0.0525 -2.2838  1.6097
  596MOL0     H78644   7.210  -1.561   5.886  5.1016 -0.1605 -2.6601
  596MOL0     H78645   7.103  -1.425   5.930 -1.4914 -3.0622 -1.5021
  596MOL0     H78646   7.255  -1.451   5.668 -0.2732  0.8053  0.1575
  596MOL0     H78647   7.126  -1.333   5.701 -1.9777 -1.3616 -3.3646
  596MOL0     H78648   6.967  -1.507   5.747  0.3102  1.4857  0.4338
  596MOL0     H78649   7.076  -1.624   5.701 -1.0165  0.1678  1.7623
  596MOL0     H78650   6.913  -1.550   5.522 -0.0916 -1.3708 -1.1985
  596MOL0     H78651   6.973  -1.383   5.542 -1.1448 -0.9450 -0.7718
  596MOL0     H78652   7.162  -1.603   5.459 -1.4703 -1.6751  1.1939
  596MOL0     H78653   7.164  -1.428   5.406 -2.2393  1.0601 -2.2389
  596MOL0     H78654   7.877  -1.420   6.096  1.8334 -0.3589  2.2743
  596MOL0     H78655   7.969  -1.259   6.267 -0.5462  1.6470 -0.6178
  596MOL0     H78656   7.792  -0.716   6.508  0.4193  1.1063  0.4726
  596MOL0     H78657   7.917  -0.568   6.648 -0.6985  0.0975  0.1737
  596MOL0     H78658   9.036   0.082   7.044  0.6408 -0.2733  0.0674
  596MOL0     H78659   9.272   0.015   7.077  1.8509  1.0179 -0.7676
  596MOL0     H78660   9.663   0.051   7.014  0.6360 -0.3959  0.8487
  596MOL0     H78661   9.887   0.017   6.958 -2.3975 -1.0385 -1.0560
  596MOL0     H78662  10.190  -0.032   7.300  0.0689 -0.3585  1.1943
  596MOL0     H78663  10.190   0.129   7.245 -0.4291 -0.5420  0.0940
  596MOL0     H78664  10.350  -0.099   7.131 -1.1109 -0.5068  2.8585
  596MOL0     H78665  10.321   0.043   7.030  2.0038  0.1732 -0.1631
  596MOL0     H78666  10.448   0.175   7.142  0.4831  2.1806  2.6359
  596MOL0     H78667  10.531   0.024   7.144  0.2927  1.6245 -2.2342
  596MOL0     H78668  10.545   0.131   7.385 -1.1704 -0.2269  1.9341
  596MOL0     H78669  10.369   0.162   7.372 -1.2739 -1.3329 -1.1403
  596MOL0     H78670  10.403  -0.255   7.495  1.1544  1.1565  1.3747
  596MOL0     H78671   9.984   0.068   7.377  0.6601  0.5909  0.8737
  596MOL0     H78672   9.768   0.152   7.420 -0.7935 -0.8049 -0.8982
  597MOL0     O78673   6.737   2.873   9.662 -0.0102  0.0966  0.3455
  597MOL0     C78674   6.828   2.962   9.665 -1.0390  0.2516  0.1568
  597MOL0     O78675   6.812   3.088   9.628 -0.5554 -0.2264 -0.2046
  597MOL0     C78676   6.692   3.111   9.574 -0.8655 -0.1200 -0.7272
  597MOL0     C78677   6.574   3.114   9.657  0.0728  0.3050  0.6827
  597MOL0     C78678   6.454   3.142   9.607 -0.2618  0.7135 -0.3702
  597MOL0     C78679   6.447   3.170   9.473 -0.4001  1.3391  0.4607
  597MOL0     O78680   6.335   3.201   9.408  0.0802  0.2587  0.4886
  597MOL0     C78681   6.220   3.241   9.496 -0.3841  0.8302 -0.8623
  597MOL0     C78682   6.110   3.309   9.405 -0.0572 -0.0890  0.6151
  597MOL0     C78683   6.026   3.202   9.337  0.6753  0.4392 -0.0715
  597MOL0     C78684   5.911   3.259   9.250 -0.5940  0.3146 -0.1852
  597MOL0     C78685   5.805   3.158   9.211  0.0315 -0.3272  0.0667
  597MOL0     C78686   5.658   3.188   9.254  0.1762  0.0464  0.0904
  597MOL0     C78687   5.609   3.320   9.190 -0.2746 -0.2709 -0.5106
  597MOL0     C78688   5.462   3.325   9.211  0.0675  0.6005  0.6613
  597MOL0     N78689   5.379   3.229   9.133  0.4601 -0.1607 -1.1507
  597MOL0     C78690   5.257   3.187   9.188 -0.4209 -0.4459  0.6001
  597MOL0     C78691   5.213   3.094   9.108 -0.3286 -0.3769 -0.1571
  597MOL0     C78692   5.082   3.037   9.102 -0.9238  0.4379 -0.5790
  597MOL0     C78693   5.044   2.976   9.240 -0.5454 -0.0531  0.9171
  597MOL0     C78694   4.890   2.974   9.257 -0.2410 -0.7128  0.6319
  597MOL0     C78695   4.846   2.899   9.387  0.4432  0.3656 -0.0630
  597MOL0     O78696   4.700   2.911   9.376 -0.3601 -0.1662 -0.4010
  597MOL0     C78697   4.632   2.864   9.489  0.8607  0.2278  0.4668
  597MOL0     C78698   4.497   2.913   9.490  0.1066 -0.0549  0.1692
  597MOL0     C78699   4.415   2.881   9.594  0.1067 -0.4108 -0.1428
  597MOL0     C78700   4.458   2.800   9.703  0.4467  0.0917 -0.4201
  597MOL0     C78701   4.370   2.773   9.811  0.6635  0.8091 -0.1890
  597MOL0     O78702   4.237   2.769   9.778 -0.3279 -0.5948 -0.3036
  597MOL0     C78703   4.140   2.735   9.867 -0.3399  0.2789  0.2202
  597MOL0     C78704   4.015   2.678   9.822  0.6809  0.8162 -0.3914
  597MOL0     C78705   3.923   2.632   9.920 -0.3219 -0.2297  0.1229
  597MOL0     C78706   3.942   2.629  10.058  0.3432  0.6111 -0.4635
  597MOL0     O78707   3.849   2.573  10.142 -1.1968 -0.5374  0.4385
  597MOL0     C78708   3.860   2.588  10.286  0.6356  0.8575  0.0595
  597MOL0     C78709   3.745   2.505  10.341 -0.0792  0.0272  0.3203
  597MOL0     C78710   3.606   2.518  10.273 -0.4766  0.1090  0.3706
  597MOL0     C78711   3.500   2.431  10.341 -0.2464 -0.4659  0.4768
  597MOL0     C78712   3.355   2.451  10.293 -0.3536  0.2367 -0.2716
  597MOL0     C78713   3.345   2.427  10.139  0.1013 -0.0432  1.0462
  597MOL0     C78714   3.191   2.424  10.104 -0.5479 -0.7737 -0.4430
  597MOL0     C78715   3.170   2.365   9.967 -0.4395 -0.8124  0.4824
  597MOL0    Cl78716   3.017   2.428   9.901  0.0915 -0.4809  0.1070
  597MOL0     C78717   4.059   2.699  10.100  0.3677 -0.2236 -0.1721
  597MOL0     C78718   4.152   2.752  10.005 -0.6587 -0.0049 -0.2829
  597MOL0     O78719   4.425   2.728   9.911 -0.3681 -1.0105 -0.3982
  597MOL0     C78720   4.594   2.755   9.697  0.3688 -0.2494  0.6475
  597MOL0     C78721   4.677   2.790   9.597  0.0132 -0.1620  0.6658
  597MOL0     N78722   5.307   3.065   9.012 -0.5965 -0.2610  0.7961
  597MOL0     N78723   5.406   3.152   9.023 -0.8511  0.2492 -0.4108
  597MOL0     C78724   6.556   3.157   9.389 -0.8356  0.5685  0.2704
  597MOL0     C78725   6.680   3.128   9.443 -0.3292 -0.1997  0.1906
  597MOL0     C78726   6.954   2.924   9.725 -0.6321 -0.2496  0.7874
  597MOL0     C78727   6.963   2.865   9.849 -0.0721 -0.0687 -0.3000
  597MOL0     C78728   7.085   2.827   9.905  0.0652  1.2210  0.1207
  597MOL0     C78729   7.203   2.858   9.844 -0.8688 -0.5864  0.0558
  597MOL0     O78730   7.328   2.827   9.900  0.2762 -0.3731 -0.5473
  597MOL0     C78731   7.448   2.881   9.849  0.4325 -0.5709 -0.0505
  597MOL0     C78732   7.559   2.785   9.885 -0.1251  0.0235 -0.1642
  597MOL0     C78733   7.542   2.648   9.816 -0.0472  0.2116  0.0680
  597MOL0     C78734   7.669   2.562   9.858  0.5169 -0.7315  0.5939
  597MOL0     C78735   7.773   2.599   9.762  0.7416 -0.0007 -0.4583
  597MOL0     C78736   7.855   2.634   9.683  0.3958  0.2728  0.2608
  597MOL0     C78737   7.198   2.929   9.723  0.0919 -0.8474  0.4499
  597MOL0     C78738   7.077   2.959   9.665 -0.1499  0.4958 -0.0958
  597MOL0     H78739   6.588   3.105   9.764  0.6223  1.5626  0.7375
  597MOL0     H78740   6.366   3.147   9.671 -0.9248 -1.2821 -1.0259
  597MOL0     H78741   6.250   3.306   9.578 -1.1199 -0.9265  0.8880
  597MOL0     H78742   6.184   3.147   9.539  2.4832 -0.3386 -0.7408
  597MOL0     H78743   6.162   3.371   9.331  0.3898 -1.0923  0.0800
  597MOL0     H78744   6.052   3.373   9.473 -1.2982 -2.3751  1.8086
  597MOL0     H78745   5.992   3.142   9.422  1.3039  1.2410  0.7586
  597MOL0     H78746   6.076   3.125   9.277 -1.3107 -1.5835  0.6969
  597MOL0     H78747   5.870   3.350   9.296 -0.9174  0.8491 -1.4934
  597MOL0     H78748   5.948   3.299   9.155  1.6367  2.9950  1.6315
  597MOL0     H78749   5.833   3.057   9.242  1.0774 -0.2703 -0.6292
  597MOL0     H78750   5.806   3.159   9.101  1.2055  2.1038  0.0411
  597MOL0     H78751   5.651   3.203   9.362 -1.5482 -0.2977  0.0580
  597MOL0     H78752   5.590   3.106   9.229 -0.3560  0.1644  1.1126
  597MOL0     H78753   5.659   3.403   9.241 -0.4154 -1.3197  1.4151
  597MOL0     H78754   5.626   3.325   9.082 -0.7341  0.4404 -0.5556
  597MOL0     H78755   5.439   3.427   9.179 -0.4819 -0.1304 -1.4959
  597MOL0     H78756   5.430   3.315   9.315 -0.5174 -1.5753  0.3312
  597MOL0     H78757   5.201   3.242   9.263 -0.8454 -1.8069  1.3036
  597MOL0     H78758   5.088   2.961   9.024  2.8319 -0.5655  0.4968
  597MOL0     H78759   5.005   3.113   9.079 -0.7299  0.9318  0.3524
  597MOL0     H78760   5.085   3.023   9.330 -1.1874  0.7094  0.8246
  597MOL0     H78761   5.096   2.881   9.227 -1.0229 -0.7061  3.3149
  597MOL0     H78762   4.859   3.078   9.267 -0.8484 -0.9682  1.5667
  597MOL0     H78763   4.840   2.920   9.176  1.8032 -0.3544 -0.9672
  597MOL0     H78764   4.886   2.945   9.478  1.8515  0.4158 -0.6809
  597MOL0     H78765   4.875   2.793   9.390  0.3429  0.3452  1.7959
  597MOL0     H78766   4.475   2.983   9.410 -2.3024  0.6775  1.3792
  597MOL0     H78767   4.315   2.922   9.585  0.2327 -0.2845 -1.0579
  597MOL0     H78768   3.989   2.677   9.717 -1.5544 -1.3187  0.0683
  597MOL0     H78769   3.826   2.590   9.893 -0.1429 -1.0758  0.7455
  597MOL0     H78770   3.863   2.684  10.338  2.5341  0.1661  1.3639
  597MOL0     H78771   3.955   2.538  10.309 -0.4671 -1.9156 -0.9949
  597MOL0     H78772   3.736   2.545  10.442  0.8225  2.7726 -0.5911
  597MOL0     H78773   3.782   2.403  10.327 -0.6337  0.1231 -2.4354
  597MOL0     H78774   3.599   2.513  10.164  0.9971  2.0745  0.1243
  597MOL0     H78775   3.583   2.625  10.284 -1.1197 -0.1422  1.5955
  597MOL0     H78776   3.527   2.325  10.333  3.7264  0.3947  0.3303
  597MOL0     H78777   3.499   2.463  10.445 -0.2917  1.7719 -0.1671
  597MOL0     H78778   3.312   2.549  10.314  0.8683  0.8401 -0.5165
  597MOL0     H78779   3.290   2.378  10.342 -2.2300  0.8939 -1.6673
  597MOL0     H78780   3.393   2.330  10.122  2.0528  0.9651  0.5830
  597MOL0     H78781   3.397   2.502  10.079 -1.0311 -2.4611 -3.3926
  597MOL0     H78782   3.149   2.358  10.180  1.1662 -2.0298 -0.5155
  597MOL0     H78783   3.156   2.527  10.108  0.7272 -0.3299 -0.1727
  597MOL0     H78784   3.174   2.256   9.975  0.9727 -1.0179 -1.9314
  597MOL0     H78785   3.247   2.384   9.891 -0.5970  0.7185  0.6732
  597MOL0     H78786   4.082   2.700  10.207  1.2277 -1.2304 -0.3263
  597MOL0     H78787   4.234   2.810  10.045 -0.6406  0.4361 -0.9455
  597MOL0     H78788   4.635   2.692   9.775 -0.8159 -1.1142  0.6012
  597MOL0     H78789   4.778   2.752   9.610 -0.3990 -1.8699 -0.7074
  597MOL0     H78790   6.550   3.190   9.286  1.7660 -0.0400 -0.1387
  597MOL0     H78791   6.762   3.120   9.372  0.1892 -2.8739  0.9619
  597MOL0     H78792   6.871   2.853   9.905  0.3722  0.9098  0.6865
  597MOL0     H78793   7.086   2.782  10.004  4.8460  2.1445  0.7280
  597MOL0     H78794   7.466   2.980   9.893  1.7187 -0.5866 -0.4886
  597MOL0     H78795   7.450   2.902   9.742  1.0641  1.7662  0.3522
  597MOL0     H78796   7.649   2.832   9.845  0.5139 -1.3260 -0.3833
  597MOL0     H78797   7.568   2.776   9.994 -3.5698  0.7857  0.2948
  597MOL0     H78798   7.538   2.660   9.708  4.0562  0.2408 -0.2595
  597MOL0     H78799   7.457   2.592   9.855 -1.2935 -0.1177 -2.9226
  597MOL0     H78800   7.698   2.582   9.961 -2.1933 -1.8289  1.6822
  597MOL0     H78801   7.650   2.456   9.837  0.2962 -0.2494 -2.0312
  597MOL0     H78802   7.934   2.666   9.618  0.1168  0.8710  0.2140
  597MOL0     H78803   7.284   2.958   9.664  0.1068 -1.3003  0.2471
  597MOL0     H78804   7.076   3.007   9.568  1.6143  0.5677 -0.1123
  598MOL0     O78805  10.078   5.906   8.825 -0.8101 -0.2592  0.8213
  598MOL0     C78806  10.094   5.790   8.806  0.8216  0.0695 -0.2796
  598MOL0     O78807  10.201   5.731   8.752 -0.4405 -0.1068  1.2591
  598MOL0     C78808  10.329   5.786   8.754  0.3586  0.5979  0.6422
  598MOL0     C78809  10.407   5.766   8.863 -0.6878 -0.0634 -0.1442
  598MOL0     C78810  10.532   5.829   8.868  0.4884 -0.7974  0.0565
  598MOL0     C78811  10.574   5.912   8.768  1.0109  0.2901  0.5278
  598MOL0     O78812  10.692   5.968   8.794 -0.0203  0.0718 -0.1640
  598MOL0     C78813  10.748   6.058   8.696  0.9249 -0.3614 -1.0241
  598MOL0     C78814  10.853   6.146   8.756 -0.4919  0.7435  0.1228
  598MOL0     C78815  10.789   6.245   8.861  0.4376  0.4882 -0.6086
  598MOL0     C78816  10.886   6.358   8.902  0.1992  0.1885 -0.3308
  598MOL0     C78817  10.838   6.434   9.025  0.0734 -0.3344 -0.1639
  598MOL0     C78818  10.943   6.423   9.135  0.4704  0.5675  1.1627
  598MOL0     C78819  10.924   6.512   9.254  0.4477  0.0560  0.3470
  598MOL0     C78820  10.791   6.499   9.322 -0.0292  0.4683 -0.6354
  598MOL0     N78821  10.796   6.592   9.441 -0.1231  0.4304 -0.0553
  598MOL0     C78822  10.765   6.727   9.446 -0.4578  0.0755  0.3343
  598MOL0     C78823  10.811   6.767   9.566  0.0830 -0.5303 -0.2952
  598MOL0     C78824  10.812   6.907   9.610  0.5364 -0.4050 -0.3394
  598MOL0     C78825  10.934   6.980   9.564 -0.1687 -0.7563 -0.7714
  598MOL0     C78826  11.054   6.949   9.650 -0.1676 -0.7105  0.0454
  598MOL0     C78827  11.178   7.040   9.628 -0.3665  0.6249 -0.1447
  598MOL0     O78828  11.294   6.988   9.694 -0.2676 -0.2573 -0.4789
  598MOL0     C78829  11.408   7.062   9.707  0.1556  0.2905  0.4665
  598MOL0     C78830  11.439   7.180   9.630  0.1352 -0.4710  0.6013
  598MOL0     C78831  11.557   7.248   9.651  0.9552 -0.7788 -0.9989
  598MOL0     C78832  11.640   7.212   9.760 -0.6425 -0.7216 -0.9134
  598MOL0     C78833  11.761   7.289   9.792  0.3636  0.5119  0.1335
  598MOL0     O78834  11.841   7.237   9.896 -0.2603 -0.4005 -0.2970
  598MOL0     C78835  11.949   7.307   9.953  0.2529 -0.4365 -0.1901
  598MOL0     C78836  12.041   7.231  10.031 -0.5136 -0.4359 -0.0995
  598MOL0     C78837  12.149   7.286  10.101 -0.1166 -0.8870 -0.4976
  598MOL0     C78838  12.161   7.426  10.105 -0.4778  0.4961  0.8455
  598MOL0     O78839  12.268   7.469  10.179  0.6903 -0.7843  0.3278
  598MOL0     C78840  12.328   7.595  10.151  0.1453  0.1997 -0.0013
  598MOL0     C78841  12.430   7.598  10.263  0.6473  0.0332  0.0881
  598MOL0     C78842  12.506   7.734  10.263  0.1899  0.3693  0.2158
  598MOL0     C78843  12.591   7.736  10.384 -0.2220 -0.2205  1.0426
  598MOL0     C78844  12.661   7.875  10.399 -0.1745 -0.1485 -0.4020
  598MOL0     C78845  12.599   7.962  10.505 -0.2141  0.0465  0.3825
  598MOL0     C78846  12.656   8.109  10.503  0.1990 -0.3787  0.1625
  598MOL0     C78847  12.567   8.212  10.434 -0.6126  0.0528  0.0225
  598MOL0    Cl78848  12.400   8.203  10.515 -0.4081 -0.3976  0.3390
  598MOL0     C78849  12.074   7.508  10.026  0.3172  1.0752  0.1580
  598MOL0     C78850  11.966   7.452   9.956  0.0126  1.3740 -0.2582
  598MOL0     O78851  11.770   7.400   9.738  0.5565  0.2450  0.7627
  598MOL0     C78852  11.601   7.094   9.837 -0.0874 -0.3299 -0.2088
  598MOL0     C78853  11.485   7.022   9.814  0.2228  1.0581  1.0239
  598MOL0     N78854  10.861   6.661   9.633  0.0404 -0.2610 -0.2312
  598MOL0     N78855  10.866   6.559   9.550  0.6959 -0.8796  0.1720
  598MOL0     C78856  10.496   5.935   8.646  0.1224 -0.3333 -0.1507
  598MOL0     C78857  10.367   5.866   8.638  0.1429  0.1195 -0.2348
  598MOL0     C78858   9.979   5.711   8.843 -1.1695 -0.1681 -0.6302
  598MOL0     C78859  10.002   5.574   8.824  0.5824 -0.3654  0.0744
  598MOL0     C78860   9.898   5.480   8.853  0.1022  0.0358 -0.5524
  598MOL0     C78861   9.774   5.526   8.899  0.6709 -0.5288  0.4313
  598MOL0     O78862   9.665   5.443   8.923 -0.2043  0.6974  0.1354
  598MOL0     C78863   9.607   5.451   9.059  0.2683  0.2505  0.6033
  598MOL0     C78864   9.595   5.310   9.117 -0.1034  0.3832 -0.5498
  598MOL0     C78865   9.732   5.264   9.184  0.1999  0.0168 -0.0396
  598MOL0     C78866   9.741   5.108   9.206 -0.1316 -0.9616  1.1471
  598MOL0     C78867   9.876   5.043   9.189  0.3085  0.1279 -0.9640
  598MOL0     C78868   9.988   4.998   9.180 -0.5750  0.4722 -0.2022
  598MOL0     C78869   9.760   5.667   8.926 -0.3792 -0.5711 -0.3888
  598MOL0     C78870   9.862   5.754   8.896  0.1202 -0.1889 -0.2504
  598MOL0     H78871  10.367   5.696   8.936  1.0580  0.0380  0.9448
  598MOL0     H78872  10.612   5.807   8.938  0.7933 -1.2606 -0.4256
  598MOL0     H78873  10.670   6.126   8.661  2.8541  0.9652 -3.0054
  598MOL0     H78874  10.775   6.001   8.607  0.4147 -0.3918 -1.1579
  598MOL0     H78875  10.892   6.207   8.675 -0.0103  0.3325  0.0414
  598MOL0     H78876  10.939   6.089   8.793  0.0209  2.1314  1.1246
  598MOL0     H78877  10.767   6.184   8.950  3.8838 -2.5844 -1.6087
  598MOL0     H78878  10.694   6.277   8.818  0.9436 -1.5141 -3.5274
  598MOL0     H78879  10.980   6.307   8.924 -0.8553 -1.8093 -0.2036
  598MOL0     H78880  10.901   6.425   8.818 -0.6222  0.3110 -0.3881
  598MOL0     H78881  10.746   6.387   9.061  0.1348  0.2594  0.7962
  598MOL0     H78882  10.808   6.534   8.992 -1.3243 -0.7867 -0.3425
  598MOL0     H78883  11.036   6.458   9.091  0.5971 -0.5510  0.5086
  598MOL0     H78884  10.953   6.317   9.156  0.6704 -0.1047 -1.9290
  598MOL0     H78885  10.993   6.481   9.334  0.5065 -3.0624 -0.7881
  598MOL0     H78886  10.943   6.615   9.224  1.2327 -0.8145 -2.4320
  598MOL0     H78887  10.774   6.396   9.357  2.4200  0.3309  0.3260
  598MOL0     H78888  10.716   6.518   9.245  0.2094  0.9892 -0.7375
  598MOL0     H78889  10.725   6.787   9.366  1.5223 -0.6425 -1.2882
  598MOL0     H78890  10.808   6.926   9.718  0.8857 -0.3662 -0.3317
  598MOL0     H78891  10.726   6.961   9.570  1.1115  1.4080  0.7790
  598MOL0     H78892  10.904   7.085   9.564  1.5710 -0.1886  1.0557
  598MOL0     H78893  10.962   6.952   9.462 -1.2301 -0.5288 -1.1343
  598MOL0     H78894  11.021   6.960   9.753 -3.4913 -1.4592 -0.8203
  598MOL0     H78895  11.081   6.845   9.629 -0.3729 -0.8035  0.2348
  598MOL0     H78896  11.160   7.140   9.668  0.0009 -0.1372  2.0999
  598MOL0     H78897  11.198   7.038   9.520  1.0520 -1.4453  0.0978
  598MOL0     H78898  11.365   7.202   9.554 -0.0468  1.6428  1.3234
  598MOL0     H78899  11.587   7.337   9.596 -1.0442  0.7766  0.2586
  598MOL0     H78900  12.015   7.126  10.020  0.9186 -0.9862  1.3876
  598MOL0     H78901  12.214   7.222  10.160  0.1208 -0.5563 -0.3924
  598MOL0     H78902  12.265   7.683  10.169 -1.0025  0.0139 -2.6608
  598MOL0     H78903  12.363   7.594  10.047 -0.3587 -0.9421 -0.1688
  598MOL0     H78904  12.504   7.519  10.251  1.9883  1.4433 -1.5762
  598MOL0     H78905  12.370   7.589  10.354  3.0448 -1.6301  1.5848
  598MOL0     H78906  12.443   7.824  10.262  0.5659  0.6379  0.6237
  598MOL0     H78907  12.571   7.742  10.175  0.0079  0.2479  0.0672
  598MOL0     H78908  12.533   7.697  10.468 -0.3587 -1.0420  0.5796
  598MOL0     H78909  12.667   7.657  10.378 -1.4757 -1.3695 -0.6125
  598MOL0     H78910  12.658   7.920  10.299  0.0377 -0.2483 -0.4539
  598MOL0     H78911  12.764   7.853  10.426 -0.8877 -0.0925  2.7032
  598MOL0     H78912  12.625   7.908  10.597  0.0025  1.3331  1.0971
  598MOL0     H78913  12.490   7.963  10.505 -0.2121  1.2133  0.2876
  598MOL0     H78914  12.669   8.139  10.607  0.4203 -2.0168  0.6427
  598MOL0     H78915  12.757   8.105  10.460 -0.5959  2.8870 -2.4143
  598MOL0     H78916  12.561   8.199  10.325  0.9626  3.5885 -0.6501
  598MOL0     H78917  12.612   8.309  10.457  1.6424 -1.5572  3.0017
  598MOL0     H78918  12.077   7.616  10.035 -1.0360  1.5353 -3.2638
  598MOL0     H78919  11.882   7.514   9.925 -1.1185 -0.5365 -1.2337
  598MOL0     H78920  11.669   7.056   9.913  0.1302 -1.5785 -0.9943
  598MOL0     H78921  11.453   6.936   9.871 -1.1988  0.3556 -0.7394
  598MOL0     H78922  10.528   6.005   8.570 -1.1173  0.6018  0.1704
  598MOL0     H78923  10.300   5.885   8.555 -0.1976  1.3194  0.2999
  598MOL0     H78924  10.098   5.530   8.795  0.7883  0.5488 -0.6797
  598MOL0     H78925   9.917   5.373   8.846 -0.4567 -0.2553  1.7052
  598MOL0     H78926   9.513   5.507   9.057  0.8738  1.3153  1.0145
  598MOL0     H78927   9.664   5.514   9.129  2.1440 -1.8899  1.1362
  598MOL0     H78928   9.514   5.312   9.191  0.4240  2.9401  0.0675
  598MOL0     H78929   9.564   5.245   9.035 -2.7481  3.0069 -1.8263
  598MOL0     H78930   9.739   5.305   9.285  2.0308 -2.0640  0.7537
  598MOL0     H78931   9.815   5.295   9.121 -0.5245  1.7540 -0.1928
  598MOL0     H78932   9.704   5.085   9.307  3.6923  0.0363  2.9945
  598MOL0     H78933   9.680   5.052   9.136 -0.7551  1.0257  0.0162
  598MOL0     H78934  10.086   4.955   9.189 -1.1833 -1.4159 -1.6523
  598MOL0     H78935   9.674   5.719   8.968  0.2513  0.2789 -0.1290
  598MOL0     H78936   9.862   5.859   8.923  1.9632  0.1082 -1.2892
  599MOL0     O78937   9.449   9.810   4.948  0.0914 -0.3337 -0.0755
  599MOL0     C78938   9.500   9.707   4.992  1.0325  0.1699  0.0328
  599MOL0     O78939   9.452   9.581   4.982  0.2707  0.0381  0.2554
  599MOL0     C78940   9.325   9.541   4.945 -0.4961  0.0937  0.2042
  599MOL0     C78941   9.315   9.398   4.942 -0.2312  0.5666 -0.4288
  599MOL0     C78942   9.196   9.340   4.900  0.4558 -1.2922 -1.0497
  599MOL0     C78943   9.085   9.425   4.873 -0.2087  0.2127  1.2009
  599MOL0     O78944   8.970   9.364   4.841 -0.3570  0.3049 -0.4480
  599MOL0     C78945   8.857   9.446   4.810 -0.0573 -0.5491  0.3884
  599MOL0     C78946   8.743   9.352   4.770  0.4089 -0.0536  0.5264
  599MOL0     C78947   8.624   9.430   4.732  0.7042  0.2461 -0.1775
  599MOL0     C78948   8.548   9.472   4.859 -0.0950 -0.2290 -0.5297
  599MOL0     C78949   8.434   9.576   4.831  0.3069 -0.2040 -0.2697
  599MOL0     C78950   8.296   9.516   4.854  0.8342  0.3607 -0.2800
  599MOL0     C78951   8.253   9.398   4.766 -0.1499  0.0178  1.0041
  599MOL0     C78952   8.102   9.367   4.790  0.2325 -0.0237 -0.0939
  599MOL0     N78953   8.026   9.448   4.695  0.5208  0.2759 -0.2538
  599MOL0     C78954   8.009   9.429   4.562  0.3348 -0.7563  0.0199
  599MOL0     C78955   7.920   9.515   4.521  0.0561  0.4098  0.9064
  599MOL0     C78956   7.852   9.514   4.376  0.5895  0.2996  0.2709
  599MOL0     C78957   7.946   9.517   4.249 -0.1024 -0.3442  0.3948
  599MOL0     C78958   8.057   9.623   4.273  0.7101  0.2822 -0.4057
  599MOL0     C78959   8.151   9.634   4.152  0.0905  0.1092 -0.0857
  599MOL0     O78960   8.202   9.762   4.155 -0.1686 -0.0262 -0.1238
  599MOL0     C78961   8.323   9.796   4.212  0.2110  0.4847 -0.1464
  599MOL0     C78962   8.384   9.909   4.158 -0.5077 -0.2615  0.4209
  599MOL0     C78963   8.518   9.923   4.199  0.1008 -0.1945 -0.2299
  599MOL0     C78964   8.588   9.844   4.289 -0.6607  0.6291  0.0461
  599MOL0     C78965   8.726   9.867   4.322 -0.1332 -1.0392  0.1175
  599MOL0     O78966   8.785   9.797   4.429 -0.8291 -0.1232  0.6198
  599MOL0     C78967   8.925   9.795   4.435  0.8820  0.1200 -0.6251
  599MOL0     C78968   9.004   9.767   4.325 -0.2334  0.6008 -0.8114
  599MOL0     C78969   9.141   9.735   4.342 -0.2222 -0.1075  0.8599
  599MOL0     C78970   9.202   9.756   4.465 -0.2282  1.1436  0.2697
  599MOL0     O78971   9.340   9.742   4.470 -0.2004  0.4301  0.8092
  599MOL0     C78972   9.404   9.659   4.578  0.8508 -0.1534 -0.1883
  599MOL0     C78973   9.540   9.712   4.614 -0.1095  0.1799  0.2043
  599MOL0     C78974   9.639   9.602   4.678 -0.1335 -0.6577 -0.2460
  599MOL0     C78975   9.696   9.496   4.583  0.4170 -0.4820  0.3409
  599MOL0     C78976   9.766   9.387   4.669  0.4336  0.4036 -0.4705
  599MOL0     C78977   9.826   9.278   4.573 -0.3625  1.2245 -0.0239
  599MOL0     C78978   9.900   9.175   4.644 -0.4728  0.8202 -0.2768
  599MOL0     C78979  10.045   9.222   4.673 -0.1945 -0.4229 -0.4223
  599MOL0    Cl78980  10.158   9.096   4.702  0.2704 -0.3784  0.3439
  599MOL0     C78981   9.124   9.793   4.574  0.9973 -0.2564  0.3871
  599MOL0     C78982   8.981   9.806   4.563  0.0416 -0.2033  0.7810
  599MOL0     O78983   8.786   9.957   4.251  0.4448  0.8402 -0.3830
  599MOL0     C78984   8.521   9.739   4.348 -0.5644  0.8924  0.1288
  599MOL0     C78985   8.385   9.717   4.309 -0.1635 -0.2332 -0.4720
  599MOL0     N78986   7.874   9.581   4.627  0.3641 -0.0659  0.0615
  599MOL0     N78987   7.940   9.549   4.731 -0.2106 -1.0213 -0.4029
  599MOL0     C78988   9.093   9.563   4.891 -0.4548  0.3465  1.0188
  599MOL0     C78989   9.217   9.625   4.916 -0.1817  0.4319 -1.9275
  599MOL0     C78990   9.635   9.719   5.046 -0.2332 -1.1927  0.8309
  599MOL0     C78991   9.716   9.603   5.050 -0.4904 -0.1594 -0.4698
  599MOL0     C78992   9.842   9.621   5.089 -0.7746  0.1488  0.2322
  599MOL0     C78993   9.901   9.745   5.121 -0.0753 -0.3765  0.1371
  599MOL0     O78994  10.034   9.736   5.150  0.2783  0.1622  0.1572
  599MOL0     C78995  10.103   9.864   5.177  0.8018  0.2480  0.0113
  599MOL0     C78996  10.248   9.836   5.143 -0.7962 -0.4568 -0.2548
  599MOL0     C78997  10.314   9.727   5.226 -0.5157  0.4141  0.2033
  599MOL0     C78998  10.459   9.692   5.191  0.3614  1.0320 -0.2791
  599MOL0     C78999  10.556   9.807   5.193 -0.1355  0.4185  0.3476
  599MOL0     C79000  10.637   9.899   5.201  0.7857 -0.0155  0.4103
  599MOL0     C79001   9.817   9.848   5.136  0.1413 -0.1278 -0.5276
  599MOL0     C79002   9.683   9.839   5.097 -0.5305  0.2179  0.2641
  599MOL0     H79003   9.391   9.332   4.982 -1.4800  0.3820  1.8253
  599MOL0     H79004   9.174   9.234   4.910 -1.3063 -0.7898  1.6739
  599MOL0     H79005   8.879   9.519   4.731  0.2790  1.5567  2.3479
  599MOL0     H79006   8.825   9.502   4.897  1.1369 -0.3212  0.6952
  599MOL0     H79007   8.720   9.285   4.853  1.7276 -1.6408 -0.3408
  599MOL0     H79008   8.777   9.286   4.690  0.5938  0.3585  0.2623
  599MOL0     H79009   8.554   9.380   4.664 -0.1805  0.5491  0.4756
  599MOL0     H79010   8.646   9.524   4.681 -0.9622 -0.1683 -1.7922
  599MOL0     H79011   8.513   9.387   4.919  0.5874 -0.4497 -0.4342
  599MOL0     H79012   8.616   9.530   4.922  0.9197  3.0895 -4.3384
  599MOL0     H79013   8.438   9.638   4.742 -2.4186  0.8613  0.2563
  599MOL0     H79014   8.441   9.656   4.905  2.4038 -0.1943 -0.4337
  599MOL0     H79015   8.222   9.596   4.842  0.3201  0.7597  3.9255
  599MOL0     H79016   8.275   9.483   4.957 -0.0560  0.7023 -0.3398
  599MOL0     H79017   8.271   9.409   4.659 -1.7490 -0.9437  0.5939
  599MOL0     H79018   8.304   9.310   4.806 -1.1830 -0.8788  0.4061
  599MOL0     H79019   8.086   9.378   4.898 -0.5892  2.0868 -0.3781
  599MOL0     H79020   8.083   9.262   4.770 -1.0142  0.4476 -1.5173
  599MOL0     H79021   8.058   9.350   4.506  1.7316 -0.2889  0.5209
  599MOL0     H79022   7.778   9.595   4.368  2.4666  1.9130 -2.2430
  599MOL0     H79023   7.789   9.426   4.361 -4.0666  3.5030 -1.1302
  599MOL0     H79024   7.880   9.547   4.167  0.0084  0.4046  0.5705
  599MOL0     H79025   8.000   9.422   4.242 -0.5640 -0.6448  0.8592
  599MOL0     H79026   8.013   9.722   4.291  2.0304  0.8991 -0.4717
  599MOL0     H79027   8.121   9.602   4.358 -0.6837  1.0195  0.8700
  599MOL0     H79028   8.094   9.612   4.061 -1.2247  0.8138  0.5434
  599MOL0     H79029   8.221   9.550   4.146  0.5574  0.5634 -1.5481
  599MOL0     H79030   8.333   9.969   4.083 -0.5911  1.8431  2.0670
  599MOL0     H79031   8.571   9.999   4.143  3.8909 -2.0994  0.5079
  599MOL0     H79032   8.948   9.751   4.233  0.2450 -0.6493 -0.8963
  599MOL0     H79033   9.207   9.702   4.262 -0.8190  0.5040  0.0956
  599MOL0     H79034   9.425   9.560   4.536  2.9783 -0.5460  1.5826
  599MOL0     H79035   9.343   9.639   4.667  0.0983 -1.1974 -0.9202
  599MOL0     H79036   9.535   9.802   4.675  2.8203  1.7113 -1.5978
  599MOL0     H79037   9.574   9.743   4.515 -5.1497 -0.1553 -1.9690
  599MOL0     H79038   9.592   9.557   4.766 -1.5025 -0.2488 -0.7421
  599MOL0     H79039   9.725   9.656   4.718  0.3435 -0.6942 -1.2016
  599MOL0     H79040   9.614   9.452   4.525  0.3475 -0.1936  0.2199
  599MOL0     H79041   9.768   9.541   4.515 -0.1873 -1.7654 -1.2039
  599MOL0     H79042   9.695   9.334   4.734  0.7492  2.3611  1.5919
  599MOL0     H79043   9.847   9.429   4.730  1.3564 -0.4905 -1.0557
  599MOL0     H79044   9.887   9.328   4.497  1.0173  2.1374  1.6223
  599MOL0     H79045   9.740   9.226   4.529  0.9835 -0.8434 -0.3339
  599MOL0     H79046   9.862   9.154   4.744  1.1693 -1.7431 -0.0928
  599MOL0     H79047   9.898   9.085   4.581 -1.3448  2.7570 -3.1964
  599MOL0     H79048  10.048   9.296   4.754  1.1829 -1.0532  0.1433
  599MOL0     H79049  10.069   9.266   4.576  0.4776 -1.6410 -0.8284
  599MOL0     H79050   9.177   9.810   4.666  0.3437  1.6089  0.4581
  599MOL0     H79051   8.909   9.830   4.641  0.0112  0.5291  0.5399
  599MOL0     H79052   8.573   9.675   4.419 -0.3763 -0.3765 -1.1229
  599MOL0     H79053   8.332   9.629   4.343 -2.3668  0.9396 -0.6918
  599MOL0     H79054   9.008   9.627   4.872  0.0415  1.0732  1.2285
  599MOL0     H79055   9.212   9.733   4.907 -2.7289  0.6655  0.7178
  599MOL0     H79056   9.683   9.503   5.025  0.3070 -1.2101  2.3353
  599MOL0     H79057   9.909   9.537   5.073  0.0182  0.2301  2.7193
  599MOL0     H79058  10.081   9.888   5.281 -2.3354  0.8964 -0.7049
  599MOL0     H79059  10.067   9.941   5.109  1.2090  0.8081  0.4272
  599MOL0     H79060  10.250   9.802   5.039  0.9213 -0.5192 -0.2330
  599MOL0     H79061  10.314   9.923   5.152 -0.8057 -0.4770  0.0276
  599MOL0     H79062  10.260   9.631   5.219 -1.5098  0.9791 -0.0881
  599MOL0     H79063  10.313   9.759   5.331  2.0102 -1.4809  0.9076
  599MOL0     H79064  10.489   9.618   5.266 -0.0243  1.7793  0.6347
  599MOL0     H79065  10.455   9.651   5.090 -2.2936  4.8899 -1.9735
  599MOL0     H79066  10.705   9.979   5.224 -1.0143  1.1288  2.0750
  599MOL0     H79067   9.848   9.947   5.167 -2.3267  0.6949 -0.4659
  599MOL0     H79068   9.615   9.923   5.095 -1.1067 -0.2462  0.2330
  600MOL0     O79069  10.203   2.368   7.821  0.0745  0.0354 -0.3826
  600MOL0     C79070  10.272   2.319   7.913 -0.1083 -0.6189  0.3387
  600MOL0     O79071  10.230   2.218   8.002  0.1499 -0.1494  1.0273
  600MOL0     C79072  10.108   2.160   7.979 -0.5817  1.0510  0.5999
  600MOL0     C79073  10.085   2.076   7.872 -0.1215 -0.6980  0.5430
  600MOL0     C79074   9.960   2.006   7.852  0.1837  0.6944 -0.8425
  600MOL0     C79075   9.868   2.015   7.961 -0.6198 -0.3717  0.3299
  600MOL0     O79076   9.751   1.943   7.960 -0.2696  0.1090  0.1666
  600MOL0     C79077   9.695   1.920   7.829 -0.0936 -0.0963 -0.3312
  600MOL0     C79078   9.542   1.894   7.835  0.7065  0.1023  0.0188
  600MOL0     C79079   9.499   1.827   7.704 -0.2994  0.2251  0.1044
  600MOL0     C79080   9.358   1.855   7.675 -0.2353  0.0877  0.8045
  600MOL0     C79081   9.299   1.767   7.576  0.3565  0.7118 -0.3263
  600MOL0     C79082   9.144   1.802   7.564 -0.5486 -0.4076 -0.0062
  600MOL0     C79083   9.063   1.677   7.520  0.0451  0.3784 -0.2758
  600MOL0     C79084   8.908   1.704   7.514 -0.5583  1.1129 -0.4199
  600MOL0     N79085   8.860   1.712   7.376  0.1218  0.6532  0.1734
  600MOL0     C79086   8.817   1.609   7.299 -0.0139  0.3410 -0.0664
  600MOL0     C79087   8.793   1.667   7.177 -0.9749  0.7196  0.0971
  600MOL0     C79088   8.736   1.602   7.051  0.2977  0.1699 -0.3876
  600MOL0     C79089   8.594   1.549   7.090  0.2085  0.0442 -0.7601
  600MOL0     C79090   8.478   1.635   7.048  0.0869 -0.3246 -0.4922
  600MOL0     C79091   8.348   1.602   7.119  0.6708 -0.4070 -0.5412
  600MOL0     O79092   8.361   1.639   7.260 -0.1381  0.4049 -0.3106
  600MOL0     C79093   8.257   1.652   7.348 -0.4138  0.5791  0.7702
  600MOL0     C79094   8.274   1.693   7.475 -0.2916 -1.4485  0.6071
  600MOL0     C79095   8.163   1.694   7.569 -0.6080 -0.1383  0.3066
  600MOL0     C79096   8.037   1.655   7.517  0.2797  0.2034 -0.6837
  600MOL0     C79097   7.914   1.648   7.617  0.5545 -0.5545  1.2174
  600MOL0     O79098   7.800   1.599   7.580  0.3661 -0.0333  0.1293
  600MOL0     C79099   7.699   1.572   7.675  0.3529  0.1956 -0.4133
  600MOL0     C79100   7.565   1.605   7.641  0.6149  0.0980 -0.8997
  600MOL0     C79101   7.457   1.586   7.738  0.1440 -0.4955 -0.1429
  600MOL0     C79102   7.480   1.526   7.865 -0.3175  0.5875  0.6470
  600MOL0     O79103   7.375   1.513   7.957 -0.0524  0.4732  0.4400
  600MOL0     C79104   7.235   1.514   7.908  0.1887 -0.2049  0.3393
  600MOL0     C79105   7.150   1.450   8.017 -0.0810  0.9143  0.3551
  600MOL0     C79106   7.014   1.421   7.962 -1.0077  0.3047 -0.2591
  600MOL0     C79107   6.903   1.418   8.063 -0.3793  0.1767  0.0815
  600MOL0     C79108   6.771   1.390   7.991 -0.9423 -0.6701 -0.4622
  600MOL0     C79109   6.656   1.402   8.094 -0.0921 -0.6496  0.0660
  600MOL0     C79110   6.519   1.406   8.028 -0.0723 -0.4308 -0.4261
  600MOL0     C79111   6.401   1.451   8.121 -0.4895  0.3300 -0.9029
  600MOL0    Cl79112   6.400   1.627   8.141  0.0790  0.3585 -0.3764
  600MOL0     C79113   7.616   1.483   7.887 -0.1217 -0.1970 -0.4740
  600MOL0     C79114   7.721   1.518   7.799  0.6480 -0.0729 -0.1122
  600MOL0     O79115   7.939   1.693   7.725 -0.0175  0.0710 -0.2922
  600MOL0     C79116   8.016   1.622   7.379  0.2860 -0.9996 -0.5352
  600MOL0     C79117   8.129   1.619   7.302 -0.2533  0.2972  0.1250
  600MOL0     N79118   8.826   1.799   7.182  0.4077 -0.1207  0.8299
  600MOL0     N79119   8.862   1.827   7.302 -0.7672 -0.0523  0.4921
  600MOL0     C79120   9.894   2.089   8.069 -0.9206  0.1913  0.2231
  600MOL0     C79121  10.014   2.156   8.078  0.0114 -0.1875 -0.4651
  600MOL0     C79122  10.426   2.356   7.924  0.2173  0.4330  0.5315
  600MOL0     C79123  10.502   2.290   8.018  0.6598 -0.9485 -0.4717
  600MOL0     C79124  10.637   2.317   8.032  0.5669  0.6866  0.2720
  600MOL0     C79125  10.693   2.424   7.952  0.2578 -0.1386  0.2839
  600MOL0     O79126  10.827   2.469   7.963  0.0232  0.1406  0.4687
  600MOL0     C79127  10.917   2.415   8.061  0.1010  0.7462  0.3040
  600MOL0     C79128  11.063   2.465   8.034  0.3271 -0.6042  0.5953
  600MOL0     C79129  11.121   2.415   7.902  0.2577 -0.1724  0.1190
  600MOL0     C79130  11.212   2.524   7.839  0.6602  0.4714  0.0519
  600MOL0     C79131  11.337   2.532   7.907  0.3474  0.3100 -0.0512
  600MOL0     C79132  11.443   2.545   7.967 -0.1294  0.5606 -0.4333
  600MOL0     C79133  10.610   2.493   7.862  0.5607 -0.0260  0.4101
  600MOL0     C79134  10.476   2.452   7.834 -0.1625 -0.4880  0.2920
  600MOL0     H79135  10.167   2.063   7.802 -0.7943  3.2758 -1.2406
  600MOL0     H79136   9.963   1.944   7.764  0.5402  0.6868 -0.8263
  600MOL0     H79137   9.744   1.828   7.797 -0.4007 -0.6679  0.7722
  600MOL0     H79138   9.722   2.002   7.761  0.2870  0.3908  0.3988
  600MOL0     H79139   9.481   1.985   7.839 -2.3670 -1.7951 -0.6838
  600MOL0     H79140   9.516   1.831   7.921 -1.7467 -0.5491 -1.1286
  600MOL0     H79141   9.521   1.720   7.708 -2.8871 -0.3527  0.8998
  600MOL0     H79142   9.555   1.866   7.618 -0.4695 -0.3233 -0.2612
  600MOL0     H79143   9.303   1.855   7.770 -1.2595  4.9292  0.4636
  600MOL0     H79144   9.358   1.956   7.633  2.3101 -1.0240 -2.2769
  600MOL0     H79145   9.303   1.661   7.602 -1.1702  0.4811 -0.9394
  600MOL0     H79146   9.347   1.774   7.478 -0.1305 -1.6507 -0.7992
  600MOL0     H79147   9.128   1.882   7.491 -0.3371  1.2662  1.7070
  600MOL0     H79148   9.110   1.848   7.657  2.8861  3.4164 -0.3303
  600MOL0     H79149   9.099   1.657   7.419 -0.6806  0.8563 -0.6394
  600MOL0     H79150   9.070   1.595   7.592 -2.4212  0.0176 -0.3668
  600MOL0     H79151   8.890   1.801   7.561 -3.6347  0.3493  0.2218
  600MOL0     H79152   8.849   1.629   7.568 -0.3686  0.9127 -0.4901
  600MOL0     H79153   8.786   1.514   7.339  2.0774  0.1845  1.3392
  600MOL0     H79154   8.796   1.518   7.017 -0.1453  0.0776 -0.9707
  600MOL0     H79155   8.736   1.681   6.975 -1.8519  0.3570 -0.2680
  600MOL0     H79156   8.599   1.519   7.195  1.6442 -2.3666 -1.4395
  600MOL0     H79157   8.586   1.457   7.031 -0.5285  0.1304 -0.7953
  600MOL0     H79158   8.499   1.742   7.062  1.3188 -0.5007 -0.8333
  600MOL0     H79159   8.471   1.615   6.941  2.0479 -1.7225 -0.4133
  600MOL0     H79160   8.315   1.498   7.107  1.9471 -1.1719  1.7681
  600MOL0     H79161   8.287   1.674   7.065  4.2803  3.0447 -0.4910
  600MOL0     H79162   8.375   1.719   7.503  0.2643 -0.2775 -2.1363
  600MOL0     H79163   8.165   1.730   7.672 -2.3014 -1.8227  0.9771
  600MOL0     H79164   7.548   1.640   7.540  1.0782 -0.2047 -1.0818
  600MOL0     H79165   7.361   1.628   7.711  1.2935  3.7864  1.5329
  600MOL0     H79166   7.218   1.462   7.813 -1.4935 -3.2775  2.1770
  600MOL0     H79167   7.215   1.621   7.892 -1.0510 -0.6757 -1.6053
  600MOL0     H79168   7.152   1.508   8.110  3.0819  1.9459 -0.2556
  600MOL0     H79169   7.194   1.353   8.043 -0.6473  1.1027  2.1975
  600MOL0     H79170   7.011   1.326   7.908  0.0680 -0.7717  1.4489
  600MOL0     H79171   6.995   1.505   7.894 -3.1833  2.0343  2.2728
  600MOL0     H79172   6.927   1.341   8.137 -0.4988  1.4329  1.4820
  600MOL0     H79173   6.890   1.517   8.107 -0.3636 -0.1630  0.8722
  600MOL0     H79174   6.777   1.288   7.953  0.5937 -0.5183 -0.6877
  600MOL0     H79175   6.763   1.458   7.905 -3.4639  1.6519  1.4431
  600MOL0     H79176   6.673   1.487   8.161  1.9708 -1.2218  0.3383
  600MOL0     H79177   6.664   1.317   8.162  1.3601 -0.6464 -0.0745
  600MOL0     H79178   6.526   1.477   7.946 -0.1584 -0.7959 -0.7552
  600MOL0     H79179   6.499   1.306   7.986  1.2221 -0.4085 -1.1560
  600MOL0     H79180   6.407   1.413   8.223 -0.4578 -2.4244 -1.8274
  600MOL0     H79181   6.304   1.421   8.081 -1.4683  0.4600  1.2721
  600MOL0     H79182   7.631   1.445   7.988 -4.5226  1.3815  1.0467
  600MOL0     H79183   7.820   1.488   7.831  0.3411 -1.7640 -0.6205
  600MOL0     H79184   7.916   1.609   7.339  0.1297 -0.8256 -0.2025
  600MOL0     H79185   8.118   1.585   7.200  0.2294  1.7377 -0.4290
  600MOL0     H79186   9.827   2.082   8.154 -1.5369 -1.2255 -0.3432
  600MOL0     H79187  10.026   2.210   8.172 -0.5426 -2.4842  1.0183
  600MOL0     H79188  10.465   2.226   8.097  1.1750 -2.6062 -1.5283
  600MOL0     H79189  10.697   2.257   8.101 -2.1133 -1.0159  1.2846
  600MOL0     H79190  10.913   2.306   8.060 -0.1535  0.7140  2.1480
  600MOL0     H79191  10.890   2.453   8.160 -0.8126  0.5167  0.1588
  600MOL0     H79192  11.062   2.574   8.039 -1.6577 -0.6335  3.0870
  600MOL0     H79193  11.126   2.432   8.117  0.6745  3.6673  2.2819
  600MOL0     H79194  11.042   2.382   7.835  0.2006  1.5966 -0.7255
  600MOL0     H79195  11.183   2.326   7.920  1.3574  0.1302 -1.8917
  600MOL0     H79196  11.236   2.500   7.735  4.3541  1.3885  0.5375
  600MOL0     H79197  11.163   2.622   7.835 -2.1359 -0.8435 -0.3043
  600MOL0     H79198  11.529   2.544   8.031 -3.1528  1.6957  4.1941
  600MOL0     H79199  10.649   2.579   7.809  0.9081 -0.1698  0.4261
  600MOL0     H79200  10.420   2.516   7.767  1.6256  3.0854  1.9101
  601MOL0     O79201   1.648   0.932   0.223  0.7140 -0.5107 -0.2379
  601MOL0     C79202   1.603   0.987   0.116 -0.6016  0.4166  0.3803
  601MOL0     O79203   1.476   0.988   0.078  0.2332  0.3219 -0.0681
  601MOL0     C79204   1.377   0.970   0.176  0.0920  0.0294 -0.1427
  601MOL0     C79205   1.386   1.006   0.313 -0.6551  0.9631  0.3992
  601MOL0     C79206   1.277   0.992   0.404  0.5190 -0.8231  0.4984
  601MOL0     C79207   1.152   0.950   0.352 -0.7026 -0.0154  0.4429
  601MOL0     O79208   1.047   0.934   0.431 -0.4217 -0.3135  0.0835
  601MOL0     C79209   1.045   0.981   0.570 -0.4015  0.8847 -0.2129
  601MOL0     C79210   0.906   0.962   0.630 -0.1352 -0.4198  0.4272
  601MOL0     C79211   0.799   1.040   0.558 -0.1117 -0.4230  0.3814
  601MOL0     C79212   0.668   1.009   0.632 -0.0321 -0.1747  0.4707
  601MOL0     C79213   0.530   1.070   0.583  0.3387  0.1326  0.5362
  601MOL0     C79214   0.419   0.997   0.663 -0.1145  0.4214 -0.6770
  601MOL0     C79215   0.282   1.046   0.624  0.6642 -0.6393 -0.1536
  601MOL0     C79216   0.162   0.985   0.702  0.7823  0.3616 -0.5644
  601MOL0     N79217   0.133   0.841   0.664 -0.1486 -0.1219 -0.3661
  601MOL0     C79218   0.074   0.812   0.546 -0.1431 -0.3537  0.2416
  601MOL0     C79219   0.037   0.685   0.564  0.6471 -0.0541  0.1368
  601MOL0     C79220  -0.021   0.594   0.454  0.2448 -0.3929  0.4394
  601MOL0     C79221   0.089   0.549   0.360  0.0297  0.4077  0.4705
  601MOL0     C79222   0.042   0.432   0.276 -0.0860 -0.5386 -0.4721
  601MOL0     C79223  -0.089   0.456   0.208  0.2265  0.8250  0.3778
  601MOL0     O79224  -0.205   0.437   0.294 -0.0202 -0.1917 -0.0305
  601MOL0     C79225  -0.329   0.463   0.252 -0.9422  0.3009  1.4388
  601MOL0     C79226  -0.426   0.492   0.339  0.0430  0.2114 -0.5689
  601MOL0     C79227  -0.559   0.507   0.310 -0.5582 -0.9565 -0.7138
  601MOL0     C79228  -0.603   0.491   0.176 -0.4245 -0.4218 -0.2422
  601MOL0     C79229  -0.741   0.512   0.144 -0.0845 -0.4756  0.4440
  601MOL0     O79230  -0.829   0.532   0.247 -0.9863 -0.3554 -0.3650
  601MOL0     C79231  -0.956   0.564   0.222  0.3408  0.7685 -0.3460
  601MOL0     C79232  -0.998   0.702   0.217 -0.9416 -0.2723  0.1221
  601MOL0     C79233  -1.128   0.743   0.185 -0.6079  0.0161  0.1688
  601MOL0     C79234  -1.223   0.645   0.165  0.5202 -0.8991  0.4294
  601MOL0     O79235  -1.346   0.691   0.128 -0.7157  0.4775 -0.9545
  601MOL0     C79236  -1.352   0.755   0.003  0.2200  0.6031 -0.3465
  601MOL0     C79237  -1.492   0.809  -0.016 -0.1874 -0.5721  0.1436
  601MOL0     C79238  -1.577   0.685  -0.035 -0.4523  0.0049  0.5757
  601MOL0     C79239  -1.722   0.717  -0.076 -0.1015  0.1883  0.2084
  601MOL0     C79240  -1.790   0.577  -0.104 -0.0034  0.0863  0.1303
  601MOL0     C79241  -1.924   0.594  -0.166  0.5524  0.0173 -0.7594
  601MOL0     C79242  -1.986   0.456  -0.168 -0.5235  0.1507  0.2847
  601MOL0     C79243  -2.104   0.454  -0.271 -1.7609  0.4745 -0.1197
  601MOL0    Cl79244  -2.253   0.524  -0.211  0.2911 -0.6223 -0.0758
  601MOL0     C79245  -1.187   0.508   0.177 -0.2911  0.5670  0.6407
  601MOL0     C79246  -1.056   0.463   0.188 -0.5072  0.2659 -0.7756
  601MOL0     O79247  -0.774   0.503   0.024  0.1852 -0.4203 -0.4387
  601MOL0     C79248  -0.499   0.458   0.084 -0.0618 -0.8513 -0.4532
  601MOL0     C79249  -0.366   0.451   0.123 -0.0496 -0.2270 -0.5117
  601MOL0     N79250   0.075   0.645   0.697  0.1894  0.5153 -0.0549
  601MOL0     N79251   0.138   0.737   0.749 -0.0504  0.2663 -1.3007
  601MOL0     C79252   1.138   0.918   0.215 -0.1771  0.0204 -0.2335
  601MOL0     C79253   1.250   0.931   0.128  0.3592 -0.5300  0.3240
  601MOL0     C79254   1.709   1.036   0.019 -0.2134 -0.5230  0.5749
  601MOL0     C79255   1.842   1.045   0.063 -0.5802  0.4312 -0.7240
  601MOL0     C79256   1.940   1.098  -0.027  0.0500  0.2782  0.2297
  601MOL0     C79257   1.911   1.127  -0.156 -0.6761  0.0535 -1.1135
  601MOL0     O79258   2.011   1.186  -0.232  0.4777 -0.1140  0.3858
  601MOL0     C79259   2.044   1.129  -0.360 -0.7881  0.5712  0.7873
  601MOL0     C79260   2.203   1.128  -0.373 -0.8490  0.2414 -0.7004
  601MOL0     C79261   2.289   1.081  -0.252  0.2733  0.6163 -0.5245
  601MOL0     C79262   2.308   1.201  -0.149 -0.1460 -0.5122 -0.5513
  601MOL0     C79263   2.313   1.157  -0.012 -0.3387 -0.8005 -0.0846
  601MOL0     C79264   2.314   1.111   0.099  0.1009  0.2504 -0.1710
  601MOL0     C79265   1.779   1.110  -0.202  0.3844  0.7168 -0.2649
  601MOL0     C79266   1.680   1.071  -0.115  0.2741 -0.3803 -0.5270
  601MOL0     H79267   1.470   1.060   0.354 -2.6586  3.6370  1.2904
  601MOL0     H79268   1.292   1.009   0.510 -0.8048  0.1837  0.5541
  601MOL0     H79269   1.075   1.086   0.583  1.5768  0.3470 -0.1339
  601MOL0     H79270   1.114   0.920   0.629 -1.0114  1.3967  1.0547
  601MOL0     H79271   0.900   0.993   0.735  0.9480 -1.2086  0.7370
  601MOL0     H79272   0.878   0.856   0.626 -0.5655 -0.3542  1.3437
  601MOL0     H79273   0.781   1.002   0.456 -1.3229  1.1038 -0.0183
  601MOL0     H79274   0.804   1.148   0.548  1.9890 -0.4987  0.1854
  601MOL0     H79275   0.659   0.900   0.636  0.6257 -0.3183 -1.1887
  601MOL0     H79276   0.676   1.051   0.733  1.9073 -0.4070  0.4481
  601MOL0     H79277   0.515   1.029   0.483 -0.0479 -2.4824  1.5985
  601MOL0     H79278   0.517   1.179   0.582 -1.9234 -0.0975 -0.1595
  601MOL0     H79279   0.449   1.013   0.767  3.6396  0.1416 -1.5545
  601MOL0     H79280   0.418   0.890   0.640 -1.8624  0.0622  0.8402
  601MOL0     H79281   0.281   1.153   0.646  2.0615 -0.6705  0.1648
  601MOL0     H79282   0.272   1.028   0.517 -1.3054 -1.1760  0.0788
  601MOL0     H79283   0.076   1.053   0.705 -0.6603 -1.3872  0.1405
  601MOL0     H79284   0.193   0.982   0.807  0.2873  0.6026 -0.4040
  601MOL0     H79285   0.048   0.878   0.463  0.6576 -0.8103 -0.3836
  601MOL0     H79286  -0.099   0.648   0.399  0.6208  1.2358  1.4248
  601MOL0     H79287  -0.068   0.503   0.494  0.9818 -2.3942 -2.8834
  601MOL0     H79288   0.178   0.518   0.415 -0.0306  1.4625  1.2070
  601MOL0     H79289   0.128   0.626   0.293  2.6808 -1.9302 -0.8703
  601MOL0     H79290   0.116   0.417   0.197  1.2842  1.7178  0.2829
  601MOL0     H79291   0.039   0.341   0.335 -0.2792 -0.5858 -0.5533
  601MOL0     H79292  -0.094   0.374   0.135  2.2325  1.0033 -0.0036
  601MOL0     H79293  -0.097   0.549   0.151 -2.8706  0.5713  0.2082
  601MOL0     H79294  -0.403   0.502   0.445  1.2022 -1.1729 -0.6534
  601MOL0     H79295  -0.626   0.543   0.387  1.1146 -0.2346  0.4561
  601MOL0     H79296  -0.923   0.775   0.245 -1.6029 -0.3412  2.3270
  601MOL0     H79297  -1.162   0.846   0.180  0.1375  0.2538 -0.0044
  601MOL0     H79298  -1.323   0.683  -0.074  1.7557 -1.4269  1.9664
  601MOL0     H79299  -1.286   0.842   0.000  0.5428  0.6003  2.8656
  601MOL0     H79300  -1.501   0.870  -0.107 -1.3530  2.9022  2.3684
  601MOL0     H79301  -1.527   0.864   0.072 -0.3168 -0.0314 -0.2416
  601MOL0     H79302  -1.577   0.631   0.060 -0.0861  3.6984  2.9160
  601MOL0     H79303  -1.534   0.637  -0.123  0.4608  2.2013 -0.2611
  601MOL0     H79304  -1.759   0.771   0.011  0.3113 -2.3039  2.0468
  601MOL0     H79305  -1.726   0.781  -0.164  2.7392 -1.0163 -0.9212
  601MOL0     H79306  -1.791   0.523  -0.009  0.0331  1.1026  0.7293
  601MOL0     H79307  -1.728   0.526  -0.178  0.0159 -0.7672  0.7226
  601MOL0     H79308  -1.910   0.643  -0.263  1.7822 -0.3115 -0.7650
  601MOL0     H79309  -1.979   0.664  -0.103  0.7607  1.0408 -1.6959
  601MOL0     H79310  -1.911   0.386  -0.207  0.4061  0.0270  2.1941
  601MOL0     H79311  -2.024   0.422  -0.072 -0.1096  0.3476  0.5223
  601MOL0     H79312  -2.138   0.352  -0.294  3.3862 -1.3101 -0.9824
  601MOL0     H79313  -2.080   0.496  -0.369 -0.8215 -1.5894 -0.8172
  601MOL0     H79314  -1.267   0.435   0.171  1.7701 -1.7739 -0.5986
  601MOL0     H79315  -1.034   0.357   0.184 -1.0725  0.1852 -3.7617
  601MOL0     H79316  -0.522   0.462  -0.022 -0.8874  4.1356 -0.3157
  601MOL0     H79317  -0.291   0.441   0.045  1.6436 -0.2702  1.0443
  601MOL0     H79318   1.044   0.878   0.178  0.3895  0.7455 -2.5942
  601MOL0     H79319   1.226   0.911   0.025  0.1667  0.5803  0.1383
  601MOL0     H79320   1.861   1.027   0.168 -0.1472  0.5257 -0.7806
  601MOL0     H79321   2.045   1.106   0.000  0.3588  0.4972 -0.9750
  601MOL0     H79322   1.999   1.192  -0.438 -1.8120 -1.6738 -0.5289
  601MOL0     H79323   2.004   1.028  -0.369  1.1037 -0.0563 -1.7482
  601MOL0     H79324   2.217   1.046  -0.444  1.8025 -1.1584  1.2379
  601MOL0     H79325   2.240   1.221  -0.417  1.7253 -0.4611 -0.1819
  601MOL0     H79326   2.390   1.052  -0.282 -0.2124 -2.8495  0.7390
  601MOL0     H79327   2.239   0.995  -0.207  3.6706 -0.0029  2.5944
  601MOL0     H79328   2.397   1.255  -0.181 -0.2833  0.5793  0.8013
  601MOL0     H79329   2.229   1.276  -0.156 -0.9256 -1.1922  0.5043
  601MOL0     H79330   2.336   1.078   0.198 -0.3698  0.5398  0.0348
  601MOL0     H79331   1.756   1.128  -0.306  2.1205  1.0410 -0.6297
  601MOL0     H79332   1.578   1.051  -0.146  0.7925 -0.7346 -2.1029
  602MOL0     O79333   1.517   2.057   2.364 -0.1142  0.6615 -0.1436
  602MOL0     C79334   1.534   2.162   2.299  1.1618 -0.2184  0.6248
  602MOL0     O79335   1.454   2.217   2.201 -0.3712 -0.1680 -0.0901
  602MOL0     C79336   1.366   2.133   2.146  0.5974  0.0152  0.6064
  602MOL0     C79337   1.236   2.134   2.194  0.4889 -0.2165  0.4670
  602MOL0     C79338   1.146   2.035   2.149 -1.3344 -0.4710 -0.0712
  602MOL0     C79339   1.183   1.937   2.065  0.4507  0.4620 -0.2232
  602MOL0     O79340   1.093   1.838   2.035  0.7011  0.1695  0.1941
  602MOL0     C79341   1.116   1.755   1.919 -0.8552  0.1880  0.5103
  602MOL0     C79342   1.162   1.618   1.972  0.0571 -0.1906  0.0904
  602MOL0     C79343   1.205   1.532   1.859 -0.2840  0.1984  0.1023
  602MOL0     C79344   1.274   1.409   1.899  0.4343  1.1705  0.4597
  602MOL0     C79345   1.297   1.308   1.798  0.6908  0.2576 -0.4583
  602MOL0     C79346   1.372   1.186   1.850 -0.6418  0.7026 -0.0013
  602MOL0     C79347   1.425   1.108   1.728  0.3352 -0.3327 -0.0167
  602MOL0     C79348   1.463   0.960   1.750  0.3861  0.0751  0.7053
  602MOL0     N79349   1.339   0.875   1.748 -0.5228 -0.1485  0.6821
  602MOL0     C79350   1.210   0.891   1.797  0.4556  0.0849 -0.7824
  602MOL0     C79351   1.131   0.784   1.763  0.4968  0.0716 -0.2552
  602MOL0     C79352   0.987   0.768   1.790  0.3277 -0.1658 -0.4830
  602MOL0     C79353   0.954   0.677   1.915 -0.5763 -0.1440 -0.3000
  602MOL0     C79354   0.990   0.523   1.900  0.3019 -0.3265  0.8720
  602MOL0     C79355   0.918   0.438   1.800  0.0626 -0.9556 -0.2119
  602MOL0     O79356   0.779   0.467   1.798 -0.3878  0.5106 -0.1697
  602MOL0     C79357   0.695   0.390   1.717  0.4428 -0.1319  0.6955
  602MOL0     C79358   0.555   0.400   1.746 -0.1339 -0.4608  0.0606
  602MOL0     C79359   0.468   0.313   1.677  0.2547  0.1020  0.9695
  602MOL0     C79360   0.507   0.237   1.566 -0.1930  0.3102 -0.4497
  602MOL0     C79361   0.411   0.158   1.492 -0.2131  0.6127  1.1302
  602MOL0     O79362   0.281   0.179   1.524  0.1814 -0.4540  0.3466
  602MOL0     C79363   0.177   0.091   1.481 -0.6464 -1.1277 -0.0860
  602MOL0     C79364   0.044   0.137   1.509  0.1641  1.2421  0.5547
  602MOL0     C79365  -0.067   0.059   1.472  0.3120  0.7063  0.2249
  602MOL0     C79366  -0.057  -0.063   1.401 -0.0695 -0.3739 -0.0331
  602MOL0     O79367  -0.155  -0.148   1.375 -0.1896 -0.4350 -0.4588
  602MOL0     C79368  -0.294  -0.109   1.373 -1.1073 -0.1511 -0.7287
  602MOL0     C79369  -0.363  -0.215   1.295  0.0450  0.5708 -0.6241
  602MOL0     C79370  -0.510  -0.208   1.311  0.0718 -0.0587  0.1503
  602MOL0     C79371  -0.554  -0.252   1.456  0.9471  0.0044 -0.0504
  602MOL0     C79372  -0.699  -0.293   1.462 -0.1819  0.7477 -0.5260
  602MOL0     C79373  -0.802  -0.195   1.408 -0.8218  0.3057  0.4303
  602MOL0     C79374  -0.943  -0.254   1.429  0.4174 -0.1824  0.1409
  602MOL0     C79375  -1.053  -0.172   1.354  1.1070  0.1309 -0.0456
  602MOL0    Cl79376  -1.062  -0.171   1.174  0.1490 -0.2422  0.0471
  602MOL0     C79377   0.075  -0.100   1.367  0.4063 -0.4993 -0.2685
  602MOL0     C79378   0.192  -0.022   1.416  0.1696  0.3949  0.0930
  602MOL0     O79379   0.451   0.087   1.395 -0.2954 -0.1662 -0.5181
  602MOL0     C79380   0.648   0.229   1.547 -0.0673 -0.5294  1.0337
  602MOL0     C79381   0.740   0.298   1.624  0.1267 -0.6110 -0.4285
  602MOL0     N79382   1.222   0.702   1.689  0.3152 -0.7816 -0.5901
  602MOL0     N79383   1.333   0.761   1.681  0.3542 -0.5873  0.2552
  602MOL0     C79384   1.317   1.939   2.005  0.5971 -0.3367 -0.3228
  602MOL0     C79385   1.402   2.031   2.053  0.2601  0.7960 -0.2352
  602MOL0     C79386   1.653   2.240   2.333 -0.4523 -0.1174 -0.3266
  602MOL0     C79387   1.701   2.332   2.244  0.1195 -0.1609  0.3631
  602MOL0     C79388   1.808   2.416   2.270  0.0726  0.1864  0.0801
  602MOL0     C79389   1.874   2.408   2.392 -0.5112  0.6975 -0.4075
  602MOL0     O79390   1.982   2.483   2.429  0.2938 -0.0443 -0.5052
  602MOL0     C79391   2.053   2.574   2.335 -0.0785  0.8779  0.2471
  602MOL0     C79392   2.152   2.492   2.251 -0.4179  0.2624 -0.4483
  602MOL0     C79393   2.280   2.442   2.325  0.7656  0.2324  0.2602
  602MOL0     C79394   2.381   2.348   2.260 -0.9795 -0.7460  0.9884
  602MOL0     C79395   2.479   2.419   2.170 -0.9736 -0.2458  0.5294
  602MOL0     C79396   2.551   2.465   2.089 -0.1303  0.1434  0.9549
  602MOL0     C79397   1.827   2.310   2.487  0.2438  0.4306  0.5952
  602MOL0     C79398   1.716   2.228   2.457 -0.3015 -0.9159  0.6169
  602MOL0     H79399   1.208   2.208   2.268 -0.7310 -1.4991  1.3469
  602MOL0     H79400   1.050   2.048   2.198 -0.8540  0.0438  0.7565
  602MOL0     H79401   1.190   1.798   1.851  0.5743 -0.4313  1.6059
  602MOL0     H79402   1.025   1.735   1.863 -0.3850 -3.3289  0.7973
  602MOL0     H79403   1.080   1.564   2.020 -0.9453 -0.1156 -1.4703
  602MOL0     H79404   1.248   1.634   2.038  1.0130  2.7049 -1.6656
  602MOL0     H79405   1.272   1.582   1.790  0.2143 -0.3577  0.1761
  602MOL0     H79406   1.118   1.500   1.800 -0.0067  0.8940 -0.6968
  602MOL0     H79407   1.372   1.429   1.942  0.5572  0.8652  0.3243
  602MOL0     H79408   1.206   1.357   1.968 -0.1880 -0.0472 -1.0344
  602MOL0     H79409   1.370   1.358   1.735  0.9413  0.7158  0.1933
  602MOL0     H79410   1.202   1.279   1.752 -0.3276 -0.9188  2.1525
  602MOL0     H79411   1.312   1.122   1.915 -0.2438 -0.3372 -0.6277
  602MOL0     H79412   1.457   1.220   1.910 -1.1553  2.2721 -0.1242
  602MOL0     H79413   1.343   1.117   1.656 -0.6012 -1.5892  0.8487
  602MOL0     H79414   1.513   1.159   1.687 -1.7625  1.6581 -2.3991
  602MOL0     H79415   1.520   0.946   1.842 -2.5130  2.2739  3.0614
  602MOL0     H79416   1.529   0.925   1.671 -1.2266  0.7287 -0.9959
  602MOL0     H79417   1.186   0.976   1.859  3.1547  0.6349 -0.3393
  602MOL0     H79418   0.948   0.714   1.703  0.7116 -3.1747  1.0536
  602MOL0     H79419   0.937   0.863   1.810 -1.2051 -1.2081  0.9398
  602MOL0     H79420   0.845   0.683   1.921 -0.7242 -0.2531 -2.0991
  602MOL0     H79421   1.002   0.716   2.005 -2.7191  0.4308  0.6345
  602MOL0     H79422   1.097   0.507   1.893  0.1987 -0.2599 -1.8755
  602MOL0     H79423   0.957   0.477   1.994  0.8462 -1.7857  0.3610
  602MOL0     H79424   0.924   0.339   1.845  3.0061  0.5568  3.2159
  602MOL0     H79425   0.960   0.444   1.699 -1.5803 -0.4683 -0.9191
  602MOL0     H79426   0.528   0.461   1.831 -0.8836  3.1336 -2.5008
  602MOL0     H79427   0.367   0.295   1.712  0.1758  1.3395  1.4367
  602MOL0     H79428   0.026   0.231   1.560 -1.5227  2.2508 -1.6729
  602MOL0     H79429  -0.164   0.099   1.498 -0.4229 -1.6681  1.3898
  602MOL0     H79430  -0.301  -0.018   1.313  0.0966  0.8558  0.5849
  602MOL0     H79431  -0.327  -0.093   1.476  1.4850  0.5370  0.0705
  602MOL0     H79432  -0.337  -0.318   1.324 -1.6916  0.4569  0.6622
  602MOL0     H79433  -0.329  -0.203   1.192  1.0210 -0.7321 -0.4779
  602MOL0     H79434  -0.554  -0.275   1.236 -0.3505  1.0285 -0.6151
  602MOL0     H79435  -0.534  -0.103   1.288  2.7288  0.3901 -0.9037
  602MOL0     H79436  -0.492  -0.337   1.485 -0.1043 -1.0354 -0.7610
  602MOL0     H79437  -0.537  -0.177   1.534  1.7268  3.4920 -3.3038
  602MOL0     H79438  -0.727  -0.306   1.567 -1.9360  0.6706 -0.9817
  602MOL0     H79439  -0.704  -0.392   1.416  1.0104 -1.0880  2.9475
  602MOL0     H79440  -0.790  -0.160   1.305 -0.0819  1.9280  1.0316
  602MOL0     H79441  -0.786  -0.100   1.461  0.4941  1.3607 -1.7306
  602MOL0     H79442  -0.944  -0.358   1.395  1.3014 -0.1211 -0.1024
  602MOL0     H79443  -0.976  -0.246   1.533 -0.0446  3.2168 -0.1337
  602MOL0     H79444  -1.061  -0.070   1.392  1.4248  0.8193 -1.7400
  602MOL0     H79445  -1.152  -0.214   1.372 -0.1969  1.3974 -3.4162
  602MOL0     H79446   0.084  -0.196   1.317 -0.4321 -0.2001 -1.0300
  602MOL0     H79447   0.284  -0.071   1.386 -2.3661 -4.2212 -0.9140
  602MOL0     H79448   0.685   0.165   1.468 -0.1317 -2.9741  2.8743
  602MOL0     H79449   0.844   0.295   1.591 -0.6249 -0.3272 -3.0683
  602MOL0     H79450   1.357   1.874   1.927 -1.5694  0.6240 -2.3704
  602MOL0     H79451   1.505   2.029   2.018 -0.1130 -0.2440 -1.3507
  602MOL0     H79452   1.654   2.337   2.146 -0.4306  1.0371  0.6691
  602MOL0     H79453   1.847   2.471   2.185 -0.0509 -0.1292 -0.1790
  602MOL0     H79454   2.111   2.654   2.381 -1.0459  1.1368  1.0743
  602MOL0     H79455   1.978   2.628   2.276  0.8662  0.9540 -0.9161
  602MOL0     H79456   2.112   2.399   2.208  2.8374 -0.8719 -1.3211
  602MOL0     H79457   2.182   2.560   2.171 -2.0033  2.0870  0.4167
  602MOL0     H79458   2.252   2.390   2.417 -0.2723  2.6576  1.3805
  602MOL0     H79459   2.325   2.534   2.363  0.3036  0.2005  0.9055
  602MOL0     H79460   2.429   2.279   2.331  0.1714 -0.0577  0.9135
  602MOL0     H79461   2.334   2.282   2.187 -0.0249  0.7586 -1.0876
  602MOL0     H79462   2.627   2.515   2.033  0.7184 -0.8838  1.1423
  602MOL0     H79463   1.890   2.294   2.574  3.2069  0.4606 -1.3995
  602MOL0     H79464   1.676   2.161   2.532 -2.8562  0.4465  0.5814
  603MOL0     O79465  10.543   5.586   2.042 -0.2871 -0.3421  0.3784
  603MOL0     C79466  10.544   5.709   2.084  0.6642  1.0371  0.9286
  603MOL0     O79467  10.436   5.781   2.138  0.0039  0.8193 -0.6554
  603MOL0     C79468  10.314   5.720   2.164 -0.7694 -0.3086 -0.3201
  603MOL0     C79469  10.268   5.696   2.295 -0.8542 -0.1959 -1.0512
  603MOL0     C79470  10.146   5.659   2.309  0.4019 -0.1697  0.5110
  603MOL0     C79471  10.059   5.636   2.206  0.6550  0.3212 -0.1079
  603MOL0     O79472   9.925   5.600   2.244 -0.5535 -0.6072  0.1630
  603MOL0     C79473   9.818   5.627   2.157  0.0407 -0.3695  0.1620
  603MOL0     C79474   9.691   5.583   2.224 -0.4332 -0.3250 -0.8737
  603MOL0     C79475   9.567   5.615   2.142 -0.0259  0.1257  0.9493
  603MOL0     C79476   9.436   5.574   2.203  0.4987  0.8711  0.0965
  603MOL0     C79477   9.328   5.610   2.098 -0.5559 -0.4090  0.8356
  603MOL0     C79478   9.199   5.547   2.162 -0.2601  0.0578  0.4716
  603MOL0     C79479   9.073   5.575   2.086  0.4919  0.9449 -0.0612
  603MOL0     C79480   8.957   5.520   2.172 -0.8544  0.8803  0.1723
  603MOL0     N79481   8.821   5.535   2.122 -0.1641 -0.4944 -0.1197
  603MOL0     C79482   8.765   5.652   2.080  0.2212 -0.1937 -0.2135
  603MOL0     C79483   8.663   5.623   2.002 -0.2488 -0.0650  0.3348
  603MOL0     C79484   8.587   5.730   1.916 -0.1342  0.4854 -1.5815
  603MOL0     C79485   8.485   5.656   1.827  0.6902  0.1582  0.1916
  603MOL0     C79486   8.408   5.758   1.731  0.9944 -0.7171 -0.0375
  603MOL0     C79487   8.325   5.684   1.630  0.0500 -0.1333 -0.4826
  603MOL0     O79488   8.205   5.636   1.699 -0.2458 -0.2011 -0.2103
  603MOL0     C79489   8.106   5.724   1.743 -0.1888 -0.1470 -0.2734
  603MOL0     C79490   8.012   5.683   1.839  0.3715  0.0896  0.8060
  603MOL0     C79491   7.920   5.767   1.890 -0.6449  0.7935 -0.1173
  603MOL0     C79492   7.898   5.893   1.832  0.1372  0.3784  0.9449
  603MOL0     C79493   7.777   5.971   1.860 -0.4284  0.3837  0.2804
  603MOL0     O79494   7.678   5.923   1.951 -0.7768  0.7159 -0.0085
  603MOL0     C79495   7.564   5.997   1.956  0.9520 -0.2291  0.3940
  603MOL0     C79496   7.440   5.930   1.914 -0.3771 -0.7518 -0.1159
  603MOL0     C79497   7.319   6.002   1.923 -0.2949  0.2939  0.2487
  603MOL0     C79498   7.321   6.135   1.964 -0.4785  0.1917 -0.1390
  603MOL0     O79499   7.211   6.207   1.990  0.4195 -0.5954 -0.0604
  603MOL0     C79500   7.076   6.168   1.961  0.5085 -0.6069 -0.1400
  603MOL0     C79501   6.991   6.292   1.990 -0.7109  0.7631  0.4486
  603MOL0     C79502   6.845   6.247   1.982 -0.8253  0.0998 -0.1490
  603MOL0     C79503   6.735   6.355   1.961 -0.9049 -0.3669 -0.0614
  603MOL0     C79504   6.608   6.292   1.927  0.7313  0.2742 -0.4294
  603MOL0     C79505   6.496   6.395   1.967  0.3855  0.0577 -0.6136
  603MOL0     C79506   6.350   6.339   1.942 -0.1233 -0.3378  1.2846
  603MOL0     C79507   6.310   6.298   1.798  0.1646  0.4169 -0.1330
  603MOL0    Cl79508   6.150   6.238   1.830  0.3407 -0.2917 -0.0835
  603MOL0     C79509   7.440   6.195   2.009  0.2488  0.4197 -0.2489
  603MOL0     C79510   7.556   6.130   2.000  0.3252 -0.0049 -0.6693
  603MOL0     O79511   7.770   6.075   1.803  0.5325 -0.0153  0.0567
  603MOL0     C79512   7.994   5.936   1.731  0.4749  0.1274  0.1829
  603MOL0     C79513   8.105   5.856   1.703 -0.5119  0.1786  0.6087
  603MOL0     N79514   8.663   5.488   1.988 -0.2369  0.4928 -0.0350
  603MOL0     N79515   8.750   5.432   2.062 -0.4096 -0.5071 -0.0352
  603MOL0     C79516  10.105   5.638   2.076 -0.0265 -0.7135 -0.5674
  603MOL0     C79517  10.235   5.686   2.057  0.0582  0.8000  1.1921
  603MOL0     C79518  10.670   5.791   2.059  0.7502 -0.1658 -0.2742
  603MOL0     C79519  10.674   5.927   2.047 -0.4050 -0.0754 -0.3360
  603MOL0     C79520  10.785   6.001   1.995 -0.1466  0.3824  0.2092
  603MOL0     C79521  10.908   5.938   1.981 -0.0412  1.3608  0.4016
  603MOL0     O79522  11.022   5.983   1.943  0.3101 -0.0542 -0.3166
  603MOL0     C79523  11.039   6.130   1.905  0.5935 -0.2320  0.0673
  603MOL0     C79524  11.038   6.212   2.034  0.5132  0.3425  0.5903
  603MOL0     C79525  11.083   6.345   1.988  0.4405 -0.6863 -0.0745
  603MOL0     C79526  11.051   6.453   2.094  0.5247  0.5902 -0.3202
  603MOL0     C79527  11.137   6.448   2.221  0.3523 -0.2235  1.0703
  603MOL0     C79528  11.187   6.442   2.323  0.3838  0.0100  0.2779
  603MOL0     C79529  10.907   5.797   2.002  0.1341  0.7506 -0.3718
  603MOL0     C79530  10.795   5.722   2.052 -0.1614 -0.0018 -0.0866
  603MOL0     H79531  10.324   5.707   2.387 -2.6264 -3.1516  0.5349
  603MOL0     H79532  10.098   5.644   2.405 -2.0725  1.1636 -0.4210
  603MOL0     H79533   9.831   5.582   2.059  2.1434  1.9032 -0.6899
  603MOL0     H79534   9.817   5.732   2.127  1.1147 -0.8098 -1.5021
  603MOL0     H79535   9.684   5.633   2.321  1.3189 -2.4421  0.4432
  603MOL0     H79536   9.697   5.476   2.245  1.6219 -0.0203  0.3255
  603MOL0     H79537   9.576   5.558   2.049  0.4620 -0.2799  1.2419
  603MOL0     H79538   9.554   5.720   2.114 -1.6818 -0.4940 -0.9029
  603MOL0     H79539   9.425   5.466   2.213 -1.0218  1.1036  1.1617
  603MOL0     H79540   9.422   5.618   2.302  0.2588  0.0355  0.4430
  603MOL0     H79541   9.354   5.560   2.004 -4.1073 -2.4889  0.7593
  603MOL0     H79542   9.311   5.717   2.084  0.9092 -0.1353  1.0301
  603MOL0     H79543   9.176   5.603   2.253 -2.6011  2.8590 -1.6278
  603MOL0     H79544   9.209   5.440   2.182 -2.5810  0.0206  1.7461
  603MOL0     H79545   9.060   5.681   2.059 -0.4619  0.3951 -2.0031
  603MOL0     H79546   9.071   5.522   1.990 -3.3553 -2.4400  1.5677
  603MOL0     H79547   8.960   5.556   2.276 -2.1108  1.5609  0.0015
  603MOL0     H79548   8.979   5.416   2.198 -0.5256  1.1961  1.1901
  603MOL0     H79549   8.796   5.754   2.100 -1.7683  0.9857 -2.6991
  603MOL0     H79550   8.661   5.774   1.848 -0.4303  0.4765 -1.9173
  603MOL0     H79551   8.547   5.810   1.979  1.3344 -2.1740  3.1475
  603MOL0     H79552   8.409   5.604   1.886  2.7844 -1.6431  1.4331
  603MOL0     H79553   8.544   5.587   1.766  0.5263  0.0807  0.1203
  603MOL0     H79554   8.355   5.833   1.791  0.5506 -3.7830  3.8001
  603MOL0     H79555   8.482   5.817   1.676 -0.1863  0.9210  0.0367
  603MOL0     H79556   8.380   5.594   1.600 -0.7643 -0.5277 -0.8189
  603MOL0     H79557   8.296   5.753   1.551 -0.2981  0.8091  0.4492
  603MOL0     H79558   8.018   5.580   1.872 -0.2564 -1.6510 -3.7617
  603MOL0     H79559   7.851   5.733   1.967 -1.0572  1.3005 -0.2596
  603MOL0     H79560   7.437   5.827   1.881 -3.3655 -0.0141 -2.6011
  603MOL0     H79561   7.231   5.947   1.894  0.6180 -0.3464 -1.4412
  603MOL0     H79562   7.058   6.076   2.017  2.3350 -0.8078  0.1707
  603MOL0     H79563   7.064   6.145   1.855 -0.3882 -0.7683 -0.0143
  603MOL0     H79564   7.008   6.372   1.919 -1.6034 -0.8167 -1.6598
  603MOL0     H79565   7.019   6.327   2.090 -1.9572 -0.1402  1.1358
  603MOL0     H79566   6.821   6.192   2.074 -0.1616  1.0803  0.6328
  603MOL0     H79567   6.831   6.179   1.897  0.2233 -0.7023  0.2943
  603MOL0     H79568   6.718   6.412   2.053  0.8023  1.8453 -1.0409
  603MOL0     H79569   6.759   6.434   1.889 -3.1932  2.7058  2.2382
  603MOL0     H79570   6.587   6.205   1.990  1.0539  0.4816 -0.0295
  603MOL0     H79571   6.610   6.283   1.819 -1.3870  1.2110 -0.5998
  603MOL0     H79572   6.508   6.489   1.913 -1.4851  1.3874  1.1712
  603MOL0     H79573   6.499   6.424   2.072 -3.3665 -1.9678  0.2056
  603MOL0     H79574   6.318   6.257   2.007 -1.1726 -0.0414  1.1586
  603MOL0     H79575   6.297   6.431   1.965  1.7035  0.9063  0.8030
  603MOL0     H79576   6.374   6.216   1.764 -2.1192 -2.0838  1.2695
  603MOL0     H79577   6.311   6.390   1.739  0.1035  0.0185 -0.7566
  603MOL0     H79578   7.438   6.294   2.055 -0.5760 -0.2277  1.1565
  603MOL0     H79579   7.655   6.169   2.024  0.9625  0.5828 -3.8294
  603MOL0     H79580   7.978   6.037   1.697 -1.8150 -0.7218 -1.5225
  603MOL0     H79581   8.171   5.894   1.626 -2.4995  1.0215 -0.7668
  603MOL0     H79582  10.041   5.629   1.989  0.6425  1.0133 -1.2958
  603MOL0     H79583  10.248   5.712   1.952 -0.9728  0.2932  0.9197
  603MOL0     H79584  10.581   5.984   2.049  0.4269  1.3165  1.4351
  603MOL0     H79585  10.788   6.108   1.975  1.7137  0.5163  0.9437
  603MOL0     H79586  10.965   6.155   1.829 -0.0575 -0.9380  0.4478
  603MOL0     H79587  11.139   6.144   1.862 -0.5108  2.2058 -1.9420
  603MOL0     H79588  10.935   6.215   2.072 -0.5198 -1.9896 -1.6876
  603MOL0     H79589  11.112   6.176   2.106  4.0443  2.2629 -1.8199
  603MOL0     H79590  11.032   6.380   1.898 -3.4567 -1.1758  1.7462
  603MOL0     H79591  11.190   6.346   1.967  0.2919 -1.0032 -0.8598
  603MOL0     H79592  11.061   6.550   2.045  0.9273  0.1655 -1.1063
  603MOL0     H79593  10.946   6.428   2.111  1.0828 -2.6291 -1.0048
  603MOL0     H79594  11.231   6.429   2.420  0.9574 -1.2766 -0.1320
  603MOL0     H79595  10.990   5.728   1.992 -0.6890 -0.3724  0.2470
  603MOL0     H79596  10.804   5.614   2.061  0.0407  0.0991  1.1067
  604MOL0     O79597   6.425   2.574   9.478  0.2921 -0.3216 -0.9618
  604MOL0     C79598   6.458   2.459   9.494  0.6381  0.3398 -0.4480
  604MOL0     O79599   6.369   2.350   9.493 -0.4403 -0.2728  0.0404
  604MOL0     C79600   6.228   2.358   9.485  0.7693  0.0611  0.0546
  604MOL0     C79601   6.153   2.327   9.598  0.5193 -0.5110  0.4710
  604MOL0     C79602   6.018   2.331   9.591  0.5143  0.4150  0.0536
  604MOL0     C79603   5.955   2.380   9.469  0.0061  0.0948  0.0290
  604MOL0     O79604   5.828   2.422   9.457  0.4206 -0.2727  0.2535
  604MOL0     C79605   5.726   2.327   9.494 -0.2644 -0.1818  0.6231
  604MOL0     C79606   5.582   2.370   9.451 -1.1922  0.5412  0.0648
  604MOL0     C79607   5.482   2.267   9.515  0.4724  0.3099 -0.0097
  604MOL0     C79608   5.333   2.280   9.475 -0.3613  0.6458  0.0765
  604MOL0     C79609   5.256   2.164   9.526 -0.4614 -0.1442 -0.4235
  604MOL0     C79610   5.111   2.157   9.482  0.3475 -0.3927  1.1572
  604MOL0     C79611   5.036   2.027   9.534  0.4289 -0.7155  1.2383
  604MOL0     C79612   4.884   2.036   9.522 -0.7470 -0.0812  0.1937
  604MOL0     N79613   4.821   2.066   9.651 -0.3316 -0.3920  0.0543
  604MOL0     C79614   4.722   1.988   9.712 -0.7144 -0.7984 -0.1335
  604MOL0     C79615   4.717   2.042   9.846 -0.3119 -1.2034 -0.4050
  604MOL0     C79616   4.632   1.999   9.960 -0.4573  0.6024 -0.3457
  604MOL0     C79617   4.543   1.869   9.935  0.9773 -0.5388 -0.3257
  604MOL0     C79618   4.406   1.916   9.886 -0.1570 -0.4173 -1.0278
  604MOL0     C79619   4.318   1.792   9.872 -0.4753  0.3023  0.3631
  604MOL0     O79620   4.190   1.839   9.845 -0.1336 -0.3206 -0.0201
  604MOL0     C79621   4.094   1.749   9.868 -0.0397 -0.3335  0.8998
  604MOL0     C79622   3.963   1.796   9.869  0.5366  0.2189 -0.0559
  604MOL0     C79623   3.855   1.710   9.860 -0.0002  0.3774 -0.2034
  604MOL0     C79624   3.874   1.575   9.846  0.4103  0.4659  0.1563
  604MOL0     C79625   3.759   1.486   9.854 -1.1049  0.2061  0.3092
  604MOL0     O79626   3.640   1.542   9.874 -0.0920  0.6005  0.2945
  604MOL0     C79627   3.530   1.463   9.896  0.3753 -0.6102 -0.1825
  604MOL0     C79628   3.518   1.342   9.965 -0.3973  0.5620 -0.3062
  604MOL0     C79629   3.390   1.288   9.989 -0.0224  0.1660  0.1307
  604MOL0     C79630   3.274   1.349   9.936  0.0978  0.5657 -0.1482
  604MOL0     O79631   3.142   1.310   9.960  0.1172 -0.4222 -0.0615
  604MOL0     C79632   3.114   1.196  10.049 -0.1996  0.5709  0.4356
  604MOL0     C79633   2.963   1.184  10.074  0.9529  0.0598  0.3013
  604MOL0     C79634   2.892   1.134   9.936  0.0610 -0.7454  0.3911
  604MOL0     C79635   2.754   1.187   9.922 -0.8944  0.0648 -0.3774
  604MOL0     C79636   2.652   1.135  10.026 -0.4972  0.4924  0.3856
  604MOL0     C79637   2.516   1.208  10.013 -0.4197 -0.2814  0.6653
  604MOL0     C79638   2.409   1.143  10.107  1.0625  0.1283  0.0181
  604MOL0     C79639   2.289   1.235  10.123 -0.2675  0.6327  0.2537
  604MOL0    Cl79640   2.323   1.346  10.252  0.2011 -0.3477 -0.5380
  604MOL0     C79641   3.285   1.470   9.870 -0.5288  0.0720  0.6345
  604MOL0     C79642   3.415   1.524   9.852  0.5337 -1.1409 -0.0478
  604MOL0     O79643   3.771   1.367   9.814 -1.1459 -0.7680  0.4430
  604MOL0     C79644   3.998   1.521   9.846  0.2099  0.1699  0.4674
  604MOL0     C79645   4.111   1.603   9.848  0.5853  0.2976 -0.0906
  604MOL0     N79646   4.810   2.137   9.851  1.1207 -0.1051  0.0280
  604MOL0     N79647   4.867   2.157   9.744  0.7131 -0.1059  0.1534
  604MOL0     C79648   6.034   2.422   9.363  0.1769 -0.4060  0.4377
  604MOL0     C79649   6.173   2.393   9.364 -0.7701  0.2756 -0.6841
  604MOL0     C79650   6.603   2.444   9.532  0.6852 -0.4854 -0.3477
  604MOL0     C79651   6.673   2.557   9.575 -0.0998  0.1527  1.7717
  604MOL0     C79652   6.809   2.550   9.602  0.2237  0.1626 -0.3801
  604MOL0     C79653   6.888   2.432   9.571  0.2766  0.7056 -0.8938
  604MOL0     O79654   7.028   2.429   9.576 -0.1091  0.0558  0.1303
  604MOL0     C79655   7.081   2.543   9.652 -0.0964 -0.0122 -0.0257
  604MOL0     C79656   7.230   2.521   9.670 -0.2544 -0.5298  0.4013
  604MOL0     C79657   7.295   2.504   9.531  0.5592 -0.0650  1.0491
  604MOL0     C79658   7.312   2.354   9.487 -0.0932  0.1020 -0.4663
  604MOL0     C79659   7.429   2.292   9.551  0.2276  0.5525 -0.4859
  604MOL0     C79660   7.539   2.262   9.597  0.0761 -0.4023  0.1701
  604MOL0     C79661   6.816   2.321   9.526  0.1628  0.4907 -0.0604
  604MOL0     C79662   6.676   2.327   9.502  0.1527 -0.5618 -0.3468
  604MOL0     H79663   6.213   2.302   9.685  1.8801 -1.2483 -0.6329
  604MOL0     H79664   5.948   2.323   9.673  3.0868 -1.2735  2.2124
  604MOL0     H79665   5.725   2.311   9.603  0.9168 -0.6733  0.5860
  604MOL0     H79666   5.748   2.229   9.451  0.5375  1.3570 -2.7844
  604MOL0     H79667   5.576   2.357   9.342  1.7639  0.2401 -0.1360
  604MOL0     H79668   5.565   2.473   9.485 -0.9214 -0.0561  2.1477
  604MOL0     H79669   5.488   2.286   9.623  1.3896  1.7509 -0.2838
  604MOL0     H79670   5.513   2.164   9.496 -0.8491 -0.2888  0.9577
  604MOL0     H79671   5.297   2.375   9.516  1.0490  1.2478 -0.0197
  604MOL0     H79672   5.317   2.285   9.367 -0.6964 -1.0877  0.0161
  604MOL0     H79673   5.249   2.176   9.635  1.0063 -2.3661 -0.0106
  604MOL0     H79674   5.297   2.064   9.510 -3.3834 -1.4865 -0.2133
  604MOL0     H79675   5.118   2.155   9.373 -0.1590  0.5514  1.0966
  604MOL0     H79676   5.058   2.247   9.514 -0.7323 -1.5245  2.6698
  604MOL0     H79677   5.068   1.940   9.476  3.0244  0.5036  0.6634
  604MOL0     H79678   5.066   1.995   9.634  0.6793 -3.2968  0.3967
  604MOL0     H79679   4.835   1.948   9.479 -2.1573  0.8771 -0.2081
  604MOL0     H79680   4.862   2.112   9.447 -1.0281 -1.6975 -1.4346
  604MOL0     H79681   4.661   1.907   9.673  0.1973 -1.5705  0.0012
  604MOL0     H79682   4.566   2.083   9.985 -1.8162 -0.5409  0.0434
  604MOL0     H79683   4.706   1.998  10.041  0.4062  1.2542 -1.1171
  604MOL0     H79684   4.525   1.815  10.029 -0.1159 -2.3478 -1.5058
  604MOL0     H79685   4.593   1.805   9.861 -1.1222 -1.1977 -1.2515
  604MOL0     H79686   4.374   1.989   9.961  2.4912 -0.9606  0.7722
  604MOL0     H79687   4.417   1.974   9.794 -0.5217 -0.5803 -1.1759
  604MOL0     H79688   4.324   1.733   9.965  0.9501  1.7370  1.2338
  604MOL0     H79689   4.361   1.741   9.785 -0.5752  1.2043 -0.2198
  604MOL0     H79690   3.954   1.904   9.872 -1.0393  0.2257 -2.3723
  604MOL0     H79691   3.753   1.749   9.859  0.0750  0.5757 -0.2421
  604MOL0     H79692   3.607   1.298  10.009  0.2915  0.8892 -1.3389
  604MOL0     H79693   3.374   1.193  10.040  0.3615  0.3305  0.5662
  604MOL0     H79694   3.174   1.196  10.141  0.4936 -0.8236  0.0049
  604MOL0     H79695   3.150   1.108   9.995 -0.6084  0.4289  0.3896
  604MOL0     H79696   2.929   1.281  10.111  1.4378  0.6718 -0.8085
  604MOL0     H79697   2.946   1.104  10.146 -1.4975 -0.6168 -0.9545
  604MOL0     H79698   2.884   1.025   9.938 -1.1107 -0.7108 -1.0370
  604MOL0     H79699   2.950   1.164   9.848  1.0125 -0.1440  1.1900
  604MOL0     H79700   2.752   1.296   9.932  2.1999  0.3718 -1.8733
  604MOL0     H79701   2.719   1.158   9.823 -0.3865  0.5762 -0.7128
  604MOL0     H79702   2.695   1.151  10.125 -0.1015  1.7577  0.0298
  604MOL0     H79703   2.649   1.028  10.005  2.3703 -0.1692  2.6754
  604MOL0     H79704   2.484   1.203   9.909 -0.9454 -2.4170  0.8714
  604MOL0     H79705   2.538   1.312  10.039 -2.9416 -0.4093  4.0587
  604MOL0     H79706   2.372   1.053  10.056  1.2859  1.2527 -2.2692
  604MOL0     H79707   2.451   1.115  10.204 -1.0289 -2.2873  0.3314
  604MOL0     H79708   2.197   1.177  10.136 -0.5391  0.9898 -0.0803
  604MOL0     H79709   2.278   1.292  10.030  1.2566  1.3990  0.5165
  604MOL0     H79710   3.194   1.509   9.826 -1.3239 -1.6788  0.6319
  604MOL0     H79711   3.438   1.620   9.805 -0.4263 -0.9574 -0.1713
  604MOL0     H79712   4.010   1.413   9.854 -0.4319  0.0291 -0.3581
  604MOL0     H79713   4.206   1.550   9.840 -0.3499 -1.5531  0.4268
  604MOL0     H79714   5.994   2.469   9.273  2.0912 -1.0733 -0.8230
  604MOL0     H79715   6.234   2.416   9.277 -0.9231  0.4133 -0.7561
  604MOL0     H79716   6.630   2.656   9.580 -1.5488 -0.1321 -2.1077
  604MOL0     H79717   6.839   2.647   9.639 -0.7752 -0.7332  3.1917
  604MOL0     H79718   7.039   2.531   9.752  0.3464  3.1155  0.6358
  604MOL0     H79719   7.060   2.641   9.607 -0.9146  0.5646  1.5367
  604MOL0     H79720   7.275   2.611   9.715  2.4190 -0.1208 -2.7032
  604MOL0     H79721   7.255   2.435   9.732  1.6700 -1.4800 -1.5419
  604MOL0     H79722   7.384   2.567   9.528  0.5821  0.3290  4.8467
  604MOL0     H79723   7.223   2.547   9.461  1.3321  2.4576  1.6870
  604MOL0     H79724   7.219   2.302   9.512  1.6059 -1.9734  1.9447
  604MOL0     H79725   7.328   2.352   9.379 -3.5757 -1.8916 -1.0850
  604MOL0     H79726   7.641   2.235   9.612  1.1213  2.8797 -0.1983
  604MOL0     H79727   6.884   2.237   9.516 -0.9544 -0.2716 -1.7231
  604MOL0     H79728   6.620   2.247   9.455  0.0629 -0.2409 -0.7833
  605MOL0     O79729   4.036   6.937   5.040  0.5436  0.4999 -0.2336
  605MOL0     C79730   4.083   7.030   4.977 -0.9032  0.2758  0.2855
  605MOL0     O79731   4.027   7.104   4.874 -0.1963  0.1945 -0.0653
  605MOL0     C79732   3.890   7.108   4.878 -0.4744 -0.2239  0.1275
  605MOL0     C79733   3.818   7.014   4.812  0.3858 -0.8836 -0.3527
  605MOL0     C79734   3.681   7.029   4.793  1.0408  0.0873  0.0229
  605MOL0     C79735   3.613   7.140   4.854  0.4960 -0.3898 -1.3257
  605MOL0     O79736   3.485   7.175   4.861  0.0267  0.8508  0.5929
  605MOL0     C79737   3.398   7.111   4.764 -1.0969  0.0493  1.1066
  605MOL0     C79738   3.258   7.155   4.790 -0.4781  0.7007  0.5372
  605MOL0     C79739   3.176   7.095   4.676  0.3594 -0.1366  0.2843
  605MOL0     C79740   3.035   7.143   4.669  0.9351 -0.6936 -0.3019
  605MOL0     C79741   2.933   7.032   4.718  0.3392  0.3464 -0.9751
  605MOL0     C79742   2.956   6.990   4.866 -0.0548 -0.0147  0.5206
  605MOL0     C79743   2.836   6.933   4.935  0.9436 -0.1891  0.4443
  605MOL0     C79744   2.763   6.830   4.861  0.4648  0.1368  0.0347
  605MOL0     N79745   2.638   6.784   4.921  0.0316 -1.1085  0.4697
  605MOL0     C79746   2.619   6.649   4.965 -0.2520  0.1290  0.1581
  605MOL0     C79747   2.486   6.655   4.998  0.2025 -0.0654  0.5070
  605MOL0     C79748   2.398   6.537   5.055 -0.7795  0.1811 -0.1864
  605MOL0     C79749   2.359   6.574   5.194  0.7754  0.0055 -0.0506
  605MOL0     C79750   2.354   6.446   5.281  0.1283 -0.7107 -0.5514
  605MOL0     C79751   2.220   6.371   5.278  0.3075 -0.3548 -0.1064
  605MOL0     O79752   2.223   6.291   5.156  0.0262  0.3700  0.3681
  605MOL0     C79753   2.102   6.244   5.127  0.8102  1.5618 -0.6500
  605MOL0     C79754   1.986   6.323   5.093 -0.3258 -0.2069  0.0132
  605MOL0     C79755   1.858   6.267   5.089 -0.2453 -0.5097 -0.3070
  605MOL0     C79756   1.836   6.131   5.106  0.6789  0.3598 -0.4709
  605MOL0     C79757   1.699   6.083   5.120 -0.1668  0.1316  0.6153
  605MOL0     O79758   1.600   6.155   5.071 -0.3173 -0.6920 -0.3652
  605MOL0     C79759   1.477   6.112   5.038  0.6124 -0.0097  0.6209
  605MOL0     C79760   1.438   5.980   4.998 -0.4068  0.7001  0.0182
  605MOL0     C79761   1.304   5.964   4.962  0.2464 -0.3756 -0.5884
  605MOL0     C79762   1.206   6.063   4.956  1.3510 -0.3882 -1.0291
  605MOL0     O79763   1.077   6.048   4.904 -0.0977  0.0367 -0.2062
  605MOL0     C79764   1.016   5.917   4.910  0.0261 -1.3083  0.5709
  605MOL0     C79765   0.872   5.917   4.872 -0.4283  0.4204  0.3975
  605MOL0     C79766   0.765   5.876   4.977  0.4174 -0.1831 -0.7808
  605MOL0     C79767   0.615   5.886   4.933 -0.2206  0.2143  0.0640
  605MOL0     C79768   0.525   5.833   5.050  0.6781  0.1016 -0.4184
  605MOL0     C79769   0.379   5.884   5.025 -0.9965 -0.1709  0.3151
  605MOL0     C79770   0.293   5.834   5.139 -0.1652  0.6320  0.4337
  605MOL0     C79771   0.141   5.834   5.092 -0.4219  0.0147  0.1539
  605MOL0    Cl79772   0.126   5.728   4.947  0.4763  0.0151  0.0729
  605MOL0     C79773   1.254   6.188   4.993  0.2528 -1.0505  0.7447
  605MOL0     C79774   1.386   6.213   5.027  0.2522 -0.8448  0.9188
  605MOL0     O79775   1.683   5.970   5.169 -0.1601  0.4524  0.1880
  605MOL0     C79776   1.947   6.052   5.111  0.4701 -0.5406 -0.0484
  605MOL0     C79777   2.086   6.101   5.116  0.0536 -0.0219 -0.7653
  605MOL0     N79778   2.428   6.777   4.976  0.0904  0.1424 -0.1311
  605MOL0     N79779   2.523   6.857   4.938  0.7492 -0.1039  0.2805
  605MOL0     C79780   3.698   7.221   4.930  0.2522  0.0903  0.0671
  605MOL0     C79781   3.833   7.218   4.926 -0.3062  0.4378  0.5078
  605MOL0     C79782   4.226   7.062   5.012  0.1624 -0.1921  0.3906
  605MOL0     C79783   4.293   7.162   4.952 -0.9388 -0.2702 -0.1879
  605MOL0     C79784   4.424   7.195   4.990 -0.0268  1.3838 -0.2584
  605MOL0     C79785   4.482   7.130   5.111 -0.4150 -0.3021  0.1488
  605MOL0     O79786   4.593   7.173   5.175  0.2203  0.2712 -0.1548
  605MOL0     C79787   4.650   7.294   5.124 -0.0602  0.3999 -0.0636
  605MOL0     C79788   4.765   7.278   5.018 -0.3869  0.2941  0.2583
  605MOL0     C79789   4.867   7.175   5.073 -0.0864 -0.9913  0.4018
  605MOL0     C79790   4.994   7.175   4.989  0.2182 -0.7406 -0.1240
  605MOL0     C79791   5.089   7.282   5.020  0.6627  0.0313 -0.0867
  605MOL0     C79792   5.165   7.361   5.065  0.1675 -0.1718 -0.8277
  605MOL0     C79793   4.403   7.037   5.179 -0.8007 -0.3727 -0.5432
  605MOL0     C79794   4.279   7.007   5.130  0.5526 -0.2746 -0.4107
  605MOL0     H79795   3.872   6.930   4.770  0.2146 -1.1334 -0.0752
  605MOL0     H79796   3.634   6.948   4.738 -0.3535 -1.0543  2.7170
  605MOL0     H79797   3.401   7.001   4.768  1.3506  0.0063 -0.0298
  605MOL0     H79798   3.440   7.134   4.666  1.1577 -2.1597  1.4392
  605MOL0     H79799   3.254   7.265   4.794  2.0266  0.8082  2.4137
  605MOL0     H79800   3.237   7.120   4.891 -0.0546 -1.3313 -0.0316
  605MOL0     H79801   3.169   6.986   4.676 -1.7995 -0.0723 -1.3543
  605MOL0     H79802   3.227   7.118   4.582  0.1761 -1.1401 -0.0719
  605MOL0     H79803   3.023   7.237   4.723  1.3687 -0.7624 -0.0828
  605MOL0     H79804   3.017   7.165   4.563 -0.3836 -1.1460 -0.1857
  605MOL0     H79805   2.948   6.946   4.652  1.4046 -1.0179  0.9372
  605MOL0     H79806   2.832   7.074   4.713 -0.5341 -1.5853 -0.4911
  605MOL0     H79807   2.963   7.082   4.925 -4.6152  0.0560  1.3213
  605MOL0     H79808   3.042   6.924   4.880 -0.9854 -1.0441  1.5882
  605MOL0     H79809   2.863   6.898   5.035  1.9066 -1.3664 -0.1936
  605MOL0     H79810   2.761   7.010   4.952 -1.6636 -3.1550  4.2518
  605MOL0     H79811   2.837   6.753   4.839  3.0841  2.4375  0.2178
  605MOL0     H79812   2.746   6.879   4.765  3.0763  0.1732 -0.4932
  605MOL0     H79813   2.695   6.571   4.972  0.8089  1.0673 -0.5668
  605MOL0     H79814   2.453   6.443   5.060 -0.8813  0.1664  1.0721
  605MOL0     H79815   2.314   6.514   4.989 -1.1872  0.5503  0.1983
  605MOL0     H79816   2.264   6.630   5.191  2.1537  2.5212  0.5138
  605MOL0     H79817   2.440   6.634   5.235  0.1881  0.1369  0.9563
  605MOL0     H79818   2.442   6.381   5.269  0.3102 -1.1619  2.3615
  605MOL0     H79819   2.350   6.493   5.380 -0.4461  0.8324 -1.2835
  605MOL0     H79820   2.149   6.453   5.268  1.9080  0.8797 -2.1647
  605MOL0     H79821   2.204   6.319   5.373 -0.9681  1.2106  0.5813
  605MOL0     H79822   1.984   6.431   5.082 -0.5174 -0.0274  1.5770
  605MOL0     H79823   1.764   6.321   5.079 -2.0876 -2.4504  3.8410
  605MOL0     H79824   1.499   5.890   4.994 -2.6401 -0.9064  0.2266
  605MOL0     H79825   1.276   5.870   4.914  0.8821 -0.1079 -1.4910
  605MOL0     H79826   1.029   5.880   5.012 -1.9152 -3.2833  0.1770
  605MOL0     H79827   1.063   5.847   4.840 -1.9497 -2.6608  0.5226
  605MOL0     H79828   0.868   5.837   4.797  2.3401 -2.4994  3.0467
  605MOL0     H79829   0.844   6.012   4.826  0.3991  0.6741  0.3917
  605MOL0     H79830   0.778   5.943   5.062  1.3601 -1.4026  0.0630
  605MOL0     H79831   0.788   5.777   5.017 -1.1594  1.2437  4.3895
  605MOL0     H79832   0.602   5.992   4.909  0.2216 -0.2198 -2.4446
  605MOL0     H79833   0.588   5.821   4.849 -1.8104 -1.7018  1.9614
  605MOL0     H79834   0.562   5.882   5.141 -1.9623 -0.2563  0.9618
  605MOL0     H79835   0.521   5.725   5.069 -1.9650  0.1884 -0.0547
  605MOL0     H79836   0.343   5.862   4.925  2.0331 -1.6643 -0.5861
  605MOL0     H79837   0.383   5.992   5.039 -1.8137 -0.3022  1.7783
  605MOL0     H79838   0.315   5.732   5.170  1.5965  1.2044  1.1635
  605MOL0     H79839   0.303   5.902   5.223 -1.7481  1.1072  0.2817
  605MOL0     H79840   0.119   5.940   5.080  0.6054  0.0796 -1.4794
  605MOL0     H79841   0.079   5.789   5.170  2.7074 -4.2188  0.5775
  605MOL0     H79842   1.187   6.271   4.971  2.0582  0.4043  0.5237
  605MOL0     H79843   1.427   6.312   5.040 -0.7574 -0.4110  0.8638
  605MOL0     H79844   1.940   5.944   5.116  0.1107 -0.4850  3.3915
  605MOL0     H79845   2.175   6.039   5.117 -0.8811 -1.4481 -1.4494
  605MOL0     H79846   3.656   7.313   4.969 -1.5521  0.6770 -2.9397
  605MOL0     H79847   3.879   7.302   4.978  0.6432  0.9885 -1.1224
  605MOL0     H79848   4.252   7.221   4.871  1.4435  1.0861 -0.4955
  605MOL0     H79849   4.469   7.271   4.927  1.8525  2.5364  2.2920
  605MOL0     H79850   4.700   7.342   5.210  2.5849  0.8260 -1.7062
  605MOL0     H79851   4.582   7.373   5.092 -0.9815 -1.1485 -2.0871
  605MOL0     H79852   4.728   7.241   4.922  0.7605 -1.2716  0.3741
  605MOL0     H79853   4.812   7.374   4.992  0.6273 -0.8490 -2.5300
  605MOL0     H79854   4.818   7.078   5.055 -2.2769 -0.3202  2.3016
  605MOL0     H79855   4.879   7.186   5.181 -0.4166 -1.4587  0.4903
  605MOL0     H79856   5.043   7.079   5.010  0.9770  0.0062  1.7060
  605MOL0     H79857   4.970   7.188   4.883  0.2825 -1.2041 -0.1971
  605MOL0     H79858   5.218   7.431   5.127 -1.6574 -0.3661  1.0719
  605MOL0     H79859   4.443   6.995   5.271  1.6420 -1.9678 -2.2334
  605MOL0     H79860   4.226   6.939   5.197 -1.3357  3.1797  1.8810
  606MOL0     O79861   6.488   1.827  10.612  0.5334 -0.3837 -0.9515
  606MOL0     C79862   6.533   1.916  10.688  0.0114 -0.3997  0.2227
  606MOL0     O79863   6.452   2.008  10.759 -0.0195  0.9564 -0.1902
  606MOL0     C79864   6.319   2.010  10.764  1.0540  0.4014 -0.2316
  606MOL0     C79865   6.236   2.031  10.657 -0.5532  0.2731 -0.0133
  606MOL0     C79866   6.090   2.029  10.667 -0.2708 -0.1289  0.3070
  606MOL0     C79867   6.038   2.020  10.795  0.7930 -1.0283 -1.2389
  606MOL0     O79868   5.901   2.038  10.811  0.3490 -0.2454  0.9103
  606MOL0     C79869   5.841   2.018  10.935 -0.1038 -0.2308 -0.1930
  606MOL0     C79870   5.697   2.005  10.892  0.2726  0.0899 -0.7676
  606MOL0     C79871   5.608   1.987  11.020  0.6675 -0.6789  0.2148
  606MOL0     C79872   5.460   1.992  10.988 -0.0659 -0.2352  0.1907
  606MOL0     C79873   5.366   1.962  11.107 -0.3218 -0.2600 -0.3938
  606MOL0     C79874   5.371   2.066  11.224  0.1875 -0.2133  0.5218
  606MOL0     C79875   5.284   2.031  11.344  0.4796 -0.2874  0.0175
  606MOL0     C79876   5.139   1.976  11.308 -0.6154 -0.5665  0.0282
  606MOL0     N79877   5.066   1.949  11.427 -0.1209  0.7983  0.1121
  606MOL0     C79878   4.938   1.986  11.433  0.3065 -0.0807  0.4207
  606MOL0     C79879   4.882   1.935  11.552 -0.2717 -0.0267 -0.1934
  606MOL0     C79880   4.741   1.950  11.603  0.5695  0.6580  0.1833
  606MOL0     C79881   4.639   1.960  11.482  0.0729  0.0792 -0.2781
  606MOL0     C79882   4.497   1.971  11.545 -0.1578 -0.5034 -0.2641
  606MOL0     C79883   4.386   1.944  11.442 -0.6824 -0.4883 -0.8307
  606MOL0     O79884   4.392   2.024  11.323 -0.3284  0.0597 -0.0009
  606MOL0     C79885   4.281   2.024  11.249  0.1706 -0.5401 -0.6719
  606MOL0     C79886   4.244   2.147  11.200  1.6799  0.3677 -0.2405
  606MOL0     C79887   4.123   2.163  11.140 -0.2376  0.5462  0.0991
  606MOL0     C79888   4.039   2.055  11.109 -0.5349  0.6871 -0.7194
  606MOL0     C79889   3.910   2.078  11.038 -0.1620  0.7186  0.0921
  606MOL0     O79890   3.886   2.203  10.980 -0.4892 -0.1136 -0.1756
  606MOL0     C79891   3.760   2.236  10.932  0.7332 -0.1538 -0.3144
  606MOL0     C79892   3.746   2.335  10.833 -0.3772 -0.3475  0.9230
  606MOL0     C79893   3.623   2.378  10.777  0.6470  0.4539 -1.1302
  606MOL0     C79894   3.500   2.323  10.831 -1.2698 -0.5314 -0.0187
  606MOL0     O79895   3.390   2.361  10.773  0.6569 -0.4020  0.6317
  606MOL0     C79896   3.335   2.250  10.699 -0.4194 -0.2834  0.2223
  606MOL0     C79897   3.228   2.317  10.613 -0.0200  0.1880 -0.6237
  606MOL0     C79898   3.100   2.355  10.694 -0.1245 -0.4635  0.6439
  606MOL0     C79899   3.018   2.239  10.758 -0.5572  1.6327  0.1489
  606MOL0     C79900   2.942   2.300  10.879  0.2001  0.2375 -0.4539
  606MOL0     C79901   3.029   2.297  11.006  0.3672  0.0855  0.0061
  606MOL0     C79902   2.972   2.402  11.100  0.1270  0.0301 -0.5966
  606MOL0     C79903   2.854   2.344  11.183  0.6401  0.7542 -0.1413
  606MOL0    Cl79904   2.701   2.323  11.088  0.1139  0.4137 -0.2726
  606MOL0     C79905   3.513   2.226  10.931 -0.1461 -0.0164  0.2300
  606MOL0     C79906   3.640   2.181  10.980  0.1576 -0.3151  0.6085
  606MOL0     O79907   3.831   1.982  11.031 -0.2687 -0.2438 -0.6874
  606MOL0     C79908   4.077   1.928  11.161  0.3434 -0.8734 -0.3069
  606MOL0     C79909   4.193   1.913  11.231  0.5438  0.2230 -0.3086
  606MOL0     N79910   4.991   1.873  11.612  0.3658  0.3658 -0.2470
  606MOL0     N79911   5.091   1.878  11.533  0.2897 -0.7435 -0.5134
  606MOL0     C79912   6.119   2.012  10.907 -0.4320 -0.2475 -1.0828
  606MOL0     C79913   6.260   1.996  10.890  0.4497  0.2928  0.7577
  606MOL0     C79914   6.681   1.923  10.684 -0.4654  0.1209 -0.0352
  606MOL0     C79915   6.762   1.820  10.622  0.1264 -0.0226  0.5729
  606MOL0     C79916   6.902   1.830  10.623 -0.0248  0.3615  0.6507
  606MOL0     C79917   6.962   1.938  10.695 -0.5947 -1.1521  0.3525
  606MOL0     O79918   7.097   1.946  10.690 -0.8094 -0.4152 -0.3627
  606MOL0     C79919   7.171   1.931  10.815  1.1358 -0.2085 -0.1092
  606MOL0     C79920   7.318   1.905  10.797 -0.9335  0.4529 -1.0398
  606MOL0     C79921   7.378   1.847  10.929  0.5323 -0.0794  0.1818
  606MOL0     C79922   7.531   1.851  10.929 -1.2539 -0.3619 -0.1548
  606MOL0     C79923   7.569   1.992  10.954 -0.7548 -0.4476 -0.7276
  606MOL0     C79924   7.606   2.103  10.978 -0.0766  0.7027 -0.1029
  606MOL0     C79925   6.889   2.031  10.765  0.4661 -0.4825  0.0607
  606MOL0     C79926   6.750   2.027  10.754  0.1652  0.5052  0.3996
  606MOL0     H79927   6.281   2.045  10.559  0.6094  1.2885  0.6324
  606MOL0     H79928   6.028   2.040  10.578  2.0908  3.5556 -1.0834
  606MOL0     H79929   5.856   2.101  11.005  0.7180  0.7194 -1.4346
  606MOL0     H79930   5.877   1.929  10.988  1.3148  0.7213  0.5010
  606MOL0     H79931   5.676   1.920  10.826 -0.9708 -1.0090  0.9432
  606MOL0     H79932   5.658   2.097  10.848 -2.8317 -1.2119 -0.9815
  606MOL0     H79933   5.626   2.072  11.087 -1.8852  0.3605 -0.3248
  606MOL0     H79934   5.633   1.896  11.075  2.9390  0.5743  1.3908
  606MOL0     H79935   5.434   2.083  10.935  1.6620 -0.5735 -1.3230
  606MOL0     H79936   5.464   1.908  10.919  2.6477  1.5669 -2.0367
  606MOL0     H79937   5.398   1.873  11.162  0.2053  0.7588  0.9920
  606MOL0     H79938   5.264   1.957  11.068 -0.2804  0.8427 -0.6922
  606MOL0     H79939   5.339   2.165  11.191  3.1169  0.6549  0.0027
  606MOL0     H79940   5.474   2.071  11.260  0.4627 -2.7996  0.2975
  606MOL0     H79941   5.348   1.956  11.391  0.6335  0.0288  0.3189
  606MOL0     H79942   5.280   2.115  11.413 -0.3069 -0.4966  0.2329
  606MOL0     H79943   5.148   1.883  11.252 -1.0221  0.6485 -2.1807
  606MOL0     H79944   5.083   2.048  11.247 -0.6173 -2.0016 -1.7393
  606MOL0     H79945   4.888   2.052  11.363  0.2061  0.4339  0.9612
  606MOL0     H79946   4.728   2.034  11.672 -0.2861 -0.2157  1.1090
  606MOL0     H79947   4.718   1.869  11.672 -0.2475  0.5435 -0.2086
  606MOL0     H79948   4.646   1.871  11.419 -0.1465 -0.7615  0.8566
  606MOL0     H79949   4.660   2.055  11.432  1.3948 -0.7155 -1.2976
  606MOL0     H79950   4.487   1.900  11.627 -1.5928 -1.1868 -0.9858
  606MOL0     H79951   4.484   2.065  11.599  1.0279  0.5524 -1.7174
  606MOL0     H79952   4.288   1.962  11.487  0.8532  0.1145  2.5487
  606MOL0     H79953   4.393   1.840  11.408  2.0904 -0.5143 -0.3595
  606MOL0     H79954   4.309   2.232  11.218 -0.3031  2.0310 -0.6575
  606MOL0     H79955   4.084   2.263  11.122 -0.7973  0.5004  1.0171
  606MOL0     H79956   3.838   2.369  10.789 -0.6197 -0.4271  0.3477
  606MOL0     H79957   3.625   2.461  10.707 -0.4666  1.3717 -0.1308
  606MOL0     H79958   3.293   2.170  10.760 -2.9716  3.0037  3.2238
  606MOL0     H79959   3.414   2.214  10.633 -1.1045  0.5585 -1.1040
  606MOL0     H79960   3.195   2.247  10.535 -1.4131  1.5921 -1.3433
  606MOL0     H79961   3.267   2.402  10.558 -0.5488  1.0769  0.3346
  606MOL0     H79962   3.032   2.419  10.636 -1.4867 -2.2455  0.1740
  606MOL0     H79963   3.136   2.412  10.779 -3.0411 -0.4050  1.9560
  606MOL0     H79964   2.942   2.198  10.691  1.6192 -1.6656 -0.5194
  606MOL0     H79965   3.080   2.154  10.786  0.8896  2.0998 -1.4697
  606MOL0     H79966   2.847   2.251  10.901 -0.2141  1.9320  1.8765
  606MOL0     H79967   2.917   2.404  10.855 -1.3307  0.1248  0.5244
  606MOL0     H79968   3.134   2.307  10.977  0.8862 -4.0472 -0.1356
  606MOL0     H79969   3.018   2.201  11.056 -0.1509 -0.3409 -0.8982
  606MOL0     H79970   3.051   2.421  11.174 -0.6075 -0.2223  0.2689
  606MOL0     H79971   2.952   2.496  11.049  1.2023  0.3230 -0.4918
  606MOL0     H79972   2.838   2.411  11.268 -2.4832  0.2569 -0.2151
  606MOL0     H79973   2.883   2.245  11.218  2.4756  0.8832 -1.1914
  606MOL0     H79974   3.425   2.172  10.965 -1.1647  0.0628 -2.0807
  606MOL0     H79975   3.631   2.115  11.066  1.4619 -0.6087  0.5416
  606MOL0     H79976   4.008   1.844  11.160 -2.2681  0.9207  3.5168
  606MOL0     H79977   4.208   1.817  11.280 -0.5727  0.7878  1.2357
  606MOL0     H79978   6.073   2.005  11.005  0.6652  0.2707 -0.5117
  606MOL0     H79979   6.322   1.984  10.978  2.0283 -1.2822 -0.4814
  606MOL0     H79980   6.703   1.740  10.579 -0.6587  0.4539  0.7526
  606MOL0     H79981   6.966   1.769  10.559 -0.3523  0.5401  0.1399
  606MOL0     H79982   7.119   1.869  10.888 -2.6427 -0.1780 -2.5260
  606MOL0     H79983   7.166   2.033  10.854  0.2634  0.2341 -1.3336
  606MOL0     H79984   7.334   1.839  10.711  2.1190 -0.8478  0.3890
  606MOL0     H79985   7.368   2.000  10.777 -0.9572  0.3116 -1.8280
  606MOL0     H79986   7.343   1.743  10.931 -1.4590  0.4128 -2.4501
  606MOL0     H79987   7.336   1.898  11.016  0.9344 -0.2182  0.4612
  606MOL0     H79988   7.555   1.782  11.011 -2.5455  0.5443  1.0321
  606MOL0     H79989   7.570   1.817  10.833  0.0236  0.7418 -0.0506
  606MOL0     H79990   7.637   2.205  10.971 -1.6228  1.2141 -0.0468
  606MOL0     H79991   6.946   2.112  10.809  0.9776 -1.5766  1.4661
  606MOL0     H79992   6.702   2.111  10.802  0.2883  1.1400 -0.5578
  607MOL0     O79993  10.937   8.541   3.563  0.7268 -0.1711  0.4692
  607MOL0     C79994  10.960   8.594   3.674  0.0109  0.0957  0.6706
  607MOL0     O79995  11.092   8.606   3.723  0.3325 -0.1008 -0.4095
  607MOL0     C79996  11.193   8.574   3.631  0.5542  0.6673 -0.3189
  607MOL0     C79997  11.213   8.637   3.508 -0.1553  0.3801 -0.2422
  607MOL0     C79998  11.319   8.618   3.426 -0.4316  0.4156  0.0709
  607MOL0     C79999  11.416   8.531   3.471  0.2106 -0.9270 -0.3319
  607MOL0     O80000  11.511   8.530   3.374  0.5630  0.5820 -1.1982
  607MOL0     C80001  11.603   8.426   3.379 -0.9403 -0.9330 -0.5550
  607MOL0     C80002  11.716   8.451   3.270 -0.0691  0.5959  0.3087
  607MOL0     C80003  11.805   8.573   3.288 -0.4480  0.2919 -0.2252
  607MOL0     C80004  11.899   8.589   3.166 -0.5027 -0.1239  0.1735
  607MOL0     C80005  11.993   8.700   3.193 -0.1727 -0.1420  0.2364
  607MOL0     C80006  12.115   8.696   3.084  0.1001 -0.1242 -0.4062
  607MOL0     C80007  12.222   8.811   3.112 -0.1084  0.3954  0.3074
  607MOL0     C80008  12.314   8.785   3.231  0.0090 -0.0603 -0.1509
  607MOL0     N80009  12.411   8.675   3.217  0.0736  0.1465  0.0003
  607MOL0     C80010  12.510   8.680   3.121 -0.9212 -0.2680 -0.7842
  607MOL0     C80011  12.566   8.560   3.130 -0.6214  0.0848 -0.6303
  607MOL0     C80012  12.687   8.495   3.061  0.3604  0.0240 -0.3673
  607MOL0     C80013  12.660   8.390   2.950  0.0922  0.4864 -0.6399
  607MOL0     C80014  12.645   8.446   2.816  0.3866  0.1830 -0.2830
  607MOL0     C80015  12.500   8.478   2.777  0.0305 -0.2997 -0.4653
  607MOL0     O80016  12.508   8.579   2.671  0.0133 -0.3891  0.5188
  607MOL0     C80017  12.390   8.597   2.595  0.2856  0.4745  0.7887
  607MOL0     C80018  12.266   8.581   2.646  0.2673 -0.5621 -0.0092
  607MOL0     C80019  12.155   8.615   2.571 -0.0651 -0.4058  0.6579
  607MOL0     C80020  12.169   8.639   2.432 -0.2134 -0.0944 -0.0260
  607MOL0     C80021  12.041   8.668   2.357 -0.1757  0.1255  0.4598
  607MOL0     O80022  11.954   8.738   2.419  0.9971 -0.1915  0.1108
  607MOL0     C80023  11.849   8.787   2.343  0.2073  0.5072  0.7660
  607MOL0     C80024  11.733   8.703   2.341  0.2513  0.0113 -0.4266
  607MOL0     C80025  11.624   8.743   2.258 -0.7006  0.2004 -0.3889
  607MOL0     C80026  11.624   8.867   2.180  0.3324  0.0716  0.0011
  607MOL0     O80027  11.521   8.908   2.092  0.1231  0.0719 -0.8064
  607MOL0     C80028  11.402   8.836   2.113 -0.0724  0.3069  0.1324
  607MOL0     C80029  11.293   8.914   2.046  0.4445  0.0186  0.2809
  607MOL0     C80030  11.252   9.035   2.136  1.2341  0.6424 -0.5341
  607MOL0     C80031  11.134   9.103   2.061 -0.7465  0.1370  0.1711
  607MOL0     C80032  11.067   9.218   2.129 -0.1744 -0.7235 -0.1225
  607MOL0     C80033  10.948   9.253   2.043 -0.1528 -0.6372  0.7602
  607MOL0     C80034  10.858   9.348   2.137 -0.7085  0.2684 -0.0087
  607MOL0     C80035  10.780   9.450   2.056 -0.3156 -0.5904  0.0944
  607MOL0    Cl80036  10.636   9.373   1.970  0.3027  0.0524  0.2622
  607MOL0     C80037  11.748   8.936   2.169 -0.1515  0.2244  0.0301
  607MOL0     C80038  11.855   8.901   2.252 -0.7190  0.2452 -0.0727
  607MOL0     O80039  12.039   8.626   2.246 -0.4519  0.2298  0.5721
  607MOL0     C80040  12.302   8.636   2.382 -0.5175  0.0722  0.1956
  607MOL0     C80041  12.412   8.630   2.463 -0.7737  0.3210  0.2130
  607MOL0     N80042  12.496   8.489   3.229 -0.6975  0.3130 -0.6471
  607MOL0     N80043  12.408   8.557   3.286  0.1835 -0.0209 -0.4387
  607MOL0     C80044  11.414   8.462   3.592  0.4933  0.4070 -0.3680
  607MOL0     C80045  11.297   8.489   3.672 -0.1119  0.5782  0.0236
  607MOL0     C80046  10.838   8.613   3.762  0.1335 -0.9322  0.0327
  607MOL0     C80047  10.857   8.645   3.905 -0.7608 -0.4574  0.4025
  607MOL0     C80048  10.742   8.665   3.987  0.6331 -0.4689 -0.0287
  607MOL0     C80049  10.613   8.653   3.938 -0.5662  0.7092 -0.1911
  607MOL0     O80050  10.513   8.665   4.035 -0.0861 -0.3865  0.5943
  607MOL0     C80051  10.397   8.734   3.986 -0.4334 -0.1951  0.2307
  607MOL0     C80052  10.440   8.870   3.947  0.4044 -0.2371  0.4833
  607MOL0     C80053  10.329   8.972   3.967  0.2672 -0.1940  1.0984
  607MOL0     C80054  10.343   9.096   3.882 -0.4553  0.1171  0.3168
  607MOL0     C80055  10.465   9.170   3.920 -0.8084  0.1833  0.1172
  607MOL0     C80056  10.572   9.226   3.942  0.5553  0.0171  1.0640
  607MOL0     C80057  10.599   8.625   3.800 -0.4171  0.5228  0.0345
  607MOL0     C80058  10.702   8.602   3.719 -0.2156 -0.4909  0.5800
  607MOL0     H80059  11.140   8.711   3.476  0.0458 -1.0178 -4.5285
  607MOL0     H80060  11.345   8.673   3.337 -1.8988  1.5323  0.2880
  607MOL0     H80061  11.550   8.332   3.357  1.0426 -2.5184  1.0079
  607MOL0     H80062  11.639   8.402   3.480 -0.6404  0.4909 -0.3125
  607MOL0     H80063  11.668   8.452   3.172  2.2221 -2.5065 -0.9953
  607MOL0     H80064  11.777   8.360   3.275  1.5390  1.6260  0.0372
  607MOL0     H80065  11.867   8.561   3.377 -1.8704  2.5192  1.1460
  607MOL0     H80066  11.743   8.662   3.296 -2.3365 -0.6606 -2.8848
  607MOL0     H80067  11.955   8.498   3.143  1.8773  1.4980 -1.0538
  607MOL0     H80068  11.844   8.607   3.073  0.5518 -1.0458 -0.6703
  607MOL0     H80069  12.034   8.687   3.294 -1.4267  3.0121  1.2778
  607MOL0     H80070  11.940   8.795   3.199  0.9301  0.5155 -0.2205
  607MOL0     H80071  12.085   8.710   2.979 -0.5291 -0.2798 -0.2547
  607MOL0     H80072  12.165   8.599   3.084  3.2440  1.3246 -2.8866
  607MOL0     H80073  12.280   8.824   3.020  0.6847  2.8876  1.0819
  607MOL0     H80074  12.162   8.902   3.121 -2.3664 -1.0786  0.8359
  607MOL0     H80075  12.238   8.752   3.303 -0.6496  1.9428  0.1338
  607MOL0     H80076  12.369   8.874   3.262  1.2049 -0.6279 -0.5727
  607MOL0     H80077  12.527   8.756   3.046  0.0265 -1.7302 -2.1047
  607MOL0     H80078  12.745   8.448   3.141 -0.1116  1.0940  0.6269
  607MOL0     H80079  12.753   8.572   3.019  0.7804 -0.6389 -0.9405
  607MOL0     H80080  12.580   8.321   2.980  0.0788  0.6535 -0.2836
  607MOL0     H80081  12.755   8.337   2.939  0.6471  1.2767  0.1459
  607MOL0     H80082  12.699   8.541   2.808 -0.8063  0.9458  0.4188
  607MOL0     H80083  12.681   8.371   2.744  0.2112 -0.6326  0.4637
  607MOL0     H80084  12.447   8.521   2.862 -0.8673 -0.1556 -1.0845
  607MOL0     H80085  12.457   8.381   2.753  1.8120 -0.6918 -2.4581
  607MOL0     H80086  12.252   8.555   2.750 -0.3573  0.3036  0.1374
  607MOL0     H80087  12.056   8.608   2.614 -0.2326 -3.3801 -0.0012
  607MOL0     H80088  11.710   8.629   2.417  0.2402  0.5736  0.1247
  607MOL0     H80089  11.539   8.675   2.254 -0.9407  0.5805 -2.6951
  607MOL0     H80090  11.379   8.819   2.219  0.9902  4.7365  1.2914
  607MOL0     H80091  11.423   8.742   2.061  0.0720  1.8532 -2.8261
  607MOL0     H80092  11.213   8.840   2.031  3.1119 -3.1030  0.2017
  607MOL0     H80093  11.332   8.956   1.953  1.4211 -0.3162  0.5243
  607MOL0     H80094  11.333   9.109   2.138  1.2715  0.6050 -0.6328
  607MOL0     H80095  11.218   8.995   2.232 -0.5868  1.1189 -0.9411
  607MOL0     H80096  11.178   9.155   1.975  0.5864 -1.0614  0.0867
  607MOL0     H80097  11.065   9.027   2.024 -0.1701  0.6831 -2.1711
  607MOL0     H80098  11.132   9.306   2.135 -0.7869 -0.3269  1.3847
  607MOL0     H80099  11.035   9.194   2.231 -0.3016 -0.1702 -0.0326
  607MOL0     H80100  10.886   9.171   2.007 -1.5981 -0.2490  2.2265
  607MOL0     H80101  10.986   9.319   1.965 -0.4518 -0.0450  1.1073
  607MOL0     H80102  10.803   9.286   2.209  1.6380  0.5776  2.2224
  607MOL0     H80103  10.924   9.403   2.205 -0.0414 -1.4057  0.7610
  607MOL0     H80104  10.858   9.500   1.998 -0.6942  0.3013  0.3440
  607MOL0     H80105  10.731   9.517   2.127  0.5318  0.6117 -0.4112
  607MOL0     H80106  11.767   9.022   2.105 -2.8672  0.6679 -0.2852
  607MOL0     H80107  11.954   8.946   2.247  0.1259 -1.3867  0.8161
  607MOL0     H80108  12.326   8.650   2.277 -4.9506  1.1962 -0.8892
  607MOL0     H80109  12.515   8.630   2.430 -0.5788 -0.6197  0.7594
  607MOL0     H80110  11.497   8.394   3.609 -1.2384 -1.8283 -0.3210
  607MOL0     H80111  11.306   8.451   3.773 -3.1172 -0.8179 -0.1090
  607MOL0     H80112  10.952   8.664   3.954 -1.1431  4.0388 -0.1524
  607MOL0     H80113  10.750   8.690   4.092  0.4434  1.7636 -0.5121
  607MOL0     H80114  10.325   8.742   4.068 -0.5585 -2.2192  0.3622
  607MOL0     H80115  10.349   8.691   3.898  2.6594  0.5881 -2.0109
  607MOL0     H80116  10.528   8.901   4.003  0.5190 -0.6122  0.5131
  607MOL0     H80117  10.476   8.874   3.844  2.2340 -1.2879  1.0527
  607MOL0     H80118  10.305   8.996   4.071 -1.2638  1.8296  0.3611
  607MOL0     H80119  10.238   8.934   3.920  0.3670  1.7161 -0.8428
  607MOL0     H80120  10.346   9.066   3.777  2.0734 -1.5834  0.7925
  607MOL0     H80121  10.258   9.162   3.898 -0.0705  0.5278  0.6925
  607MOL0     H80122  10.655   9.292   3.959 -1.2189  3.1805 -1.5141
  607MOL0     H80123  10.504   8.605   3.751  1.7601 -2.6628 -3.3760
  607MOL0     H80124  10.687   8.560   3.620  3.3978 -0.3929 -0.1158
  608MOL0     O80125   0.786   4.093   6.248  0.5075  0.9061 -0.1534
  608MOL0     C80126   0.793   3.999   6.169 -0.4303  0.4374  0.1548
  608MOL0     O80127   0.688   3.942   6.105 -0.9935  0.3166 -0.2303
  608MOL0     C80128   0.566   3.998   6.098  0.6957 -0.4105  0.1541
  608MOL0     C80129   0.493   4.046   6.202 -0.5567  0.0112  0.5078
  608MOL0     C80130   0.369   4.112   6.191 -0.3866 -0.1871 -0.4718
  608MOL0     C80131   0.318   4.124   6.066  1.4860 -0.3366  0.1617
  608MOL0     O80132   0.188   4.183   6.056 -0.8305 -0.6503 -0.4726
  608MOL0     C80133   0.113   4.163   5.934 -0.2258  0.6168  0.3068
  608MOL0     C80134  -0.030   4.226   5.955 -0.4508  0.5525  0.8616
  608MOL0     C80135  -0.135   4.182   5.857  0.0577 -0.5989  0.6493
  608MOL0     C80136  -0.268   4.273   5.886 -0.0517 -0.6339  0.3423
  608MOL0     C80137  -0.389   4.183   5.851 -0.1742 -0.0366 -0.4764
  608MOL0     C80138  -0.406   4.152   5.701 -1.0370 -0.8285  0.4112
  608MOL0     C80139  -0.546   4.098   5.687 -0.1248  0.5372  0.2579
  608MOL0     C80140  -0.597   4.099   5.544  0.6441  0.0183 -0.2137
  608MOL0     N80141  -0.738   4.054   5.553  0.8288  0.6504  0.5340
  608MOL0     C80142  -0.790   3.946   5.617  0.3665  0.8333 -0.0936
  608MOL0     C80143  -0.912   3.920   5.557 -0.9461 -0.3734  0.8668
  608MOL0     C80144  -0.988   3.805   5.604 -0.4635  0.0394 -0.4048
  608MOL0     C80145  -1.119   3.869   5.659 -1.3674  0.7216 -0.9443
  608MOL0     C80146  -1.239   3.766   5.671 -0.1242 -0.8164  0.8757
  608MOL0     C80147  -1.368   3.839   5.694  0.1185  0.2157  0.7018
  608MOL0     O80148  -1.471   3.747   5.743 -0.2124  0.0775  0.1702
  608MOL0     C80149  -1.604   3.773   5.720 -0.2979  0.3040 -0.0269
  608MOL0     C80150  -1.705   3.675   5.745 -0.0452  0.6289 -0.1333
  608MOL0     C80151  -1.839   3.702   5.716  0.5903 -0.0364 -0.8529
  608MOL0     C80152  -1.882   3.828   5.678 -0.1827  0.3298 -0.2084
  608MOL0     C80153  -2.028   3.853   5.663  0.1848  0.5337 -0.1924
  608MOL0     O80154  -2.114   3.745   5.696  0.5803 -0.4183 -0.0735
  608MOL0     C80155  -2.254   3.757   5.686  0.6382 -0.5856  0.6436
  608MOL0     C80156  -2.337   3.863   5.728  1.0930  0.1660 -0.2582
  608MOL0     C80157  -2.473   3.862   5.706 -0.5099  0.1030  0.7024
  608MOL0     C80158  -2.533   3.763   5.631 -0.5858  0.0409 -1.0487
  608MOL0     O80159  -2.669   3.761   5.616  0.3734  0.3089 -0.4635
  608MOL0     C80160  -2.740   3.650   5.665  0.7734  0.7677  0.5426
  608MOL0     C80161  -2.887   3.678   5.623  0.3681 -0.2764  0.3323
  608MOL0     C80162  -2.938   3.779   5.725 -0.1553  0.6956  0.1781
  608MOL0     C80163  -3.065   3.835   5.664 -0.1183  0.6275 -1.3265
  608MOL0     C80164  -3.174   3.719   5.673 -0.4337 -0.1260  0.5188
  608MOL0     C80165  -3.304   3.787   5.635  0.6980 -0.2656 -0.9821
  608MOL0     C80166  -3.430   3.700   5.665 -0.0932 -0.8079  0.1164
  608MOL0     C80167  -3.449   3.606   5.552 -0.4102  0.5625  1.5055
  608MOL0    Cl80168  -3.512   3.673   5.394  0.2894  0.0402 -0.0227
  608MOL0     C80169  -2.457   3.651   5.593  0.0123  0.3894  0.0295
  608MOL0     C80170  -2.313   3.647   5.614  0.7351 -0.0674  0.2342
  608MOL0     O80171  -2.066   3.967   5.624  0.3943 -0.1544 -0.6415
  608MOL0     C80172  -1.788   3.925   5.665 -0.1200 -0.3826  0.0442
  608MOL0     C80173  -1.653   3.905   5.687  0.0761  1.1968  0.7702
  608MOL0     N80174  -0.938   4.025   5.468 -0.5969  0.0082  0.0830
  608MOL0     N80175  -0.834   4.107   5.472 -0.4532  0.3122  0.3544
  608MOL0     C80176   0.388   4.073   5.953  0.5458  0.0922 -0.2273
  608MOL0     C80177   0.507   4.013   5.970  0.9022  0.6780 -0.0792
  608MOL0     C80178   0.930   3.969   6.120  0.2541  0.7640 -0.2672
  608MOL0     C80179   0.960   3.907   5.996  0.4517  0.7821 -0.2679
  608MOL0     C80180   1.092   3.880   5.961 -0.1600  0.1947  0.2631
  608MOL0     C80181   1.195   3.919   6.047  0.8847  0.2093  0.2897
  608MOL0     O80182   1.321   3.909   6.000 -0.1377  0.5830 -0.5913
  608MOL0     C80183   1.438   3.976   6.061 -0.4919  0.6053  0.6956
  608MOL0     C80184   1.537   3.988   5.947  0.2063 -1.1760  0.5065
  608MOL0     C80185   1.590   3.855   5.902  0.0200 -0.3569 -0.3578
  608MOL0     C80186   1.712   3.866   5.804  0.0705  0.8745  0.2348
  608MOL0     C80187   1.683   3.925   5.673  1.0032 -0.1000 -0.4165
  608MOL0     C80188   1.648   3.967   5.565  0.2690  0.1434  0.4277
  608MOL0     C80189   1.167   3.986   6.174 -0.4533 -0.1631  0.6591
  608MOL0     C80190   1.033   4.016   6.199 -0.1626  0.0371 -0.8678
  608MOL0     H80191   0.535   4.045   6.302 -2.4021  3.9493  1.5467
  608MOL0     H80192   0.321   4.147   6.281  1.3386  0.3622  0.2830
  608MOL0     H80193   0.105   4.057   5.910 -0.2425  0.7418 -0.2463
  608MOL0     H80194   0.174   4.219   5.863  1.9320 -0.5486  1.1526
  608MOL0     H80195  -0.016   4.332   5.932  0.6382 -0.0866 -1.7368
  608MOL0     H80196  -0.057   4.211   6.060  0.0754 -0.2124  0.8947
  608MOL0     H80197  -0.149   4.076   5.882  1.3971 -1.4292 -1.7815
  608MOL0     H80198  -0.113   4.194   5.750 -2.1450 -1.7061 -0.0100
  608MOL0     H80199  -0.276   4.301   5.992 -1.3950  0.3270  0.0223
  608MOL0     H80200  -0.268   4.366   5.828  0.3037 -0.5639  0.4551
  608MOL0     H80201  -0.472   4.241   5.892  2.5029  4.0498 -0.2423
  608MOL0     H80202  -0.386   4.088   5.906 -1.8057  0.6818  0.9517
  608MOL0     H80203  -0.329   4.083   5.668 -0.1874  1.3645 -2.6575
  608MOL0     H80204  -0.394   4.243   5.642 -2.7133 -1.3090 -0.7233
  608MOL0     H80205  -0.555   3.997   5.729 -3.0552 -0.2758 -2.0182
  608MOL0     H80206  -0.614   4.149   5.756  1.0273 -0.7336  2.4410
  608MOL0     H80207  -0.540   4.038   5.473  0.7841  1.0182 -0.9758
  608MOL0     H80208  -0.586   4.203   5.511 -3.1555  0.3547 -0.7919
  608MOL0     H80209  -0.729   3.878   5.676 -0.7759  0.3633  0.5939
  608MOL0     H80210  -0.939   3.750   5.684 -0.8057  0.8266  0.3552
  608MOL0     H80211  -1.004   3.735   5.521 -0.5519 -0.8915  0.3866
  608MOL0     H80212  -1.149   3.947   5.588  0.4707  1.7843 -0.6170
  608MOL0     H80213  -1.098   3.919   5.754 -2.2526 -0.3708 -0.1535
  608MOL0     H80214  -1.234   3.702   5.582  2.2542  1.6968 -0.9715
  608MOL0     H80215  -1.223   3.715   5.767 -1.2877  3.0289  3.3476
  608MOL0     H80216  -1.407   3.887   5.604  1.6656 -0.5132 -0.3789
  608MOL0     H80217  -1.362   3.918   5.770 -1.4042  0.3851  0.6843
  608MOL0     H80218  -1.673   3.574   5.770  1.7966  1.1647 -0.1692
  608MOL0     H80219  -1.904   3.615   5.724  0.0128  0.5232  1.2069
  608MOL0     H80220  -2.291   3.946   5.781 -0.9165  1.2771 -0.1286
  608MOL0     H80221  -2.531   3.948   5.739 -0.4024  0.1360  0.8039
  608MOL0     H80222  -2.733   3.627   5.772 -2.9380 -0.2710  0.6952
  608MOL0     H80223  -2.709   3.567   5.601  3.4903  2.0211  0.1102
  608MOL0     H80224  -2.941   3.583   5.627 -1.4084  0.7179  0.9198
  608MOL0     H80225  -2.883   3.714   5.520  0.1014 -1.3838 -0.0806
  608MOL0     H80226  -2.862   3.855   5.745  1.4521 -1.0387  0.9533
  608MOL0     H80227  -2.960   3.734   5.822  1.0737 -1.2018 -0.3721
  608MOL0     H80228  -3.094   3.922   5.722 -0.9304  0.5551 -1.6114
  608MOL0     H80229  -3.042   3.864   5.561  3.9830 -0.4520 -0.8731
  608MOL0     H80230  -3.183   3.684   5.776  2.1224  1.3388  1.3172
  608MOL0     H80231  -3.151   3.635   5.607 -0.8450  1.7273 -2.1392
  608MOL0     H80232  -3.297   3.818   5.531 -1.1657 -0.4031 -1.1884
  608MOL0     H80233  -3.319   3.882   5.688 -2.0485 -0.1735 -1.7808
  608MOL0     H80234  -3.418   3.648   5.760 -1.3681 -3.4015 -1.0335
  608MOL0     H80235  -3.523   3.756   5.682  0.0461 -0.1333 -1.1481
  608MOL0     H80236  -3.531   3.537   5.575 -1.7340  1.0776 -1.2542
  608MOL0     H80237  -3.356   3.562   5.516 -1.4793  0.0279 -0.7836
  608MOL0     H80238  -2.508   3.568   5.545  0.9785 -0.1533 -0.0845
  608MOL0     H80239  -2.252   3.563   5.581  2.7583  1.5099 -0.2557
  608MOL0     H80240  -1.819   4.025   5.636  2.0617  0.2810 -0.1446
  608MOL0     H80241  -1.582   3.985   5.671  1.6479 -0.5662 -1.7302
  608MOL0     H80242   0.354   4.086   5.851 -0.7891  0.2349  0.2244
  608MOL0     H80243   0.562   3.980   5.882  1.7606 -2.7518  1.5833
  608MOL0     H80244   0.883   3.881   5.923  1.9541 -2.0012 -0.9687
  608MOL0     H80245   1.130   3.851   5.863  2.4777 -1.5197  1.6594
  608MOL0     H80246   1.470   3.927   6.153  0.9320  3.6223  1.9621
  608MOL0     H80247   1.400   4.076   6.087 -2.6662 -0.3608  1.4670
  608MOL0     H80248   1.504   4.042   5.858  0.5071  0.0769  1.1320
  608MOL0     H80249   1.628   4.037   5.984 -1.1348  0.5681  1.6058
  608MOL0     H80250   1.515   3.804   5.841 -1.9776  0.8159  1.0141
  608MOL0     H80251   1.613   3.797   5.992  1.3275  0.3462 -0.2148
  608MOL0     H80252   1.790   3.930   5.846  0.9568  0.2708 -0.4717
  608MOL0     H80253   1.754   3.766   5.789 -3.4661 -0.9790  1.5939
  608MOL0     H80254   1.620   4.007   5.470 -1.4358  1.6820  1.5220
  608MOL0     H80255   1.252   4.006   6.238  2.0240  0.1599 -2.4528
  608MOL0     H80256   1.009   4.072   6.289 -0.6769 -0.0283 -0.9618
  609MOL0     O80257   9.961   0.040   6.651  0.6617  0.1871 -0.3355
  609MOL0     C80258  10.060   0.097   6.607 -0.6945 -0.3265 -0.3321
  609MOL0     O80259  10.061   0.186   6.511 -0.2537 -0.3352  0.1809
  609MOL0     C80260   9.939   0.205   6.451  0.3623 -0.3283  0.3933
  609MOL0     C80261   9.909   0.144   6.335 -0.1189 -0.1867 -0.2452
  609MOL0     C80262   9.781   0.165   6.280 -0.0042  0.1435  0.5727
  609MOL0     C80263   9.685   0.254   6.328 -0.5191  0.7421 -0.2923
  609MOL0     O80264   9.557   0.272   6.272  0.1460 -0.3163 -0.0832
  609MOL0     C80265   9.443   0.297   6.361 -0.1378 -0.8079  0.6971
  609MOL0     C80266   9.315   0.244   6.304  0.0788  0.1511 -0.1434
  609MOL0     C80267   9.216   0.226   6.426 -0.1675  0.4117  0.4243
  609MOL0     C80268   9.077   0.191   6.386  0.2672  0.4724 -0.3002
  609MOL0     C80269   8.981   0.226   6.504  0.2981 -0.7552  0.8921
  609MOL0     C80270   8.836   0.179   6.485 -0.1010 -0.3694 -0.4478
  609MOL0     C80271   8.819   0.030   6.523 -1.3121  0.2940 -0.5889
  609MOL0     C80272   8.678  -0.022   6.484  0.2143  0.5944 -0.0255
  609MOL0     N80273   8.639  -0.160   6.532 -0.0553 -0.0340  0.5743
  609MOL0     C80274   8.692  -0.229   6.645  0.3637 -0.5636  0.3086
  609MOL0     C80275   8.608  -0.335   6.658  0.2914  1.0576  0.5403
  609MOL0     C80276   8.640  -0.449   6.750 -0.6987  0.3517 -0.1072
  609MOL0     C80277   8.713  -0.573   6.684 -0.4634 -0.5950 -0.0487
  609MOL0     C80278   8.646  -0.616   6.550 -0.2208  0.2297  0.1992
  609MOL0     C80279   8.509  -0.666   6.578 -0.1677  0.7239  0.2925
  609MOL0     O80280   8.477  -0.771   6.485 -0.4762  0.2095  0.8367
  609MOL0     C80281   8.501  -0.901   6.529  0.0518  0.4186 -0.0475
  609MOL0     C80282   8.441  -1.008   6.463 -0.6940 -0.0490 -0.4373
  609MOL0     C80283   8.455  -1.144   6.524 -0.4518  0.1697  0.1092
  609MOL0     C80284   8.529  -1.160   6.638 -0.3325  0.0694  0.3348
  609MOL0     C80285   8.555  -1.297   6.686 -0.0889  1.7127 -0.1294
  609MOL0     O80286   8.471  -1.394   6.633 -0.4820 -0.1414  0.7243
  609MOL0     C80287   8.482  -1.512   6.690  0.7548 -0.6569 -0.3358
  609MOL0     C80288   8.435  -1.539   6.821 -0.0619  0.6106 -0.2920
  609MOL0     C80289   8.451  -1.670   6.864  0.2434  0.0016  0.1417
  609MOL0     C80290   8.506  -1.771   6.782  0.6173  0.6854 -0.4700
  609MOL0     O80291   8.524  -1.896   6.834  0.1219  0.0644  0.2858
  609MOL0     C80292   8.578  -2.012   6.753 -0.8865  0.7800 -0.0733
  609MOL0     C80293   8.726  -2.011   6.767  0.0543  0.4089  0.3109
  609MOL0     C80294   8.781  -2.148   6.722 -0.8399  0.3835  0.2057
  609MOL0     C80295   8.793  -2.152   6.571  0.4866  0.2100 -0.5556
  609MOL0     C80296   8.818  -2.292   6.511 -0.1722 -0.2043 -0.2249
  609MOL0     C80297   8.854  -2.267   6.364 -0.2055 -0.6261  0.5059
  609MOL0     C80298   8.874  -2.397   6.279  0.3986  0.3430 -0.1695
  609MOL0     C80299   8.984  -2.369   6.175 -0.1551 -0.2715  0.5017
  609MOL0    Cl80300   8.922  -2.242   6.075 -0.2798 -0.0068 -0.5514
  609MOL0     C80301   8.550  -1.742   6.653 -0.4074 -0.5681  0.2767
  609MOL0     C80302   8.535  -1.617   6.603  0.2113  0.3012 -0.8586
  609MOL0     O80303   8.638  -1.315   6.778 -0.1338  0.5433  0.0306
  609MOL0     C80304   8.591  -1.052   6.701  0.0234  0.0753 -0.4995
  609MOL0     C80305   8.571  -0.929   6.649 -0.8858 -0.5255  0.1847
  609MOL0     N80306   8.501  -0.324   6.568  0.0043  0.2829 -0.2039
  609MOL0     N80307   8.518  -0.216   6.506  0.3643 -1.3576  0.3692
  609MOL0     C80308   9.719   0.320   6.446  0.6905 -0.6453  0.2061
  609MOL0     C80309   9.847   0.292   6.508 -0.1117 -0.3267 -0.0265
  609MOL0     C80310  10.187   0.059   6.660  0.1591  0.0034 -0.5458
  609MOL0     C80311  10.302   0.144   6.653  0.1846 -0.1758  0.4213
  609MOL0     C80312  10.413   0.114   6.726 -0.0758 -0.7462 -0.4556
  609MOL0     C80313  10.425  -0.009   6.793  0.0837  1.2787  0.4007
  609MOL0     O80314  10.524  -0.036   6.880 -0.1548 -0.4816 -0.1165
  609MOL0     C80315  10.648   0.033   6.876  0.8040  0.0686 -0.1346
  609MOL0     C80316  10.747  -0.062   6.940  0.0847 -0.3313  0.7623
  609MOL0     C80317  10.892  -0.015   6.954 -0.3873  0.2520 -0.7929
  609MOL0     C80318  10.895   0.113   7.037 -0.5303  0.1053 -0.6764
  609MOL0     C80319  11.034   0.152   7.049  0.4027 -0.4719  0.6519
  609MOL0     C80320  11.155   0.172   7.044  0.2647  0.2911  0.0427
  609MOL0     C80321  10.325  -0.104   6.785  0.9454 -0.2853 -0.6775
  609MOL0     C80322  10.203  -0.069   6.723  0.7767 -0.3756 -0.0477
  609MOL0     H80323   9.971   0.075   6.278 -1.2575 -0.7463 -0.8423
  609MOL0     H80324   9.748   0.126   6.184  1.0308  1.1164 -0.2045
  609MOL0     H80325   9.440   0.406   6.370 -0.2839 -0.8261  0.8728
  609MOL0     H80326   9.461   0.251   6.459 -0.9941 -0.2988  1.1069
  609MOL0     H80327   9.334   0.150   6.252 -1.9996  0.3536 -1.3829
  609MOL0     H80328   9.281   0.319   6.232 -1.4656 -0.2541  0.1290
  609MOL0     H80329   9.206   0.308   6.497 -3.4441 -1.2633  2.1487
  609MOL0     H80330   9.257   0.141   6.480 -1.0521 -0.4175 -0.1635
  609MOL0     H80331   9.032   0.246   6.303 -0.3103 -1.1315 -1.0996
  609MOL0     H80332   9.072   0.084   6.363 -1.3660  0.0751  1.6547
  609MOL0     H80333   8.975   0.335   6.499 -1.2863 -0.7817  1.5463
  609MOL0     H80334   9.022   0.192   6.600  1.8675  0.5124  0.7096
  609MOL0     H80335   8.794   0.187   6.385 -4.0679  0.2244  1.0936
  609MOL0     H80336   8.770   0.235   6.551  0.5072 -0.0545 -0.0900
  609MOL0     H80337   8.884  -0.042   6.472 -1.8928 -1.2403  0.7601
  609MOL0     H80338   8.834   0.021   6.631 -3.9811  0.3968 -0.1533
  609MOL0     H80339   8.663  -0.016   6.376 -3.0951  1.8558  0.4067
  609MOL0     H80340   8.604   0.050   6.520 -1.5670  0.6263 -3.3188
  609MOL0     H80341   8.769  -0.207   6.719  0.7028 -0.4225 -0.0840
  609MOL0     H80342   8.557  -0.498   6.802 -0.0069 -3.3257 -2.1458
  609MOL0     H80343   8.699  -0.413   6.835 -0.3289 -0.0393 -0.1985
  609MOL0     H80344   8.717  -0.654   6.756 -2.1051  0.9502  1.9052
  609MOL0     H80345   8.817  -0.541   6.671 -1.1391  1.7546 -0.1731
  609MOL0     H80346   8.637  -0.537   6.475  0.1760 -0.6083 -0.7576
  609MOL0     H80347   8.710  -0.686   6.495  0.6908  1.7444 -0.7412
  609MOL0     H80348   8.436  -0.586   6.568  0.3417  1.2136  0.4353
  609MOL0     H80349   8.487  -0.699   6.680  0.0282 -0.0025  0.1110
  609MOL0     H80350   8.394  -0.988   6.367 -0.0247 -1.4240 -1.0659
  609MOL0     H80351   8.405  -1.226   6.472 -0.5655 -0.5206  1.2658
  609MOL0     H80352   8.399  -1.457   6.882  0.4532 -0.4982  1.5692
  609MOL0     H80353   8.418  -1.697   6.963 -1.3008 -2.1137 -0.8777
  609MOL0     H80354   8.558  -2.001   6.646  1.5723 -1.9200 -0.9337
  609MOL0     H80355   8.544  -2.106   6.796 -0.8742  0.4670 -0.7279
  609MOL0     H80356   8.762  -1.995   6.869  0.9633 -1.5092  0.3376
  609MOL0     H80357   8.770  -1.927   6.713  1.3971  0.5868  1.6093
  609MOL0     H80358   8.729  -2.230   6.773  0.8810 -1.3268 -0.6650
  609MOL0     H80359   8.877  -2.151   6.774 -1.0705  1.8192  0.7654
  609MOL0     H80360   8.706  -2.123   6.511 -0.0234 -0.6093 -0.2220
  609MOL0     H80361   8.865  -2.078   6.534 -1.6501  1.6120 -2.1354
  609MOL0     H80362   8.738  -2.366   6.522 -0.6246 -0.0031 -1.8536
  609MOL0     H80363   8.903  -2.337   6.564  0.0959  0.1700 -0.3303
  609MOL0     H80364   8.934  -2.193   6.350  0.7672 -0.4871  5.1165
  609MOL0     H80365   8.766  -2.213   6.328  1.2013  1.4443 -0.0542
  609MOL0     H80366   8.900  -2.477   6.349 -1.5268 -0.1299  0.0585
  609MOL0     H80367   8.782  -2.442   6.241 -1.3053  0.4538  3.3897
  609MOL0     H80368   9.008  -2.453   6.108  0.4940  0.4852 -0.2473
  609MOL0     H80369   9.082  -2.343   6.217  0.3396  0.4720 -1.0332
  609MOL0     H80370   8.602  -1.820   6.598  1.7609  0.1488  1.1827
  609MOL0     H80371   8.567  -1.603   6.500 -1.8591 -0.0972 -1.6153
  609MOL0     H80372   8.645  -1.055   6.795  0.5087 -1.3063 -0.7929
  609MOL0     H80373   8.605  -0.846   6.711 -1.5517  0.1526 -0.3462
  609MOL0     H80374   9.652   0.395   6.485  0.5997 -0.6791  0.1158
  609MOL0     H80375   9.868   0.361   6.589 -1.1500  0.6908 -0.5912
  609MOL0     H80376  10.299   0.242   6.607 -1.0534 -0.2431  0.3103
  609MOL0     H80377  10.480   0.199   6.736 -0.2683 -0.7475  1.1871
  609MOL0     H80378  10.651   0.124   6.935 -0.9815  0.2678 -0.3014
  609MOL0     H80379  10.675   0.058   6.773  0.8395 -0.5217 -0.2772
  609MOL0     H80380  10.715  -0.095   7.039  0.1668 -1.0517  0.5526
  609MOL0     H80381  10.744  -0.154   6.882  2.0151  0.0764 -0.0747
  609MOL0     H80382  10.935   0.012   6.857  0.8513  2.6474  0.3296
  609MOL0     H80383  10.952  -0.093   7.001 -0.4482  0.7092  0.0728
  609MOL0     H80384  10.831   0.191   6.996 -3.7695 -0.4151  2.8451
  609MOL0     H80385  10.851   0.098   7.136 -3.4468  1.9549 -1.5767
  609MOL0     H80386  11.262   0.173   7.035  0.2469 -0.0925 -0.2231
  609MOL0     H80387  10.334  -0.194   6.846  0.9906  1.3314  1.8534
  609MOL0     H80388  10.118  -0.137   6.728  0.7580 -0.2694  2.1712
  610MOL0     O80389   7.927  11.136   6.448 -0.3119  0.2019 -0.1304
  610MOL0     C80390   7.876  11.057   6.374 -0.0385  0.9807 -0.2282
  610MOL0     O80391   7.762  11.068   6.309 -0.2801 -0.3071  0.3520
  610MOL0     C80392   7.685  11.175   6.343  0.1846 -0.2265  0.2947
  610MOL0     C80393   7.676  11.287   6.258 -0.3691  1.0301  0.2580
  610MOL0     C80394   7.585  11.390   6.278 -0.6646 -0.0580 -0.4777
  610MOL0     C80395   7.482  11.380   6.373  0.4081  0.0853  1.1355
  610MOL0     O80396   7.395  11.484   6.383 -0.4813  0.3883  0.1619
  610MOL0     C80397   7.261  11.432   6.349 -0.2565 -0.4269  0.7036
  610MOL0     C80398   7.164  11.549   6.383 -1.1697  0.4185  0.4916
  610MOL0     C80399   7.177  11.668   6.288  0.3274  0.3481 -0.2947
  610MOL0     C80400   7.093  11.786   6.338 -0.4804  1.0999  0.6370
  610MOL0     C80401   7.106  11.902   6.237 -0.4288 -1.0671  0.7202
  610MOL0     C80402   7.051  12.032   6.306  0.2535  0.0215 -0.7693
  610MOL0     C80403   7.017  12.146   6.212  0.6141 -0.4178 -0.4335
  610MOL0     C80404   6.888  12.123   6.138  0.5316 -0.3615 -0.0303
  610MOL0     N80405   6.856  12.235   6.057 -0.3926 -0.1335 -0.2156
  610MOL0     C80406   6.731  12.270   6.024 -0.3408 -1.3643  0.1331
  610MOL0     C80407   6.744  12.370   5.929  0.0185 -1.0984 -0.3868
  610MOL0     C80408   6.643  12.464   5.874  0.4670  0.2710 -0.0814
  610MOL0     C80409   6.536  12.383   5.798 -1.0726  0.0502  0.5371
  610MOL0     C80410   6.394  12.377   5.850 -0.7419 -0.5639  0.0650
  610MOL0     C80411   6.341  12.517   5.881  0.5231  0.1021  0.0453
  610MOL0     O80412   6.195  12.502   5.891 -0.3814  0.0995 -0.3986
  610MOL0     C80413   6.104  12.606   5.917  0.1878  0.6780  0.2184
  610MOL0     C80414   6.138  12.738   5.938 -0.2355  0.6005  0.5891
  610MOL0     C80415   6.042  12.837   5.965  0.7581 -0.0631 -0.6224
  610MOL0     C80416   5.909  12.803   5.975  0.0677  0.3979 -0.0211
  610MOL0     C80417   5.812  12.906   6.019 -0.7242  0.0951  0.1678
  610MOL0     O80418   5.859  13.035   6.013  0.1750  0.4170 -0.8399
  610MOL0     C80419   5.771  13.134   6.033  1.0851 -0.1980  0.2725
  610MOL0     C80420   5.675  13.161   5.936  0.4202 -0.6466  0.3678
  610MOL0     C80421   5.581  13.263   5.956 -0.4707 -0.3715  0.3146
  610MOL0     C80422   5.594  13.343   6.071 -0.5822  0.2301  0.0269
  610MOL0     O80423   5.514  13.451   6.083  1.3764  0.4328  0.0392
  610MOL0     C80424   5.379  13.429   6.134  0.8975  0.2487  0.3734
  610MOL0     C80425   5.354  13.545   6.231 -0.3022 -0.1233 -0.4239
  610MOL0     C80426   5.214  13.527   6.298  0.4136  0.5141 -0.6425
  610MOL0     C80427   5.185  13.649   6.387  0.2556 -0.5905 -0.7260
  610MOL0     C80428   5.057  13.649   6.470 -0.2213 -0.0319  0.0763
  610MOL0     C80429   5.044  13.779   6.545  1.0479 -0.3169 -0.3257
  610MOL0     C80430   4.898  13.801   6.597 -0.4933  0.5199  0.6771
  610MOL0     C80431   4.873  13.923   6.688  0.5499 -0.7139  0.0836
  610MOL0    Cl80432   4.712  13.909   6.779 -0.1417 -0.1563  0.1529
  610MOL0     C80433   5.698  13.322   6.163 -0.2489  0.3907  0.3891
  610MOL0     C80434   5.786  13.218   6.146  0.6510  0.6724  0.4163
  610MOL0     O80435   5.694  12.869   6.038  0.0250 -0.4615 -0.5309
  610MOL0     C80436   5.877  12.670   5.944  0.4525  0.1558  0.6074
  610MOL0     C80437   5.971  12.569   5.916  0.1403 -0.2059  0.1408
  610MOL0     N80438   6.879  12.388   5.889 -0.2810  0.1504 -0.4020
  610MOL0     N80439   6.939  12.300   5.968 -0.2426 -0.9109 -0.6594
  610MOL0     C80440   7.484  11.265   6.448  0.4327  0.2551 -0.0023
  610MOL0     C80441   7.585  11.159   6.439  0.7859 -0.8817 -0.5406
  610MOL0     C80442   7.949  10.934   6.352  0.5103  0.9579  1.0936
  610MOL0     C80443   7.895  10.842   6.253 -0.2265  0.5716  0.4473
  610MOL0     C80444   7.958  10.726   6.234  0.7247 -0.9224 -0.0973
  610MOL0     C80445   8.080  10.701   6.292  0.1615  0.2278  0.4889
  610MOL0     O80446   8.136  10.578   6.261 -0.7177  0.1201  0.2027
  610MOL0     C80447   8.275  10.584   6.231 -0.0982  0.3664 -0.0599
  610MOL0     C80448   8.301  10.497   6.104 -0.1408 -0.5254 -0.2254
  610MOL0     C80449   8.222  10.363   6.115  0.2469  1.0139 -0.2055
  610MOL0     C80450   8.263  10.274   5.994  1.1556 -0.1763 -0.2597
  610MOL0     C80451   8.194  10.140   6.004  0.2154 -0.8759 -0.4364
  610MOL0     C80452   8.140  10.030   6.025 -1.1005 -0.2076 -0.2258
  610MOL0     C80453   8.145  10.796   6.377 -0.0192  0.0857  0.1244
  610MOL0     C80454   8.076  10.910   6.408 -0.0918  1.1940 -0.4658
  610MOL0     H80455   7.760  11.289   6.189  1.1806 -1.8449  1.8617
  610MOL0     H80456   7.587  11.478   6.214  1.0521  0.9758  0.9011
  610MOL0     H80457   7.232  11.345   6.407  0.5790 -0.2572  1.3944
  610MOL0     H80458   7.255  11.410   6.242  0.2731  2.3619  0.0144
  610MOL0     H80459   7.191  11.591   6.480  2.1367  0.8203 -0.4607
  610MOL0     H80460   7.060  11.517   6.386 -1.0376  0.0041  0.7368
  610MOL0     H80461   7.155  11.638   6.185 -0.0997  1.0403 -0.4104
  610MOL0     H80462   7.282  11.699   6.285  1.3056 -2.6118 -1.3796
  610MOL0     H80463   6.991  11.744   6.340  0.5996 -1.7424  0.4105
  610MOL0     H80464   7.119  11.804   6.443  0.7635  0.1770  0.5059
  610MOL0     H80465   7.041  11.884   6.151  0.3068 -0.6969  0.0710
  610MOL0     H80466   7.206  11.911   6.194 -0.7825 -4.4586 -1.1176
  610MOL0     H80467   7.124  12.070   6.378 -2.0652  0.9250  1.2490
  610MOL0     H80468   6.969  12.006   6.373 -0.7111 -2.4976 -2.7242
  610MOL0     H80469   6.997  12.235   6.273 -0.6343 -0.7581 -0.3170
  610MOL0     H80470   7.104  12.162   6.147 -0.2888  0.3739 -1.4901
  610MOL0     H80471   6.816  12.112   6.220  1.7648 -0.2174  1.1116
  610MOL0     H80472   6.909  12.035   6.076  0.2659 -1.6047  1.5824
  610MOL0     H80473   6.645  12.233   6.078 -0.9401  1.0460  0.9776
  610MOL0     H80474   6.679  12.539   5.803 -2.7187  1.2158 -0.8746
  610MOL0     H80475   6.607  12.529   5.955  2.5637 -0.7037  1.7525
  610MOL0     H80476   6.571  12.281   5.785 -0.8949  0.3006 -1.2005
  610MOL0     H80477   6.533  12.421   5.695 -3.9420  1.1168  0.8988
  610MOL0     H80478   6.340  12.321   5.774  2.1194 -2.1895 -0.9183
  610MOL0     H80479   6.385  12.322   5.944 -1.4319  1.5852  1.3233
  610MOL0     H80480   6.364  12.589   5.802 -0.0539  1.2633  0.9106
  610MOL0     H80481   6.373  12.560   5.976  0.4795  0.6442 -0.1849
  610MOL0     H80482   6.242  12.768   5.927 -0.6061  0.9115 -4.1979
  610MOL0     H80483   6.072  12.939   5.986  0.2134  1.6039 -6.2143
  610MOL0     H80484   5.666  13.097   5.849  0.3858 -1.7779  1.1722
  610MOL0     H80485   5.497  13.286   5.892 -0.3913 -0.0147  0.3357
  610MOL0     H80486   5.374  13.329   6.178 -0.0150 -0.1833 -0.6413
  610MOL0     H80487   5.305  13.430   6.053  1.3614  1.4497 -0.0605
  610MOL0     H80488   5.369  13.638   6.174  0.3517  0.8338  1.2416
  610MOL0     H80489   5.428  13.547   6.311 -0.1430 -0.1290 -0.5709
  610MOL0     H80490   5.219  13.430   6.349  2.5133 -0.6907 -2.9179
  610MOL0     H80491   5.133  13.521   6.225 -1.7025  1.2755  1.5224
  610MOL0     H80492   5.268  13.677   6.453  0.7324  1.5330 -2.1186
  610MOL0     H80493   5.174  13.732   6.317  2.7892  0.7561  0.3449
  610MOL0     H80494   5.059  13.566   6.541  0.3016  0.9518  1.2395
  610MOL0     H80495   4.974  13.627   6.402  1.2731 -0.2032 -1.8129
  610MOL0     H80496   5.062  13.864   6.479 -0.8253  0.1399 -0.3000
  610MOL0     H80497   5.110  13.783   6.632  1.8896 -0.3879 -0.9413
  610MOL0     H80498   4.830  13.799   6.511  0.1109 -3.9700  0.0485
  610MOL0     H80499   4.871  13.712   6.654  0.1803  0.0154  0.2162
  610MOL0     H80500   4.872  14.015   6.628  0.6346 -1.3092 -0.8620
  610MOL0     H80501   4.953  13.933   6.761  0.1514  0.1316  0.4148
  610MOL0     H80502   5.705  13.384   6.252  2.2984 -0.5277  0.8965
  610MOL0     H80503   5.873  13.211   6.210  0.3473 -0.1752  0.7401
  610MOL0     H80504   5.773  12.646   5.962  0.1231  2.1133  1.5254
  610MOL0     H80505   5.927  12.473   5.895 -0.9986  0.1492  0.7806
  610MOL0     H80506   7.400  11.251   6.515  2.2902 -4.6558  1.7651
  610MOL0     H80507   7.568  11.072   6.502 -1.1547  0.4376  0.8871
  610MOL0     H80508   7.799  10.849   6.202 -0.6855  0.5126  1.2819
  610MOL0     H80509   7.925  10.662   6.153  3.2744  1.2925 -3.1703
  610MOL0     H80510   8.337  10.534   6.305  1.6186 -0.7590 -2.1485
  610MOL0     H80511   8.309  10.687   6.213  0.2713  0.6093  1.8251
  610MOL0     H80512   8.266  10.553   6.017 -1.9666  0.2996  0.9815
  610MOL0     H80513   8.408  10.475   6.097  0.5207  2.7163 -3.4287
  610MOL0     H80514   8.115  10.383   6.104  0.3141  0.1738 -2.9332
  610MOL0     H80515   8.239  10.319   6.214  2.4936  1.1975 -0.4710
  610MOL0     H80516   8.243  10.323   5.898 -0.2431  1.0271  0.6025
  610MOL0     H80517   8.372  10.264   5.996  1.1761 -0.0062  1.8080
  610MOL0     H80518   8.076   9.944   6.030 -0.7314 -0.4001  1.7178
  610MOL0     H80519   8.241  10.784   6.425  1.1278  0.5740 -1.9589
  610MOL0     H80520   8.117  10.976   6.485  0.8034  0.1908 -0.0494
  611MOL0     O80521   6.666   1.126   7.092 -0.2345  0.0381 -0.3270
  611MOL0     C80522   6.676   1.011   7.056  0.1776  0.4773  1.0940
  611MOL0     O80523   6.592   0.943   6.961  0.9997  0.1995  0.2479
  611MOL0     C80524   6.480   1.009   6.915  0.2294 -0.0408  0.6139
  611MOL0     C80525   6.488   1.127   6.844  0.2175 -0.5232 -0.2770
  611MOL0     C80526   6.373   1.202   6.803  0.0836  0.1243 -0.5316
  611MOL0     C80527   6.244   1.149   6.837  0.8443 -0.2790  0.7479
  611MOL0     O80528   6.131   1.225   6.791 -1.0047 -0.2673 -0.4267
  611MOL0     C80529   6.012   1.164   6.820  0.2824  0.3446  0.5095
  611MOL0     C80530   5.892   1.239   6.764  0.0987  0.0769 -0.1973
  611MOL0     C80531   5.761   1.152   6.780 -0.4367 -0.1420  0.4945
  611MOL0     C80532   5.639   1.251   6.797 -0.6496 -0.2758  0.2982
  611MOL0     C80533   5.503   1.202   6.753  0.1652  0.2922  0.4613
  611MOL0     C80534   5.415   1.313   6.697 -1.1107 -0.0740  0.4408
  611MOL0     C80535   5.278   1.273   6.658  0.5576  0.5220  0.4183
  611MOL0     C80536   5.196   1.393   6.629  0.0705  0.1397 -0.1186
  611MOL0     N80537   5.075   1.351   6.553 -0.4974 -0.3713  0.5526
  611MOL0     C80538   4.981   1.270   6.601  0.1236  0.5291 -0.2861
  611MOL0     C80539   4.889   1.268   6.505 -0.6047  0.0638  0.0406
  611MOL0     C80540   4.763   1.190   6.519 -0.4903 -0.0762 -0.4623
  611MOL0     C80541   4.679   1.206   6.388  0.2608  0.5127 -0.4430
  611MOL0     C80542   4.559   1.110   6.388  0.2476 -0.5715  0.0744
  611MOL0     C80543   4.499   1.065   6.261 -0.5725 -0.1371  0.5086
  611MOL0     O80544   4.414   0.948   6.270 -0.0949 -1.0065  0.1726
  611MOL0     C80545   4.278   0.962   6.286 -0.1269 -0.3447 -0.3379
  611MOL0     C80546   4.210   0.844   6.312  0.2883  0.8571  0.6302
  611MOL0     C80547   4.071   0.838   6.325  0.4142 -0.2938 -0.3382
  611MOL0     C80548   3.992   0.953   6.314  0.5207 -0.1796 -0.2933
  611MOL0     C80549   3.842   0.943   6.347 -0.0784  0.4560 -0.3203
  611MOL0     O80550   3.790   0.820   6.374 -0.1693  0.2694 -0.3397
  611MOL0     C80551   3.664   0.827   6.429  0.2585 -0.5468 -0.4497
  611MOL0     C80552   3.553   0.822   6.346  0.5817  0.0648  0.2131
  611MOL0     C80553   3.428   0.816   6.395  0.8144  0.4858  0.5140
  611MOL0     C80554   3.403   0.814   6.531  0.0640 -0.8465  0.0055
  611MOL0     O80555   3.271   0.798   6.579  0.2052 -0.0349  0.5724
  611MOL0     C80556   3.202   0.928   6.599 -0.7143  0.3447  0.7120
  611MOL0     C80557   3.097   0.955   6.485  0.0545  0.3433  0.4075
  611MOL0     C80558   3.018   1.094   6.498 -0.3243  0.2170  0.3008
  611MOL0     C80559   2.989   1.124   6.651 -0.8081 -0.1623  0.7655
  611MOL0     C80560   2.910   1.261   6.652  0.5290  1.2199 -0.0396
  611MOL0     C80561   2.848   1.310   6.780 -0.3515  0.4316  0.0517
  611MOL0     C80562   2.729   1.209   6.829 -0.4773 -0.4134  0.2269
  611MOL0     C80563   2.600   1.215   6.757  1.0491 -0.5078  0.3824
  611MOL0    Cl80564   2.510   1.365   6.805  0.4108 -0.4069  0.1403
  611MOL0     C80565   3.508   0.803   6.621 -0.6139  0.1233 -0.2175
  611MOL0     C80566   3.645   0.810   6.565 -0.2461 -0.6305 -0.1316
  611MOL0     O80567   3.773   1.048   6.343  0.3676 -0.2178 -0.3015
  611MOL0     C80568   4.057   1.070   6.284 -0.2917 -0.7293  0.3583
  611MOL0     C80569   4.200   1.073   6.270 -0.2781  0.4761 -0.1414
  611MOL0     N80570   4.936   1.344   6.396  0.6290  0.1727  0.4953
  611MOL0     N80571   5.056   1.392   6.425  0.0175 -0.1200 -0.5766
  611MOL0     C80572   6.241   1.018   6.898 -0.0116 -0.4882 -0.0388
  611MOL0     C80573   6.361   0.955   6.933  0.2711  0.6580 -0.1377
  611MOL0     C80574   6.783   0.921   7.122 -0.2420 -0.1280 -0.0816
  611MOL0     C80575   6.800   0.787   7.085  0.4034  0.4263  1.3346
  611MOL0     C80576   6.906   0.714   7.131  1.0379  0.1001  0.8188
  611MOL0     C80577   7.002   0.771   7.215  0.1357  0.1551 -0.1115
  611MOL0     O80578   7.109   0.706   7.274  0.3403  0.1319 -0.3949
  611MOL0     C80579   7.139   0.579   7.228  0.0540  0.8573  0.0904
  611MOL0     C80580   7.270   0.535   7.294 -0.3814 -0.8303 -0.0844
  611MOL0     C80581   7.378   0.642   7.285 -0.4856 -0.6851  0.0708
  611MOL0     C80582   7.518   0.594   7.316 -0.2429 -0.3293  0.6150
  611MOL0     C80583   7.619   0.699   7.312 -0.0385 -1.0191  0.0006
  611MOL0     C80584   7.671   0.809   7.299 -0.0708 -0.0495 -0.1899
  611MOL0     C80585   6.983   0.907   7.260 -0.4265 -0.4105 -0.2631
  611MOL0     C80586   6.876   0.982   7.211  0.0400  0.3477  0.1495
  611MOL0     H80587   6.580   1.185   6.842 -1.9273  3.4617  2.5927
  611MOL0     H80588   6.373   1.304   6.767  0.5831  0.9235  1.5539
  611MOL0     H80589   6.002   1.155   6.929  0.1309  0.4507  0.5038
  611MOL0     H80590   6.016   1.060   6.785  1.6600  0.8576 -0.9830
  611MOL0     H80591   5.908   1.253   6.657 -0.6448 -0.9932 -0.4676
  611MOL0     H80592   5.884   1.342   6.799 -2.2634 -0.2752  0.4442
  611MOL0     H80593   5.775   1.092   6.870 -1.0425 -1.5824 -0.3324
  611MOL0     H80594   5.745   1.082   6.698 -0.0748  1.0842 -0.6652
  611MOL0     H80595   5.641   1.282   6.902 -4.9453 -2.5483  1.2797
  611MOL0     H80596   5.656   1.343   6.741 -1.0599  0.4904  1.3801
  611MOL0     H80597   5.445   1.163   6.837  0.6149 -0.9106  0.2231
  611MOL0     H80598   5.513   1.121   6.680  3.1980  0.6912  0.3058
  611MOL0     H80599   5.468   1.345   6.607  0.1422  0.0500  1.1900
  611MOL0     H80600   5.403   1.399   6.763 -4.4436  1.1890 -1.5821
  611MOL0     H80601   5.280   1.213   6.566 -1.3717 -0.8738  1.2007
  611MOL0     H80602   5.229   1.223   6.743  1.1864  0.7889  0.9399
  611MOL0     H80603   5.259   1.467   6.578  2.0057 -2.7860 -2.3068
  611MOL0     H80604   5.163   1.439   6.723 -0.8206 -2.1629  0.7548
  611MOL0     H80605   5.004   1.206   6.686  2.5983 -1.5662 -2.3709
  611MOL0     H80606   4.708   1.242   6.598 -0.8947 -1.2278  0.0416
  611MOL0     H80607   4.790   1.087   6.543  0.4301  0.4314  0.8039
  611MOL0     H80608   4.747   1.175   6.308 -0.9195  0.3365 -1.4088
  611MOL0     H80609   4.648   1.311   6.378  1.5231  0.8228 -1.3264
  611MOL0     H80610   4.580   1.014   6.435 -1.6138 -3.0401 -3.6481
  611MOL0     H80611   4.480   1.158   6.446 -2.4768 -2.0335 -2.1589
  611MOL0     H80612   4.583   1.042   6.194 -0.1731 -0.9845  1.2918
  611MOL0     H80613   4.456   1.151   6.208  0.8000  0.2053 -0.1040
  611MOL0     H80614   4.266   0.757   6.344 -2.0075 -1.2495 -0.7718
  611MOL0     H80615   4.020   0.747   6.357  0.9276  0.1331  1.8396
  611MOL0     H80616   3.562   0.828   6.238 -5.0932 -1.4504 -0.6616
  611MOL0     H80617   3.334   0.811   6.340  0.2293 -1.9478  1.5854
  611MOL0     H80618   3.270   1.014   6.597  1.7985 -1.5381 -0.4420
  611MOL0     H80619   3.148   0.919   6.694 -0.6182  0.4029  0.7720
  611MOL0     H80620   3.023   0.875   6.480 -0.2471  0.5557  1.2698
  611MOL0     H80621   3.150   0.968   6.390  0.0202 -2.2394 -0.0262
  611MOL0     H80622   2.918   1.096   6.452 -1.4234 -2.6138  2.2801
  611MOL0     H80623   3.064   1.184   6.456 -0.4819  0.4587  0.6414
  611MOL0     H80624   2.928   1.044   6.693 -1.9551  1.4359  2.2626
  611MOL0     H80625   3.082   1.138   6.707  0.1205 -0.9628 -0.5172
  611MOL0     H80626   2.833   1.252   6.576  1.1119 -2.4844 -0.3830
  611MOL0     H80627   2.982   1.342   6.633  2.0750  1.0556  4.0307
  611MOL0     H80628   2.818   1.415   6.788  2.0249  1.2450 -0.8105
  611MOL0     H80629   2.934   1.320   6.847  2.3653 -1.7595 -2.8338
  611MOL0     H80630   2.757   1.103   6.820 -1.5673 -0.5337 -3.0187
  611MOL0     H80631   2.707   1.232   6.934  2.7640 -0.4530  1.0385
  611MOL0     H80632   2.537   1.130   6.782  0.8658 -1.0771 -1.8298
  611MOL0     H80633   2.605   1.208   6.648 -0.2546 -1.2621  0.3474
  611MOL0     H80634   3.489   0.795   6.728  1.2704 -3.9111  0.0034
  611MOL0     H80635   3.731   0.784   6.625  0.9573  0.8899 -1.1325
  611MOL0     H80636   4.007   1.165   6.264 -1.4571 -1.6751 -1.5792
  611MOL0     H80637   4.241   1.170   6.242  0.2449  0.7816  1.5812
  611MOL0     H80638   6.145   0.977   6.928 -0.7912  1.7567  0.7208
  611MOL0     H80639   6.351   0.858   6.982 -0.8348  0.7006 -0.2448
  611MOL0     H80640   6.732   0.738   7.017 -1.2821  1.0194  2.5304
  611MOL0     H80641   6.910   0.611   7.097 -3.1074  0.4147 -1.3999
  611MOL0     H80642   7.154   0.590   7.120  2.2590 -0.1680  0.2250
  611MOL0     H80643   7.060   0.508   7.251 -1.6991  2.8164  0.4116
  611MOL0     H80644   7.246   0.511   7.398 -0.1053 -1.3138 -0.1296
  611MOL0     H80645   7.291   0.448   7.231 -0.2296  1.2287 -3.1229
  611MOL0     H80646   7.359   0.725   7.354 -0.8054 -1.9097  1.4913
  611MOL0     H80647   7.364   0.687   7.186 -2.1445  0.2965  0.7063
  611MOL0     H80648   7.523   0.543   7.412 -0.6284 -2.3487 -0.3635
  611MOL0     H80649   7.548   0.524   7.237  0.6150  1.3053 -0.5626
  611MOL0     H80650   7.716   0.903   7.274 -1.3500  1.2801  2.1675
  611MOL0     H80651   7.061   0.951   7.322 -0.7747  1.3866 -1.0372
  611MOL0     H80652   6.864   1.087   7.235 -1.3165  0.1089  0.5895
  612MOL0     O80653   3.500   6.405   4.197  0.5867 -0.5639  0.4381
  612MOL0     C80654   3.573   6.370   4.287 -0.3508 -1.2912 -0.8150
  612MOL0     O80655   3.538   6.321   4.416  0.3264 -0.1831  1.3100
  612MOL0     C80656   3.404   6.295   4.438  0.8849  0.1852 -0.1719
  612MOL0     C80657   3.361   6.174   4.473  0.0276  0.4833 -0.1380
  612MOL0     C80658   3.226   6.142   4.487 -0.1201 -0.5135  0.9530
  612MOL0     C80659   3.126   6.232   4.471  0.5251 -0.3356 -0.4325
  612MOL0     O80660   2.996   6.187   4.467 -0.8961  0.0477  0.0875
  612MOL0     C80661   2.954   6.150   4.603  0.0986  0.5511 -0.2010
  612MOL0     C80662   2.876   6.013   4.611 -0.2087 -0.8193 -0.5302
  612MOL0     C80663   2.798   6.003   4.739 -0.1135  0.0309 -0.4983
  612MOL0     C80664   2.661   6.081   4.744  0.7062  0.0357  0.3959
  612MOL0     C80665   2.612   6.111   4.886 -0.2326 -0.4603  0.0090
  612MOL0     C80666   2.582   5.981   4.961 -0.0672 -0.0492 -0.9786
  612MOL0     C80667   2.473   5.983   5.070  0.1108 -0.1795 -0.0565
  612MOL0     C80668   2.496   5.882   5.179  0.1115  0.6726  0.3176
  612MOL0     N80669   2.374   5.811   5.215 -0.3237 -0.3388 -0.0131
  612MOL0     C80670   2.279   5.859   5.299  0.6882 -0.0384 -0.2542
  612MOL0     C80671   2.172   5.775   5.292 -0.0893 -0.0962  0.0649
  612MOL0     C80672   2.050   5.772   5.383  0.4260  0.1949 -0.3855
  612MOL0     C80673   1.920   5.731   5.304  0.2350  0.0419 -0.0582
  612MOL0     C80674   1.807   5.685   5.401  0.4938 -0.0821 -0.5116
  612MOL0     C80675   1.670   5.664   5.339 -1.1058 -0.0463  0.1881
  612MOL0     O80676   1.569   5.597   5.421 -0.3992 -0.0364  0.2399
  612MOL0     C80677   1.435   5.611   5.400 -0.4391 -0.2162 -0.0499
  612MOL0     C80678   1.382   5.665   5.282 -1.3375  0.2365 -0.7096
  612MOL0     C80679   1.245   5.682   5.264 -0.5521 -0.1215 -0.4811
  612MOL0     C80680   1.149   5.635   5.358  0.0698 -1.0913  0.7830
  612MOL0     C80681   1.009   5.628   5.332  0.2278 -0.1288  0.2454
  612MOL0     O80682   0.922   5.554   5.416 -0.3790  0.5837  0.9881
  612MOL0     C80683   0.796   5.553   5.381  0.2445  0.0094 -0.7447
  612MOL0     C80684   0.710   5.666   5.393 -0.5299  0.3099  0.5911
  612MOL0     C80685   0.572   5.644   5.369 -0.6631  0.6782  0.3392
  612MOL0     C80686   0.521   5.513   5.353  0.1694 -0.3038  0.6408
  612MOL0     O80687   0.389   5.472   5.345 -0.4609  1.4114  0.7112
  612MOL0     C80688   0.291   5.550   5.399 -0.6508  1.0502  0.7056
  612MOL0     C80689   0.272   5.505   5.548 -0.5947 -0.0560 -0.4026
  612MOL0     C80690   0.268   5.355   5.583  0.3713  0.0303  1.0211
  612MOL0     C80691   0.272   5.339   5.731  0.2607 -1.0125  0.5013
  612MOL0     C80692   0.258   5.203   5.782 -0.5153 -1.1577  0.3844
  612MOL0     C80693   0.108   5.159   5.770 -0.2682 -1.1701 -0.1360
  612MOL0     C80694   0.107   5.015   5.792  0.5113  0.8315 -0.1170
  612MOL0     C80695  -0.027   4.946   5.780  1.0500 -0.7880  0.5166
  612MOL0    Cl80696  -0.099   4.963   5.617  0.0211 -0.4831 -0.1955
  612MOL0     C80697   0.617   5.413   5.336  0.1714 -0.3542 -0.3260
  612MOL0     C80698   0.750   5.427   5.351  0.0310  0.1006  0.9538
  612MOL0     O80699   0.972   5.693   5.235 -0.0970 -0.3729 -0.1837
  612MOL0     C80700   1.202   5.583   5.474 -0.6998 -0.9891  0.7183
  612MOL0     C80701   1.339   5.567   5.492  0.2355 -1.0001 -0.0583
  612MOL0     N80702   2.216   5.673   5.220  0.0837  0.3139 -0.1553
  612MOL0     N80703   2.326   5.699   5.166 -0.0502 -0.2850  0.0878
  612MOL0     C80704   3.165   6.370   4.447  0.0454  0.6438 -0.1033
  612MOL0     C80705   3.304   6.399   4.437  0.0747 -0.5074 -0.4285
  612MOL0     C80706   3.718   6.357   4.256 -0.5131  0.8066 -0.5636
  612MOL0     C80707   3.757   6.319   4.130  0.0129  0.1267  0.2225
  612MOL0     C80708   3.893   6.314   4.087 -0.2098 -0.0367  0.9171
  612MOL0     C80709   3.990   6.344   4.184 -1.0225 -0.1082  0.1639
  612MOL0     O80710   4.126   6.334   4.147  0.5570 -0.2575  0.6729
  612MOL0     C80711   4.216   6.321   4.255 -0.8444  0.3389  0.3702
  612MOL0     C80712   4.354   6.283   4.190  0.5357  0.5378  0.0779
  612MOL0     C80713   4.408   6.403   4.119 -0.2422 -0.1154  0.8815
  612MOL0     C80714   4.514   6.372   4.008 -0.2548  0.7898  0.2557
  612MOL0     C80715   4.612   6.272   4.047  0.2929 -0.5028  0.0064
  612MOL0     C80716   4.706   6.205   4.073  1.1070  0.8233  0.0035
  612MOL0     C80717   3.954   6.387   4.307  1.2492 -0.4228 -0.4891
  612MOL0     C80718   3.816   6.389   4.345 -0.0434  0.4629 -0.6694
  612MOL0     H80719   3.423   6.085   4.480  0.2381  0.5474 -1.0498
  612MOL0     H80720   3.209   6.037   4.508 -1.3300 -0.8797 -1.4700
  612MOL0     H80721   2.904   6.231   4.657  2.2124  0.2659  2.4150
  612MOL0     H80722   3.048   6.143   4.659  1.7813 -2.8140 -3.0264
  612MOL0     H80723   2.958   5.940   4.615  0.4703 -0.0461 -0.2084
  612MOL0     H80724   2.817   5.995   4.521 -0.7645  0.0167 -0.3405
  612MOL0     H80725   2.863   6.046   4.816  0.3607 -0.3383 -0.6890
  612MOL0     H80726   2.775   5.900   4.764 -1.8452  1.0099  2.4375
  612MOL0     H80727   2.676   6.174   4.687 -1.0860 -0.0313 -0.2473
  612MOL0     H80728   2.585   6.021   4.693  0.4598  0.0745  0.7084
  612MOL0     H80729   2.512   6.156   4.884  0.3349  0.8465 -0.3086
  612MOL0     H80730   2.690   6.167   4.939  2.1691 -3.5126  0.0093
  612MOL0     H80731   2.672   5.950   5.014  0.1959  1.4618 -0.5094
  612MOL0     H80732   2.547   5.908   4.887 -1.4231  1.1065 -1.5272
  612MOL0     H80733   2.468   6.077   5.125  1.6383 -0.4157  0.5415
  612MOL0     H80734   2.374   5.956   5.030 -0.3080  1.2051 -0.0058
  612MOL0     H80735   2.532   5.935   5.268  3.6445 -1.1600  0.1094
  612MOL0     H80736   2.585   5.822   5.161  1.1747  2.1822  0.2938
  612MOL0     H80737   2.285   5.945   5.365 -4.0296 -0.0642  0.6136
  612MOL0     H80738   2.032   5.866   5.437 -0.4418 -1.7931  3.1176
  612MOL0     H80739   2.059   5.701   5.466 -2.8739 -2.0412 -1.7406
  612MOL0     H80740   1.942   5.650   5.234 -0.4933  0.8586 -1.2805
  612MOL0     H80741   1.888   5.821   5.250  1.8120 -0.9202 -2.7778
  612MOL0     H80742   1.840   5.591   5.448  1.2796  0.4269 -0.0152
  612MOL0     H80743   1.788   5.754   5.483 -1.2375 -1.4427  0.2901
  612MOL0     H80744   1.681   5.608   5.247 -0.6853  0.5137 -0.1090
  612MOL0     H80745   1.640   5.763   5.302 -1.3615  0.1166  0.8064
  612MOL0     H80746   1.453   5.683   5.201 -0.7160  0.2900 -0.1582
  612MOL0     H80747   1.210   5.729   5.172  0.7080 -0.7164 -1.2862
  612MOL0     H80748   0.741   5.769   5.406 -2.2122  0.8446  0.5817
  612MOL0     H80749   0.512   5.734   5.355 -1.2637  0.0283 -1.5200
  612MOL0     H80750   0.205   5.522   5.337  0.3770  1.9986 -1.2130
  612MOL0     H80751   0.315   5.656   5.389 -0.9515  0.8892 -2.7112
  612MOL0     H80752   0.174   5.545   5.574 -0.9753  2.4098 -4.8104
  612MOL0     H80753   0.352   5.546   5.610 -0.2769  2.4962 -2.3260
  612MOL0     H80754   0.361   5.310   5.545  0.5074  0.3363  0.9897
  612MOL0     H80755   0.186   5.307   5.529  2.6005 -0.5613 -2.1110
  612MOL0     H80756   0.368   5.381   5.762  1.3247 -1.5799 -1.7731
  612MOL0     H80757   0.190   5.396   5.776  0.9108  0.2020  0.1971
  612MOL0     H80758   0.292   5.196   5.886 -0.5470  1.8594  0.6685
  612MOL0     H80759   0.328   5.141   5.726  0.5448  3.0083 -3.4547
  612MOL0     H80760   0.063   5.176   5.672  1.3458 -0.1817 -0.7501
  612MOL0     H80761   0.049   5.208   5.848  1.6765  2.6992 -0.8156
  612MOL0     H80762   0.184   4.971   5.727  1.6650  2.2387  0.2425
  612MOL0     H80763   0.131   4.997   5.897  1.1301 -0.9139 -0.5312
  612MOL0     H80764  -0.094   4.991   5.854  0.7020  0.3171 -0.4459
  612MOL0     H80765  -0.001   4.840   5.793  1.2006 -1.0338 -1.4905
  612MOL0     H80766   0.568   5.317   5.327 -1.1689  0.2635  0.0501
  612MOL0     H80767   0.806   5.337   5.329 -0.0091 -0.0909  1.6071
  612MOL0     H80768   1.136   5.543   5.551 -1.2070  0.7619  1.2264
  612MOL0     H80769   1.362   5.532   5.592 -3.5398  1.1880  1.7997
  612MOL0     H80770   3.086   6.444   4.438  0.4399  1.3893  2.0430
  612MOL0     H80771   3.343   6.499   4.427 -0.0819 -0.5270 -1.2479
  612MOL0     H80772   3.692   6.284   4.051  3.7444  0.8083 -3.4682
  612MOL0     H80773   3.926   6.271   3.994 -0.8785 -0.2693  0.7840
  612MOL0     H80774   4.185   6.244   4.327  0.8975 -1.6056 -0.8492
  612MOL0     H80775   4.233   6.415   4.309 -1.6299  1.0887 -0.6530
  612MOL0     H80776   4.422   6.262   4.272 -1.6272  2.4160  2.5255
  612MOL0     H80777   4.328   6.199   4.125 -0.5254  0.3800  0.6775
  612MOL0     H80778   4.467   6.470   4.182  4.4281 -2.1230 -0.9011
  612MOL0     H80779   4.331   6.445   4.054  0.6206 -4.0875 -3.2441
  612MOL0     H80780   4.465   6.324   3.923  0.7718  2.5815 -1.4363
  612MOL0     H80781   4.568   6.465   3.985  1.1280  0.3273  1.4272
  612MOL0     H80782   4.784   6.134   4.088  0.2743 -0.2417 -0.6141
  612MOL0     H80783   4.030   6.406   4.383 -0.6921 -1.6429  1.9244
  612MOL0     H80784   3.794   6.424   4.445  0.2806 -1.7629  0.2445
  613MOL0     O80785   6.093   1.499   8.632 -0.6569 -0.6246 -0.1894
  613MOL0     C80786   6.182   1.418   8.623  0.9311  0.5145 -0.1144
  613MOL0     O80787   6.165   1.282   8.641  0.4194 -0.5363 -0.3319
  613MOL0     C80788   6.045   1.217   8.680 -0.5535 -0.2110  0.6737
  613MOL0     C80789   5.916   1.275   8.687 -0.2774  0.2404 -0.3264
  613MOL0     C80790   5.811   1.188   8.717 -0.0639  0.3549 -0.2001
  613MOL0     C80791   5.821   1.057   8.769 -0.8607  0.2276 -0.8102
  613MOL0     O80792   5.706   0.989   8.785  0.0293  0.6808  0.7618
  613MOL0     C80793   5.696   0.887   8.888 -1.0860 -0.1453  0.1235
  613MOL0     C80794   5.560   0.820   8.907 -0.3259 -0.7190  0.6202
  613MOL0     C80795   5.455   0.928   8.936  0.5475  0.3637 -0.1864
  613MOL0     C80796   5.317   0.866   8.973  0.2270  0.5449 -0.1059
  613MOL0     C80797   5.220   0.988   8.990  0.5860  0.2143 -0.5954
  613MOL0     C80798   5.080   0.951   9.045  0.8406  0.3644 -0.3054
  613MOL0     C80799   4.973   1.061   9.056 -0.0914 -0.3390  0.3623
  613MOL0     C80800   4.943   1.123   8.917 -0.6770  0.2026  0.1297
  613MOL0     N80801   4.838   1.216   8.928 -0.4304 -0.0613 -0.2280
  613MOL0     C80802   4.718   1.197   8.993  0.1200  0.6444 -0.1386
  613MOL0     C80803   4.658   1.305   8.958  0.5552 -0.2543  0.0879
  613MOL0     C80804   4.523   1.334   9.025  0.3573  0.3322 -0.5068
  613MOL0     C80805   4.413   1.338   8.915  0.0174  0.3638 -0.5941
  613MOL0     C80806   4.376   1.193   8.878 -0.0690 -0.4174  0.5259
  613MOL0     C80807   4.260   1.208   8.783  1.1614  0.3419 -0.0631
  613MOL0     O80808   4.157   1.195   8.873  0.4221 -0.2407  0.1882
  613MOL0     C80809   4.027   1.179   8.827 -1.0214 -1.0675  0.0938
  613MOL0     C80810   3.927   1.186   8.920 -0.6401 -1.0360 -0.1685
  613MOL0     C80811   3.797   1.197   8.873  0.6394 -0.2626 -0.0985
  613MOL0     C80812   3.764   1.199   8.735  0.2975  0.2870 -0.5503
  613MOL0     C80813   3.626   1.188   8.676  0.3923 -0.0781  0.4045
  613MOL0     O80814   3.609   1.155   8.540  0.1660 -0.3301  0.2354
  613MOL0     C80815   3.484   1.142   8.478 -0.6507 -0.2821 -0.2314
  613MOL0     C80816   3.505   1.151   8.334  0.2267  0.6134 -0.3161
  613MOL0     C80817   3.391   1.127   8.257  0.7667 -0.5593  0.7078
  613MOL0     C80818   3.262   1.108   8.312  0.2654  0.3944 -0.9350
  613MOL0     O80819   3.149   1.115   8.236 -0.2311  0.7213  0.2132
  613MOL0     C80820   3.136   1.016   8.128 -0.2623  0.3462 -0.8913
  613MOL0     C80821   3.126   0.881   8.185 -0.5357  0.4025 -0.1832
  613MOL0     C80822   2.993   0.852   8.259  0.1115 -0.2388  0.2541
  613MOL0     C80823   2.993   0.703   8.300 -0.2893 -0.5711 -0.8437
  613MOL0     C80824   2.931   0.620   8.195  0.4033 -0.3303 -0.4858
  613MOL0     C80825   2.919   0.463   8.224 -1.1278 -0.2946 -0.9050
  613MOL0     C80826   2.844   0.398   8.103 -0.3798  0.0616 -0.0808
  613MOL0     C80827   2.696   0.442   8.114  0.0672 -0.0644  0.2882
  613MOL0    Cl80828   2.585   0.323   8.035 -0.2547 -0.0980  0.3975
  613MOL0     C80829   3.243   1.097   8.451 -0.5522 -0.0879  0.7480
  613MOL0     C80830   3.360   1.119   8.532 -0.0082  0.0690 -0.0576
  613MOL0     O80831   3.534   1.191   8.759 -0.2263 -0.2000 -0.2151
  613MOL0     C80832   3.873   1.188   8.644  0.1260 -0.6661  0.9204
  613MOL0     C80833   3.999   1.169   8.690 -0.7916 -0.0365 -0.4366
  613MOL0     N80834   4.733   1.392   8.889  0.2080  0.3442  0.2341
  613MOL0     N80835   4.840   1.333   8.860 -0.1802 -0.1386 -0.3821
  613MOL0     C80836   5.953   1.004   8.773  0.2755  0.1137 -0.2351
  613MOL0     C80837   6.065   1.082   8.726 -0.3237  0.2306 -0.7287
  613MOL0     C80838   6.318   1.454   8.584  0.0860 -1.0119  0.5898
  613MOL0     C80839   6.408   1.354   8.540 -0.4509  0.1799 -0.2028
  613MOL0     C80840   6.542   1.384   8.501  0.8991  0.1218  1.0722
  613MOL0     C80841   6.584   1.516   8.493  0.6156 -0.1369 -0.1213
  613MOL0     O80842   6.709   1.538   8.439 -0.3439 -0.4547 -0.4837
  613MOL0     C80843   6.794   1.613   8.524  0.3804 -0.2154  0.8441
  613MOL0     C80844   6.861   1.510   8.612  0.8349  0.1326  0.1095
  613MOL0     C80845   7.011   1.494   8.587  0.3604  0.5770  0.3995
  613MOL0     C80846   7.033   1.398   8.467  1.1598 -0.6309  1.1331
  613MOL0     C80847   7.177   1.385   8.433 -0.2525  0.0158 -0.2339
  613MOL0     C80848   7.294   1.364   8.403 -0.0885 -0.7236 -0.1585
  613MOL0     C80849   6.492   1.613   8.527  0.3098  0.4961  0.0999
  613MOL0     C80850   6.366   1.585   8.575 -1.0134 -0.0959  0.5252
  613MOL0     H80851   5.897   1.379   8.664 -1.1081 -0.1175 -1.3505
  613MOL0     H80852   5.711   1.230   8.711 -0.8299 -0.6483  3.2726
  613MOL0     H80853   5.712   0.933   8.987 -0.7329  1.7835 -0.7799
  613MOL0     H80854   5.775   0.811   8.884 -0.1425  0.5699  2.6473
  613MOL0     H80855   5.574   0.745   8.985  0.7478 -3.7805 -2.3001
  613MOL0     H80856   5.532   0.758   8.821  0.2517  0.5056 -0.5000
  613MOL0     H80857   5.438   0.993   8.850  0.3908 -1.0810 -1.2825
  613MOL0     H80858   5.490   0.986   9.022 -3.1607  1.5778  0.6722
  613MOL0     H80859   5.277   0.790   8.905 -1.9754 -0.6705  2.3777
  613MOL0     H80860   5.328   0.821   9.072  1.0903  2.2831  0.6500
  613MOL0     H80861   5.221   1.039   8.894  0.0228  0.0799 -0.6740
  613MOL0     H80862   5.257   1.063   9.062 -3.1008  0.3405  1.4176
  613MOL0     H80863   5.089   0.907   9.145 -0.9487 -1.8756 -1.0385
  613MOL0     H80864   5.045   0.871   8.978 -0.4878  1.2664 -0.7268
  613MOL0     H80865   4.878   1.015   9.085 -2.1988  1.9456 -2.3235
  613MOL0     H80866   5.005   1.131   9.134  3.6007 -0.3342 -1.0052
  613MOL0     H80867   4.916   1.048   8.841 -1.2248 -0.3621  0.8635
  613MOL0     H80868   5.034   1.168   8.875 -0.0442 -0.9473  0.2296
  613MOL0     H80869   4.695   1.109   9.053  1.4064 -1.3064 -2.3228
  613MOL0     H80870   4.525   1.427   9.083  2.4754 -2.7873  5.1551
  613MOL0     H80871   4.513   1.250   9.093  0.0588 -1.2856 -2.4572
  613MOL0     H80872   4.458   1.382   8.826  0.1163 -2.2040 -1.9068
  613MOL0     H80873   4.324   1.395   8.943 -1.2841 -0.7239 -2.3647
  613MOL0     H80874   4.459   1.144   8.826 -1.5931 -1.5890 -0.9348
  613MOL0     H80875   4.355   1.133   8.967  1.6798 -0.3508  1.0227
  613MOL0     H80876   4.250   1.123   8.715 -1.8184  1.4531 -1.1768
  613MOL0     H80877   4.276   1.301   8.728  4.0042 -0.8088 -1.3321
  613MOL0     H80878   3.947   1.196   9.026 -1.2620 -0.1768 -0.1173
  613MOL0     H80879   3.717   1.190   8.945  0.9774  3.7409  0.9145
  613MOL0     H80880   3.603   1.174   8.292 -0.1297  1.1517 -0.8627
  613MOL0     H80881   3.394   1.127   8.148 -1.5398 -1.2874  0.5791
  613MOL0     H80882   3.219   1.026   8.057  1.3492  2.3457  1.1435
  613MOL0     H80883   3.041   1.027   8.074 -1.3225 -5.1465 -0.7458
  613MOL0     H80884   3.199   0.863   8.265 -2.0374 -0.0404  1.1312
  613MOL0     H80885   3.137   0.807   8.106  1.6092 -2.6325  2.6531
  613MOL0     H80886   2.904   0.879   8.202 -0.9187 -0.7762  1.5400
  613MOL0     H80887   2.995   0.907   8.354 -0.8217 -2.3353  1.5823
  613MOL0     H80888   3.097   0.670   8.300 -0.0218  0.2315 -0.5604
  613MOL0     H80889   2.950   0.689   8.400  1.2277  1.3346  0.1553
  613MOL0     H80890   2.988   0.626   8.102  3.4184  0.4478  1.2835
  613MOL0     H80891   2.832   0.662   8.177  1.0679  1.6596  0.2219
  613MOL0     H80892   2.859   0.448   8.314 -2.6128 -1.9533 -2.0959
  613MOL0     H80893   3.020   0.422   8.235 -1.0666 -0.4828 -2.0557
  613MOL0     H80894   2.893   0.422   8.008  0.3959  1.6157  0.6878
  613MOL0     H80895   2.849   0.289   8.111  0.9152  0.0273 -0.9563
  613MOL0     H80896   2.674   0.542   8.076 -1.2568 -0.1852  0.6940
  613MOL0     H80897   2.665   0.435   8.219  4.0897  2.2260  1.8612
  613MOL0     H80898   3.140   1.091   8.486 -1.4379  2.1077 -1.2754
  613MOL0     H80899   3.346   1.108   8.639  3.0459  2.4005  0.7556
  613MOL0     H80900   3.861   1.193   8.536 -1.3742 -1.1819  1.0274
  613MOL0     H80901   4.084   1.173   8.622 -1.0267 -1.3649 -0.8283
  613MOL0     H80902   5.981   0.907   8.813  1.0516  0.2799 -0.3565
  613MOL0     H80903   6.163   1.035   8.727 -0.5552 -0.2802 -1.6737
  613MOL0     H80904   6.377   1.250   8.547 -0.2312  0.1347  0.0890
  613MOL0     H80905   6.601   1.296   8.475 -0.2569  0.2016 -2.2250
  613MOL0     H80906   6.739   1.690   8.579  1.1163  1.8858 -1.2217
  613MOL0     H80907   6.869   1.663   8.464  1.8536 -2.1252  0.9867
  613MOL0     H80908   6.846   1.544   8.715 -1.4889 -0.5311  0.0472
  613MOL0     H80909   6.806   1.416   8.624  0.2888  0.3388 -0.6682
  613MOL0     H80910   7.058   1.445   8.672  1.3529  2.9105  1.2810
  613MOL0     H80911   7.053   1.593   8.568  1.0844  0.2239  0.1203
  613MOL0     H80912   6.985   1.303   8.492 -0.7439  0.3115  1.1893
  613MOL0     H80913   6.975   1.437   8.383  1.2970 -0.2092  1.2354
  613MOL0     H80914   7.396   1.337   8.386 -0.0255  0.1801 -1.2879
  613MOL0     H80915   6.521   1.717   8.513 -1.0294  1.0656  1.3044
  613MOL0     H80916   6.309   1.671   8.609  0.9945  2.3590 -1.8416
  614MOL0     O80917   4.682   8.429   8.125  0.5896  1.0213  0.2079
  614MOL0     C80918   4.761   8.364   8.051 -1.1295  0.4868  0.0016
  614MOL0     O80919   4.748   8.237   8.015 -0.3949 -0.7834  0.2207
  614MOL0     C80920   4.629   8.183   8.029 -0.3372 -0.0001  0.1133
  614MOL0     C80921   4.619   8.049   8.053 -0.1950 -0.0867  0.2484
  614MOL0     C80922   4.494   7.981   8.056 -0.0053 -0.0848 -0.7890
  614MOL0     C80923   4.376   8.047   8.019 -0.3256 -0.4425  0.3110
  614MOL0     O80924   4.252   8.001   8.002  0.0096  0.3231 -0.4135
  614MOL0     C80925   4.212   7.911   8.100 -0.8838  0.2855  0.1780
  614MOL0     C80926   4.073   7.857   8.064 -0.7500  0.1713 -1.2971
  614MOL0     C80927   3.967   7.963   8.079  0.3051 -0.6426  0.4410
  614MOL0     C80928   3.828   7.904   8.089  0.1367 -0.9130 -0.0784
  614MOL0     C80929   3.729   8.012   8.144  0.5241  0.6809  0.6848
  614MOL0     C80930   3.593   7.940   8.154  0.3834 -0.7793 -0.3470
  614MOL0     C80931   3.503   7.955   8.038  0.3715  0.1362 -0.0135
  614MOL0     C80932   3.357   7.917   8.072 -0.4290  0.0644 -0.0482
  614MOL0     N80933   3.283   8.004   7.979 -0.6122  0.0015 -0.2813
  614MOL0     C80934   3.234   8.136   7.995  0.0944 -0.3866  0.0605
  614MOL0     C80935   3.180   8.172   7.872  1.1090 -0.3337  0.0655
  614MOL0     C80936   3.110   8.305   7.848  0.9822  0.0768  0.2178
  614MOL0     C80937   2.959   8.307   7.895 -0.2892  0.0510 -0.5175
  614MOL0     C80938   2.946   8.384   8.023 -0.5455  0.2564 -0.9204
  614MOL0     C80939   2.806   8.406   8.074  0.5594  0.4561  0.8656
  614MOL0     O80940   2.736   8.481   7.964 -0.1767 -0.7241 -0.2054
  614MOL0     C80941   2.616   8.543   7.986  0.0400  0.6569 -0.6008
  614MOL0     C80942   2.575   8.658   7.928  0.8870 -0.4024  0.8357
  614MOL0     C80943   2.445   8.701   7.930 -0.6374 -0.3284  0.3690
  614MOL0     C80944   2.344   8.636   7.998  0.5152 -0.2688  0.3651
  614MOL0     C80945   2.203   8.684   8.005  0.7686 -0.0596  0.4102
  614MOL0     O80946   2.121   8.594   8.063  0.0660 -0.4944  0.0563
  614MOL0     C80947   1.984   8.612   8.092 -0.7604  0.3793 -0.5108
  614MOL0     C80948   1.898   8.722   8.100  0.2178 -0.1224  0.4558
  614MOL0     C80949   1.755   8.713   8.119 -0.0550  0.5336 -0.2500
  614MOL0     C80950   1.694   8.588   8.124  0.0663 -0.1685  0.1326
  614MOL0     O80951   1.556   8.562   8.125 -0.9695  0.2135 -0.1954
  614MOL0     C80952   1.475   8.672   8.066  0.3528  0.0804 -0.3680
  614MOL0     C80953   1.330   8.629   8.048 -0.1723 -0.4535 -0.0419
  614MOL0     C80954   1.256   8.741   7.974 -0.0976  0.3732 -0.6602
  614MOL0     C80955   1.134   8.690   7.913 -0.1467 -0.1074 -0.1216
  614MOL0     C80956   1.051   8.814   7.895 -0.4420 -0.6732  0.3989
  614MOL0     C80957   0.925   8.795   7.810  0.5706 -0.2900  0.9498
  614MOL0     C80958   0.865   8.931   7.767 -0.5245  0.2146  0.5101
  614MOL0     C80959   0.755   8.918   7.667 -0.3686  0.0255 -0.4546
  614MOL0    Cl80960   0.689   9.088   7.621 -0.0272 -0.2758  0.0849
  614MOL0     C80961   1.779   8.468   8.132 -0.7501 -1.2679  0.8409
  614MOL0     C80962   1.923   8.487   8.118  0.7653 -0.4677  0.9166
  614MOL0     O80963   2.173   8.796   7.956  0.3031  0.3009  0.2051
  614MOL0     C80964   2.384   8.527   8.071  0.2720  0.1258  0.5061
  614MOL0     C80965   2.515   8.477   8.065 -0.2621  0.6547  0.4026
  614MOL0     N80966   3.197   8.063   7.782  0.5881 -0.2228  0.0926
  614MOL0     N80967   3.259   7.973   7.848 -0.6727  0.3348  0.3327
  614MOL0     C80968   4.384   8.178   7.984  0.2735 -0.0065  0.0251
  614MOL0     C80969   4.507   8.247   7.986  1.1877 -0.1511  0.6364
  614MOL0     C80970   4.871   8.444   7.996  0.7560  0.0002  0.9761
  614MOL0     C80971   4.891   8.574   8.026 -1.0477 -0.0896  0.0574
  614MOL0     C80972   4.999   8.644   7.974 -0.4595 -0.4756  0.7541
  614MOL0     C80973   5.085   8.585   7.875  0.2636 -0.9011 -0.1870
  614MOL0     O80974   5.172   8.654   7.792  0.0290  0.7325 -0.5210
  614MOL0     C80975   5.183   8.797   7.811 -0.1588 -0.5920  0.9264
  614MOL0     C80976   5.279   8.858   7.700 -0.2122  0.7777  0.5920
  614MOL0     C80977   5.417   8.798   7.715 -0.6998  0.6152  0.3167
  614MOL0     C80978   5.521   8.863   7.624  0.5019 -0.6007  0.4300
  614MOL0     C80979   5.551   9.003   7.653 -0.5437  0.9858  0.3185
  614MOL0     C80980   5.608   9.104   7.690 -0.3476  0.7212 -0.9052
  614MOL0     C80981   5.069   8.444   7.857  0.2910 -0.1118  0.2290
  614MOL0     C80982   4.965   8.380   7.923  0.4413  0.4680  0.5811
  614MOL0     H80983   4.706   7.986   8.069  1.1951  1.6305 -0.1796
  614MOL0     H80984   4.482   7.874   8.072  0.7399 -0.1635 -0.7187
  614MOL0     H80985   4.203   7.953   8.200  0.9042 -1.8392  1.3326
  614MOL0     H80986   4.282   7.828   8.111  1.8939  2.1969 -1.8227
  614MOL0     H80987   4.046   7.784   8.141 -2.5348  1.4752 -0.6420
  614MOL0     H80988   4.062   7.805   7.968  1.8203 -5.6074  1.0088
  614MOL0     H80989   3.966   8.034   7.996  1.2077 -1.1598 -0.0258
  614MOL0     H80990   3.983   8.024   8.169  1.5358  2.0113 -1.4610
  614MOL0     H80991   3.787   7.875   7.991 -1.6995 -1.1419  0.7214
  614MOL0     H80992   3.816   7.811   8.145  0.4328 -1.6714 -1.2270
  614MOL0     H80993   3.721   8.092   8.070 -1.7483 -1.2395 -1.3021
  614MOL0     H80994   3.756   8.044   8.245  0.3257  0.4171  0.8228
  614MOL0     H80995   3.550   7.970   8.250  2.7836  0.9666  0.2715
  614MOL0     H80996   3.614   7.835   8.179  3.7210  0.5612  3.7319
  614MOL0     H80997   3.500   8.058   8.004  2.3952  0.7076  1.3680
  614MOL0     H80998   3.544   7.897   7.954  0.9348  0.1999  0.2106
  614MOL0     H80999   3.327   7.944   8.174  1.6277  3.5159 -0.1848
  614MOL0     H81000   3.330   7.817   8.037 -0.9290  0.7494 -1.7319
  614MOL0     H81001   3.250   8.201   8.081  1.1679  0.7820 -0.9680
  614MOL0     H81002   3.106   8.333   7.742 -6.2095  0.2431  0.0417
  614MOL0     H81003   3.168   8.386   7.894 -0.2853  0.3473  1.4265
  614MOL0     H81004   2.923   8.204   7.907 -1.8613  0.6697  0.2837
  614MOL0     H81005   2.904   8.352   7.812  0.5264  0.9513 -0.5847
  614MOL0     H81006   3.007   8.334   8.099 -0.7389 -0.6332 -1.3351
  614MOL0     H81007   2.983   8.486   8.021  1.7783 -0.4908  0.3282
  614MOL0     H81008   2.800   8.467   8.164 -0.2998  1.0223  0.4333
  614MOL0     H81009   2.759   8.307   8.077 -1.8366  1.5248  0.7675
  614MOL0     H81010   2.649   8.720   7.877  0.3601  0.2963  0.9011
  614MOL0     H81011   2.425   8.798   7.885 -0.9600  1.7463  4.4968
  614MOL0     H81012   1.933   8.823   8.082 -3.4661  1.2683  0.3938
  614MOL0     H81013   1.705   8.808   8.101 -2.3264 -0.9001 -2.0518
  614MOL0     H81014   1.508   8.694   7.964 -0.1072  0.2546 -0.4825
  614MOL0     H81015   1.482   8.762   8.128 -1.4649 -0.4544  0.6990
  614MOL0     H81016   1.293   8.599   8.146  0.8856 -0.6474  0.3190
  614MOL0     H81017   1.324   8.541   7.982  1.3879 -2.4935  2.3565
  614MOL0     H81018   1.325   8.759   7.891 -0.5822 -0.1229 -1.1779
  614MOL0     H81019   1.257   8.834   8.031  0.2632  1.5546 -2.5226
  614MOL0     H81020   1.154   8.647   7.814 -1.1886  0.3801 -0.5634
  614MOL0     H81021   1.080   8.621   7.979 -0.5723  1.6917  1.5145
  614MOL0     H81022   1.110   8.876   7.826  0.8387 -2.6532 -0.4025
  614MOL0     H81023   1.024   8.866   7.987 -2.8290  0.9868 -1.1164
  614MOL0     H81024   0.846   8.740   7.861  1.4157 -1.3159  1.1869
  614MOL0     H81025   0.945   8.746   7.714 -0.2520  1.0002  0.0754
  614MOL0     H81026   0.826   8.975   7.859 -1.5172  2.0576 -0.7305
  614MOL0     H81027   0.953   8.988   7.736 -1.5577  2.0929  0.8826
  614MOL0     H81028   0.673   8.855   7.703 -1.9156 -0.0354 -3.7483
  614MOL0     H81029   0.789   8.877   7.572  1.2736  1.8642 -0.7432
  614MOL0     H81030   1.735   8.374   8.164 -2.6997 -0.7009 -0.0674
  614MOL0     H81031   1.971   8.389   8.121 -0.5237 -1.2139 -0.8356
  614MOL0     H81032   2.321   8.474   8.142  2.8334 -0.9365  2.1161
  614MOL0     H81033   2.538   8.391   8.127 -1.1455 -0.8065 -1.1807
  614MOL0     H81034   4.295   8.228   7.946  1.3596  1.9136 -0.1162
  614MOL0     H81035   4.508   8.348   7.946 -0.3821  0.5564  2.2686
  614MOL0     H81036   4.842   8.629   8.106  0.7329 -2.3522  2.8976
  614MOL0     H81037   5.005   8.752   7.986 -1.4518 -0.3790  0.4355
  614MOL0     H81038   5.222   8.813   7.911 -0.3905 -1.7942  1.2256
  614MOL0     H81039   5.083   8.840   7.800  0.6330  1.2219  0.4917
  614MOL0     H81040   5.235   8.826   7.606 -0.1865 -1.6789  1.3521
  614MOL0     H81041   5.278   8.967   7.695  1.3640  0.9958  2.9929
  614MOL0     H81042   5.424   8.690   7.703 -0.1992  0.6833 -0.0498
  614MOL0     H81043   5.447   8.823   7.817 -1.3951 -0.5324  0.8240
  614MOL0     H81044   5.609   8.799   7.612  0.9490 -0.1267  1.0963
  614MOL0     H81045   5.480   8.870   7.523 -3.0198  0.4342  1.7588
  614MOL0     H81046   5.653   9.199   7.706 -2.9654  2.3750 -2.5812
  614MOL0     H81047   5.141   8.391   7.795  3.8515  2.5092  1.6884
  614MOL0     H81048   4.953   8.276   7.896  0.5257  1.0670 -2.0283
  615MOL0     O81049   5.485   4.608   1.034  0.6161 -0.3019  0.6826
  615MOL0     C81050   5.470   4.717   0.982 -0.4878 -0.3872  0.6873
  615MOL0     O81051   5.359   4.763   0.921  0.2294  0.9278  0.6358
  615MOL0     C81052   5.234   4.703   0.925 -0.5157  0.8504 -0.7343
  615MOL0     C81053   5.145   4.732   1.022  0.0023  0.5809 -0.6335
  615MOL0     C81054   5.021   4.669   1.031  0.3311 -0.0057  0.1858
  615MOL0     C81055   4.986   4.571   0.940 -0.3147  1.2141 -0.3375
  615MOL0     O81056   4.872   4.502   0.931  0.1155  0.4708  0.0706
  615MOL0     C81057   4.752   4.583   0.932 -1.0691 -0.1266 -0.8052
  615MOL0     C81058   4.635   4.505   0.876 -1.1682 -0.1697 -0.1938
  615MOL0     C81059   4.575   4.396   0.970  0.4366 -0.3380 -0.0665
  615MOL0     C81060   4.456   4.328   0.913 -0.0283  0.2090  0.1949
  615MOL0     C81061   4.341   4.419   0.888 -1.0965  0.8326 -0.0483
  615MOL0     C81062   4.223   4.342   0.848  0.0744  0.1252  0.4123
  615MOL0     C81063   4.097   4.420   0.866 -0.4282 -0.2467  0.4225
  615MOL0     C81064   3.971   4.380   0.779 -0.3399 -0.8781 -0.7954
  615MOL0     N81065   4.016   4.379   0.632  0.6733  0.0667  0.1476
  615MOL0     C81066   4.022   4.262   0.559 -1.1987 -0.2754  0.6591
  615MOL0     C81067   4.072   4.303   0.441 -0.2261 -0.2205 -0.5908
  615MOL0     C81068   4.123   4.223   0.322  0.3041 -0.0453  0.5492
  615MOL0     C81069   4.032   4.247   0.200 -1.6593  0.0046  0.4774
  615MOL0     C81070   4.081   4.171   0.072 -0.1036  0.5858  0.5018
  615MOL0     C81071   3.988   4.196  -0.049 -0.2701  0.1477 -0.2388
  615MOL0     O81072   3.853   4.162  -0.023 -0.3272 -0.0563 -0.2881
  615MOL0     C81073   3.800   4.041  -0.055 -0.4678 -0.1475 -0.3337
  615MOL0     C81074   3.674   4.023  -0.010 -0.0316  1.0674 -0.8766
  615MOL0     C81075   3.605   3.899  -0.020  0.1041  0.0987  0.2918
  615MOL0     C81076   3.670   3.798  -0.081 -0.6713 -0.0888 -0.0313
  615MOL0     C81077   3.609   3.668  -0.103 -0.8282 -0.1798  0.3280
  615MOL0     O81078   3.479   3.644  -0.055  0.7650 -0.0495  0.0364
  615MOL0     C81079   3.420   3.521  -0.065  0.1015 -0.8065 -0.2358
  615MOL0     C81080   3.277   3.529  -0.049  0.3212 -0.3104  0.1290
  615MOL0     C81081   3.197   3.419  -0.070 -0.7145 -0.0548  0.0253
  615MOL0     C81082   3.258   3.289  -0.105 -0.3903 -0.2926 -0.0327
  615MOL0     O81083   3.187   3.174  -0.130  0.6655 -0.9821  0.7469
  615MOL0     C81084   3.046   3.177  -0.122 -0.0708 -0.3230 -0.6715
  615MOL0     C81085   3.009   3.037  -0.155  0.1700  1.2302  0.3672
  615MOL0     C81086   2.986   2.946  -0.039  0.1378  0.2421  0.1142
  615MOL0     C81087   2.929   2.806  -0.091 -0.9091  0.2244  0.0474
  615MOL0     C81088   2.861   2.730   0.027 -0.1791  0.4058  0.4899
  615MOL0     C81089   2.727   2.787   0.086 -0.1112  0.1608 -0.5822
  615MOL0     C81090   2.637   2.836  -0.023  0.3668 -0.2557 -0.3873
  615MOL0     C81091   2.590   2.718  -0.100 -1.4859 -0.6472  0.4927
  615MOL0    Cl81092   2.496   2.618   0.008 -0.3540  0.1493 -0.0987
  615MOL0     C81093   3.399   3.288  -0.119  0.6187 -0.1081  0.9121
  615MOL0     C81094   3.478   3.397  -0.092 -0.2550  0.1253  0.2654
  615MOL0     O81095   3.677   3.586  -0.168 -0.2402 -0.7205  0.1204
  615MOL0     C81096   3.801   3.808  -0.128  0.1857 -0.4948 -0.4438
  615MOL0     C81097   3.862   3.935  -0.113 -0.1738 -0.4753  0.3079
  615MOL0     N81098   4.085   4.446   0.439 -0.1465  0.6672 -0.4992
  615MOL0     N81099   4.051   4.482   0.560  0.3903 -0.1656  0.5571
  615MOL0     C81100   5.081   4.539   0.845  0.0677  0.7816  0.5122
  615MOL0     C81101   5.200   4.603   0.834 -0.6803  0.1223 -0.3224
  615MOL0     C81102   5.587   4.806   0.966 -0.0790 -0.1612  1.0088
  615MOL0     C81103   5.569   4.938   0.927  0.5678  0.1827  0.4516
  615MOL0     C81104   5.682   5.025   0.905 -0.2582 -0.4936  0.8921
  615MOL0     C81105   5.814   4.974   0.917  0.4158 -0.6590 -0.3644
  615MOL0     O81106   5.932   5.047   0.906  0.7890 -0.0231  0.6089
  615MOL0     C81107   5.923   5.178   0.851  0.4923 -0.2709 -0.6950
  615MOL0     C81108   5.901   5.297   0.946 -0.1324 -0.8434 -0.4590
  615MOL0     C81109   6.025   5.346   1.028 -0.6626  0.4183 -0.2460
  615MOL0     C81110   6.148   5.394   0.951 -0.5195  0.0416 -0.6421
  615MOL0     C81111   6.119   5.499   0.857 -0.5920  0.0553  0.1529
  615MOL0     C81112   6.100   5.596   0.783 -0.5757  0.1779 -0.3362
  615MOL0     C81113   5.823   4.840   0.949  0.4977 -0.3147 -0.0427
  615MOL0     C81114   5.720   4.762   0.978  0.3467  0.6950  0.5667
  615MOL0     H81115   5.168   4.807   1.097 -3.4865  0.8152  0.3752
  615MOL0     H81116   4.965   4.705   1.116 -0.2285 -0.2801 -0.0620
  615MOL0     H81117   4.766   4.680   0.883  2.3316  1.2997  2.4651
  615MOL0     H81118   4.728   4.612   1.035  0.6260 -0.0579 -0.4038
  615MOL0     H81119   4.658   4.459   0.780 -1.3024  2.4911 -1.5794
  615MOL0     H81120   4.559   4.579   0.851 -0.3942  1.1167  1.0661
  615MOL0     H81121   4.537   4.440   1.062  1.2950 -1.0087  0.6244
  615MOL0     H81122   4.646   4.316   0.991  0.7590  0.2175  1.0433
  615MOL0     H81123   4.484   4.279   0.819 -0.6251 -1.6069  0.9367
  615MOL0     H81124   4.431   4.249   0.983  1.6269 -0.7194 -0.2223
  615MOL0     H81125   4.362   4.495   0.812  0.1327  0.1999 -0.3583
  615MOL0     H81126   4.325   4.465   0.987  2.7150 -3.0736  2.7325
  615MOL0     H81127   4.209   4.249   0.904 -0.6706 -0.0500 -0.0474
  615MOL0     H81128   4.233   4.311   0.744 -1.3980 -0.7223  0.4856
  615MOL0     H81129   4.060   4.432   0.968  0.8640  0.9323  0.7752
  615MOL0     H81130   4.121   4.523   0.838 -0.0350 -0.9186 -1.9868
  615MOL0     H81131   3.894   4.454   0.801  0.3277 -0.0884 -1.0505
  615MOL0     H81132   3.947   4.280   0.814  3.3782 -1.8858 -0.7143
  615MOL0     H81133   4.015   4.159   0.593 -0.6712 -0.1149  1.2809
  615MOL0     H81134   4.098   4.121   0.352 -1.8991 -0.2446 -1.5859
  615MOL0     H81135   4.228   4.240   0.296 -0.0472  0.6186 -0.5153
  615MOL0     H81136   4.046   4.351   0.172  0.6290 -1.1946 -3.5555
  615MOL0     H81137   3.928   4.223   0.222 -2.4621  0.8378 -2.1122
  615MOL0     H81138   4.181   4.213   0.052 -0.9829  2.9323  0.7258
  615MOL0     H81139   4.085   4.063   0.085  0.7548  0.4344 -0.7995
  615MOL0     H81140   4.022   4.142  -0.138 -1.7752 -2.1392  0.5044
  615MOL0     H81141   3.985   4.303  -0.072 -0.7988  0.0934 -0.4308
  615MOL0     H81142   3.628   4.102   0.050  3.5221  1.0596  2.2268
  615MOL0     H81143   3.506   3.898   0.025  0.5836 -0.1904  1.4024
  615MOL0     H81144   3.221   3.621  -0.037 -3.4272 -2.1325 -1.8471
  615MOL0     H81145   3.090   3.434  -0.060 -0.4287  1.4274  1.0505
  615MOL0     H81146   3.007   3.254  -0.189 -1.4719  1.3174  1.8931
  615MOL0     H81147   3.009   3.206  -0.024  1.9051  0.9720 -0.2515
  615MOL0     H81148   3.082   2.996  -0.226  1.0823 -1.9297  2.8991
  615MOL0     H81149   2.909   3.045  -0.198 -0.2514  2.5337  1.5123
  615MOL0     H81150   2.910   3.003   0.016  0.7548  2.1768 -0.9239
  615MOL0     H81151   3.080   2.927   0.013  1.6488  1.3912 -2.0350
  615MOL0     H81152   2.849   2.802  -0.165  0.7596  1.7272 -1.9643
  615MOL0     H81153   3.008   2.740  -0.130 -0.8582 -0.4540  1.2486
  615MOL0     H81154   2.933   2.722   0.109  2.3930  4.5592 -1.0030
  615MOL0     H81155   2.845   2.627  -0.006  3.2878 -0.1657  0.1932
  615MOL0     H81156   2.755   2.877   0.142 -0.4872  0.7586 -1.3400
  615MOL0     H81157   2.690   2.710   0.155  2.0984  1.0094  1.7405
  615MOL0     H81158   2.544   2.874   0.020  0.5876  0.9623 -0.9427
  615MOL0     H81159   2.678   2.911  -0.092 -0.9544 -2.0380 -3.3402
  615MOL0     H81160   2.677   2.673  -0.148 -1.4171  0.4211 -0.4413
  615MOL0     H81161   2.525   2.757  -0.180 -2.9464 -1.6296  1.1556
  615MOL0     H81162   3.443   3.195  -0.154 -0.8862  0.2267 -2.1544
  615MOL0     H81163   3.582   3.378  -0.119 -0.7163  0.6050 -2.0757
  615MOL0     H81164   3.851   3.717  -0.159 -0.0743  0.2683 -3.3508
  615MOL0     H81165   3.961   3.937  -0.157 -1.0369 -2.5801 -2.0183
  615MOL0     H81166   5.073   4.448   0.786 -2.0779 -0.6378  2.8279
  615MOL0     H81167   5.276   4.587   0.759 -0.3108 -2.3679  0.4980
  615MOL0     H81168   5.469   4.971   0.898  0.6891  0.4206  0.2978
  615MOL0     H81169   5.651   5.124   0.875  1.5473  0.4712  2.0030
  615MOL0     H81170   5.855   5.171   0.766 -1.2463  0.2495  0.5969
  615MOL0     H81171   6.022   5.194   0.809  0.3581 -2.3542 -1.9559
  615MOL0     H81172   5.869   5.380   0.883 -2.3277  0.2984  1.9921
  615MOL0     H81173   5.817   5.276   1.012  0.5476 -2.9357 -0.1853
  615MOL0     H81174   6.043   5.258   1.090 -0.2106  1.1784  0.7417
  615MOL0     H81175   5.994   5.421   1.102 -0.0133 -0.6292  1.1372
  615MOL0     H81176   6.232   5.417   1.018  0.4643 -1.0478 -1.4469
  615MOL0     H81177   6.174   5.307   0.890  1.4753  0.3839 -0.3452
  615MOL0     H81178   6.079   5.684   0.724 -3.0385 -0.5433 -0.6485
  615MOL0     H81179   5.920   4.798   0.973 -0.2022 -1.4386  0.9102
  615MOL0     H81180   5.753   4.661   1.001  3.0562  1.1109 -0.9742
  616MOL0     O81181   0.376   9.139  11.209  0.5512 -0.6251  0.4909
  616MOL0     C81182   0.422   9.222  11.130  0.2407  0.1446  0.7344
  616MOL0     O81183   0.357   9.295  11.041 -0.4642  0.4355  0.0584
  616MOL0     C81184   0.219   9.281  11.027  0.3631  0.1740  0.1255
  616MOL0     C81185   0.147   9.176  10.963 -0.4542 -0.6793  0.2146
  616MOL0     C81186   0.008   9.173  10.958 -0.0938 -1.3677  0.4546
  616MOL0     C81187  -0.065   9.297  10.986 -0.0394  0.4122 -0.3416
  616MOL0     O81188  -0.205   9.297  10.968 -0.2775 -0.1201  0.0716
  616MOL0     C81189  -0.283   9.408  11.027  0.0539 -0.3297  0.1639
  616MOL0     C81190  -0.309   9.400  11.174 -0.5663 -0.5160 -0.1491
  616MOL0     C81191  -0.412   9.507  11.216  0.3456 -0.2956  0.5434
  616MOL0     C81192  -0.430   9.515  11.371 -0.4177  0.2840 -0.9048
  616MOL0     C81193  -0.560   9.596  11.408  0.3273  0.1631  0.2663
  616MOL0     C81194  -0.561   9.627  11.555  0.2423  0.5239  0.5677
  616MOL0     C81195  -0.673   9.735  11.578 -0.1198  0.4338 -0.4493
  616MOL0     C81196  -0.677   9.774  11.725  0.4795  0.3297 -0.5445
  616MOL0     N81197  -0.710   9.661  11.798  0.7424  0.2821 -0.3766
  616MOL0     C81198  -0.832   9.604  11.812  1.1618 -0.0564  0.0688
  616MOL0     C81199  -0.820   9.517  11.914  0.0826 -0.0667 -0.1800
  616MOL0     C81200  -0.913   9.405  11.980 -0.5675 -0.4834 -0.1715
  616MOL0     C81201  -1.040   9.375  11.898 -0.6167 -0.7247 -0.2079
  616MOL0     C81202  -1.125   9.282  11.983 -0.6008 -0.0546 -0.2110
  616MOL0     C81203  -1.246   9.221  11.909  0.1769  0.3486 -0.4000
  616MOL0     O81204  -1.279   9.119  11.994  0.8518  0.1366 -0.4966
  616MOL0     C81205  -1.413   9.102  12.020  0.1504  0.1836 -0.6915
  616MOL0     C81206  -1.492   9.210  12.079  0.0912 -0.3437 -0.3419
  616MOL0     C81207  -1.627   9.201  12.083  0.2200 -0.1432  0.5776
  616MOL0     C81208  -1.695   9.089  12.045  0.2721  0.6123 -0.7745
  616MOL0     C81209  -1.843   9.080  12.064 -0.3782  0.2199  0.6155
  616MOL0     O81210  -1.909   9.190  12.104 -0.0088  0.4635 -0.2433
  616MOL0     C81211  -2.043   9.183  12.100 -0.3015  1.1676  0.0411
  616MOL0     C81212  -2.110   9.266  12.010 -0.7890 -0.1666  0.1725
  616MOL0     C81213  -2.250   9.265  11.999  0.4407  0.7384 -0.1831
  616MOL0     C81214  -2.328   9.178  12.082 -0.8790  0.5036 -0.4306
  616MOL0     O81215  -2.458   9.180  12.093 -0.1070 -0.6051 -0.3571
  616MOL0     C81216  -2.525   9.157  11.971  0.1600 -0.0867 -0.3570
  616MOL0     C81217  -2.657   9.228  11.982  0.0801  0.4202  0.1859
  616MOL0     C81218  -2.735   9.211  11.856  0.5022  0.7516 -0.2241
  616MOL0     C81219  -2.861   9.298  11.861 -0.5299 -0.7204 -0.0116
  616MOL0     C81220  -2.952   9.266  11.751 -0.4745  0.0453  0.4245
  616MOL0     C81221  -3.075   9.373  11.744 -0.4696  0.5032 -0.6291
  616MOL0     C81222  -3.164   9.348  11.625  0.1174 -0.0081  0.3767
  616MOL0     C81223  -3.272   9.454  11.610 -0.8532  0.1312 -0.5560
  616MOL0    Cl81224  -3.329   9.463  11.437 -1.1506 -0.1046  0.0795
  616MOL0     C81225  -2.264   9.105  12.183 -0.0967  0.1636 -0.0513
  616MOL0     C81226  -2.122   9.108  12.187  0.4149  0.1105  0.1165
  616MOL0     O81227  -1.887   8.968  12.053  0.6822 -0.0142 -0.5754
  616MOL0     C81228  -1.625   8.975  11.994  0.4678  0.3309 -0.2784
  616MOL0     C81229  -1.487   8.993  11.980  0.4052 -0.2673 -0.2820
  616MOL0     N81230  -0.690   9.532  11.972 -0.9431 -0.0600 -0.0052
  616MOL0     N81231  -0.627   9.613  11.897  0.0865 -1.5307 -0.0298
  616MOL0     C81232   0.004   9.403  11.037 -0.0259 -0.2603  0.0082
  616MOL0     C81233   0.143   9.392  11.056  0.2948 -0.4888  0.2578
  616MOL0     C81234   0.562   9.269  11.158 -0.4613 -0.4784  0.7327
  616MOL0     C81235   0.608   9.393  11.104 -0.5050  0.6782 -0.6621
  616MOL0     C81236   0.735   9.439  11.142 -0.4961  0.0398  0.6066
  616MOL0     C81237   0.820   9.369  11.221 -0.0612  0.7247 -0.2428
  616MOL0     O81238   0.947   9.407  11.250  0.1135 -0.2841  0.4550
  616MOL0     C81239   1.000   9.536  11.199 -0.5851 -0.4006 -0.6084
  616MOL0     C81240   1.128   9.568  11.285 -0.0462 -0.1423  0.0079
  616MOL0     C81241   1.092   9.573  11.427 -0.0039  0.4826 -0.9110
  616MOL0     C81242   1.205   9.605  11.508 -0.7960 -0.5579  0.3317
  616MOL0     C81243   1.177   9.708  11.616  0.1399  1.1446 -0.2412
  616MOL0     C81244   1.171   9.784  11.706  0.1910 -0.6267  0.4174
  616MOL0     C81245   0.779   9.237  11.261 -0.3006 -0.8624  0.4058
  616MOL0     C81246   0.651   9.190  11.228 -1.4877  0.4841 -0.2853
  616MOL0     H81247   0.205   9.088  10.937  2.0374  0.6812  0.8319
  616MOL0     H81248  -0.038   9.080  10.926  2.2862 -2.2269 -0.6812
  616MOL0     H81249  -0.389   9.404  10.998 -0.8213  3.3451  2.2730
  616MOL0     H81250  -0.242   9.507  11.004  1.9541 -0.3843  2.8904
  616MOL0     H81251  -0.208   9.423  11.209  0.2230  0.6658 -2.9388
  616MOL0     H81252  -0.347   9.303  11.207  0.5479 -0.6029  0.9514
  616MOL0     H81253  -0.508   9.484  11.168  0.4552 -1.9717  1.0629
  616MOL0     H81254  -0.385   9.603  11.172 -1.5613 -0.0978 -0.3388
  616MOL0     H81255  -0.424   9.417  11.418 -3.0925  1.1173  1.4589
  616MOL0     H81256  -0.345   9.568  11.416 -0.1865 -1.3201  0.6372
  616MOL0     H81257  -0.647   9.537  11.379  1.2431 -0.6518 -0.9014
  616MOL0     H81258  -0.558   9.692  11.356  1.2549  0.4161  0.7348
  616MOL0     H81259  -0.464   9.670  11.582  0.5634 -2.4049  5.1725
  616MOL0     H81260  -0.585   9.536  11.611 -0.6810  0.1317 -0.4242
  616MOL0     H81261  -0.661   9.825  11.518  1.7432 -0.2457 -1.1843
  616MOL0     H81262  -0.762   9.680  11.547  1.0525 -1.7683 -0.1671
  616MOL0     H81263  -0.749   9.856  11.721  1.7014  1.3794 -2.5302
  616MOL0     H81264  -0.578   9.810  11.756  0.5791 -1.4199  1.3738
  616MOL0     H81265  -0.921   9.621  11.752  2.0961  0.7950 -1.1334
  616MOL0     H81266  -0.935   9.436  12.083  0.2126  1.2145 -0.4838
  616MOL0     H81267  -0.850   9.317  11.987 -0.8311 -0.5576  2.2103
  616MOL0     H81268  -1.001   9.328  11.807 -0.8155  0.4456 -0.9091
  616MOL0     H81269  -1.098   9.466  11.880  1.0450  0.8950  2.0693
  616MOL0     H81270  -1.074   9.197  12.030  0.7834  0.4902 -0.6630
  616MOL0     H81271  -1.175   9.341  12.060 -1.1767 -2.7634  1.6427
  616MOL0     H81272  -1.210   9.178  11.816  0.0252 -1.1287  0.2020
  616MOL0     H81273  -1.331   9.288  11.890  1.6884  2.2233 -0.8258
  616MOL0     H81274  -1.438   9.298  12.112 -1.2993  0.4144  0.0334
  616MOL0     H81275  -1.685   9.285  12.121  0.8567  0.0252  1.1838
  616MOL0     H81276  -2.037   9.319  11.950 -0.4652 -0.6380  0.1436
  616MOL0     H81277  -2.312   9.320  11.930 -1.4155 -0.7210  0.2235
  616MOL0     H81278  -2.518   9.051  11.944  2.8937 -0.5343  1.6831
  616MOL0     H81279  -2.465   9.213  11.899  3.0885  0.3210  2.1855
  616MOL0     H81280  -2.644   9.336  11.987 -1.8199  1.0137 -3.7646
  616MOL0     H81281  -2.720   9.197  12.066  0.4814  2.7694  1.4225
  616MOL0     H81282  -2.772   9.109  11.845  0.2832  0.8504 -0.4190
  616MOL0     H81283  -2.677   9.219  11.764 -0.5079 -0.5742 -1.0148
  616MOL0     H81284  -2.918   9.286  11.954 -1.5108  1.3418 -0.3032
  616MOL0     H81285  -2.831   9.402  11.852  1.6216 -1.4601 -4.8631
  616MOL0     H81286  -2.994   9.167  11.774 -1.2146  0.5238  1.1950
  616MOL0     H81287  -2.892   9.262  11.660 -0.9550 -0.2256  0.1174
  616MOL0     H81288  -3.017   9.465  11.738  0.0545  0.1087 -1.8039
  616MOL0     H81289  -3.122   9.369  11.843  0.7567  1.4739  0.0163
  616MOL0     H81290  -3.102   9.336  11.536  2.6343  0.1012  2.0046
  616MOL0     H81291  -3.216   9.253  11.638  0.4437 -0.6578 -2.3670
  616MOL0     H81292  -3.253   9.559  11.635 -1.4808  0.6694 -2.1762
  616MOL0     H81293  -3.356   9.432  11.676 -0.3459 -1.8783 -0.5247
  616MOL0     H81294  -2.314   9.057  12.266  1.1929  0.7179  1.0940
  616MOL0     H81295  -2.075   9.057  12.270 -1.7007 -2.8609 -0.3139
  616MOL0     H81296  -1.674   8.885  11.958 -1.1864  0.6409  1.0856
  616MOL0     H81297  -1.426   8.915  11.934  1.1422 -0.0746  0.3523
  616MOL0     H81298  -0.042   9.499  11.060  0.3221 -0.0502 -0.1626
  616MOL0     H81299   0.200   9.473  11.100  2.3458 -0.8322 -1.6170
  616MOL0     H81300   0.554   9.461  11.039 -0.6206  0.1395 -1.1384
  616MOL0     H81301   0.766   9.533  11.098 -1.0808  0.2045  0.5330
  616MOL0     H81302   0.924   9.611  11.222  0.2503  0.1446  0.5184
  616MOL0     H81303   1.011   9.529  11.091 -0.3647  5.8709 -1.3856
  616MOL0     H81304   1.217   9.507  11.272 -0.3089 -1.4847  3.4887
  616MOL0     H81305   1.165   9.667  11.257 -0.3250  1.4860  4.5204
  616MOL0     H81306   1.058   9.479  11.472 -2.9170  2.2646  0.8843
  616MOL0     H81307   0.994   9.621  11.434  0.0897  0.8089 -1.7116
  616MOL0     H81308   1.246   9.512  11.550  1.5672  0.9203  1.5229
  616MOL0     H81309   1.286   9.647  11.448 -1.3509  2.5044  1.5289
  616MOL0     H81310   1.137   9.860  11.774  1.0680  2.1091 -2.0048
  616MOL0     H81311   0.843   9.178  11.325 -0.5218 -2.5809 -0.8869
  616MOL0     H81312   0.614   9.107  11.287 -0.4318  0.6866  0.7007
  617MOL0     O81313   1.924   2.933   0.210  0.4254 -0.2814  0.8721
  617MOL0     C81314   1.927   2.874   0.314 -0.4642 -0.2484 -0.1323
  617MOL0     O81315   1.824   2.846   0.400  0.1640  0.6368  0.0124
  617MOL0     C81316   1.692   2.866   0.374 -0.0822 -0.1002  0.5842
  617MOL0     C81317   1.639   2.981   0.302  0.3083 -0.0695  0.3897
  617MOL0     C81318   1.504   2.996   0.272  0.2593 -0.3482  0.0157
  617MOL0     C81319   1.413   2.905   0.324  0.2527 -0.3317 -0.6705
  617MOL0     O81320   1.277   2.909   0.317  0.0577 -0.2888 -0.5439
  617MOL0     C81321   1.227   2.972   0.440 -0.5722  0.5444 -0.1334
  617MOL0     C81322   1.077   3.007   0.436 -0.0074 -0.4834  0.1979
  617MOL0     C81323   1.026   3.031   0.576  0.3913  0.2081 -1.4498
  617MOL0     C81324   0.875   3.065   0.571 -0.2005 -0.2859  1.0089
  617MOL0     C81325   0.796   2.943   0.521 -0.3970  0.2348  1.1633
  617MOL0     C81326   0.647   2.948   0.565  0.0830  0.4675 -0.3916
  617MOL0     C81327   0.549   2.868   0.478 -0.3793 -0.6851 -0.6983
  617MOL0     C81328   0.601   2.723   0.461  0.3699  0.7160 -0.3447
  617MOL0     N81329   0.502   2.643   0.388 -0.6672 -0.7637  0.5313
  617MOL0     C81330   0.386   2.597   0.434  0.0147 -0.2490  1.0932
  617MOL0     C81331   0.330   2.528   0.336 -1.0661  0.9818  0.6020
  617MOL0     C81332   0.219   2.440   0.357  0.0003  0.2684  0.5177
  617MOL0     C81333   0.087   2.500   0.333  0.6122 -1.4670 -0.8188
  617MOL0     C81334  -0.009   2.506   0.464  1.0292 -0.2430  0.2597
  617MOL0     C81335  -0.162   2.502   0.423 -1.0322  0.2927  0.4906
  617MOL0     O81336  -0.201   2.362   0.402  0.0113 -0.9763 -0.1059
  617MOL0     C81337  -0.341   2.339   0.407  0.7667 -0.0558  0.3819
  617MOL0     C81338  -0.434   2.444   0.383 -0.2278 -0.1685 -0.5273
  617MOL0     C81339  -0.574   2.425   0.372 -0.7082 -0.4328  0.3583
  617MOL0     C81340  -0.619   2.299   0.395  0.2307  0.0022  0.1331
  617MOL0     C81341  -0.766   2.262   0.377  0.2359 -0.2796 -0.6275
  617MOL0     O81342  -0.782   2.136   0.339 -0.7761 -0.8189 -0.1563
  617MOL0     C81343  -0.904   2.082   0.312 -0.3653 -0.4083  0.0629
  617MOL0     C81344  -0.920   1.990   0.213  0.0518 -0.1347 -0.7377
  617MOL0     C81345  -1.043   1.930   0.180  0.3637  0.1210 -0.2931
  617MOL0     C81346  -1.153   1.959   0.260 -0.7516  0.6159 -0.1808
  617MOL0     O81347  -1.280   1.912   0.230  0.3878  0.4610 -0.5493
  617MOL0     C81348  -1.295   1.783   0.154  0.1685 -0.0926 -0.0354
  617MOL0     C81349  -1.427   1.719   0.185 -0.7038 -0.2954  0.8355
  617MOL0     C81350  -1.428   1.575   0.128  0.4807  0.0746 -0.1108
  617MOL0     C81351  -1.565   1.512   0.160  0.5445 -0.2057  0.2021
  617MOL0     C81352  -1.591   1.388   0.070 -0.0563  0.1609 -0.4371
  617MOL0     C81353  -1.723   1.330   0.065  0.2432  0.9167  0.4310
  617MOL0     C81354  -1.730   1.201  -0.020  0.0277  1.0852  0.2999
  617MOL0     C81355  -1.868   1.132  -0.028  1.2015 -0.3971 -0.4825
  617MOL0    Cl81356  -1.999   1.238  -0.090  0.1794 -1.1672  0.0598
  617MOL0     C81357  -1.142   2.041   0.367  0.3760 -0.7464  0.2337
  617MOL0     C81358  -1.018   2.106   0.390  0.1372  0.2105 -0.7615
  617MOL0     O81359  -0.855   2.339   0.406 -0.0061 -0.9178  0.0405
  617MOL0     C81360  -0.532   2.196   0.442  0.3614 -0.6307  0.2809
  617MOL0     C81361  -0.392   2.214   0.442  0.0438 -0.2142 -0.5476
  617MOL0     N81362   0.405   2.545   0.229  0.4311  0.4575  0.1628
  617MOL0     N81363   0.510   2.614   0.256  0.5735 -0.0952  0.6476
  617MOL0     C81364   1.465   2.790   0.396  0.4417 -0.5920 -0.5233
  617MOL0     C81365   1.598   2.780   0.425 -1.8002 -0.6770  0.2667
  617MOL0     C81366   2.058   2.841   0.368  0.7314 -0.0315  0.2558
  617MOL0     C81367   2.165   2.845   0.276  0.1571 -0.0512  0.1840
  617MOL0     C81368   2.300   2.838   0.309  0.6595 -0.1992 -0.3098
  617MOL0     C81369   2.334   2.812   0.442  0.3399  0.4900  0.9987
  617MOL0     O81370   2.462   2.803   0.454  0.0450  0.2457 -0.0695
  617MOL0     C81371   2.515   2.783   0.589  0.2648 -0.3947 -0.7857
  617MOL0     C81372   2.664   2.747   0.594 -0.9224 -0.0093  0.2496
  617MOL0     C81373   2.743   2.844   0.505  0.1118  0.1113  0.2162
  617MOL0     C81374   2.888   2.797   0.510 -0.5949 -0.3641  0.0873
  617MOL0     C81375   2.984   2.908   0.465  0.1090  0.2148  0.5766
  617MOL0     C81376   3.081   2.977   0.426  0.5935 -0.4873  0.1929
  617MOL0     C81377   2.231   2.802   0.537 -1.1153 -0.2457  0.6246
  617MOL0     C81378   2.098   2.827   0.503  0.8969  0.9231 -0.3841
  617MOL0     H81379   1.707   3.060   0.272  0.8231 -1.1571 -1.4296
  617MOL0     H81380   1.473   3.079   0.210  2.7708  0.3276 -0.4399
  617MOL0     H81381   1.275   3.070   0.450 -1.4125  0.9563 -0.0693
  617MOL0     H81382   1.244   2.904   0.523 -1.0583 -0.0622 -0.5179
  617MOL0     H81383   1.031   2.929   0.375  0.3525  0.3029 -1.1272
  617MOL0     H81384   1.052   3.099   0.381 -2.6000 -1.3806 -0.2512
  617MOL0     H81385   1.071   3.118   0.623  2.4010 -1.4701 -0.1137
  617MOL0     H81386   1.050   2.945   0.639 -0.5503 -0.6848 -2.2657
  617MOL0     H81387   0.846   3.088   0.674  2.2814  0.5143  1.5842
  617MOL0     H81388   0.860   3.151   0.504 -1.5437 -2.2656 -1.4392
  617MOL0     H81389   0.837   2.849   0.560  0.4495  0.2356  0.2972
  617MOL0     H81390   0.799   2.938   0.412  2.1883 -0.6482  1.2049
  617MOL0     H81391   0.623   3.055   0.564  0.5615  0.6755  2.4196
  617MOL0     H81392   0.636   2.913   0.668 -0.3851  1.2234 -0.1736
  617MOL0     H81393   0.446   2.885   0.512 -0.2219  1.0013 -0.9905
  617MOL0     H81394   0.535   2.904   0.376  0.1457 -0.7518 -0.7950
  617MOL0     H81395   0.628   2.674   0.555  0.8576 -2.8931 -2.2066
  617MOL0     H81396   0.693   2.740   0.404  2.5771  0.1279  2.7820
  617MOL0     H81397   0.349   2.614   0.535  1.5697  1.7368  1.4083
  617MOL0     H81398   0.233   2.397   0.457 -1.5289 -0.4698  0.4305
  617MOL0     H81399   0.228   2.352   0.292 -0.2401 -0.5071  1.5157
  617MOL0     H81400   0.031   2.448   0.255  0.1149 -2.8737  0.4359
  617MOL0     H81401   0.101   2.598   0.286 -0.8657 -1.4923 -1.3734
  617MOL0     H81402   0.001   2.417   0.526 -3.1250 -0.9117  0.2771
  617MOL0     H81403   0.004   2.603   0.513  0.9147 -0.1872  0.1815
  617MOL0     H81404  -0.184   2.553   0.330 -2.4544  0.0792  0.6885
  617MOL0     H81405  -0.220   2.548   0.503 -0.1435  2.5295 -0.0905
  617MOL0     H81406  -0.404   2.548   0.380 -1.8057  0.3731  0.8468
  617MOL0     H81407  -0.641   2.509   0.364  0.3112  0.4922  1.1522
  617MOL0     H81408  -0.835   1.957   0.154  1.6423 -0.1704  1.4422
  617MOL0     H81409  -1.043   1.863   0.095  0.8606 -1.7167  1.0867
  617MOL0     H81410  -1.221   1.719   0.203  0.4564  1.3446  1.5117
  617MOL0     H81411  -1.283   1.802   0.047 -2.2894  2.7021  0.0683
  617MOL0     H81412  -1.508   1.765   0.128  0.1064 -0.8069 -0.7929
  617MOL0     H81413  -1.439   1.718   0.294  1.5466  0.9636  1.1472
  617MOL0     H81414  -1.347   1.521   0.177 -1.8430 -1.4470  2.2697
  617MOL0     H81415  -1.400   1.578   0.022 -1.4081 -1.3757 -0.7039
  617MOL0     H81416  -1.559   1.492   0.267 -0.3322 -2.7112 -0.1354
  617MOL0     H81417  -1.642   1.589   0.147 -0.0321 -0.9798 -1.3082
  617MOL0     H81418  -1.522   1.310   0.105 -3.5589 -4.2512 -2.2980
  617MOL0     H81419  -1.564   1.414  -0.033  1.5377  1.1379  0.2029
  617MOL0     H81420  -1.788   1.415   0.040  0.6620  1.4833  1.2106
  617MOL0     H81421  -1.753   1.302   0.167  1.9748  1.2055  1.0513
  617MOL0     H81422  -1.698   1.220  -0.123  1.0055 -0.8624  0.1907
  617MOL0     H81423  -1.653   1.129   0.009  2.4940  1.4566 -4.3885
  617MOL0     H81424  -1.894   1.112   0.077  1.2404 -0.1747 -0.4308
  617MOL0     H81425  -1.852   1.046  -0.093  3.0454 -2.0651  2.0022
  617MOL0     H81426  -1.229   2.062   0.429  0.6453 -0.5028  0.5313
  617MOL0     H81427  -1.019   2.172   0.476 -1.2914 -2.7176  1.6543
  617MOL0     H81428  -0.576   2.106   0.484  0.9601 -0.8511  0.4544
  617MOL0     H81429  -0.332   2.130   0.476 -0.2864  0.4757  1.9178
  617MOL0     H81430   1.397   2.724   0.449  0.3497  1.0688  1.5734
  617MOL0     H81431   1.636   2.701   0.489 -1.0832 -0.4224  0.1718
  617MOL0     H81432   2.152   2.865   0.171 -3.7866 -2.5460 -0.0244
  617MOL0     H81433   2.378   2.860   0.236  2.8667  0.7521  2.1583
  617MOL0     H81434   2.453   2.703   0.631 -1.5122 -0.4872 -3.3219
  617MOL0     H81435   2.508   2.876   0.645  2.6202 -0.7798  0.2809
  617MOL0     H81436   2.689   2.762   0.699 -2.4031 -0.0486  0.6217
  617MOL0     H81437   2.682   2.648   0.551 -0.3486  0.8633 -1.6153
  617MOL0     H81438   2.742   2.950   0.532 -0.2314  0.1646  0.0050
  617MOL0     H81439   2.714   2.829   0.400  1.5237 -4.7258  0.2717
  617MOL0     H81440   2.926   2.775   0.611 -0.0707  2.7677  0.6758
  617MOL0     H81441   2.901   2.704   0.455  1.3327  0.5840 -1.1460
  617MOL0     H81442   3.151   3.047   0.386  1.9934 -1.9609 -0.0206
  617MOL0     H81443   2.246   2.782   0.643  0.3930 -2.3202  0.0937
  617MOL0     H81444   2.031   2.845   0.586  1.8989 -0.8650  0.8602
  618MOL0     O81445   2.859   1.176   5.392  0.8508 -0.3397  0.2788
  618MOL0     C81446   2.939   1.185   5.484  0.0144  0.0345 -0.1382
  618MOL0     O81447   2.905   1.159   5.610  0.0394 -0.0332 -0.3986
  618MOL0     C81448   2.775   1.125   5.654  0.1776  0.5908  0.4223
  618MOL0     C81449   2.766   1.019   5.750 -0.1153  0.5654 -0.1842
  618MOL0     C81450   2.644   0.977   5.795 -0.4373 -0.2607  0.3306
  618MOL0     C81451   2.528   1.037   5.744 -0.4765 -0.3127 -0.0716
  618MOL0     O81452   2.413   0.974   5.792  0.4228 -0.0845 -0.0411
  618MOL0     C81453   2.289   1.004   5.721 -0.7581  0.5095 -0.5766
  618MOL0     C81454   2.184   0.919   5.790 -0.1161 -0.0816  0.4152
  618MOL0     C81455   2.054   0.932   5.714 -0.1746  0.0152  0.2095
  618MOL0     C81456   1.954   0.832   5.772 -0.2816  0.4235  0.1806
  618MOL0     C81457   1.819   0.810   5.686 -0.2420 -0.2915 -0.7953
  618MOL0     C81458   1.736   0.939   5.661  0.5894  1.1247  0.1167
  618MOL0     C81459   1.599   0.920   5.584 -0.0740  0.8726 -0.8567
  618MOL0     C81460   1.494   0.834   5.661 -0.4432  0.2774 -0.2397
  618MOL0     N81461   1.362   0.851   5.604 -0.1060 -0.0119  0.1971
  618MOL0     C81462   1.292   0.965   5.597  0.0916 -0.2421 -0.0997
  618MOL0     C81463   1.177   0.931   5.552  0.0683 -0.2841  0.7947
  618MOL0     C81464   1.053   1.022   5.539 -0.5437 -0.1155  0.2325
  618MOL0     C81465   1.037   1.089   5.404  0.2568 -0.6001 -0.0718
  618MOL0     C81466   0.993   1.002   5.278 -0.3412  0.0836 -0.5622
  618MOL0     C81467   0.858   0.932   5.301 -1.5334 -0.0853  0.6270
  618MOL0     O81468   0.805   0.903   5.170  0.0255 -0.0033  0.4679
  618MOL0     C81469   0.665   0.892   5.162 -0.0162  0.2632 -1.1750
  618MOL0     C81470   0.605   0.934   5.045 -0.6853 -0.4078  0.0064
  618MOL0     C81471   0.468   0.922   5.027  0.0142 -0.1533  0.6313
  618MOL0     C81472   0.391   0.847   5.119  0.4823 -0.0517  0.5987
  618MOL0     C81473   0.252   0.810   5.091 -0.4059 -0.0725 -0.0024
  618MOL0     O81474   0.193   0.727   5.185 -0.7017  0.1809  0.7708
  618MOL0     C81475   0.065   0.689   5.155  0.4704 -0.1861  0.2765
  618MOL0     C81476   0.026   0.557   5.160  0.7613 -0.0923 -1.2749
  618MOL0     C81477  -0.110   0.523   5.157  0.1774  0.0003  0.0499
  618MOL0     C81478  -0.206   0.622   5.131 -0.9524 -0.2100 -0.0946
  618MOL0     O81479  -0.333   0.607   5.106  0.3754  0.5793 -0.2556
  618MOL0     C81480  -0.393   0.477   5.115 -0.4997 -0.4723  0.0882
  618MOL0     C81481  -0.540   0.494   5.098  0.4571  0.2114  0.2500
  618MOL0     C81482  -0.618   0.555   5.214  0.1670 -0.4299  1.0779
  618MOL0     C81483  -0.766   0.566   5.190  0.5019  0.1292  0.1871
  618MOL0     C81484  -0.817   0.633   5.060  0.2154 -0.1751 -0.5809
  618MOL0     C81485  -0.971   0.625   5.043 -0.1532 -0.4808 -1.0089
  618MOL0     C81486  -1.007   0.685   4.906 -0.3202  0.2572 -0.0819
  618MOL0     C81487  -1.131   0.617   4.843  0.3718 -0.4667  0.5919
  618MOL0    Cl81488  -1.280   0.674   4.931  0.4849 -0.1626 -0.0119
  618MOL0     C81489  -0.165   0.752   5.113  0.7131  0.0382  1.2394
  618MOL0     C81490  -0.034   0.792   5.128  0.5086  0.0720 -0.6840
  618MOL0     O81491   0.209   0.840   4.982  0.3415 -0.4136  0.1605
  618MOL0     C81492   0.459   0.807   5.238  0.1842 -0.2996  0.3218
  618MOL0     C81493   0.592   0.832   5.264 -0.0445  0.1148  0.2945
  618MOL0     N81494   1.171   0.797   5.522  0.1675  0.3202 -0.1970
  618MOL0     N81495   1.283   0.751   5.560  0.0426 -0.7869  0.1395
  618MOL0     C81496   2.532   1.140   5.652 -0.0781 -0.0133 -0.5964
  618MOL0     C81497   2.652   1.176   5.599 -0.5861 -0.2357 -0.1506
  618MOL0     C81498   3.081   1.226   5.459  0.1333  0.6071 -0.4219
  618MOL0     C81499   3.132   1.241   5.338  0.3406  0.8841 -0.2459
  618MOL0     C81500   3.267   1.266   5.322 -0.4089  0.2703  0.1962
  618MOL0     C81501   3.353   1.284   5.424  0.0395  0.8259  0.5246
  618MOL0     O81502   3.488   1.284   5.421  0.2700 -0.9339 -0.5797
  618MOL0     C81503   3.549   1.180   5.355 -0.7231  0.2997 -0.4845
  618MOL0     C81504   3.690   1.151   5.420 -0.0643  0.3236 -0.1276
  618MOL0     C81505   3.685   1.145   5.569 -0.0988  0.5263  0.2547
  618MOL0     C81506   3.583   1.046   5.622 -0.1704 -0.1825 -0.4666
  618MOL0     C81507   3.611   0.906   5.595 -1.0983 -1.1707  0.3237
  618MOL0     C81508   3.635   0.792   5.572  0.1701 -0.7082 -0.1021
  618MOL0     C81509   3.301   1.275   5.550  0.5550  0.1281  0.0796
  618MOL0     C81510   3.158   1.245   5.569 -0.8843 -0.1498  0.3688
  618MOL0     H81511   2.863   0.979   5.777  0.6075  0.9254 -2.0755
  618MOL0     H81512   2.646   0.891   5.861  2.4692 -0.1445  0.5464
  618MOL0     H81513   2.311   0.982   5.616 -0.4842  0.4038 -0.4981
  618MOL0     H81514   2.267   1.111   5.718  4.4212  1.9078  0.3016
  618MOL0     H81515   2.172   0.960   5.890 -1.3759 -0.3192  0.3756
  618MOL0     H81516   2.216   0.815   5.791  0.3599 -0.0120  4.0071
  618MOL0     H81517   2.085   0.891   5.617 -1.1142 -2.6215  0.9152
  618MOL0     H81518   2.002   1.027   5.703 -3.1251 -1.3831  1.0716
  618MOL0     H81519   2.002   0.741   5.810 -0.5994 -0.5663 -1.6798
  618MOL0     H81520   1.921   0.873   5.869  1.6494 -1.9442  1.9603
  618MOL0     H81521   1.756   0.754   5.756  1.9899  1.2195  2.7155
  618MOL0     H81522   1.826   0.757   5.591  1.3993 -1.2717 -0.1659
  618MOL0     H81523   1.794   1.018   5.612  0.4221  1.6590  0.7672
  618MOL0     H81524   1.720   0.974   5.763 -0.0045 -3.8996  2.0338
  618MOL0     H81525   1.563   1.021   5.563  4.2773  3.2446  1.6056
  618MOL0     H81526   1.610   0.864   5.491  0.8794 -2.3476  1.0355
  618MOL0     H81527   1.492   0.861   5.767 -2.1913 -1.0185  0.0983
  618MOL0     H81528   1.523   0.729   5.658  1.9003  0.8567 -0.1112
  618MOL0     H81529   1.331   1.062   5.626  4.1876 -1.7000 -0.0831
  618MOL0     H81530   1.055   1.097   5.619 -1.5785 -1.0043  1.1259
  618MOL0     H81531   0.966   0.959   5.561 -1.0287  0.6629  0.5864
  618MOL0     H81532   1.141   1.115   5.382  1.0694 -3.1693  0.4226
  618MOL0     H81533   0.973   1.177   5.410 -0.6029 -1.1286 -1.0589
  618MOL0     H81534   0.986   1.068   5.191 -3.2357  1.4390  0.5703
  618MOL0     H81535   1.069   0.924   5.264  0.9908  1.1607  0.4139
  618MOL0     H81536   0.788   0.997   5.355 -1.1861 -1.8907  3.4248
  618MOL0     H81537   0.880   0.841   5.357  1.3624  0.2183  0.1335
  618MOL0     H81538   0.665   0.985   4.970 -0.7851  0.2465  0.3657
  618MOL0     H81539   0.419   0.954   4.936 -0.5307 -1.3649  0.4786
  618MOL0     H81540   0.095   0.479   5.189  2.3420  1.4592 -0.6934
  618MOL0     H81541  -0.144   0.420   5.161  0.4129 -0.0627  0.4715
  618MOL0     H81542  -0.374   0.440   5.216  2.8997 -0.7166 -0.5190
  618MOL0     H81543  -0.351   0.406   5.042  1.5925  1.9591 -1.2423
  618MOL0     H81544  -0.586   0.401   5.063  0.5711  0.1793  0.1843
  618MOL0     H81545  -0.547   0.563   5.013  0.9468 -0.7763 -0.6180
  618MOL0     H81546  -0.596   0.659   5.237  1.5355 -0.5448  0.3474
  618MOL0     H81547  -0.598   0.488   5.298  1.7867  0.0782  1.1186
  618MOL0     H81548  -0.816   0.471   5.212 -1.9083  1.0537 -0.9323
  618MOL0     H81549  -0.820   0.628   5.262 -2.3630  2.0343 -3.2919
  618MOL0     H81550  -0.766   0.587   4.975  1.1527  0.5333 -0.4128
  618MOL0     H81551  -0.793   0.739   5.067 -0.5375  0.0240 -0.9282
  618MOL0     H81552  -1.026   0.690   5.113 -1.7252 -1.7575 -1.0014
  618MOL0     H81553  -1.015   0.527   5.065 -2.2926  0.9865  2.0314
  618MOL0     H81554  -1.016   0.794   4.909 -0.1925  0.3741 -2.0344
  618MOL0     H81555  -0.922   0.672   4.837 -0.7509  0.2710 -0.6241
  618MOL0     H81556  -1.129   0.508   4.849  0.7336 -0.4597  0.6396
  618MOL0     H81557  -1.136   0.643   4.737  1.1611 -0.2078  0.6178
  618MOL0     H81558  -0.241   0.827   5.093 -0.7305 -1.8750 -1.1544
  618MOL0     H81559  -0.008   0.897   5.134 -0.7888  0.4983 -1.7658
  618MOL0     H81560   0.398   0.750   5.308  1.6895 -1.1500  0.9776
  618MOL0     H81561   0.645   0.795   5.350 -0.1687  0.7030  0.6240
  618MOL0     H81562   2.438   1.185   5.624 -0.9286  0.5545  2.7295
  618MOL0     H81563   2.653   1.247   5.516 -0.8474 -2.0494 -1.7672
  618MOL0     H81564   3.067   1.242   5.252  0.6590  1.1657 -0.4874
  618MOL0     H81565   3.307   1.274   5.221 -3.0720 -1.2204 -1.0821
  618MOL0     H81566   3.571   1.211   5.252 -0.5138 -1.0199 -0.8668
  618MOL0     H81567   3.479   1.097   5.368 -0.0827 -0.0604  0.8832
  618MOL0     H81568   3.719   1.053   5.379 -0.2467 -0.4873  1.5865
  618MOL0     H81569   3.753   1.232   5.384 -2.4158  1.4313 -2.0282
  618MOL0     H81570   3.674   1.244   5.614  0.0159 -0.1299  1.7771
  618MOL0     H81571   3.786   1.124   5.607  0.9416  2.2314 -1.3636
  618MOL0     H81572   3.562   1.059   5.728 -0.6019  2.1795 -0.7922
  618MOL0     H81573   3.485   1.066   5.578 -1.2589 -1.0766  1.4165
  618MOL0     H81574   3.657   0.688   5.559 -0.5733 -1.1263  1.7434
  618MOL0     H81575   3.352   1.299   5.643  0.6397  0.4145 -0.0385
  618MOL0     H81576   3.116   1.233   5.668 -2.1146  1.2460  0.0410
  619MOL0     O81577   0.543   5.913   3.403 -0.0848  0.5776 -0.5879
  619MOL0     C81578   0.655   5.900   3.456  0.1306  0.1441  0.6014
  619MOL0     O81579   0.687   5.823   3.565 -0.2137 -0.0955  0.3354
  619MOL0     C81580   0.599   5.740   3.627  0.3295 -0.0612  0.5927
  619MOL0     C81581   0.645   5.620   3.673  0.7822  0.0300 -0.0689
  619MOL0     C81582   0.558   5.532   3.752 -0.4783 -0.3033  0.8536
  619MOL0     C81583   0.427   5.556   3.771  0.7907  0.4574  0.2079
  619MOL0     O81584   0.340   5.472   3.849  0.4165  0.3721  0.3858
  619MOL0     C81585   0.211   5.432   3.783  0.2076 -0.2748 -0.5424
  619MOL0     C81586   0.227   5.368   3.648 -0.7553  0.2390 -0.2007
  619MOL0     C81587   0.097   5.353   3.572  0.8716  0.1026  0.3073
  619MOL0     C81588   0.016   5.485   3.530 -0.8144  0.0055 -0.2891
  619MOL0     C81589  -0.133   5.442   3.512 -0.7861 -0.3609 -0.1073
  619MOL0     C81590  -0.215   5.573   3.517 -0.5760 -0.3175  0.7703
  619MOL0     C81591  -0.365   5.554   3.513  0.9160  0.2902 -0.0140
  619MOL0     C81592  -0.422   5.494   3.377  0.1406 -0.3402 -1.1402
  619MOL0     N81593  -0.567   5.474   3.377  0.3970  0.1392 -0.3087
  619MOL0     C81594  -0.629   5.368   3.316 -0.1405 -0.9894 -0.2469
  619MOL0     C81595  -0.764   5.406   3.317 -0.1641  0.5035  0.2508
  619MOL0     C81596  -0.882   5.320   3.264  0.5484 -0.2416  0.0278
  619MOL0     C81597  -0.884   5.181   3.309 -0.3001  0.2713  0.3084
  619MOL0     C81598  -0.944   5.087   3.207 -0.0001  1.3853  0.6298
  619MOL0     C81599  -1.091   5.117   3.169 -0.1722 -0.3430  0.1496
  619MOL0     O81600  -1.144   5.009   3.093 -0.3138 -0.1574  0.2503
  619MOL0     C81601  -1.276   5.017   3.053 -0.1679 -0.3451  0.2801
  619MOL0     C81602  -1.349   4.899   3.029 -0.0334 -0.5714  0.5953
  619MOL0     C81603  -1.487   4.902   2.991 -0.3031 -0.9228  0.4976
  619MOL0     C81604  -1.556   5.029   2.960  0.2030 -0.9045 -1.2428
  619MOL0     C81605  -1.705   5.019   2.932 -0.0724 -0.2028  0.2501
  619MOL0     O81606  -1.759   4.900   2.913  0.6226 -0.3723 -0.1351
  619MOL0     C81607  -1.871   4.891   2.831 -0.3646  0.6381 -0.1942
  619MOL0     C81608  -1.880   4.936   2.698  0.6148 -0.0006 -0.5768
  619MOL0     C81609  -1.997   4.923   2.621  0.2025 -0.6213 -0.2706
  619MOL0     C81610  -2.109   4.853   2.674 -0.0570  0.4430 -0.4281
  619MOL0     O81611  -2.218   4.826   2.594 -0.0135  0.1301  0.0176
  619MOL0     C81612  -2.336   4.783   2.635  0.7119  0.7028 -0.4632
  619MOL0     C81613  -2.414   4.768   2.504  0.0079 -0.6550 -0.4253
  619MOL0     C81614  -2.559   4.723   2.540  0.1421  0.1830  0.5820
  619MOL0     C81615  -2.639   4.682   2.407  0.5110  0.2924 -0.1395
  619MOL0     C81616  -2.772   4.605   2.437 -1.0120  0.0772  0.5451
  619MOL0     C81617  -2.878   4.630   2.323 -0.6798 -0.5984  0.3610
  619MOL0     C81618  -2.836   4.549   2.201 -0.5809 -0.0376 -0.6812
  619MOL0     C81619  -2.942   4.550   2.095 -0.3911 -0.5860 -0.0205
  619MOL0    Cl81620  -3.078   4.434   2.138  0.2465  0.1012  0.0535
  619MOL0     C81621  -2.100   4.808   2.802  0.1360 -0.9244  0.7645
  619MOL0     C81622  -1.989   4.830   2.879 -0.4339  0.9860  0.0121
  619MOL0     O81623  -1.762   5.125   2.916 -0.9740 -0.4591 -0.1393
  619MOL0     C81624  -1.479   5.142   2.968  0.3643  0.0752  0.5101
  619MOL0     C81625  -1.348   5.133   3.019 -0.5519  0.0331 -0.0595
  619MOL0     N81626  -0.777   5.525   3.370  0.3011 -0.8543 -0.4467
  619MOL0     N81627  -0.671   5.562   3.425  0.6868 -0.0511 -0.2182
  619MOL0     C81628   0.375   5.675   3.715 -0.7671  0.2715 -0.0551
  619MOL0     C81629   0.461   5.770   3.653 -1.1260  0.0489 -0.1978
  619MOL0     C81630   0.764   5.989   3.403 -0.0943  0.1801 -0.3567
  619MOL0     C81631   0.751   6.101   3.318 -0.6860  0.1318 -0.8140
  619MOL0     C81632   0.856   6.184   3.273 -1.1077 -0.0836 -0.0354
  619MOL0     C81633   0.987   6.155   3.312 -0.5350  0.0344 -0.9165
  619MOL0     O81634   1.101   6.228   3.281  0.1291  0.7610 -0.1587
  619MOL0     C81635   1.086   6.363   3.239  1.3856 -0.1005 -0.1765
  619MOL0     C81636   1.217   6.428   3.227  0.0233  0.1034  0.8081
  619MOL0     C81637   1.281   6.431   3.360  0.1479  0.6265  0.4607
  619MOL0     C81638   1.436   6.443   3.358 -0.7077  0.0050 -0.4024
  619MOL0     C81639   1.477   6.457   3.493  0.1893 -0.2096 -0.4742
  619MOL0     C81640   1.505   6.458   3.610 -0.7808  0.4521  0.0378
  619MOL0     C81641   1.006   6.041   3.395  0.5812  0.8296 -0.5131
  619MOL0     C81642   0.900   5.961   3.435  0.9106  0.7307  1.1902
  619MOL0     H81643   0.753   5.610   3.670  0.8314 -0.5880  2.1439
  619MOL0     H81644   0.591   5.433   3.782 -0.9670 -0.1678  1.8969
  619MOL0     H81645   0.148   5.520   3.767  0.5150  0.2079  0.7987
  619MOL0     H81646   0.161   5.362   3.850  1.8761 -0.1613  0.9025
  619MOL0     H81647   0.271   5.273   3.678  2.4235  1.7858  0.4788
  619MOL0     H81648   0.300   5.424   3.588 -1.8202  2.8504  0.7582
  619MOL0     H81649   0.025   5.306   3.639 -0.0862  1.4949  0.2987
  619MOL0     H81650   0.120   5.287   3.488  0.0259 -1.8318  1.5298
  619MOL0     H81651   0.041   5.564   3.601  1.2567  1.1067 -2.0946
  619MOL0     H81652   0.058   5.508   3.431 -0.0303  0.1446  0.0722
  619MOL0     H81653  -0.167   5.386   3.600  0.9224 -0.0809  0.7842
  619MOL0     H81654  -0.134   5.376   3.424  2.0424 -0.3021 -0.2848
  619MOL0     H81655  -0.187   5.640   3.435  0.5284  1.3396  2.4253
  619MOL0     H81656  -0.202   5.626   3.612 -0.7260 -1.2352  1.3136
  619MOL0     H81657  -0.411   5.494   3.592  0.9273 -0.4005 -0.5223
  619MOL0     H81658  -0.404   5.656   3.507  0.8948  0.2920  0.1540
  619MOL0     H81659  -0.381   5.395   3.358 -3.2504 -2.0414 -0.3854
  619MOL0     H81660  -0.381   5.562   3.302  1.2376  0.1694 -0.1138
  619MOL0     H81661  -0.599   5.267   3.287  0.9679 -0.6284 -0.4017
  619MOL0     H81662  -0.873   5.330   3.155 -0.7305  0.2449 -0.0536
  619MOL0     H81663  -0.975   5.371   3.290  0.3228 -2.3855  4.1432
  619MOL0     H81664  -0.942   5.166   3.401 -1.8471  1.5395 -0.4096
  619MOL0     H81665  -0.781   5.146   3.318 -0.0795  0.4210 -1.3208
  619MOL0     H81666  -0.889   5.085   3.113 -0.6279 -0.1671  0.2588
  619MOL0     H81667  -0.940   4.989   3.255 -1.1038  0.6036 -0.8090
  619MOL0     H81668  -1.089   5.212   3.116  0.5532  0.3274  1.3484
  619MOL0     H81669  -1.139   5.117   3.267 -0.5672 -1.4790 -0.0247
  619MOL0     H81670  -1.298   4.805   3.048  3.9726  0.2536 -3.9470
  619MOL0     H81671  -1.533   4.804   2.995  2.7270 -2.5032  5.5168
  619MOL0     H81672  -1.786   4.975   2.661  2.0819 -2.0574  0.7317
  619MOL0     H81673  -2.001   4.953   2.516 -0.1228  1.6415  0.3303
  619MOL0     H81674  -2.386   4.855   2.700 -0.5277  0.7223 -1.3957
  619MOL0     H81675  -2.329   4.690   2.692  1.7521  0.4986 -0.8938
  619MOL0     H81676  -2.353   4.701   2.442  0.2010 -1.0806  0.2153
  619MOL0     H81677  -2.418   4.860   2.446 -0.6779  0.1732  0.8931
  619MOL0     H81678  -2.616   4.803   2.588  1.6800  0.5712  1.8327
  619MOL0     H81679  -2.562   4.631   2.599 -0.0070 -0.7225 -0.7839
  619MOL0     H81680  -2.661   4.772   2.349 -1.9688 -0.2297 -0.0803
  619MOL0     H81681  -2.575   4.613   2.351 -1.4895 -1.4912 -0.3199
  619MOL0     H81682  -2.815   4.647   2.528  2.4408  4.6376  0.4438
  619MOL0     H81683  -2.752   4.501   2.466 -1.9085 -0.3127 -0.1821
  619MOL0     H81684  -2.893   4.736   2.301 -1.5584 -0.6237  0.8275
  619MOL0     H81685  -2.972   4.594   2.366 -1.4252  2.5594  1.6517
  619MOL0     H81686  -2.754   4.608   2.159 -2.2219  2.5000 -0.5255
  619MOL0     H81687  -2.819   4.444   2.227 -1.4061 -0.1468 -0.5626
  619MOL0     H81688  -2.899   4.519   1.999  1.6239  1.1369  0.2353
  619MOL0     H81689  -2.979   4.652   2.080 -0.5055 -0.2620  2.1487
  619MOL0     H81690  -2.193   4.765   2.838 -1.0813 -1.0140 -2.1883
  619MOL0     H81691  -1.983   4.793   2.981  0.9745  0.3849 -0.2729
  619MOL0     H81692  -1.523   5.236   2.936  0.2536  0.0428  0.5645
  619MOL0     H81693  -1.295   5.228   3.012  1.6271 -1.1717 -0.8889
  619MOL0     H81694   0.273   5.694   3.744 -1.5674 -3.0287 -0.2296
  619MOL0     H81695   0.435   5.867   3.610 -2.0780  0.4134  1.1526
  619MOL0     H81696   0.655   6.125   3.272  0.2817 -1.0395 -3.6672
  619MOL0     H81697   0.850   6.271   3.208  0.2044 -0.4705 -0.7205
  619MOL0     H81698   1.028   6.409   3.319  0.8056 -1.5903  0.3116
  619MOL0     H81699   1.028   6.373   3.147 -0.0655  0.3319  0.7508
  619MOL0     H81700   1.279   6.367   3.161 -1.7857 -0.4304 -0.4750
  619MOL0     H81701   1.204   6.528   3.183 -0.0051  0.4511  1.5849
  619MOL0     H81702   1.252   6.340   3.414  0.7217  0.1123 -0.0812
  619MOL0     H81703   1.241   6.514   3.419  1.0199  0.3773  1.4590
  619MOL0     H81704   1.478   6.345   3.335  2.1203  1.1630 -0.5569
  619MOL0     H81705   1.471   6.520   3.289  0.1704  0.1497  0.1910
  619MOL0     H81706   1.540   6.459   3.711 -2.6977  2.8127  0.7838
  619MOL0     H81707   1.105   6.019   3.435 -0.7237  1.0009  3.2857
  619MOL0     H81708   0.928   5.873   3.491 -1.3826  0.9604  2.8081
  620MOL0     O81709   0.912   4.362   4.211 -0.3046 -0.0378 -0.4604
  620MOL0     C81710   0.915   4.448   4.121  0.3335  0.5130 -0.5608
  620MOL0     O81711   0.806   4.489   4.065 -0.3425  0.0867  0.8994
  620MOL0     C81712   0.680   4.437   4.098 -0.1679  0.9895 -0.1381
  620MOL0     C81713   0.633   4.365   4.216  0.2396 -0.2073  0.1124
  620MOL0     C81714   0.500   4.315   4.227  0.7227 -0.8388  0.0246
  620MOL0     C81715   0.407   4.343   4.119  0.1620  0.1499 -0.9023
  620MOL0     O81716   0.282   4.295   4.141  0.2883 -0.6159 -0.1788
  620MOL0     C81717   0.174   4.392   4.131  0.8606  0.1471 -0.0146
  620MOL0     C81718   0.053   4.309   4.188  1.0834 -0.4004 -0.0958
  620MOL0     C81719  -0.068   4.404   4.153  0.4276 -0.1650  0.7219
  620MOL0     C81720  -0.205   4.365   4.214 -0.4992 -0.1816  0.9006
  620MOL0     C81721  -0.309   4.475   4.204 -0.1230 -0.3183 -0.0289
  620MOL0     C81722  -0.331   4.530   4.058 -0.1223 -0.7235 -0.1153
  620MOL0     C81723  -0.417   4.655   4.048  0.2130 -1.0442  0.0608
  620MOL0     C81724  -0.454   4.684   3.897  0.3743  0.3011 -0.0344
  620MOL0     N81725  -0.601   4.659   3.871 -0.6941 -0.2193  0.1084
  620MOL0     C81726  -0.658   4.530   3.855  1.0918  0.3950  0.1627
  620MOL0     C81727  -0.771   4.559   3.782  0.7512 -0.2055  0.4772
  620MOL0     C81728  -0.871   4.456   3.732 -0.9397 -0.3104 -0.7732
  620MOL0     C81729  -1.014   4.479   3.788 -1.1653  0.4922 -0.6390
  620MOL0     C81730  -1.016   4.481   3.952  0.1679 -0.2778 -0.0755
  620MOL0     C81731  -1.145   4.449   4.010 -0.1876 -0.5642 -0.2483
  620MOL0     O81732  -1.246   4.511   3.930 -0.1954  1.2514 -0.5614
  620MOL0     C81733  -1.372   4.458   3.916 -0.1114 -1.3621 -0.9211
  620MOL0     C81734  -1.446   4.401   4.018  0.0995  0.1259 -0.1835
  620MOL0     C81735  -1.566   4.335   3.991  0.4468  0.1136  0.2000
  620MOL0     C81736  -1.619   4.325   3.864  0.1899  0.6784  0.6890
  620MOL0     C81737  -1.747   4.254   3.842  0.2604  0.0757 -0.0788
  620MOL0     O81738  -1.806   4.274   3.716 -0.7155 -0.0092 -0.0017
  620MOL0     C81739  -1.901   4.185   3.671 -1.2827  0.3911  0.3466
  620MOL0     C81740  -1.990   4.235   3.574 -0.7825 -0.2034  0.6753
  620MOL0     C81741  -2.091   4.156   3.523  0.2487 -0.1331  0.0076
  620MOL0     C81742  -2.109   4.018   3.550  0.4793 -0.0006  0.3174
  620MOL0     O81743  -2.198   3.930   3.491 -0.2458 -0.4222 -0.0605
  620MOL0     C81744  -2.270   3.972   3.375  0.9794 -0.8519  0.2422
  620MOL0     C81745  -2.348   3.860   3.308 -0.0014 -0.3085 -0.0630
  620MOL0     C81746  -2.428   3.925   3.188  0.4701  0.0473 -0.2574
  620MOL0     C81747  -2.523   3.816   3.137 -0.1740 -0.4126  0.7640
  620MOL0     C81748  -2.631   3.877   3.041 -0.5704 -0.2373 -0.3848
  620MOL0     C81749  -2.737   3.776   2.976 -0.3879 -0.5233 -0.2478
  620MOL0     C81750  -2.810   3.699   3.074 -0.3909  0.2357 -0.0301
  620MOL0     C81751  -2.922   3.622   2.999  0.4067 -0.3376  0.7408
  620MOL0    Cl81752  -2.995   3.496   3.104  0.3086  0.1695 -0.2202
  620MOL0     C81753  -2.010   3.969   3.634  0.8228 -0.3279 -0.6103
  620MOL0     C81754  -1.919   4.047   3.699 -0.7568 -0.5965 -0.7332
  620MOL0     O81755  -1.801   4.203   3.940 -0.5301  0.3912 -0.3667
  620MOL0     C81756  -1.562   4.409   3.763  0.1935  1.2088  0.2446
  620MOL0     C81757  -1.440   4.473   3.796  1.0670  0.2619 -0.0080
  620MOL0     N81758  -0.775   4.700   3.759  0.3637  0.8050 -0.2868
  620MOL0     N81759  -0.672   4.758   3.807 -0.5716 -0.3494  0.2130
  620MOL0     C81760   0.447   4.419   4.007 -0.1430  0.0748  0.6729
  620MOL0     C81761   0.584   4.453   3.995  0.6171 -0.6717 -0.0001
  620MOL0     C81762   1.046   4.509   4.072 -0.1450 -0.9326 -0.7689
  620MOL0     C81763   1.038   4.618   3.983  0.6477 -0.8342 -1.0535
  620MOL0     C81764   1.151   4.694   3.951 -0.1256  0.1578 -0.2642
  620MOL0     C81765   1.273   4.659   4.003  0.0755 -0.4524 -0.4044
  620MOL0     O81766   1.390   4.716   3.981  0.5425 -0.0503 -0.2197
  620MOL0     C81767   1.413   4.795   3.859 -0.1943  0.4137 -0.1775
  620MOL0     C81768   1.563   4.825   3.851 -0.1410  0.1477 -0.1642
  620MOL0     C81769   1.586   4.934   3.739  0.5655 -0.1115  0.2860
  620MOL0     C81770   1.736   4.950   3.713 -0.2035  0.0111 -0.6077
  620MOL0     C81771   1.764   4.845   3.615 -0.0234 -0.3417 -0.9937
  620MOL0     C81772   1.812   4.758   3.545  0.2631 -0.2420 -0.2615
  620MOL0     C81773   1.278   4.550   4.093 -0.3507 -0.2306 -0.2117
  620MOL0     C81774   1.168   4.473   4.130  0.1387  0.3758 -1.2305
  620MOL0     H81775   0.700   4.339   4.297 -1.3547  3.0006  2.6920
  620MOL0     H81776   0.461   4.264   4.314  0.4706 -0.6649  0.0146
  620MOL0     H81777   0.158   4.427   4.029  1.2445  0.2610 -0.0357
  620MOL0     H81778   0.186   4.484   4.189 -0.2928 -0.0946  0.6319
  620MOL0     H81779   0.053   4.296   4.297 -0.5178 -4.3615 -0.4088
  620MOL0     H81780   0.045   4.209   4.145 -2.0745 -0.4361  0.3650
  620MOL0     H81781  -0.079   4.413   4.045 -3.0999 -2.3562  0.7365
  620MOL0     H81782  -0.059   4.505   4.194  1.1370 -0.1659  0.5692
  620MOL0     H81783  -0.240   4.278   4.157  1.5826  0.0959 -0.9324
  620MOL0     H81784  -0.206   4.333   4.318 -1.9389 -1.7126  0.4573
  620MOL0     H81785  -0.272   4.563   4.258  0.6160  1.8137 -3.6130
  620MOL0     H81786  -0.408   4.450   4.240  0.2243 -0.1195  1.0893
  620MOL0     H81787  -0.364   4.447   3.994 -0.8341  0.4424 -1.3007
  620MOL0     H81788  -0.231   4.559   4.024 -0.4421 -0.9121 -1.2572
  620MOL0     H81789  -0.513   4.631   4.096  0.3408 -1.2286  0.2269
  620MOL0     H81790  -0.369   4.747   4.083 -0.6601 -0.0740 -1.2081
  620MOL0     H81791  -0.381   4.633   3.834 -0.2872  2.0577 -2.3383
  620MOL0     H81792  -0.430   4.790   3.886  1.6429 -0.0889 -1.2383
  620MOL0     H81793  -0.632   4.434   3.899 -3.3065 -0.5438  1.1683
  620MOL0     H81794  -0.827   4.356   3.747  3.2398  1.3977 -0.2478
  620MOL0     H81795  -0.877   4.455   3.622  0.6643 -2.1764 -0.9234
  620MOL0     H81796  -1.084   4.405   3.750 -2.4297  1.0409  0.5309
  620MOL0     H81797  -1.053   4.576   3.755  0.3701  1.2920 -0.1981
  620MOL0     H81798  -0.938   4.420   3.998  1.6106  1.7008  0.2190
  620MOL0     H81799  -1.002   4.584   3.987 -0.2371 -0.7624  1.5899
  620MOL0     H81800  -1.152   4.489   4.111  1.8125  0.3566 -0.4096
  620MOL0     H81801  -1.148   4.340   4.009  5.3022 -1.0219 -1.9176
  620MOL0     H81802  -1.398   4.408   4.115 -0.3474 -0.5271  0.0850
  620MOL0     H81803  -1.611   4.292   4.080  2.7481 -2.1358  0.3959
  620MOL0     H81804  -1.984   4.342   3.553  0.7624 -0.1440  1.2548
  620MOL0     H81805  -2.159   4.216   3.462  1.9561  0.7003 -1.1438
  620MOL0     H81806  -2.197   4.003   3.299  0.7046 -0.2052  0.2417
  620MOL0     H81807  -2.339   4.052   3.401  2.0152  1.7580 -4.1176
  620MOL0     H81808  -2.416   3.814   3.381 -0.0534 -2.0066 -1.1057
  620MOL0     H81809  -2.275   3.787   3.272 -1.5070 -0.3445 -3.3513
  620MOL0     H81810  -2.364   3.952   3.104 -1.5863 -0.2965 -1.9928
  620MOL0     H81811  -2.476   4.016   3.225 -1.0826 -2.9208  6.6499
  620MOL0     H81812  -2.466   3.729   3.101  0.2697 -1.2170  3.2063
  620MOL0     H81813  -2.573   3.773   3.224  0.8187 -1.1068  1.0207
  620MOL0     H81814  -2.564   3.915   2.963  0.5707 -0.5731  0.4082
  620MOL0     H81815  -2.681   3.957   3.095  1.0630 -0.1633  1.1238
  620MOL0     H81816  -2.690   3.702   2.911 -2.1318 -1.8183 -0.1291
  620MOL0     H81817  -2.792   3.839   2.905 -0.7386 -0.1185  0.3768
  620MOL0     H81818  -2.744   3.632   3.129 -1.4609 -0.8840 -0.0550
  620MOL0     H81819  -2.850   3.765   3.152 -2.0390 -1.0243  0.2410
  620MOL0     H81820  -2.880   3.583   2.907  0.9441 -0.2567  0.9475
  620MOL0     H81821  -2.996   3.698   2.971  2.1931  1.0052 -0.5692
  620MOL0     H81822  -1.992   3.863   3.649  3.3459  0.0583 -0.3993
  620MOL0     H81823  -1.851   3.998   3.769 -1.9159 -3.4126 -1.4399
  620MOL0     H81824  -1.614   4.430   3.670 -0.3036 -1.6057 -0.2044
  620MOL0     H81825  -1.394   4.529   3.715 -2.7925  3.4359 -0.3142
  620MOL0     H81826   0.365   4.440   3.939 -2.0648 -3.0216  1.8225
  620MOL0     H81827   0.626   4.500   3.906 -0.2932 -1.4170 -0.8384
  620MOL0     H81828   0.939   4.653   3.953  1.0769  3.0856  1.3817
  620MOL0     H81829   1.141   4.783   3.891 -0.1173  0.2442 -0.1378
  620MOL0     H81830   1.349   4.883   3.857  0.1253  0.7226  1.5884
  620MOL0     H81831   1.388   4.739   3.769  1.8869  0.4322 -0.8087
  620MOL0     H81832   1.615   4.859   3.941 -3.3316  1.3699  1.3892
  620MOL0     H81833   1.610   4.732   3.818  2.3646  1.2263  0.1399
  620MOL0     H81834   1.540   5.025   3.779  0.2778  0.0525 -0.4149
  620MOL0     H81835   1.529   4.900   3.652  0.8753 -0.2904  0.1530
  620MOL0     H81836   1.746   5.046   3.662 -1.5731 -0.9961 -2.9688
  620MOL0     H81837   1.799   4.944   3.802  0.4709  0.3673 -1.0498
  620MOL0     H81838   1.862   4.684   3.486  0.2712 -1.5274  1.2633
  620MOL0     H81839   1.374   4.544   4.143  0.4302  1.3251 -1.4447
  620MOL0     H81840   1.174   4.411   4.218  2.0400  1.1574 -0.7589
  621MOL0     O81841   5.951   0.202   9.893 -0.2820 -0.0819  0.2272
  621MOL0     C81842   6.073   0.189   9.904 -0.7373  0.1592 -0.6417
  621MOL0     O81843   6.160   0.117   9.812  0.4759  0.1932 -0.0130
  621MOL0     C81844   6.096   0.057   9.712  0.9804  0.4465 -0.0044
  621MOL0     C81845   6.069   0.133   9.588 -0.0134  0.7485  0.1721
  621MOL0     C81846   6.026   0.064   9.479  0.1206 -0.2587 -0.5344
  621MOL0     C81847   5.987  -0.071   9.487  1.3000 -0.1724  0.3650
  621MOL0     O81848   5.930  -0.135   9.380  0.9457  0.0958 -0.6449
  621MOL0     C81849   5.846  -0.058   9.287  0.0588 -0.3401  0.7833
  621MOL0     C81850   5.741  -0.162   9.217 -0.1271 -0.7931 -0.5331
  621MOL0     C81851   5.794  -0.281   9.132  0.5234 -0.2954 -0.5956
  621MOL0     C81852   5.696  -0.398   9.109 -0.2804 -0.3056 -0.1309
  621MOL0     C81853   5.588  -0.347   9.011 -0.4418  0.0816  0.1486
  621MOL0     C81854   5.538  -0.461   8.922 -0.6262 -0.6978 -0.1448
  621MOL0     C81855   5.404  -0.411   8.853 -1.0563  0.4030 -0.9215
  621MOL0     C81856   5.388  -0.462   8.711  0.7225 -0.4616 -0.4715
  621MOL0     N81857   5.251  -0.453   8.661 -0.5524 -0.1872  0.3872
  621MOL0     C81858   5.152  -0.529   8.710 -1.1374 -0.2400  0.4765
  621MOL0     C81859   5.048  -0.475   8.651  0.5640  0.1385 -0.0760
  621MOL0     C81860   4.910  -0.540   8.664 -0.3741 -1.0575 -0.2177
  621MOL0     C81861   4.804  -0.422   8.677 -0.8949  0.4819  0.7210
  621MOL0     C81862   4.673  -0.463   8.725  0.4872 -0.3780 -1.2205
  621MOL0     C81863   4.685  -0.472   8.878  0.5555  0.2060  0.5136
  621MOL0     O81864   4.556  -0.436   8.949 -0.1238 -0.2916  0.5470
  621MOL0     C81865   4.438  -0.497   8.916  0.5868  0.2177 -0.0931
  621MOL0     C81866   4.308  -0.430   8.937 -0.5530 -0.1624 -0.1152
  621MOL0     C81867   4.193  -0.484   8.884  0.6582  0.5285  0.1784
  621MOL0     C81868   4.191  -0.618   8.827 -1.8127  0.5411  0.0827
  621MOL0     C81869   4.062  -0.683   8.784  0.5051 -0.6690  0.3835
  621MOL0     O81870   3.951  -0.601   8.802  0.2645  0.3815  0.1667
  621MOL0     C81871   3.826  -0.649   8.757 -0.0250 -0.1097  0.3963
  621MOL0     C81872   3.711  -0.667   8.846 -1.0662 -0.9672 -0.9056
  621MOL0     C81873   3.600  -0.721   8.785  0.3743 -0.0340 -0.3030
  621MOL0     C81874   3.584  -0.744   8.649 -0.0175 -0.0873  0.9004
  621MOL0     O81875   3.474  -0.799   8.587 -0.1843  0.0478 -0.6747
  621MOL0     C81876   3.373  -0.857   8.671  0.2131  0.0386  0.5089
  621MOL0     C81877   3.271  -0.760   8.734  0.1148  0.0076  0.5931
  621MOL0     C81878   3.132  -0.815   8.751 -0.1657  0.7899 -0.1407
  621MOL0     C81879   3.059  -0.810   8.626  0.1305  0.1069  0.4481
  621MOL0     C81880   2.928  -0.883   8.606  0.4478  0.1476  0.3785
  621MOL0     C81881   2.817  -0.854   8.709 -0.1776  0.0950 -0.1130
  621MOL0     C81882   2.684  -0.904   8.651  0.4109 -0.1723  0.5931
  621MOL0     C81883   2.617  -0.812   8.550  0.4106 -0.1150 -0.0945
  621MOL0    Cl81884   2.482  -0.906   8.473 -0.1033  0.1244  0.1826
  621MOL0     C81885   3.690  -0.708   8.562 -0.3544  1.3908  0.8156
  621MOL0     C81886   3.809  -0.675   8.620  0.1813 -0.0029  0.2492
  621MOL0     O81887   4.064  -0.794   8.736  0.2118 -0.1074 -0.1929
  621MOL0     C81888   4.310  -0.685   8.818  0.2566  0.1456  0.9840
  621MOL0     C81889   4.428  -0.623   8.860 -0.1086 -0.0141 -0.5469
  621MOL0     N81890   5.087  -0.378   8.563 -0.2756 -0.0139 -0.5700
  621MOL0     N81891   5.214  -0.370   8.555  0.1300 -0.5404 -0.8421
  621MOL0     C81892   6.004  -0.142   9.611  0.2558 -0.5946  1.1208
  621MOL0     C81893   6.056  -0.079   9.720  0.5635  0.0071 -0.3892
  621MOL0     C81894   6.147   0.245  10.024  0.2478  0.3267 -0.7018
  621MOL0     C81895   6.080   0.338  10.108 -0.3075 -0.9880 -1.1025
  621MOL0     C81896   6.157   0.403  10.209 -0.2209 -0.0501  0.2324
  621MOL0     C81897   6.295   0.372  10.227 -0.6409  0.4219 -0.0792
  621MOL0     O81898   6.356   0.441  10.331 -0.1752  0.5048  0.6482
  621MOL0     C81899   6.499   0.440  10.342  0.5629 -0.2807  0.1409
  621MOL0     C81900   6.543   0.324  10.427  0.4522  0.3974  0.5468
  621MOL0     C81901   6.698   0.300  10.432  0.3080 -1.2565 -0.9516
  621MOL0     C81902   6.717   0.176  10.520 -0.2334 -0.2159  0.7567
  621MOL0     C81903   6.862   0.156  10.506  0.6966 -0.0308  0.1993
  621MOL0     C81904   6.975   0.111  10.507  0.3202  0.0081 -0.4417
  621MOL0     C81905   6.357   0.272  10.147  0.0042  0.5041  0.8159
  621MOL0     C81906   6.282   0.212  10.048 -0.2760 -0.3735 -0.6269
  621MOL0     H81907   6.098   0.237   9.587  2.1020  0.2114 -1.6203
  621MOL0     H81908   6.047   0.114   9.385  0.2082 -0.3559 -0.5660
  621MOL0     H81909   5.922  -0.012   9.223  0.5043  0.0536  1.5758
  621MOL0     H81910   5.786   0.017   9.339 -2.7649 -2.0184  0.1390
  621MOL0     H81911   5.659  -0.114   9.163 -1.1359 -0.1536  1.4421
  621MOL0     H81912   5.693  -0.211   9.302 -0.3800 -0.6492 -0.5902
  621MOL0     H81913   5.884  -0.323   9.179  1.3412  0.7575 -1.1643
  621MOL0     H81914   5.816  -0.245   9.031  0.6433 -3.6960 -1.9314
  621MOL0     H81915   5.768  -0.473   9.074  1.0897  0.0848  1.6811
  621MOL0     H81916   5.648  -0.450   9.192 -0.5469  0.6033  0.3058
  621MOL0     H81917   5.631  -0.271   8.946  3.8209 -2.5310 -0.4937
  621MOL0     H81918   5.507  -0.305   9.071 -0.4247 -3.5371  3.0749
  621MOL0     H81919   5.527  -0.555   8.978  1.8441 -1.8474 -1.4064
  621MOL0     H81920   5.614  -0.468   8.843 -0.5373  0.2183 -0.1443
  621MOL0     H81921   5.314  -0.431   8.911 -1.2499  0.2799 -1.2602
  621MOL0     H81922   5.403  -0.302   8.843  0.2029  0.2687 -3.4448
  621MOL0     H81923   5.431  -0.562   8.699 -3.2293 -2.2364 -1.3028
  621MOL0     H81924   5.457  -0.395   8.658  0.6636  2.1767  2.5302
  621MOL0     H81925   5.155  -0.621   8.767  2.2216 -1.0737 -0.8624
  621MOL0     H81926   4.902  -0.604   8.752 -0.9738  0.7369  1.0946
  621MOL0     H81927   4.881  -0.600   8.577 -0.6021 -0.4775 -0.5492
  621MOL0     H81928   4.785  -0.390   8.574 -2.0239  1.5746  1.2389
  621MOL0     H81929   4.844  -0.337   8.733  0.0098 -0.8877  2.2453
  621MOL0     H81930   4.591  -0.397   8.694  0.6502  0.6750  0.4353
  621MOL0     H81931   4.644  -0.554   8.672 -0.5867  1.0087 -3.1272
  621MOL0     H81932   4.767  -0.409   8.914  0.3958  1.4529 -1.1827
  621MOL0     H81933   4.718  -0.574   8.898  2.1176  0.7761  1.0436
  621MOL0     H81934   4.290  -0.346   9.004 -0.2628  0.9760 -1.4044
  621MOL0     H81935   4.103  -0.423   8.884 -0.7522 -1.4488 -0.6495
  621MOL0     H81936   3.725  -0.650   8.952  0.9933 -2.0033 -0.9705
  621MOL0     H81937   3.520  -0.752   8.851  0.1508 -2.3617 -1.5438
  621MOL0     H81938   3.421  -0.916   8.749 -1.0422 -1.0522  0.4900
  621MOL0     H81939   3.317  -0.932   8.615 -0.1230 -0.9000  2.0457
  621MOL0     H81940   3.259  -0.677   8.663 -0.0288 -0.6772 -0.1950
  621MOL0     H81941   3.305  -0.716   8.828 -0.1919 -1.1408  1.2545
  621MOL0     H81942   3.076  -0.752   8.820  0.6237  2.3974 -0.9221
  621MOL0     H81943   3.132  -0.910   8.806 -2.2699  0.8727  0.0899
  621MOL0     H81944   3.030  -0.705   8.627 -0.4239 -0.0127  2.7172
  621MOL0     H81945   3.121  -0.832   8.538 -0.6114 -1.5287  0.2998
  621MOL0     H81946   2.932  -0.993   8.604  0.8272  0.1624  0.2249
  621MOL0     H81947   2.890  -0.850   8.508  1.9150  1.2483  0.1552
  621MOL0     H81948   2.822  -0.745   8.722 -0.7717 -0.0733  1.6729
  621MOL0     H81949   2.828  -0.905   8.804  0.3014  0.4473  0.0248
  621MOL0     H81950   2.696  -0.991   8.586 -1.7110  1.1334 -1.7369
  621MOL0     H81951   2.608  -0.928   8.726 -0.3207 -1.1652 -0.4297
  621MOL0     H81952   2.673  -0.782   8.461 -1.6660 -1.7374 -2.0564
  621MOL0     H81953   2.574  -0.721   8.595  0.8504  0.6221 -1.1170
  621MOL0     H81954   3.678  -0.719   8.455  1.4780  0.4888  0.6819
  621MOL0     H81955   3.890  -0.673   8.549  0.4296 -0.4251  0.5128
  621MOL0     H81956   4.313  -0.789   8.787 -5.1446  0.5711 -2.3450
  621MOL0     H81957   4.516  -0.687   8.856 -0.0702  0.0769 -1.3171
  621MOL0     H81958   5.976  -0.245   9.627  1.1303 -0.7491  1.7639
  621MOL0     H81959   6.067  -0.134   9.813 -1.0320  1.6973  0.8732
  621MOL0     H81960   5.980   0.379  10.094  0.7749  1.9207 -0.9720
  621MOL0     H81961   6.118   0.475  10.280 -2.9686 -1.0407 -0.1241
  621MOL0     H81962   6.527   0.529  10.399  0.4188 -0.9203  1.2542
  621MOL0     H81963   6.546   0.433  10.244  0.7494 -0.7477  0.2620
  621MOL0     H81964   6.505   0.364  10.521 -1.3469  2.5424 -0.9867
  621MOL0     H81965   6.493   0.230  10.404  1.4534  0.4266 -2.0789
  621MOL0     H81966   6.743   0.392  10.470  0.9940 -1.5046 -1.1504
  621MOL0     H81967   6.719   0.284  10.326  1.3552  1.4504 -1.2367
  621MOL0     H81968   6.690   0.184  10.626 -0.8008 -2.3159  0.8108
  621MOL0     H81969   6.658   0.093  10.479  0.7862 -1.0823  0.9967
  621MOL0     H81970   7.065   0.053  10.498  1.4198  1.6371 -0.2841
  621MOL0     H81971   6.462   0.244  10.152  0.4380  0.9660 -2.8705
  621MOL0     H81972   6.337   0.142   9.986  0.9205  1.1441 -1.3519
  622MOL0     O81973   6.455   1.245   6.463  0.3104  0.6144  0.4884
  622MOL0     C81974   6.487   1.123   6.475 -0.7234  0.0500 -0.2453
  622MOL0     O81975   6.403   1.025   6.445  0.1032 -0.0456  0.1498
  622MOL0     C81976   6.273   1.067   6.419  0.3327 -0.4796  0.5059
  622MOL0     C81977   6.238   1.140   6.297 -0.4298 -0.5874 -0.7095
  622MOL0     C81978   6.102   1.170   6.273 -0.1035  0.0469 -0.4554
  622MOL0     C81979   6.003   1.129   6.368  0.6524 -0.6522 -0.5870
  622MOL0     O81980   5.874   1.161   6.347 -0.5757 -0.1422  0.2040
  622MOL0     C81981   5.840   1.270   6.265 -0.3811 -0.3968 -0.1350
  622MOL0     C81982   5.697   1.310   6.283  1.1692  0.7272  0.8115
  622MOL0     C81983   5.583   1.205   6.246  0.0415 -1.0774  0.1969
  622MOL0     C81984   5.449   1.273   6.272  0.5467 -0.3992 -0.1760
  622MOL0     C81985   5.324   1.202   6.228  0.0316  0.9209 -0.7987
  622MOL0     C81986   5.307   1.059   6.294  0.2753 -0.0357 -0.0362
  622MOL0     C81987   5.184   0.985   6.230  0.0049  0.1038 -0.1518
  622MOL0     C81988   5.047   1.051   6.263  0.5862  0.0207  0.2902
  622MOL0     N81989   4.939   0.954   6.246  0.1162 -0.5843  0.3005
  622MOL0     C81990   4.925   0.845   6.322 -0.0565  0.0646 -0.6529
  622MOL0     C81991   4.815   0.781   6.276  0.3457 -0.3401  0.3364
  622MOL0     C81992   4.752   0.651   6.313  0.7275 -0.2575  0.6296
  622MOL0     C81993   4.601   0.645   6.305  0.4933  0.8204  0.2024
  622MOL0     C81994   4.541   0.609   6.169  0.1461  0.2707  0.2017
  622MOL0     C81995   4.397   0.570   6.154 -0.2175 -0.8506 -0.1236
  622MOL0     O81996   4.360   0.470   6.250  0.7536  0.0352 -0.5178
  622MOL0     C81997   4.227   0.457   6.273  0.0618 -0.1431 -0.2204
  622MOL0     C81998   4.190   0.427   6.405  0.3667 -1.1096  0.9660
  622MOL0     C81999   4.054   0.398   6.437  0.6619  0.1663 -0.0343
  622MOL0     C82000   3.957   0.403   6.338  0.0043 -0.2293  0.1000
  622MOL0     C82001   3.811   0.398   6.366  0.0895 -0.1820 -0.2481
  622MOL0     O82002   3.724   0.400   6.270  0.6856  0.0646  0.3611
  622MOL0     C82003   3.589   0.384   6.305  0.5830 -0.6904  0.7299
  622MOL0     C82004   3.513   0.299   6.232  0.4272  0.2848 -0.1093
  622MOL0     C82005   3.376   0.293   6.248  0.3856 -0.0567 -0.1876
  622MOL0     C82006   3.307   0.364   6.350 -0.6724 -0.2150  0.2063
  622MOL0     O82007   3.169   0.364   6.341 -0.2022 -0.1451  0.0868
  622MOL0     C82008   3.097   0.444   6.443  0.1973 -0.2217  0.4847
  622MOL0     C82009   2.944   0.401   6.434 -0.4893  0.3377 -0.2783
  622MOL0     C82010   2.874   0.511   6.529  1.0530  1.1530  0.2606
  622MOL0     C82011   2.733   0.468   6.562 -0.0641  0.4222 -0.7250
  622MOL0     C82012   2.675   0.580   6.649  0.0165  0.2244  0.4573
  622MOL0     C82013   2.532   0.558   6.681  0.1577 -0.4098 -0.6572
  622MOL0     C82014   2.478   0.676   6.754  0.9483 -0.4775 -0.0741
  622MOL0     C82015   2.447   0.800   6.667 -0.5903  0.0693  0.4035
  622MOL0    Cl82016   2.332   0.775   6.542 -0.0162  0.0171  0.2479
  622MOL0     C82017   3.390   0.450   6.425  0.5577 -0.5697 -0.0231
  622MOL0     C82018   3.526   0.445   6.416  0.3237  0.5230 -0.2969
  622MOL0     O82019   3.789   0.376   6.484 -0.3952 -0.0546 -0.5533
  622MOL0     C82020   3.999   0.416   6.204  0.5561  0.6724 -0.9911
  622MOL0     C82021   4.133   0.450   6.174  0.3198  0.5262  0.3816
  622MOL0     N82022   4.764   0.853   6.168  0.4583 -0.5064  0.0185
  622MOL0     N82023   4.838   0.958   6.153  0.5667 -0.4087 -0.0215
  622MOL0     C82024   6.037   1.060   6.490  0.8786 -0.0803  0.3025
  622MOL0     C82025   6.168   1.033   6.511  0.5109  0.1498 -0.3140
  622MOL0     C82026   6.628   1.090   6.523  0.1059 -0.5982 -0.2659
  622MOL0     C82027   6.725   1.193   6.543  0.2374 -0.2484  0.8559
  622MOL0     C82028   6.851   1.163   6.564 -0.0632  0.5956 -0.4344
  622MOL0     C82029   6.894   1.029   6.567  0.3227 -0.2926 -0.5470
  622MOL0     O82030   7.027   1.006   6.586  0.7331  0.4294  0.1587
  622MOL0     C82031   7.078   0.902   6.672 -0.1052  0.1354  0.1158
  622MOL0     C82032   7.229   0.906   6.666  0.2895  0.2978  0.3640
  622MOL0     C82033   7.301   0.788   6.745 -0.4084 -0.8835 -0.1171
  622MOL0     C82034   7.320   0.651   6.668 -0.4653 -1.8995 -0.4318
  622MOL0     C82035   7.232   0.547   6.717 -0.1633  1.0809  0.1443
  622MOL0     C82036   7.166   0.450   6.742 -0.3304 -0.1567  0.0615
  622MOL0     C82037   6.802   0.928   6.573  0.8335  1.1295  0.5236
  622MOL0     C82038   6.669   0.958   6.538 -0.3589 -0.1501 -0.2709
  622MOL0     H82039   6.311   1.181   6.227  1.5098 -1.5728  0.6328
  622MOL0     H82040   6.080   1.228   6.184 -2.2376 -2.7669 -1.9079
  622MOL0     H82041   5.880   1.265   6.163 -1.1556  1.8942 -0.6208
  622MOL0     H82042   5.896   1.350   6.315 -0.9835 -1.1643  1.8538
  622MOL0     H82043   5.683   1.409   6.237 -1.0964 -0.8592 -2.3290
  622MOL0     H82044   5.692   1.320   6.391  1.3100  0.2347  0.8655
  622MOL0     H82045   5.602   1.113   6.302 -0.7639 -0.3098  1.7844
  622MOL0     H82046   5.600   1.180   6.141 -1.6578  1.9840 -0.9255
  622MOL0     H82047   5.447   1.306   6.376  1.1356  0.1825 -0.3438
  622MOL0     H82048   5.440   1.366   6.215 -0.5667 -2.2920 -3.3722
  622MOL0     H82049   5.340   1.182   6.121  1.1373  1.3527 -0.7267
  622MOL0     H82050   5.239   1.267   6.252  0.4585  0.8128  1.1082
  622MOL0     H82051   5.278   1.071   6.399 -0.3945 -2.2316  0.0790
  622MOL0     H82052   5.397   0.997   6.289 -0.7907 -1.8245  1.6124
  622MOL0     H82053   5.189   0.981   6.120  3.7686  1.0022 -0.1311
  622MOL0     H82054   5.182   0.882   6.267 -0.1571  0.1414 -0.0546
  622MOL0     H82055   5.038   1.141   6.201  2.0362  0.1020  0.1664
  622MOL0     H82056   5.054   1.087   6.366  3.4871  0.5338  0.0085
  622MOL0     H82057   4.986   0.813   6.405 -2.3263 -2.9680  0.0099
  622MOL0     H82058   4.780   0.629   6.416 -0.4723 -0.5372  0.9159
  622MOL0     H82059   4.795   0.575   6.247  0.7559  0.8987 -0.7424
  622MOL0     H82060   4.561   0.744   6.329 -2.6175  0.2686 -2.0839
  622MOL0     H82061   4.577   0.570   6.382  2.1153  1.9085  1.8497
  622MOL0     H82062   4.552   0.698   6.107 -2.6362 -0.6548 -1.8067
  622MOL0     H82063   4.602   0.528   6.127  1.7606  1.9217 -0.7763
  622MOL0     H82064   4.365   0.535   6.055 -1.4735  0.1183 -0.0968
  622MOL0     H82065   4.346   0.666   6.163  1.6274 -0.0762  3.7531
  622MOL0     H82066   4.266   0.417   6.482  2.5513  4.7065  0.0689
  622MOL0     H82067   4.033   0.362   6.537 -0.1363 -0.2351 -0.3367
  622MOL0     H82068   3.555   0.234   6.156 -2.7980 -2.6408  0.3653
  622MOL0     H82069   3.321   0.226   6.183  1.2209 -1.8516  0.8832
  622MOL0     H82070   3.112   0.546   6.408  0.0679 -0.8190 -1.4010
  622MOL0     H82071   3.126   0.431   6.548 -0.6150  0.6323  0.8296
  622MOL0     H82072   2.938   0.297   6.466  2.0861  0.1667 -0.0803
  622MOL0     H82073   2.909   0.403   6.330 -4.1151  0.9268  0.8195
  622MOL0     H82074   2.872   0.601   6.466 -0.2573  1.0421  0.1170
  622MOL0     H82075   2.931   0.515   6.622  1.8159 -0.7564 -0.0614
  622MOL0     H82076   2.669   0.450   6.475 -2.1365  0.4784  0.7075
  622MOL0     H82077   2.731   0.374   6.617 -1.0891  1.2008  0.6516
  622MOL0     H82078   2.699   0.674   6.599  4.5203 -1.7316 -1.6232
  622MOL0     H82079   2.725   0.567   6.745 -3.8419  2.3708  3.0178
  622MOL0     H82080   2.518   0.461   6.731  3.2319 -0.2177  0.8113
  622MOL0     H82081   2.481   0.553   6.585 -0.9325 -2.1724 -0.0509
  622MOL0     H82082   2.388   0.642   6.806  0.1663  0.8299 -0.5298
  622MOL0     H82083   2.537   0.718   6.836 -1.4126  1.4165  0.7827
  622MOL0     H82084   2.531   0.827   6.601 -1.7970 -2.6765 -2.5222
  622MOL0     H82085   2.418   0.888   6.724  0.0581 -0.4436  1.5837
  622MOL0     H82086   3.342   0.533   6.476 -2.7996 -2.7442  0.6727
  622MOL0     H82087   3.580   0.513   6.482  0.9187 -1.3426  1.2091
  622MOL0     H82088   3.920   0.427   6.130 -1.1306  0.2166  0.6739
  622MOL0     H82089   4.164   0.461   6.071  1.9291  0.3713  0.8214
  622MOL0     H82090   5.952   1.025   6.548  1.6847 -1.6281  0.5928
  622MOL0     H82091   6.198   0.978   6.600 -0.0733 -3.6978 -2.2691
  622MOL0     H82092   6.703   1.296   6.518  1.4638 -0.1059  0.3171
  622MOL0     H82093   6.918   1.248   6.557 -0.5648  0.8991 -1.7766
  622MOL0     H82094   7.043   0.801   6.649  3.4686 -1.1196 -0.3992
  622MOL0     H82095   7.037   0.927   6.770 -0.5736 -0.8292  0.1824
  622MOL0     H82096   7.271   0.904   6.565  1.3914  0.2558  0.8130
  622MOL0     H82097   7.262   0.999   6.713 -2.6458  1.8797 -0.4454
  622MOL0     H82098   7.266   0.781   6.849  1.7796 -0.1603  0.7391
  622MOL0     H82099   7.404   0.818   6.763 -0.8921  0.7516  0.1318
  622MOL0     H82100   7.325   0.671   6.561  3.4497 -0.3455 -0.1270
  622MOL0     H82101   7.419   0.611   6.691 -0.4379 -2.4019 -1.3685
  622MOL0     H82102   7.093   0.373   6.759  0.1339 -1.0550 -1.8295
  622MOL0     H82103   6.842   0.827   6.580 -0.6734  0.6045  2.4011
  622MOL0     H82104   6.602   0.873   6.525 -0.0756 -0.2774 -0.9067
  623MOL0     O82105   6.811   1.367   0.825  0.3744  0.3892  0.3220
  623MOL0     C82106   6.876   1.320   0.729  0.0090 -0.1724  0.2921
  623MOL0     O82107   6.823   1.270   0.617  0.0510 -0.2333 -0.8474
  623MOL0     C82108   6.685   1.288   0.592 -0.1306  1.1103 -0.0119
  623MOL0     C82109   6.583   1.256   0.685 -0.2532  0.0741  0.1265
  623MOL0     C82110   6.450   1.266   0.652 -0.1876 -0.1715  0.3863
  623MOL0     C82111   6.410   1.322   0.529  0.0010 -0.0196  0.5110
  623MOL0     O82112   6.282   1.348   0.497  0.1913 -0.6514 -0.2628
  623MOL0     C82113   6.184   1.301   0.587  0.5087 -0.0276 -0.2323
  623MOL0     C82114   6.055   1.322   0.511  0.2128 -0.1879 -0.0083
  623MOL0     C82115   5.939   1.295   0.605  0.0838  0.0814  0.0579
  623MOL0     C82116   5.808   1.363   0.545  0.4264 -0.1497 -0.0394
  623MOL0     C82117   5.677   1.299   0.586  0.6034 -0.5399  1.1851
  623MOL0     C82118   5.627   1.358   0.722  0.3332 -0.4041  0.7869
  623MOL0     C82119   5.480   1.333   0.747 -0.0669 -0.1976  0.8347
  623MOL0     C82120   5.443   1.368   0.889 -0.9238 -0.2058 -0.2760
  623MOL0     N82121   5.298   1.347   0.919 -0.3176 -0.6665 -0.4224
  623MOL0     C82122   5.201   1.418   0.850  0.0812 -0.1711  0.1202
  623MOL0     C82123   5.083   1.350   0.857  0.6219  0.4488 -0.2717
  623MOL0     C82124   4.962   1.386   0.777 -0.6155 -0.5626  0.0553
  623MOL0     C82125   4.994   1.399   0.623 -0.3931 -0.1867 -0.1323
  623MOL0     C82126   4.876   1.438   0.540  0.3900  0.9942 -0.2898
  623MOL0     C82127   4.836   1.582   0.552 -0.4846 -1.2345  0.2088
  623MOL0     O82128   4.715   1.617   0.477 -0.4832  0.0643 -0.4455
  623MOL0     C82129   4.598   1.571   0.531  0.5255 -0.0935  0.0792
  623MOL0     C82130   4.577   1.519   0.659 -0.0601 -0.4282 -0.3771
  623MOL0     C82131   4.453   1.478   0.703  0.3353  0.8832  0.1207
  623MOL0     C82132   4.337   1.491   0.627 -0.1703 -0.3246 -0.0129
  623MOL0     C82133   4.208   1.437   0.687 -0.5750 -0.4282  0.4944
  623MOL0     O82134   4.106   1.459   0.595  0.0446 -0.0333  0.5698
  623MOL0     C82135   3.974   1.433   0.632 -0.1526  0.3667  0.6390
  623MOL0     C82136   3.917   1.302   0.658 -0.2630  0.3453  0.1631
  623MOL0     C82137   3.781   1.282   0.674  0.1594  0.4473 -0.0064
  623MOL0     C82138   3.689   1.388   0.663 -0.3823  0.8509 -0.1225
  623MOL0     O82139   3.557   1.360   0.670  0.9483  0.6462 -0.1363
  623MOL0     C82140   3.504   1.229   0.633 -0.9162  0.2065  0.7169
  623MOL0     C82141   3.353   1.244   0.605 -0.0508  0.8868 -0.7404
  623MOL0     C82142   3.276   1.109   0.616 -0.6840 -0.4032 -0.3078
  623MOL0     C82143   3.133   1.128   0.585  1.0105  0.9609 -0.0412
  623MOL0     C82144   3.044   1.001   0.634  1.2873  0.0949 -0.0976
  623MOL0     C82145   2.916   1.021   0.559  0.6130  0.4635  0.0373
  623MOL0     C82146   2.796   0.918   0.587  0.4182 -0.5031 -0.1194
  623MOL0     C82147   2.740   0.920   0.725  0.5486 -0.2814  0.0525
  623MOL0    Cl82148   2.579   0.853   0.721 -0.1830 -0.0198  0.1806
  623MOL0     C82149   3.742   1.515   0.641  0.4959  0.1481 -0.5091
  623MOL0     C82150   3.878   1.538   0.629 -0.1730  0.0797  1.1636
  623MOL0     O82151   4.203   1.391   0.798  0.5454  0.6467  0.1384
  623MOL0     C82152   4.354   1.544   0.495 -0.3606  0.6141  0.4136
  623MOL0     C82153   4.481   1.585   0.453 -0.1243  0.3963 -0.3419
  623MOL0     N82154   5.112   1.238   0.926  0.1343  0.4918  0.3897
  623MOL0     N82155   5.238   1.242   0.961 -0.4249 -0.3570 -0.7063
  623MOL0     C82156   6.511   1.341   0.434 -0.8632  0.5614  0.2275
  623MOL0     C82157   6.649   1.328   0.465  0.3880 -0.7598 -0.5570
  623MOL0     C82158   7.018   1.292   0.746 -0.0802 -0.5300 -0.6519
  623MOL0     C82159   7.092   1.244   0.642  0.6999 -0.0741 -0.5479
  623MOL0     C82160   7.230   1.234   0.641 -0.5322  0.5251 -0.1075
  623MOL0     C82161   7.310   1.260   0.759  0.6496 -0.3758 -0.2454
  623MOL0     O82162   7.441   1.237   0.765  0.3928 -0.3071  0.1111
  623MOL0     C82163   7.522   1.263   0.650 -0.4874 -0.1436  0.5103
  623MOL0     C82164   7.603   1.136   0.603 -0.5223 -1.2122  0.1636
  623MOL0     C82165   7.679   1.075   0.718 -0.0924  0.4147 -0.1401
  623MOL0     C82166   7.751   0.962   0.655 -0.5109 -0.0664  0.2164
  623MOL0     C82167   7.863   0.918   0.736 -0.6077 -0.0039  0.6952
  623MOL0     C82168   7.966   0.880   0.794  0.7156  0.1554 -0.6144
  623MOL0     C82169   7.234   1.298   0.875 -0.1804  0.0738  0.1849
  623MOL0     C82170   7.094   1.323   0.867 -1.0850 -0.6542  0.9482
  623MOL0     H82171   6.608   1.222   0.785 -0.2793  1.1938  0.5205
  623MOL0     H82172   6.379   1.242   0.731 -0.1703 -3.4960 -0.4899
  623MOL0     H82173   6.173   1.355   0.682 -2.8534  1.4996 -1.3525
  623MOL0     H82174   6.196   1.194   0.605  0.9326 -0.2510 -1.6946
  623MOL0     H82175   6.059   1.262   0.420 -0.3201  0.9370 -0.8113
  623MOL0     H82176   6.047   1.427   0.480 -0.0415 -0.0656  0.4535
  623MOL0     H82177   5.953   1.344   0.702  0.0609 -0.5269  0.3723
  623MOL0     H82178   5.921   1.187   0.605 -1.6626  0.3061  1.9765
  623MOL0     H82179   5.807   1.468   0.576  0.4259 -1.0626  3.3623
  623MOL0     H82180   5.826   1.349   0.438 -1.2095 -2.1326 -0.1326
  623MOL0     H82181   5.689   1.190   0.590  0.4182 -0.6004  0.2605
  623MOL0     H82182   5.591   1.314   0.519 -0.1587 -2.5808  1.6410
  623MOL0     H82183   5.641   1.467   0.719  0.2999 -0.4202 -0.3536
  623MOL0     H82184   5.688   1.307   0.797 -1.7593 -3.0206  0.8468
  623MOL0     H82185   5.423   1.393   0.676  2.6585  0.8970 -0.5641
  623MOL0     H82186   5.463   1.228   0.724 -2.2301  0.3118 -0.0984
  623MOL0     H82187   5.469   1.474   0.901  0.5378 -0.7149  1.5005
  623MOL0     H82188   5.501   1.302   0.954 -1.7759 -1.4324 -0.7275
  623MOL0     H82189   5.216   1.510   0.793 -0.9389 -0.4924 -0.6934
  623MOL0     H82190   4.927   1.489   0.795  0.7093  0.1263 -1.1502
  623MOL0     H82191   4.887   1.307   0.788  0.4037 -1.5070  0.3505
  623MOL0     H82192   5.034   1.305   0.585 -0.5102 -0.1601 -0.3195
  623MOL0     H82193   5.074   1.470   0.599 -0.9447  0.6861  0.5265
  623MOL0     H82194   4.880   1.399   0.438 -3.4241 -1.5048  0.3021
  623MOL0     H82195   4.798   1.381   0.592  1.3354 -1.1836 -1.1169
  623MOL0     H82196   4.920   1.643   0.519 -0.5332 -0.1557  1.9727
  623MOL0     H82197   4.825   1.620   0.653  2.1698 -1.7837  0.7715
  623MOL0     H82198   4.664   1.498   0.721 -1.4190 -0.3397  1.6508
  623MOL0     H82199   4.439   1.444   0.805  1.3197  0.4528  0.1189
  623MOL0     H82200   3.989   1.220   0.661  1.2255  1.5608 -0.9073
  623MOL0     H82201   3.752   1.178   0.690  1.5670 -0.3882 -2.4472
  623MOL0     H82202   3.544   1.157   0.704  1.5223 -0.2325 -0.9905
  623MOL0     H82203   3.546   1.202   0.536 -1.2038 -0.5302  0.7894
  623MOL0     H82204   3.328   1.301   0.515  0.0386  0.3375 -1.1130
  623MOL0     H82205   3.323   1.301   0.694  1.7901  0.8927 -0.0788
  623MOL0     H82206   3.285   1.071   0.718  2.0136  2.3807  0.6731
  623MOL0     H82207   3.320   1.026   0.560  4.8450 -0.3588  3.1668
  623MOL0     H82208   3.099   1.221   0.631 -4.2807  0.7538 -2.7762
  623MOL0     H82209   3.128   1.139   0.476  2.0160  0.1696 -0.1857
  623MOL0     H82210   3.037   0.996   0.743  0.0612 -2.5086 -0.2353
  623MOL0     H82211   3.089   0.905   0.609 -0.3960 -1.3720  2.1255
  623MOL0     H82212   2.939   1.019   0.452  1.8801  1.4797  0.2657
  623MOL0     H82213   2.873   1.121   0.574 -1.0451 -0.0821 -0.8331
  623MOL0     H82214   2.714   0.961   0.527  2.8177  1.7956 -2.0099
  623MOL0     H82215   2.824   0.816   0.560 -2.4229 -1.4094  0.0219
  623MOL0     H82216   2.729   1.023   0.757 -2.3146 -0.2166 -0.9058
  623MOL0     H82217   2.808   0.861   0.788 -0.9165 -0.0649  1.9146
  623MOL0     H82218   3.676   1.602   0.640 -1.1610 -1.0734 -0.8073
  623MOL0     H82219   3.905   1.643   0.625 -3.6488  1.0985  0.9490
  623MOL0     H82220   4.272   1.569   0.429  0.0913  2.7031  0.5631
  623MOL0     H82221   4.500   1.642   0.363  1.1558  0.1977 -0.2149
  623MOL0     H82222   6.484   1.365   0.332 -0.9283 -0.5452 -0.0298
  623MOL0     H82223   6.730   1.341   0.394  1.7153 -0.9464  0.8678
  623MOL0     H82224   7.038   1.224   0.551 -1.2620  3.1838 -0.2581
  623MOL0     H82225   7.278   1.199   0.551 -1.4559 -0.1880 -0.3437
  623MOL0     H82226   7.594   1.343   0.666  1.6224 -2.1934  2.1060
  623MOL0     H82227   7.456   1.287   0.566 -1.7510 -1.3657  1.1052
  623MOL0     H82228   7.520   1.080   0.558 -1.5346 -0.6074  1.2187
  623MOL0     H82229   7.680   1.166   0.531 -0.7696 -0.3383  0.2472
  623MOL0     H82230   7.606   1.041   0.792  0.0503 -1.5571 -0.8487
  623MOL0     H82231   7.741   1.152   0.766 -2.3820  2.3196 -0.0177
  623MOL0     H82232   7.677   0.881   0.650 -0.8684  0.3215 -2.4224
  623MOL0     H82233   7.790   0.991   0.557  1.0280 -2.1469  0.1300
  623MOL0     H82234   8.064   0.856   0.829  1.6358 -1.1664 -3.7448
  623MOL0     H82235   7.284   1.330   0.966  0.9399  0.5841 -0.5779
  623MOL0     H82236   7.054   1.356   0.962 -0.2120 -0.4834  1.2650
  624MOL0     O82237   3.093   3.343  10.492  0.8469 -0.0650 -0.2889
  624MOL0     C82238   3.118   3.375  10.607  0.5428 -0.3249 -0.1462
  624MOL0     O82239   3.075   3.316  10.724  0.8689  0.1107  0.2596
  624MOL0     C82240   3.015   3.185  10.721 -0.6649 -0.1578  0.4019
  624MOL0     C82241   2.876   3.174  10.740  0.4936 -0.3905 -0.1503
  624MOL0     C82242   2.813   3.051  10.738 -0.2926 -0.1063 -0.4921
  624MOL0     C82243   2.886   2.935  10.720  0.0237 -0.6925  0.0907
  624MOL0     O82244   2.810   2.821  10.695 -0.4382 -0.1284  0.7028
  624MOL0     C82245   2.870   2.690  10.716  0.8756  0.4160  0.5125
  624MOL0     C82246   2.773   2.583  10.681 -0.2573  0.7534 -0.1938
  624MOL0     C82247   2.683   2.565  10.800  0.3932  0.0074 -1.0063
  624MOL0     C82248   2.565   2.469  10.763 -0.5779  0.0288  0.3371
  624MOL0     C82249   2.439   2.509  10.836  0.2559  0.7125 -0.0501
  624MOL0     C82250   2.324   2.429  10.777 -0.6181 -0.5657 -0.3227
  624MOL0     C82251   2.268   2.472  10.641  0.4377  0.4001 -0.1774
  624MOL0     C82252   2.204   2.355  10.559  0.5856  0.4267  0.6146
  624MOL0     N82253   2.115   2.267  10.641 -0.3616 -1.2481 -0.3056
  624MOL0     C82254   2.009   2.323  10.706  0.6472 -0.1756 -0.2938
  624MOL0     C82255   1.956   2.221  10.783  0.0777  0.3681  0.2561
  624MOL0     C82256   1.842   2.232  10.876 -0.3898  0.2389  0.0179
  624MOL0     C82257   1.708   2.184  10.817 -0.1551  0.2990  0.1730
  624MOL0     C82258   1.611   2.151  10.927  0.2715  0.0832  0.4769
  624MOL0     C82259   1.467   2.175  10.879  0.2924 -0.5020 -0.5133
  624MOL0     O82260   1.384   2.175  10.998  0.0236  0.2344  0.3081
  624MOL0     C82261   1.240   2.172  10.987  0.8205 -0.1189 -0.3275
  624MOL0     C82262   1.160   2.170  10.873 -0.4973 -0.1141  0.7026
  624MOL0     C82263   1.025   2.167  10.866  0.2152 -0.4796  0.4910
  624MOL0     C82264   0.947   2.167  10.983  0.2273  0.2658  0.0500
  624MOL0     C82265   0.801   2.166  10.967 -0.8045 -0.0385  0.2407
  624MOL0     O82266   0.759   2.185  10.835 -0.3386 -0.1076  0.5035
  624MOL0     C82267   0.623   2.201  10.809 -0.1389 -0.2315  0.6004
  624MOL0     C82268   0.566   2.142  10.698 -0.7085  0.3153 -0.5049
  624MOL0     C82269   0.429   2.164  10.663  0.7685 -0.5007 -0.6395
  624MOL0     C82270   0.348   2.250  10.739  0.4580  0.7394 -0.7055
  624MOL0     O82271   0.212   2.263  10.708 -0.1551  0.3158  0.0836
  624MOL0     C82272   0.118   2.300  10.809 -0.5819  0.5035  0.1541
  624MOL0     C82273  -0.015   2.322  10.747 -0.3539 -0.1415  0.3189
  624MOL0     C82274  -0.081   2.197  10.695  0.3317  0.2507 -0.3170
  624MOL0     C82275  -0.199   2.235  10.611 -0.5824  0.3471 -0.3277
  624MOL0     C82276  -0.242   2.126  10.510  1.6048 -0.8529  0.3972
  624MOL0     C82277  -0.285   1.999  10.582 -0.4922 -1.2228  0.3039
  624MOL0     C82278  -0.335   1.882  10.500  0.4205 -0.7002  0.7546
  624MOL0     C82279  -0.468   1.908  10.428 -0.9585 -0.3546  0.3020
  624MOL0    Cl82280  -0.496   1.788  10.311 -0.3034  0.0018 -0.1487
  624MOL0     C82281   0.407   2.303  10.859  0.9310  0.3563 -0.3869
  624MOL0     C82282   0.539   2.281  10.892  0.3351  0.3981 -1.1198
  624MOL0     O82283   0.733   2.142  11.065  0.2413  0.2520 -0.9066
  624MOL0     C82284   1.023   2.182  11.104  0.0167 -0.1198  0.0880
  624MOL0     C82285   1.165   2.188  11.101 -0.2372  0.2044  0.2336
  624MOL0     N82286   2.034   2.114  10.760 -0.4117 -0.1830 -0.4248
  624MOL0     N82287   2.134   2.145  10.692  0.0050  0.2347  0.2942
  624MOL0     C82288   3.024   2.944  10.709 -0.0524 -0.4476  0.3048
  624MOL0     C82289   3.090   3.068  10.706  1.2801 -0.5384 -0.9501
  624MOL0     C82290   3.221   3.483  10.609 -0.1171 -0.8767  0.1833
  624MOL0     C82291   3.277   3.525  10.733 -0.2300  0.0972 -0.3607
  624MOL0     C82292   3.374   3.627  10.745  0.5279  0.7346 -0.3202
  624MOL0     C82293   3.412   3.696  10.629 -0.6101  0.1302 -0.5309
  624MOL0     O82294   3.499   3.793  10.630  0.0324 -0.6195 -0.1420
  624MOL0     C82295   3.626   3.748  10.585 -0.4515 -0.3147 -0.0338
  624MOL0     C82296   3.733   3.852  10.608  0.1735 -0.2232 -0.2040
  624MOL0     C82297   3.755   3.876  10.761  0.3246 -0.4403 -0.6702
  624MOL0     C82298   3.819   4.006  10.798 -0.3755  0.0741 -0.3735
  624MOL0     C82299   3.965   4.006  10.764  1.3245 -0.5531 -0.1832
  624MOL0     C82300   4.086   4.014  10.746  0.1413  0.8609  0.4303
  624MOL0     C82301   3.361   3.667  10.505 -0.4015  0.2948 -0.9631
  624MOL0     C82302   3.270   3.557  10.494  0.1835  0.6747  0.3960
  624MOL0     H82303   2.825   3.266  10.768  1.3404  0.5695 -1.6577
  624MOL0     H82304   2.707   3.033  10.750 -0.3330 -0.7206 -1.6400
  624MOL0     H82305   2.885   2.674  10.823 -2.2579  1.2284  1.1475
  624MOL0     H82306   2.961   2.671  10.657 -0.0277  0.7957 -1.0518
  624MOL0     H82307   2.831   2.496  10.649 -2.0181  0.4604 -2.9337
  624MOL0     H82308   2.708   2.615  10.599 -4.2051  1.0713  2.7773
  624MOL0     H82309   2.661   2.665  10.840  0.4991 -0.0366 -0.8365
  624MOL0     H82310   2.733   2.523  10.887  0.0069  1.4148 -0.0616
  624MOL0     H82311   2.542   2.490  10.658 -4.4640 -1.0862  0.8040
  624MOL0     H82312   2.581   2.363  10.784 -2.2222  0.1345  2.3842
  624MOL0     H82313   2.411   2.614  10.839 -0.9330  0.4088  0.2371
  624MOL0     H82314   2.457   2.468  10.936 -0.6365  1.7232  0.5435
  624MOL0     H82315   2.240   2.432  10.847  0.2697 -0.4182  0.7663
  624MOL0     H82316   2.355   2.325  10.766  1.8880 -0.1585  2.0222
  624MOL0     H82317   2.182   2.539  10.652 -1.1797 -1.1406 -2.3898
  624MOL0     H82318   2.354   2.515  10.589  0.9889  1.9210  1.8960
  624MOL0     H82319   2.285   2.303  10.506 -1.3354  0.2175 -2.3166
  624MOL0     H82320   2.136   2.387  10.480  0.3514 -1.3617  0.0539
  624MOL0     H82321   1.966   2.423  10.708 -2.4663 -1.4131  1.1352
  624MOL0     H82322   1.844   2.336  10.910  1.2817 -0.2252  1.5235
  624MOL0     H82323   1.871   2.176  10.966 -1.0213  0.6424  0.4815
  624MOL0     H82324   1.720   2.100  10.749 -0.5153 -3.0191  3.8535
  624MOL0     H82325   1.678   2.277  10.768 -0.1101 -1.7113 -4.1369
  624MOL0     H82326   1.628   2.049  10.963 -0.0891  0.5359  2.0483
  624MOL0     H82327   1.627   2.222  11.010 -0.2002  3.3841 -2.0451
  624MOL0     H82328   1.449   2.098  10.804  2.9054  1.2742 -3.1765
  624MOL0     H82329   1.454   2.274  10.836  0.6112 -1.1886 -2.2740
  624MOL0     H82330   1.207   2.143  10.779 -2.5118 -2.2890  0.2465
  624MOL0     H82331   0.973   2.178  10.771 -1.8440  0.4019  1.6446
  624MOL0     H82332   0.625   2.069  10.643 -1.1932  1.5920 -2.8216
  624MOL0     H82333   0.383   2.124  10.573 -2.2050  0.0525  0.5041
  624MOL0     H82334   0.142   2.398  10.852 -2.2570  0.3849  1.4308
  624MOL0     H82335   0.113   2.226  10.889 -0.7764 -0.6769 -0.9177
  624MOL0     H82336   0.005   2.410  10.685 -0.1607  1.1093  2.0739
  624MOL0     H82337  -0.085   2.359  10.823  0.7894  1.3948  0.6646
  624MOL0     H82338  -0.098   2.124  10.775 -0.9504 -1.0634 -1.7086
  624MOL0     H82339  -0.015   2.133  10.635  0.3160 -0.2184  0.1489
  624MOL0     H82340  -0.290   2.257  10.667 -1.1152  0.3568 -1.1824
  624MOL0     H82341  -0.175   2.332  10.566 -1.6274  1.1730  0.8303
  624MOL0     H82342  -0.160   2.108  10.441  3.0677  3.7563  0.5934
  624MOL0     H82343  -0.331   2.160  10.456 -0.3921 -0.9227  3.4061
  624MOL0     H82344  -0.367   2.014  10.653  1.5938  0.8846  2.4604
  624MOL0     H82345  -0.198   1.971  10.642  1.0442  0.0526 -1.2288
  624MOL0     H82346  -0.269   1.867  10.414  0.2342  3.7263 -0.3716
  624MOL0     H82347  -0.336   1.784  10.549  1.4549 -0.1272  1.9963
  624MOL0     H82348  -0.459   2.002  10.373  1.1267 -0.2144  0.7831
  624MOL0     H82349  -0.550   1.915  10.500 -0.8287 -0.6717  0.4825
  624MOL0     H82350   0.345   2.352  10.933 -0.5606 -3.6492  1.2911
  624MOL0     H82351   0.558   2.308  10.996  0.1801  1.1726 -1.2854
  624MOL0     H82352   0.969   2.209  11.194 -2.3912  1.0503 -1.5985
  624MOL0     H82353   1.219   2.204  11.193  1.6401  1.1790 -0.9693
  624MOL0     H82354   3.088   2.860  10.684  0.7414  1.4643 -5.8314
  624MOL0     H82355   3.197   3.077  10.689  1.2646 -0.2244 -0.8772
  624MOL0     H82356   3.251   3.461  10.818  1.3372 -1.4831 -1.0212
  624MOL0     H82357   3.421   3.645  10.841  0.0915  1.9175 -0.3151
  624MOL0     H82358   3.622   3.727  10.477 -0.7588  0.0286 -0.0918
  624MOL0     H82359   3.651   3.661  10.646 -0.7893  0.0128  0.5777
  624MOL0     H82360   3.831   3.820  10.572  0.2393 -1.5265  1.0583
  624MOL0     H82361   3.699   3.946  10.563 -0.7909 -1.1589 -1.4919
  624MOL0     H82362   3.821   3.798  10.799 -0.2021 -0.2927  0.6267
  624MOL0     H82363   3.665   3.863  10.822 -0.0417  0.1497 -1.0770
  624MOL0     H82364   3.774   4.087  10.740 -0.6880 -0.4081 -0.8139
  624MOL0     H82365   3.811   4.028  10.905  4.8810 -0.3409  0.3500
  624MOL0     H82366   4.185   4.015  10.704  0.1042 -0.4198  0.2490
  624MOL0     H82367   3.395   3.740  10.432  0.4397  2.1133  1.1340
  624MOL0     H82368   3.229   3.534  10.396  0.0982  1.4988  0.2244
  625MOL0     O82369   3.084   6.266   6.299 -0.0107 -0.5127  0.2910
  625MOL0     C82370   3.099   6.374   6.360 -0.7576 -0.7397  0.3725
  625MOL0     O82371   3.036   6.406   6.481 -0.3018 -0.3181  0.1359
  625MOL0     C82372   2.981   6.300   6.544  0.2813 -0.3104  0.1209
  625MOL0     C82373   2.866   6.231   6.509  0.3202 -0.6291 -0.3252
  625MOL0     C82374   2.837   6.116   6.583 -0.0785 -0.6630  0.1514
  625MOL0     C82375   2.914   6.074   6.691  0.2620 -0.3363  0.4840
  625MOL0     O82376   2.882   5.956   6.761  0.5030  0.0187  0.2795
  625MOL0     C82377   2.876   5.828   6.693  0.1268  0.2791 -0.5123
  625MOL0     C82378   2.900   5.719   6.793  0.0147 -0.4621 -0.3005
  625MOL0     C82379   2.773   5.699   6.890 -0.7051 -0.3208  0.5866
  625MOL0     C82380   2.655   5.628   6.817 -1.3952 -1.0150  0.2693
  625MOL0     C82381   2.540   5.590   6.908  0.4868 -0.1595  0.2304
  625MOL0     C82382   2.455   5.704   6.961 -0.1823  0.5575  0.4132
  625MOL0     C82383   2.346   5.646   7.059  0.0630  0.2177 -0.0376
  625MOL0     C82384   2.266   5.763   7.098  0.8665 -0.4130  0.1086
  625MOL0     N82385   2.165   5.734   7.207 -0.2743 -0.3001  0.9358
  625MOL0     C82386   2.053   5.653   7.194 -0.0812 -0.5704  0.0293
  625MOL0     C82387   2.014   5.613   7.314 -0.7541 -0.0329  0.7505
  625MOL0     C82388   1.928   5.505   7.368  0.3342  1.1660  0.2547
  625MOL0     C82389   1.777   5.546   7.347  0.2200 -1.1340 -0.3692
  625MOL0     C82390   1.741   5.543   7.195 -0.2084 -0.0597  0.2598
  625MOL0     C82391   1.596   5.546   7.168  0.0313  0.1258  0.1988
  625MOL0     O82392   1.547   5.676   7.197  0.4732 -0.0296  0.3870
  625MOL0     C82393   1.425   5.709   7.147  0.1256 -0.7854 -0.2848
  625MOL0     C82394   1.330   5.761   7.234  0.2726 -0.1119 -0.1898
  625MOL0     C82395   1.208   5.792   7.194  0.1606  0.4403 -0.1731
  625MOL0     C82396   1.179   5.777   7.057  0.0040  0.3244  0.5766
  625MOL0     C82397   1.047   5.820   7.000 -0.0756  0.2447 -0.4290
  625MOL0     O82398   0.947   5.805   7.096  0.1257 -0.4123 -0.3384
  625MOL0     C82399   0.814   5.816   7.057 -0.0197  0.1080  0.7012
  625MOL0     C82400   0.728   5.833   7.159  0.6368 -0.2699 -0.1461
  625MOL0     C82401   0.591   5.844   7.150  0.4740 -0.1199  0.4158
  625MOL0     C82402   0.526   5.839   7.019 -0.1120 -0.9222  0.7769
  625MOL0     O82403   0.396   5.837   7.022 -0.7035 -0.0714 -0.1037
  625MOL0     C82404   0.329   5.765   6.918 -0.2944  0.4869  0.1123
  625MOL0     C82405   0.183   5.799   6.945 -0.0058 -0.2278 -0.8104
  625MOL0     C82406   0.088   5.721   6.855  0.1450 -0.4198 -0.4293
  625MOL0     C82407  -0.062   5.763   6.876  0.1503  0.5941  0.1422
  625MOL0     C82408  -0.161   5.700   6.772  0.8376 -0.2659 -0.2103
  625MOL0     C82409  -0.186   5.789   6.660 -0.3472 -0.5394 -0.4320
  625MOL0     C82410  -0.282   5.722   6.558  0.6052 -0.1916  0.8088
  625MOL0     C82411  -0.325   5.808   6.447  0.2887  0.1072  0.2547
  625MOL0    Cl82412  -0.446   5.938   6.495 -0.1120 -0.3837  0.2801
  625MOL0     C82413   0.614   5.829   6.907  0.0284  0.4802  0.1632
  625MOL0     C82414   0.753   5.806   6.931  0.5875 -0.3560  0.0260
  625MOL0     O82415   1.036   5.861   6.885  1.1207 -0.1535 -0.1367
  625MOL0     C82416   1.269   5.722   6.969 -0.1106  0.2427  0.7493
  625MOL0     C82417   1.402   5.694   7.011  0.2794  0.0364  0.0600
  625MOL0     N82418   2.111   5.672   7.398  0.9863  0.1259 -0.1064
  625MOL0     N82419   2.187   5.748   7.340  0.2578 -0.4870  0.0870
  625MOL0     C82420   3.002   6.159   6.735 -1.3443  0.0394 -0.5777
  625MOL0     C82421   3.040   6.271   6.667  0.0319 -0.4782 -0.3083
  625MOL0     C82422   3.201   6.464   6.307 -0.1418 -0.8322  0.3137
  625MOL0     C82423   3.294   6.423   6.208  0.3030  0.2325 -0.0291
  625MOL0     C82424   3.381   6.514   6.140 -0.1155 -0.1289 -0.6763
  625MOL0     C82425   3.386   6.646   6.177 -0.3033  0.6732 -0.1188
  625MOL0     O82426   3.473   6.735   6.117 -0.2737  1.4678 -0.3587
  625MOL0     C82427   3.604   6.741   6.184  0.0995  0.4355  0.9851
  625MOL0     C82428   3.611   6.831   6.309 -0.2138  0.0131  0.7788
  625MOL0     C82429   3.546   6.964   6.276 -0.8617 -1.0318 -0.2466
  625MOL0     C82430   3.599   7.081   6.372 -0.2474 -0.2089  0.1543
  625MOL0     C82431   3.726   7.139   6.329  0.6116  0.1794  0.9280
  625MOL0     C82432   3.838   7.162   6.290  0.3205 -0.3623 -0.6267
  625MOL0     C82433   3.293   6.695   6.275  0.6514  0.4076  0.2121
  625MOL0     C82434   3.202   6.603   6.343 -0.7210 -0.3467 -0.4700
  625MOL0     H82435   2.815   6.263   6.420 -0.1526 -2.4519 -0.7419
  625MOL0     H82436   2.763   6.057   6.529  0.6012 -0.8983 -0.5505
  625MOL0     H82437   2.961   5.829   6.623  0.3545 -1.5527 -0.2935
  625MOL0     H82438   2.783   5.806   6.641  0.8759 -2.7720 -0.7562
  625MOL0     H82439   2.989   5.757   6.844 -1.1105  2.5507 -0.3918
  625MOL0     H82440   2.923   5.622   6.747  0.4347  0.3252 -1.8202
  625MOL0     H82441   2.735   5.789   6.939 -0.9093  0.2258 -0.5499
  625MOL0     H82442   2.808   5.622   6.960 -1.2214 -3.0188 -1.8976
  625MOL0     H82443   2.625   5.700   6.741  1.4569 -0.8596 -0.8178
  625MOL0     H82444   2.688   5.536   6.767 -1.6129 -1.4858  0.9729
  625MOL0     H82445   2.581   5.543   6.998 -0.8331  0.4302  1.1692
  625MOL0     H82446   2.473   5.516   6.863  1.4081 -0.5710 -0.5047
  625MOL0     H82447   2.391   5.755   6.888 -2.2164 -0.1132  1.6398
  625MOL0     H82448   2.518   5.780   7.008 -0.6406  0.2483  1.5482
  625MOL0     H82449   2.283   5.572   7.009  0.1436 -1.1743  1.7968
  625MOL0     H82450   2.400   5.609   7.147  0.3904  1.1677  0.1818
  625MOL0     H82451   2.229   5.817   7.010 -0.3976 -2.3075 -0.5794
  625MOL0     H82452   2.326   5.831   7.159 -1.3652  0.8929  0.9782
  625MOL0     H82453   2.006   5.621   7.102 -3.6091  0.5155  1.2588
  625MOL0     H82454   1.948   5.489   7.475  0.3767  1.8976  0.3594
  625MOL0     H82455   1.952   5.407   7.325 -0.2472  0.6411  1.1031
  625MOL0     H82456   1.758   5.645   7.389  1.1939 -2.3790  3.4325
  625MOL0     H82457   1.713   5.474   7.399 -0.4094 -0.0521  0.3709
  625MOL0     H82458   1.781   5.630   7.142  0.1547 -0.4225 -0.0705
  625MOL0     H82459   1.776   5.450   7.149 -3.0593 -3.0628  3.5883
  625MOL0     H82460   1.544   5.475   7.232 -1.7318 -0.6669 -1.9876
  625MOL0     H82461   1.582   5.512   7.065  0.2898  0.8195 -0.0747
  625MOL0     H82462   1.343   5.776   7.340 -2.4041 -0.7995  0.3195
  625MOL0     H82463   1.135   5.816   7.271 -0.7947 -0.1954 -0.8609
  625MOL0     H82464   0.763   5.860   7.258  0.9934 -1.6353  0.1296
  625MOL0     H82465   0.536   5.870   7.239 -2.8450 -3.1179 -0.5295
  625MOL0     H82466   0.357   5.660   6.935  1.8002  0.8011 -1.0969
  625MOL0     H82467   0.367   5.805   6.824  1.0362 -2.9148 -0.9701
  625MOL0     H82468   0.174   5.904   6.916  2.2342 -0.1795 -1.5428
  625MOL0     H82469   0.153   5.780   7.049 -0.4465  0.6347 -0.7732
  625MOL0     H82470   0.104   5.614   6.868 -2.1254 -0.5175  2.7180
  625MOL0     H82471   0.094   5.747   6.749 -2.1739  3.2352  0.1261
  625MOL0     H82472  -0.087   5.732   6.978  0.2186 -0.9788 -0.2872
  625MOL0     H82473  -0.072   5.872   6.873  0.1962  0.5812 -1.0241
  625MOL0     H82474  -0.250   5.688   6.834  0.2396  0.3265 -0.9367
  625MOL0     H82475  -0.122   5.602   6.745 -1.2202 -1.4845  0.9754
  625MOL0     H82476  -0.089   5.817   6.617 -0.3623 -0.5766 -0.4917
  625MOL0     H82477  -0.238   5.879   6.696  0.0120  1.0170 -3.4615
  625MOL0     H82478  -0.226   5.635   6.523 -2.0543 -1.8368  0.3453
  625MOL0     H82479  -0.366   5.683   6.616  0.5033  0.0274  0.8093
  625MOL0     H82480  -0.372   5.743   6.373  1.8279 -3.1956  1.9443
  625MOL0     H82481  -0.234   5.856   6.409  1.4966 -2.8399 -0.8493
  625MOL0     H82482   0.590   5.816   6.802 -1.6862 -1.7867  0.7591
  625MOL0     H82483   0.800   5.772   6.839 -1.8925 -1.8768 -0.7753
  625MOL0     H82484   1.238   5.701   6.867  1.2943  0.1919  0.3110
  625MOL0     H82485   1.484   5.665   6.946 -1.5037 -2.6133 -1.1861
  625MOL0     H82486   3.054   6.131   6.826  0.9323 -0.3912 -1.9403
  625MOL0     H82487   3.123   6.323   6.714  0.3529 -2.6611  1.7441
  625MOL0     H82488   3.295   6.326   6.160  3.7292  0.3005 -0.3511
  625MOL0     H82489   3.445   6.483   6.058  0.3664 -1.4244  0.1676
  625MOL0     H82490   3.676   6.766   6.105  0.2646 -2.7639 -0.0329
  625MOL0     H82491   3.636   6.639   6.210  0.4896 -1.5073 -5.4440
  625MOL0     H82492   3.558   6.796   6.398  2.7338  0.7180  2.9589
  625MOL0     H82493   3.715   6.841   6.341  0.3900  1.1330 -1.3630
  625MOL0     H82494   3.439   6.959   6.300 -0.9853  0.1866 -0.4952
  625MOL0     H82495   3.561   6.995   6.172  0.6896 -1.4640 -0.1714
  625MOL0     H82496   3.526   7.162   6.375  1.0170  0.9354  1.1314
  625MOL0     H82497   3.605   7.036   6.471 -3.6482 -0.1821  0.4814
  625MOL0     H82498   3.931   7.189   6.246 -0.6427 -0.0574 -2.5887
  625MOL0     H82499   3.300   6.800   6.301  2.5878 -0.0057  1.5857
  625MOL0     H82500   3.136   6.639   6.421  0.8900  0.1593  0.7059
  626MOL0     O82501   7.657   5.214  10.225  0.2281 -0.2286  0.0373
  626MOL0     C82502   7.730   5.134  10.278  0.2060  0.3460 -0.2113
  626MOL0     O82503   7.690   5.032  10.359  0.1003 -0.6230  0.5970
  626MOL0     C82504   7.567   5.030  10.405 -0.0183  0.6937 -0.1485
  626MOL0     C82505   7.460   4.974  10.330 -0.3419  0.4909  0.1553
  626MOL0     C82506   7.334   4.956  10.376  0.2948  0.2926 -0.6927
  626MOL0     C82507   7.293   4.984  10.512 -0.1095  1.5298  0.0111
  626MOL0     O82508   7.172   4.953  10.568 -0.2359 -0.0625  0.4896
  626MOL0     C82509   7.076   4.879  10.500  0.8821  0.0693  0.0246
  626MOL0     C82510   6.963   4.847  10.591 -0.2411  0.0499 -0.1571
  626MOL0     C82511   6.841   4.783  10.523 -0.3136 -0.2486  0.3909
  626MOL0     C82512   6.700   4.809  10.586 -0.3398 -0.1888 -0.3725
  626MOL0     C82513   6.652   4.669  10.628  0.6274  0.0377  0.5758
  626MOL0     C82514   6.559   4.670  10.748 -0.2493  1.0010 -0.5461
  626MOL0     C82515   6.432   4.754  10.737 -0.0409 -0.0395  0.6099
  626MOL0     C82516   6.362   4.728  10.606  0.4803  0.5115 -0.4519
  626MOL0     N82517   6.227   4.780  10.599  0.5054  0.7310 -0.0854
  626MOL0     C82518   6.109   4.710  10.649  0.4041  0.5477  0.1858
  626MOL0     C82519   6.005   4.795  10.630  0.2938 -0.5970  0.7326
  626MOL0     C82520   5.870   4.773  10.698  0.4370  0.4525  0.2269
  626MOL0     C82521   5.876   4.826  10.841 -0.8836  0.0889  0.3960
  626MOL0     C82522   5.774   4.759  10.929 -0.2509  0.1236  0.0518
  626MOL0     C82523   5.631   4.793  10.886 -0.3621 -0.3243  0.1471
  626MOL0     O82524   5.547   4.709  10.969  0.6222 -0.1697 -0.1093
  626MOL0     C82525   5.409   4.691  10.935 -0.1573 -0.5364  0.3114
  626MOL0     C82526   5.349   4.757  10.826  0.5821  0.6582 -0.1190
  626MOL0     C82527   5.224   4.720  10.780  0.5445  0.6220 -0.0567
  626MOL0     C82528   5.158   4.606  10.835 -1.3097 -0.1078 -0.2932
  626MOL0     C82529   5.026   4.573  10.777 -0.0448  1.0274  0.0038
  626MOL0     O82530   4.978   4.652  10.680  0.0467 -0.0305  0.6547
  626MOL0     C82531   4.861   4.608  10.618 -0.7011 -0.5314 -0.5495
  626MOL0     C82532   4.864   4.587  10.475  0.3220  0.7156 -0.7730
  626MOL0     C82533   4.745   4.584  10.406  0.0924 -0.2195  0.8658
  626MOL0     C82534   4.619   4.579  10.477  0.5351 -1.1723  0.0777
  626MOL0     O82535   4.494   4.566  10.414 -0.5268  0.0980 -0.2583
  626MOL0     C82536   4.484   4.560  10.273  0.7016 -0.0538  0.4122
  626MOL0     C82537   4.353   4.518  10.201 -0.3795  0.2000 -0.4645
  626MOL0     C82538   4.234   4.604  10.244  0.4211 -0.0992 -0.4794
  626MOL0     C82539   4.098   4.545  10.201  0.1862  0.6223  1.1745
  626MOL0     C82540   3.980   4.631  10.263 -0.9667 -0.4624 -0.3311
  626MOL0     C82541   3.836   4.592  10.217  0.0574 -0.3043 -0.3729
  626MOL0     C82542   3.748   4.715  10.232 -0.4426 -0.0580 -0.4192
  626MOL0     C82543   3.613   4.691  10.179  0.4378 -0.4120  0.2652
  626MOL0    Cl82544   3.492   4.585  10.265  0.1781 -0.0211 -0.0833
  626MOL0     C82545   4.625   4.596  10.617  0.4110 -0.5390  0.0717
  626MOL0     C82546   4.741   4.629  10.686  0.6172 -0.4611 -0.7001
  626MOL0     O82547   4.968   4.467  10.814  0.1162  0.5429 -0.0479
  626MOL0     C82548   5.208   4.554  10.955  0.1126 -0.2777  0.4700
  626MOL0     C82549   5.338   4.587  10.995  0.2853  0.2460  0.6665
  626MOL0     N82550   6.057   4.908  10.566 -0.0695 -0.1315  0.2198
  626MOL0     N82551   6.186   4.896  10.551  0.8278  0.5530  0.8663
  626MOL0     C82552   7.396   5.030  10.591 -0.6512 -0.5535 -0.5213
  626MOL0     C82553   7.527   5.045  10.537 -0.7422 -0.0661 -0.2908
  626MOL0     C82554   7.872   5.146  10.242 -0.2546 -0.3044  0.1187
  626MOL0     C82555   7.910   5.227  10.137  0.0003 -0.6367  0.4313
  626MOL0     C82556   8.045   5.271  10.123 -0.3964 -0.1842  0.1343
  626MOL0     C82557   8.142   5.216  10.206  0.1424  0.4306 -0.1998
  626MOL0     O82558   8.284   5.226  10.190  0.3336 -0.0809 -0.3121
  626MOL0     C82559   8.330   5.305  10.081  0.4119 -0.0140 -0.2722
  626MOL0     C82560   8.489   5.311  10.088  0.8306 -0.5826  0.6928
  626MOL0     C82561   8.566   5.186  10.109 -1.0913  0.6719  0.2930
  626MOL0     C82562   8.723   5.200  10.105 -0.9695  0.6387  0.6235
  626MOL0     C82563   8.765   5.201   9.967  0.9639 -0.2510  0.7111
  626MOL0     C82564   8.769   5.198   9.848  0.1828 -0.7923  0.1636
  626MOL0     C82565   8.098   5.140  10.318  0.4112  0.4294  0.6561
  626MOL0     C82566   7.966   5.093  10.332 -0.1369 -0.1593 -0.5435
  626MOL0     H82567   7.486   4.928  10.235  1.2172  3.4567 -0.9856
  626MOL0     H82568   7.264   4.899  10.315  0.0329 -0.5909  0.4053
  626MOL0     H82569   7.107   4.786  10.452 -3.5378 -0.5117 -2.2076
  626MOL0     H82570   7.039   4.950  10.425  4.0444 -0.7240 -2.5050
  626MOL0     H82571   6.928   4.946  10.622  0.4621 -0.1282  1.2985
  626MOL0     H82572   6.993   4.781  10.673  3.2842  2.9586  1.2378
  626MOL0     H82573   6.865   4.677  10.513  0.8259 -0.0975  1.2221
  626MOL0     H82574   6.844   4.819  10.420  2.1708 -2.6226 -0.5119
  626MOL0     H82575   6.707   4.878  10.670  0.8328  0.6704 -1.1289
  626MOL0     H82576   6.633   4.859  10.515 -1.3412 -0.1698  0.5553
  626MOL0     H82577   6.737   4.607  10.657  1.9346  2.1080  1.3234
  626MOL0     H82578   6.605   4.621  10.541  1.2221 -0.2910  0.4331
  626MOL0     H82579   6.620   4.697  10.834  2.2047 -1.4866 -1.3502
  626MOL0     H82580   6.526   4.568  10.771  1.6917  0.7922  1.6030
  626MOL0     H82581   6.362   4.726  10.816 -2.3257 -1.0209 -1.6045
  626MOL0     H82582   6.454   4.860  10.750 -0.1929 -0.2100  2.4899
  626MOL0     H82583   6.361   4.619  10.596  0.2376  0.2486  1.8358
  626MOL0     H82584   6.423   4.771  10.526  1.2616 -0.6503 -0.5115
  626MOL0     H82585   6.117   4.613  10.698  0.6343 -0.4841 -1.7892
  626MOL0     H82586   5.836   4.669  10.694 -1.3019  0.9959  0.0469
  626MOL0     H82587   5.806   4.836  10.636  1.7730  1.2173 -0.4319
  626MOL0     H82588   5.847   4.932  10.838 -3.1892 -0.4898  0.8804
  626MOL0     H82589   5.975   4.815  10.887 -0.4034  1.6807 -0.1686
  626MOL0     H82590   5.777   4.650  10.923 -2.1263 -0.0391  1.1965
  626MOL0     H82591   5.788   4.794  11.032 -0.1626  2.7467 -0.7882
  626MOL0     H82592   5.619   4.777  10.779 -0.4092  2.2084 -0.2846
  626MOL0     H82593   5.605   4.897  10.906  0.0682 -0.4964  1.7597
  626MOL0     H82594   5.410   4.827  10.771  2.6013  1.1865  2.5806
  626MOL0     H82595   5.173   4.770  10.698 -2.9830 -2.6820 -0.1700
  626MOL0     H82596   4.956   4.580  10.417 -0.8057 -3.5713 -2.4252
  626MOL0     H82597   4.750   4.584  10.298 -4.0288 -2.9661  0.4302
  626MOL0     H82598   4.564   4.495  10.235  0.6790  0.3380 -0.3225
  626MOL0     H82599   4.512   4.660  10.238 -2.8517  0.9956  0.2501
  626MOL0     H82600   4.332   4.413  10.220 -1.6465  0.4835 -0.2279
  626MOL0     H82601   4.369   4.541  10.095  1.0683  2.4108  0.1528
  626MOL0     H82602   4.236   4.705  10.203 -0.1874  1.1674  2.3701
  626MOL0     H82603   4.225   4.605  10.353 -0.7835  0.9704 -0.5615
  626MOL0     H82604   4.089   4.533  10.093 -0.3413 -0.1442  1.2909
  626MOL0     H82605   4.090   4.445  10.245 -0.9672  0.2338  0.1505
  626MOL0     H82606   3.998   4.732  10.226  4.5489 -1.6933 -1.9752
  626MOL0     H82607   3.986   4.632  10.372 -1.1578 -0.8494 -0.3113
  626MOL0     H82608   3.806   4.512  10.285 -0.0136 -0.0628 -0.1216
  626MOL0     H82609   3.831   4.559  10.113  0.8022 -0.0325 -0.5059
  626MOL0     H82610   3.749   4.743  10.338  0.3273 -0.2652 -0.3602
  626MOL0     H82611   3.799   4.804  10.193 -1.6611  1.3292  1.0273
  626MOL0     H82612   3.627   4.657  10.077 -1.8996  0.1537 -0.3007
  626MOL0     H82613   3.565   4.789  10.172 -0.5998 -0.9520 -0.3144
  626MOL0     H82614   4.531   4.605  10.670 -1.4308  0.8757 -3.1539
  626MOL0     H82615   4.744   4.658  10.790 -1.6101  1.8651 -1.1937
  626MOL0     H82616   5.137   4.494  11.011 -1.1223  0.3269 -0.4115
  626MOL0     H82617   5.387   4.542  11.081 -0.5743 -0.2267  0.9218
  626MOL0     H82618   7.372   5.070  10.689  1.5360  1.2096 -0.6253
  626MOL0     H82619   7.613   5.078  10.595 -0.8127  0.1146 -0.2913
  626MOL0     H82620   7.836   5.276  10.075 -0.9076  0.7855  2.5140
  626MOL0     H82621   8.071   5.331  10.036 -0.8553  0.1296  0.2048
  626MOL0     H82622   8.290   5.406  10.093 -1.4375 -0.5430 -1.5579
  626MOL0     H82623   8.293   5.264   9.986  1.6886 -0.3886 -0.6434
  626MOL0     H82624   8.524   5.355   9.995 -2.3601 -0.9785 -0.8108
  626MOL0     H82625   8.515   5.393  10.155 -1.2916 -0.5515  1.5472
  626MOL0     H82626   8.532   5.105  10.044  1.2903  0.9748 -1.4565
  626MOL0     H82627   8.548   5.154  10.212 -1.4153 -0.4394 -0.0883
  626MOL0     H82628   8.743   5.298  10.149 -0.3303  1.8149 -2.1075
  626MOL0     H82629   8.786   5.128  10.158 -1.4935 -0.3774 -0.0987
  626MOL0     H82630   8.769   5.210   9.741  1.6083 -0.0109  0.2238
  626MOL0     H82631   8.171   5.121  10.395 -0.8508 -0.1708  1.7401
  626MOL0     H82632   7.938   5.028  10.415  0.7260 -0.0884 -0.1933
  627MOL0     O82633   6.072   7.914   6.561  0.1619 -0.2680  0.1634
  627MOL0     C82634   6.097   8.009   6.499  0.4575 -0.7723  0.9727
  627MOL0     O82635   6.014   8.126   6.490  0.2610  0.5801  0.2174
  627MOL0     C82636   5.914   8.150   6.590 -0.7603  0.5639  0.2147
  627MOL0     C82637   5.937   8.260   6.680  0.6844  0.1665 -0.3388
  627MOL0     C82638   5.833   8.277   6.775  0.6163  0.4023  0.5143
  627MOL0     C82639   5.718   8.202   6.776 -0.5564 -0.1086 -0.3380
  627MOL0     O82640   5.639   8.246   6.882  0.0330  0.2277  0.6897
  627MOL0     C82641   5.511   8.183   6.902 -0.6194  0.5051 -0.8194
  627MOL0     C82642   5.410   8.238   6.810  0.5358  0.4686 -0.6268
  627MOL0     C82643   5.273   8.175   6.809  0.9174  0.3576 -0.3092
  627MOL0     C82644   5.194   8.244   6.696 -0.4422  0.3299 -0.1312
  627MOL0     C82645   5.051   8.208   6.698  0.3003 -0.0237  0.7249
  627MOL0     C82646   4.972   8.267   6.822  0.2005 -0.0730  0.2365
  627MOL0     C82647   4.828   8.223   6.834 -0.4051 -0.3537 -0.1161
  627MOL0     C82648   4.744   8.330   6.919 -0.7516  0.3592  0.4784
  627MOL0     N82649   4.778   8.326   7.064  0.0161  0.4205 -0.2803
  627MOL0     C82650   4.882   8.391   7.111  0.0829 -0.1346 -0.4274
  627MOL0     C82651   4.906   8.328   7.232 -0.0744 -0.3501  0.2241
  627MOL0     C82652   4.988   8.376   7.337  0.0035  0.3143  0.4496
  627MOL0     C82653   5.093   8.265   7.379  0.0236 -0.1311 -0.2197
  627MOL0     C82654   5.194   8.341   7.476  0.0374 -0.5248 -0.1821
  627MOL0     C82655   5.296   8.247   7.536 -0.2533 -0.2843 -0.5048
  627MOL0     O82656   5.387   8.197   7.448  0.2556 -0.2915 -0.1665
  627MOL0     C82657   5.494   8.281   7.406  0.3937  0.9715  0.4684
  627MOL0     C82658   5.518   8.412   7.447 -0.2095 -0.3738  0.2855
  627MOL0     C82659   5.628   8.491   7.402 -0.1618 -0.7087 -0.4962
  627MOL0     C82660   5.706   8.441   7.303 -0.5036  0.2752  0.1241
  627MOL0     C82661   5.821   8.529   7.247  0.2795 -0.0124  0.4638
  627MOL0     O82662   5.907   8.463   7.167  0.4319 -0.2747  0.5785
  627MOL0     C82663   5.998   8.525   7.083  0.5288  1.2588  0.6855
  627MOL0     C82664   6.106   8.446   7.044 -0.3583 -0.3756  0.6640
  627MOL0     C82665   6.203   8.490   6.950 -0.7518 -0.4760 -0.5711
  627MOL0     C82666   6.188   8.627   6.906 -0.0154  0.7145 -0.3214
  627MOL0     O82667   6.300   8.679   6.839 -0.3056 -0.2606  0.1175
  627MOL0     C82668   6.434   8.663   6.890 -0.5165  0.2984  0.4512
  627MOL0     C82669   6.529   8.756   6.817  0.8918 -0.1776  0.2208
  627MOL0     C82670   6.672   8.744   6.871  1.1603 -0.4002 -0.5240
  627MOL0     C82671   6.768   8.831   6.789  0.8380 -0.6257  0.8150
  627MOL0     C82672   6.906   8.788   6.827 -0.1826 -0.6864  0.2708
  627MOL0     C82673   6.950   8.647   6.765 -0.4009 -0.1006  0.1805
  627MOL0     C82674   7.088   8.611   6.821 -0.2703 -0.1270 -0.4699
  627MOL0     C82675   7.176   8.519   6.739  0.4098  0.3122 -0.0774
  627MOL0    Cl82676   7.337   8.516   6.821  0.2118 -0.0592 -0.3473
  627MOL0     C82677   6.082   8.706   6.939 -0.3559  0.1778  0.2944
  627MOL0     C82678   5.984   8.654   7.032  0.3749  0.2036  0.0315
  627MOL0     O82679   5.825   8.645   7.276  0.1807 -0.1624  0.4819
  627MOL0     C82680   5.685   8.306   7.256 -0.7361 -0.2146  0.8633
  627MOL0     C82681   5.578   8.226   7.307  0.4094 -0.1770 -0.1931
  627MOL0     N82682   4.808   8.230   7.250  0.3878 -0.1628 -0.0579
  627MOL0     N82683   4.732   8.233   7.149 -0.7417 -0.0078 -0.5537
  627MOL0     C82684   5.690   8.109   6.682 -0.1624  0.3181  1.0665
  627MOL0     C82685   5.792   8.080   6.592 -0.5424 -0.1886  0.2956
  627MOL0     C82686   6.220   8.000   6.418 -0.5744 -0.6679  0.5075
  627MOL0     C82687   6.236   8.069   6.296 -0.0162  0.1075 -0.0603
  627MOL0     C82688   6.353   8.053   6.212  1.1084  1.1326  0.4215
  627MOL0     C82689   6.456   7.969   6.263  0.4592 -0.4808 -0.1976
  627MOL0     O82690   6.560   7.946   6.185 -0.3009 -0.4069  0.3577
  627MOL0     C82691   6.685   7.911   6.243  0.3191 -0.2176 -0.1934
  627MOL0     C82692   6.798   7.912   6.143  0.6616 -0.1523 -0.5061
  627MOL0     C82693   6.929   7.899   6.220  0.1798  0.1581  0.4412
  627MOL0     C82694   6.968   7.994   6.338  0.2849  0.6198  0.0294
  627MOL0     C82695   7.103   7.964   6.382 -0.0086  0.2489 -0.2699
  627MOL0     C82696   7.223   7.947   6.403  0.1915 -0.1588 -0.1563
  627MOL0     C82697   6.455   7.927   6.396  0.5472  0.1601 -0.1126
  627MOL0     C82698   6.333   7.935   6.468 -0.1609  0.1211  0.2305
  627MOL0     H82699   6.029   8.315   6.699  0.7550 -0.4323  1.2390
  627MOL0     H82700   5.841   8.356   6.848 -1.1366  0.0458  1.1399
  627MOL0     H82701   5.485   8.213   7.004  0.6097  2.9717 -1.1432
  627MOL0     H82702   5.523   8.075   6.897 -0.0648  0.5569 -0.6500
  627MOL0     H82703   5.444   8.236   6.706  0.8545  1.9773 -0.5801
  627MOL0     H82704   5.405   8.344   6.838  1.7408 -0.0601  1.8238
  627MOL0     H82705   5.224   8.189   6.906  0.3659  2.6030 -0.8547
  627MOL0     H82706   5.268   8.066   6.799 -0.9760  0.2107  1.5928
  627MOL0     H82707   5.198   8.354   6.694  1.1358  0.3043  0.1557
  627MOL0     H82708   5.233   8.206   6.601  1.1268  1.0631  0.1757
  627MOL0     H82709   5.049   8.098   6.694 -0.1628  0.0273 -0.9029
  627MOL0     H82710   5.002   8.232   6.604  2.7617  0.0036 -0.6483
  627MOL0     H82711   4.976   8.377   6.817 -1.3663  0.1620  2.5454
  627MOL0     H82712   5.027   8.234   6.910  2.4510 -2.0251 -1.7880
  627MOL0     H82713   4.788   8.205   6.734  0.2091 -4.4190  0.2145
  627MOL0     H82714   4.823   8.130   6.892  1.6296 -0.5720 -0.2106
  627MOL0     H82715   4.639   8.311   6.891 -1.3805  2.8051  0.9514
  627MOL0     H82716   4.757   8.432   6.881 -1.0720 -0.5616 -2.2812
  627MOL0     H82717   4.934   8.470   7.059  2.0730 -1.8840 -1.2164
  627MOL0     H82718   4.929   8.407   7.424 -1.7466 -4.5417  1.3392
  627MOL0     H82719   5.033   8.470   7.305 -0.8425 -0.1862 -2.5755
  627MOL0     H82720   5.139   8.221   7.290  0.2956  1.1441 -0.7269
  627MOL0     H82721   5.045   8.183   7.433  0.9703 -0.7490 -0.2932
  627MOL0     H82722   5.251   8.418   7.422  1.8763 -1.4984  0.2718
  627MOL0     H82723   5.134   8.393   7.551  0.1713  0.6052 -0.8209
  627MOL0     H82724   5.250   8.160   7.584  0.0225 -0.1514  0.0185
  627MOL0     H82725   5.347   8.297   7.619 -0.5516  1.7158 -1.4760
  627MOL0     H82726   5.450   8.454   7.521 -2.0184 -2.5935 -0.0042
  627MOL0     H82727   5.647   8.591   7.439 -0.7835 -0.7301 -0.1029
  627MOL0     H82728   6.133   8.352   7.092  0.4824 -1.8207 -2.3808
  627MOL0     H82729   6.293   8.431   6.940 -1.3913 -1.4311 -0.8569
  627MOL0     H82730   6.470   8.563   6.864 -0.5696  0.1990  0.7649
  627MOL0     H82731   6.432   8.673   6.999 -1.9842 -3.4815  0.9477
  627MOL0     H82732   6.486   8.857   6.827  3.7706  1.1664 -0.0194
  627MOL0     H82733   6.515   8.727   6.713  0.0442  0.6582  0.0790
  627MOL0     H82734   6.707   8.643   6.852  0.6963 -0.3696 -1.5805
  627MOL0     H82735   6.682   8.761   6.979  1.2350 -0.6032 -0.4987
  627MOL0     H82736   6.751   8.799   6.686 -1.9081  0.6362  0.7893
  627MOL0     H82737   6.743   8.937   6.801  1.3526  0.0039 -2.6458
  627MOL0     H82738   6.908   8.792   6.936 -0.3062  1.3889  0.2278
  627MOL0     H82739   6.985   8.854   6.789  0.3158 -2.3504 -1.8092
  627MOL0     H82740   6.947   8.665   6.657  0.5121  1.3853  0.3677
  627MOL0     H82741   6.878   8.575   6.806 -2.1876  2.4560  1.8862
  627MOL0     H82742   7.143   8.704   6.836 -1.5838  0.6117 -0.0377
  627MOL0     H82743   7.071   8.565   6.919 -1.6516  2.0923  0.4181
  627MOL0     H82744   7.190   8.550   6.635  0.5118  0.8115  0.0805
  627MOL0     H82745   7.132   8.420   6.743  1.1482 -0.0109  0.3580
  627MOL0     H82746   6.082   8.806   6.898  0.5559  0.8322  1.7947
  627MOL0     H82747   5.893   8.713   7.041  0.1878 -0.2407  1.2441
  627MOL0     H82748   5.746   8.269   7.174 -1.9604 -0.7730  0.1806
  627MOL0     H82749   5.555   8.130   7.262  1.3683  0.9857 -3.4333
  627MOL0     H82750   5.603   8.044   6.678  1.1424 -1.5259  1.4805
  627MOL0     H82751   5.774   7.999   6.521 -0.5681 -0.7775  0.9698
  627MOL0     H82752   6.151   8.125   6.257 -0.4583 -1.1215 -0.9251
  627MOL0     H82753   6.378   8.096   6.115  1.7949  2.1742  1.0452
  627MOL0     H82754   6.676   7.807   6.276  0.4923 -0.6994 -1.5696
  627MOL0     H82755   6.711   7.984   6.319 -3.2149 -1.2360  2.2589
  627MOL0     H82756   6.782   7.825   6.078  1.5999 -1.5449  1.0312
  627MOL0     H82757   6.804   8.007   6.088 -0.6961  0.5416  0.5024
  627MOL0     H82758   7.015   7.908   6.153  2.1273  1.3978  2.9638
  627MOL0     H82759   6.914   7.795   6.251 -2.7011  0.5274  0.5498
  627MOL0     H82760   6.956   8.097   6.303 -0.9338 -0.1205 -1.8921
  627MOL0     H82761   6.901   7.988   6.424 -0.1880  3.3919 -0.0779
  627MOL0     H82762   7.324   7.915   6.420 -0.3409 -1.1359  1.4261
  627MOL0     H82763   6.544   7.894   6.449  0.1001 -0.3086  0.3603
  627MOL0     H82764   6.329   7.901   6.571 -0.7275  2.8779  1.2189
  628MOL0     O82765   9.776   9.197   3.135 -0.5455 -0.4070 -0.0348
  628MOL0     C82766   9.753   9.179   3.261 -0.6054  0.0793 -0.1211
  628MOL0     O82767   9.859   9.159   3.346  0.1440 -0.0521 -0.2996
  628MOL0     C82768   9.985   9.140   3.298  0.6342  0.1416  0.6223
  628MOL0     C82769  10.052   9.014   3.293 -0.4564 -0.0569  0.0201
  628MOL0     C82770  10.184   9.012   3.250 -0.3450 -0.6218 -0.3407
  628MOL0     C82771  10.251   9.130   3.221 -0.1434  0.8876  0.3393
  628MOL0     O82772  10.384   9.141   3.186  0.7989  0.1068  0.3128
  628MOL0     C82773  10.455   9.029   3.151 -0.8372  0.6109 -0.0975
  628MOL0     C82774  10.608   9.065   3.160 -0.3169 -0.7522  0.3979
  628MOL0     C82775  10.686   8.955   3.089  0.0674 -0.1980  0.2778
  628MOL0     C82776  10.831   8.980   3.101 -0.2099 -0.7941 -0.8426
  628MOL0     C82777  10.918   8.873   3.041  0.4753  0.7642  0.7354
  628MOL0     C82778  11.064   8.903   3.058  0.6759 -0.6957  0.4323
  628MOL0     C82779  11.183   8.811   3.018  0.3857 -0.2237  0.7657
  628MOL0     C82780  11.146   8.665   3.001 -0.4224 -0.1895  0.1142
  628MOL0     N82781  11.262   8.579   2.979 -0.2701 -0.2313 -0.1394
  628MOL0     C82782  11.323   8.487   3.062  0.5083  0.1027  0.5050
  628MOL0     C82783  11.420   8.431   2.979  0.6432 -0.5032 -0.0781
  628MOL0     C82784  11.513   8.317   3.003 -0.4856  0.1232 -0.4388
  628MOL0     C82785  11.483   8.181   2.934  0.2499 -0.8107  1.2209
  628MOL0     C82786  11.341   8.140   2.956 -0.2436  0.5855 -0.2333
  628MOL0     C82787  11.290   8.090   3.094  0.2218  0.2733  0.3720
  628MOL0     O82788  11.246   8.200   3.173  0.2598 -0.2328  0.1485
  628MOL0     C82789  11.120   8.258   3.145 -0.1497  0.5328 -0.0327
  628MOL0     C82790  11.087   8.357   3.236  0.4629  0.5390 -0.1638
  628MOL0     C82791  10.966   8.418   3.233 -0.0244 -0.0112  0.2550
  628MOL0     C82792  10.871   8.384   3.131  0.7231  0.0168 -0.6323
  628MOL0     C82793  10.742   8.453   3.133  0.9869  0.0616  0.8357
  628MOL0     O82794  10.635   8.399   3.059 -0.5099  0.2376  0.0935
  628MOL0     C82795  10.504   8.423   3.086 -0.4248  0.2046 -0.6608
  628MOL0     C82796  10.412   8.404   2.985  0.8793  0.5022 -0.0414
  628MOL0     C82797  10.274   8.387   3.006  0.2135 -0.2734  0.1777
  628MOL0     C82798  10.218   8.417   3.129 -0.3303  0.1804 -0.2373
  628MOL0     O82799  10.085   8.414   3.141  0.7066  0.0796 -0.2666
  628MOL0     C82800  10.025   8.458   3.263  0.3756 -0.3247 -0.0094
  628MOL0     C82801   9.870   8.448   3.253 -0.8973  0.0302  0.2278
  628MOL0     C82802   9.812   8.511   3.374  0.0378  0.6952  0.2505
  628MOL0     C82803   9.667   8.543   3.359  0.0697  0.3460 -0.1642
  628MOL0     C82804   9.574   8.425   3.383 -0.2993  0.2368 -0.9672
  628MOL0     C82805   9.551   8.402   3.537  0.3244  1.0364  0.7095
  628MOL0     C82806   9.460   8.287   3.576  0.1560  0.3805 -1.0668
  628MOL0     C82807   9.478   8.257   3.724  0.1630 -0.6761 -0.8443
  628MOL0    Cl82808   9.619   8.154   3.774 -0.0372 -0.2867  0.1052
  628MOL0     C82809  10.312   8.454   3.235 -0.1665  0.0191 -0.3566
  628MOL0     C82810  10.450   8.450   3.214 -0.6276 -0.4240  0.5319
  628MOL0     O82811  10.739   8.556   3.204  0.1621 -0.3230  0.2339
  628MOL0     C82812  10.905   8.288   3.043 -0.1254  0.1180 -0.3759
  628MOL0     C82813  11.032   8.228   3.043  0.3293 -0.0609 -0.2550
  628MOL0     N82814  11.412   8.483   2.854 -0.3364 -0.8646  0.2754
  628MOL0     N82815  11.320   8.576   2.855  0.4199 -0.4909  0.5357
  628MOL0     C82816  10.189   9.254   3.226 -0.2058 -0.1416 -0.6576
  628MOL0     C82817  10.057   9.256   3.258  0.0901 -0.4945  0.2795
  628MOL0     C82818   9.610   9.196   3.304 -0.0415  0.2938  0.6729
  628MOL0     C82819   9.506   9.253   3.224  0.5595 -0.7162  0.7354
  628MOL0     C82820   9.370   9.260   3.265  0.1939 -0.2203 -0.3463
  628MOL0     C82821   9.344   9.235   3.398 -0.8282  0.8961  0.7293
  628MOL0     O82822   9.219   9.246   3.456 -0.0422 -0.1479  0.1007
  628MOL0     C82823   9.108   9.270   3.367  1.4295 -0.1185 -0.1990
  628MOL0     C82824   8.979   9.297   3.455 -0.1228  0.2569  0.2856
  628MOL0     C82825   8.859   9.304   3.368  0.0380 -0.1340 -0.2348
  628MOL0     C82826   8.724   9.373   3.408 -0.2348  0.0301  0.2335
  628MOL0     C82827   8.665   9.314   3.528  0.5404  0.2801 -0.4929
  628MOL0     C82828   8.622   9.278   3.639  0.3850 -0.5701  0.2395
  628MOL0     C82829   9.446   9.182   3.478 -0.0731  0.8812 -0.3383
  628MOL0     C82830   9.577   9.157   3.431  0.2693  0.3425 -0.4944
  628MOL0     H82831  10.003   8.924   3.327  1.0979  0.0121  2.7447
  628MOL0     H82832  10.235   8.917   3.255  1.3857  0.3352  1.4643
  628MOL0     H82833  10.427   9.004   3.048 -0.7235  2.3523 -0.5798
  628MOL0     H82834  10.434   8.941   3.213 -4.1582  0.4883 -1.1829
  628MOL0     H82835  10.633   9.064   3.266 -0.8276  1.5696  0.6041
  628MOL0     H82836  10.630   9.165   3.122 -1.4576 -0.5114  0.3320
  628MOL0     H82837  10.673   8.961   2.980  1.5637 -2.7568 -0.1180
  628MOL0     H82838  10.665   8.856   3.129  2.5833 -0.6158  0.7070
  628MOL0     H82839  10.849   9.074   3.047 -1.2632 -2.2939 -4.0266
  628MOL0     H82840  10.856   8.993   3.207 -3.8418 -0.3646  0.0779
  628MOL0     H82841  10.906   8.865   2.933  1.3052 -0.9360  0.7242
  628MOL0     H82842  10.895   8.772   3.078 -0.3816  0.3811 -0.7816
  628MOL0     H82843  11.076   8.916   3.166 -2.3668 -2.4597  1.1049
  628MOL0     H82844  11.073   8.997   3.003 -0.1859 -1.3446 -0.8618
  628MOL0     H82845  11.224   8.850   2.925 -0.7936  1.7610  1.0200
  628MOL0     H82846  11.260   8.811   3.096 -0.5718  2.7026  1.8252
  628MOL0     H82847  11.078   8.644   2.917  1.5422 -0.3220 -1.5257
  628MOL0     H82848  11.098   8.633   3.094  1.3785 -0.9643  0.8296
  628MOL0     H82849  11.304   8.456   3.164 -0.1358  0.0526  0.3750
  628MOL0     H82850  11.510   8.300   3.111 -3.5908 -0.6372 -0.5603
  628MOL0     H82851  11.613   8.346   2.969  1.3567 -2.4895  2.1652
  628MOL0     H82852  11.558   8.104   2.957  0.9021 -0.2257  1.1069
  628MOL0     H82853  11.494   8.193   2.826  1.6939  0.4675  1.4719
  628MOL0     H82854  11.282   8.218   2.907  1.8313  2.4501  0.0689
  628MOL0     H82855  11.343   8.052   2.890 -0.1061 -1.3144  2.1539
  628MOL0     H82856  11.373   8.043   3.149  0.1478 -0.0368  0.2225
  628MOL0     H82857  11.208   8.021   3.072 -1.9636  3.0474 -0.8020
  628MOL0     H82858  11.158   8.383   3.314  2.3671  0.7142 -1.8639
  628MOL0     H82859  10.956   8.486   3.317 -1.6415  0.8587 -0.5881
  628MOL0     H82860  10.456   8.384   2.888 -1.5265 -0.0066 -1.1194
  628MOL0     H82861  10.203   8.367   2.926  0.4018 -1.8274  0.3805
  628MOL0     H82862  10.054   8.562   3.276  3.6489 -1.3149  1.9074
  628MOL0     H82863  10.062   8.406   3.352 -1.2655  1.5620  1.8712
  628MOL0     H82864   9.844   8.347   3.219  2.9694  0.1538 -4.2525
  628MOL0     H82865   9.832   8.506   3.169 -0.5270 -2.7327 -2.0379
  628MOL0     H82866   9.854   8.612   3.378 -1.1295  1.2972 -1.2926
  628MOL0     H82867   9.837   8.453   3.463  1.7023 -0.7238 -1.0782
  628MOL0     H82868   9.654   8.627   3.428  1.1534 -0.6210  1.2833
  628MOL0     H82869   9.645   8.582   3.260  0.4973 -1.7353 -1.1267
  628MOL0     H82870   9.609   8.341   3.322 -2.2807  0.6987 -2.8409
  628MOL0     H82871   9.473   8.448   3.350 -1.4501  2.3045  3.2881
  628MOL0     H82872   9.514   8.493   3.585  2.2825  1.2278  1.9908
  628MOL0     H82873   9.647   8.375   3.582  0.4588 -0.6292 -0.4816
  628MOL0     H82874   9.356   8.321   3.563  0.2828  1.8706  1.3109
  628MOL0     H82875   9.464   8.194   3.518  2.0002 -1.7364  2.1791
  628MOL0     H82876   9.390   8.202   3.756 -1.5597  2.1851 -0.3027
  628MOL0     H82877   9.483   8.354   3.774  1.3049  0.4845 -3.0603
  628MOL0     H82878  10.274   8.493   3.329  1.5639  1.0433 -0.0363
  628MOL0     H82879  10.524   8.476   3.289 -0.8931 -1.1087  1.0433
  628MOL0     H82880  10.835   8.243   2.973  2.2400 -2.6892 -1.1716
  628MOL0     H82881  11.058   8.148   2.974  0.8611  0.2506 -0.4242
  628MOL0     H82882  10.241   9.344   3.195 -0.5348 -0.0141 -0.8431
  628MOL0     H82883  10.016   9.356   3.270 -0.8009 -0.6639 -1.2080
  628MOL0     H82884   9.535   9.283   3.124 -0.0934  1.1591  1.0604
  628MOL0     H82885   9.298   9.293   3.190 -0.3972  2.5459  1.2918
  628MOL0     H82886   9.087   9.182   3.306 -0.5815  0.0942  0.1280
  628MOL0     H82887   9.125   9.355   3.301  0.5547  0.2964  0.0935
  628MOL0     H82888   8.982   9.207   3.517 -0.2624 -1.8151 -2.5384
  628MOL0     H82889   8.979   9.391   3.510 -0.6999  0.7255 -0.4937
  628MOL0     H82890   8.831   9.200   3.350  1.5223 -0.4608 -0.7866
  628MOL0     H82891   8.882   9.341   3.268 -0.5691 -2.1171 -1.1409
  628MOL0     H82892   8.759   9.476   3.416  0.3064 -0.1943  0.7956
  628MOL0     H82893   8.647   9.375   3.330  0.4258 -0.3330 -0.4459
  628MOL0     H82894   8.587   9.254   3.738 -0.5583  2.5939  0.8044
  628MOL0     H82895   9.418   9.149   3.577  2.0127 -1.4164 -0.4231
  628MOL0     H82896   9.640   9.100   3.497 -0.9019  0.7493  1.0369
  629MOL0     O82897   8.941   9.917   0.364  0.3017  0.0076 -0.1879
  629MOL0     C82898   8.941   9.854   0.262  0.2238 -0.1717 -0.2838
  629MOL0     O82899   8.838   9.826   0.187  0.9277  0.6846  0.2229
  629MOL0     C82900   8.717   9.890   0.206 -0.0911  0.2372 -0.5970
  629MOL0     C82901   8.598   9.826   0.257  0.2865 -0.6806  0.0615
  629MOL0     C82902   8.479   9.906   0.260 -0.0462  0.0562 -0.0125
  629MOL0     C82903   8.473  10.035   0.196  0.0098  0.4528 -0.8577
  629MOL0     O82904   8.355  10.104   0.200 -0.2910 -0.0680 -0.1625
  629MOL0     C82905   8.309  10.150   0.078 -0.1937 -0.4019  0.0819
  629MOL0     C82906   8.175  10.226   0.108  0.3487  0.3575 -0.7463
  629MOL0     C82907   8.121  10.282  -0.017  0.8895  0.4580  0.6832
  629MOL0     C82908   7.987  10.356   0.013 -0.4720 -0.2266 -0.2647
  629MOL0     C82909   7.928  10.421  -0.115  0.5683  0.9355 -0.4850
  629MOL0     C82910   8.009  10.543  -0.173 -0.4597  0.2215 -0.7926
  629MOL0     C82911   7.936  10.615  -0.284 -0.4837 -0.3072 -0.6563
  629MOL0     C82912   7.812  10.686  -0.222  1.1919 -0.0391 -0.0136
  629MOL0     N82913   7.735  10.762  -0.316 -0.6024 -0.0071  0.5216
  629MOL0     C82914   7.597  10.785  -0.324 -0.6228 -0.3777 -0.2879
  629MOL0     C82915   7.584  10.890  -0.399 -0.8401 -0.4005 -0.2866
  629MOL0     C82916   7.459  10.962  -0.433  0.4558  0.6798  0.3136
  629MOL0     C82917   7.352  10.958  -0.322  0.1805 -0.2731  0.4093
  629MOL0     C82918   7.227  11.032  -0.357  0.7292 -0.4891 -0.3065
  629MOL0     C82919   7.116  10.999  -0.262  0.2536 -0.8330 -0.1967
  629MOL0     O82920   6.995  11.057  -0.322  0.3690 -0.4894 -0.1713
  629MOL0     C82921   6.877  11.050  -0.253  0.3113  0.1214 -0.6722
  629MOL0     C82922   6.763  11.086  -0.319 -0.0906 -0.7390 -0.1736
  629MOL0     C82923   6.641  11.071  -0.250  0.5348  0.1167  0.1453
  629MOL0     C82924   6.620  11.029  -0.115 -0.6181  0.6379  0.9604
  629MOL0     C82925   6.493  11.032  -0.058  0.5648  0.6772  0.3849
  629MOL0     O82926   6.383  11.048  -0.139 -0.2031  0.1386 -0.3938
  629MOL0     C82927   6.260  11.078  -0.089  0.0927  0.7448 -0.9194
  629MOL0     C82928   6.198  11.196  -0.136 -0.1209 -0.8128  0.3494
  629MOL0     C82929   6.063  11.206  -0.103 -0.2328  0.1615 -0.5426
  629MOL0     C82930   5.993  11.115  -0.027  1.0428 -0.1730 -0.3629
  629MOL0     O82931   5.855  11.135  -0.014 -0.9083 -0.1228  0.0868
  629MOL0     C82932   5.775  11.043   0.059 -0.5699  0.4344  0.0518
  629MOL0     C82933   5.630  11.038   0.013 -0.3272  0.2281 -0.1830
  629MOL0     C82934   5.619  11.017  -0.142  0.1752  0.4170 -0.1000
  629MOL0     C82935   5.471  11.030  -0.183 -0.3087  0.1392 -0.8430
  629MOL0     C82936   5.422  10.933  -0.295 -0.6480 -0.5747  0.2654
  629MOL0     C82937   5.512  10.944  -0.419 -0.0971  0.7003 -0.8314
  629MOL0     C82938   5.463  10.841  -0.522  1.1245 -0.2007 -0.6664
  629MOL0     C82939   5.557  10.821  -0.645  0.5735  0.1922  0.4218
  629MOL0    Cl82940   5.715  10.732  -0.603  0.5886 -0.2443  0.1587
  629MOL0     C82941   6.061  11.009   0.025  0.4848  0.0034  0.0999
  629MOL0     C82942   6.190  10.986  -0.007  0.0767 -0.4203 -0.5222
  629MOL0     O82943   6.486  11.031   0.065  0.1068  0.3386 -0.2241
  629MOL0     C82944   6.741  10.987  -0.056  0.5677  0.5081  0.0171
  629MOL0     C82945   6.862  10.994  -0.127 -0.6031  1.2645  0.5863
  629MOL0     N82946   7.717  10.936  -0.426  0.1597 -0.4409 -0.2033
  629MOL0     N82947   7.801  10.861  -0.378 -0.0241 -0.3808 -0.1157
  629MOL0     C82948   8.594  10.096   0.161 -0.1458 -0.5089 -0.0015
  629MOL0     C82949   8.716  10.021   0.171  0.4419  0.6735 -0.7897
  629MOL0     C82950   9.074   9.804   0.218  0.1644  0.4956 -0.2198
  629MOL0     C82951   9.193   9.852   0.263 -0.5871 -0.0198 -0.1771
  629MOL0     C82952   9.321   9.803   0.233  0.6582  0.1904  0.0825
  629MOL0     C82953   9.330   9.699   0.146 -0.0375  0.3502 -0.6089
  629MOL0     O82954   9.460   9.654   0.131 -0.4683 -0.3250  0.6682
  629MOL0     C82955   9.500   9.606   0.002  0.1520  0.8226 -0.0120
  629MOL0     C82956   9.634   9.530   0.014  0.4270  0.0675  0.6208
  629MOL0     C82957   9.745   9.614   0.060 -0.2946  0.0744 -0.8769
  629MOL0     C82958   9.864   9.525   0.096  0.4139  0.2709 -0.4609
  629MOL0     C82959   9.978   9.610   0.145  0.1393  0.1664 -0.0268
  629MOL0     C82960  10.073   9.678   0.168 -0.2045  0.0388 -0.8651
  629MOL0     C82961   9.214   9.645   0.088  0.1292 -0.0095  0.3296
  629MOL0     C82962   9.086   9.709   0.114 -0.0774  0.3604 -0.1169
  629MOL0     H82963   8.589   9.723   0.288  0.0702 -0.0222  2.3068
  629MOL0     H82964   8.382   9.873   0.297 -0.2521  0.7776  0.1150
  629MOL0     H82965   8.291  10.067   0.009  1.3676 -1.8601  1.3502
  629MOL0     H82966   8.389  10.215   0.040  1.4965 -0.6686  2.9141
  629MOL0     H82967   8.183  10.309   0.179  1.8288 -0.5438  0.1883
  629MOL0     H82968   8.114  10.160   0.170 -0.7903  2.2701  0.2534
  629MOL0     H82969   8.111  10.202  -0.090 -0.8286  2.1249 -1.0379
  629MOL0     H82970   8.195  10.351  -0.059  1.3255 -0.9313 -0.9161
  629MOL0     H82971   7.916  10.287   0.060 -0.2250 -0.6281 -0.4706
  629MOL0     H82972   7.999  10.440   0.082  2.3727 -0.8969  0.2052
  629MOL0     H82973   7.828  10.456  -0.086 -0.9151 -3.4659  0.5877
  629MOL0     H82974   7.916  10.344  -0.192 -0.0035  1.3384 -0.8034
  629MOL0     H82975   8.107  10.504  -0.203  1.1078  2.1413  1.4976
  629MOL0     H82976   8.029  10.613  -0.092 -1.7347  1.3347 -1.3905
  629MOL0     H82977   8.006  10.682  -0.334  0.9199 -0.6686  0.7700
  629MOL0     H82978   7.902  10.544  -0.360 -1.0475 -0.1478 -0.5622
  629MOL0     H82979   7.848  10.756  -0.146 -0.1790  0.0514  0.5891
  629MOL0     H82980   7.750  10.617  -0.163  1.3139  0.6010  0.8938
  629MOL0     H82981   7.529  10.723  -0.266  0.4100 -0.8730  0.4325
  629MOL0     H82982   7.419  10.913  -0.523  3.5229 -0.2962 -0.6232
  629MOL0     H82983   7.488  11.063  -0.460  1.6707 -0.0415 -1.2155
  629MOL0     H82984   7.399  10.994  -0.230  0.6846 -0.3905  0.1967
  629MOL0     H82985   7.324  10.853  -0.310  2.7590 -0.9516  1.2205
  629MOL0     H82986   7.246  11.140  -0.360  4.0357 -0.9639 -1.7393
  629MOL0     H82987   7.195  11.000  -0.457  0.7890 -1.0284 -0.1571
  629MOL0     H82988   7.125  11.038  -0.160 -2.3669  0.5132 -0.3816
  629MOL0     H82989   7.098  10.892  -0.256  2.4407 -1.2396 -0.0715
  629MOL0     H82990   6.776  11.123  -0.420 -0.0523  1.8400  0.6851
  629MOL0     H82991   6.556  11.114  -0.303  1.5240  3.9097  1.3386
  629MOL0     H82992   6.262  11.272  -0.182 -0.3639 -0.7405  0.1264
  629MOL0     H82993   6.019  11.302  -0.126 -0.9404 -0.0731 -0.1864
  629MOL0     H82994   5.783  11.061   0.167 -0.7463 -0.5549  0.2459
  629MOL0     H82995   5.814  10.941   0.048 -0.0246  0.6496  0.0040
  629MOL0     H82996   5.585  11.136   0.034  1.5279  0.5371  2.9566
  629MOL0     H82997   5.567  10.966   0.065  1.2575  1.5163  3.8734
  629MOL0     H82998   5.664  10.918  -0.157 -0.4603  0.3887 -2.0059
  629MOL0     H82999   5.674  11.093  -0.198  1.4454 -0.1317  0.3413
  629MOL0     H83000   5.417  11.014  -0.089  1.6368 -1.0411  0.1432
  629MOL0     H83001   5.460  11.134  -0.213  1.9271  1.2943  1.9329
  629MOL0     H83002   5.316  10.952  -0.315 -0.7075 -1.4276 -0.2720
  629MOL0     H83003   5.427  10.827  -0.268  0.9936 -0.2091  1.5129
  629MOL0     H83004   5.620  10.938  -0.399  0.1221  3.7553 -0.6090
  629MOL0     H83005   5.516  11.043  -0.464  0.5725  0.0361 -2.3125
  629MOL0     H83006   5.437  10.743  -0.480  2.5523 -0.2111  0.2729
  629MOL0     H83007   5.369  10.875  -0.566 -0.3692 -2.6065  0.4539
  629MOL0     H83008   5.590  10.921  -0.671  3.2452  0.4059  3.9047
  629MOL0     H83009   5.492  10.781  -0.724  0.6138  2.2275 -0.6872
  629MOL0     H83010   6.018  10.938   0.095  1.5477 -0.0322  0.7411
  629MOL0     H83011   6.243  10.898   0.029  1.0116  0.8389  1.3698
  629MOL0     H83012   6.744  10.936   0.040  0.8659 -1.6653 -1.0970
  629MOL0     H83013   6.941  10.932  -0.084 -0.7349 -0.8049 -1.8937
  629MOL0     H83014   8.594  10.198   0.125  0.2045  0.2298  1.9402
  629MOL0     H83015   8.808  10.056   0.127  1.8297 -2.0491 -0.2726
  629MOL0     H83016   9.190   9.929   0.339 -0.9867  0.0572 -0.2697
  629MOL0     H83017   9.415   9.841   0.271  1.9933  0.9346 -3.5588
  629MOL0     H83018   9.503   9.691  -0.067 -2.6412  1.3022  0.3305
  629MOL0     H83019   9.426   9.531  -0.028  0.5254  0.2395  0.4924
  629MOL0     H83020   9.617   9.449   0.085  3.0522 -0.4961  0.7276
  629MOL0     H83021   9.665   9.483  -0.079  2.1291 -1.2107  1.7750
  629MOL0     H83022   9.707   9.680   0.139 -0.2064  0.5462 -1.2326
  629MOL0     H83023   9.772   9.683  -0.020  0.5294  0.3922 -0.3344
  629MOL0     H83024   9.835   9.460   0.179 -2.5021  0.7205 -1.0282
  629MOL0     H83025   9.905   9.469   0.011  1.3881 -0.7942  0.6559
  629MOL0     H83026  10.152   9.735   0.212 -1.2828 -1.4646  3.5524
  629MOL0     H83027   9.209   9.569   0.011 -2.6828  0.0328  0.3769
  629MOL0     H83028   8.997   9.666   0.069  1.0824 -2.5648  0.2030
  630MOL0     O83029   0.050   8.716   1.169  0.0892  0.2019  0.3711
  630MOL0     C83030   0.105   8.653   1.257 -0.7598 -0.3689 -0.0275
  630MOL0     O83031   0.049   8.563   1.339 -0.4674  0.8720  0.8304
  630MOL0     C83032  -0.074   8.520   1.304  0.7206  0.4799  0.5623
  630MOL0     C83033  -0.158   8.522   1.413  0.2063  1.0529  0.1135
  630MOL0     C83034  -0.285   8.467   1.405  0.8170  0.6342  0.6686
  630MOL0     C83035  -0.338   8.417   1.284 -0.1848 -0.7051  0.0316
  630MOL0     O83036  -0.465   8.354   1.285 -0.2584 -0.1386  0.0656
  630MOL0     C83037  -0.578   8.422   1.338 -0.1481  0.0781  0.0611
  630MOL0     C83038  -0.699   8.331   1.336 -0.6156  0.2671 -0.0895
  630MOL0     C83039  -0.652   8.201   1.414  0.2975 -0.4367  0.6203
  630MOL0     C83040  -0.761   8.089   1.419 -1.2201 -0.7761 -1.0213
  630MOL0     C83041  -0.892   8.127   1.488  0.6514 -0.4852 -0.1987
  630MOL0     C83042  -1.011   8.044   1.441  0.7222 -0.8855  0.3888
  630MOL0     C83043  -1.101   8.135   1.360  0.3122 -0.6845 -0.4197
  630MOL0     C83044  -1.225   8.063   1.303 -0.0191 -0.2104  0.3574
  630MOL0     N83045  -1.291   7.966   1.400 -0.3244 -0.9510  0.1983
  630MOL0     C83046  -1.387   7.997   1.493  0.1730  0.7902  0.4540
  630MOL0     C83047  -1.397   7.884   1.562  0.7403 -0.0376  0.0639
  630MOL0     C83048  -1.492   7.861   1.677  0.2325 -0.8827  0.6013
  630MOL0     C83049  -1.420   7.894   1.809 -0.1707  0.2663 -0.6466
  630MOL0     C83050  -1.503   7.849   1.936 -0.2944 -0.1478  0.0289
  630MOL0     C83051  -1.624   7.947   1.946 -0.4018  0.1293  0.4269
  630MOL0     O83052  -1.696   7.930   2.065  0.2899  0.4636  0.0577
  630MOL0     C83053  -1.827   7.935   2.066  0.7384 -0.6534  0.7847
  630MOL0     C83054  -1.880   7.886   2.186  0.1191  0.8885  0.2413
  630MOL0     C83055  -2.019   7.892   2.210  0.1073  0.4582  1.0833
  630MOL0     C83056  -2.111   7.947   2.113  0.4287  0.6828  0.5731
  630MOL0     C83057  -2.264   7.960   2.129  0.1486  0.0394  0.2989
  630MOL0     O83058  -2.329   7.983   2.011  0.4647  0.1165  0.7054
  630MOL0     C83059  -2.462   7.981   2.021 -1.1770 -0.1670  0.9716
  630MOL0     C83060  -2.545   8.081   2.085 -0.8742 -0.0773  0.3880
  630MOL0     C83061  -2.683   8.065   2.076  0.2609 -0.5940 -0.1247
  630MOL0     C83062  -2.743   7.961   2.009 -1.0562 -0.3958 -0.9602
  630MOL0     O83063  -2.876   7.941   1.993  0.2122  0.0978 -0.4755
  630MOL0     C83064  -2.966   8.052   2.014  0.7201 -0.4986 -1.0458
  630MOL0     C83065  -3.114   8.016   1.983 -0.3343 -1.1314 -1.4675
  630MOL0     C83066  -3.223   8.110   2.053 -0.1208 -0.1772  0.5120
  630MOL0     C83067  -3.363   8.065   2.011 -0.6644  0.3774 -0.1062
  630MOL0     C83068  -3.480   8.134   2.077  0.6349 -0.5943 -0.8231
  630MOL0     C83069  -3.480   8.289   2.051  0.5576  0.3554  0.0087
  630MOL0     C83070  -3.611   8.354   2.116  0.2734 -0.9018 -0.1187
  630MOL0     C83071  -3.594   8.373   2.270 -0.3138 -0.5186  0.8568
  630MOL0    Cl83072  -3.747   8.435   2.357 -0.2070 -0.2906  0.4005
  630MOL0     C83073  -2.662   7.857   1.956  0.0102 -0.3368 -1.4224
  630MOL0     C83074  -2.526   7.867   1.966 -0.9150  0.3813 -0.1605
  630MOL0     O83075  -2.316   7.938   2.240 -0.2062 -0.4346 -0.3618
  630MOL0     C83076  -2.061   7.989   1.988  0.5078 -0.8602  0.3152
  630MOL0     C83077  -1.918   7.996   1.970  0.5033 -0.4240 -0.1984
  630MOL0     N83078  -1.319   7.786   1.503  0.7620  0.4530  0.1202
  630MOL0     N83079  -1.258   7.837   1.404  0.0692  0.3211 -0.2836
  630MOL0     C83080  -0.251   8.428   1.175 -0.3445  0.7507  1.6272
  630MOL0     C83081  -0.121   8.473   1.184 -1.1252 -0.1265 -0.2268
  630MOL0     C83082   0.249   8.677   1.288 -0.1518 -0.5301  1.8919
  630MOL0     C83083   0.312   8.625   1.399  0.0301  0.6015  0.5603
  630MOL0     C83084   0.440   8.634   1.426 -1.1673 -0.7019  0.2024
  630MOL0     C83085   0.516   8.728   1.353 -0.4409 -0.1304  0.1649
  630MOL0     O83086   0.652   8.764   1.381 -0.4941  0.0236 -0.2433
  630MOL0     C83087   0.731   8.690   1.480 -0.7683  0.5163  0.1732
  630MOL0     C83088   0.877   8.728   1.456 -0.4405  0.3445  0.5734
  630MOL0     C83089   0.919   8.873   1.497 -0.4115 -0.1347 -0.1491
  630MOL0     C83090   1.077   8.884   1.482  0.8344  0.4581 -0.4481
  630MOL0     C83091   1.131   9.003   1.546  0.6285  0.9692 -0.5151
  630MOL0     C83092   1.176   9.100   1.600 -0.6926 -0.3710 -0.3429
  630MOL0     C83093   0.450   8.802   1.250  0.3476  0.9071  0.1632
  630MOL0     C83094   0.323   8.769   1.208 -0.4393  0.9079 -0.4121
  630MOL0     H83095  -0.118   8.551   1.509 -1.8019 -1.1667  1.7214
  630MOL0     H83096  -0.352   8.475   1.490  0.5393 -1.8385  0.7296
  630MOL0     H83097  -0.598   8.515   1.284  0.3188  0.5402  0.6675
  630MOL0     H83098  -0.552   8.442   1.443  3.0435  0.4677 -0.7080
  630MOL0     H83099  -0.728   8.301   1.235 -1.0913 -1.8976  0.6361
  630MOL0     H83100  -0.786   8.376   1.386  0.0053  1.2885  0.1105
  630MOL0     H83101  -0.613   8.228   1.512  0.4786 -1.2773  0.7829
  630MOL0     H83102  -0.570   8.155   1.358  1.3438  0.8631  1.0277
  630MOL0     H83103  -0.788   8.050   1.320 -2.5358  1.1389 -1.4713
  630MOL0     H83104  -0.715   8.003   1.468 -0.4028  0.6691  0.8399
  630MOL0     H83105  -0.919   8.231   1.470 -0.7221 -1.1914 -2.8053
  630MOL0     H83106  -0.877   8.112   1.595  0.6306  1.8014  0.1751
  630MOL0     H83107  -1.073   8.023   1.529  0.1095  1.1929  0.5118
  630MOL0     H83108  -0.980   7.955   1.386 -0.2900 -1.7279  1.1114
  630MOL0     H83109  -1.136   8.212   1.430  1.0152 -0.7645  0.0284
  630MOL0     H83110  -1.056   8.189   1.276 -1.5493  0.8964 -0.4772
  630MOL0     H83111  -1.197   8.007   1.214 -0.1906 -2.8386  1.8395
  630MOL0     H83112  -1.309   8.125   1.271 -1.0775 -1.3240  0.8602
  630MOL0     H83113  -1.454   8.080   1.510 -0.6534 -0.2668  2.9427
  630MOL0     H83114  -1.522   7.756   1.690 -0.4828 -0.5681  1.6487
  630MOL0     H83115  -1.584   7.918   1.663  0.1257 -0.6455  2.0435
  630MOL0     H83116  -1.396   8.000   1.807  3.1274 -0.3903 -0.4689
  630MOL0     H83117  -1.324   7.842   1.803  0.1637  1.0732 -3.2815
  630MOL0     H83118  -1.528   7.743   1.936  0.9440 -0.4544  0.0272
  630MOL0     H83119  -1.441   7.873   2.023 -1.7415 -1.7966  1.5950
  630MOL0     H83120  -1.675   7.950   1.849  1.8993 -1.3389 -0.9216
  630MOL0     H83121  -1.578   8.045   1.960 -0.0260  0.0870 -0.4482
  630MOL0     H83122  -1.826   7.849   2.273  0.5168  1.3570  0.2024
  630MOL0     H83123  -2.046   7.843   2.303  0.3538  1.3876  1.6575
  630MOL0     H83124  -2.487   8.158   2.135  0.6172 -2.1517  2.0454
  630MOL0     H83125  -2.753   8.136   2.118 -0.8511 -1.1262 -1.0238
  630MOL0     H83126  -2.943   8.140   1.953 -0.1918  2.7435  2.8398
  630MOL0     H83127  -2.958   8.085   2.118 -0.5469 -0.0246 -1.0825
  630MOL0     H83128  -3.130   7.912   2.014  2.4905 -1.6730 -1.5315
  630MOL0     H83129  -3.127   8.026   1.875 -0.5381 -0.7102 -1.4038
  630MOL0     H83130  -3.224   8.215   2.023 -1.3582 -0.1263  0.7045
  630MOL0     H83131  -3.211   8.106   2.162  0.3129 -2.5320  0.4356
  630MOL0     H83132  -3.365   8.080   1.902 -1.1367 -1.9125 -0.4618
  630MOL0     H83133  -3.372   7.958   2.033 -0.2304 -0.0810 -1.9488
  630MOL0     H83134  -3.472   8.122   2.185 -3.6169 -0.8512 -0.3592
  630MOL0     H83135  -3.582   8.103   2.051 -0.5714  2.6162 -0.4114
  630MOL0     H83136  -3.483   8.303   1.942  0.9624  1.0855  0.0793
  630MOL0     H83137  -3.393   8.347   2.084 -0.0455  0.3633  1.6749
  630MOL0     H83138  -3.622   8.453   2.070 -0.4420 -1.5259 -1.3580
  630MOL0     H83139  -3.698   8.292   2.092 -1.4152  1.2625  0.1727
  630MOL0     H83140  -3.505   8.435   2.285 -1.4042  1.3496 -0.0076
  630MOL0     H83141  -3.576   8.276   2.317  0.0346 -0.2545  1.2743
  630MOL0     H83142  -2.694   7.765   1.908  0.2130 -1.2845  0.2145
  630MOL0     H83143  -2.471   7.784   1.922 -1.2165 -2.6138  4.4612
  630MOL0     H83144  -2.124   8.046   1.920  0.2771 -3.2995 -1.6406
  630MOL0     H83145  -1.876   8.040   1.880  0.9291  4.5367  2.1443
  630MOL0     H83146  -0.291   8.392   1.081  0.7752 -0.6059  1.6342
  630MOL0     H83147  -0.047   8.466   1.105 -0.2194  1.9232  0.3759
  630MOL0     H83148   0.250   8.564   1.465 -0.6620  2.0390  1.2843
  630MOL0     H83149   0.476   8.586   1.516 -2.8861 -2.9103 -0.1893
  630MOL0     H83150   0.721   8.582   1.462 -0.5978  1.0561 -4.3168
  630MOL0     H83151   0.704   8.716   1.583 -1.2159 -4.3295  1.5383
  630MOL0     H83152   0.939   8.656   1.511  0.7666  0.9731  0.0740
  630MOL0     H83153   0.904   8.714   1.351  3.2960 -3.7588  1.7581
  630MOL0     H83154   0.900   8.881   1.605 -1.2597 -0.4569 -0.2675
  630MOL0     H83155   0.873   8.954   1.441  0.5872 -0.4446 -1.4771
  630MOL0     H83156   1.122   8.795   1.528 -3.0658 -1.1633  0.6666
  630MOL0     H83157   1.113   8.888   1.379  0.8529 -2.3120 -0.6230
  630MOL0     H83158   1.243   9.177   1.633  2.1414 -2.5878 -0.4370
  630MOL0     H83159   0.503   8.883   1.200 -1.1211  2.8752  1.6448
  630MOL0     H83160   0.284   8.820   1.120  0.2622  3.0446  0.4680
  631MOL0     O83161   7.012   2.520   8.824 -0.5167 -0.4068 -0.5727
  631MOL0     C83162   7.036   2.635   8.829 -0.0050 -0.3910  0.2254
  631MOL0     O83163   6.948   2.732   8.791  0.4846 -0.6824 -0.8993
  631MOL0     C83164   6.825   2.712   8.739 -1.2221  0.1095 -0.5260
  631MOL0     C83165   6.726   2.807   8.767 -0.7411 -0.1709  0.0076
  631MOL0     C83166   6.593   2.788   8.716 -0.6726 -0.6370  0.0175
  631MOL0     C83167   6.559   2.674   8.643  0.5008  0.3419  0.6785
  631MOL0     O83168   6.429   2.672   8.586 -0.7666 -0.0340  0.5630
  631MOL0     C83169   6.362   2.547   8.569 -0.0007 -0.0983  0.5607
  631MOL0     C83170   6.223   2.562   8.504 -1.0785  0.1444  0.6141
  631MOL0     C83171   6.157   2.425   8.506  0.4298 -0.9572 -0.1550
  631MOL0     C83172   6.007   2.451   8.450  0.2144 -0.3237 -0.2833
  631MOL0     C83173   5.893   2.356   8.499 -0.3824 -0.3299  0.8531
  631MOL0     C83174   5.870   2.382   8.643 -0.9408  0.1556 -0.5782
  631MOL0     C83175   5.732   2.331   8.698  0.8057  0.0611 -0.1143
  631MOL0     C83176   5.719   2.179   8.699  1.3487  0.4726  0.0697
  631MOL0     N83177   5.579   2.141   8.724 -0.3801 -0.6816  0.2710
  631MOL0     C83178   5.534   2.033   8.796  0.3166 -0.1159  0.5790
  631MOL0     C83179   5.407   2.018   8.753  0.4440  0.8431  0.4233
  631MOL0     C83180   5.325   1.896   8.779 -0.8233  0.0984  0.4402
  631MOL0     C83181   5.173   1.904   8.736  0.4731  0.3626  0.2791
  631MOL0     C83182   5.092   2.012   8.817  0.7016 -0.8435  0.3936
  631MOL0     C83183   4.939   2.003   8.781 -0.0640 -0.2181  0.4510
  631MOL0     O83184   4.878   1.868   8.804  0.1700 -0.2018 -0.6690
  631MOL0     C83185   4.741   1.865   8.812 -0.1198  0.4614  0.2517
  631MOL0     C83186   4.684   1.745   8.875 -0.3485  0.1658 -0.0153
  631MOL0     C83187   4.545   1.711   8.859 -0.5649 -0.1494 -0.0792
  631MOL0     C83188   4.454   1.802   8.801 -0.2568  0.4236  0.2593
  631MOL0     C83189   4.299   1.790   8.801 -0.5463 -0.2768  0.5734
  631MOL0     O83190   4.245   1.683   8.866  0.7571 -0.1247  0.2504
  631MOL0     C83191   4.103   1.669   8.895 -0.5148 -0.3124  0.2539
  631MOL0     C83192   4.069   1.614   9.022 -0.2424  1.0721  0.6094
  631MOL0     C83193   3.933   1.601   9.057 -0.3233  0.0440  0.6071
  631MOL0     C83194   3.830   1.635   8.963  0.3303 -0.3481 -0.3962
  631MOL0     O83195   3.697   1.621   8.984  0.0875  0.4657 -0.0785
  631MOL0     C83196   3.658   1.545   9.093 -0.4316 -0.2148 -0.2120
  631MOL0     C83197   3.506   1.532   9.102 -1.1536  0.1902 -0.7387
  631MOL0     C83198   3.460   1.463   8.975  0.0995 -0.7469  0.2513
  631MOL0     C83199   3.314   1.425   8.983  0.5496 -1.1068  0.2497
  631MOL0     C83200   3.258   1.378   8.853 -0.4592  0.0759 -0.3077
  631MOL0     C83201   3.125   1.315   8.872  0.1604  0.6014 -0.1437
  631MOL0     C83202   3.077   1.249   8.750  0.6212  0.6592  0.3087
  631MOL0     C83203   2.931   1.201   8.747  0.4367  0.8684 -0.2604
  631MOL0    Cl83204   2.895   1.128   8.579 -0.2149  0.2765 -0.1812
  631MOL0     C83205   3.869   1.694   8.837  0.2926  0.1133  0.0780
  631MOL0     C83206   4.007   1.712   8.812  0.2116 -0.4103  0.5565
  631MOL0     O83207   4.238   1.893   8.769  0.5536 -0.0764  0.0951
  631MOL0     C83208   4.509   1.921   8.746  0.0912 -0.2869 -0.8669
  631MOL0     C83209   4.653   1.945   8.745  0.0808  0.1287 -0.4067
  631MOL0     N83210   5.374   2.119   8.660  0.4426  0.2158  0.3904
  631MOL0     N83211   5.481   2.183   8.636  0.0132 -0.3665 -0.1304
  631MOL0     C83212   6.662   2.578   8.626 -0.5549  0.3457 -0.0919
  631MOL0     C83213   6.793   2.600   8.664  0.2299  0.6654  0.5118
  631MOL0     C83214   7.175   2.682   8.870  0.7018  0.7825 -0.0793
  631MOL0     C83215   7.289   2.600   8.847 -0.2251 -0.0382  0.1400
  631MOL0     C83216   7.416   2.653   8.891 -0.4749 -0.0584  0.9496
  631MOL0     C83217   7.423   2.780   8.950 -0.3331 -0.6715 -0.3075
  631MOL0     O83218   7.549   2.831   8.945  0.2723  0.3833  0.2938
  631MOL0     C83219   7.598   2.926   9.034 -0.5211  0.4528  0.1821
  631MOL0     C83220   7.750   2.914   9.025 -0.2315 -0.0444  0.2680
  631MOL0     C83221   7.803   2.951   8.888 -0.5266 -0.0364 -0.2236
  631MOL0     C83222   7.954   2.963   8.881  0.3651  0.9966  0.1134
  631MOL0     C83223   8.012   3.074   8.951 -0.1985  0.6664  0.8037
  631MOL0     C83224   8.069   3.162   9.004 -0.1249 -0.4956 -0.4720
  631MOL0     C83225   7.301   2.851   8.978 -0.0907 -0.3807  0.6577
  631MOL0     C83226   7.186   2.796   8.933  0.3565 -0.2096 -0.4295
  631MOL0     H83227   6.754   2.887   8.834 -1.6894 -1.7552  2.4657
  631MOL0     H83228   6.520   2.867   8.729  0.9503  0.8086  0.7794
  631MOL0     H83229   6.358   2.507   8.671 -2.2620 -0.2611  0.4585
  631MOL0     H83230   6.418   2.486   8.497 -1.4196  1.7576 -2.2748
  631MOL0     H83231   6.245   2.595   8.402 -1.8476 -0.9355  0.0840
  631MOL0     H83232   6.163   2.640   8.551  0.2330  1.0620  0.8351
  631MOL0     H83233   6.155   2.384   8.608  2.7334 -0.3173  0.2256
  631MOL0     H83234   6.205   2.357   8.435 -0.2161  0.3150 -1.8622
  631MOL0     H83235   5.978   2.551   8.485 -0.2901 -0.9831  1.2696
  631MOL0     H83236   6.004   2.468   8.342 -1.6758  0.6438 -0.1299
  631MOL0     H83237   5.923   2.253   8.479  4.1239  0.6455  1.5357
  631MOL0     H83238   5.804   2.364   8.436 -0.2729 -1.1640  0.5715
  631MOL0     H83239   5.881   2.489   8.661  1.9774 -0.1761 -0.0303
  631MOL0     H83240   5.952   2.343   8.703 -0.9832  1.9575  0.7304
  631MOL0     H83241   5.719   2.365   8.802  1.4134 -2.1739  0.7382
  631MOL0     H83242   5.649   2.375   8.642  1.1097  1.0586  0.1917
  631MOL0     H83243   5.791   2.137   8.770 -0.3606 -1.5152  0.6979
  631MOL0     H83244   5.746   2.148   8.598 -2.9413 -0.5650 -0.9230
  631MOL0     H83245   5.591   1.959   8.851  0.9900 -0.3034 -0.3615
  631MOL0     H83246   5.323   1.892   8.888  3.7009  1.8739  0.8031
  631MOL0     H83247   5.362   1.802   8.738 -2.0395 -0.8202  1.3796
  631MOL0     H83248   5.122   1.809   8.753 -1.1642  1.2203  0.4290
  631MOL0     H83249   5.159   1.925   8.630  1.4636  0.3366  0.1423
  631MOL0     H83250   5.112   1.993   8.923 -1.8029 -0.0280  1.0724
  631MOL0     H83251   5.131   2.113   8.804  2.1390 -1.4112  0.0681
  631MOL0     H83252   4.928   2.033   8.676  1.2919 -1.7152 -0.1577
  631MOL0     H83253   4.883   2.081   8.833  0.3844 -0.2253  0.9490
  631MOL0     H83254   4.754   1.682   8.929 -0.7425  1.1632  1.7395
  631MOL0     H83255   4.517   1.615   8.903  4.0131 -2.2260 -1.1298
  631MOL0     H83256   4.142   1.572   9.090 -0.1464  0.7663  0.3212
  631MOL0     H83257   3.909   1.535   9.140 -0.2605 -2.6167 -1.3398
  631MOL0     H83258   3.692   1.594   9.185 -0.6558 -0.2411 -0.1124
  631MOL0     H83259   3.696   1.442   9.099  0.9398  0.3657  2.6727
  631MOL0     H83260   3.456   1.628   9.118 -1.4900  0.1308 -1.4070
  631MOL0     H83261   3.479   1.472   9.189  0.5583 -1.0722 -1.0272
  631MOL0     H83262   3.531   1.386   8.941  2.0925  2.4417 -3.7648
  631MOL0     H83263   3.471   1.539   8.897  0.8977  0.8786  1.8644
  631MOL0     H83264   3.312   1.348   9.061 -0.1045 -1.6930 -0.3279
  631MOL0     H83265   3.253   1.506   9.022  1.3960 -1.4447  2.3909
  631MOL0     H83266   3.321   1.301   8.807 -4.5937 -4.0567  0.1791
  631MOL0     H83267   3.255   1.466   8.788 -0.7374  0.4076  0.1523
  631MOL0     H83268   3.056   1.393   8.907 -0.2939  0.4950 -0.7777
  631MOL0     H83269   3.136   1.243   8.954  0.8709  3.6336  2.6579
  631MOL0     H83270   3.081   1.326   8.672 -2.6806  0.3244 -0.3376
  631MOL0     H83271   3.149   1.172   8.720  0.6762 -0.3574  2.7876
  631MOL0     H83272   2.861   1.285   8.756 -4.1911 -2.7310  2.1519
  631MOL0     H83273   2.912   1.127   8.826  2.5321 -0.7187 -1.1612
  631MOL0     H83274   3.797   1.741   8.769  1.1766 -1.1844 -1.8477
  631MOL0     H83275   4.025   1.763   8.718 -0.0993 -3.2988 -1.1720
  631MOL0     H83276   4.447   2.007   8.720  1.2493  0.8994  0.1133
  631MOL0     H83277   4.689   2.033   8.694  2.0583 -0.1854  0.3603
  631MOL0     H83278   6.629   2.489   8.574 -1.6857  0.0219  1.1504
  631MOL0     H83279   6.872   2.535   8.628  0.3042  1.1212 -0.1768
  631MOL0     H83280   7.290   2.509   8.788 -1.3974  0.6188 -0.9350
  631MOL0     H83281   7.497   2.587   8.860  0.3181  2.0764 -1.9555
  631MOL0     H83282   7.587   2.904   9.140 -0.6542  3.6335  0.9188
  631MOL0     H83283   7.569   3.030   9.017  0.4524  0.9160  1.2205
  631MOL0     H83284   7.789   2.976   9.107 -1.2374  1.7240 -0.5415
  631MOL0     H83285   7.788   2.815   9.052 -0.4506 -0.5882 -1.3328
  631MOL0     H83286   7.755   3.048   8.872 -1.7228 -0.1231  2.3197
  631MOL0     H83287   7.764   2.886   8.809  1.1847 -1.8658  0.3662
  631MOL0     H83288   8.011   2.873   8.908  1.7984  2.1352  1.0902
  631MOL0     H83289   7.976   2.983   8.776  0.2128 -1.4645 -0.4435
  631MOL0     H83290   8.117   3.248   9.048 -1.7883 -0.1088  0.6894
  631MOL0     H83291   7.322   2.945   9.027 -1.6679 -0.4310  1.4890
  631MOL0     H83292   7.101   2.856   8.966  1.7865  1.7890 -0.2159
  632MOL0     O83293   7.427   9.873   1.870  0.9823 -0.0369 -0.5175
  632MOL0     C83294   7.454   9.804   1.966 -0.2680 -0.9217 -0.7546
  632MOL0     O83295   7.390   9.696   2.027 -0.4672 -0.1820  0.3072
  632MOL0     C83296   7.267   9.674   1.972  0.4704  0.3735 -0.8079
  632MOL0     C83297   7.163   9.753   2.020 -1.0435 -0.1928  0.0735
  632MOL0     C83298   7.037   9.716   1.987  0.5986 -0.5962  0.4368
  632MOL0     C83299   7.006   9.616   1.893  0.1130  0.3545  0.4891
  632MOL0     O83300   6.881   9.572   1.841 -0.0554 -0.3986 -0.4146
  632MOL0     C83301   6.782   9.673   1.858 -0.0838 -0.1497  0.2145
  632MOL0     C83302   6.671   9.641   1.767 -0.2519  0.7588  0.1717
  632MOL0     C83303   6.555   9.734   1.783  0.2791 -0.4826  0.2723
  632MOL0     C83304   6.429   9.672   1.709  0.7824  0.0899  0.2503
  632MOL0     C83305   6.310   9.764   1.718 -0.5287  0.2968  0.1767
  632MOL0     C83306   6.185   9.690   1.654 -0.4384  0.1828 -0.0052
  632MOL0     C83307   6.060   9.777   1.630 -0.4970  0.4891  0.4912
  632MOL0     C83308   5.931   9.697   1.611 -0.6570  1.0518 -0.2987
  632MOL0     N83309   5.817   9.792   1.609  0.0178 -0.3522  0.3310
  632MOL0     C83310   5.703   9.757   1.541  1.1852  0.1430  0.7252
  632MOL0     C83311   5.614   9.856   1.575  0.3538 -0.8273 -0.1907
  632MOL0     C83312   5.478   9.885   1.512 -0.2137 -0.3737  0.0594
  632MOL0     C83313   5.378   9.908   1.617  0.4421  0.0702 -0.6130
  632MOL0     C83314   5.345   9.783   1.689 -0.0416 -0.3377  0.3703
  632MOL0     C83315   5.244   9.795   1.806  0.5408  0.4022  0.8130
  632MOL0     O83316   5.115   9.764   1.748 -0.1213  0.1292  0.3087
  632MOL0     C83317   5.006   9.810   1.809  0.2945 -0.2829  0.3222
  632MOL0     C83318   4.985   9.809   1.950 -0.0064  1.1355 -0.4524
  632MOL0     C83319   4.881   9.869   2.007  0.9037 -0.9280 -0.3591
  632MOL0     C83320   4.765   9.911   1.930  0.1933  0.7135  0.1206
  632MOL0     C83321   4.647   9.972   1.997  0.2279 -0.7782 -0.4300
  632MOL0     O83322   4.648  10.010   2.131 -0.0863  0.2047  0.8240
  632MOL0     C83323   4.540  10.063   2.180  0.4227  0.1083 -0.0219
  632MOL0     C83324   4.440   9.977   2.235 -0.5358  0.1540 -0.2469
  632MOL0     C83325   4.324  10.028   2.294  0.0490  0.1947  0.9358
  632MOL0     C83326   4.299  10.168   2.282  0.1961 -0.2532  0.4960
  632MOL0     O83327   4.178  10.213   2.334 -0.0711 -0.5410 -0.3394
  632MOL0     C83328   4.107  10.323   2.271 -0.1706  0.4510  1.3245
  632MOL0     C83329   4.001  10.360   2.364 -1.1290 -0.0103 -0.9471
  632MOL0     C83330   3.867  10.314   2.334  0.0678 -0.3011  0.0305
  632MOL0     C83331   3.857  10.161   2.332 -0.1652  0.2156  0.4004
  632MOL0     C83332   3.726  10.096   2.340  0.2683  0.7963 -0.3511
  632MOL0     C83333   3.652  10.148   2.465 -0.1274 -0.1301 -0.4450
  632MOL0     C83334   3.524  10.079   2.500  1.0441  0.5255 -0.0375
  632MOL0     C83335   3.421  10.075   2.381 -0.7060  1.0789  0.0315
  632MOL0    Cl83336   3.426   9.938   2.276 -0.0679  0.2021 -0.2692
  632MOL0     C83337   4.402  10.248   2.221  0.2468 -0.6245  0.1397
  632MOL0     C83338   4.516  10.197   2.165 -0.3581 -0.0271  0.2047
  632MOL0     O83339   4.544   9.973   1.927 -0.1206 -0.9775  0.1878
  632MOL0     C83340   4.775   9.899   1.791 -0.3013  0.8132 -0.2023
  632MOL0     C83341   4.897   9.860   1.732  0.0675 -0.2209 -0.7849
  632MOL0     N83342   5.671   9.933   1.679 -0.2495  0.7433 -0.0727
  632MOL0     N83343   5.794   9.897   1.698  0.2843  0.4416 -0.5524
  632MOL0     C83344   7.108   9.536   1.843 -0.5321  0.7059  0.8754
  632MOL0     C83345   7.242   9.560   1.885 -0.2193  0.7829  0.5726
  632MOL0     C83346   7.580   9.836   2.032 -0.1642 -0.3905  0.2562
  632MOL0     C83347   7.601   9.768   2.154 -0.0919 -0.6098 -0.4321
  632MOL0     C83348   7.726   9.795   2.222 -0.4424  0.1802  0.9655
  632MOL0     C83349   7.826   9.877   2.173 -0.8937 -0.3675  0.1854
  632MOL0     O83350   7.929   9.913   2.260 -0.2607  0.4533  0.3725
  632MOL0     C83351   8.063   9.925   2.196  0.1489  0.3905  0.2241
  632MOL0     C83352   8.112   9.782   2.153  0.5229  0.0006 -0.5499
  632MOL0     C83353   8.095   9.676   2.258 -1.0598  0.3579  0.6998
  632MOL0     C83354   8.122   9.534   2.197  0.4579  0.6356  0.7266
  632MOL0     C83355   7.999   9.478   2.147 -0.5019  0.3680 -0.9390
  632MOL0     C83356   7.908   9.428   2.079 -0.7473  0.0548  0.2838
  632MOL0     C83357   7.798   9.939   2.048 -0.2919 -0.9418  0.6906
  632MOL0     C83358   7.675   9.930   1.984  0.2440 -0.6671 -0.0726
  632MOL0     H83359   7.186   9.836   2.087 -1.9332  1.1000 -1.1642
  632MOL0     H83360   6.956   9.775   2.028  0.0531 -0.1401 -1.2094
  632MOL0     H83361   6.822   9.769   1.825 -0.7763 -0.7291 -2.5967
  632MOL0     H83362   6.752   9.691   1.962  2.1173  2.4637  0.5045
  632MOL0     H83363   6.652   9.534   1.782  1.5536  0.5272  1.1544
  632MOL0     H83364   6.710   9.653   1.665 -2.6663 -0.6634 -1.0040
  632MOL0     H83365   6.569   9.837   1.749 -3.1109 -0.8462 -2.8777
  632MOL0     H83366   6.528   9.731   1.889 -1.7267  3.4098  0.0762
  632MOL0     H83367   6.452   9.655   1.603  0.6201 -2.2805  0.5391
  632MOL0     H83368   6.397   9.575   1.748 -2.9310  1.5785  1.3699
  632MOL0     H83369   6.333   9.853   1.658 -2.4212 -0.4520 -1.7842
  632MOL0     H83370   6.289   9.795   1.821  1.2356 -0.7610  0.9003
  632MOL0     H83371   6.181   9.606   1.724  0.5021 -0.9267 -1.2382
  632MOL0     H83372   6.225   9.638   1.566 -1.1386 -0.4694  0.0519
  632MOL0     H83373   6.056   9.830   1.726  1.3308  0.3083  0.7102
  632MOL0     H83374   6.073   9.841   1.543  0.7853 -3.6306 -2.6633
  632MOL0     H83375   5.916   9.625   1.692  0.0957  0.6239 -0.5379
  632MOL0     H83376   5.938   9.639   1.519  1.9238 -0.5108  0.7567
  632MOL0     H83377   5.686   9.697   1.452  0.0699  2.2929 -0.6113
  632MOL0     H83378   5.449   9.801   1.448 -1.7629 -1.6297  2.2696
  632MOL0     H83379   5.477   9.980   1.459 -2.0738  0.7363  1.9568
  632MOL0     H83380   5.284   9.934   1.567 -1.1827 -6.8160 -2.0747
  632MOL0     H83381   5.403   9.982   1.694  0.2292 -0.8079  0.3172
  632MOL0     H83382   5.308   9.706   1.621  1.2271 -0.1126 -0.6335
  632MOL0     H83383   5.437   9.743   1.732  0.3362  0.3730  0.2474
  632MOL0     H83384   5.248   9.897   1.845 -4.1125  0.8221  0.7081
  632MOL0     H83385   5.266   9.727   1.889 -1.8024  1.6354  2.5716
  632MOL0     H83386   5.066   9.771   2.012 -1.3062  1.5944  1.6213
  632MOL0     H83387   4.884   9.886   2.114  0.2803 -0.1959 -0.4513
  632MOL0     H83388   4.463   9.871   2.226  2.3076  0.8396 -5.4078
  632MOL0     H83389   4.253   9.958   2.338 -2.0965 -0.1857 -2.6970
  632MOL0     H83390   4.069  10.276   2.180  0.0616 -1.0508  1.9879
  632MOL0     H83391   4.177  10.407   2.259  0.7243  0.0192  3.1830
  632MOL0     H83392   4.004  10.469   2.370 -0.6573 -0.1148  2.1749
  632MOL0     H83393   4.022  10.316   2.462  0.7835 -1.2165 -1.8447
  632MOL0     H83394   3.832  10.348   2.236 -0.3289 -0.8506 -0.0247
  632MOL0     H83395   3.804  10.360   2.410 -0.3812  3.1672 -2.2043
  632MOL0     H83396   3.912  10.117   2.248 -0.4216 -0.4371  0.5701
  632MOL0     H83397   3.916  10.119   2.414  2.3712  2.7512  0.0165
  632MOL0     H83398   3.742   9.989   2.356 -0.6117  0.4116 -1.8984
  632MOL0     H83399   3.660  10.103   2.253  0.6203  2.0039 -0.5381
  632MOL0     H83400   3.614  10.247   2.440 -0.5290 -0.3491 -0.7174
  632MOL0     H83401   3.716  10.163   2.552 -2.0773  4.0816  0.4900
  632MOL0     H83402   3.536   9.976   2.535  1.0887  0.7229  0.5381
  632MOL0     H83403   3.476  10.141   2.577  1.1357 -1.7400  1.9601
  632MOL0     H83404   3.437  10.165   2.320 -1.2314  0.8388 -0.4706
  632MOL0     H83405   3.320  10.096   2.417 -0.3254  1.4415  0.9073
  632MOL0     H83406   4.391  10.355   2.205 -4.1495 -0.8353  0.3054
  632MOL0     H83407   4.593  10.258   2.119 -1.1567 -0.6494 -2.0685
  632MOL0     H83408   4.693   9.909   1.721 -0.5769 -0.0997 -0.0201
  632MOL0     H83409   4.891   9.863   1.623 -0.1090  3.6643 -0.7870
  632MOL0     H83410   7.088   9.468   1.761 -0.0317  1.8238 -0.1924
  632MOL0     H83411   7.322   9.495   1.850 -0.7674 -1.0625  2.4992
  632MOL0     H83412   7.530   9.702   2.203 -0.4238  0.2981  0.3567
  632MOL0     H83413   7.762   9.748   2.312  0.5210 -0.9194  0.0355
  632MOL0     H83414   8.131   9.954   2.277 -0.4259 -1.8175  1.5725
  632MOL0     H83415   8.068   9.999   2.116  0.4437  0.5740  0.4087
  632MOL0     H83416   8.061   9.750   2.062 -0.9665 -0.6010  0.4625
  632MOL0     H83417   8.219   9.795   2.132  0.4329 -0.7387 -1.5026
  632MOL0     H83418   7.990   9.674   2.288 -1.3146 -0.2502 -0.1853
  632MOL0     H83419   8.159   9.692   2.345 -0.5820  0.8764  0.2571
  632MOL0     H83420   8.207   9.534   2.128  0.3098  2.7430  0.4816
  632MOL0     H83421   8.146   9.467   2.280  1.4320 -0.6732 -0.5740
  632MOL0     H83422   7.832   9.396   2.010  0.0109 -1.6917  0.2019
  632MOL0     H83423   7.868  10.008   2.004 -0.3937 -0.7764  0.7872
  632MOL0     H83424   7.668   9.978   1.887  0.1829  0.0453  0.2808
  633MOL0     O83425   3.336   5.467   7.735  0.6046  0.1089 -0.0509
  633MOL0     C83426   3.300   5.449   7.621 -0.6176 -0.6223  0.1449
  633MOL0     O83427   3.382   5.460   7.509  0.3558 -0.2449  0.2572
  633MOL0     C83428   3.502   5.525   7.521 -1.3514  0.3836  0.0166
  633MOL0     C83429   3.590   5.512   7.628  0.1687 -0.4526  1.0924
  633MOL0     C83430   3.718   5.555   7.615 -0.2076 -0.0847  0.1155
  633MOL0     C83431   3.770   5.617   7.496  0.7330 -0.2003 -0.0286
  633MOL0     O83432   3.900   5.670   7.491 -1.3573  0.2871 -0.5965
  633MOL0     C83433   4.005   5.586   7.562  0.5059  0.2193 -0.4485
  633MOL0     C83434   4.126   5.559   7.470  0.0689 -0.2524 -0.0482
  633MOL0     C83435   4.201   5.427   7.489  0.1777  0.1957 -1.0194
  633MOL0     C83436   4.248   5.414   7.638  0.3517  0.2724 -0.7537
  633MOL0     C83437   4.361   5.303   7.659 -0.4885  0.3681 -0.7074
  633MOL0     C83438   4.319   5.157   7.628 -0.5807 -0.1652  0.0665
  633MOL0     C83439   4.425   5.048   7.672  0.0771 -0.1735  0.4371
  633MOL0     C83440   4.372   4.901   7.639 -0.4284  0.3015 -1.4863
  633MOL0     N83441   4.245   4.874   7.708  0.7185 -0.6741 -0.6370
  633MOL0     C83442   4.225   4.828   7.839 -1.0882  0.7958  0.3730
  633MOL0     C83443   4.110   4.763   7.849  0.0395 -0.1397 -0.2922
  633MOL0     C83444   4.046   4.713   7.979  0.0697  0.1355  0.0577
  633MOL0     C83445   3.893   4.707   7.969  0.2009  0.2424  0.9123
  633MOL0     C83446   3.839   4.651   8.104 -0.9242  0.3890  0.9801
  633MOL0     C83447   3.688   4.616   8.086  0.3915 -0.0693 -0.2067
  633MOL0     O83448   3.606   4.732   8.098  0.0303 -0.0108  0.3260
  633MOL0     C83449   3.464   4.715   8.101 -0.0225 -0.3183 -1.3249
  633MOL0     C83450   3.406   4.726   8.224 -0.4346 -0.6183  0.4059
  633MOL0     C83451   3.271   4.687   8.238 -0.2434  0.5585  0.2922
  633MOL0     C83452   3.191   4.655   8.127 -0.5898  0.3927 -0.2613
  633MOL0     C83453   3.055   4.624   8.144  0.3248  1.1045  0.3745
  633MOL0     O83454   3.024   4.576   8.265 -0.3475 -0.1318 -0.2974
  633MOL0     C83455   2.891   4.549   8.285 -0.3735  0.5518 -0.6206
  633MOL0     C83456   2.833   4.428   8.241 -0.3884 -0.1085  0.5027
  633MOL0     C83457   2.703   4.402   8.264 -0.0173 -0.2689  0.1823
  633MOL0     C83458   2.619   4.488   8.331  1.1801  0.3931 -0.0290
  633MOL0     O83459   2.481   4.456   8.334 -0.1691 -0.0421 -0.1817
  633MOL0     C83460   2.432   4.437   8.472  1.1341  0.9086  0.8366
  633MOL0     C83461   2.283   4.392   8.454  0.1061  0.4938 -0.2605
  633MOL0     C83462   2.211   4.375   8.582  0.3643 -0.3147 -0.2528
  633MOL0     C83463   2.051   4.397   8.552 -0.6416  0.2985 -0.1247
  633MOL0     C83464   1.972   4.401   8.680  1.0307  0.2296 -0.0240
  633MOL0     C83465   1.824   4.369   8.668 -0.4140 -0.1287 -0.4652
  633MOL0     C83466   1.748   4.379   8.796  0.2283 -0.5215  0.4948
  633MOL0     C83467   1.591   4.347   8.781  0.4628 -0.7091 -0.2246
  633MOL0    Cl83468   1.547   4.190   8.747 -0.4667  0.3733 -0.2087
  633MOL0     C83469   2.666   4.612   8.380  0.3879  0.0452 -0.1030
  633MOL0     C83470   2.803   4.641   8.351 -0.1484 -0.5479 -0.0721
  633MOL0     O83471   2.971   4.636   8.049  0.4319 -0.0786  0.3308
  633MOL0     C83472   3.248   4.664   7.998  0.6774 -0.6044 -0.3115
  633MOL0     C83473   3.386   4.677   7.993 -0.7153  0.2362  0.7631
  633MOL0     N83474   4.046   4.792   7.730  0.2071  0.3446 -0.5103
  633MOL0     N83475   4.127   4.854   7.646 -0.3998  0.2099 -0.8346
  633MOL0     C83476   3.679   5.641   7.388 -0.2607 -0.3566 -0.2661
  633MOL0     C83477   3.549   5.591   7.409  0.0621 -0.5472  0.0750
  633MOL0     C83478   3.163   5.401   7.600  0.4578  1.1109 -0.2490
  633MOL0     C83479   3.123   5.343   7.481 -0.1922 -0.9044 -0.2820
  633MOL0     C83480   2.990   5.295   7.465 -0.5887  0.3045 -0.3730
  633MOL0     C83481   2.899   5.293   7.566 -0.3723 -0.0189 -0.3984
  633MOL0     O83482   2.781   5.234   7.530  0.1594 -0.4220  0.4905
  633MOL0     C83483   2.654   5.262   7.587 -0.8562 -1.1626  0.8472
  633MOL0     C83484   2.636   5.155   7.697 -0.8639 -0.0170  0.2681
  633MOL0     C83485   2.510   5.173   7.777  0.3246 -0.1383 -0.3638
  633MOL0     C83486   2.504   5.073   7.896  0.7691 -0.4760 -0.3506
  633MOL0     C83487   2.370   5.021   7.926  0.8645  0.0027 -0.3974
  633MOL0     C83488   2.261   4.982   7.961  0.1502  0.4040 -0.1854
  633MOL0     C83489   2.935   5.356   7.686  0.0354 -0.0906  0.3133
  633MOL0     C83490   3.063   5.414   7.703 -0.4388 -0.5425  0.1673
  633MOL0     H83491   3.572   5.456   7.719  0.4731 -0.6259  1.0484
  633MOL0     H83492   3.783   5.536   7.699 -0.8141  1.5161  0.9944
  633MOL0     H83493   3.957   5.492   7.589 -1.6010  0.6154 -2.5001
  633MOL0     H83494   4.040   5.646   7.646  0.9318 -1.4324  0.5976
  633MOL0     H83495   4.190   5.647   7.459  0.9673 -1.0402 -1.4729
  633MOL0     H83496   4.089   5.553   7.367  0.2287  1.1449 -0.2050
  633MOL0     H83497   4.289   5.416   7.424  0.6697 -0.3341 -0.2856
  633MOL0     H83498   4.120   5.355   7.476 -2.1640  2.3951  0.5005
  633MOL0     H83499   4.281   5.514   7.666 -2.4888  0.8914  0.7313
  633MOL0     H83500   4.170   5.388   7.710  1.0052  1.1120  0.2910
  633MOL0     H83501   4.388   5.309   7.765  0.5416  3.0043 -1.0287
  633MOL0     H83502   4.447   5.324   7.596 -2.0939  1.2158 -2.7477
  633MOL0     H83503   4.307   5.166   7.520  3.9566  0.5297 -0.5904
  633MOL0     H83504   4.227   5.142   7.685  0.3211 -1.8878  1.1632
  633MOL0     H83505   4.523   5.057   7.623 -0.4646  0.0113 -0.6505
  633MOL0     H83506   4.443   5.052   7.780 -0.7592 -1.3660  0.6265
  633MOL0     H83507   4.442   4.829   7.681 -1.8852 -0.2078  0.1979
  633MOL0     H83508   4.365   4.872   7.534 -2.0397 -0.7403 -1.1230
  633MOL0     H83509   4.294   4.840   7.922 -0.8956 -3.0583  0.9472
  633MOL0     H83510   4.074   4.779   8.061  2.3623 -1.4124  0.6393
  633MOL0     H83511   4.088   4.614   7.998 -0.1150  0.1002  0.2831
  633MOL0     H83512   3.867   4.640   7.886  0.5732  1.3353 -0.1169
  633MOL0     H83513   3.852   4.806   7.948  1.8474  0.1770 -3.6305
  633MOL0     H83514   3.900   4.564   8.128 -0.0164 -0.1346 -2.6125
  633MOL0     H83515   3.854   4.731   8.177 -0.0775  2.3729 -1.2764
  633MOL0     H83516   3.678   4.534   8.158  2.2907 -0.5424 -0.4353
  633MOL0     H83517   3.676   4.583   7.983  2.3754  1.8003 -1.1163
  633MOL0     H83518   3.475   4.746   8.306  3.4802  0.3300 -2.7740
  633MOL0     H83519   3.228   4.677   8.337 -0.2162 -1.0441  0.1635
  633MOL0     H83520   2.896   4.349   8.202  2.1711  0.7619  2.5566
  633MOL0     H83521   2.668   4.301   8.247  0.7915 -1.0358  2.7445
  633MOL0     H83522   2.439   4.529   8.531 -0.0396  1.8672 -0.4470
  633MOL0     H83523   2.501   4.361   8.510 -2.6959 -2.0164  2.6005
  633MOL0     H83524   2.295   4.305   8.389  2.5067  0.8407 -0.3838
  633MOL0     H83525   2.234   4.472   8.398 -2.3275 -0.0367  0.9640
  633MOL0     H83526   2.246   4.453   8.650  1.7242 -0.8262 -0.3404
  633MOL0     H83527   2.242   4.279   8.626  0.0221  0.7926  2.6579
  633MOL0     H83528   2.019   4.492   8.507 -3.9011 -0.0062  1.2790
  633MOL0     H83529   2.011   4.321   8.484  0.2085 -1.9251  1.7637
  633MOL0     H83530   1.978   4.498   8.730  0.6741  0.8757 -1.1928
  633MOL0     H83531   2.008   4.320   8.745 -1.0705  1.0656  2.3549
  633MOL0     H83532   1.800   4.270   8.626 -1.7548 -0.0286  0.0289
  633MOL0     H83533   1.790   4.448   8.600 -0.2660  0.6461  0.3549
  633MOL0     H83534   1.794   4.306   8.864  1.2504  0.7006  1.1678
  633MOL0     H83535   1.765   4.475   8.845 -0.5232 -1.3458  2.5040
  633MOL0     H83536   1.546   4.413   8.705 -2.4601 -1.2270  0.9134
  633MOL0     H83537   1.551   4.372   8.879 -1.1416  3.2793 -1.6657
  633MOL0     H83538   2.608   4.687   8.433  0.6047  0.0494  0.1322
  633MOL0     H83539   2.830   4.742   8.380  1.4859 -0.7951 -0.6290
  633MOL0     H83540   3.185   4.635   7.914  0.0897 -0.4592  0.0748
  633MOL0     H83541   3.434   4.662   7.897 -1.4005 -2.4280  0.7728
  633MOL0     H83542   3.716   5.699   7.303 -0.0730  1.5339  1.0371
  633MOL0     H83543   3.480   5.599   7.326 -0.2675 -0.6971  0.3358
  633MOL0     H83544   3.200   5.330   7.404 -1.6539 -1.5232 -1.7004
  633MOL0     H83545   2.958   5.252   7.371  1.8523  0.4507 -1.3574
  633MOL0     H83546   2.577   5.258   7.510 -1.3343  0.7557  1.1766
  633MOL0     H83547   2.659   5.358   7.640 -2.0542 -1.9551  2.4608
  633MOL0     H83548   2.619   5.060   7.645  0.3062 -0.4331  0.6138
  633MOL0     H83549   2.729   5.145   7.754  1.0214 -0.6349 -2.6633
  633MOL0     H83550   2.425   5.171   7.707  0.6328  2.2108 -0.8887
  633MOL0     H83551   2.520   5.274   7.817  4.0540  1.3614 -4.2338
  633MOL0     H83552   2.562   4.982   7.879 -1.0004 -2.2395  2.2644
  633MOL0     H83553   2.548   5.121   7.984 -0.7105 -0.7430  0.5873
  633MOL0     H83554   2.168   4.953   8.005 -1.3535  5.2961  0.4241
  633MOL0     H83555   2.856   5.369   7.759 -0.8183  3.9598 -1.1203
  633MOL0     H83556   3.075   5.470   7.795  0.0860  2.0336 -1.3581
  634MOL0     O83557   5.869  11.096   0.659 -0.1476 -0.3455 -0.7996
  634MOL0     C83558   5.926  11.071   0.554 -0.1396  0.1152 -0.4114
  634MOL0     O83559   5.868  11.065   0.436  0.3549  0.2051  0.6997
  634MOL0     C83560   5.739  11.079   0.431  0.0085 -0.7451 -0.6726
  634MOL0     C83561   5.652  10.965   0.436 -0.8291  0.3957  0.9383
  634MOL0     C83562   5.518  10.982   0.429  0.2935  0.0461  0.7452
  634MOL0     C83563   5.457  11.109   0.423 -0.9275 -0.4449  0.0306
  634MOL0     O83564   5.322  11.134   0.413 -1.0051  0.4797  0.3225
  634MOL0     C83565   5.230  11.021   0.382 -0.8255  0.3719 -0.8000
  634MOL0     C83566   5.079  11.055   0.378  0.0026  0.7077  0.0981
  634MOL0     C83567   5.067  11.179   0.294 -0.0394 -0.1161  0.6851
  634MOL0     C83568   4.932  11.175   0.213 -0.9558 -0.2107 -0.1862
  634MOL0     C83569   4.801  11.232   0.283 -0.7702  0.9030 -0.3310
  634MOL0     C83570   4.687  11.225   0.175 -0.4787  0.6850 -0.0660
  634MOL0     C83571   4.549  11.251   0.229 -0.4501 -0.0312 -0.2197
  634MOL0     C83572   4.497  11.160   0.349 -0.3392  1.1450  0.8951
  634MOL0     N83573   4.365  11.210   0.384  0.9654  0.6049 -0.5869
  634MOL0     C83574   4.314  11.239   0.508  0.2356  0.0159  0.8646
  634MOL0     C83575   4.182  11.268   0.488 -0.0570  0.0059 -0.0637
  634MOL0     C83576   4.086  11.281   0.606 -0.3477  0.6279 -0.2036
  634MOL0     C83577   4.101  11.184   0.712  0.3005  0.6183 -0.3791
  634MOL0     C83578   4.080  11.043   0.671 -0.5395 -1.0005  0.5105
  634MOL0     C83579   3.931  11.012   0.659  0.1519 -0.1869  0.4036
  634MOL0     O83580   3.882  11.019   0.794  0.2905  0.5237 -0.3931
  634MOL0     C83581   3.744  11.022   0.816 -0.6464 -0.2649  1.4621
  634MOL0     C83582   3.700  11.017   0.948  0.1504  0.1820  0.2429
  634MOL0     C83583   3.572  11.029   0.970  0.3426 -0.4381 -0.2380
  634MOL0     C83584   3.480  11.049   0.865 -0.1681  0.2411 -0.1244
  634MOL0     C83585   3.335  11.056   0.896 -0.0141  0.5504 -0.4309
  634MOL0     O83586   3.302  11.069   1.030 -0.2462 -0.2868 -0.4474
  634MOL0     C83587   3.167  11.080   1.068 -0.1882  0.6109  0.2953
  634MOL0     C83588   3.100  10.961   1.093 -0.3011  0.4396  0.2491
  634MOL0     C83589   2.960  10.969   1.132  0.3432  0.0823  0.6803
  634MOL0     C83590   2.895  11.097   1.156  0.0553  0.5639  0.3064
  634MOL0     O83591   2.763  11.119   1.194  0.5023 -0.5555  0.3217
  634MOL0     C83592   2.666  11.012   1.188 -0.1409  0.4754  0.2054
  634MOL0     C83593   2.544  11.032   1.280  0.2796 -0.8573 -0.7188
  634MOL0     C83594   2.439  10.929   1.262  0.5890 -0.3371 -0.0153
  634MOL0     C83595   2.335  10.924   1.377  0.3596  0.4575  0.3533
  634MOL0     C83596   2.392  10.866   1.500  1.0008  0.7014 -0.2938
  634MOL0     C83597   2.290  10.885   1.610  0.9820 -0.4220  0.2299
  634MOL0     C83598   2.169  10.795   1.592  0.3712  0.9797  0.0445
  634MOL0     C83599   2.056  10.818   1.682 -0.3385  0.4580  0.1887
  634MOL0    Cl83600   2.014  10.990   1.724  0.2056 -0.2098 -0.3928
  634MOL0     C83601   2.975  11.210   1.138 -0.6117  1.0905 -0.0028
  634MOL0     C83602   3.109  11.201   1.089  0.0811  0.1774  0.2445
  634MOL0     O83603   3.252  11.052   0.806 -0.1881  1.1020  0.5435
  634MOL0     C83604   3.519  11.060   0.731  0.2735  0.1654 -1.3115
  634MOL0     C83605   3.654  11.039   0.706  0.3364 -0.4585 -0.2483
  634MOL0     N83606   4.153  11.263   0.352 -0.2199 -0.2548 -0.3004
  634MOL0     N83607   4.266  11.244   0.292 -0.4101  0.1719  0.1533
  634MOL0     C83608   5.542  11.224   0.416  0.1709 -0.1889 -0.4121
  634MOL0     C83609   5.681  11.207   0.431 -0.0984 -1.2633  0.3804
  634MOL0     C83610   6.075  11.068   0.544  0.4077  0.6299  0.8748
  634MOL0     C83611   6.139  11.048   0.422  0.8289  0.0972  0.9284
  634MOL0     C83612   6.272  11.070   0.413 -0.3577 -0.2758 -0.0065
  634MOL0     C83613   6.353  11.091   0.525  0.4360 -0.2374 -0.6646
  634MOL0     O83614   6.482  11.123   0.535  0.3162 -0.0267 -0.5015
  634MOL0     C83615   6.566  11.110   0.416  0.4963  0.4606  0.5223
  634MOL0     C83616   6.655  11.226   0.381 -0.6372  0.3830  0.1804
  634MOL0     C83617   6.755  11.201   0.266  0.8175 -0.9282  0.0828
  634MOL0     C83618   6.830  11.329   0.229  0.4388 -0.0978  0.0340
  634MOL0     C83619   6.956  11.283   0.152  0.1446 -0.4275 -0.0753
  634MOL0     C83620   7.057  11.235   0.099  0.0875 -0.3285 -0.3768
  634MOL0     C83621   6.291  11.099   0.649 -0.3568  0.4793 -0.2076
  634MOL0     C83622   6.150  11.077   0.667 -0.0826 -0.0173  0.1709
  634MOL0     H83623   5.684  10.861   0.429 -1.2339  0.3871 -3.4037
  634MOL0     H83624   5.471  10.885   0.440 -2.6097  0.8181 -2.9909
  634MOL0     H83625   5.239  10.947   0.462  0.9837 -0.0804 -1.3566
  634MOL0     H83626   5.254  10.977   0.285  1.7860  1.0314 -0.5361
  634MOL0     H83627   5.047  11.080   0.479  4.7425 -2.1155  2.6710
  634MOL0     H83628   5.023  10.976   0.326  0.7045  0.9474 -1.0734
  634MOL0     H83629   5.148  11.182   0.221  0.6641 -0.4970  1.4345
  634MOL0     H83630   5.070  11.272   0.351 -4.6236 -1.7835  4.2865
  634MOL0     H83631   4.946  11.232   0.120 -0.9817 -0.0407 -0.0879
  634MOL0     H83632   4.913  11.074   0.176  3.1140 -1.5549  0.8455
  634MOL0     H83633   4.810  11.334   0.321 -1.5395  1.3900 -1.4275
  634MOL0     H83634   4.768  11.170   0.367  0.4506 -0.0714 -0.5323
  634MOL0     H83635   4.698  11.136   0.111 -2.4424  1.0843 -1.0384
  634MOL0     H83636   4.720  11.300   0.103  0.2805  0.4321  0.0066
  634MOL0     H83637   4.543  11.355   0.263  0.7801  0.6841 -2.0694
  634MOL0     H83638   4.482  11.242   0.143 -0.6943 -0.6421  0.0266
  634MOL0     H83639   4.555  11.155   0.441  1.3133 -2.8464 -0.1725
  634MOL0     H83640   4.484  11.060   0.306  1.0155  1.5034 -0.3942
  634MOL0     H83641   4.379  11.237   0.594 -0.2958  0.6074  1.2878
  634MOL0     H83642   3.984  11.270   0.567 -0.5507 -1.4780  0.7789
  634MOL0     H83643   4.085  11.383   0.644  0.3650  0.9805 -1.1105
  634MOL0     H83644   4.041  11.220   0.796  0.4383  0.3974 -0.1856
  634MOL0     H83645   4.206  11.189   0.742  0.3122  1.7793 -0.5445
  634MOL0     H83646   4.125  11.016   0.575  1.5525  2.4023  0.3792
  634MOL0     H83647   4.133  10.980   0.743  0.5645  0.1536  0.7382
  634MOL0     H83648   3.911  10.913   0.616  0.0620  0.5976 -1.4336
  634MOL0     H83649   3.881  11.083   0.593  1.7366  0.4873 -0.1127
  634MOL0     H83650   3.766  11.001   1.033  0.1398 -0.9319  0.0657
  634MOL0     H83651   3.536  11.024   1.072 -3.3557 -0.3397 -1.4079
  634MOL0     H83652   3.146  10.864   1.082  0.7063  1.0775 -1.3107
  634MOL0     H83653   2.913  10.871   1.137 -1.6119  0.8458 -1.1405
  634MOL0     H83654   2.715  10.920   1.221  6.3210  2.7792 -1.4650
  634MOL0     H83655   2.634  11.009   1.083 -2.2820  2.4804  0.7016
  634MOL0     H83656   2.489  11.126   1.269  1.1958  0.3421  3.4176
  634MOL0     H83657   2.583  11.042   1.382 -0.2376 -1.5633 -0.4454
  634MOL0     H83658   2.495  10.835   1.263  1.6977  0.3139  1.3025
  634MOL0     H83659   2.389  10.949   1.166  1.2928 -1.0762 -0.5378
  634MOL0     H83660   2.298  11.026   1.382  0.5637  0.5046  0.9042
  634MOL0     H83661   2.258  10.860   1.331  0.7150  1.3017 -1.4885
  634MOL0     H83662   2.484  10.916   1.529  1.1663 -0.2599  0.8821
  634MOL0     H83663   2.429  10.764   1.494  1.6981  0.7849  1.9064
  634MOL0     H83664   2.260  10.989   1.597  1.6563 -0.4527 -2.0135
  634MOL0     H83665   2.333  10.864   1.709  0.9057  3.1007  1.1232
  634MOL0     H83666   2.118  10.814   1.497  0.2734 -1.3052 -0.4176
  634MOL0     H83667   2.213  10.694   1.594 -0.0968  0.7074 -1.5282
  634MOL0     H83668   2.094  10.796   1.782 -1.9540  2.9736  1.4676
  634MOL0     H83669   1.974  10.750   1.658  0.6745 -0.9826  0.6620
  634MOL0     H83670   2.929  11.307   1.155  0.2864  1.4562  0.4112
  634MOL0     H83671   3.178  11.285   1.093 -1.4261  1.4331  1.0919
  634MOL0     H83672   3.452  11.080   0.649  0.1976 -0.8687 -1.5153
  634MOL0     H83673   3.688  11.032   0.604  1.0894  2.6728 -0.3309
  634MOL0     H83674   5.497  11.323   0.410 -0.7128 -0.5761 -0.3142
  634MOL0     H83675   5.755  11.286   0.440 -1.5369  0.0578  1.3122
  634MOL0     H83676   6.087  11.041   0.327  1.7277 -2.8170  0.5445
  634MOL0     H83677   6.305  11.081   0.310 -1.9229  1.4100 -0.3802
  634MOL0     H83678   6.510  11.086   0.324 -1.6035 -0.7918  2.0480
  634MOL0     H83679   6.634  11.027   0.433  1.8383  0.6571 -3.0297
  634MOL0     H83680   6.601  11.317   0.352  1.8881  2.5053  1.6596
  634MOL0     H83681   6.713  11.245   0.472  0.9516 -1.6246 -0.3248
  634MOL0     H83682   6.710  11.153   0.179 -0.7933 -2.1812  1.5289
  634MOL0     H83683   6.827  11.131   0.309 -1.5601 -1.9009  2.8163
  634MOL0     H83684   6.773  11.398   0.166  0.8460 -0.6335 -0.9408
  634MOL0     H83685   6.861  11.373   0.324  2.1265  1.6849 -1.2687
  634MOL0     H83686   7.153  11.212   0.056  0.4030  1.4594 -0.7227
  634MOL0     H83687   6.341  11.118   0.743 -2.5571 -1.3558  1.4340
  634MOL0     H83688   6.100  11.078   0.763 -0.7160 -0.4165 -0.1414
  635MOL0     O83689   4.879   3.127   2.920  0.1767  0.6187  0.3088
  635MOL0     C83690   4.915   3.204   2.830 -0.0672  0.5774 -0.1809
  635MOL0     O83691   4.851   3.218   2.712 -0.6346 -1.0351  0.0646
  635MOL0     C83692   4.751   3.132   2.678 -0.0434  0.5454  0.6559
  635MOL0     C83693   4.765   3.055   2.559 -0.7302  0.6106  0.2908
  635MOL0     C83694   4.648   2.992   2.509  0.0002 -0.3438 -0.0881
  635MOL0     C83695   4.520   3.000   2.566 -0.5164 -0.0553  0.2509
  635MOL0     O83696   4.407   2.934   2.501 -0.6113  0.7598 -0.2734
  635MOL0     C83697   4.404   2.940   2.359 -0.3810  0.0162  0.5801
  635MOL0     C83698   4.368   2.807   2.291 -0.4065  0.6814 -0.0585
  635MOL0     C83699   4.476   2.709   2.315 -0.9115  1.0962 -0.9808
  635MOL0     C83700   4.430   2.577   2.256 -0.2161  0.6562  0.0966
  635MOL0     C83701   4.520   2.460   2.274 -0.7048  0.2091  1.1874
  635MOL0     C83702   4.465   2.347   2.183  0.5405 -0.1584  0.2178
  635MOL0     C83703   4.557   2.227   2.180  0.0577  0.1734  0.5660
  635MOL0     C83704   4.501   2.116   2.099 -0.4804 -0.0844  0.1633
  635MOL0     N83705   4.379   2.057   2.149 -0.6943 -0.4548 -0.3749
  635MOL0     C83706   4.371   1.941   2.229  0.0935 -0.3523  0.4904
  635MOL0     C83707   4.243   1.911   2.241 -0.1788  0.7065  0.7132
  635MOL0     C83708   4.169   1.792   2.307 -0.7896 -0.7952  0.4837
  635MOL0     C83709   4.054   1.731   2.219 -0.5420  0.0053 -0.0355
  635MOL0     C83710   4.115   1.667   2.095  0.0529 -0.5348  0.6641
  635MOL0     C83711   4.015   1.590   2.016 -0.1105 -0.1722 -0.1299
  635MOL0     O83712   3.982   1.470   2.083 -0.2332  0.3095 -0.3043
  635MOL0     C83713   3.860   1.465   2.130  0.7594  0.2955 -0.2138
  635MOL0     C83714   3.787   1.575   2.183  0.3119  0.2571 -0.4458
  635MOL0     C83715   3.665   1.562   2.253  0.1359  0.6081  0.4374
  635MOL0     C83716   3.613   1.436   2.261 -0.1929  0.2771 -0.0684
  635MOL0     C83717   3.482   1.418   2.320 -0.0627  0.3449  0.1596
  635MOL0     O83718   3.463   1.298   2.369  0.9006  0.2740  0.3066
  635MOL0     C83719   3.345   1.233   2.406 -0.1829 -0.5377 -0.3828
  635MOL0     C83720   3.243   1.294   2.476  0.4062  0.5667  0.5409
  635MOL0     C83721   3.139   1.227   2.531  0.6125 -0.4417 -0.6483
  635MOL0     C83722   3.120   1.095   2.497  0.5435  0.4832  1.0870
  635MOL0     O83723   3.012   1.042   2.557  1.4054 -0.3541 -0.2393
  635MOL0     C83724   2.994   0.899   2.539  0.8612 -0.0688  0.0809
  635MOL0     C83725   2.861   0.859   2.594 -1.2043 -0.4147  0.6874
  635MOL0     C83726   2.831   0.889   2.736  0.2267 -0.3357  0.2677
  635MOL0     C83727   2.701   0.823   2.775 -0.1681  0.5986 -0.0135
  635MOL0     C83728   2.639   0.876   2.911  0.3501  0.2129  0.4431
  635MOL0     C83729   2.505   0.821   2.941 -0.3389 -0.0732 -0.6953
  635MOL0     C83730   2.535   0.672   2.983 -0.3896 -0.2073 -0.2926
  635MOL0     C83731   2.401   0.603   2.989 -0.1675  0.2912  0.4399
  635MOL0    Cl83732   2.308   0.663   3.138  0.4446  0.0281  0.0426
  635MOL0     C83733   3.221   1.027   2.425 -0.0921  0.6489 -0.7834
  635MOL0     C83734   3.334   1.094   2.384  0.2795 -0.1826 -0.0562
  635MOL0     O83735   3.402   1.509   2.329 -0.1829  0.0965 -0.5703
  635MOL0     C83736   3.688   1.321   2.215 -0.0198 -0.7185 -0.8458
  635MOL0     C83737   3.802   1.335   2.142  0.1501  1.2060 -0.8118
  635MOL0     N83738   4.173   2.008   2.176 -0.3341  0.2082  0.9224
  635MOL0     N83739   4.249   2.090   2.125 -0.5741  0.4710  0.1062
  635MOL0     C83740   4.512   3.066   2.692 -0.2513 -0.2544  0.7329
  635MOL0     C83741   4.620   3.135   2.739 -0.3631  1.5351 -0.3649
  635MOL0     C83742   5.028   3.294   2.861 -0.2265  0.7493 -0.0428
  635MOL0     C83743   5.050   3.404   2.774  0.8734 -0.0501 -0.4077
  635MOL0     C83744   5.159   3.488   2.791  0.7625 -0.1116  0.1048
  635MOL0     C83745   5.253   3.477   2.898 -0.0469 -0.3129  0.7580
  635MOL0     O83746   5.353   3.574   2.897 -0.2459 -0.0109  0.0555
  635MOL0     C83747   5.447   3.579   3.011  0.7774 -0.7253 -0.4950
  635MOL0     C83748   5.564   3.483   2.988  0.2193  0.6127 -0.1241
  635MOL0     C83749   5.667   3.485   3.102  0.2910  0.1591  0.5592
  635MOL0     C83750   5.797   3.552   3.057 -0.0901  0.3598  0.8203
  635MOL0     C83751   5.891   3.452   3.012  0.0305  0.0991 -0.6119
  635MOL0     C83752   5.980   3.383   2.963  0.3603 -0.7256 -0.3008
  635MOL0     C83753   5.215   3.380   2.998 -1.6453 -0.0808  0.2155
  635MOL0     C83754   5.110   3.292   2.974  0.2428 -0.1602  0.1715
  635MOL0     H83755   4.856   3.042   2.502 -1.5229 -2.4326 -0.4776
  635MOL0     H83756   4.659   2.922   2.427 -2.1105 -1.6344  0.6316
  635MOL0     H83757   4.500   2.972   2.318 -0.8723  1.6696  0.6355
  635MOL0     H83758   4.340   3.020   2.320  0.6227  0.1537 -0.8578
  635MOL0     H83759   4.364   2.823   2.183  1.9104 -1.6278 -0.5721
  635MOL0     H83760   4.279   2.756   2.329 -0.2979  1.4721  1.3194
  635MOL0     H83761   4.485   2.696   2.423  0.7169  3.3250 -0.7813
  635MOL0     H83762   4.573   2.744   2.279  0.7820 -0.3898  1.7744
  635MOL0     H83763   4.336   2.537   2.297 -0.4976 -0.0111 -1.1480
  635MOL0     H83764   4.400   2.600   2.153 -0.3811  1.3323  0.2880
  635MOL0     H83765   4.542   2.434   2.378 -1.2612 -1.1759  0.9862
  635MOL0     H83766   4.615   2.487   2.227 -1.1591 -0.2426 -0.0361
  635MOL0     H83767   4.439   2.379   2.081  0.3679 -1.2024 -0.0756
  635MOL0     H83768   4.369   2.311   2.221 -0.3838  1.7497 -0.1682
  635MOL0     H83769   4.657   2.253   2.145 -0.2796  1.3080  0.4132
  635MOL0     H83770   4.568   2.191   2.283 -3.2527  0.0767  0.9887
  635MOL0     H83771   4.567   2.029   2.091 -0.3886  0.1740 -2.6104
  635MOL0     H83772   4.476   2.155   2.000 -2.7333 -0.6874  0.4509
  635MOL0     H83773   4.455   1.880   2.262 -0.8305 -2.9535 -1.6092
  635MOL0     H83774   4.122   1.833   2.397 -1.7185  0.0975 -0.3882
  635MOL0     H83775   4.234   1.709   2.337 -1.4202 -1.3590  0.3334
  635MOL0     H83776   3.978   1.804   2.187 -2.9883 -1.7514  1.4349
  635MOL0     H83777   4.013   1.655   2.286  1.5240 -1.8191 -0.7471
  635MOL0     H83778   4.155   1.743   2.026  0.5424  0.2903  1.8264
  635MOL0     H83779   4.195   1.596   2.118 -0.0461 -0.1169  2.4604
  635MOL0     H83780   4.065   1.557   1.925 -2.0227  0.7905 -1.5970
  635MOL0     H83781   3.933   1.652   1.979  0.0027  0.7334  1.0703
  635MOL0     H83782   3.806   1.681   2.166  0.2982  0.1121 -1.4159
  635MOL0     H83783   3.620   1.652   2.293  0.7479  1.1669 -0.1039
  635MOL0     H83784   3.261   1.400   2.494 -1.9364  1.5503 -2.1754
  635MOL0     H83785   3.078   1.292   2.593  0.9577 -1.1735  0.4832
  635MOL0     H83786   3.070   0.835   2.583  1.5248 -0.1852 -1.1889
  635MOL0     H83787   2.992   0.890   2.430  2.2255  1.1110 -0.0662
  635MOL0     H83788   2.850   0.752   2.576 -1.2003  0.0333 -2.4012
  635MOL0     H83789   2.799   0.917   2.525  0.1549  0.3891  0.0980
  635MOL0     H83790   2.822   0.997   2.748 -1.2513 -0.4655  0.4578
  635MOL0     H83791   2.908   0.856   2.807  0.1497 -1.0435  0.0366
  635MOL0     H83792   2.623   0.844   2.702 -0.0136  2.9225  0.4281
  635MOL0     H83793   2.717   0.715   2.767  0.2926  0.6810 -0.2506
  635MOL0     H83794   2.625   0.983   2.898  3.1304  0.6989  0.9694
  635MOL0     H83795   2.698   0.856   3.001 -0.3847  1.0902  1.1457
  635MOL0     H83796   2.446   0.834   2.850  0.8919  1.4622 -1.3270
  635MOL0     H83797   2.458   0.884   3.017  0.3312 -0.9322  0.4774
  635MOL0     H83798   2.597   0.617   2.911 -0.3467  0.6865 -0.9564
  635MOL0     H83799   2.584   0.655   3.079 -0.4954 -1.6493 -0.4593
  635MOL0     H83800   2.421   0.495   2.994 -2.5439 -0.3124 -1.2427
  635MOL0     H83801   2.342   0.629   2.901  1.2589 -1.2235 -1.0322
  635MOL0     H83802   3.210   0.920   2.410  2.1514 -0.0818  1.8799
  635MOL0     H83803   3.419   1.031   2.359  1.8348  0.9641  2.0003
  635MOL0     H83804   3.636   1.225   2.215 -2.3348  0.4497 -1.3496
  635MOL0     H83805   3.849   1.246   2.102 -0.9365  0.8796 -1.3745
  635MOL0     H83806   4.419   3.072   2.748  0.0312  1.6775  1.0773
  635MOL0     H83807   4.608   3.180   2.837 -1.3030 -1.5329  1.0577
  635MOL0     H83808   4.977   3.422   2.696  1.2583 -1.3234 -1.0882
  635MOL0     H83809   5.182   3.564   2.717  0.9452 -1.1023 -0.8856
  635MOL0     H83810   5.399   3.565   3.108 -0.0937  1.5106 -0.5381
  635MOL0     H83811   5.495   3.676   3.026 -0.2667 -0.5126  1.9483
  635MOL0     H83812   5.530   3.379   2.983  0.5433  0.5569 -2.8067
  635MOL0     H83813   5.597   3.509   2.887 -2.8829 -0.7726 -1.6473
  635MOL0     H83814   5.680   3.383   3.140  0.7521 -0.0120 -0.0296
  635MOL0     H83815   5.625   3.556   3.173  2.5828  2.0139  0.1896
  635MOL0     H83816   5.770   3.619   2.976 -1.2137 -0.6039  0.3644
  635MOL0     H83817   5.843   3.610   3.138 -1.2875 -1.3156  2.8332
  635MOL0     H83818   6.060   3.327   2.919 -0.8231 -1.6122 -1.3790
  635MOL0     H83819   5.281   3.356   3.080  2.2065 -0.7640 -2.7737
  635MOL0     H83820   5.080   3.215   3.044 -0.3451  0.2771  0.4170
  636MOL0     O83821  10.795   7.371   3.889  0.4621 -0.9833  0.2135
  636MOL0     C83822  10.829   7.387   3.773  0.0879  0.0762 -0.8349
  636MOL0     O83823  10.755   7.358   3.664 -0.1524  0.0385 -0.4450
  636MOL0     C83824  10.618   7.345   3.676 -0.6426  0.5370 -1.2738
  636MOL0     C83825  10.534   7.407   3.774 -0.8784 -0.2698 -1.2903
  636MOL0     C83826  10.399   7.376   3.777 -0.1048  0.1265  0.3342
  636MOL0     C83827  10.344   7.295   3.681 -0.0397 -0.3272  0.4919
  636MOL0     O83828  10.219   7.245   3.689  0.0338 -0.3563  0.2402
  636MOL0     C83829  10.119   7.358   3.691  0.1815 -0.9492  0.5318
  636MOL0     C83830   9.965   7.311   3.684 -0.1562  0.1678 -0.0660
  636MOL0     C83831   9.946   7.255   3.544 -0.4174  0.6217 -1.3114
  636MOL0     C83832   9.803   7.201   3.546  0.1865  0.2978  0.1596
  636MOL0     C83833   9.695   7.309   3.532 -0.7239 -0.2786 -0.4091
  636MOL0     C83834   9.558   7.244   3.512  0.1737  0.4300 -0.1194
  636MOL0     C83835   9.472   7.338   3.426 -0.3066 -0.2549 -0.0471
  636MOL0     C83836   9.336   7.278   3.401 -0.4030  0.7792 -0.4034
  636MOL0     N83837   9.239   7.370   3.332  0.5644  1.0750 -0.1970
  636MOL0     C83838   9.154   7.333   3.228 -0.4802 -0.1056 -0.3036
  636MOL0     C83839   9.060   7.431   3.219 -0.1873  0.0667 -0.9969
  636MOL0     C83840   8.949   7.434   3.127  0.5776 -0.5667  0.2961
  636MOL0     C83841   8.820   7.388   3.203 -0.1383 -0.2714 -0.1863
  636MOL0     C83842   8.746   7.506   3.275 -0.7489  0.5888  0.4423
  636MOL0     C83843   8.679   7.609   3.178  0.8250 -0.3893  0.3444
  636MOL0     O83844   8.565   7.543   3.122 -0.0281  0.4572 -0.7148
  636MOL0     C83845   8.437   7.567   3.181 -0.5354  1.2569 -0.7873
  636MOL0     C83846   8.409   7.603   3.313 -0.3462 -0.6813  0.5745
  636MOL0     C83847   8.274   7.609   3.361 -0.1902  0.1110 -0.2871
  636MOL0     C83848   8.169   7.569   3.269 -1.1529 -0.4573 -0.3642
  636MOL0     C83849   8.026   7.590   3.305 -0.8635  0.3399  1.4186
  636MOL0     O83850   7.988   7.555   3.430 -0.4824 -0.4697  0.0420
  636MOL0     C83851   7.856   7.579   3.461 -0.3146 -0.7583 -0.5387
  636MOL0     C83852   7.819   7.713   3.498 -0.3646 -0.2417  0.7551
  636MOL0     C83853   7.686   7.746   3.520 -1.2037 -0.4642  0.5266
  636MOL0     C83854   7.597   7.638   3.511 -0.4654 -0.1089 -0.2017
  636MOL0     O83855   7.467   7.663   3.539  0.5375 -0.2473  0.6556
  636MOL0     C83856   7.378   7.647   3.425 -0.0081  0.5414  0.1658
  636MOL0     C83857   7.224   7.653   3.470 -0.6387 -0.3637 -0.0955
  636MOL0     C83858   7.197   7.807   3.497 -1.1825 -0.1238  0.7618
  636MOL0     C83859   7.051   7.843   3.541  0.2109 -1.1370  0.3318
  636MOL0     C83860   7.036   8.000   3.566  0.2480 -0.2152 -0.2129
  636MOL0     C83861   7.042   8.079   3.430  0.2718  0.8831 -0.1206
  636MOL0     C83862   6.971   8.216   3.461 -0.3098 -0.2612 -1.0007
  636MOL0     C83863   6.938   8.302   3.336  0.4027  0.1880  0.3716
  636MOL0    Cl83864   7.072   8.285   3.224 -0.2657  0.2137 -0.3052
  636MOL0     C83865   7.631   7.505   3.484  0.3879 -0.1417 -0.2291
  636MOL0     C83866   7.760   7.475   3.449  0.1768 -0.3749 -0.2470
  636MOL0     O83867   7.950   7.617   3.211  0.0478  0.5810  0.0524
  636MOL0     C83868   8.205   7.529   3.146 -0.3464 -0.6073  0.0734
  636MOL0     C83869   8.335   7.524   3.100  0.3536  0.2041 -0.7903
  636MOL0     N83870   9.092   7.526   3.314  0.7344 -0.0671  0.4110
  636MOL0     N83871   9.197   7.489   3.382  0.9926 -0.4727  0.2714
  636MOL0     C83872  10.418   7.229   3.583 -0.6589 -0.4303 -0.5826
  636MOL0     C83873  10.558   7.271   3.580  0.6347  0.9097  0.2904
  636MOL0     C83874  10.964   7.442   3.752 -0.0528 -0.7331  0.2885
  636MOL0     C83875  11.022   7.473   3.628  0.1685 -1.1157  0.0323
  636MOL0     C83876  11.149   7.530   3.624  0.5675 -0.0524 -0.5774
  636MOL0     C83877  11.228   7.570   3.740  0.2209  0.3379 -0.3002
  636MOL0     O83878  11.354   7.618   3.741  0.2865 -0.2973 -1.0269
  636MOL0     C83879  11.440   7.594   3.635 -0.5371 -0.1430  0.2181
  636MOL0     C83880  11.497   7.451   3.632  0.1614  0.1601 -0.5679
  636MOL0     C83881  11.539   7.395   3.771  0.3665  0.7869  0.3765
  636MOL0     C83882  11.588   7.248   3.751 -0.4092 -0.2827 -0.0087
  636MOL0     C83883  11.562   7.177   3.876 -0.0954  0.7634 -0.4301
  636MOL0     C83884  11.580   7.130   3.985 -0.8276 -0.1195 -0.2141
  636MOL0     C83885  11.170   7.529   3.867  0.6618 -1.1874 -0.2258
  636MOL0     C83886  11.041   7.465   3.872 -0.1000 -0.3631 -0.0650
  636MOL0     H83887  10.574   7.475   3.848  0.7945 -2.2306 -0.2864
  636MOL0     H83888  10.355   7.415   3.868  1.9553  2.2955  0.5026
  636MOL0     H83889  10.140   7.416   3.601  1.2959 -2.0312  0.0644
  636MOL0     H83890  10.140   7.421   3.778 -1.4216  0.3886  0.0054
  636MOL0     H83891   9.898   7.393   3.710 -0.5080 -0.8744  2.7280
  636MOL0     H83892   9.957   7.237   3.764  0.8613  1.6505  1.4847
  636MOL0     H83893  10.023   7.179   3.529 -0.6946  0.1507 -0.3785
  636MOL0     H83894   9.957   7.332   3.467  2.2075  0.8245 -0.8162
  636MOL0     H83895   9.799   7.132   3.461  1.4936 -0.5039  0.7073
  636MOL0     H83896   9.788   7.138   3.634  0.9551  0.6669  0.5648
  636MOL0     H83897   9.721   7.378   3.451 -2.5797  0.7170 -0.1929
  636MOL0     H83898   9.694   7.378   3.616  0.5704  0.3198 -0.8628
  636MOL0     H83899   9.511   7.230   3.609  2.0922  0.4849  0.8684
  636MOL0     H83900   9.558   7.146   3.463 -4.5369  0.7904 -1.2692
  636MOL0     H83901   9.458   7.435   3.475 -0.1488 -0.5397  0.5664
  636MOL0     H83902   9.509   7.356   3.325 -2.5607  3.1920 -0.4542
  636MOL0     H83903   9.301   7.237   3.497  1.5445 -1.0386 -0.4013
  636MOL0     H83904   9.350   7.193   3.334  0.3409 -0.0831  0.8124
  636MOL0     H83905   9.162   7.237   3.178  0.5504 -0.9222  1.3465
  636MOL0     H83906   8.978   7.369   3.045  0.7098  1.3080 -1.2337
  636MOL0     H83907   8.937   7.535   3.087 -0.6550  1.2778  4.6399
  636MOL0     H83908   8.852   7.307   3.269  0.4159 -0.1639 -0.3166
  636MOL0     H83909   8.760   7.346   3.122  0.3388  0.5224 -0.9640
  636MOL0     H83910   8.674   7.475   3.352  0.3467  1.0459  1.6942
  636MOL0     H83911   8.825   7.563   3.324  1.3272 -0.4575 -1.5341
  636MOL0     H83912   8.747   7.641   3.099  1.3630  1.1391  1.3844
  636MOL0     H83913   8.662   7.701   3.235  1.7485 -0.2649  0.4320
  636MOL0     H83914   8.487   7.637   3.381 -1.2732  0.2294  1.2144
  636MOL0     H83915   8.254   7.655   3.458  4.2910 -0.4254  1.1364
  636MOL0     H83916   7.895   7.790   3.507 -0.3045 -0.4586  2.1854
  636MOL0     H83917   7.648   7.843   3.552 -1.3832 -0.7719  1.2772
  636MOL0     H83918   7.411   7.562   3.366 -1.0857  0.6964 -0.6876
  636MOL0     H83919   7.384   7.740   3.368  0.9283  2.0482  2.5625
  636MOL0     H83920   7.196   7.597   3.560  0.4664 -1.2499 -0.2853
  636MOL0     H83921   7.159   7.624   3.387 -1.1436  2.0426 -0.6260
  636MOL0     H83922   7.202   7.840   3.393  0.0242 -0.6123  0.6446
  636MOL0     H83923   7.272   7.850   3.565  0.5999 -1.3622 -0.3332
  636MOL0     H83924   6.970   7.814   3.473 -0.2775 -1.1615  0.9147
  636MOL0     H83925   7.030   7.798   3.638 -2.9396 -0.5901  0.0299
  636MOL0     H83926   7.123   8.030   3.625  0.2349  0.3076 -0.4512
  636MOL0     H83927   6.940   8.020   3.617 -0.3301  2.3487 -2.1011
  636MOL0     H83928   6.988   8.029   3.349 -0.4940  1.8432 -0.2185
  636MOL0     H83929   7.145   8.093   3.395  0.1045 -2.6174 -2.5759
  636MOL0     H83930   6.876   8.201   3.513  0.8614 -1.1377  1.0074
  636MOL0     H83931   7.037   8.268   3.531 -0.6346 -2.3315  0.9528
  636MOL0     H83932   6.925   8.408   3.357 -1.5732  0.1503 -0.4283
  636MOL0     H83933   6.840   8.263   3.308  0.3513 -0.5530  1.5104
  636MOL0     H83934   7.552   7.432   3.498 -0.3768  0.4836 -1.1840
  636MOL0     H83935   7.769   7.369   3.427  0.7606 -0.2392 -0.6763
  636MOL0     H83936   8.135   7.495   3.070 -0.9092 -0.9747  0.7466
  636MOL0     H83937   8.353   7.485   3.000 -3.5494 -1.6311 -0.9641
  636MOL0     H83938  10.379   7.155   3.514  0.7233 -0.8417 -0.9565
  636MOL0     H83939  10.621   7.231   3.500  2.3126 -0.0084  1.9941
  636MOL0     H83940  10.965   7.454   3.537 -1.9606  1.8221  0.6069
  636MOL0     H83941  11.181   7.551   3.523 -2.4339 -3.0582 -2.3568
  636MOL0     H83942  11.525   7.664   3.640 -0.0480 -0.7987  1.2670
  636MOL0     H83943  11.383   7.620   3.545 -1.0352 -0.2181  0.5109
  636MOL0     H83944  11.419   7.391   3.585 -0.7045  1.3095 -0.6481
  636MOL0     H83945  11.585   7.440   3.568 -0.2796 -2.7211 -0.8226
  636MOL0     H83946  11.455   7.400   3.841  1.3242  2.7493  1.4930
  636MOL0     H83947  11.616   7.463   3.811  0.2512  0.4485  1.1900
  636MOL0     H83948  11.530   7.195   3.675 -0.6441  0.7978 -0.6061
  636MOL0     H83949  11.694   7.245   3.723  0.6427 -0.0650  3.4932
  636MOL0     H83950  11.600   7.087   4.081  0.8110 -1.5594 -1.1313
  636MOL0     H83951  11.205   7.561   3.965 -4.2555  0.2541  1.3157
  636MOL0     H83952  10.997   7.434   3.966 -1.4417 -1.2684 -0.9617
  637MOL0     O83953   8.753   7.068   4.047  0.3087  0.3238  0.2291
  637MOL0     C83954   8.816   6.960   4.056 -0.0288 -0.1247  0.0884
  637MOL0     O83955   8.773   6.844   3.999 -0.7752  0.5628 -0.0726
  637MOL0     C83956   8.649   6.830   3.962 -0.2282 -0.2939 -0.7650
  637MOL0     C83957   8.537   6.876   4.032 -0.1010  0.0065  0.6660
  637MOL0     C83958   8.414   6.867   3.983  0.4804 -0.3063 -0.0304
  637MOL0     C83959   8.387   6.815   3.861 -0.3156  0.2733 -0.0655
  637MOL0     O83960   8.256   6.797   3.820  0.0703 -0.6732  0.0399
  637MOL0     C83961   8.229   6.745   3.691 -0.6320 -0.1951  0.0864
  637MOL0     C83962   8.245   6.861   3.599  0.1816  0.3322  0.1518
  637MOL0     C83963   8.220   6.806   3.456 -0.1302  0.7884 -0.3557
  637MOL0     C83964   8.338   6.734   3.394 -0.1769  0.3460  0.0210
  637MOL0     C83965   8.360   6.746   3.239  0.3147  0.2630  0.8323
  637MOL0     C83966   8.264   6.668   3.155  0.7676 -0.6487 -0.8870
  637MOL0     C83967   8.269   6.701   3.008  1.1362 -0.6533  0.0926
  637MOL0     C83968   8.184   6.597   2.925 -0.8913  0.2166 -0.1918
  637MOL0     N83969   8.046   6.597   2.969 -0.1558 -0.4083  0.7938
  637MOL0     C83970   7.965   6.705   2.953 -0.3555  0.2818 -0.4622
  637MOL0     C83971   7.855   6.667   3.031  0.5800 -1.1174  0.4386
  637MOL0     C83972   7.719   6.748   3.063 -1.6705  0.6865  0.7447
  637MOL0     C83973   7.635   6.743   2.932  0.5126  0.5548 -0.1840
  637MOL0     C83974   7.513   6.846   2.929  0.1892 -0.6622  0.6500
  637MOL0     C83975   7.398   6.805   2.834  0.2267  0.2873 -0.6603
  637MOL0     O83976   7.362   6.669   2.852  0.7453  0.3703  0.8348
  637MOL0     C83977   7.231   6.638   2.894  0.0458  0.4997 -0.1847
  637MOL0     C83978   7.199   6.520   2.968 -0.3367  0.1427  0.2280
  637MOL0     C83979   7.071   6.483   3.000  0.0658  0.2956 -0.4376
  637MOL0     C83980   6.959   6.557   2.960 -0.4727 -1.0676 -0.0834
  637MOL0     C83981   6.822   6.524   2.992  0.0868 -0.0449  0.1020
  637MOL0     O83982   6.739   6.605   2.929  0.0610  0.2259  0.2101
  637MOL0     C83983   6.605   6.589   2.913 -0.1720  0.6003  0.4383
  637MOL0     C83984   6.525   6.549   3.020 -0.0613  0.1498 -0.1862
  637MOL0     C83985   6.387   6.567   3.002 -0.7039  0.4867  0.1818
  637MOL0     C83986   6.324   6.571   2.881  0.6295  1.2824 -0.0343
  637MOL0     O83987   6.187   6.561   2.889  0.2516 -0.5815 -0.4013
  637MOL0     C83988   6.113   6.590   2.776 -0.1981  0.0554 -0.2789
  637MOL0     C83989   5.965   6.576   2.811 -0.0044 -0.5123 -0.1081
  637MOL0     C83990   5.922   6.676   2.924  0.2658  0.5282  1.8102
  637MOL0     C83991   5.763   6.689   2.914  0.5948 -0.5719  0.6844
  637MOL0     C83992   5.675   6.567   2.947  0.5857  0.0568 -0.3943
  637MOL0     C83993   5.530   6.608   2.998 -0.4330 -0.1441  0.1320
  637MOL0     C83994   5.466   6.690   2.881 -0.2003 -0.1505  0.1593
  637MOL0     C83995   5.444   6.616   2.753  0.3016 -0.0730  0.1463
  637MOL0    Cl83996   5.389   6.456   2.786  0.2834 -0.2014  0.2916
  637MOL0     C83997   6.405   6.587   2.765  0.2227  0.4201  0.1419
  637MOL0     C83998   6.546   6.602   2.781 -0.1042  0.0779 -0.0836
  637MOL0     O83999   6.792   6.429   3.062 -0.2461  0.4634  0.0676
  637MOL0     C84000   6.989   6.681   2.888  0.6108 -0.0790 -0.8553
  637MOL0     C84001   7.119   6.716   2.846 -0.9349 -0.5967 -0.4909
  637MOL0     N84002   7.873   6.542   3.076 -1.1071 -0.2186 -0.1829
  637MOL0     N84003   7.991   6.510   3.055  0.0465 -0.2770 -0.5551
  637MOL0     C84004   8.503   6.782   3.783  0.3544 -0.4954  0.5107
  637MOL0     C84005   8.633   6.786   3.828  0.3667  0.7591 -0.6998
  637MOL0     C84006   8.965   6.960   4.096 -0.9267 -0.6849 -1.1776
  637MOL0     C84007   9.022   7.074   4.153  0.0591  0.8744  0.3780
  637MOL0     C84008   9.150   7.062   4.208 -0.3414  0.0266  0.1940
  637MOL0     C84009   9.212   6.937   4.213  0.0999 -0.1551  0.0828
  637MOL0     O84010   9.333   6.933   4.269 -0.5600 -0.1985 -0.0800
  637MOL0     C84011   9.350   6.840   4.380  0.2332 -0.8138 -0.0810
  637MOL0     C84012   9.481   6.864   4.464  0.0525  0.0690  0.0959
  637MOL0     C84013   9.610   6.865   4.385  0.8929 -0.2712  0.3191
  637MOL0     C84014   9.734   6.882   4.472  0.1522  0.8134  0.3040
  637MOL0     C84015   9.742   6.981   4.585 -0.3632  0.3953  0.2214
  637MOL0     C84016   9.759   7.060   4.672  0.9614 -0.3599 -0.7281
  637MOL0     C84017   9.149   6.820   4.168  0.0354  0.2741  0.0555
  637MOL0     C84018   9.026   6.834   4.103  0.3819 -0.2501 -0.3442
  637MOL0     H84019   8.557   6.906   4.135 -0.1603  1.8543  0.1690
  637MOL0     H84020   8.332   6.898   4.047  0.9641  0.7728  0.0834
  637MOL0     H84021   8.125   6.711   3.692 -0.3764 -0.9841  0.2527
  637MOL0     H84022   8.290   6.665   3.650 -0.9817 -0.4194 -0.0012
  637MOL0     H84023   8.343   6.910   3.600  0.8236 -0.8978 -0.3292
  637MOL0     H84024   8.167   6.934   3.625  0.9491  0.1932  3.1710
  637MOL0     H84025   8.176   6.884   3.392 -1.5859 -0.9426 -1.5586
  637MOL0     H84026   8.141   6.731   3.461  0.9859 -0.7873 -3.4302
  637MOL0     H84027   8.433   6.766   3.439  0.5478  0.8820 -1.8008
  637MOL0     H84028   8.330   6.627   3.417 -0.8779  0.0945 -1.2941
  637MOL0     H84029   8.465   6.721   3.219 -0.0226 -1.1244  0.6755
  637MOL0     H84030   8.347   6.851   3.211  0.2068  0.1433  0.4200
  637MOL0     H84031   8.165   6.702   3.188  0.7849 -2.1034  0.8385
  637MOL0     H84032   8.275   6.562   3.183  1.3681  0.2195  2.6209
  637MOL0     H84033   8.226   6.799   2.985  0.3643 -0.9066  0.4137
  637MOL0     H84034   8.372   6.693   2.972  0.8284 -3.5904 -0.4015
  637MOL0     H84035   8.234   6.501   2.935 -2.1922 -0.2501  2.7892
  637MOL0     H84036   8.193   6.630   2.821  1.1446  0.6644  0.0730
  637MOL0     H84037   7.984   6.802   2.909  4.3324  0.5194  1.6030
  637MOL0     H84038   7.755   6.848   3.087  1.5401 -0.2664  0.3949
  637MOL0     H84039   7.681   6.685   3.144  1.9889 -4.5153 -1.0042
  637MOL0     H84040   7.597   6.643   2.912 -0.4636  0.6823  0.8813
  637MOL0     H84041   7.697   6.763   2.844 -0.2566  0.6084 -0.7254
  637MOL0     H84042   7.470   6.848   3.030 -2.5478  1.9274 -0.4266
  637MOL0     H84043   7.537   6.946   2.893  0.1142 -1.0824 -0.6175
  637MOL0     H84044   7.431   6.819   2.731  1.7843  0.9541 -0.1021
  637MOL0     H84045   7.320   6.878   2.856  0.4373 -0.1967  2.0571
  637MOL0     H84046   7.282   6.465   3.013  1.6169  1.8871 -1.0486
  637MOL0     H84047   7.062   6.394   3.061  0.3627  1.3647  1.2188
  637MOL0     H84048   6.568   6.524   3.116 -1.3085 -2.5371 -0.2383
  637MOL0     H84049   6.318   6.565   3.086 -3.6121 -0.8508 -2.1078
  637MOL0     H84050   6.134   6.535   2.684 -3.2575 -0.9100 -0.5075
  637MOL0     H84051   6.137   6.697   2.764  0.7134 -0.0270  0.6294
  637MOL0     H84052   5.941   6.471   2.829 -5.8287  0.7284  1.4070
  637MOL0     H84053   5.908   6.605   2.722 -1.5951  1.8716  1.5603
  637MOL0     H84054   5.968   6.774   2.906  0.7970  0.2064  1.4041
  637MOL0     H84055   5.964   6.649   3.022  0.2864  0.2654  1.7294
  637MOL0     H84056   5.747   6.771   2.984  2.1226 -1.4005  2.0769
  637MOL0     H84057   5.734   6.733   2.818  1.0607 -2.4535 -0.3803
  637MOL0     H84058   5.721   6.512   3.030  0.2243  3.0879  1.9979
  637MOL0     H84059   5.664   6.500   2.862 -1.9479 -1.9409  1.3503
  637MOL0     H84060   5.543   6.674   3.085 -1.2015  2.3908 -1.5576
  637MOL0     H84061   5.479   6.514   3.021 -0.0414 -0.5611 -0.6818
  637MOL0     H84062   5.369   6.733   2.907  0.2572  1.0824 -0.0905
  637MOL0     H84063   5.528   6.780   2.867 -1.4114  0.3678 -2.7289
  637MOL0     H84064   5.534   6.601   2.693 -0.1747 -0.1498 -0.5636
  637MOL0     H84065   5.371   6.664   2.687 -1.2005 -0.5318  1.4174
  637MOL0     H84066   6.360   6.596   2.667 -1.4388  1.7665  0.9547
  637MOL0     H84067   6.609   6.624   2.696  3.3826 -1.8844  1.7621
  637MOL0     H84068   6.908   6.751   2.868  1.9818  0.7810 -4.0341
  637MOL0     H84069   7.149   6.793   2.775  1.5649 -1.3643 -0.3711
  637MOL0     H84070   8.490   6.751   3.679 -1.0089 -1.1622  0.8601
  637MOL0     H84071   8.709   6.735   3.770 -0.2769  0.5749 -1.3912
  637MOL0     H84072   8.976   7.172   4.141  1.1744  1.1159 -2.8779
  637MOL0     H84073   9.212   7.145   4.239  1.7009 -0.6649 -1.7405
  637MOL0     H84074   9.361   6.743   4.331  1.0438 -1.1031  0.6490
  637MOL0     H84075   9.260   6.840   4.443 -1.0516  1.5500 -1.7483
  637MOL0     H84076   9.469   6.960   4.514  1.7420  0.3300  0.0631
  637MOL0     H84077   9.494   6.785   4.538 -0.7417  0.2558  0.4440
  637MOL0     H84078   9.599   6.958   4.328  0.1684 -0.0004  0.8750
  637MOL0     H84079   9.612   6.785   4.310 -0.4277  0.2751 -0.3450
  637MOL0     H84080   9.773   6.789   4.514  1.2961  1.7388  1.3793
  637MOL0     H84081   9.809   6.912   4.399 -0.6733 -0.6607 -1.2253
  637MOL0     H84082   9.764   7.141   4.742  3.1319  0.6938 -1.9925
  637MOL0     H84083   9.199   6.724   4.167 -1.0524 -0.3694 -2.5446
  637MOL0     H84084   8.975   6.752   4.054  2.4711 -1.6342 -0.3408
  638MOL0     O84085   6.609   2.344   3.318  0.0109 -0.6228 -0.8895
  638MOL0     C84086   6.637   2.325   3.203 -0.3477  0.0580  0.2469
  638MOL0     O84087   6.546   2.291   3.106  0.1420  0.6031 -0.9291
  638MOL0     C84088   6.421   2.248   3.133  0.4550  0.7494  0.3553
  638MOL0     C84089   6.391   2.166   3.241 -0.0294  0.0480 -0.0735
  638MOL0     C84090   6.256   2.130   3.263 -0.3624 -0.5760  0.3486
  638MOL0     C84091   6.156   2.162   3.172 -0.1775 -0.2178 -0.4320
  638MOL0     O84092   6.034   2.099   3.196 -0.2821 -0.1670 -0.2191
  638MOL0     C84093   5.934   2.199   3.193 -0.0708 -0.3956  0.3851
  638MOL0     C84094   5.799   2.125   3.212 -0.6033  0.2737  0.6695
  638MOL0     C84095   5.677   2.208   3.185  0.1898  0.1181 -0.2859
  638MOL0     C84096   5.547   2.129   3.237 -0.0532 -0.0443  0.0099
  638MOL0     C84097   5.410   2.204   3.220 -0.9131 -0.1480 -0.2055
  638MOL0     C84098   5.296   2.140   3.306  0.1677  0.0672 -1.1139
  638MOL0     C84099   5.161   2.213   3.283 -0.1147 -0.5644 -0.3448
  638MOL0     C84100   5.076   2.150   3.389  0.4116  0.5618 -0.0282
  638MOL0     N84101   4.948   2.222   3.390 -0.2866  0.3497  0.7661
  638MOL0     C84102   4.943   2.340   3.461  0.0127  0.4050  0.5324
  638MOL0     C84103   4.818   2.384   3.461  0.0828 -0.0035  0.2394
  638MOL0     C84104   4.766   2.512   3.524  0.5072  0.1024 -0.1635
  638MOL0     C84105   4.765   2.603   3.403 -0.5709  0.1893 -0.9808
  638MOL0     C84106   4.712   2.753   3.436  0.2603 -0.1519 -0.1275
  638MOL0     C84107   4.562   2.745   3.479  0.4141 -0.0937 -0.8894
  638MOL0     O84108   4.533   2.678   3.606  0.5983 -0.7618  0.4884
  638MOL0     C84109   4.400   2.640   3.616 -0.3028  0.4023  0.1517
  638MOL0     C84110   4.362   2.526   3.693  0.0206  0.4853  0.9530
  638MOL0     C84111   4.223   2.496   3.708  0.2986  0.1002  0.3169
  638MOL0     C84112   4.122   2.578   3.648 -0.2621  1.0226 -0.5259
  638MOL0     C84113   3.979   2.563   3.673  0.0873  0.0004 -0.1496
  638MOL0     O84114   3.882   2.646   3.615 -0.3651  0.7828 -0.0241
  638MOL0     C84115   3.753   2.624   3.653  0.4633  0.9872 -0.0651
  638MOL0     C84116   3.667   2.545   3.570  0.2957  0.1419 -0.4343
  638MOL0     C84117   3.532   2.520   3.608  0.3290 -0.3364  0.2017
  638MOL0     C84118   3.486   2.586   3.720 -0.7825  0.1011 -0.8088
  638MOL0     O84119   3.353   2.566   3.748  0.8136 -0.0778  1.0660
  638MOL0     C84120   3.262   2.661   3.819 -0.4303 -0.1138 -0.1052
  638MOL0     C84121   3.120   2.616   3.815 -0.4437  0.0688  0.3825
  638MOL0     C84122   3.103   2.489   3.908 -0.1112  0.2375  0.1151
  638MOL0     C84123   2.955   2.454   3.928  0.0279 -0.3719  0.7732
  638MOL0     C84124   2.926   2.380   4.046  0.1112  0.0585  0.0918
  638MOL0     C84125   2.999   2.254   4.070  0.4956 -0.1251 -0.0020
  638MOL0     C84126   2.967   2.208   4.211  0.0692 -0.0147 -0.0127
  638MOL0     C84127   3.059   2.085   4.241  0.9592  0.1130  0.0331
  638MOL0    Cl84128   3.221   2.148   4.294 -0.3021 -0.2828  0.1931
  638MOL0     C84129   3.573   2.666   3.803 -0.1157 -0.8157  0.3577
  638MOL0     C84130   3.702   2.683   3.767  0.2027 -0.5671 -0.1888
  638MOL0     O84131   3.952   2.473   3.755 -0.1422 -0.0442  0.4426
  638MOL0     C84132   4.161   2.679   3.569  0.4566 -0.3606  0.2442
  638MOL0     C84133   4.292   2.716   3.560 -1.1935  0.0701  0.3832
  638MOL0     N84134   4.748   2.289   3.393  0.4267  0.1841 -0.4119
  638MOL0     N84135   4.827   2.192   3.349 -0.4631 -0.4697  0.5931
  638MOL0     C84136   6.181   2.256   3.065 -0.2696 -0.8717 -0.2955
  638MOL0     C84137   6.316   2.299   3.050 -0.2873  0.1098  0.0443
  638MOL0     C84138   6.777   2.328   3.155  0.6794  0.0764 -0.1841
  638MOL0     C84139   6.810   2.293   3.027  0.0561 -0.3402  0.5952
  638MOL0     C84140   6.940   2.305   2.977  0.5033  0.0846  0.4985
  638MOL0     C84141   7.040   2.354   3.060 -0.0099  0.9211 -0.2435
  638MOL0     O84142   7.163   2.375   3.005 -0.3843  0.9086 -0.0837
  638MOL0     C84143   7.276   2.408   3.087  0.1152  0.3824 -0.0381
  638MOL0     C84144   7.317   2.291   3.180  0.2569  0.2030  0.0447
  638MOL0     C84145   7.393   2.177   3.122 -0.3646  0.9561  0.1478
  638MOL0     C84146   7.437   2.070   3.225 -0.3734  0.4132  0.4836
  638MOL0     C84147   7.331   1.982   3.275 -0.7347 -0.5168 -0.0271
  638MOL0     C84148   7.233   1.935   3.333  0.2463 -0.0314 -0.0111
  638MOL0     C84149   7.004   2.390   3.189 -0.2172  0.6122 -0.5044
  638MOL0     C84150   6.880   2.370   3.238  0.3954 -0.6864 -0.2449
  638MOL0     H84151   6.464   2.127   3.311 -0.0290 -0.4239 -0.3308
  638MOL0     H84152   6.239   2.065   3.349  1.1851 -1.5705 -0.0522
  638MOL0     H84153   5.926   2.247   3.096 -1.3804 -1.3797 -0.0327
  638MOL0     H84154   5.949   2.276   3.269 -0.4263  2.7536 -2.5326
  638MOL0     H84155   5.792   2.084   3.313  0.8309  0.1156  0.7266
  638MOL0     H84156   5.794   2.038   3.145  0.2774 -1.6681  2.9716
  638MOL0     H84157   5.661   2.222   3.078 -3.6905  2.0398  0.3792
  638MOL0     H84158   5.694   2.302   3.240  2.0296 -1.6197  2.4192
  638MOL0     H84159   5.538   2.027   3.199 -0.8687 -0.5694  1.4932
  638MOL0     H84160   5.570   2.115   3.343  4.6859  0.1072 -0.8031
  638MOL0     H84161   5.388   2.206   3.113  2.5491  1.3817 -1.0263
  638MOL0     H84162   5.401   2.307   3.257 -0.8344 -0.6130  1.1549
  638MOL0     H84163   5.322   2.131   3.412 -0.9866 -0.3552 -0.8644
  638MOL0     H84164   5.292   2.040   3.264  1.8213 -0.5201  0.0371
  638MOL0     H84165   5.183   2.320   3.296 -1.7499 -0.0323 -1.6778
  638MOL0     H84166   5.124   2.211   3.180 -1.9927 -3.0066  0.3007
  638MOL0     H84167   5.121   2.157   3.488  1.9645  0.7051 -0.7115
  638MOL0     H84168   5.052   2.046   3.367  0.3687  0.8165 -1.2505
  638MOL0     H84169   5.032   2.372   3.516  0.6718 -3.2336  1.9075
  638MOL0     H84170   4.827   2.540   3.611 -0.1328  3.1603 -0.5747
  638MOL0     H84171   4.669   2.491   3.569  1.3737  0.7245  2.1405
  638MOL0     H84172   4.697   2.551   3.336 -2.7016 -0.9294  1.8237
  638MOL0     H84173   4.867   2.598   3.364 -0.0750 -0.9787  0.3861
  638MOL0     H84174   4.763   2.793   3.524  0.2384 -0.3033 -0.0464
  638MOL0     H84175   4.727   2.822   3.353 -0.9408 -0.0911 -0.3020
  638MOL0     H84176   4.513   2.699   3.393  1.2434  0.2200 -1.5434
  638MOL0     H84177   4.528   2.848   3.488  0.0358 -0.1040 -2.0035
  638MOL0     H84178   4.443   2.466   3.733 -0.6289 -1.8756 -1.0452
  638MOL0     H84179   4.202   2.406   3.764 -3.6136  2.0446  2.3973
  638MOL0     H84180   3.707   2.483   3.490  2.9523 -2.2194  2.4770
  638MOL0     H84181   3.462   2.459   3.552  0.9298 -0.8934  0.0407
  638MOL0     H84182   3.262   2.761   3.774  0.5504  0.9134  2.0565
  638MOL0     H84183   3.301   2.658   3.921 -2.3527  3.3074  0.8987
  638MOL0     H84184   3.083   2.586   3.717 -1.4904 -0.4771  0.9341
  638MOL0     H84185   3.057   2.700   3.847 -1.9321 -1.3145  1.2458
  638MOL0     H84186   3.156   2.500   4.003 -0.4693 -0.7768  0.4510
  638MOL0     H84187   3.149   2.401   3.862  2.4204  0.5427  1.8835
  638MOL0     H84188   2.899   2.548   3.936 -0.3779 -0.7104  2.2614
  638MOL0     H84189   2.918   2.402   3.840  0.9039 -2.9343  1.8425
  638MOL0     H84190   2.819   2.357   4.045  0.1897 -0.3209 -1.3919
  638MOL0     H84191   2.943   2.445   4.133  1.5119  0.9949 -0.8526
  638MOL0     H84192   3.108   2.265   4.073  0.6376 -1.5778  1.2530
  638MOL0     H84193   2.986   2.186   3.985  0.5221  1.3439 -1.2412
  638MOL0     H84194   2.979   2.290   4.282  0.6228  1.3950 -1.6895
  638MOL0     H84195   2.868   2.160   4.217  0.8466 -2.0311 -1.8332
  638MOL0     H84196   3.067   2.021   4.152  0.2985  0.1382 -0.0532
  638MOL0     H84197   3.017   2.019   4.319 -0.4152 -0.4082 -1.0901
  638MOL0     H84198   3.543   2.713   3.896  2.2840  0.8251  0.4040
  638MOL0     H84199   3.761   2.751   3.827  0.1969 -2.1654  1.7245
  638MOL0     H84200   4.089   2.742   3.518 -2.0483 -1.1655  2.5662
  638MOL0     H84201   4.308   2.811   3.510 -0.7660 -0.4268 -0.4580
  638MOL0     H84202   6.112   2.291   2.990 -1.5075  2.8263  2.2657
  638MOL0     H84203   6.347   2.366   2.971  2.1071 -1.2972 -0.3023
  638MOL0     H84204   6.730   2.273   2.956  0.6650 -0.6344 -0.0099
  638MOL0     H84205   6.956   2.287   2.871 -0.6478  2.3051 -0.1169
  638MOL0     H84206   7.258   2.498   3.146  5.2569  2.1245 -0.6131
  638MOL0     H84207   7.355   2.440   3.018  0.2804  2.8918  1.2254
  638MOL0     H84208   7.389   2.338   3.248 -0.7196  0.7212  0.7444
  638MOL0     H84209   7.226   2.252   3.226  1.6136 -0.3125  2.4399
  638MOL0     H84210   7.479   2.211   3.064  0.6043 -1.3812  0.0860
  638MOL0     H84211   7.318   2.132   3.056  0.0175  1.8066 -0.8930
  638MOL0     H84212   7.511   2.002   3.181  0.8918  0.0548  2.9927
  638MOL0     H84213   7.486   2.111   3.314 -1.8900  1.6534  0.7927
  638MOL0     H84214   7.150   1.893   3.386 -0.1542 -1.6908 -1.8288
  638MOL0     H84215   7.078   2.431   3.257 -0.3804  0.3799 -0.1812
  638MOL0     H84216   6.861   2.400   3.341 -2.2815 -0.0203 -0.8698
  639MOL0     O84217   4.068   3.724   2.158 -0.1625 -1.4612 -0.4521
  639MOL0     C84218   4.116   3.691   2.264  0.5060  0.0722 -0.3204
  639MOL0     O84219   4.042   3.631   2.358  0.0083  0.9076  0.4820
  639MOL0     C84220   3.905   3.612   2.339  0.4368  0.4664  0.5123
  639MOL0     C84221   3.817   3.719   2.356 -0.2875 -0.2822 -0.0477
  639MOL0     C84222   3.681   3.706   2.346 -0.4725  0.2478 -0.0530
  639MOL0     C84223   3.634   3.584   2.302  0.7652 -0.2176  0.1159
  639MOL0     O84224   3.495   3.585   2.290  0.0317 -0.6104  0.4607
  639MOL0     C84225   3.435   3.474   2.361 -0.6458  0.2494 -0.0870
  639MOL0     C84226   3.283   3.508   2.353 -0.2306  0.3939  0.4361
  639MOL0     C84227   3.180   3.404   2.409 -0.5397  0.0959 -0.2979
  639MOL0     C84228   3.034   3.431   2.356  0.5368  0.1034  0.8096
  639MOL0     C84229   2.944   3.327   2.415  0.3783  0.6416  0.2280
  639MOL0     C84230   2.797   3.340   2.351 -0.3155  1.3690  0.7427
  639MOL0     C84231   2.731   3.214   2.397 -0.5388  0.0594  0.6758
  639MOL0     C84232   2.585   3.188   2.359 -0.2515  1.2083  0.2386
  639MOL0     N84233   2.487   3.278   2.424  0.2545  0.3321 -0.1258
  639MOL0     C84234   2.471   3.317   2.554  0.1706 -1.0182  0.9110
  639MOL0     C84235   2.396   3.429   2.546 -0.5216 -0.0350 -0.3018
  639MOL0     C84236   2.361   3.527   2.663 -0.1971 -0.4642  0.3257
  639MOL0     C84237   2.210   3.540   2.674  0.2955  0.3219  0.3841
  639MOL0     C84238   2.161   3.612   2.801  0.0920 -0.5887 -0.1975
  639MOL0     C84239   2.018   3.603   2.839 -0.0878  0.3783 -0.4250
  639MOL0     O84240   1.927   3.654   2.734  0.6034 -0.0427 -0.6750
  639MOL0     C84241   1.791   3.634   2.757  0.5050 -0.6791  0.1639
  639MOL0     C84242   1.718   3.520   2.727 -1.0453  0.2789 -0.5798
  639MOL0     C84243   1.587   3.503   2.760 -0.4578 -0.0569 -0.7182
  639MOL0     C84244   1.527   3.607   2.829  0.3707 -0.9437 -0.0392
  639MOL0     C84245   1.389   3.599   2.876  0.2513 -0.1189  0.6495
  639MOL0     O84246   1.333   3.482   2.863 -0.0764  0.0786 -0.5667
  639MOL0     C84247   1.201   3.466   2.905 -0.8358  0.5209 -0.0422
  639MOL0     C84248   1.098   3.545   2.859  0.2202 -0.3377  0.0948
  639MOL0     C84249   0.968   3.518   2.892  0.0655  0.0380 -0.3792
  639MOL0     C84250   0.929   3.410   2.964  0.3484  0.0778  0.1667
  639MOL0     O84251   0.795   3.405   2.973  0.4333  0.8142 -0.9151
  639MOL0     C84252   0.738   3.291   3.038 -1.1089 -0.3637  0.4803
  639MOL0     C84253   0.583   3.306   3.046 -0.5759  0.8641  0.6412
  639MOL0     C84254   0.517   3.270   2.915 -0.2596 -0.2270 -0.3865
  639MOL0     C84255   0.360   3.285   2.930  0.2461  0.0524 -0.2671
  639MOL0     C84256   0.292   3.197   2.826 -0.2776 -0.5107 -0.7085
  639MOL0     C84257   0.141   3.219   2.828 -0.6619 -0.0442  0.2615
  639MOL0     C84258   0.069   3.124   2.731 -0.4921 -0.2720 -0.0855
  639MOL0     C84259  -0.075   3.158   2.707 -0.1027 -0.5593 -0.0092
  639MOL0    Cl84260  -0.093   3.308   2.608 -0.1999 -0.1197  0.1040
  639MOL0     C84261   1.029   3.323   3.000  0.0169  0.7945 -0.7611
  639MOL0     C84262   1.169   3.351   2.978  0.0859  0.2513 -0.5613
  639MOL0     O84263   1.339   3.701   2.918 -0.1592 -0.4049 -0.5170
  639MOL0     C84264   1.597   3.723   2.854  0.9692  0.1903 -0.4115
  639MOL0     C84265   1.730   3.730   2.826 -0.4003 -0.3535  0.3119
  639MOL0     N84266   2.360   3.451   2.416  0.2401  0.3203 -0.0535
  639MOL0     N84267   2.417   3.360   2.346 -0.0377 -0.6526 -0.2642
  639MOL0     C84268   3.719   3.471   2.280 -0.0084  0.7706  0.2386
  639MOL0     C84269   3.854   3.484   2.305 -0.0456  0.2912  0.1325
  639MOL0     C84270   4.262   3.715   2.289 -0.2443 -0.2027 -0.0982
  639MOL0     C84271   4.311   3.698   2.426 -0.7968 -0.0861  0.4493
  639MOL0     C84272   4.441   3.726   2.455 -0.6875 -0.8021  0.5712
  639MOL0     C84273   4.522   3.779   2.355 -0.1181 -0.3838 -0.2346
  639MOL0     O84274   4.641   3.821   2.403  0.5580 -0.7013  0.7851
  639MOL0     C84275   4.712   3.939   2.357 -0.7166 -0.2035 -0.8136
  639MOL0     C84276   4.865   3.934   2.387 -0.0195 -0.1487  0.6032
  639MOL0     C84277   4.932   3.826   2.299 -0.2314  0.0775 -0.0480
  639MOL0     C84278   4.997   3.708   2.371  0.6867  0.5622  0.5239
  639MOL0     C84279   5.096   3.739   2.485 -0.4637 -0.0471 -0.4536
  639MOL0     C84280   5.175   3.772   2.570 -0.1297 -0.6236  0.7559
  639MOL0     C84281   4.479   3.804   2.228  0.0646  0.6143  0.2173
  639MOL0     C84282   4.354   3.768   2.190 -0.3472  0.3122 -0.0304
  639MOL0     H84283   3.854   3.819   2.377 -1.0641 -0.2245  1.2055
  639MOL0     H84284   3.608   3.779   2.380 -1.1036 -0.6677  0.6130
  639MOL0     H84285   3.441   3.475   2.470 -3.5407  2.0905  0.1666
  639MOL0     H84286   3.460   3.379   2.314  1.9606  1.9134 -2.3963
  639MOL0     H84287   3.266   3.501   2.245 -0.4243 -0.0043  0.4876
  639MOL0     H84288   3.277   3.611   2.387  1.2012  1.3058 -1.8709
  639MOL0     H84289   3.177   3.424   2.516  0.6894 -0.6342 -0.1086
  639MOL0     H84290   3.209   3.302   2.384  0.7876  0.9919 -2.7292
  639MOL0     H84291   2.999   3.531   2.385 -0.2029  0.2783 -0.5984
  639MOL0     H84292   3.028   3.431   2.247  1.1899  0.4570  0.7706
  639MOL0     H84293   2.930   3.333   2.523 -2.6011 -2.3025  0.1705
  639MOL0     H84294   2.985   3.226   2.402 -2.0292 -0.1959 -1.6900
  639MOL0     H84295   2.804   3.357   2.243  1.0699 -1.0336  0.3736
  639MOL0     H84296   2.750   3.425   2.401 -0.6512  0.8067  1.3941
  639MOL0     H84297   2.794   3.131   2.364  1.4818  2.0543 -0.8602
  639MOL0     H84298   2.723   3.221   2.506 -2.4337  0.8311  0.5343
  639MOL0     H84299   2.568   3.083   2.387  1.2765  1.0265  0.5904
  639MOL0     H84300   2.565   3.199   2.252  0.0534 -1.0268 -0.1142
  639MOL0     H84301   2.518   3.273   2.642  2.0759 -0.8494  0.0133
  639MOL0     H84302   2.398   3.629   2.650  0.5149 -0.0985  4.0664
  639MOL0     H84303   2.408   3.499   2.758  1.3786  2.2895  0.4590
  639MOL0     H84304   2.167   3.440   2.681  1.6861 -0.1762  4.9954
  639MOL0     H84305   2.164   3.593   2.591 -0.6353  0.2734  0.8592
  639MOL0     H84306   2.213   3.588   2.895 -1.2699  0.0326  0.7453
  639MOL0     H84307   2.179   3.719   2.793 -2.0543 -0.3087 -2.3004
  639MOL0     H84308   1.992   3.651   2.934 -0.9425  2.6601 -1.7324
  639MOL0     H84309   1.990   3.497   2.832 -0.6524  0.5900 -1.5839
  639MOL0     H84310   1.764   3.434   2.679  2.8889  1.9992 -0.3028
  639MOL0     H84311   1.543   3.406   2.739 -2.6696  0.5095  0.9247
  639MOL0     H84312   1.120   3.629   2.794  0.5938 -0.2631  0.3180
  639MOL0     H84313   0.889   3.584   2.859 -2.9384 -2.9783  0.3312
  639MOL0     H84314   0.787   3.278   3.135 -0.4766  1.5099  0.4442
  639MOL0     H84315   0.763   3.199   2.984 -1.5022 -0.4147  0.3806
  639MOL0     H84316   0.556   3.410   3.066 -3.6646  0.4221 -0.6909
  639MOL0     H84317   0.547   3.241   3.127 -1.3445 -4.6792 -3.5664
  639MOL0     H84318   0.546   3.167   2.892  0.5001  0.3271 -1.9767
  639MOL0     H84319   0.547   3.337   2.834 -0.4244 -0.2070 -0.4317
  639MOL0     H84320   0.325   3.241   3.024  2.1379 -2.4911 -0.6360
  639MOL0     H84321   0.321   3.386   2.915 -1.7569 -0.7905 -1.0102
  639MOL0     H84322   0.317   3.093   2.848  0.1186 -0.1466  0.6900
  639MOL0     H84323   0.333   3.215   2.727 -1.4564 -0.8187 -1.2695
  639MOL0     H84324   0.114   3.321   2.799  0.3622  0.1110 -0.1888
  639MOL0     H84325   0.110   3.199   2.930 -4.4970 -1.4596 -1.0054
  639MOL0     H84326   0.119   3.105   2.635 -0.9611 -1.5753 -0.1005
  639MOL0     H84327   0.066   3.021   2.769 -2.7199 -0.2608 -0.0884
  639MOL0     H84328  -0.127   3.168   2.803 -0.9828  1.7287 -0.6674
  639MOL0     H84329  -0.116   3.077   2.645  2.8366 -0.4510 -2.3317
  639MOL0     H84330   1.018   3.240   3.069  0.4018  1.5749  0.2727
  639MOL0     H84331   1.249   3.291   3.021 -1.2582 -1.0319  0.2455
  639MOL0     H84332   1.552   3.805   2.909  3.6002  1.7367 -0.4300
  639MOL0     H84333   1.780   3.820   2.861  0.2534 -1.4323  2.3118
  639MOL0     H84334   3.673   3.384   2.233  0.7357  0.2132  0.5189
  639MOL0     H84335   3.910   3.392   2.288  3.4398  2.3879 -0.6779
  639MOL0     H84336   4.244   3.658   2.501  1.8213 -0.9549  2.4985
  639MOL0     H84337   4.476   3.715   2.557 -2.5915  2.5968  1.7527
  639MOL0     H84338   4.679   4.031   2.406 -1.7478  0.0837 -2.0127
  639MOL0     H84339   4.701   3.956   2.250  2.8668  2.9789 -0.9246
  639MOL0     H84340   4.908   4.032   2.368  0.9148 -0.8341 -1.0864
  639MOL0     H84341   4.885   3.908   2.491  2.5342 -0.4889  0.0815
  639MOL0     H84342   5.009   3.883   2.246  0.7493  1.3025  2.5214
  639MOL0     H84343   4.861   3.783   2.228  0.3852  1.7490 -1.7748
  639MOL0     H84344   4.922   3.638   2.410  0.1352  1.5800  1.3503
  639MOL0     H84345   5.050   3.654   2.293 -0.7500 -0.6518  0.3504
  639MOL0     H84346   5.246   3.793   2.648  0.4166 -1.5776  0.5357
  639MOL0     H84347   4.544   3.849   2.153  0.6912  2.7167  1.9390
  639MOL0     H84348   4.319   3.779   2.088  0.0512  0.9347 -0.1042
  640MOL0     O84349   3.082   7.304   2.242 -0.2507 -0.2563 -0.0127
  640MOL0     C84350   3.092   7.195   2.197 -0.2324  0.8530  0.7140
  640MOL0     O84351   3.213   7.139   2.162  0.8938 -0.7268 -0.5303
  640MOL0     C84352   3.333   7.175   2.217 -0.4116  0.4578  0.5266
  640MOL0     C84353   3.354   7.247   2.332 -0.5330  0.8004 -0.7101
  640MOL0     C84354   3.479   7.281   2.373  0.9836 -0.6098  0.4090
  640MOL0     C84355   3.589   7.244   2.298 -1.0499  0.4056 -0.0756
  640MOL0     O84356   3.714   7.269   2.351  0.0350  0.4443  0.2932
  640MOL0     C84357   3.749   7.411   2.339 -0.0227 -0.0995 -1.0541
  640MOL0     C84358   3.900   7.441   2.322 -0.0038  0.3800 -0.4138
  640MOL0     C84359   3.966   7.401   2.190 -0.5033  0.1113  0.2743
  640MOL0     C84360   4.102   7.474   2.175  0.5830 -0.0240  0.1633
  640MOL0     C84361   4.185   7.418   2.064  0.1089 -0.3251  0.6717
  640MOL0     C84362   4.108   7.373   1.937  0.3165 -0.9777 -0.2667
  640MOL0     C84363   4.186   7.370   1.804  0.2907 -0.3909  0.0721
  640MOL0     C84364   4.301   7.277   1.814  0.6438  0.5446  1.0345
  640MOL0     N84365   4.366   7.259   1.681 -0.2307  0.0045 -0.5326
  640MOL0     C84366   4.497   7.290   1.662 -0.0899 -0.1990 -0.3858
  640MOL0     C84367   4.513   7.281   1.529  0.0238  1.8187 -0.6084
  640MOL0     C84368   4.636   7.308   1.457  0.0103  0.6711  0.1387
  640MOL0     C84369   4.717   7.437   1.502  1.0997 -0.2213  0.0036
  640MOL0     C84370   4.626   7.557   1.518 -0.4329 -0.4003 -0.1202
  640MOL0     C84371   4.709   7.678   1.565  0.2335  0.4667 -0.1265
  640MOL0     O84372   4.801   7.660   1.676  0.3844 -0.3397  0.8201
  640MOL0     C84373   4.753   7.600   1.788 -0.1655 -0.3173 -0.0624
  640MOL0     C84374   4.619   7.606   1.832  0.1904 -1.3039  0.0767
  640MOL0     C84375   4.576   7.548   1.950 -0.2190  0.3557 -1.3774
  640MOL0     C84376   4.673   7.471   2.024 -0.4535 -0.0021  0.3242
  640MOL0     C84377   4.630   7.406   2.144 -0.4906  1.0731  0.2042
  640MOL0     O84378   4.497   7.366   2.142 -0.3732  0.3949  0.5123
  640MOL0     C84379   4.440   7.329   2.264 -0.8609 -0.0572 -0.4131
  640MOL0     C84380   4.433   7.420   2.372 -0.5796  0.0429  0.3925
  640MOL0     C84381   4.366   7.377   2.491  0.5138 -0.0170  0.1809
  640MOL0     C84382   4.302   7.254   2.502 -0.0506 -0.4505  0.7020
  640MOL0     O84383   4.243   7.226   2.618  0.6030  0.1689 -0.2518
  640MOL0     C84384   4.192   7.092   2.648  0.3827  1.0130  0.1743
  640MOL0     C84385   4.040   7.088   2.608  0.1436 -0.7005 -0.4755
  640MOL0     C84386   3.969   6.987   2.690 -0.0662 -0.1119  0.9030
  640MOL0     C84387   3.816   6.967   2.682  0.4502 -0.8699 -0.3106
  640MOL0     C84388   3.785   6.872   2.569 -0.4560  0.2628  0.1487
  640MOL0     C84389   3.629   6.832   2.569 -0.5199  0.0328  0.0548
  640MOL0     C84390   3.547   6.949   2.518 -0.1108 -0.6725  0.2885
  640MOL0     C84391   3.413   6.900   2.472  0.4686 -0.0145 -0.1162
  640MOL0    Cl84392   3.400   6.791   2.332 -0.1488  0.3129 -0.0628
  640MOL0     C84393   4.307   7.172   2.392 -0.4882  0.3486  0.0122
  640MOL0     C84394   4.378   7.208   2.276  0.0329  0.3569 -0.9034
  640MOL0     O84395   4.714   7.388   2.232 -0.3266 -0.2851 -0.2588
  640MOL0     C84396   4.800   7.453   1.980  0.0661 -0.2096 -0.1694
  640MOL0     C84397   4.842   7.521   1.867 -0.4153  0.4661 -0.1145
  640MOL0     N84398   4.393   7.254   1.467  0.2113  0.2178  0.0923
  640MOL0     N84399   4.302   7.237   1.560  0.6406 -0.3769 -0.1706
  640MOL0     C84400   3.569   7.158   2.186 -0.3902  1.2204  0.1302
  640MOL0     C84401   3.438   7.127   2.143 -0.2485 -0.3614  0.2885
  640MOL0     C84402   2.970   7.116   2.142  0.2912 -0.4837 -0.6015
  640MOL0     C84403   2.984   6.976   2.128 -0.1892 -1.0819  0.0632
  640MOL0     C84404   2.873   6.895   2.097 -0.2571  0.0307  0.0746
  640MOL0     C84405   2.746   6.952   2.079 -0.3052  0.2399  0.6325
  640MOL0     O84406   2.629   6.879   2.052 -0.3575 -0.2643 -1.0750
  640MOL0     C84407   2.639   6.748   2.011 -0.0153  0.0829  0.1086
  640MOL0     C84408   2.518   6.710   1.928 -0.2871  1.3081 -0.4481
  640MOL0     C84409   2.385   6.743   1.996  1.0896 -0.3608  0.8739
  640MOL0     C84410   2.262   6.702   1.905  0.9656  0.3316  0.2444
  640MOL0     C84411   2.267   6.561   1.874  0.0651  0.3731  0.0583
  640MOL0     C84412   2.244   6.445   1.848  0.9697  0.4359 -0.2376
  640MOL0     C84413   2.730   7.085   2.104 -0.8711 -0.4259  0.2184
  640MOL0     C84414   2.835   7.168   2.133 -0.6018  0.3623 -0.5480
  640MOL0     H84415   3.278   7.274   2.404 -2.2488  1.2910 -2.6339
  640MOL0     H84416   3.500   7.332   2.467  0.1613 -1.7186  1.2208
  640MOL0     H84417   3.704   7.470   2.420  0.3473  1.0158 -1.6325
  640MOL0     H84418   3.703   7.445   2.246 -0.2205 -0.5248 -1.1099
  640MOL0     H84419   3.953   7.400   2.408 -0.4320  0.1526 -0.2549
  640MOL0     H84420   3.897   7.550   2.320  1.7890  0.4737  0.3435
  640MOL0     H84421   3.895   7.429   2.111 -0.0186  0.4435 -0.0482
  640MOL0     H84422   3.984   7.293   2.186 -1.9162 -0.1250 -0.5689
  640MOL0     H84423   4.076   7.578   2.158 -0.3062  0.2705  2.7945
  640MOL0     H84424   4.160   7.469   2.268  1.4883 -1.2177 -0.4294
  640MOL0     H84425   4.239   7.326   2.091 -0.8160 -0.5169  1.9637
  640MOL0     H84426   4.254   7.501   2.047 -1.3690  1.3002  2.2385
  640MOL0     H84427   4.033   7.450   1.917  1.8896  0.2781 -1.5544
  640MOL0     H84428   4.078   7.270   1.961  3.3455 -1.5749  1.5655
  640MOL0     H84429   4.124   7.329   1.723  0.1732  2.6892 -1.5592
  640MOL0     H84430   4.223   7.466   1.769  1.3526 -1.5152 -2.0819
  640MOL0     H84431   4.258   7.183   1.851 -1.6181  1.0313 -0.1516
  640MOL0     H84432   4.366   7.311   1.895  2.4644 -0.2976 -0.0192
  640MOL0     H84433   4.566   7.314   1.742  1.3155  0.6871 -1.8054
  640MOL0     H84434   4.615   7.309   1.350  1.6336 -2.6202 -0.3142
  640MOL0     H84435   4.707   7.228   1.475 -1.3277 -0.6724 -0.3862
  640MOL0     H84436   4.796   7.449   1.427  3.1874 -1.2755  1.9346
  640MOL0     H84437   4.769   7.407   1.593  0.8889 -1.0873 -0.1599
  640MOL0     H84438   4.587   7.587   1.420 -1.9402  1.6331  1.0308
  640MOL0     H84439   4.551   7.531   1.594  0.4887 -0.1298  0.9061
  640MOL0     H84440   4.638   7.760   1.579  0.2411  0.4403  0.0750
  640MOL0     H84441   4.767   7.716   1.480  2.1957  0.5400  1.1764
  640MOL0     H84442   4.541   7.663   1.781  1.5080  0.9933  0.4837
  640MOL0     H84443   4.475   7.570   1.983  1.0952  1.3324  2.4882
  640MOL0     H84444   4.493   7.511   2.371  0.6305 -0.6648 -2.6200
  640MOL0     H84445   4.373   7.440   2.579  2.7812 -0.8864  0.6968
  640MOL0     H84446   4.210   7.068   2.753 -0.6800  2.8835  0.8176
  640MOL0     H84447   4.244   7.012   2.594 -0.0522  1.4005 -0.8349
  640MOL0     H84448   4.032   7.062   2.502  0.1826  2.6987 -1.4407
  640MOL0     H84449   3.992   7.186   2.622 -1.6251 -1.4758 -0.9122
  640MOL0     H84450   3.982   7.018   2.794  1.9607  1.9500  0.1178
  640MOL0     H84451   4.021   6.892   2.673  1.5910  1.2279 -2.2526
  640MOL0     H84452   3.770   6.940   2.778 -2.7902  0.5481 -1.3032
  640MOL0     H84453   3.778   7.067   2.657  2.3496  0.3724  1.4572
  640MOL0     H84454   3.846   6.781   2.572  0.4716  0.7470 -1.9084
  640MOL0     H84455   3.810   6.918   2.472 -0.4105  0.3429  0.1987
  640MOL0     H84456   3.595   6.795   2.666 -0.2044 -1.2373 -0.2992
  640MOL0     H84457   3.610   6.742   2.509 -2.2583  0.6268 -0.3518
  640MOL0     H84458   3.520   7.019   2.598 -1.7102  1.6269 -2.0739
  640MOL0     H84459   3.585   7.009   2.435  1.4145 -2.0182 -0.0361
  640MOL0     H84460   3.366   6.989   2.430 -0.4658 -0.5052 -0.1251
  640MOL0     H84461   3.353   6.847   2.546 -0.8687 -1.9307 -2.4020
  640MOL0     H84462   4.243   7.086   2.381 -0.2899  0.3213 -1.1279
  640MOL0     H84463   4.376   7.149   2.185  1.4843 -0.5152 -0.3931
  640MOL0     H84464   4.876   7.399   2.036  1.2036  0.3829 -1.0776
  640MOL0     H84465   4.948   7.518   1.844 -0.8987 -0.1168 -2.5576
  640MOL0     H84466   3.654   7.108   2.142 -2.2195 -1.5313 -0.5135
  640MOL0     H84467   3.426   7.076   2.048  0.3166 -0.2225  0.1383
  640MOL0     H84468   3.080   6.927   2.139  0.4625  0.1749  0.2318
  640MOL0     H84469   2.901   6.793   2.073  2.2600  1.0120 -1.5177
  640MOL0     H84470   2.650   6.680   2.095 -1.5934 -0.0478  0.2366
  640MOL0     H84471   2.722   6.741   1.940 -0.1804  1.1119 -0.2066
  640MOL0     H84472   2.522   6.751   1.827  1.7476  2.9135  0.1983
  640MOL0     H84473   2.523   6.601   1.923 -1.6173  1.2710 -1.4221
  640MOL0     H84474   2.386   6.851   2.013  0.6346 -0.4607  1.5936
  640MOL0     H84475   2.371   6.710   2.100 -1.1408 -0.7308  0.5024
  640MOL0     H84476   2.168   6.730   1.954  0.3210 -1.6386  0.2284
  640MOL0     H84477   2.273   6.758   1.811  5.2116  0.6679  0.7469
  640MOL0     H84478   2.225   6.345   1.817 -1.7082  1.4003 -2.0851
  640MOL0     H84479   2.631   7.120   2.078 -0.5099 -0.1765 -0.8728
  640MOL0     H84480   2.816   7.275   2.136 -1.8390  0.1471 -0.1201
  641MOL0     O84481   6.086  11.215   8.021 -0.9992  0.4548 -0.1206
  641MOL0     C84482   6.185  11.183   7.954 -0.3434 -0.0275  0.1521
  641MOL0     O84483   6.179  11.139   7.827 -0.1960  0.4902 -0.6650
  641MOL0     C84484   6.058  11.107   7.769  0.2701  0.2091 -0.1564
  641MOL0     C84485   6.059  10.992   7.693  0.6283  0.2643 -0.0058
  641MOL0     C84486   5.940  10.942   7.638  1.2735  0.7690 -0.1220
  641MOL0     C84487   5.823  11.013   7.649 -0.2188  0.3884 -0.7952
  641MOL0     O84488   5.709  10.949   7.602  0.5008  0.8956  0.5833
  641MOL0     C84489   5.586  11.027   7.593  0.5897  0.4123 -0.5104
  641MOL0     C84490   5.464  10.933   7.589 -0.8025  0.4577 -0.2131
  641MOL0     C84491   5.328  10.993   7.547 -0.5073  0.4722 -0.7173
  641MOL0     C84492   5.219  10.891   7.568  0.5807  0.5702 -0.2346
  641MOL0     C84493   5.080  10.968   7.555  0.5518  0.1970  0.2214
  641MOL0     C84494   4.963  10.870   7.586 -0.4958  0.4653 -0.1506
  641MOL0     C84495   4.830  10.945   7.554  0.3663  1.0948 -0.2958
  641MOL0     C84496   4.718  10.842   7.590 -0.0641  0.2548 -0.8015
  641MOL0     N84497   4.653  10.836   7.724  0.2498 -0.5795 -0.4227
  641MOL0     C84498   4.565  10.738   7.759  0.3668 -0.2556 -0.3606
  641MOL0     C84499   4.553  10.746   7.891  0.1120  0.2692  0.1927
  641MOL0     C84500   4.490  10.642   7.975 -1.1703 -0.6199  0.6789
  641MOL0     C84501   4.361  10.693   8.031 -0.7300  0.2277  0.3209
  641MOL0     C84502   4.266  10.728   7.922  0.4879 -0.5427  0.0200
  641MOL0     C84503   4.158  10.823   7.991 -0.3790 -0.1657 -0.3277
  641MOL0     O84504   4.064  10.872   7.900 -0.0114 -0.1441  0.6254
  641MOL0     C84505   3.954  10.808   7.877  0.3248  0.5720 -0.5271
  641MOL0     C84506   3.926  10.673   7.899 -0.1426 -0.4933 -0.4164
  641MOL0     C84507   3.815  10.604   7.849  0.3265  0.6742  0.3397
  641MOL0     C84508   3.720  10.678   7.774 -0.3280 -0.3875 -0.5077
  641MOL0     C84509   3.605  10.614   7.718  0.6539  0.4826  0.2988
  641MOL0     O84510   3.539  10.675   7.607 -0.2602 -0.8556 -0.2170
  641MOL0     C84511   3.412  10.628   7.598 -0.3878 -0.6654 -0.2499
  641MOL0     C84512   3.368  10.556   7.498  1.0460  0.0429  0.3099
  641MOL0     C84513   3.237  10.502   7.492  0.7986 -0.9601  0.2301
  641MOL0     C84514   3.151  10.537   7.592  0.9522  0.0031 -0.0484
  641MOL0     O84515   3.015  10.507   7.609  0.1596 -0.3600 -0.3252
  641MOL0     C84516   2.937  10.456   7.502 -0.1504 -0.6510  1.0442
  641MOL0     C84517   2.918  10.563   7.394 -0.3579 -0.6675  0.0004
  641MOL0     C84518   2.831  10.515   7.289  0.4211 -0.3148 -0.4466
  641MOL0     C84519   2.791  10.612   7.180 -0.0560  0.1390 -0.9119
  641MOL0     C84520   2.700  10.549   7.071 -0.7820 -0.0380 -0.3180
  641MOL0     C84521   2.770  10.455   6.984 -0.3602 -0.0245 -0.5102
  641MOL0     C84522   2.687  10.411   6.869  0.0935  0.4072  0.1824
  641MOL0     C84523   2.751  10.288   6.793 -0.2914  0.2360 -0.1149
  641MOL0    Cl84524   2.918  10.335   6.747  0.3702 -0.2220  0.0270
  641MOL0     C84525   3.197  10.607   7.702 -0.1169  0.4276  0.4763
  641MOL0     C84526   3.333  10.654   7.710  0.6705 -0.2012 -0.5041
  641MOL0     O84527   3.581  10.501   7.763 -0.3583  0.0673  0.5416
  641MOL0     C84528   3.739  10.822   7.763 -0.0126 -0.0153 -0.2167
  641MOL0     C84529   3.859  10.880   7.808  0.0279  0.2806 -0.3370
  641MOL0     N84530   4.616  10.867   7.931  0.1354  0.2627 -0.7231
  641MOL0     N84531   4.683  10.915   7.833  0.3038 -0.0990 -0.4316
  641MOL0     C84532   5.823  11.137   7.722 -0.6436 -0.3587 -0.1879
  641MOL0     C84533   5.942  11.184   7.779 -0.0555 -0.0994  0.4786
  641MOL0     C84534   6.312  11.204   8.019 -0.4328  0.6193  0.4147
  641MOL0     C84535   6.425  11.146   7.950  0.5132  0.2893 -0.1098
  641MOL0     C84536   6.554  11.176   7.995  0.7761  0.5472  1.0928
  641MOL0     C84537   6.572  11.252   8.115 -0.1700  0.7476  0.1611
  641MOL0     O84538   6.709  11.278   8.140  0.2206 -0.7548 -0.3222
  641MOL0     C84539   6.748  11.393   8.218  0.3525 -0.6473  0.7094
  641MOL0     C84540   6.898  11.397   8.234 -0.9410 -0.0328  0.1496
  641MOL0     C84541   6.970  11.268   8.280 -0.5016 -0.1287 -0.0004
  641MOL0     C84542   6.907  11.211   8.411 -0.2269 -0.3820 -0.6518
  641MOL0     C84543   6.952  11.286   8.529  0.1163  0.2626  0.1464
  641MOL0     C84544   6.998  11.355   8.628  0.1389  0.4599 -0.2174
  641MOL0     C84545   6.468  11.314   8.181  0.5420  0.4418 -0.1653
  641MOL0     C84546   6.335  11.285   8.133 -0.0394  0.9741 -0.2885
  641MOL0     H84547   6.154  10.940   7.682  0.1058 -0.8312  0.4705
  641MOL0     H84548   5.936  10.849   7.583 -3.4136 -0.5123  1.9579
  641MOL0     H84549   5.590  11.088   7.502  1.5567 -2.3438 -2.4705
  641MOL0     H84550   5.563  11.083   7.683 -1.5060  0.4907 -1.0537
  641MOL0     H84551   5.451  10.882   7.685 -2.8030  1.3227  0.0288
  641MOL0     H84552   5.486  10.859   7.511 -2.2360  0.7424 -0.9286
  641MOL0     H84553   5.331  11.040   7.449 -0.2992  0.6191 -0.6421
  641MOL0     H84554   5.314  11.070   7.624 -0.9706  0.1175 -0.4393
  641MOL0     H84555   5.222  10.810   7.495 -2.7963  0.9282 -0.9158
  641MOL0     H84556   5.232  10.843   7.665 -2.4039 -0.0018 -0.0258
  641MOL0     H84557   5.073  11.009   7.454 -0.2376  2.7395  1.2156
  641MOL0     H84558   5.082  11.048   7.630 -2.0946 -0.3702  0.9747
  641MOL0     H84559   4.959  10.845   7.692 -0.0185 -0.7640 -0.3978
  641MOL0     H84560   4.967  10.777   7.527 -0.2173  1.5260 -1.8806
  641MOL0     H84561   4.818  11.039   7.609 -0.9198  1.0879 -0.5208
  641MOL0     H84562   4.833  10.958   7.446  2.0138 -3.7713 -1.1164
  641MOL0     H84563   4.756  10.744   7.562  1.2477  1.1837 -2.5421
  641MOL0     H84564   4.645  10.871   7.513 -0.0838 -0.6521 -1.1358
  641MOL0     H84565   4.514  10.661   7.701 -2.1788 -0.5793  2.0658
  641MOL0     H84566   4.549  10.621   8.065  0.7329  1.9840  0.1525
  641MOL0     H84567   4.470  10.549   7.921  1.4546  0.5301 -2.5716
  641MOL0     H84568   4.397  10.788   8.071  1.6418  0.0566 -1.2052
  641MOL0     H84569   4.303  10.630   8.099 -3.7661 -1.3210 -3.3076
  641MOL0     H84570   4.317  10.782   7.842  0.1129  0.6011  0.5275
  641MOL0     H84571   4.217  10.636   7.889 -2.0587  0.8885 -0.5212
  641MOL0     H84572   4.207  10.908   8.040 -1.5011  0.8254 -0.8613
  641MOL0     H84573   4.109  10.768   8.072  0.5205  0.8245  0.9367
  641MOL0     H84574   4.005  10.610   7.940  0.4475 -0.7455 -1.8766
  641MOL0     H84575   3.804  10.497   7.862 -0.9111  0.7494  0.0663
  641MOL0     H84576   3.428  10.539   7.409 -1.6537  0.0678 -1.6175
  641MOL0     H84577   3.203  10.437   7.411  0.5654  0.7664 -1.1195
  641MOL0     H84578   2.834  10.431   7.529 -1.2663  1.8836 -0.5330
  641MOL0     H84579   2.975  10.359   7.469  1.5632  0.2954  0.1347
  641MOL0     H84580   3.012  10.606   7.359 -0.8959 -0.7343 -1.6082
  641MOL0     H84581   2.876  10.651   7.443  0.7224 -0.2244  0.1480
  641MOL0     H84582   2.739  10.475   7.331 -1.1965  3.4397  0.0221
  641MOL0     H84583   2.875  10.427   7.242 -0.7752 -0.1870 -1.9061
  641MOL0     H84584   2.739  10.700   7.218  0.6594 -0.7545  2.4342
  641MOL0     H84585   2.883  10.654   7.136 -0.7110  1.4657 -1.0570
  641MOL0     H84586   2.669  10.634   7.009  3.9893  0.7367 -2.1305
  641MOL0     H84587   2.620  10.498   7.124 -0.3551  0.5670  0.9581
  641MOL0     H84588   2.795  10.364   7.040  3.3712  0.6029 -0.9187
  641MOL0     H84589   2.867  10.486   6.944 -0.5296 -0.0916 -0.9826
  641MOL0     H84590   2.595  10.368   6.910  1.4553 -4.0267 -0.8508
  641MOL0     H84591   2.665  10.490   6.796 -1.0956  0.6936  0.8267
  641MOL0     H84592   2.688  10.255   6.710 -1.1956  0.3809  0.4927
  641MOL0     H84593   2.748  10.203   6.862 -1.6277  0.3975  0.0496
  641MOL0     H84594   3.124  10.622   7.781 -2.5615 -0.7314 -1.4269
  641MOL0     H84595   3.362  10.710   7.797 -0.7611 -0.8781  0.4495
  641MOL0     H84596   3.660  10.878   7.714  0.3324  2.0484  1.4315
  641MOL0     H84597   3.887  10.984   7.795  0.7184  0.2276  0.6711
  641MOL0     H84598   5.739  11.203   7.740 -1.6698 -1.7540  0.2746
  641MOL0     H84599   5.951  11.280   7.830 -1.3881  0.1458  0.2859
  641MOL0     H84600   6.402  11.082   7.865 -1.2375  1.7311 -0.7814
  641MOL0     H84601   6.636  11.128   7.941  0.0464  0.5657 -0.0735
  641MOL0     H84602   6.701  11.391   8.317 -0.9744 -0.8656  0.0844
  641MOL0     H84603   6.725  11.490   8.172  2.0456 -0.6239 -0.1737
  641MOL0     H84604   6.944  11.427   8.140  0.3478 -1.7827  0.1824
  641MOL0     H84605   6.927  11.482   8.296 -2.8514  1.5854 -1.0549
  641MOL0     H84606   7.073  11.302   8.292  0.7320 -2.8031 -1.9920
  641MOL0     H84607   6.973  11.193   8.200 -2.5603  1.7709 -1.9905
  641MOL0     H84608   6.798  11.221   8.419 -0.1694  0.2694 -0.6651
  641MOL0     H84609   6.929  11.105   8.426  0.0350 -0.1084  1.0945
  641MOL0     H84610   7.035  11.395   8.721  1.3456  1.9531 -1.2798
  641MOL0     H84611   6.486  11.394   8.252  0.5638  2.1362 -2.0089
  641MOL0     H84612   6.243  11.329   8.171 -2.0354 -1.9722 -1.3631
  642MOL0     O84613   8.767   5.587   5.138  1.2779 -0.1557  0.0913
  642MOL0     C84614   8.726   5.541   5.245  0.4052 -0.0427  0.2818
  642MOL0     O84615   8.599   5.508   5.273 -0.3249 -0.0202 -0.0926
  642MOL0     C84616   8.496   5.480   5.193 -0.2909 -0.4702  0.4827
  642MOL0     C84617   8.400   5.411   5.257  0.0559 -0.0358  0.5478
  642MOL0     C84618   8.289   5.352   5.196 -0.8474 -1.0542 -0.6897
  642MOL0     C84619   8.274   5.355   5.058 -0.7029 -0.2180  0.2612
  642MOL0     O84620   8.165   5.303   5.001  0.4742 -0.6499  0.3368
  642MOL0     C84621   8.153   5.317   4.858  0.7693 -0.4196 -0.7462
  642MOL0     C84622   8.033   5.227   4.825 -0.0021  0.3577 -0.1409
  642MOL0     C84623   7.899   5.288   4.862 -0.1681  0.4203  0.6394
  642MOL0     C84624   7.795   5.176   4.838  0.0570 -0.8465  0.1480
  642MOL0     C84625   7.665   5.209   4.907  0.7394  0.7732  0.2527
  642MOL0     C84626   7.570   5.331   4.864 -0.1086  0.1223 -1.2675
  642MOL0     C84627   7.506   5.297   4.724 -0.2522  0.4206  0.8888
  642MOL0     C84628   7.426   5.428   4.693  1.4377 -0.9429  0.8667
  642MOL0     N84629   7.315   5.410   4.598  0.8479 -0.1998  0.7308
  642MOL0     C84630   7.198   5.337   4.628  0.0662 -0.6523 -0.6529
  642MOL0     C84631   7.102   5.382   4.535  0.5184 -1.1048 -0.3921
  642MOL0     C84632   6.957   5.331   4.536 -0.0835  0.4615  0.7551
  642MOL0     C84633   6.856   5.444   4.535 -1.1132 -0.5521 -0.1674
  642MOL0     C84634   6.726   5.397   4.593 -0.6024  0.2296 -0.3871
  642MOL0     C84635   6.615   5.499   4.588 -0.5393  0.1937 -0.2394
  642MOL0     O84636   6.490   5.439   4.633 -0.6872 -0.3104  0.2704
  642MOL0     C84637   6.384   5.515   4.606  0.6926 -0.0003 -0.2729
  642MOL0     C84638   6.267   5.469   4.650 -0.4140  0.1575 -1.0194
  642MOL0     C84639   6.146   5.527   4.633 -0.2729 -0.7167 -0.0631
  642MOL0     C84640   6.135   5.640   4.561  0.7366 -0.4623 -0.6476
  642MOL0     C84641   5.998   5.698   4.546 -0.8464 -0.4852  0.3214
  642MOL0     O84642   5.898   5.658   4.632  0.4895 -0.5869  0.3044
  642MOL0     C84643   5.766   5.696   4.625  0.5761  0.2590 -0.9866
  642MOL0     C84644   5.700   5.773   4.528 -0.0514 -0.4760  0.6686
  642MOL0     C84645   5.569   5.794   4.533 -0.0729  0.1198  0.3517
  642MOL0     C84646   5.484   5.740   4.627 -0.5361 -1.1005 -0.4524
  642MOL0     O84647   5.353   5.761   4.631  0.5216 -0.2753 -0.7932
  642MOL0     C84648   5.291   5.670   4.546  0.3708 -0.6859 -0.6914
  642MOL0     C84649   5.141   5.696   4.547 -0.8301 -0.0531 -0.2144
  642MOL0     C84650   5.084   5.633   4.670 -0.1597  0.5874 -0.1929
  642MOL0     C84651   5.053   5.478   4.652 -0.8103 -0.5515 -1.1544
  642MOL0     C84652   4.951   5.426   4.768  0.4184  0.8750  0.2258
  642MOL0     C84653   4.914   5.277   4.737 -0.5832  0.5105  0.6060
  642MOL0     C84654   4.820   5.217   4.826 -0.0497 -0.0068  0.2738
  642MOL0     C84655   4.802   5.061   4.811 -0.6563 -0.4958  0.9363
  642MOL0    Cl84656   4.704   5.028   4.658  0.1123 -0.3064  0.0356
  642MOL0     C84657   5.543   5.667   4.725 -0.5438 -0.3298  0.0087
  642MOL0     C84658   5.680   5.646   4.733 -0.7721  0.4226  0.0903
  642MOL0     O84659   5.993   5.785   4.461  0.2115  0.1506  0.9024
  642MOL0     C84660   6.254   5.701   4.510 -0.5361  0.3613  0.1735
  642MOL0     C84661   6.380   5.639   4.535  0.1020 -0.6866 -0.6049
  642MOL0     N84662   7.163   5.474   4.451 -0.2614 -0.8838  0.0930
  642MOL0     N84663   7.284   5.496   4.495  0.3510  0.2752  0.0259
  642MOL0     C84664   8.379   5.421   4.985 -1.0518  0.0499  0.1753
  642MOL0     C84665   8.492   5.484   5.050  0.9509  0.3375  0.1030
  642MOL0     C84666   8.821   5.535   5.350 -0.8054  0.2619 -0.1314
  642MOL0     C84667   8.808   5.451   5.462  0.0145  0.2177  0.7984
  642MOL0     C84668   8.906   5.452   5.561  0.2103 -0.7375 -0.7201
  642MOL0     C84669   9.009   5.543   5.572  0.6276 -0.0962  0.1959
  642MOL0     O84670   9.098   5.548   5.676 -0.1386  0.4113 -0.2511
  642MOL0     C84671   9.033   5.586   5.798 -0.2176  0.5949  1.1636
  642MOL0     C84672   9.099   5.512   5.916  0.1480 -0.4526 -0.0049
  642MOL0     C84673   9.245   5.565   5.932 -0.8609  0.0617 -0.4060
  642MOL0     C84674   9.309   5.518   6.071 -0.0089 -0.7292  0.1757
  642MOL0     C84675   9.312   5.379   6.087  0.5814  0.6177 -0.7038
  642MOL0     C84676   9.306   5.252   6.078 -0.3842 -0.2625 -0.5866
  642MOL0     C84677   9.019   5.631   5.467 -0.4830 -1.2375  0.0630
  642MOL0     C84678   8.928   5.626   5.360  0.0340  0.6337 -0.3428
  642MOL0     H84679   8.391   5.419   5.365 -0.9232  0.5440  0.4384
  642MOL0     H84680   8.202   5.318   5.252 -2.0395 -0.9487 -2.3873
  642MOL0     H84681   8.236   5.274   4.802  1.5131 -1.3375  0.9779
  642MOL0     H84682   8.119   5.414   4.821 -2.3155 -1.5577 -1.1991
  642MOL0     H84683   8.047   5.125   4.862  0.8966 -0.5254 -2.6532
  642MOL0     H84684   8.026   5.223   4.716 -1.5625  3.0640 -0.2226
  642MOL0     H84685   7.868   5.381   4.813  0.7878  2.1385  3.0656
  642MOL0     H84686   7.901   5.310   4.969 -3.2613  0.4836  0.7599
  642MOL0     H84687   7.785   5.163   4.730  3.3000  0.9960 -0.5367
  642MOL0     H84688   7.835   5.084   4.882  1.8703  0.6459  1.8518
  642MOL0     H84689   7.682   5.223   5.014 -1.7964 -1.4960  1.0666
  642MOL0     H84690   7.601   5.121   4.903 -1.3754  2.2544 -0.5761
  642MOL0     H84691   7.626   5.425   4.871 -0.1957  0.1503 -0.9400
  642MOL0     H84692   7.497   5.337   4.945  0.3209 -2.1388 -0.6393
  642MOL0     H84693   7.580   5.274   4.647  0.8821  0.2401  2.0042
  642MOL0     H84694   7.443   5.208   4.732 -1.5958  1.4246  1.9887
  642MOL0     H84695   7.498   5.494   4.644 -0.8910  1.4958  0.4866
  642MOL0     H84696   7.387   5.477   4.782 -0.6451  1.3621 -1.1522
  642MOL0     H84697   7.184   5.266   4.709 -1.0275  0.5328  0.2319
  642MOL0     H84698   6.951   5.276   4.631  0.0978 -0.2147  0.3835
  642MOL0     H84699   6.941   5.247   4.468  0.7734 -0.1777  1.3176
  642MOL0     H84700   6.836   5.468   4.430 -0.1457 -0.4756 -0.3380
  642MOL0     H84701   6.896   5.531   4.587 -3.6328 -0.5115  1.8791
  642MOL0     H84702   6.687   5.306   4.546  2.2648 -2.2188  1.5861
  642MOL0     H84703   6.736   5.376   4.700  0.8573 -0.9733 -0.7269
  642MOL0     H84704   6.604   5.531   4.484  2.1772  1.6571 -0.1722
  642MOL0     H84705   6.649   5.590   4.638  1.4271 -0.6802  0.1018
  642MOL0     H84706   6.272   5.375   4.704  1.9781  0.6019 -0.3830
  642MOL0     H84707   6.061   5.489   4.690 -2.3056 -0.7432 -2.8991
  642MOL0     H84708   5.753   5.809   4.441 -0.4319 -1.0877  0.1754
  642MOL0     H84709   5.533   5.859   4.454  1.3473 -1.3682 -1.6289
  642MOL0     H84710   5.303   5.568   4.582  0.8837 -0.2408  0.4514
  642MOL0     H84711   5.323   5.671   4.442 -1.6003  1.6720 -1.3832
  642MOL0     H84712   5.107   5.647   4.456  0.5628  1.1251 -1.4208
  642MOL0     H84713   5.113   5.802   4.547 -2.7953 -0.5414  0.0601
  642MOL0     H84714   4.987   5.679   4.689 -0.0162  0.2105  1.5464
  642MOL0     H84715   5.156   5.649   4.750 -0.1586 -0.2699 -0.0118
  642MOL0     H84716   5.010   5.451   4.555 -2.0854 -3.2657  0.0636
  642MOL0     H84717   5.146   5.422   4.650 -1.2296 -1.2405 -1.7385
  642MOL0     H84718   4.859   5.484   4.765  0.5478  1.4477  3.3550
  642MOL0     H84719   4.994   5.445   4.867  2.2495 -0.3066 -0.2950
  642MOL0     H84720   5.001   5.213   4.751 -0.8021  0.4993  2.0887
  642MOL0     H84721   4.869   5.274   4.638 -1.8229  1.5607  1.1090
  642MOL0     H84722   4.826   5.247   4.931 -0.3348  1.1169 -0.0181
  642MOL0     H84723   4.722   5.253   4.793  0.4640 -0.9114 -2.4627
  642MOL0     H84724   4.754   5.022   4.902 -2.2450 -0.5029  0.1332
  642MOL0     H84725   4.896   5.006   4.804  0.1431  0.8489  0.7045
  642MOL0     H84726   5.468   5.638   4.798 -0.9313  2.3363  0.7492
  642MOL0     H84727   5.728   5.595   4.816 -0.0880  0.7400 -0.0988
  642MOL0     H84728   6.248   5.788   4.445 -0.9751  0.8282  0.8193
  642MOL0     H84729   6.471   5.691   4.504  0.2355  0.7440  1.9658
  642MOL0     H84730   8.374   5.439   4.878 -1.6586  0.4972  0.2732
  642MOL0     H84731   8.566   5.537   4.991 -0.6102  2.3800 -0.1210
  642MOL0     H84732   8.730   5.376   5.464  2.1260 -2.1608 -0.4620
  642MOL0     H84733   8.885   5.377   5.637 -2.0422 -1.1766 -1.7032
  642MOL0     H84734   8.929   5.554   5.793  0.7186 -2.7970 -3.9207
  642MOL0     H84735   9.041   5.693   5.816 -2.5204  1.2894 -1.3543
  642MOL0     H84736   9.054   5.532   6.013  0.5395  2.6298 -0.3391
  642MOL0     H84737   9.085   5.409   5.885 -2.3638  0.3394 -1.8138
  642MOL0     H84738   9.255   5.674   5.926  0.4839  0.0095  0.4192
  642MOL0     H84739   9.306   5.523   5.852 -0.7443  2.0833 -1.4518
  642MOL0     H84740   9.412   5.554   6.076  0.0926 -0.8744 -0.7273
  642MOL0     H84741   9.251   5.560   6.154 -0.9615  0.3269 -0.9976
  642MOL0     H84742   9.297   5.146   6.064  2.5499 -0.7155  0.2045
  642MOL0     H84743   9.102   5.701   5.476 -3.2024  2.0206  1.9780
  642MOL0     H84744   8.951   5.683   5.271  0.4383 -0.6339 -1.0840
  643MOL0     O84745   9.982   6.854   1.101  0.0862 -0.5701  0.0791
  643MOL0     C84746  10.068   6.772   1.137  0.3277 -0.2476  0.5951
  643MOL0     O84747  10.047   6.662   1.217 -0.0412 -0.2252 -0.0989
  643MOL0     C84748   9.929   6.633   1.283  0.7972 -0.3105  0.6474
  643MOL0     C84749   9.817   6.726   1.280  0.1291 -0.3413  0.0643
  643MOL0     C84750   9.696   6.684   1.338  0.7347  1.1758 -0.0044
  643MOL0     C84751   9.674   6.553   1.389 -0.5681  0.0098  0.4637
  643MOL0     O84752   9.557   6.526   1.449 -0.2328  0.0126  0.2041
  643MOL0     C84753   9.526   6.392   1.440  1.2071  0.6244  0.4484
  643MOL0     C84754   9.381   6.387   1.494  0.4944 -0.1928  0.3351
  643MOL0     C84755   9.352   6.242   1.498  0.2351 -0.2085  0.1369
  643MOL0     C84756   9.200   6.217   1.524 -0.3608 -0.3766 -0.1065
  643MOL0     C84757   9.118   6.229   1.401 -0.5740  0.2849 -0.0807
  643MOL0     C84758   8.967   6.189   1.412  0.6422  0.5911  0.0844
  643MOL0     C84759   8.900   6.231   1.542  0.5971 -1.0427  1.0571
  643MOL0     C84760   8.755   6.197   1.519  0.4908 -0.6742 -0.1584
  643MOL0     N84761   8.686   6.197   1.649  0.3572 -0.0686  0.1897
  643MOL0     C84762   8.650   6.306   1.710 -0.0432 -0.2614 -0.4857
  643MOL0     C84763   8.570   6.252   1.808  0.6701  0.1019  0.6925
  643MOL0     C84764   8.471   6.334   1.901 -0.0393  0.1064 -1.1104
  643MOL0     C84765   8.464   6.484   1.860  0.6850  0.5758  1.0595
  643MOL0     C84766   8.412   6.574   1.970  0.3556 -0.5589  0.4603
  643MOL0     C84767   8.263   6.540   2.009  0.5358 -0.1352  0.4752
  643MOL0     O84768   8.213   6.643   2.096 -0.4036 -0.3445 -0.4212
  643MOL0     C84769   8.076   6.654   2.124 -0.2364 -0.7050 -0.3442
  643MOL0     C84770   8.031   6.766   2.203  0.1516  0.3229  0.7229
  643MOL0     C84771   7.898   6.776   2.244  0.3001 -0.0157 -0.3186
  643MOL0     C84772   7.808   6.675   2.219  0.8880 -0.1414 -0.2833
  643MOL0     C84773   7.664   6.675   2.279  0.1059 -0.3448  0.7716
  643MOL0     O84774   7.607   6.796   2.301  0.0611  0.6994 -0.0243
  643MOL0     C84775   7.468   6.797   2.314 -0.6705 -0.1795 -0.6361
  643MOL0     C84776   7.410   6.907   2.245  0.9684  0.6753  0.2034
  643MOL0     C84777   7.270   6.940   2.254 -0.3562  0.3903 -1.2008
  643MOL0     C84778   7.189   6.857   2.339 -0.6566 -0.9935  0.1584
  643MOL0     O84779   7.055   6.883   2.348 -0.2710  0.1115  0.1819
  643MOL0     C84780   6.992   6.879   2.475 -0.0769 -0.1458 -0.5498
  643MOL0     C84781   6.845   6.926   2.465 -1.0279  0.9919 -0.2830
  643MOL0     C84782   6.785   6.907   2.604  0.5633 -0.6363  0.5341
  643MOL0     C84783   6.657   6.986   2.625  1.4753 -0.7540  0.3238
  643MOL0     C84784   6.534   6.921   2.551 -1.1059 -0.1691  0.2858
  643MOL0     C84785   6.397   6.962   2.611  0.1078 -0.0030  0.3244
  643MOL0     C84786   6.277   6.877   2.567 -0.9102 -0.6718 -0.1101
  643MOL0     C84787   6.149   6.943   2.607  0.4281  0.3673 -1.3401
  643MOL0    Cl84788   6.014   6.831   2.565 -0.1569 -0.1086 -0.5103
  643MOL0     C84789   7.245   6.752   2.405 -0.3299 -0.5389  0.0402
  643MOL0     C84790   7.384   6.727   2.401 -0.4214  0.0512  0.3896
  643MOL0     O84791   7.604   6.565   2.268 -1.3410 -0.0114  0.0990
  643MOL0     C84792   7.848   6.562   2.148 -0.0985  0.5548  0.6812
  643MOL0     C84793   7.978   6.560   2.095  0.3492  0.1311  0.5524
  643MOL0     N84794   8.570   6.120   1.802  0.1273 -0.3505 -0.2184
  643MOL0     N84795   8.643   6.081   1.706 -0.2933  0.2056  0.5009
  643MOL0     C84796   9.788   6.473   1.390  0.9554  0.2104 -0.5643
  643MOL0     C84797   9.903   6.501   1.339 -0.0700  0.4252  0.3293
  643MOL0     C84798  10.210   6.795   1.095 -0.1811  0.4030  0.0306
  643MOL0     C84799  10.251   6.898   1.001 -0.4809  0.4336 -0.3031
  643MOL0     C84800  10.386   6.897   0.952  0.0681  0.3202 -0.3353
  643MOL0     C84801  10.484   6.823   1.021 -0.2279  0.2636  0.6534
  643MOL0     O84802  10.622   6.818   0.998  0.7538  0.0547  0.0102
  643MOL0     C84803  10.688   6.915   0.916 -0.5784  0.5862  0.2923
  643MOL0     C84804  10.700   7.061   0.973  0.0577 -0.3783 -0.7106
  643MOL0     C84805  10.793   7.063   1.099  0.0906  0.3162 -0.3819
  643MOL0     C84806  10.937   7.071   1.060  0.9442 -0.4176  0.4878
  643MOL0     C84807  11.017   7.059   1.184  0.7779  0.1281  0.1717
  643MOL0     C84808  11.077   7.050   1.288  0.1462  0.6928 -0.1569
  643MOL0     C84809  10.442   6.734   1.113  0.7739  0.2976 -1.2887
  643MOL0     C84810  10.311   6.710   1.151  0.1946 -0.0361 -0.7785
  643MOL0     H84811   9.811   6.824   1.234  1.1494  0.1375  0.8975
  643MOL0     H84812   9.617   6.758   1.338  0.6680  1.1143  0.6953
  643MOL0     H84813   9.591   6.334   1.506  3.0184  0.8915 -1.0173
  643MOL0     H84814   9.534   6.363   1.335 -2.2594  1.3418 -0.1413
  643MOL0     H84815   9.317   6.441   1.424  1.0041  0.8442  0.6584
  643MOL0     H84816   9.361   6.438   1.588 -0.2960 -2.0556  1.2258
  643MOL0     H84817   9.414   6.187   1.569 -1.4686 -2.1855  0.1786
  643MOL0     H84818   9.377   6.190   1.405 -1.1280 -3.3142  1.3959
  643MOL0     H84819   9.199   6.118   1.571 -2.3086  0.1561  1.0854
  643MOL0     H84820   9.161   6.292   1.594  0.8191  0.4977 -0.3518
  643MOL0     H84821   9.157   6.174   1.314 -1.1773  1.2806 -1.0027
  643MOL0     H84822   9.110   6.335   1.376 -0.4067  0.6777  1.4479
  643MOL0     H84823   8.960   6.080   1.407  1.3940  0.4882  1.0477
  643MOL0     H84824   8.913   6.233   1.328  0.6724  1.4491  0.5068
  643MOL0     H84825   8.946   6.164   1.615  1.5730 -0.6398  0.8288
  643MOL0     H84826   8.912   6.336   1.571  1.8916 -1.5083  2.3700
  643MOL0     H84827   8.751   6.093   1.484  0.6467 -0.9956  0.7567
  643MOL0     H84828   8.706   6.261   1.445  0.1194  0.2152  0.8356
  643MOL0     H84829   8.666   6.408   1.678 -2.4466 -0.7065 -3.5962
  643MOL0     H84830   8.514   6.314   1.999 -0.6526  0.9783 -0.6473
  643MOL0     H84831   8.370   6.292   1.904  1.4153 -3.7930  2.4494
  643MOL0     H84832   8.400   6.493   1.771  1.4218  3.0096  0.7135
  643MOL0     H84833   8.561   6.527   1.833  1.7509 -2.6790 -0.8985
  643MOL0     H84834   8.473   6.551   2.058 -0.1106 -1.1182  0.6439
  643MOL0     H84835   8.412   6.680   1.944  1.8598 -0.1908  1.7646
  643MOL0     H84836   8.260   6.443   2.060  2.0714 -0.6306 -0.2925
  643MOL0     H84837   8.212   6.542   1.912  2.1929  2.5602 -0.4580
  643MOL0     H84838   8.105   6.840   2.231  3.8775 -2.4153 -0.9051
  643MOL0     H84839   7.885   6.856   2.316 -0.2648 -0.3751 -0.0123
  643MOL0     H84840   7.468   6.981   2.189  0.1132  3.0240  2.2387
  643MOL0     H84841   7.233   7.038   2.227  0.4309  1.1005  0.1763
  643MOL0     H84842   7.052   6.944   2.539  0.5749 -1.8661  0.6710
  643MOL0     H84843   6.996   6.782   2.526  1.2611  0.2860  0.2070
  643MOL0     H84844   6.806   6.867   2.382 -0.1030 -2.7292  1.7124
  643MOL0     H84845   6.844   7.030   2.430 -1.1437  0.4327 -2.0397
  643MOL0     H84846   6.861   6.956   2.665  1.8360  0.1948 -1.6176
  643MOL0     H84847   6.770   6.800   2.624  0.7551 -1.1589 -1.7916
  643MOL0     H84848   6.630   6.991   2.731 -3.4231 -0.1354 -0.7338
  643MOL0     H84849   6.660   7.090   2.591  2.0087 -0.6428  0.6809
  643MOL0     H84850   6.528   6.813   2.565 -0.7239 -0.1912  0.2784
  643MOL0     H84851   6.539   6.940   2.443 -0.4734 -3.6420 -0.4141
  643MOL0     H84852   6.383   7.067   2.585  1.8747  0.1431 -0.1254
  643MOL0     H84853   6.409   6.953   2.720  1.2909 -0.3550  0.1730
  643MOL0     H84854   6.285   6.866   2.458  2.7603 -0.7560  0.0328
  643MOL0     H84855   6.287   6.783   2.621  0.1960  0.0968  1.0684
  643MOL0     H84856   6.133   7.037   2.554 -1.7188 -0.2067 -1.8140
  643MOL0     H84857   6.152   6.960   2.715 -1.6462  4.2968 -1.7192
  643MOL0     H84858   7.174   6.691   2.460  0.5465 -0.3717  1.4168
  643MOL0     H84859   7.445   6.656   2.456  0.1896 -0.6265 -1.1022
  643MOL0     H84860   7.780   6.482   2.121  1.6353 -0.6913 -0.2041
  643MOL0     H84861   8.012   6.488   2.022 -1.2214 -2.7668  2.4849
  643MOL0     H84862   9.785   6.381   1.448  0.7459  0.5626 -0.0075
  643MOL0     H84863   9.981   6.426   1.352  0.0872  0.7165  1.0737
  643MOL0     H84864  10.171   6.961   0.963 -1.1617 -0.8869 -1.1248
  643MOL0     H84865  10.424   6.951   0.866  1.3434 -1.8744 -1.2258
  643MOL0     H84866  10.640   6.907   0.818  2.4138 -2.4424 -1.1633
  643MOL0     H84867  10.789   6.877   0.895 -0.6591  1.3206 -1.5973
  643MOL0     H84868  10.739   7.139   0.907 -0.6940  1.9463  1.3907
  643MOL0     H84869  10.599   7.100   0.991  0.2696 -0.2367  0.2362
  643MOL0     H84870  10.772   6.968   1.150 -1.1108 -0.7380 -2.6720
  643MOL0     H84871  10.772   7.149   1.163 -0.8363  0.5121 -0.9314
  643MOL0     H84872  10.956   6.979   1.005 -0.4145 -0.7372  0.5134
  643MOL0     H84873  10.965   7.165   1.011 -1.5188  1.5758  2.5973
  643MOL0     H84874  11.122   7.035   1.384  1.3726 -0.2972 -0.8576
  643MOL0     H84875  10.519   6.672   1.159  1.3016  1.4278 -0.6069
  643MOL0     H84876  10.292   6.641   1.232  1.8122  1.4108  0.9171
  644MOL0     O84877   3.560   7.217   6.646 -0.7509 -0.2754  0.1864
  644MOL0     C84878   3.562   7.341   6.626 -0.6812  0.3206 -0.1502
  644MOL0     O84879   3.455   7.417   6.600  0.0386  1.0301  0.1151
  644MOL0     C84880   3.321   7.368   6.582 -0.0275  0.2970 -0.4567
  644MOL0     C84881   3.219   7.457   6.603  0.5951  0.2216  0.5502
  644MOL0     C84882   3.085   7.417   6.583 -0.2042  0.5392 -0.2234
  644MOL0     C84883   3.059   7.282   6.548 -0.2896 -0.3204  0.2569
  644MOL0     O84884   2.939   7.230   6.529  1.2662 -0.3914 -0.2013
  644MOL0     C84885   2.823   7.319   6.520  0.0643 -0.1958 -0.2496
  644MOL0     C84886   2.711   7.250   6.441 -0.8792  0.4644 -0.1589
  644MOL0     C84887   2.581   7.314   6.492  0.0946 -1.3111 -0.4903
  644MOL0     C84888   2.463   7.279   6.412 -0.3105  0.5213  0.7063
  644MOL0     C84889   2.444   7.124   6.396  0.1005 -0.0627  0.6778
  644MOL0     C84890   2.421   7.048   6.536  0.6416  0.3583  0.4658
  644MOL0     C84891   2.376   6.905   6.490  0.3625 -0.1735 -0.2859
  644MOL0     C84892   2.369   6.811   6.608  0.5866  0.6227  0.9711
  644MOL0     N84893   2.379   6.673   6.568 -0.0310 -0.5739  0.5605
  644MOL0     C84894   2.471   6.631   6.475  0.6378 -0.1056 -0.7622
  644MOL0     C84895   2.466   6.495   6.485 -0.1012 -0.1819 -0.5945
  644MOL0     C84896   2.545   6.397   6.405  0.0622  0.4408 -0.9820
  644MOL0     C84897   2.458   6.338   6.298 -0.8224 -1.1766 -0.2409
  644MOL0     C84898   2.529   6.222   6.224 -0.0349 -0.7970  0.4384
  644MOL0     C84899   2.567   6.254   6.086 -0.4509  0.0337  0.2539
  644MOL0     O84900   2.675   6.355   6.098  0.4893  0.4431  0.1630
  644MOL0     C84901   2.778   6.349   6.017 -0.0727  0.0401 -0.2984
  644MOL0     C84902   2.890   6.420   6.061 -0.7692  0.4616 -0.3387
  644MOL0     C84903   3.006   6.421   5.985  0.1910 -0.0913 -1.0870
  644MOL0     C84904   3.018   6.366   5.860  0.5453 -0.4148 -0.3755
  644MOL0     C84905   3.141   6.383   5.773 -0.9289 -0.2791 -0.8420
  644MOL0     O84906   3.252   6.448   5.821 -1.0373 -0.6357 -0.1769
  644MOL0     C84907   3.358   6.450   5.744 -0.3621  0.2846 -0.0033
  644MOL0     C84908   3.417   6.335   5.693  0.3383  0.9320  1.0837
  644MOL0     C84909   3.537   6.342   5.619  0.0170 -0.0632 -0.2648
  644MOL0     C84910   3.598   6.457   5.577 -0.5544 -0.3027  1.3051
  644MOL0     O84911   3.699   6.452   5.484 -0.5635 -0.1414  1.1128
  644MOL0     C84912   3.762   6.323   5.459 -0.1523 -1.0928  0.2601
  644MOL0     C84913   3.902   6.334   5.408  0.0191 -0.3016  0.5051
  644MOL0     C84914   3.930   6.442   5.310  0.2629  0.0322  0.1134
  644MOL0     C84915   4.075   6.436   5.274  0.1249  0.2321 -0.5872
  644MOL0     C84916   4.102   6.542   5.171 -0.3428 -0.3932  0.2575
  644MOL0     C84917   4.253   6.589   5.168  0.8162 -0.0715  0.3464
  644MOL0     C84918   4.346   6.466   5.135 -0.0435 -0.1305 -0.1508
  644MOL0     C84919   4.475   6.511   5.085  0.4113 -0.4430  0.4697
  644MOL0    Cl84920   4.539   6.386   4.977 -0.1811 -0.0374  0.0319
  644MOL0     C84921   3.553   6.571   5.635  0.1108 -0.7415  0.0720
  644MOL0     C84922   3.434   6.570   5.721  0.0868  0.1194 -0.1670
  644MOL0     O84923   3.128   6.348   5.652 -0.0592  0.4398  0.4641
  644MOL0     C84924   2.900   6.296   5.821  0.8614  0.5493 -0.8328
  644MOL0     C84925   2.791   6.280   5.901  0.3348  0.3311  0.5256
  644MOL0     N84926   2.385   6.448   6.592  0.1335 -0.9070 -0.2104
  644MOL0     N84927   2.339   6.561   6.644 -0.2457  0.3500 -0.2369
  644MOL0     C84928   3.167   7.189   6.534  0.5964 -0.3409  0.7007
  644MOL0     C84929   3.295   7.240   6.548  0.0423  0.6825  0.1152
  644MOL0     C84930   3.697   7.404   6.660 -0.8145 -0.0915  0.1938
  644MOL0     C84931   3.703   7.532   6.704  0.3295  0.3536  0.0511
  644MOL0     C84932   3.823   7.597   6.721  0.4084  1.0213  0.1474
  644MOL0     C84933   3.945   7.528   6.691  0.4294  0.3929  1.2512
  644MOL0     O84934   4.057   7.605   6.707  0.8160 -0.5583  0.1074
  644MOL0     C84935   4.184   7.545   6.738  0.3047  1.3131 -0.1823
  644MOL0     C84936   4.294   7.637   6.685 -1.0387 -0.0351  0.3418
  644MOL0     C84937   4.431   7.615   6.767 -0.1295  0.0646 -0.5379
  644MOL0     C84938   4.546   7.701   6.718 -0.4083  0.0639  0.1497
  644MOL0     C84939   4.523   7.846   6.753 -0.1685 -0.2443  0.7587
  644MOL0     C84940   4.484   7.954   6.777  0.0040  0.0336 -0.2443
  644MOL0     C84941   3.935   7.396   6.654  0.0837  0.6887 -0.0278
  644MOL0     C84942   3.814   7.334   6.633  0.4728  0.1839  0.0034
  644MOL0     H84943   3.244   7.560   6.628  0.3274  0.2873  0.5586
  644MOL0     H84944   3.009   7.494   6.589  0.1935  0.8664  0.8276
  644MOL0     H84945   2.849   7.404   6.457 -1.2439  0.3316 -0.1270
  644MOL0     H84946   2.801   7.351   6.623 -0.3171 -0.8073 -0.1366
  644MOL0     H84947   2.714   7.141   6.450  0.9345  0.3534 -1.5423
  644MOL0     H84948   2.729   7.270   6.335  1.9834 -3.5316 -0.6424
  644MOL0     H84949   2.588   7.423   6.485 -3.6953 -0.9906 -1.7071
  644MOL0     H84950   2.566   7.290   6.598  0.1074  2.1400  0.4289
  644MOL0     H84951   2.380   7.333   6.459  0.7949  5.3258 -2.1580
  644MOL0     H84952   2.472   7.328   6.315  0.3466 -0.5483  0.2182
  644MOL0     H84953   2.530   7.088   6.339  0.4185  2.6887 -0.7178
  644MOL0     H84954   2.356   7.111   6.333  0.2439 -0.8747  0.6282
  644MOL0     H84955   2.346   7.104   6.593 -0.4140  0.0726 -0.5960
  644MOL0     H84956   2.516   7.042   6.589  0.0769 -1.8512  1.3795
  644MOL0     H84957   2.275   6.913   6.448  0.0788 -1.0438  0.1941
  644MOL0     H84958   2.440   6.874   6.407 -0.5853 -0.4352 -0.9386
  644MOL0     H84959   2.270   6.836   6.647 -0.8857 -1.6585 -1.0006
  644MOL0     H84960   2.444   6.833   6.684 -0.5676  2.2275  1.7078
  644MOL0     H84961   2.531   6.677   6.397  0.0642 -0.9825 -1.7436
  644MOL0     H84962   2.575   6.310   6.464 -2.9319 -0.2033 -0.2620
  644MOL0     H84963   2.640   6.444   6.376  2.1843 -0.1914  3.8735
  644MOL0     H84964   2.446   6.416   6.222  1.2730  0.8611  1.3344
  644MOL0     H84965   2.359   6.313   6.336 -1.8687  2.8950  0.2643
  644MOL0     H84966   2.613   6.186   6.285 -1.3157  0.2545  2.9335
  644MOL0     H84967   2.465   6.136   6.204 -0.4966  0.2894 -3.9606
  644MOL0     H84968   2.484   6.299   6.029 -0.7481  0.6804  1.1810
  644MOL0     H84969   2.591   6.166   6.026 -1.1640  0.3829 -0.5728
  644MOL0     H84970   2.881   6.466   6.160  0.1810 -1.6680  0.8041
  644MOL0     H84971   3.087   6.470   6.039 -0.6296 -1.4926  1.5968
  644MOL0     H84972   3.378   6.244   5.737 -0.0820  0.9729  0.8044
  644MOL0     H84973   3.567   6.244   5.585 -0.5164 -0.0010 -0.9419
  644MOL0     H84974   3.698   6.267   5.391  0.5817 -1.9399  0.2547
  644MOL0     H84975   3.773   6.262   5.548 -0.6041 -0.8225  0.5074
  644MOL0     H84976   3.922   6.242   5.352  3.4431  2.0071 -2.5392
  644MOL0     H84977   3.973   6.346   5.490  1.7553  0.5984 -1.0479
  644MOL0     H84978   3.904   6.538   5.355  0.5916 -0.2632  0.9457
  644MOL0     H84979   3.873   6.425   5.218 -1.8632 -1.4347  1.5996
  644MOL0     H84980   4.127   6.464   5.366 -0.4539  1.9658 -0.7575
  644MOL0     H84981   4.110   6.336   5.245 -1.0980 -0.2849 -0.3498
  644MOL0     H84982   4.061   6.638   5.204  2.3517 -0.0854  3.1932
  644MOL0     H84983   4.071   6.515   5.070 -1.1127  1.7160 -0.1149
  644MOL0     H84984   4.280   6.641   5.260  2.7676  3.2413 -1.8562
  644MOL0     H84985   4.252   6.661   5.085 -0.1580  0.0137  0.4148
  644MOL0     H84986   4.359   6.395   5.217  0.5198 -0.3847 -0.4545
  644MOL0     H84987   4.290   6.401   5.066  0.1313 -4.5104  3.3595
  644MOL0     H84988   4.542   6.528   5.170 -1.6467 -0.9754  2.2732
  644MOL0     H84989   4.459   6.605   5.031  0.4740  1.2305  3.1485
  644MOL0     H84990   3.609   6.662   5.619 -0.0365 -0.3908  1.4640
  644MOL0     H84991   3.406   6.662   5.770 -1.6760 -0.4253 -0.0731
  644MOL0     H84992   2.893   6.257   5.719  0.5383  0.3957 -0.7538
  644MOL0     H84993   2.702   6.231   5.863 -0.7361  0.4684  2.7645
  644MOL0     H84994   3.154   7.086   6.503  0.4773 -0.5870  1.5552
  644MOL0     H84995   3.373   7.166   6.531 -1.5504 -1.1545  0.4037
  644MOL0     H84996   3.608   7.582   6.714  0.8743  1.7574 -1.3245
  644MOL0     H84997   3.828   7.699   6.757  2.5559  1.0681 -0.1292
  644MOL0     H84998   4.200   7.441   6.708 -3.1543  0.5350  0.2716
  644MOL0     H84999   4.181   7.549   6.847  0.6409  0.9141 -0.1564
  644MOL0     H85000   4.318   7.624   6.579  2.8083 -3.7382  1.3639
  644MOL0     H85001   4.250   7.736   6.696  0.2148  0.7078 -0.9302
  644MOL0     H85002   4.460   7.509   6.762 -1.4040 -0.3342  0.0480
  644MOL0     H85003   4.414   7.631   6.874 -1.6155 -0.1461 -0.7198
  644MOL0     H85004   4.632   7.660   6.772 -1.1420  0.0363  1.3185
  644MOL0     H85005   4.540   7.698   6.609 -3.4243 -0.7211  0.2448
  644MOL0     H85006   4.432   8.045   6.802 -1.6901 -0.7065 -0.9401
  644MOL0     H85007   4.024   7.342   6.622 -0.1957 -0.6800  1.3509
  644MOL0     H85008   3.795   7.228   6.619 -0.8654 -0.4620  4.8224
  645MOL0     O85009   2.227   2.358  10.243  0.2199 -0.6457 -0.1399
  645MOL0     C85010   2.229   2.252  10.186 -0.0914  0.7393  0.5337
  645MOL0     O85011   2.131   2.165  10.171 -0.5420  0.1793  0.2707
  645MOL0     C85012   2.010   2.190  10.229 -0.1015  0.2953  0.6750
  645MOL0     C85013   1.974   2.151  10.355 -0.3444 -0.1502 -0.3686
  645MOL0     C85014   1.844   2.178  10.405 -0.9250 -0.4448 -1.2490
  645MOL0     C85015   1.754   2.260  10.329  0.7812 -0.1210 -0.0929
  645MOL0     O85016   1.622   2.277  10.365  0.1282 -0.1052 -0.1511
  645MOL0     C85017   1.601   2.279  10.506 -0.8947 -0.4460  0.3395
  645MOL0     C85018   1.496   2.379  10.543  0.2411 -0.7315 -0.1212
  645MOL0     C85019   1.356   2.306  10.515 -0.5461  0.4629 -0.1147
  645MOL0     C85020   1.244   2.401  10.561 -0.9252  0.3007 -0.2162
  645MOL0     C85021   1.112   2.344  10.525  0.8978 -1.0334 -0.3135
  645MOL0     C85022   1.001   2.414  10.598 -0.6084  0.6781  0.5975
  645MOL0     C85023   0.873   2.349  10.565 -0.0501  0.0001  0.4919
  645MOL0     C85024   0.827   2.379  10.418  0.0106 -0.5092  0.0202
  645MOL0     N85025   0.689   2.347  10.384 -0.1488  0.3674 -0.1822
  645MOL0     C85026   0.574   2.407  10.431  0.4127  0.3480 -0.1104
  645MOL0     C85027   0.482   2.341  10.362  0.1236 -0.5520  0.6516
  645MOL0     C85028   0.338   2.369  10.381 -0.5885  0.5000  0.2771
  645MOL0     C85029   0.246   2.385  10.260 -0.1546 -0.7364 -0.0437
  645MOL0     C85030   0.096   2.417  10.294 -0.7460 -0.7675 -0.2336
  645MOL0     C85031   0.074   2.559  10.346  0.3849 -0.4907 -0.6434
  645MOL0     O85032  -0.040   2.573  10.430 -0.3593  0.6371  0.1551
  645MOL0     C85033  -0.161   2.580  10.366 -1.1138 -0.8178  0.4037
  645MOL0     C85034  -0.178   2.595  10.225  0.4978 -0.5250 -0.0558
  645MOL0     C85035  -0.305   2.610  10.169  0.3280 -0.3852 -0.5390
  645MOL0     C85036  -0.423   2.600  10.247 -0.2056  0.3812 -0.7854
  645MOL0     C85037  -0.560   2.612  10.201 -0.1274  0.0347 -0.2265
  645MOL0     O85038  -0.661   2.612  10.291 -0.7013 -0.1420  0.6376
  645MOL0     C85039  -0.797   2.598  10.259  0.1439 -0.0312 -0.3829
  645MOL0     C85040  -0.857   2.567  10.139 -0.0597  0.3360  0.6234
  645MOL0     C85041  -0.995   2.553  10.128 -0.9462 -0.2548  0.6373
  645MOL0     C85042  -1.077   2.585  10.229 -0.3558  0.0810 -0.5760
  645MOL0     O85043  -1.221   2.563  10.219  0.1712  0.5538  0.4049
  645MOL0     C85044  -1.313   2.624  10.300  0.6860 -0.3062 -0.5134
  645MOL0     C85045  -1.450   2.595  10.234 -0.0033  0.3989  0.2087
  645MOL0     C85046  -1.556   2.684  10.294 -0.4277  0.1499 -0.7066
  645MOL0     C85047  -1.575   2.688  10.447  0.2143 -0.9307 -0.0667
  645MOL0     C85048  -1.608   2.547  10.506  0.7771 -0.6461 -0.0177
  645MOL0     C85049  -1.659   2.561  10.649  0.0023 -0.0952  0.1514
  645MOL0     C85050  -1.664   2.428  10.727 -0.0720 -0.6981 -0.3117
  645MOL0     C85051  -1.655   2.454  10.878 -0.1880  0.3998 -0.0655
  645MOL0    Cl85052  -1.662   2.300  10.962  0.3033 -0.0181  0.2310
  645MOL0     C85053  -1.018   2.612  10.349  0.6008  0.6460  0.6249
  645MOL0     C85054  -0.879   2.626  10.369 -0.7759 -0.5488  0.5732
  645MOL0     O85055  -0.572   2.624  10.075  0.2816 -0.2702 -0.1503
  645MOL0     C85056  -0.411   2.579  10.390  0.3867  0.0140  0.5541
  645MOL0     C85057  -0.279   2.571  10.446 -0.9396 -1.1920 -0.0974
  645MOL0     N85058   0.533   2.236  10.294 -0.4794 -0.0650 -0.7210
  645MOL0     N85059   0.661   2.252  10.303 -0.2373 -0.0297 -0.1324
  645MOL0     C85060   1.794   2.303  10.206 -0.3250 -0.6616 -1.2117
  645MOL0     C85061   1.918   2.269  10.157 -0.8014 -0.2732 -0.9271
  645MOL0     C85062   2.349   2.217  10.106  1.2784 -0.2323 -0.6141
  645MOL0     C85063   2.373   2.083  10.066  0.0213  0.4523 -0.1835
  645MOL0     C85064   2.493   2.036  10.003  0.1063  0.0928 -0.3885
  645MOL0     C85065   2.596   2.141   9.985 -0.0092 -0.5521  0.3292
  645MOL0     O85066   2.716   2.104   9.933 -0.0010 -0.3369  0.4877
  645MOL0     C85067   2.810   2.058  10.039  0.1062  0.4940  0.0733
  645MOL0     C85068   2.829   2.155  10.155  0.2734  0.8091  0.4538
  645MOL0     C85069   2.944   2.123  10.245 -0.7026  0.0318 -0.8784
  645MOL0     C85070   2.936   2.190  10.386 -0.1338 -0.0458 -0.1242
  645MOL0     C85071   2.962   2.340  10.376 -0.2918  0.9477 -0.1416
  645MOL0     C85072   2.992   2.453  10.382 -0.4924  0.6604  0.3700
  645MOL0     C85073   2.568   2.273  10.032 -0.6313  0.4302 -1.1221
  645MOL0     C85074   2.452   2.313  10.096  0.6960  0.0868 -0.2276
  645MOL0     H85075   2.041   2.094  10.419  2.2662 -0.6490 -3.3379
  645MOL0     H85076   1.817   2.148  10.506  1.0227 -0.6199 -0.7538
  645MOL0     H85077   1.687   2.323  10.556 -0.6643 -0.6410  0.1118
  645MOL0     H85078   1.587   2.177  10.541 -0.5837 -0.5022  0.2978
  645MOL0     H85079   1.502   2.471  10.483  2.7090  0.0299  1.1709
  645MOL0     H85080   1.515   2.404  10.647  1.7974  2.9029 -1.1100
  645MOL0     H85081   1.345   2.215  10.575  0.5259  0.0769 -0.4801
  645MOL0     H85082   1.339   2.269  10.414  2.9364 -2.4088  0.1479
  645MOL0     H85083   1.236   2.417  10.669  0.7904 -1.2562  0.1972
  645MOL0     H85084   1.267   2.499  10.518  2.4448  0.3633  1.3891
  645MOL0     H85085   1.107   2.239  10.555  0.3439 -0.9420 -0.0525
  645MOL0     H85086   1.109   2.363  10.418 -0.4870 -1.7750 -0.4317
  645MOL0     H85087   0.994   2.513  10.552  2.1760  0.5193 -0.3277
  645MOL0     H85088   1.019   2.427  10.705  1.1911 -1.7301  0.6615
  645MOL0     H85089   0.886   2.242  10.584  0.8864  0.3107  1.7372
  645MOL0     H85090   0.788   2.370  10.630 -1.8483 -0.8541 -1.4826
  645MOL0     H85091   0.882   2.327  10.340  0.0367  0.4783 -0.6451
  645MOL0     H85092   0.840   2.487  10.404  2.2960 -0.7401  0.0289
  645MOL0     H85093   0.558   2.498  10.487  1.2973  2.5766 -3.2185
  645MOL0     H85094   0.338   2.460  10.442 -0.5444 -0.8710  2.4726
  645MOL0     H85095   0.289   2.293  10.443 -0.5586  1.4782  1.5410
  645MOL0     H85096   0.252   2.293  10.201  1.7907 -1.6309  1.4399
  645MOL0     H85097   0.288   2.464  10.198 -0.5246 -1.2663 -0.9993
  645MOL0     H85098   0.038   2.396  10.204 -1.8251  1.6596 -0.1822
  645MOL0     H85099   0.058   2.344  10.366 -3.8756 -0.7331 -1.6967
  645MOL0     H85100   0.087   2.636  10.269  2.0639 -0.6314 -0.5395
  645MOL0     H85101   0.152   2.592  10.415  0.2902 -0.0576 -0.7384
  645MOL0     H85102  -0.092   2.610  10.160  2.2451  1.5155  2.4887
  645MOL0     H85103  -0.318   2.629  10.063 -1.4154  1.3121 -0.0706
  645MOL0     H85104  -0.790   2.557  10.054 -1.2877  1.9998 -0.6174
  645MOL0     H85105  -1.043   2.519  10.036 -1.8273  0.0994  0.9541
  645MOL0     H85106  -1.293   2.731  10.311  5.5925 -0.9673 -0.8845
  645MOL0     H85107  -1.314   2.593  10.405 -0.0416  1.9603  0.1911
  645MOL0     H85108  -1.480   2.491  10.246 -0.9126  0.7122  0.7245
  645MOL0     H85109  -1.452   2.610  10.125 -3.7073 -1.2223 -0.0840
  645MOL0     H85110  -1.651   2.645  10.255 -0.4272  1.5796 -2.2431
  645MOL0     H85111  -1.538   2.785  10.258  0.5237 -0.9509 -3.6434
  645MOL0     H85112  -1.482   2.723  10.492  0.2752 -1.7552  0.4661
  645MOL0     H85113  -1.665   2.750  10.460  0.5508  0.7083 -3.9337
  645MOL0     H85114  -1.522   2.480  10.498  0.6281 -0.8387 -0.0433
  645MOL0     H85115  -1.678   2.495  10.439  1.5658 -1.4832 -0.2057
  645MOL0     H85116  -1.761   2.600  10.640 -0.0355 -0.3337 -0.5334
  645MOL0     H85117  -1.606   2.643  10.699  1.2558 -0.0718 -1.1397
  645MOL0     H85118  -1.753   2.371  10.699 -1.0536  0.0902  1.0742
  645MOL0     H85119  -1.576   2.371  10.696 -1.4715 -1.0231 -4.2501
  645MOL0     H85120  -1.727   2.528  10.915 -0.5770 -0.0104  0.0171
  645MOL0     H85121  -1.557   2.497  10.896  0.1705  0.5359 -2.1009
  645MOL0     H85122  -1.074   2.648  10.435  1.6661  1.5475  0.9569
  645MOL0     H85123  -0.842   2.659  10.465 -0.1938  1.3156 -0.2502
  645MOL0     H85124  -0.485   2.561  10.468  1.5099 -3.3023  1.0388
  645MOL0     H85125  -0.255   2.564  10.551  0.1726  0.9736 -0.1322
  645MOL0     H85126   1.722   2.368  10.156  0.9898 -0.4748 -2.9593
  645MOL0     H85127   1.945   2.306  10.059 -2.9506  2.2376 -0.6743
  645MOL0     H85128   2.292   2.015  10.087 -0.3752  0.5397 -1.3773
  645MOL0     H85129   2.519   1.933   9.982  3.0777 -0.5030  4.4501
  645MOL0     H85130   2.904   2.062   9.982  0.7714 -0.5452  1.0625
  645MOL0     H85131   2.787   1.962  10.086 -1.2907  2.0977  2.9637
  645MOL0     H85132   2.852   2.249  10.103  0.8248  0.1376 -0.5506
  645MOL0     H85133   2.735   2.167  10.210 -0.4240  1.7988 -0.8703
  645MOL0     H85134   3.036   2.150  10.193 -0.6473 -1.3863 -1.5857
  645MOL0     H85135   2.944   2.014  10.255 -1.1845 -0.0708 -1.9090
  645MOL0     H85136   2.836   2.182  10.431  0.7261  3.8357  3.0106
  645MOL0     H85137   3.008   2.129  10.441  1.5852  0.2661 -1.9239
  645MOL0     H85138   3.000   2.557  10.358 -0.6943  0.5163 -0.3227
  645MOL0     H85139   2.650   2.345  10.027  0.2906 -0.5002 -0.1333
  645MOL0     H85140   2.451   2.416  10.129  2.0470 -0.0155  0.1756
  646MOL0     O85141   2.643   1.377   9.670 -0.3523  0.9499 -0.0635
  646MOL0     C85142   2.571   1.353   9.574 -0.2304  0.3211 -1.1792
  646MOL0     O85143   2.446   1.398   9.555 -0.1289  0.1061 -0.4986
  646MOL0     C85144   2.377   1.468   9.654  0.8443  0.4108  0.1066
  646MOL0     C85145   2.238   1.452   9.667  0.1294 -0.9962 -0.2732
  646MOL0     C85146   2.160   1.521   9.761 -0.4533  0.2763 -0.0521
  646MOL0     C85147   2.228   1.612   9.842  0.0607 -0.7317 -0.3629
  646MOL0     O85148   2.154   1.695   9.932 -0.4469  0.3017 -0.1307
  646MOL0     C85149   2.194   1.692  10.071 -0.5557  0.4960  0.0322
  646MOL0     C85150   2.113   1.801  10.143 -0.5941 -0.1371  0.9143
  646MOL0     C85151   1.958   1.794  10.139 -0.3464 -0.2480  0.1131
  646MOL0     C85152   1.905   1.651  10.181 -0.7806 -0.4924  0.2937
  646MOL0     C85153   1.937   1.624  10.332  0.0082 -0.2122 -0.5774
  646MOL0     C85154   1.863   1.728  10.417  0.0344 -0.1359  0.1220
  646MOL0     C85155   1.884   1.713  10.565 -0.1720 -0.0549 -1.1430
  646MOL0     C85156   1.821   1.835  10.639  0.0015  0.0813 -0.4396
  646MOL0     N85157   1.674   1.831  10.651 -0.1487  0.7254  0.8994
  646MOL0     C85158   1.595   1.748  10.726 -0.2794  0.3483  0.2479
  646MOL0     C85159   1.477   1.800  10.707  0.2070  0.3194 -0.4981
  646MOL0     C85160   1.348   1.754  10.778  0.0249  1.0522  0.0370
  646MOL0     C85161   1.327   1.814  10.919 -1.3733 -0.5365  0.3535
  646MOL0     C85162   1.219   1.730  10.991 -0.3742  0.0993  0.0110
  646MOL0     C85163   1.080   1.746  10.933 -0.0830  0.5507  0.2957
  646MOL0     O85164   0.989   1.702  11.032  0.5937 -0.2927 -0.4719
  646MOL0     C85165   0.854   1.698  10.992  0.1153  0.0525 -0.6770
  646MOL0     C85166   0.763   1.627  11.067  0.3486  0.2539 -0.9528
  646MOL0     C85167   0.626   1.634  11.049  0.1995  0.3658  0.7971
  646MOL0     C85168   0.569   1.707  10.950  0.1229 -0.6302  0.3961
  646MOL0     C85169   0.427   1.695  10.920  0.1967  0.5823 -0.0854
  646MOL0     O85170   0.368   1.772  10.830 -0.1468 -0.8111 -0.4720
  646MOL0     C85171   0.231   1.763  10.824 -1.0547  0.9123  0.0430
  646MOL0     C85172   0.148   1.848  10.894 -0.1120 -0.7064 -0.0704
  646MOL0     C85173   0.006   1.862  10.884  0.4332  0.2203 -0.1686
  646MOL0     C85174  -0.061   1.776  10.792  0.7146  1.1302 -0.1739
  646MOL0     O85175  -0.195   1.756  10.794 -0.1554  0.2784  0.5602
  646MOL0     C85176  -0.271   1.828  10.890 -0.6101 -0.0170  0.0761
  646MOL0     C85177  -0.421   1.805  10.889  0.1386  0.4181 -0.1112
  646MOL0     C85178  -0.474   1.774  11.023  0.1404  0.0487 -0.6063
  646MOL0     C85179  -0.468   1.896  11.115 -0.1395 -0.7398  0.0631
  646MOL0     C85180  -0.482   1.852  11.257  0.0491  0.3104 -0.2389
  646MOL0     C85181  -0.361   1.871  11.338 -0.0308 -0.5491  0.1602
  646MOL0     C85182  -0.355   1.795  11.469  0.7743 -0.4548  0.1040
  646MOL0     C85183  -0.476   1.821  11.564  0.1731  0.6648 -0.2391
  646MOL0    Cl85184  -0.458   1.763  11.736  0.3522  0.0291 -0.1311
  646MOL0     C85185   0.018   1.680  10.726  0.0163 -0.0933  0.3340
  646MOL0     C85186   0.159   1.673  10.744 -0.0592 -0.6854  0.2025
  646MOL0     O85187   0.369   1.609  10.986  0.3398  0.1584  0.6056
  646MOL0     C85188   0.649   1.770  10.857  0.2608 -0.3246 -0.4436
  646MOL0     C85189   0.794   1.764  10.884  1.2840  0.1867  0.1379
  646MOL0     N85190   1.478   1.888  10.599  0.7356 -0.1201 -0.2071
  646MOL0     N85191   1.601   1.902  10.564  0.4302  0.4877  0.3728
  646MOL0     C85192   2.365   1.622   9.839 -0.2474  0.5071  0.3523
  646MOL0     C85193   2.441   1.553   9.746  0.1355 -0.7077 -0.5947
  646MOL0     C85194   2.629   1.273   9.469  0.9853  0.0372 -0.1489
  646MOL0     C85195   2.572   1.287   9.340  0.5056 -0.4776  0.4106
  646MOL0     C85196   2.623   1.213   9.233  0.4176  0.1199 -0.4031
  646MOL0     C85197   2.723   1.122   9.247 -0.0924  0.4247  0.0876
  646MOL0     O85198   2.765   1.058   9.130  0.6245 -0.4431  0.4963
  646MOL0     C85199   2.853   0.950   9.125  0.3985  0.2090  1.2875
  646MOL0     C85200   2.795   0.817   9.164  0.2709 -0.3750 -0.5560
  646MOL0     C85201   2.659   0.783   9.100 -0.0253  0.5470 -0.2652
  646MOL0     C85202   2.617   0.648   9.123  0.4784 -0.2249  0.3228
  646MOL0     C85203   2.613   0.615   9.266 -0.1920  0.4446  0.6159
  646MOL0     C85204   2.614   0.582   9.384  0.5752 -0.6080 -0.0180
  646MOL0     C85205   2.770   1.096   9.373  0.3084  0.3429 -0.4940
  646MOL0     C85206   2.728   1.174   9.482  0.0325  0.0744  0.0272
  646MOL0     H85207   2.190   1.365   9.621 -2.0378  2.2227 -4.8834
  646MOL0     H85208   2.052   1.521   9.766 -0.4048  0.2943  1.0798
  646MOL0     H85209   2.300   1.714  10.080 -0.5349  1.8437 -2.5845
  646MOL0     H85210   2.187   1.590  10.110  2.4379 -0.2899 -1.2396
  646MOL0     H85211   2.150   1.886  10.086  2.6869 -1.6022  0.6246
  646MOL0     H85212   2.143   1.822  10.247  0.7504 -2.1002  0.9869
  646MOL0     H85213   1.935   1.814  10.034  0.5989  4.1969  0.5308
  646MOL0     H85214   1.916   1.878  10.196 -1.6644 -1.0745  0.3996
  646MOL0     H85215   1.796   1.642  10.173 -1.0547  1.4666  1.3081
  646MOL0     H85216   1.959   1.580  10.118  1.1852  1.1975  0.0059
  646MOL0     H85217   2.046   1.625  10.345  0.1606 -0.1493 -1.7507
  646MOL0     H85218   1.905   1.521  10.349  2.1969 -1.4141 -3.0100
  646MOL0     H85219   1.755   1.725  10.400 -0.1285  0.5225  0.9898
  646MOL0     H85220   1.907   1.825  10.390  0.3963 -0.7386 -1.5911
  646MOL0     H85221   1.844   1.620  10.605  1.2661  0.6543  2.3295
  646MOL0     H85222   1.988   1.710  10.600 -0.0120  0.5243 -1.5515
  646MOL0     H85223   1.863   1.921  10.585  2.9716  0.6052  2.3847
  646MOL0     H85224   1.852   1.849  10.743 -1.6290  0.3765  0.0303
  646MOL0     H85225   1.632   1.667  10.788  1.2392  1.3778  0.7578
  646MOL0     H85226   1.348   1.644  10.783 -0.5418  1.0872  1.0412
  646MOL0     H85227   1.266   1.775  10.709  1.3857 -0.6075 -2.2768
  646MOL0     H85228   1.307   1.920  10.900  0.2555 -0.4433 -1.0349
  646MOL0     H85229   1.415   1.811  10.984 -2.0651 -3.0262  1.2783
  646MOL0     H85230   1.245   1.624  10.981  0.0043  0.2828 -1.1842
  646MOL0     H85231   1.221   1.762  11.095 -1.6380 -0.1821  0.1317
  646MOL0     H85232   1.064   1.688  10.842 -2.1797  0.7544  0.4842
  646MOL0     H85233   1.060   1.851  10.910 -0.0250  0.0717 -2.2197
  646MOL0     H85234   0.798   1.578  11.158  1.6910 -1.3989 -2.2951
  646MOL0     H85235   0.553   1.587  11.115 -2.4585  0.8959 -1.5307
  646MOL0     H85236   0.196   1.910  10.970  0.8760  1.2708 -2.1899
  646MOL0     H85237  -0.045   1.933  10.948 -0.5648  1.6559 -2.3937
  646MOL0     H85238  -0.256   1.936  10.882  1.6395 -0.3124 -0.3973
  646MOL0     H85239  -0.243   1.796  10.991  1.3262 -3.1259 -1.2712
  646MOL0     H85240  -0.432   1.715  10.827  3.5667 -0.7279  0.7314
  646MOL0     H85241  -0.481   1.889  10.852 -0.2309  2.7955  5.0825
  646MOL0     H85242  -0.414   1.690  11.060 -0.0391  0.0333 -0.3466
  646MOL0     H85243  -0.579   1.744  11.021 -0.1207  0.7980  0.6224
  646MOL0     H85244  -0.379   1.957  11.102 -2.4278  2.4304 -2.1203
  646MOL0     H85245  -0.556   1.955  11.088  0.9437  0.7423 -0.2840
  646MOL0     H85246  -0.506   1.745  11.266  2.8131 -0.2532  1.7506
  646MOL0     H85247  -0.558   1.917  11.302  0.6291  1.6986 -1.2056
  646MOL0     H85248  -0.359   1.979  11.354 -2.0163 -0.4483  0.0164
  646MOL0     H85249  -0.269   1.838  11.290  1.9423  1.6441  2.1933
  646MOL0     H85250  -0.349   1.686  11.462 -0.7726 -0.6633  1.3730
  646MOL0     H85251  -0.265   1.835  11.517  0.5549  2.1436 -1.4861
  646MOL0     H85252  -0.565   1.768  11.529 -1.1178  2.0511  0.8204
  646MOL0     H85253  -0.488   1.930  11.567 -0.5145  0.5817  0.0653
  646MOL0     H85254  -0.034   1.603  10.669 -2.4177  0.7224  1.3337
  646MOL0     H85255   0.214   1.622  10.666  2.2367  3.1225 -0.9267
  646MOL0     H85256   0.629   1.834  10.771  1.4439  0.2763 -0.2914
  646MOL0     H85257   0.853   1.817  10.810 -1.1854 -0.1287 -2.1887
  646MOL0     H85258   2.430   1.681   9.903 -1.0334  1.9483 -0.1492
  646MOL0     H85259   2.543   1.588   9.735 -0.2424  0.9340  0.5472
  646MOL0     H85260   2.500   1.366   9.322  2.9323  1.9280  0.5861
  646MOL0     H85261   2.595   1.249   9.135  3.0400  1.6314 -0.6769
  646MOL0     H85262   2.941   0.970   9.188  2.1535 -0.8602 -0.6797
  646MOL0     H85263   2.900   0.947   9.026  0.5343 -0.5661  1.3650
  646MOL0     H85264   2.865   0.735   9.144  0.0756 -0.7360  0.1828
  646MOL0     H85265   2.774   0.820   9.271 -0.0596  0.1792 -0.6318
  646MOL0     H85266   2.654   0.801   8.992 -0.0096 -0.2181 -0.3945
  646MOL0     H85267   2.580   0.848   9.141 -0.0793 -1.3230  2.8480
  646MOL0     H85268   2.521   0.619   9.078  0.8374 -2.3117  0.7844
  646MOL0     H85269   2.688   0.576   9.082 -1.1622 -2.0149  0.4291
  646MOL0     H85270   2.623   0.567   9.490 -1.5596 -1.4839  0.0974
  646MOL0     H85271   2.861   1.038   9.383  1.3814  2.1444  1.0786
  646MOL0     H85272   2.784   1.153   9.572  0.6392 -2.6417 -0.8852
  647MOL0     O85273  10.778  11.055   4.436  0.9188  0.1422  0.0722
  647MOL0     C85274  10.781  10.943   4.483 -1.0037 -0.4569 -1.4678
  647MOL0     O85275  10.676  10.861   4.524 -0.2423 -0.7630 -0.1729
  647MOL0     C85276  10.561  10.877   4.465 -0.2209  0.0877  0.7048
  647MOL0     C85277  10.555  10.899   4.327 -0.6053  0.6030  0.0464
  647MOL0     C85278  10.430  10.909   4.264  1.0663 -0.2654 -0.9286
  647MOL0     C85279  10.313  10.874   4.337 -0.9531 -0.3842 -0.0573
  647MOL0     O85280  10.198  10.898   4.268 -0.2458  0.5901 -0.3712
  647MOL0     C85281  10.093  10.802   4.279 -0.1032  0.3190 -0.8531
  647MOL0     C85282   9.967  10.875   4.330 -0.1665 -1.2977  0.6378
  647MOL0     C85283   9.841  10.821   4.269  0.0109 -0.8132 -0.5674
  647MOL0     C85284   9.728  10.889   4.348  0.2979 -0.9939 -0.6444
  647MOL0     C85285   9.586  10.851   4.295 -1.0446  0.1825  1.0112
  647MOL0     C85286   9.479  10.941   4.356 -0.1393 -0.1177 -0.5460
  647MOL0     C85287   9.340  10.901   4.305 -0.7376 -0.7108 -0.3897
  647MOL0     C85288   9.323  10.906   4.155  0.2175  0.6611  0.8237
  647MOL0     N85289   9.180  10.882   4.122  0.0879  0.2667 -0.4478
  647MOL0     C85290   9.091  10.983   4.138  0.1111 -0.9242 -0.7930
  647MOL0     C85291   8.985  10.935   4.067 -0.0837 -0.4540  0.5439
  647MOL0     C85292   8.861  11.019   4.048 -0.4665  1.4178 -0.1080
  647MOL0     C85293   8.742  10.942   4.097 -0.0957 -0.5390  0.1311
  647MOL0     C85294   8.625  11.023   4.025  0.0561 -0.8864 -0.3271
  647MOL0     C85295   8.499  10.951   4.033 -0.4540 -0.2221  0.2790
  647MOL0     O85296   8.408  11.018   3.939 -0.1518  0.2785 -0.5304
  647MOL0     C85297   8.272  11.008   3.946 -0.4916 -0.0256 -0.9170
  647MOL0     C85298   8.202  10.945   4.054  0.5368 -0.0438  0.4657
  647MOL0     C85299   8.059  10.953   4.057 -0.6838 -0.1210  0.1397
  647MOL0     C85300   7.985  11.032   3.957 -0.5402  0.8834 -0.7251
  647MOL0     C85301   7.840  11.043   3.959  0.2536  1.0913  0.5233
  647MOL0     O85302   7.779  11.089   3.845  0.0114 -0.4831 -0.3036
  647MOL0     C85303   7.646  11.097   3.830 -0.5365 -0.0804 -0.0417
  647MOL0     C85304   7.571  11.212   3.823 -0.3078 -0.2404  0.0239
  647MOL0     C85305   7.425  11.210   3.829  0.2795  0.0347 -0.1827
  647MOL0     C85306   7.355  11.090   3.845 -0.8056 -0.3447  0.0819
  647MOL0     O85307   7.216  11.103   3.855 -0.1816  0.3725  0.4556
  647MOL0     C85308   7.170  11.014   3.971  0.7967  0.1093  1.0072
  647MOL0     C85309   7.030  11.063   4.009  0.2161  0.1996 -0.1443
  647MOL0     C85310   6.942  10.976   4.102 -0.0479 -0.1724  0.3425
  647MOL0     C85311   7.012  10.965   4.238  0.4522  0.7313 -0.0828
  647MOL0     C85312   6.895  10.931   4.352  0.0840  0.0119  1.0233
  647MOL0     C85313   6.953  10.941   4.496  0.6327 -0.2946  0.3829
  647MOL0     C85314   7.082  10.853   4.519  0.1032  0.0585 -0.4391
  647MOL0     C85315   7.153  10.894   4.657  0.4734  0.6947  0.0526
  647MOL0    Cl85316   7.047  10.847   4.799 -0.4696 -0.1277  0.4077
  647MOL0     C85317   7.428  10.972   3.844 -0.1808  0.4294  0.5331
  647MOL0     C85318   7.572  10.972   3.831  1.5006 -0.3286 -0.7446
  647MOL0     O85319   7.778  11.010   4.059  0.3315 -0.0871  0.2815
  647MOL0     C85320   8.067  11.085   3.855  0.2810  0.2884 -0.4724
  647MOL0     C85321   8.203  11.082   3.850  0.1793  0.1500  0.8041
  647MOL0     N85322   9.008  10.808   4.003 -1.6360 -0.3113 -0.1104
  647MOL0     N85323   9.129  10.779   4.048 -0.3752  0.0049  0.2882
  647MOL0     C85324  10.323  10.835   4.470  0.6764  0.1649 -0.4859
  647MOL0     C85325  10.445  10.834   4.533  0.0426 -0.0840  0.0466
  647MOL0     C85326  10.909  10.877   4.506  0.4046  0.3516  0.4124
  647MOL0     C85327  11.032  10.929   4.470 -0.4578 -0.0332 -0.3266
  647MOL0     C85328  11.157  10.874   4.509 -0.4493 -0.3260  0.0710
  647MOL0     C85329  11.161  10.746   4.558  0.6470 -0.0004  0.4973
  647MOL0     O85330  11.271  10.675   4.583 -0.4060  0.2560  0.2282
  647MOL0     C85331  11.407  10.739   4.583  1.0680 -0.6626 -0.2034
  647MOL0     C85332  11.484  10.639   4.665 -0.0397 -0.2748 -0.2341
  647MOL0     C85333  11.626  10.691   4.692  0.2688 -0.3721 -0.7614
  647MOL0     C85334  11.714  10.721   4.575  0.0258 -0.4992 -0.2520
  647MOL0     C85335  11.818  10.819   4.610  0.5514  0.3929  0.5649
  647MOL0     C85336  11.898  10.902   4.634 -0.0573 -0.1779  0.2357
  647MOL0     C85337  11.039  10.684   4.584 -0.4484 -0.1237 -0.1716
  647MOL0     C85338  10.914  10.743   4.561  0.1463 -0.1486 -0.7001
  647MOL0     H85339  10.642  10.917   4.265 -0.0790 -2.8031 -0.4130
  647MOL0     H85340  10.414  10.938   4.161  1.5287  0.0967 -0.9053
  647MOL0     H85341  10.121  10.721   4.347  0.9414 -0.4854 -2.1838
  647MOL0     H85342  10.073  10.758   4.180 -0.1890 -0.2281 -0.5975
  647MOL0     H85343   9.984  10.977   4.296 -0.1199 -1.0117  1.4942
  647MOL0     H85344   9.965  10.872   4.440 -1.8806 -1.3178  0.6333
  647MOL0     H85345   9.833  10.713   4.287  2.4679 -0.8973  0.4346
  647MOL0     H85346   9.850  10.836   4.161  1.0578  2.0430 -0.1670
  647MOL0     H85347   9.726  10.873   4.456 -1.9063  2.4427 -0.0161
  647MOL0     H85348   9.730  10.998   4.343 -2.1813 -0.8412  0.2722
  647MOL0     H85349   9.566  10.745   4.315  1.9504 -0.3764  1.6674
  647MOL0     H85350   9.590  10.868   4.187 -1.4322 -3.3005  0.3317
  647MOL0     H85351   9.490  11.049   4.343 -0.9008  0.5143  2.8890
  647MOL0     H85352   9.477  10.931   4.465  1.4971 -1.4388 -0.6099
  647MOL0     H85353   9.326  10.797   4.334  0.4939 -0.6219  0.5914
  647MOL0     H85354   9.261  10.966   4.344  1.2152  2.0167 -0.6493
  647MOL0     H85355   9.391  10.835   4.107  0.4333  0.2011  1.7841
  647MOL0     H85356   9.341  11.009   4.121 -2.9200  1.3611  0.9220
  647MOL0     H85357   9.095  11.071   4.201  0.3646 -2.3598  1.2854
  647MOL0     H85358   8.851  11.029   3.939 -6.2487 -0.5712 -0.1142
  647MOL0     H85359   8.868  11.113   4.102  0.5150  0.6774  1.1120
  647MOL0     H85360   8.732  10.958   4.205  0.3050 -0.4134  0.1521
  647MOL0     H85361   8.730  10.835   4.077 -0.5814 -0.2077 -1.5257
  647MOL0     H85362   8.605  11.121   4.068 -1.7658 -1.6549  0.6959
  647MOL0     H85363   8.643  11.034   3.918  1.4852 -3.0993 -0.3775
  647MOL0     H85364   8.457  10.956   4.134 -0.3510  0.3932  0.2925
  647MOL0     H85365   8.511  10.849   3.995  0.3234  0.0215 -0.1395
  647MOL0     H85366   8.256  10.881   4.123  0.5491 -2.1978 -1.4463
  647MOL0     H85367   8.013  10.893   4.135  2.7338 -2.2004  0.7583
  647MOL0     H85368   7.637  11.298   3.817  4.2965 -3.5493 -3.0309
  647MOL0     H85369   7.358  11.295   3.822 -0.7570 -0.7379  0.1983
  647MOL0     H85370   7.229  11.008   4.063  1.3079  2.0110  0.8364
  647MOL0     H85371   7.158  10.915   3.926 -0.2568  1.3967 -1.8043
  647MOL0     H85372   6.983  11.087   3.913  1.4771  0.1603 -0.7952
  647MOL0     H85373   7.046  11.160   4.056 -0.9292  2.0003 -3.1646
  647MOL0     H85374   6.932  10.879   4.053 -0.8355  1.0876 -2.1620
  647MOL0     H85375   6.842  11.019   4.111  0.7397  1.4679  1.9282
  647MOL0     H85376   7.093  10.893   4.229 -0.0792 -0.2836  2.4169
  647MOL0     H85377   7.063  11.058   4.264 -1.1873  1.6612  0.0050
  647MOL0     H85378   6.850  10.833   4.339  0.4129 -0.0728  0.5044
  647MOL0     H85379   6.825  11.015   4.345 -1.6816 -1.4469  0.3713
  647MOL0     H85380   6.879  10.918   4.573  0.3028 -2.4992 -0.5198
  647MOL0     H85381   6.971  11.048   4.509 -0.9083 -0.2681  3.0218
  647MOL0     H85382   7.059  10.746   4.527  0.0748  0.1282  0.5515
  647MOL0     H85383   7.152  10.864   4.436  1.5913 -2.5395  0.3530
  647MOL0     H85384   7.167  11.003   4.653 -2.5300  1.2080  1.1666
  647MOL0     H85385   7.244  10.834   4.669 -0.6672 -1.3547 -1.0522
  647MOL0     H85386   7.385  10.872   3.849 -1.2009  0.1624 -5.9242
  647MOL0     H85387   7.619  10.874   3.830  0.7365 -0.7704  1.5155
  647MOL0     H85388   8.016  11.140   3.777 -0.9193 -1.3087 -0.8752
  647MOL0     H85389   8.260  11.135   3.775 -2.5066  2.5243  0.2765
  647MOL0     H85390  10.232  10.824   4.529  0.3960 -1.7571 -1.1937
  647MOL0     H85391  10.453  10.810   4.639 -1.4789  0.2074  0.2605
  647MOL0     H85392  11.030  11.026   4.421  0.9261  0.9006  1.3255
  647MOL0     H85393  11.252  10.925   4.497  0.2837 -1.7495 -0.4397
  647MOL0     H85394  11.412  10.837   4.630  1.2479 -0.8653  0.1996
  647MOL0     H85395  11.441  10.749   4.480 -0.0563  1.4937 -0.4188
  647MOL0     H85396  11.431  10.628   4.760 -3.0794  0.1426 -1.7647
  647MOL0     H85397  11.480  10.541   4.616  2.0375  1.5080 -4.5453
  647MOL0     H85398  11.671  10.616   4.758 -3.0695 -3.2391 -1.4118
  647MOL0     H85399  11.615  10.785   4.746  1.4203 -0.4336 -0.4004
  647MOL0     H85400  11.760  10.626   4.547 -0.6094 -0.9166  0.0912
  647MOL0     H85401  11.645  10.767   4.504 -1.2975  2.4973  2.6714
  647MOL0     H85402  11.981  10.966   4.656 -0.4013  0.3070  0.1373
  647MOL0     H85403  11.050  10.586   4.630  2.2702 -0.6878 -1.7665
  647MOL0     H85404  10.821  10.701   4.599 -0.3095  2.5163  1.5074
  648MOL0     O85405   8.063   0.997   7.776 -0.8613  0.4008  0.1063
  648MOL0     C85406   8.053   0.882   7.799  0.3349  0.5246 -0.5573
  648MOL0     O85407   8.149   0.804   7.852 -0.1853  0.0082 -0.4563
  648MOL0     C85408   8.283   0.842   7.863  0.0722  0.0149  0.8183
  648MOL0     C85409   8.376   0.740   7.877 -0.3057 -0.1097 -0.2394
  648MOL0     C85410   8.513   0.766   7.896 -0.0967  0.4778 -0.3870
  648MOL0     C85411   8.565   0.898   7.882  0.5324 -0.4587  0.1801
  648MOL0     O85412   8.702   0.923   7.876  1.3923  0.6102  0.6599
  648MOL0     C85413   8.747   0.972   8.001 -0.4415 -0.4235 -0.8827
  648MOL0     C85414   8.893   0.953   8.012 -0.7423 -0.1995 -0.9626
  648MOL0     C85415   8.988   0.978   7.898  0.4486  0.6240  1.1795
  648MOL0     C85416   9.126   0.909   7.913  0.6326  0.9715  0.7850
  648MOL0     C85417   9.201   0.927   7.778 -0.3147  0.2745 -0.9048
  648MOL0     C85418   9.259   1.071   7.746 -0.5875 -0.7657 -0.4375
  648MOL0     C85419   9.317   1.074   7.607  0.4914  0.5896  0.8559
  648MOL0     C85420   9.321   1.212   7.542  0.0803  0.4263  0.5910
  648MOL0     N85421   9.204   1.244   7.461  0.4184  0.2236 -0.3430
  648MOL0     C85422   9.168   1.181   7.348 -0.0687  0.0396 -0.3045
  648MOL0     C85423   9.039   1.225   7.329  0.0966  1.0105  0.5562
  648MOL0     C85424   8.964   1.185   7.205 -0.1335 -0.3795 -0.1265
  648MOL0     C85425   8.819   1.240   7.204 -0.3229  0.6417 -0.4887
  648MOL0     C85426   8.714   1.136   7.141 -0.4334  0.1955 -0.1150
  648MOL0     C85427   8.756   1.076   7.005 -0.0667 -0.1857 -0.0312
  648MOL0     O85428   8.664   0.969   6.975 -0.3949 -0.3068  0.8278
  648MOL0     C85429   8.533   1.001   6.955  1.3412 -0.3578 -0.0036
  648MOL0     C85430   8.430   0.915   6.999 -1.0207  0.4178  0.0325
  648MOL0     C85431   8.301   0.959   6.999  0.1483  0.2996  0.1139
  648MOL0     C85432   8.262   1.074   6.926 -0.7320  0.4896 -0.1073
  648MOL0     C85433   8.117   1.105   6.910 -0.0818  0.8173 -0.4648
  648MOL0     O85434   8.025   1.013   6.966 -0.1259 -0.0556  0.0110
  648MOL0     C85435   7.889   1.010   6.950 -0.3204  0.8685 -0.0761
  648MOL0     C85436   7.811   1.123   6.950  0.0213 -0.4241  0.1764
  648MOL0     C85437   7.677   1.116   6.935 -0.4528  0.3743  0.2272
  648MOL0     C85438   7.609   1.000   6.916 -0.2481 -0.2108 -0.0089
  648MOL0     O85439   7.470   1.003   6.893 -0.4278  0.3772 -0.6028
  648MOL0     C85440   7.394   0.972   7.014  0.0560 -0.5771 -0.4136
  648MOL0     C85441   7.366   1.095   7.105 -0.2437 -0.4472  0.4672
  648MOL0     C85442   7.302   1.206   7.023  0.1907  0.5284 -0.8816
  648MOL0     C85443   7.157   1.176   7.002  0.8076  0.0154 -0.1056
  648MOL0     C85444   7.074   1.307   6.979  0.1272 -0.3524  0.2783
  648MOL0     C85445   6.921   1.280   6.968 -0.2028  0.6379 -0.4215
  648MOL0     C85446   6.837   1.411   6.976  0.7890  0.3467 -0.2163
  648MOL0     C85447   6.800   1.481   6.849  0.5643 -0.2160  0.4991
  648MOL0    Cl85448   6.936   1.575   6.769  0.1483  0.2150  0.3902
  648MOL0     C85449   7.682   0.887   6.898  0.5162  0.0172  0.2865
  648MOL0     C85450   7.818   0.891   6.919 -0.2157 -0.3321  0.0936
  648MOL0     O85451   8.081   1.198   6.833 -0.4006 -0.1133  0.1564
  648MOL0     C85452   8.363   1.162   6.872 -0.3683  0.7938  0.3709
  648MOL0     C85453   8.494   1.126   6.900  0.0496  0.0382  1.2389
  648MOL0     N85454   9.005   1.318   7.424 -0.1243 -0.6288  0.4227
  648MOL0     N85455   9.106   1.328   7.502  1.1232  0.7581 -0.0111
  648MOL0     C85456   8.471   0.999   7.868 -0.5878 -1.3089  0.3025
  648MOL0     C85457   8.334   0.975   7.853  0.0758 -0.1988  0.1418
  648MOL0     C85458   7.922   0.820   7.782  0.1043  0.2587 -0.1303
  648MOL0     C85459   7.909   0.679   7.811 -0.2584 -0.4914  0.2710
  648MOL0     C85460   7.790   0.618   7.788 -0.0507 -0.3302  0.1080
  648MOL0     C85461   7.671   0.682   7.751  0.5763 -0.0592  1.0627
  648MOL0     O85462   7.564   0.599   7.746 -0.6286  0.3388 -0.3751
  648MOL0     C85463   7.447   0.662   7.698  0.5867  0.3039 -0.1747
  648MOL0     C85464   7.326   0.567   7.723  0.0084  0.2168 -0.3973
  648MOL0     C85465   7.195   0.639   7.693 -0.3523  0.1199 -0.2833
  648MOL0     C85466   7.083   0.545   7.729 -0.2141  0.4167  0.5740
  648MOL0     C85467   7.064   0.452   7.620 -0.2296  0.4337  0.7176
  648MOL0     C85468   7.051   0.370   7.527  0.0761 -0.3797  0.2369
  648MOL0     C85469   7.687   0.819   7.708 -0.3096  0.3251 -0.2711
  648MOL0     C85470   7.809   0.893   7.734 -0.7082 -0.3428 -0.0501
  648MOL0     H85471   8.339   0.639   7.876 -1.6585  0.2739  2.2990
  648MOL0     H85472   8.589   0.689   7.898  0.5407  1.0976  1.8472
  648MOL0     H85473   8.699   0.919   8.084 -1.8189 -0.0754 -1.4333
  648MOL0     H85474   8.711   1.074   8.016  0.3335 -0.2802  0.1374
  648MOL0     H85475   8.906   0.848   8.041 -0.4348 -0.5116 -2.1912
  648MOL0     H85476   8.931   1.008   8.099  0.4451 -3.2471  0.5719
  648MOL0     H85477   9.005   1.085   7.887  0.1730  0.7383  1.8652
  648MOL0     H85478   8.942   0.954   7.801 -1.3192  2.0295  1.6416
  648MOL0     H85479   9.180   0.931   8.006  2.2564 -4.6710  1.5792
  648MOL0     H85480   9.115   0.800   7.917 -0.6897  0.9453 -1.6892
  648MOL0     H85481   9.140   0.884   7.698 -0.1969 -2.4384  0.3736
  648MOL0     H85482   9.284   0.855   7.781 -0.4588  0.1331 -0.1547
  648MOL0     H85483   9.341   1.091   7.815 -0.3457 -2.8503 -0.0544
  648MOL0     H85484   9.181   1.148   7.756  0.3983  0.9169 -3.9065
  648MOL0     H85485   9.417   1.030   7.610  0.6757  0.9888  0.6300
  648MOL0     H85486   9.253   1.008   7.548 -0.5179 -1.5997  4.1358
  648MOL0     H85487   9.407   1.214   7.474 -1.4594  0.0443 -1.4783
  648MOL0     H85488   9.340   1.288   7.617  2.5135  1.2237 -0.7166
  648MOL0     H85489   9.229   1.121   7.280 -0.2314 -1.1776  0.5848
  648MOL0     H85490   8.974   1.078   7.185  0.8825  0.0089 -2.0650
  648MOL0     H85491   9.014   1.243   7.127 -0.4105 -0.0592 -0.0680
  648MOL0     H85492   8.830   1.331   7.144 -1.3427  0.6878 -0.6264
  648MOL0     H85493   8.782   1.272   7.302  0.3397  1.2695 -0.4300
  648MOL0     H85494   8.694   1.057   7.215 -0.6180  1.1783  0.9105
  648MOL0     H85495   8.618   1.186   7.133 -1.1139 -1.3486 -2.3693
  648MOL0     H85496   8.851   1.023   7.004 -0.7808 -1.5662  1.0544
  648MOL0     H85497   8.757   1.158   6.933 -0.2035  0.0750  0.2577
  648MOL0     H85498   8.459   0.818   7.037  0.5233  0.2144 -1.5713
  648MOL0     H85499   8.222   0.899   7.043  2.1178 -1.7903  0.9723
  648MOL0     H85500   7.865   1.215   6.969 -0.0051 -0.3580 -0.0622
  648MOL0     H85501   7.614   1.204   6.938 -0.8175  0.1258  3.0138
  648MOL0     H85502   7.449   0.894   7.069 -1.0131 -2.0666 -1.3781
  648MOL0     H85503   7.298   0.934   6.977  0.4225 -0.6936 -1.2722
  648MOL0     H85504   7.459   1.126   7.153 -1.4098  0.2247  2.4145
  648MOL0     H85505   7.295   1.074   7.186 -1.8435  2.7006  0.0351
  648MOL0     H85506   7.364   1.241   6.941  0.6984  1.3228 -0.1746
  648MOL0     H85507   7.311   1.299   7.080 -0.8714  0.2006 -0.1311
  648MOL0     H85508   7.145   1.114   6.913 -1.5390  0.9756 -0.5225
  648MOL0     H85509   7.110   1.124   7.086  0.9796 -3.0662 -1.7796
  648MOL0     H85510   7.111   1.354   6.887 -2.0431  1.1222  0.0536
  648MOL0     H85511   7.094   1.384   7.054  2.1314 -2.0942  1.6267
  648MOL0     H85512   6.892   1.219   7.053 -1.7816  0.5247 -1.0107
  648MOL0     H85513   6.909   1.224   6.875  2.3258  1.7361 -1.5144
  648MOL0     H85514   6.751   1.376   7.034  2.0973 -3.2598 -0.1700
  648MOL0     H85515   6.888   1.489   7.033 -0.5528 -0.0671  1.6612
  648MOL0     H85516   6.734   1.564   6.874 -0.0254  0.1887 -2.0394
  648MOL0     H85517   6.751   1.412   6.779 -2.5359 -0.5221  2.7654
  648MOL0     H85518   7.636   0.794   6.867  0.2345 -0.1296  1.1171
  648MOL0     H85519   7.876   0.799   6.919 -0.4893 -0.5805  2.7212
  648MOL0     H85520   8.340   1.247   6.808 -0.7923 -0.9603 -1.9292
  648MOL0     H85521   8.574   1.191   6.865  0.3204 -0.0083  1.7612
  648MOL0     H85522   8.508   1.101   7.872  0.6216 -1.6447 -1.4735
  648MOL0     H85523   8.284   1.071   7.843  0.9791  0.2749  0.1066
  648MOL0     H85524   7.998   0.623   7.839  0.5104  0.2863 -0.5352
  648MOL0     H85525   7.784   0.510   7.797  0.7492 -0.3033  1.2738
  648MOL0     H85526   7.465   0.669   7.591  3.4868 -0.5150  0.1953
  648MOL0     H85527   7.436   0.760   7.744  0.3002 -0.5900  1.7890
  648MOL0     H85528   7.341   0.483   7.654  0.9725 -1.1394  1.3690
  648MOL0     H85529   7.328   0.521   7.822  0.3868 -1.2217 -1.0411
  648MOL0     H85530   7.190   0.690   7.596 -1.8332  1.6501  0.5396
  648MOL0     H85531   7.184   0.725   7.760 -2.1382 -1.7952  2.0665
  648MOL0     H85532   7.113   0.491   7.819  0.5916 -0.6475 -0.3169
  648MOL0     H85533   6.989   0.599   7.744 -0.6124 -0.4664  1.3630
  648MOL0     H85534   7.036   0.294   7.453 -2.4867 -0.2147  0.5294
  648MOL0     H85535   7.604   0.873   7.664  0.2575  0.3081 -1.4021
  648MOL0     H85536   7.830   0.997   7.715  4.4725 -1.1180 -0.0166
  649MOL0     O85537   4.159   0.140   4.896 -0.5302  0.2976 -0.5186
  649MOL0     C85538   4.189   0.073   4.996  0.2844 -0.2968  0.4716
  649MOL0     O85539   4.232   0.130   5.111  0.2803  0.7617  0.2648
  649MOL0     C85540   4.267   0.267   5.109  0.7463  0.6850 -0.4191
  649MOL0     C85541   4.190   0.383   5.118  0.1113 -0.0387 -0.0565
  649MOL0     C85542   4.241   0.511   5.115  0.1204 -0.1938  0.5699
  649MOL0     C85543   4.379   0.535   5.095 -0.1694  0.4260  0.1293
  649MOL0     O85544   4.399   0.669   5.079  0.2838  0.1072 -0.2206
  649MOL0     C85545   4.531   0.729   5.093 -0.2244 -0.4275  0.6379
  649MOL0     C85546   4.611   0.728   4.966 -0.0750  0.3695 -0.3203
  649MOL0     C85547   4.763   0.733   4.989  0.4401 -0.1036 -0.4085
  649MOL0     C85548   4.855   0.648   4.895  0.2793  0.6602 -0.1430
  649MOL0     C85549   4.984   0.627   4.967  0.0590 -0.0100  0.1732
  649MOL0     C85550   5.065   0.762   4.992  0.4241 -0.0334 -0.5293
  649MOL0     C85551   5.100   0.838   4.856  1.0023 -0.2255  0.1796
  649MOL0     C85552   5.133   0.984   4.886  0.4539 -0.0643 -0.2388
  649MOL0     N85553   5.234   1.000   4.986 -0.4457 -0.0908  0.1290
  649MOL0     C85554   5.359   0.946   4.999  0.6376  0.4235  0.3022
  649MOL0     C85555   5.427   1.032   5.091  0.2115 -0.2894 -0.0796
  649MOL0     C85556   5.567   1.017   5.133 -0.4983 -0.6432 -0.1898
  649MOL0     C85557   5.588   0.920   5.246  0.5993 -0.6258 -0.0204
  649MOL0     C85558   5.512   0.972   5.369  0.2636 -0.2166 -0.8816
  649MOL0     C85559   5.586   0.919   5.493  0.2050 -0.6257  0.2255
  649MOL0     O85560   5.597   0.782   5.509 -0.1187  0.6469  0.3943
  649MOL0     C85561   5.485   0.706   5.534  0.1777  0.9353  0.8279
  649MOL0     C85562   5.355   0.757   5.572  0.4374  0.9035 -0.4567
  649MOL0     C85563   5.240   0.673   5.590  0.5526  0.3211 -0.2517
  649MOL0     C85564   5.253   0.534   5.568 -0.2743 -0.1877  0.0675
  649MOL0     C85565   5.140   0.437   5.586  0.6148  0.0759 -0.3234
  649MOL0     O85566   5.161   0.304   5.604 -0.3324 -0.5640 -0.4907
  649MOL0     C85567   5.049   0.227   5.619  0.2802  0.7252  0.1417
  649MOL0     C85568   5.011   0.129   5.528 -0.7555  0.6344  0.0802
  649MOL0     C85569   4.897   0.045   5.540 -0.5002 -0.5488 -0.4692
  649MOL0     C85570   4.813   0.050   5.647 -0.4231 -0.5207  0.1362
  649MOL0     O85571   4.694  -0.016   5.664 -0.7355  0.0006  0.8881
  649MOL0     C85572   4.686  -0.145   5.610  0.1901  0.3865  0.0930
  649MOL0     C85573   4.580  -0.228   5.674 -0.7449  0.0770  0.3452
  649MOL0     C85574   4.445  -0.171   5.667 -0.7532  0.1756 -0.0762
  649MOL0     C85575   4.340  -0.281   5.663 -0.8762  0.0643  0.0805
  649MOL0     C85576   4.320  -0.325   5.520  0.7523 -0.9584  0.5004
  649MOL0     C85577   4.210  -0.429   5.503  0.0300 -0.2905 -0.5205
  649MOL0     C85578   4.249  -0.577   5.547 -0.3330  0.2548  0.6546
  649MOL0     C85579   4.160  -0.687   5.492 -0.4921  0.4884 -0.4301
  649MOL0    Cl85580   4.025  -0.739   5.601  0.1493  0.5480  0.3258
  649MOL0     C85581   4.853   0.141   5.744  0.9199  1.3248  0.4667
  649MOL0     C85582   4.964   0.232   5.735  0.3108  0.2486 -0.1057
  649MOL0     O85583   5.030   0.495   5.598  0.0429  0.1272 -0.6189
  649MOL0     C85584   5.380   0.484   5.538 -0.0394  0.5432 -0.3173
  649MOL0     C85585   5.493   0.567   5.521 -0.9144 -0.4366 -0.0384
  649MOL0     N85586   5.333   1.118   5.138  0.1755 -0.6461 -0.5438
  649MOL0     N85587   5.223   1.098   5.078 -0.4515 -0.0266 -0.9093
  649MOL0     C85588   4.458   0.424   5.094  0.7009  0.0270 -1.0983
  649MOL0     C85589   4.406   0.291   5.104  0.5767 -0.1316 -0.2772
  649MOL0     C85590   4.160  -0.075   4.994 -0.7911 -0.0603  0.2087
  649MOL0     C85591   4.079  -0.135   4.892 -0.0179  0.0537  0.1182
  649MOL0     C85592   4.045  -0.273   4.900 -0.5406  0.2540  0.9688
  649MOL0     C85593   4.104  -0.359   5.005  0.2585 -0.7738 -0.4300
  649MOL0     O85594   4.103  -0.496   5.000 -0.4292 -0.6808 -1.3418
  649MOL0     C85595   4.026  -0.582   4.921  0.1543  0.6075 -0.2338
  649MOL0     C85596   3.883  -0.611   4.980  0.5058 -0.5139 -0.1870
  649MOL0     C85597   3.789  -0.664   4.879 -0.3013 -0.1244  0.0485
  649MOL0     C85598   3.652  -0.693   4.939 -0.6385 -0.7308  0.2197
  649MOL0     C85599   3.642  -0.824   5.005 -0.0470 -0.0532  0.3684
  649MOL0     C85600   3.637  -0.928   5.068 -0.8900  0.2318 -0.0613
  649MOL0     C85601   4.176  -0.289   5.104 -1.2590  0.4919  0.6957
  649MOL0     C85602   4.211  -0.156   5.101  0.2114 -0.2680  0.4530
  649MOL0     H85603   4.086   0.359   5.135  0.6326 -3.5194 -1.0537
  649MOL0     H85604   4.170   0.593   5.114  1.3907  0.9375  0.2770
  649MOL0     H85605   4.575   0.680   5.180 -2.5883  0.4361  2.4225
  649MOL0     H85606   4.518   0.837   5.106 -0.4708 -0.5153  1.1316
  649MOL0     H85607   4.566   0.800   4.897 -1.0021  0.5272  0.4287
  649MOL0     H85608   4.594   0.636   4.909 -2.6823 -1.1103  2.5503
  649MOL0     H85609   4.785   0.692   5.088 -2.2993 -2.5711 -0.6728
  649MOL0     H85610   4.790   0.838   4.973  1.8550 -0.8918 -3.9203
  649MOL0     H85611   4.808   0.550   4.884 -0.4085  0.7540  1.5868
  649MOL0     H85612   4.855   0.699   4.799  0.9588 -0.1275 -0.5697
  649MOL0     H85613   5.051   0.569   4.903 -2.1629  1.3197 -3.6404
  649MOL0     H85614   4.974   0.569   5.059  1.8614  0.2236  0.5586
  649MOL0     H85615   5.162   0.732   5.032  0.3777 -0.4387 -0.7130
  649MOL0     H85616   5.015   0.822   5.069  0.7695 -0.9713  0.4352
  649MOL0     H85617   5.177   0.782   4.803  0.1805 -0.2205 -1.0454
  649MOL0     H85618   5.013   0.845   4.791 -0.2134  1.0270  1.8570
  649MOL0     H85619   5.040   1.040   4.899  1.2015  1.0534  0.4773
  649MOL0     H85620   5.183   1.016   4.794  2.9575 -1.2205  0.6569
  649MOL0     H85621   5.392   0.852   4.956 -1.6447 -3.0773  5.2044
  649MOL0     H85622   5.623   1.107   5.159 -0.1746 -0.9186  0.0878
  649MOL0     H85623   5.625   0.971   5.052  0.5902 -0.5099  0.4848
  649MOL0     H85624   5.694   0.903   5.268  1.6777  2.3337 -2.1827
  649MOL0     H85625   5.536   0.827   5.223  1.2805 -0.9847 -0.1470
  649MOL0     H85626   5.522   1.080   5.381 -0.4396  0.0093 -2.1478
  649MOL0     H85627   5.406   0.945   5.373  0.5913 -1.5066 -0.2868
  649MOL0     H85628   5.531   0.963   5.577 -0.9009 -0.8872 -0.3319
  649MOL0     H85629   5.689   0.953   5.504  0.2915 -0.9856  0.5399
  649MOL0     H85630   5.339   0.862   5.595 -3.1954  0.2457  0.6334
  649MOL0     H85631   5.142   0.709   5.621 -0.3591 -1.4390 -0.9324
  649MOL0     H85632   5.077   0.124   5.442 -0.3733 -0.7876  0.4477
  649MOL0     H85633   4.874  -0.020   5.456  0.5040 -0.8586 -0.5140
  649MOL0     H85634   4.777  -0.204   5.630  0.2789  0.3560 -0.3839
  649MOL0     H85635   4.672  -0.141   5.501  0.8351  0.4327  0.0086
  649MOL0     H85636   4.608  -0.256   5.776 -1.0951 -1.9526 -0.0764
  649MOL0     H85637   4.587  -0.321   5.617 -0.7299 -1.1584  2.2411
  649MOL0     H85638   4.435  -0.119   5.571  1.7972 -0.7691 -0.9387
  649MOL0     H85639   4.434  -0.100   5.749  0.0904  0.7814 -0.4692
  649MOL0     H85640   4.368  -0.356   5.737 -1.1538  1.4804  1.6920
  649MOL0     H85641   4.246  -0.236   5.696 -1.2832 -0.8196  0.1605
  649MOL0     H85642   4.412  -0.363   5.474  1.6917  2.0562 -0.3896
  649MOL0     H85643   4.288  -0.240   5.459  3.4358  0.4523  0.8775
  649MOL0     H85644   4.180  -0.442   5.398 -3.7548 -0.4118  0.4214
  649MOL0     H85645   4.123  -0.390   5.557  1.8057  1.1923  1.3928
  649MOL0     H85646   4.353  -0.588   5.513 -1.0151 -1.1966 -1.1369
  649MOL0     H85647   4.235  -0.584   5.655 -1.1428  1.2557  0.6330
  649MOL0     H85648   4.222  -0.776   5.479 -0.3326  0.1082  2.2503
  649MOL0     H85649   4.123  -0.660   5.393  1.8892 -0.4243 -1.6522
  649MOL0     H85650   4.786   0.141   5.829  1.9361 -0.3590  1.3246
  649MOL0     H85651   4.983   0.300   5.818 -1.0209  0.4068  0.0811
  649MOL0     H85652   5.378   0.375   5.536  0.0043  0.5425 -2.4859
  649MOL0     H85653   5.591   0.525   5.500  0.0700  1.6105  0.2565
  649MOL0     H85654   4.565   0.441   5.088  1.3248 -2.5914  0.8364
  649MOL0     H85655   4.475   0.207   5.105 -0.1612 -0.7689 -1.0187
  649MOL0     H85656   4.045  -0.077   4.807 -0.8345 -1.5394 -0.6768
  649MOL0     H85657   3.984  -0.319   4.823 -0.5272  0.4504  0.8406
  649MOL0     H85658   4.076  -0.679   4.912  1.1173  1.1128 -0.4402
  649MOL0     H85659   4.016  -0.537   4.822  1.2152 -1.6697 -1.4763
  649MOL0     H85660   3.905  -0.688   5.055  1.2353 -0.0320  0.1032
  649MOL0     H85661   3.834  -0.524   5.024 -0.9807 -0.9090 -1.0152
  649MOL0     H85662   3.827  -0.758   4.839 -2.8300 -2.1936  2.2006
  649MOL0     H85663   3.773  -0.579   4.812 -0.1316  1.1932  1.5957
  649MOL0     H85664   3.626  -0.608   5.002  1.3306  0.7420 -0.8175
  649MOL0     H85665   3.586  -0.690   4.852  1.5603  1.7761 -1.5432
  649MOL0     H85666   3.632  -1.004   5.143  2.8762  1.1185  1.3532
  649MOL0     H85667   4.224  -0.332   5.192  0.5391  2.3368  0.7064
  649MOL0     H85668   4.282  -0.110   5.169 -1.6653  2.0596  0.9604
  650MOL0     O85669   4.851   6.984   2.159 -0.4756 -0.1785 -0.8009
  650MOL0     C85670   4.871   7.055   2.261 -0.1575 -0.6097 -0.6385
  650MOL0     O85671   4.813   7.045   2.387  0.0845 -0.0183  0.2590
  650MOL0     C85672   4.725   6.943   2.406  0.4544 -0.4401  0.8255
  650MOL0     C85673   4.595   6.944   2.343 -0.0595  0.6366  0.0643
  650MOL0     C85674   4.509   6.837   2.367  0.2362 -0.2267 -1.2613
  650MOL0     C85675   4.544   6.726   2.445 -0.5184 -0.2798 -0.0845
  650MOL0     O85676   4.472   6.610   2.462  0.0182  0.1422 -0.3425
  650MOL0     C85677   4.333   6.636   2.512  0.0484 -0.2344 -0.3980
  650MOL0     C85678   4.236   6.653   2.391 -0.2687  0.2088 -0.3138
  650MOL0     C85679   4.099   6.597   2.397  0.4749  0.7562 -0.8316
  650MOL0     C85680   4.090   6.449   2.413 -0.1670  0.5408 -0.0021
  650MOL0     C85681   3.958   6.392   2.373 -0.1984 -0.4331 -0.8881
  650MOL0     C85682   3.835   6.459   2.444 -0.4045  0.1438  0.0978
  650MOL0     C85683   3.706   6.379   2.412 -0.8062 -0.4258 -0.1740
  650MOL0     C85684   3.573   6.442   2.458 -0.0299 -0.4094 -0.2601
  650MOL0     N85685   3.475   6.345   2.420  0.0925  0.2828  0.0328
  650MOL0     C85686   3.442   6.231   2.484 -0.2237  0.5727  0.7391
  650MOL0     C85687   3.326   6.200   2.418  0.3765 -0.0471  0.2656
  650MOL0     C85688   3.253   6.083   2.468  0.2433 -0.0523 -0.0348
  650MOL0     C85689   3.195   6.108   2.604  0.1059 -0.3675 -0.1554
  650MOL0     C85690   3.153   5.994   2.697 -0.1762  1.4429  0.2821
  650MOL0     C85691   3.006   5.961   2.664 -0.3712  0.6849 -0.0010
  650MOL0     O85692   2.967   5.858   2.755  0.5688  0.7761 -0.1338
  650MOL0     C85693   2.834   5.853   2.794  0.5043  0.1601 -0.2023
  650MOL0     C85694   2.803   5.833   2.929 -0.4965 -0.5283  0.1031
  650MOL0     C85695   2.674   5.811   2.968 -0.8748 -0.1584 -0.1729
  650MOL0     C85696   2.573   5.800   2.874 -0.4965 -0.2082 -0.2546
  650MOL0     C85697   2.441   5.753   2.910 -0.5925  0.6643  0.2566
  650MOL0     O85698   2.346   5.749   2.808 -0.0891  0.8464  0.5863
  650MOL0     C85699   2.223   5.688   2.830 -0.9400 -0.4682  0.2416
  650MOL0     C85700   2.172   5.579   2.748 -0.2712 -0.9825 -0.5898
  650MOL0     C85701   2.054   5.516   2.783  0.1956  0.2209 -0.1612
  650MOL0     C85702   1.971   5.555   2.884  0.3584 -0.9939 -0.6206
  650MOL0     O85703   1.856   5.485   2.904  0.0070  0.3173 -0.4478
  650MOL0     C85704   1.817   5.480   3.039 -0.1577 -0.0978  0.0039
  650MOL0     C85705   1.910   5.411   3.143 -0.3219  0.4738 -0.2342
  650MOL0     C85706   1.923   5.258   3.123 -0.0277  0.9830  0.9385
  650MOL0     C85707   2.030   5.183   3.197  0.2332 -0.0768 -0.4425
  650MOL0     C85708   2.012   5.213   3.349  0.5851 -0.0049  0.1998
  650MOL0     C85709   2.052   5.109   3.450 -1.0396 -0.2493  0.2624
  650MOL0     C85710   2.197   5.068   3.425 -0.5990  0.6444  0.2091
  650MOL0     C85711   2.235   4.943   3.520 -0.4260  1.1244 -0.3977
  650MOL0    Cl85712   2.161   4.950   3.681 -0.0401 -0.4264 -0.1256
  650MOL0     C85713   2.011   5.664   2.962 -0.8481 -0.6551  0.6521
  650MOL0     C85714   2.134   5.733   2.933  0.0804 -0.1212 -0.0350
  650MOL0     O85715   2.411   5.722   3.024 -0.3784 -0.2169 -0.0862
  650MOL0     C85716   2.598   5.817   2.736 -1.0019 -0.4262  0.3445
  650MOL0     C85717   2.733   5.842   2.705  0.2477  1.1177  0.3641
  650MOL0     N85718   3.294   6.288   2.323  0.0845 -0.0962  0.6872
  650MOL0     N85719   3.386   6.378   2.325  0.8728 -0.3359  0.1590
  650MOL0     C85720   4.671   6.728   2.501 -0.2643  0.7482  0.2386
  650MOL0     C85721   4.758   6.841   2.482 -0.3524  0.7965 -1.2275
  650MOL0     C85722   4.976   7.167   2.250  0.0511  0.4695 -0.3730
  650MOL0     C85723   5.062   7.180   2.143  0.2335 -0.2931 -0.2966
  650MOL0     C85724   5.166   7.270   2.134 -0.3076 -0.2199 -0.3415
  650MOL0     C85725   5.197   7.359   2.246  1.3864 -0.1451 -0.5418
  650MOL0     O85726   5.303   7.445   2.257 -0.3852  0.4005 -0.4307
  650MOL0     C85727   5.413   7.433   2.163 -0.3167 -0.7034  0.0950
  650MOL0     C85728   5.382   7.539   2.051  0.1888  0.1892 -0.0738
  650MOL0     C85729   5.489   7.518   1.939 -0.0185  1.1939  0.4399
  650MOL0     C85730   5.637   7.557   1.977 -0.1574 -1.2770 -0.5633
  650MOL0     C85731   5.718   7.529   1.850 -0.5412  0.2137  0.5571
  650MOL0     C85732   5.770   7.494   1.742  0.4967  0.0212 -0.1706
  650MOL0     C85733   5.102   7.354   2.354  0.2993  0.4943  0.1777
  650MOL0     C85734   4.992   7.267   2.350 -0.1709  0.5412  1.2762
  650MOL0     H85735   4.571   7.030   2.282  1.0585  2.2559  1.7776
  650MOL0     H85736   4.417   6.834   2.309  0.7735  3.0715 -2.4978
  650MOL0     H85737   4.333   6.722   2.580  0.4228 -1.2605  0.9308
  650MOL0     H85738   4.311   6.552   2.578  0.3749 -0.1592 -0.1939
  650MOL0     H85739   4.285   6.596   2.311 -0.2270  0.2593 -0.3248
  650MOL0     H85740   4.220   6.759   2.370 -0.9280  0.4847  1.4652
  650MOL0     H85741   4.046   6.615   2.303 -0.6256 -3.0376 -1.1096
  650MOL0     H85742   4.040   6.646   2.475  0.7035  1.6175 -1.1892
  650MOL0     H85743   4.158   6.401   2.342  0.8332 -0.3195  1.4792
  650MOL0     H85744   4.125   6.412   2.510  3.3823  1.6149 -0.7165
  650MOL0     H85745   3.961   6.285   2.393 -3.0912 -0.4278  0.0320
  650MOL0     H85746   3.947   6.406   2.265 -1.6459  0.3193 -0.6776
  650MOL0     H85747   3.828   6.565   2.417 -1.9218 -0.0597 -0.3809
  650MOL0     H85748   3.867   6.440   2.547  1.5323  0.2100 -0.4357
  650MOL0     H85749   3.691   6.363   2.305  0.9215 -0.6567 -0.4039
  650MOL0     H85750   3.718   6.278   2.453  1.9225 -0.3201 -0.5726
  650MOL0     H85751   3.557   6.537   2.405  1.8812  0.0403 -0.1422
  650MOL0     H85752   3.576   6.454   2.567  0.9141 -0.2327 -0.2878
  650MOL0     H85753   3.480   6.177   2.570 -1.4954  0.3687  1.1984
  650MOL0     H85754   3.315   5.995   2.488  2.8053  2.1806  2.9012
  650MOL0     H85755   3.173   6.069   2.394  0.9805  3.0398 -1.5817
  650MOL0     H85756   3.109   6.174   2.590  0.2356  0.2414  1.6170
  650MOL0     H85757   3.269   6.160   2.665 -1.1710  1.6003 -0.1817
  650MOL0     H85758   3.220   5.909   2.685 -1.2776  0.6320 -0.2985
  650MOL0     H85759   3.157   6.036   2.798 -1.3628  0.3661  0.7964
  650MOL0     H85760   2.989   5.940   2.558  1.5607  2.8389 -0.8376
  650MOL0     H85761   2.944   6.051   2.678 -2.7693 -0.7881 -0.6122
  650MOL0     H85762   2.881   5.836   3.004  0.1823  2.6779 -0.5807
  650MOL0     H85763   2.659   5.814   3.075  2.8452  1.9585  0.4737
  650MOL0     H85764   2.229   5.548   2.662 -1.7814 -1.1103 -1.5746
  650MOL0     H85765   2.019   5.434   2.722  0.4454 -0.0663  0.0776
  650MOL0     H85766   1.732   5.411   3.032 -1.3254  1.2686  0.2538
  650MOL0     H85767   1.785   5.575   3.082 -0.8810 -0.5927  0.5831
  650MOL0     H85768   1.880   5.438   3.245  1.0941  0.9189  0.0908
  650MOL0     H85769   2.007   5.461   3.139 -0.0264 -0.1875 -1.7841
  650MOL0     H85770   1.928   5.237   3.016  1.0470 -0.1599  1.1855
  650MOL0     H85771   1.829   5.214   3.160  0.8773 -2.1607 -0.1425
  650MOL0     H85772   2.023   5.075   3.180  3.8662 -0.7866  1.5751
  650MOL0     H85773   2.126   5.222   3.161 -1.0413  4.4886  0.4395
  650MOL0     H85774   1.904   5.227   3.359  0.4551 -1.6856  1.5167
  650MOL0     H85775   2.065   5.307   3.367 -1.4167  1.2985 -0.3915
  650MOL0     H85776   1.984   5.024   3.440 -0.3872 -0.7394 -0.1035
  650MOL0     H85777   2.055   5.148   3.552 -0.7486  1.8505 -0.5111
  650MOL0     H85778   2.226   5.049   3.321  1.2227 -0.1738  0.8138
  650MOL0     H85779   2.258   5.155   3.451  0.7434 -0.3597  0.5423
  650MOL0     H85780   2.343   4.927   3.529 -0.6370 -2.5516 -2.3572
  650MOL0     H85781   2.195   4.851   3.477  0.4448  0.3776  0.3303
  650MOL0     H85782   1.937   5.704   3.031 -2.4708  1.2114 -1.9583
  650MOL0     H85783   2.159   5.824   2.986 -1.8907  0.8096 -0.5792
  650MOL0     H85784   2.528   5.777   2.663 -0.7748 -0.7039  0.2792
  650MOL0     H85785   2.755   5.858   2.600 -1.5613 -1.6707 -0.5360
  650MOL0     H85786   4.706   6.644   2.560 -1.5034 -1.0847 -1.5060
  650MOL0     H85787   4.855   6.826   2.528 -0.8898 -1.2217 -0.6421
  650MOL0     H85788   5.051   7.103   2.066  3.7931 -1.1061 -0.1703
  650MOL0     H85789   5.235   7.272   2.050  1.3271  2.6552  0.9334
  650MOL0     H85790   5.420   7.338   2.111 -1.2738 -0.3952 -0.6365
  650MOL0     H85791   5.511   7.452   2.209  0.4443  0.2658 -1.8330
  650MOL0     H85792   5.282   7.533   2.007  0.4347 -0.7088 -0.5272
  650MOL0     H85793   5.398   7.637   2.097  2.1959  0.7088 -1.7147
  650MOL0     H85794   5.453   7.581   1.857 -2.3866 -0.1639  0.3560
  650MOL0     H85795   5.490   7.411   1.916  2.5125  0.7519  2.1444
  650MOL0     H85796   5.645   7.663   2.004  1.2113 -0.9936 -1.9235
  650MOL0     H85797   5.670   7.488   2.056  1.3858 -1.5171 -1.3780
  650MOL0     H85798   5.817   7.467   1.650 -1.2222 -1.7845 -0.5982
  650MOL0     H85799   5.118   7.420   2.439 -1.7330  1.0924  0.1639
  650MOL0     H85800   4.930   7.260   2.439  0.4488 -1.2704  1.6026
  651MOL0     O85801   6.658  10.724   1.028  0.5447 -0.7501  0.7279
  651MOL0     C85802   6.692  10.844   1.014  0.3897  0.7240 -0.3259
  651MOL0     O85803   6.615  10.947   0.960 -0.3469 -0.4085  0.0406
  651MOL0     C85804   6.493  10.904   0.926  0.1875  0.3364  0.1983
  651MOL0     C85805   6.463  10.845   0.806  0.1503 -0.3043 -0.0982
  651MOL0     C85806   6.339  10.793   0.777 -0.5019  0.0209 -0.0197
  651MOL0     C85807   6.240  10.811   0.876  0.2331 -0.0604  0.7605
  651MOL0     O85808   6.103  10.774   0.848  0.4618  0.7059  0.7604
  651MOL0     C85809   6.003  10.832   0.923 -0.5072  0.2595  0.1647
  651MOL0     C85810   5.868  10.808   0.844 -1.0364 -0.0744 -0.9057
  651MOL0     C85811   5.759  10.900   0.899  0.7209 -0.0635  0.3973
  651MOL0     C85812   5.627  10.858   0.840  0.7940 -0.3863 -0.1409
  651MOL0     C85813   5.509  10.955   0.868  0.4780  0.6968 -0.2583
  651MOL0     C85814   5.398  10.932   0.787 -0.5099  1.0016 -0.4400
  651MOL0     C85815   5.272  11.002   0.829 -0.0250 -0.1880 -0.3243
  651MOL0     C85816   5.280  11.154   0.801 -0.5806 -0.0654  0.0877
  651MOL0     N85817   5.148  11.216   0.799  0.2241  0.2954  0.3389
  651MOL0     C85818   5.078  11.241   0.682 -0.5082 -0.2162  0.0511
  651MOL0     C85819   4.955  11.255   0.738  0.3570  0.6361  0.3894
  651MOL0     C85820   4.833  11.298   0.674 -0.2856 -0.3222  0.4139
  651MOL0     C85821   4.712  11.214   0.722  0.7162  0.0680 -0.3620
  651MOL0     C85822   4.655  11.267   0.861  1.0217 -0.1170 -0.2522
  651MOL0     C85823   4.516  11.204   0.889  0.2401  0.0864 -0.1966
  651MOL0     O85824   4.467  11.283   0.992  0.2199  0.1334 -0.9076
  651MOL0     C85825   4.335  11.281   1.019  0.5433 -0.4466  0.5640
  651MOL0     C85826   4.289  11.405   1.060 -0.6027  0.0704  1.1458
  651MOL0     C85827   4.161  11.412   1.095  0.1369 -0.5094  0.6442
  651MOL0     C85828   4.070  11.310   1.091 -0.0458 -0.9638 -0.2303
  651MOL0     C85829   3.924  11.335   1.146 -0.1686  0.4131  0.6917
  651MOL0     O85830   3.861  11.219   1.179 -0.3974  0.6862  0.9885
  651MOL0     C85831   3.745  11.246   1.245  0.1259 -1.2456 -0.1339
  651MOL0     C85832   3.734  11.230   1.385 -0.8788 -0.0929 -0.2238
  651MOL0     C85833   3.616  11.240   1.459  0.3559 -0.8476 -0.0270
  651MOL0     C85834   3.494  11.249   1.389  0.2389  0.4165  0.5915
  651MOL0     O85835   3.371  11.247   1.456 -0.2848  0.2244  0.0705
  651MOL0     C85836   3.312  11.126   1.431  0.2053  0.2722 -0.2237
  651MOL0     C85837   3.205  11.100   1.541 -0.2012  0.3003  0.2200
  651MOL0     C85838   3.102  11.002   1.505  0.7229 -0.4404  0.1691
  651MOL0     C85839   3.001  10.980   1.618 -0.3317 -0.5549  1.2289
  651MOL0     C85840   2.896  10.865   1.588 -0.1513 -0.3191 -0.4282
  651MOL0     C85841   2.802  10.822   1.716 -0.3969  1.1405 -0.5729
  651MOL0     C85842   2.700  10.723   1.666 -0.6036  0.3295 -1.0071
  651MOL0     C85843   2.634  10.658   1.789 -0.9391  1.0366 -0.0356
  651MOL0    Cl85844   2.530  10.775   1.871  0.1355  0.5648  0.0397
  651MOL0     C85845   3.502  11.278   1.246  0.2605  0.5786  0.5570
  651MOL0     C85846   3.624  11.280   1.177 -0.1266  1.1189 -0.2798
  651MOL0     O85847   3.885  11.452   1.163  0.2084  0.4469 -0.1679
  651MOL0     C85848   4.109  11.187   1.044  0.3619  0.7925  0.1746
  651MOL0     C85849   4.248  11.175   1.004  0.9143  0.4212  0.4318
  651MOL0     N85850   4.956  11.222   0.867  0.6898 -0.1214  0.3288
  651MOL0     N85851   5.070  11.194   0.906 -0.7200  0.5341  0.0446
  651MOL0     C85852   6.272  10.866   1.005  0.4297 -0.3545 -0.4266
  651MOL0     C85853   6.401  10.918   1.030 -0.3952  0.5702  0.2025
  651MOL0     C85854   6.824  10.881   1.059  0.6618  0.4014  0.7058
  651MOL0     C85855   6.842  11.013   1.094 -0.1989  0.8343 -0.1887
  651MOL0     C85856   6.954  11.049   1.166  0.4224 -0.6214 -0.6534
  651MOL0     C85857   7.055  10.960   1.196  0.1495  0.5580 -0.3789
  651MOL0     O85858   7.144  10.998   1.290 -0.7563 -0.1013  0.1072
  651MOL0     C85859   7.228  10.902   1.362 -0.1980  0.2038  0.4129
  651MOL0     C85860   7.243  10.958   1.501 -0.3000  0.6027  0.7724
  651MOL0     C85861   7.265  10.843   1.607 -0.0038  0.1378  0.2341
  651MOL0     C85862   7.372  10.870   1.719  0.6621 -0.3040  0.5330
  651MOL0     C85863   7.511  10.861   1.668 -0.1869  0.5592 -0.1058
  651MOL0     C85864   7.618  10.855   1.613 -0.2287  0.1907 -0.4866
  651MOL0     C85865   7.039  10.829   1.146 -0.3729  0.1273 -0.6091
  651MOL0     C85866   6.925  10.791   1.082 -0.3987  0.3678 -0.6720
  651MOL0     H85867   6.544  10.846   0.735  1.0401  1.8752  0.8372
  651MOL0     H85868   6.313  10.751   0.680 -0.1720 -1.3251  0.4520
  651MOL0     H85869   6.016  10.940   0.926 -0.2067  0.3147 -1.6419
  651MOL0     H85870   6.010  10.790   1.023  5.7600  1.9650  0.8910
  651MOL0     H85871   5.842  10.702   0.851  3.0085 -1.1813 -0.4454
  651MOL0     H85872   5.886  10.832   0.739  1.0571  3.6312  0.1197
  651MOL0     H85873   5.791  11.002   0.876  2.0287 -0.3111  1.0034
  651MOL0     H85874   5.760  10.896   1.008  0.0655 -2.9905  0.3903
  651MOL0     H85875   5.644  10.838   0.734 -0.5508 -1.5827 -0.1679
  651MOL0     H85876   5.606  10.757   0.878 -1.7217 -0.0066 -0.3416
  651MOL0     H85877   5.538  11.060   0.862 -1.7901  1.3399 -0.9986
  651MOL0     H85878   5.480  10.937   0.972  1.8263  2.2519  0.4276
  651MOL0     H85879   5.379  10.824   0.781  4.4101 -0.1815  0.4313
  651MOL0     H85880   5.424  10.945   0.682 -1.3068 -1.8672 -1.0936
  651MOL0     H85881   5.194  10.960   0.765 -0.7537  3.3138 -1.9429
  651MOL0     H85882   5.260  10.985   0.937  3.7341 -1.0825  0.1100
  651MOL0     H85883   5.324  11.175   0.703  0.8378 -4.0765 -0.3138
  651MOL0     H85884   5.340  11.202   0.879 -2.0837 -1.0877  1.9674
  651MOL0     H85885   5.101  11.235   0.576  0.7621  0.0768  0.3011
  651MOL0     H85886   4.846  11.291   0.566  0.7090 -1.0875  0.5658
  651MOL0     H85887   4.819  11.401   0.708  2.0535 -0.5993  2.5398
  651MOL0     H85888   4.735  11.108   0.734 -1.7587 -0.4797  0.0303
  651MOL0     H85889   4.629  11.213   0.651  0.9344 -0.3984 -0.6169
  651MOL0     H85890   4.715  11.248   0.951 -0.1772 -1.5744  0.2656
  651MOL0     H85891   4.652  11.377   0.859  0.6238 -0.1410 -1.2035
  651MOL0     H85892   4.523  11.100   0.922 -0.0680  0.6637  1.7847
  651MOL0     H85893   4.449  11.219   0.803 -1.0405 -1.0622  0.5710
  651MOL0     H85894   4.343  11.499   1.060  0.1252 -0.2580 -1.3246
  651MOL0     H85895   4.115  11.508   1.118 -3.0556 -1.1479 -2.3196
  651MOL0     H85896   3.829  11.194   1.422 -0.5303 -0.0133 -1.0282
  651MOL0     H85897   3.618  11.225   1.566  0.4508  1.6393  0.3590
  651MOL0     H85898   3.368  11.039   1.395 -2.2075 -1.2323 -0.5671
  651MOL0     H85899   3.243  11.147   1.349 -2.5889 -1.4036  1.5267
  651MOL0     H85900   3.155  11.192   1.573  2.1554  2.6579 -2.2686
  651MOL0     H85901   3.259  11.057   1.625  1.1360  1.3976 -0.0366
  651MOL0     H85902   3.147  10.905   1.484  2.2998 -0.4163  2.9584
  651MOL0     H85903   3.044  11.042   1.421  1.3019  0.1297  0.0340
  651MOL0     H85904   3.060  10.943   1.703 -0.1170  0.4780  1.5353
  651MOL0     H85905   2.944  11.072   1.627 -1.7531 -1.2582 -0.1705
  651MOL0     H85906   2.950  10.777   1.550 -4.4883 -1.0827 -6.0577
  651MOL0     H85907   2.834  10.908   1.510  0.6071 -2.4923 -2.3671
  651MOL0     H85908   2.759  10.915   1.754 -2.9173  1.4174 -3.6643
  651MOL0     H85909   2.872  10.771   1.784  0.3060 -1.6459 -3.1868
  651MOL0     H85910   2.629  10.770   1.597 -0.6816  0.0539 -1.1146
  651MOL0     H85911   2.758  10.649   1.611 -0.3913  1.2327 -2.0418
  651MOL0     H85912   2.715  10.622   1.853  0.9316  3.7400 -0.7013
  651MOL0     H85913   2.583  10.569   1.751  1.0762 -0.5269  0.7330
  651MOL0     H85914   3.405  11.283   1.197  0.4572 -1.8164 -0.2047
  651MOL0     H85915   3.621  11.298   1.070 -0.3034 -1.4720 -0.7920
  651MOL0     H85916   4.045  11.100   1.039  1.8526 -0.3351  0.3295
  651MOL0     H85917   4.293  11.084   0.965  1.7389  0.8410  0.3899
  651MOL0     H85918   6.201  10.885   1.085  0.0282 -1.5150 -0.4833
  651MOL0     H85919   6.432  10.960   1.125  1.6622 -0.0077 -0.1777
  651MOL0     H85920   6.765  11.087   1.077 -0.8618  0.5666  1.4321
  651MOL0     H85921   6.960  11.152   1.199 -0.6389 -0.2408 -1.5775
  651MOL0     H85922   7.319  10.880   1.304 -0.1253 -2.4566  1.4127
  651MOL0     H85923   7.178  10.805   1.363 -1.5059  0.8645  1.1704
  651MOL0     H85924   7.323  11.032   1.513  1.2340 -0.9958  0.9806
  651MOL0     H85925   7.151  11.008   1.533 -1.0736  0.2476 -0.8005
  651MOL0     H85926   7.281  10.755   1.545  1.1856 -0.4899  1.3805
  651MOL0     H85927   7.174  10.822   1.664  0.3690  0.4451  0.9607
  651MOL0     H85928   7.357  10.963   1.774 -1.9629 -2.0091  3.0536
  651MOL0     H85929   7.356  10.804   1.805 -1.9858  1.2272  1.3553
  651MOL0     H85930   7.714  10.856   1.565  0.9144 -2.7956  1.4388
  651MOL0     H85931   7.116  10.754   1.163 -1.3769 -0.5040  1.4521
  651MOL0     H85932   6.916  10.685   1.061 -0.7757 -0.0014  1.2156
  652MOL0     O85933   1.460   0.122   8.435 -0.9031 -1.1825  0.4837
  652MOL0     C85934   1.407   0.213   8.503  0.5078 -0.4711 -0.3240
  652MOL0     O85935   1.462   0.316   8.564  0.0501 -0.1696  0.5181
  652MOL0     C85936   1.596   0.333   8.540 -0.5620  0.4282 -0.3646
  652MOL0     C85937   1.668   0.339   8.657  1.4207 -0.2655  0.3783
  652MOL0     C85938   1.797   0.363   8.654  0.1896  0.4570  0.0143
  652MOL0     C85939   1.868   0.369   8.530 -0.2747 -0.4317  0.5368
  652MOL0     O85940   2.007   0.367   8.521  0.7569  0.0286  0.0233
  652MOL0     C85941   2.067   0.396   8.400 -0.4619  0.1080  0.1421
  652MOL0     C85942   2.220   0.406   8.404  0.2360 -0.0018  0.3703
  652MOL0     C85943   2.286   0.267   8.405  0.6199 -0.7832 -0.0683
  652MOL0     C85944   2.445   0.278   8.440  0.3136  0.1089 -0.3069
  652MOL0     C85945   2.514   0.136   8.458  0.2688  1.2820 -0.7720
  652MOL0     C85946   2.655   0.158   8.519  0.1743  0.2259  0.3087
  652MOL0     C85947   2.659   0.174   8.673 -0.3096  0.1363  0.2306
  652MOL0     C85948   2.801   0.208   8.718 -0.3022  0.2566  0.8038
  652MOL0     N85949   2.820   0.215   8.860  0.2299 -0.3190  0.3549
  652MOL0     C85950   2.798   0.119   8.958  0.1437 -0.5988  0.6985
  652MOL0     C85951   2.834   0.178   9.075 -0.2545 -0.7600 -0.3175
  652MOL0     C85952   2.827   0.108   9.212  0.6259 -0.0304 -0.0438
  652MOL0     C85953   2.694   0.114   9.273 -0.4157 -0.2811  0.9886
  652MOL0     C85954   2.683   0.063   9.413 -0.5590 -0.1903  0.5337
  652MOL0     C85955   2.549   0.073   9.478 -0.1228  0.5930  0.1739
  652MOL0     O85956   2.559  -0.008   9.595  0.6671  0.0957 -0.0674
  652MOL0     C85957   2.444  -0.078   9.633 -0.4828  0.1759 -0.2033
  652MOL0     C85958   2.310  -0.047   9.591 -0.0361 -0.3188  0.0814
  652MOL0     C85959   2.207  -0.128   9.629 -0.2318 -0.4517 -1.1337
  652MOL0     C85960   2.223  -0.216   9.740 -0.7414 -0.3913 -0.2198
  652MOL0     C85961   2.105  -0.256   9.816  0.4198 -0.9571 -0.0513
  652MOL0     O85962   2.115  -0.369   9.890  0.8329  0.0675 -0.0134
  652MOL0     C85963   1.998  -0.421   9.929  0.0730  0.4611 -0.3803
  652MOL0     C85964   1.959  -0.541   9.875 -0.2014  0.4991  0.3424
  652MOL0     C85965   1.848  -0.615   9.916  0.7453  0.8164 -0.0800
  652MOL0     C85966   1.774  -0.569  10.019 -0.3885 -0.7319 -0.8125
  652MOL0     O85967   1.671  -0.637  10.064  0.9575 -0.2247  0.2194
  652MOL0     C85968   1.560  -0.590   9.985 -0.0573  0.6754  0.3517
  652MOL0     C85969   1.454  -0.700   9.997 -0.0791 -0.0240 -0.3281
  652MOL0     C85970   1.501  -0.831   9.942 -0.0702  0.0839 -0.3978
  652MOL0     C85971   1.398  -0.935   9.962  1.0510  0.2325 -0.2970
  652MOL0     C85972   1.411  -1.074   9.898  0.3142  0.1659  0.7995
  652MOL0     C85973   1.375  -1.057   9.748  0.0436  0.2917 -0.6489
  652MOL0     C85974   1.331  -1.197   9.680  0.1031  0.0776 -0.7158
  652MOL0     C85975   1.446  -1.272   9.620  0.5211 -0.0070 -0.3215
  652MOL0    Cl85976   1.509  -1.179   9.479  0.1417  0.2034  0.0887
  652MOL0     C85977   1.807  -0.442  10.082 -0.2341  0.2450  0.1563
  652MOL0     C85978   1.922  -0.376  10.036 -0.1053 -0.7119 -0.7892
  652MOL0     O85979   2.004  -0.184   9.802 -0.6620 -0.1933  0.3564
  652MOL0     C85980   2.352  -0.244   9.779 -0.1605 -0.5515 -0.0434
  652MOL0     C85981   2.461  -0.180   9.720 -0.4678  0.7395  0.5996
  652MOL0     N85982   2.872   0.307   9.051 -0.1159 -0.7101 -0.4943
  652MOL0     N85983   2.862   0.324   8.927 -0.2310 -0.0637 -0.7197
  652MOL0     C85984   1.791   0.362   8.412 -0.7440 -0.8948 -0.4054
  652MOL0     C85985   1.659   0.344   8.414  0.1204 -0.2255 -0.0537
  652MOL0     C85986   1.260   0.206   8.529  0.2245  0.8845 -0.6659
  652MOL0     C85987   1.198   0.251   8.648  0.4688  0.5680 -0.8354
  652MOL0     C85988   1.074   0.221   8.685 -0.7347  0.6115 -0.1452
  652MOL0     C85989   0.988   0.176   8.591  0.6103  0.9174  0.0095
  652MOL0     O85990   0.850   0.173   8.619 -0.4111 -0.1995 -0.0012
  652MOL0     C85991   0.763   0.102   8.531 -0.3148  0.4395  0.1068
  652MOL0     C85992   0.622   0.086   8.591 -0.6653  0.3419 -0.1807
  652MOL0     C85993   0.531   0.010   8.492 -0.4416 -0.2385  0.0353
  652MOL0     C85994   0.384   0.047   8.510 -0.0937 -0.2125  0.8183
  652MOL0     C85995   0.329   0.158   8.432 -0.5897  0.4112  0.1786
  652MOL0     C85996   0.271   0.245   8.374  0.0381  0.2630  0.2035
  652MOL0     C85997   1.032   0.133   8.464  0.0306  0.1434 -0.0691
  652MOL0     C85998   1.167   0.152   8.435 -0.0293  0.3505  0.6999
  652MOL0     H85999   1.613   0.314   8.747  0.4104 -0.9644 -0.4024
  652MOL0     H86000   1.857   0.356   8.744  0.2408 -0.7223 -0.1023
  652MOL0     H86001   2.024   0.494   8.375 -0.8491  0.1061  0.7637
  652MOL0     H86002   2.048   0.320   8.324 -0.3308  0.8173 -0.6156
  652MOL0     H86003   2.252   0.465   8.490  1.2087 -1.1488  0.8308
  652MOL0     H86004   2.257   0.452   8.312  1.8882  0.5978  1.2909
  652MOL0     H86005   2.284   0.226   8.303 -4.0108 -0.6589 -0.2304
  652MOL0     H86006   2.229   0.206   8.476 -0.7653 -0.0788 -0.5544
  652MOL0     H86007   2.487   0.328   8.352 -1.3482 -0.0261 -1.2130
  652MOL0     H86008   2.466   0.349   8.521 -0.9338  0.9837 -0.7138
  652MOL0     H86009   2.530   0.089   8.360  2.3219 -0.5930  0.3731
  652MOL0     H86010   2.453   0.075   8.526  0.9348  0.3167 -1.0201
  652MOL0     H86011   2.692   0.251   8.475  0.1643  1.3343  2.4975
  652MOL0     H86012   2.733   0.092   8.481  0.1988  1.4954 -2.0894
  652MOL0     H86013   2.579   0.244   8.698 -0.1917  1.0941 -1.8498
  652MOL0     H86014   2.619   0.079   8.710 -1.6746 -0.8685 -3.4299
  652MOL0     H86015   2.827   0.305   8.673 -0.2138 -0.6294 -1.1675
  652MOL0     H86016   2.872   0.131   8.686  1.1065  1.7187  0.1917
  652MOL0     H86017   2.752   0.021   8.951  2.3819 -1.5928 -1.1463
  652MOL0     H86018   2.892   0.166   9.278  0.6310 -0.1628  0.0703
  652MOL0     H86019   2.870   0.007   9.210 -0.7238 -0.6102 -1.1897
  652MOL0     H86020   2.620   0.056   9.217 -1.8471  2.7660 -0.5742
  652MOL0     H86021   2.652   0.215   9.263 -0.9326 -0.7117 -3.2305
  652MOL0     H86022   2.708  -0.044   9.417 -1.1822 -0.3307  0.9906
  652MOL0     H86023   2.757   0.117   9.472 -0.5097  1.0756 -0.6462
  652MOL0     H86024   2.473   0.053   9.402 -0.0534 -0.2668  0.3180
  652MOL0     H86025   2.528   0.176   9.506 -0.5814 -0.0144  2.2246
  652MOL0     H86026   2.294   0.029   9.515  2.3260 -1.1200 -1.3275
  652MOL0     H86027   2.112  -0.106   9.581 -0.2259  2.3591 -0.0506
  652MOL0     H86028   2.028  -0.581   9.802  1.5636  1.8472  1.1973
  652MOL0     H86029   1.819  -0.710   9.872  3.7522  0.3127 -1.2863
  652MOL0     H86030   1.583  -0.579   9.879 -2.7700 -0.6252 -0.4775
  652MOL0     H86031   1.510  -0.510  10.040 -1.9150 -2.4320  3.6512
  652MOL0     H86032   1.363  -0.670   9.946  0.8064  2.2392 -0.6857
  652MOL0     H86033   1.433  -0.706  10.104  1.5335 -0.8867 -0.0230
  652MOL0     H86034   1.587  -0.861  10.003  1.9631  5.7308  0.0962
  652MOL0     H86035   1.536  -0.824   9.839 -0.7701 -2.3582 -0.8660
  652MOL0     H86036   1.392  -0.944  10.071  0.9339  0.3467 -0.2944
  652MOL0     H86037   1.300  -0.894   9.934  0.6571  0.8610  1.8011
  652MOL0     H86038   1.340  -1.141   9.945 -1.6525  0.9504 -0.9265
  652MOL0     H86039   1.512  -1.112   9.917 -0.8418 -2.7399  1.5991
  652MOL0     H86040   1.450  -1.009   9.685 -1.3877  3.4639 -0.1599
  652MOL0     H86041   1.291  -0.987   9.738 -0.8797 -0.8346 -0.9939
  652MOL0     H86042   1.295  -1.250   9.769  3.0573  2.6743  2.2813
  652MOL0     H86043   1.250  -1.176   9.609 -0.8851  0.7399  0.5680
  652MOL0     H86044   1.417  -1.373   9.592  2.0715  0.1733 -2.8775
  652MOL0     H86045   1.527  -1.277   9.693  1.0348  2.1671 -0.6672
  652MOL0     H86046   1.747  -0.403  10.162  0.5630 -0.2587  1.0229
  652MOL0     H86047   1.957  -0.290  10.091 -2.2371  1.3953 -2.5303
  652MOL0     H86048   2.377  -0.310   9.862 -0.4418 -1.7959 -0.9255
  652MOL0     H86049   2.565  -0.197   9.745 -0.0209  1.5357 -0.6240
  652MOL0     H86050   1.842   0.375   8.317 -0.5406  0.6534 -0.1044
  652MOL0     H86051   1.603   0.337   8.322  0.3576  2.2052 -0.4371
  652MOL0     H86052   1.263   0.304   8.717 -1.2378 -0.4351  1.6784
  652MOL0     H86053   1.042   0.252   8.784 -0.3789  3.7023 -0.8748
  652MOL0     H86054   0.818   0.008   8.518  2.3379  1.5743  2.2756
  652MOL0     H86055   0.747   0.154   8.436  0.0755  2.0183  0.8727
  652MOL0     H86056   0.612   0.038   8.688  0.5673 -1.4334 -0.8735
  652MOL0     H86057   0.584   0.187   8.608 -0.5330  0.1580  1.2672
  652MOL0     H86058   0.556  -0.096   8.504 -0.5523 -0.0484  2.4898
  652MOL0     H86059   0.566   0.033   8.391 -1.1762 -3.7406 -1.1630
  652MOL0     H86060   0.337  -0.040   8.463  0.5216  0.0380 -0.2736
  652MOL0     H86061   0.348   0.045   8.614 -0.4978  0.5985  0.7035
  652MOL0     H86062   0.219   0.319   8.317 -3.5389 -0.4131  2.2131
  652MOL0     H86063   0.972   0.078   8.392  0.4728 -0.7589  0.2288
  652MOL0     H86064   1.196   0.123   8.335 -1.0159  1.4820  0.0546
  653MOL0     O86065   7.293   6.392  10.800  0.4963  0.1129  0.3832
  653MOL0     C86066   7.263   6.420  10.915  0.0167  0.2279 -0.5549
  653MOL0     O86067   7.357   6.451  11.008  0.3604 -0.5486  0.0564
  653MOL0     C86068   7.485   6.479  10.972  0.9003 -0.3533  0.6545
  653MOL0     C86069   7.541   6.596  11.032 -0.0190  0.4176 -0.1735
  653MOL0     C86070   7.677   6.623  11.015 -0.2701  0.2635 -0.3206
  653MOL0     C86071   7.754   6.550  10.922 -0.1303  0.3699 -0.3960
  653MOL0     O86072   7.881   6.573  10.896  0.3659  0.1709  0.0999
  653MOL0     C86073   7.963   6.629  10.993  0.3162  0.6402 -0.4251
  653MOL0     C86074   8.098   6.635  10.930 -0.4568 -0.3465  0.3541
  653MOL0     C86075   8.167   6.498  10.912  0.2060 -0.1154  0.5077
  653MOL0     C86076   8.311   6.500  10.864 -0.3832  0.1925 -0.0817
  653MOL0     C86077   8.370   6.355  10.859 -0.0532 -0.5045 -0.6912
  653MOL0     C86078   8.517   6.359  10.844 -0.1373 -0.1303  0.9672
  653MOL0     C86079   8.578   6.226  10.850  0.3871 -0.4736 -0.8847
  653MOL0     C86080   8.727   6.249  10.831  1.1792  0.2365  0.5158
  653MOL0     N86081   8.788   6.120  10.834 -0.5653 -0.2228 -0.1908
  653MOL0     C86082   8.797   6.044  10.718 -0.4518  0.8474 -0.1612
  653MOL0     C86083   8.891   5.954  10.745  0.2441  0.3657 -0.0871
  653MOL0     C86084   8.943   5.852  10.643  0.1196 -0.7956 -0.4473
  653MOL0     C86085   8.838   5.730  10.624  0.6954 -0.1450  0.1490
  653MOL0     C86086   8.864   5.640  10.499  0.4648 -1.0680 -1.3678
  653MOL0     C86087   8.749   5.549  10.477 -0.2084 -0.0599  0.4044
  653MOL0     O86088   8.633   5.628  10.426 -0.1036 -0.1032  0.3354
  653MOL0     C86089   8.505   5.591  10.454  1.0947 -0.5465  0.3798
  653MOL0     C86090   8.417   5.690  10.494  0.7309 -0.1725  0.1559
  653MOL0     C86091   8.283   5.665  10.523 -0.6753 -0.0928 -0.1796
  653MOL0     C86092   8.231   5.533  10.511  0.1257 -0.0667  1.5449
  653MOL0     C86093   8.084   5.495  10.538 -0.2815  0.5880  0.4217
  653MOL0     O86094   7.994   5.589  10.529  0.5481  0.4671  0.6205
  653MOL0     C86095   7.862   5.558  10.557  0.3824 -1.3517  0.5328
  653MOL0     C86096   7.784   5.442  10.534 -0.7300  0.7882 -0.9266
  653MOL0     C86097   7.645   5.442  10.549 -0.3595  0.5673 -0.3689
  653MOL0     C86098   7.583   5.563  10.590 -0.3311 -0.5913 -0.5931
  653MOL0     O86099   7.457   5.577  10.621  0.8003 -0.5516  0.1421
  653MOL0     C86100   7.367   5.459  10.611  0.4247  0.9531 -0.1711
  653MOL0     C86101   7.231   5.509  10.641 -0.7875 -0.5301  0.7347
  653MOL0     C86102   7.122   5.398  10.620 -0.1603 -0.4920 -0.2321
  653MOL0     C86103   7.090   5.377  10.475 -0.3142  0.7579  0.2748
  653MOL0     C86104   6.967   5.276  10.447 -0.4205  0.5370  0.0657
  653MOL0     C86105   6.832   5.323  10.503  0.4468  0.2510  0.7881
  653MOL0     C86106   6.717   5.231  10.460  0.1799  0.1748  0.5264
  653MOL0     C86107   6.587   5.266  10.528  0.4144 -0.5850  0.1022
  653MOL0    Cl86108   6.452   5.170  10.477 -0.1436 -0.3483  0.6797
  653MOL0     C86109   7.657   5.670  10.623 -0.5779  0.1209  0.3843
  653MOL0     C86110   7.795   5.681  10.599 -0.8845  1.1677  0.2969
  653MOL0     O86111   8.065   5.379  10.569 -0.0916 -0.0983  0.5181
  653MOL0     C86112   8.321   5.432  10.463  0.5711  0.0863 -0.1648
  653MOL0     C86113   8.456   5.462  10.443 -0.0990  0.2068 -0.0793
  653MOL0     N86114   8.942   5.977  10.871  0.0495 -0.9724 -0.0871
  653MOL0     N86115   8.882   6.083  10.921 -0.2688 -0.7080  0.5138
  653MOL0     C86116   7.693   6.444  10.861 -0.0158 -0.3777  0.4146
  653MOL0     C86117   7.563   6.402  10.886 -0.0992  0.2325  0.2172
  653MOL0     C86118   7.123   6.420  10.969  0.0253 -0.4504  0.9546
  653MOL0     C86119   7.088   6.485  11.090 -0.1743  0.4646  0.6311
  653MOL0     C86120   6.960   6.482  11.150 -0.2129 -0.8899  0.8524
  653MOL0     C86121   6.853   6.432  11.074  0.6208  0.1610  0.4331
  653MOL0     O86122   6.718   6.444  11.114  0.1468  0.2335 -0.1200
  653MOL0     C86123   6.688   6.559  11.193 -0.6681  0.1998 -0.5364
  653MOL0     C86124   6.531   6.571  11.211 -0.5489 -0.0110 -0.7174
  653MOL0     C86125   6.469   6.443  11.271  0.2310  0.2964  0.5772
  653MOL0     C86126   6.318   6.466  11.276 -0.1789 -1.1444 -0.4456
  653MOL0     C86127   6.279   6.563  11.375  0.6896 -1.2945 -0.1318
  653MOL0     C86128   6.252   6.646  11.458  0.1392  0.4726 -0.9090
  653MOL0     C86129   6.881   6.367  10.949 -0.4458 -0.3597 -0.1649
  653MOL0     C86130   7.013   6.362  10.900 -0.1452 -0.1681 -0.4333
  653MOL0     H86131   7.483   6.659  11.099  0.7399  0.1459  0.7683
  653MOL0     H86132   7.712   6.710  11.070 -0.1605 -0.6672  1.1239
  653MOL0     H86133   7.984   6.570  11.082  1.8115  0.7885 -0.6450
  653MOL0     H86134   7.933   6.731  11.019 -0.9148  0.3386 -0.5809
  653MOL0     H86135   8.160   6.696  10.995 -1.2991  0.3308  0.5498
  653MOL0     H86136   8.104   6.685  10.833 -0.8193 -1.1776 -0.1146
  653MOL0     H86137   8.113   6.426  10.850 -3.8369  0.9157  2.4664
  653MOL0     H86138   8.157   6.464  11.016 -2.7709 -0.5348  0.1812
  653MOL0     H86139   8.312   6.558  10.772 -0.0802  0.5627  0.1487
  653MOL0     H86140   8.374   6.558  10.932 -0.6867 -0.5169  0.8297
  653MOL0     H86141   8.317   6.306  10.777  3.2142  1.8497 -4.6027
  653MOL0     H86142   8.337   6.300  10.948 -1.5654  3.3394  1.3506
  653MOL0     H86143   8.562   6.424  10.920 -0.9804  0.5376  0.9053
  653MOL0     H86144   8.537   6.411  10.750 -0.5134  3.7565  2.8372
  653MOL0     H86145   8.565   6.183  10.950  0.5602  0.0910 -0.6125
  653MOL0     H86146   8.549   6.165  10.763  0.8750  1.8313 -2.7614
  653MOL0     H86147   8.759   6.319  10.909  1.0022 -1.3601  2.0954
  653MOL0     H86148   8.742   6.286  10.729 -0.0249 -3.8547 -1.3514
  653MOL0     H86149   8.746   6.053  10.623  0.6385 -0.2686 -0.8741
  653MOL0     H86150   9.031   5.802  10.684  1.9663  2.3991 -0.2601
  653MOL0     H86151   8.967   5.896  10.546  0.3458 -0.5022 -0.2581
  653MOL0     H86152   8.737   5.771  10.610  0.3402 -1.4606 -1.6492
  653MOL0     H86153   8.843   5.671  10.716  1.0910 -1.0349 -0.4298
  653MOL0     H86154   8.877   5.709  10.415  0.0305  1.0490  0.2354
  653MOL0     H86155   8.956   5.583  10.513 -0.4280 -2.0239  1.2549
  653MOL0     H86156   8.725   5.488  10.564  2.6459  1.0748  2.1452
  653MOL0     H86157   8.779   5.474  10.403 -0.0971 -0.4994  0.8905
  653MOL0     H86158   8.459   5.790  10.486  1.0842 -0.2226  1.1581
  653MOL0     H86159   8.216   5.745  10.552 -0.1552 -0.3627  1.8705
  653MOL0     H86160   7.830   5.355  10.489  1.2203  0.6609  1.1021
  653MOL0     H86161   7.598   5.347  10.527 -0.6687  0.2692  1.4199
  653MOL0     H86162   7.404   5.385  10.683 -0.2755 -0.5445 -1.2947
  653MOL0     H86163   7.376   5.412  10.513 -3.2475 -1.6136  0.5093
  653MOL0     H86164   7.210   5.597  10.580  1.0552  1.2160  2.4676
  653MOL0     H86165   7.228   5.539  10.746  3.3264 -1.3841  1.2841
  653MOL0     H86166   7.036   5.432  10.678  1.6457 -0.5224  2.6562
  653MOL0     H86167   7.146   5.300  10.664 -3.1084 -0.6104  1.3839
  653MOL0     H86168   7.069   5.478  10.441 -2.1788  1.5242  3.3574
  653MOL0     H86169   7.182   5.339  10.429 -0.7149  0.5109 -0.3348
  653MOL0     H86170   6.998   5.181  10.491  0.9216  0.3319 -1.2295
  653MOL0     H86171   6.960   5.256  10.340  0.2289 -0.5574  0.2163
  653MOL0     H86172   6.810   5.427  10.477 -2.1477  1.1975  5.6083
  653MOL0     H86173   6.828   5.339  10.611 -2.3066 -1.8969  1.0936
  653MOL0     H86174   6.700   5.247  10.353 -1.3705 -0.0214  0.7253
  653MOL0     H86175   6.741   5.126  10.479  0.7578 -0.2346 -2.0312
  653MOL0     H86176   6.555   5.368  10.505  0.4831 -1.2480 -3.3751
  653MOL0     H86177   6.597   5.251  10.636  1.7063  2.2656  0.4691
  653MOL0     H86178   7.599   5.750  10.668  0.9457  0.9033  1.0323
  653MOL0     H86179   7.847   5.764  10.645 -2.7257  1.9193  1.1203
  653MOL0     H86180   8.278   5.333  10.450 -1.8522  0.9955  0.3715
  653MOL0     H86181   8.529   5.386  10.417 -1.3044 -1.6220  1.5765
  653MOL0     H86182   7.751   6.374  10.801  0.8246  0.1399  0.6046
  653MOL0     H86183   7.533   6.314  10.831 -0.5859  0.1456  0.6251
  653MOL0     H86184   7.171   6.526  11.148  0.2963 -0.8671  0.9436
  653MOL0     H86185   6.951   6.532  11.245  2.9341 -2.0628  1.9020
  653MOL0     H86186   6.740   6.639  11.141  3.5068 -0.6243  1.9196
  653MOL0     H86187   6.741   6.544  11.287  0.0135  1.4664 -0.7027
  653MOL0     H86188   6.520   6.653  11.282 -1.2412  0.4696 -1.3693
  653MOL0     H86189   6.480   6.593  11.117  1.4827  0.9141 -1.6809
  653MOL0     H86190   6.501   6.418  11.372 -1.5616 -0.8435  0.9166
  653MOL0     H86191   6.490   6.350  11.216 -0.1929 -0.2425  1.3067
  653MOL0     H86192   6.294   6.510  11.179 -1.2663 -3.1776 -1.1531
  653MOL0     H86193   6.261   6.373  11.280  0.2443 -1.3665  1.0577
  653MOL0     H86194   6.250   6.721  11.534  0.7756  0.2478 -0.6665
  653MOL0     H86195   6.800   6.324  10.890 -3.6334 -0.8129  4.0543
  653MOL0     H86196   7.030   6.325  10.799 -1.2340 -0.8766 -0.3716
  654MOL0     O86197   8.350   3.230  10.868 -0.1107 -0.5610 -0.1861
  654MOL0     C86198   8.392   3.160  10.956 -0.2238 -0.2855 -0.6996
  654MOL0     O86199   8.321   3.130  11.072 -0.2867 -0.7435  0.3953
  654MOL0     C86200   8.194   3.179  11.093  0.2072  0.2070 -0.3402
  654MOL0     C86201   8.169   3.277  11.190  0.0146  0.3910 -0.3832
  654MOL0     C86202   8.047   3.341  11.216  0.5506  0.2645  0.4361
  654MOL0     C86203   7.942   3.335  11.117  0.5842 -0.2514  0.1739
  654MOL0     O86204   7.831   3.417  11.106 -0.6450  0.7185 -0.0661
  654MOL0     C86205   7.872   3.551  11.115 -0.8478 -0.0923  0.9051
  654MOL0     C86206   7.754   3.641  11.129 -0.5094 -0.1703 -0.0158
  654MOL0     C86207   7.666   3.641  11.003 -0.1482  0.5762  0.5447
  654MOL0     C86208   7.524   3.698  11.042  0.7732 -0.6288 -0.2015
  654MOL0     C86209   7.432   3.712  10.913  0.5374  0.1706  0.2382
  654MOL0     C86210   7.289   3.750  10.960 -1.0440 -0.4454 -0.1091
  654MOL0     C86211   7.196   3.761  10.848 -0.6035 -0.7618  0.7930
  654MOL0     C86212   7.051   3.805  10.897 -0.0639 -0.6449  0.0542
  654MOL0     N86213   6.987   3.691  10.959 -0.0620 -0.1890 -0.4161
  654MOL0     C86214   6.927   3.593  10.881 -0.1763 -0.7427 -0.5650
  654MOL0     C86215   6.850   3.530  10.960 -0.4684 -0.6449 -0.1758
  654MOL0     C86216   6.758   3.423  10.911 -0.6891 -0.0018 -0.1056
  654MOL0     C86217   6.622   3.472  10.870  0.1056  0.0405 -0.0196
  654MOL0     C86218   6.544   3.346  10.833  0.3608  0.2847 -0.0611
  654MOL0     C86219   6.407   3.388  10.796  0.7211  0.0733  0.7708
  654MOL0     O86220   6.334   3.265  10.765  0.0514  0.4158  0.1300
  654MOL0     C86221   6.197   3.279  10.744  0.1615 -1.3162 -0.2201
  654MOL0     C86222   6.104   3.178  10.750  0.1164  0.4257  0.6320
  654MOL0     C86223   5.970   3.190  10.721  0.3877 -0.1613 -1.4180
  654MOL0     C86224   5.919   3.313  10.679  0.2394  0.0701 -0.5764
  654MOL0     C86225   5.774   3.333  10.653 -0.6449  0.6468  0.4168
  654MOL0     O86226   5.696   3.225  10.671  0.2571 -0.5390  0.4507
  654MOL0     C86227   5.574   3.234  10.617 -0.0176  0.2745  0.4504
  654MOL0     C86228   5.550   3.171  10.501  0.5611  0.5759  1.1012
  654MOL0     C86229   5.421   3.195  10.441 -0.1233  0.7053 -0.1543
  654MOL0     C86230   5.324   3.267  10.508  0.4672  0.3959 -0.7001
  654MOL0     O86231   5.204   3.276  10.446  0.2711  0.4880 -0.6724
  654MOL0     C86232   5.106   3.361  10.499  0.3718  0.2245 -0.6643
  654MOL0     C86233   5.125   3.495  10.432  0.4924 -0.4724 -1.4220
  654MOL0     C86234   5.099   3.496  10.287 -0.0794 -0.8433  0.5897
  654MOL0     C86235   4.950   3.477  10.243  1.1486 -0.2864  0.1640
  654MOL0     C86236   4.917   3.487  10.090 -0.2141 -0.3443 -0.2848
  654MOL0     C86237   4.925   3.635  10.036 -0.5747  0.1196 -0.3796
  654MOL0     C86238   4.886   3.621   9.890 -0.2112  0.2707 -0.2661
  654MOL0     C86239   4.870   3.768   9.833  0.3323 -0.0740 -0.6327
  654MOL0    Cl86240   4.853   3.741   9.661  0.0169 -0.2575 -0.2878
  654MOL0     C86241   5.360   3.327  10.634  0.1200  1.1238  0.0545
  654MOL0     C86242   5.476   3.294  10.693 -0.6514 -0.3508 -0.2304
  654MOL0     O86243   5.741   3.442  10.605 -0.4828 -0.4422  0.1520
  654MOL0     C86244   6.005   3.418  10.677  0.3353 -0.0898 -0.2113
  654MOL0     C86245   6.142   3.402  10.699 -0.3084  0.0898  0.2490
  654MOL0     N86246   6.852   3.585  11.085 -0.2519  0.7175 -0.1402
  654MOL0     N86247   6.932   3.690  11.084  0.3160  0.6675 -0.3136
  654MOL0     C86248   7.963   3.249  11.009 -0.5960  1.0535 -0.2765
  654MOL0     C86249   8.084   3.167  11.005  0.1564  0.1260 -0.4342
  654MOL0     C86250   8.510   3.072  10.935  0.3269 -0.9706 -0.1118
  654MOL0     C86251   8.572   3.068  10.807  0.5125 -0.9948  0.0072
  654MOL0     C86252   8.679   2.985  10.775  0.2770 -0.8821  0.1569
  654MOL0     C86253   8.712   2.891  10.871  0.1394 -0.4445  0.7277
  654MOL0     O86254   8.801   2.793  10.853  0.3453  0.3265  0.2583
  654MOL0     C86255   8.885   2.792  10.738 -0.7162  0.5646  0.3375
  654MOL0     C86256   8.974   2.673  10.746 -0.2615 -0.3500 -0.5244
  654MOL0     C86257   9.090   2.699  10.653 -0.4212  0.0840 -0.3330
  654MOL0     C86258   9.194   2.593  10.662 -0.0954  0.2268  0.2701
  654MOL0     C86259   9.152   2.451  10.655 -0.7649  1.0934 -0.2375
  654MOL0     C86260   9.110   2.340  10.653 -0.2464  0.5725 -0.7120
  654MOL0     C86261   8.658   2.898  10.999 -0.2164  0.5479  0.3524
  654MOL0     C86262   8.550   2.979  11.031  0.7041  0.0187  0.4700
  654MOL0     H86263   8.249   3.295  11.262  0.2493 -0.5545 -0.3946
  654MOL0     H86264   8.030   3.396  11.307  1.7548  0.4296  0.5805
  654MOL0     H86265   7.945   3.584  11.041  1.7939 -1.5492  2.7275
  654MOL0     H86266   7.916   3.572  11.212  0.5631 -0.3401  0.3347
  654MOL0     H86267   7.794   3.739  11.154 -0.3832 -1.0945  4.2185
  654MOL0     H86268   7.701   3.613  11.220  0.8522  0.4044  0.9912
  654MOL0     H86269   7.654   3.540  10.963  0.0068  0.4081  0.9156
  654MOL0     H86270   7.710   3.697  10.921  1.5149 -0.5165  0.6155
  654MOL0     H86271   7.471   3.639  11.117 -1.7332  3.0094  1.1561
  654MOL0     H86272   7.536   3.799  11.081  1.7118 -0.0067 -2.0112
  654MOL0     H86273   7.422   3.620  10.855  2.1208 -1.0136  1.7214
  654MOL0     H86274   7.469   3.783  10.839 -1.8558  0.6342 -0.5901
  654MOL0     H86275   7.290   3.846  11.013 -1.9883 -0.5510  0.1176
  654MOL0     H86276   7.252   3.674  11.030 -2.4529  0.0822 -0.2419
  654MOL0     H86277   7.243   3.835  10.783  1.2516 -1.4927  1.2309
  654MOL0     H86278   7.186   3.670  10.788  1.6128 -0.9824  0.6733
  654MOL0     H86279   6.989   3.831  10.811 -1.1520 -1.1694  0.6527
  654MOL0     H86280   7.052   3.889  10.967 -0.0650  0.2584 -1.0099
  654MOL0     H86281   6.947   3.576  10.775 -0.9162 -0.8670 -0.6868
  654MOL0     H86282   6.754   3.348  10.990 -0.7775  0.9661  0.8305
  654MOL0     H86283   6.808   3.379  10.824 -0.1416  4.1701 -2.1438
  654MOL0     H86284   6.635   3.530  10.778 -3.3810  0.4104 -0.4220
  654MOL0     H86285   6.580   3.529  10.953  0.5931 -2.6066  2.2050
  654MOL0     H86286   6.604   3.306  10.751  1.7587  0.2454  0.9388
  654MOL0     H86287   6.545   3.272  10.914 -2.5881 -2.7913 -2.5251
  654MOL0     H86288   6.406   3.447  10.704  0.8368 -0.9166  0.1154
  654MOL0     H86289   6.356   3.439  10.878  0.7839  4.1040 -1.4698
  654MOL0     H86290   6.141   3.079  10.776 -1.0222 -0.1702  0.0604
  654MOL0     H86291   5.903   3.105  10.730  2.6892 -1.8735  3.0984
  654MOL0     H86292   5.620   3.108  10.447 -1.0958 -2.7423  2.5526
  654MOL0     H86293   5.406   3.146  10.345 -2.4655 -1.6946  1.3066
  654MOL0     H86294   5.106   3.385  10.605 -1.6645  3.0997 -1.1914
  654MOL0     H86295   5.007   3.325  10.470 -0.0271  1.0758 -0.4045
  654MOL0     H86296   5.230   3.526  10.423  0.7490 -1.6369 -2.7647
  654MOL0     H86297   5.060   3.558  10.493 -0.8794 -4.6269  1.9135
  654MOL0     H86298   5.168   3.424  10.242  2.8475  2.3169 -0.3730
  654MOL0     H86299   5.124   3.590  10.238  0.1542 -1.3967 -0.3859
  654MOL0     H86300   4.921   3.379  10.282 -1.8986  0.2474 -0.4359
  654MOL0     H86301   4.887   3.550  10.295  0.8972 -1.5288  1.6952
  654MOL0     H86302   4.817   3.447  10.076  0.0702 -1.4725  0.7846
  654MOL0     H86303   4.986   3.423  10.033  1.5974  1.6031 -0.4270
  654MOL0     H86304   5.023   3.683  10.045 -1.7436  3.4854 -3.1764
  654MOL0     H86305   4.851   3.701  10.082  0.2968 -0.1408  1.5001
  654MOL0     H86306   4.966   3.573   9.834 -1.4868 -3.0432  0.5192
  654MOL0     H86307   4.793   3.563   9.889 -0.1622 -0.0674  3.3602
  654MOL0     H86308   4.965   3.819   9.851 -0.9933  1.2815  3.5184
  654MOL0     H86309   4.789   3.827   9.875  1.2305 -0.2627  1.4888
  654MOL0     H86310   5.282   3.365  10.699 -0.6873  1.5156 -1.1241
  654MOL0     H86311   5.496   3.332  10.793  1.5163  0.6283 -0.9875
  654MOL0     H86312   5.967   3.515  10.646 -0.1561  0.4144  1.7674
  654MOL0     H86313   6.205   3.486  10.672 -1.7908  0.5857 -2.0402
  654MOL0     H86314   7.890   3.245  10.929 -1.4334  0.3030  0.4993
  654MOL0     H86315   8.098   3.090  10.930 -0.3441  0.5170 -0.9348
  654MOL0     H86316   8.527   3.125  10.726 -1.3870 -1.3538  0.7602
  654MOL0     H86317   8.717   2.998  10.674 -2.1031 -0.1615 -0.7265
  654MOL0     H86318   8.944   2.884  10.734  3.9161 -2.0430  1.0683
  654MOL0     H86319   8.820   2.784  10.650  0.7837  1.1758 -0.8775
  654MOL0     H86320   9.011   2.656  10.848 -0.0700 -3.7625 -1.0480
  654MOL0     H86321   8.920   2.582  10.718 -2.2364 -0.2797  2.5828
  654MOL0     H86322   9.139   2.791  10.684  2.8050 -2.1005  1.6684
  654MOL0     H86323   9.064   2.712  10.547  2.6381  3.5203 -0.8493
  654MOL0     H86324   9.266   2.615  10.582 -0.7415  0.0413 -0.3733
  654MOL0     H86325   9.241   2.599  10.761 -3.8635 -0.7666  2.3199
  654MOL0     H86326   9.076   2.239  10.649 -0.5104  0.5365  1.3664
  654MOL0     H86327   8.690   2.814  11.060 -1.1340  0.4687  0.7322
  654MOL0     H86328   8.497   2.976  11.126  0.9453  1.2486  0.6698
  655MOL0     O86329   6.112   9.527   1.306 -0.1603  0.9950  0.1868
  655MOL0     C86330   6.156   9.641   1.285 -0.0739 -0.1973 -0.7584
  655MOL0     O86331   6.084   9.751   1.239 -0.2728  0.2924 -0.0124
  655MOL0     C86332   5.952   9.747   1.195 -0.7222  0.5247  0.7163
  655MOL0     C86333   5.916   9.856   1.123  0.0117 -0.5278 -0.0551
  655MOL0     C86334   5.788   9.882   1.080 -0.3465 -0.0412 -1.0146
  655MOL0     C86335   5.679   9.799   1.111  0.0832 -0.0562  0.2024
  655MOL0     O86336   5.550   9.828   1.057  0.7122  0.2927 -0.2146
  655MOL0     C86337   5.435   9.751   1.091  0.4270 -0.6668 -0.0654
  655MOL0     C86338   5.437   9.621   1.006 -0.4514 -0.6792  0.2415
  655MOL0     C86339   5.321   9.616   0.912 -0.4769  0.0624  0.4166
  655MOL0     C86340   5.184   9.590   0.978 -0.1559 -0.3625  0.1969
  655MOL0     C86341   5.092   9.536   0.873  0.9332  0.9963  0.1922
  655MOL0     C86342   4.945   9.567   0.893  0.2020 -0.6446  1.0980
  655MOL0     C86343   4.853   9.485   0.995 -0.8090  0.0527  0.2186
  655MOL0     C86344   4.865   9.521   1.142 -0.2808  0.4001 -0.0771
  655MOL0     N86345   4.880   9.666   1.160  0.1535 -0.3093  0.3154
  655MOL0     C86346   4.793   9.758   1.108  0.2546 -0.2947 -0.0597
  655MOL0     C86347   4.836   9.870   1.160 -0.7303  0.6916 -0.6417
  655MOL0     C86348   4.787  10.001   1.123 -0.1381 -0.5176  0.0915
  655MOL0     C86349   4.637  10.019   1.091  0.0363 -0.3517 -0.5280
  655MOL0     C86350   4.622  10.161   1.037 -0.0520 -0.0015  0.0223
  655MOL0     C86351   4.484  10.220   1.046  1.1449  0.2787 -0.0960
  655MOL0     O86352   4.383  10.134   0.987 -0.2100  0.4937  0.2432
  655MOL0     C86353   4.259  10.173   1.015 -0.2849  0.2270  0.5519
  655MOL0     C86354   4.215  10.305   1.026  0.0729  0.6611  0.3389
  655MOL0     C86355   4.082  10.335   1.058 -0.0885  0.3865 -0.1365
  655MOL0     C86356   3.983  10.230   1.075 -0.0233  0.4370 -0.1655
  655MOL0     C86357   3.841  10.255   1.099  0.6780  0.2971 -0.8138
  655MOL0     O86358   3.756  10.152   1.098  0.3924  0.2688 -0.5165
  655MOL0     C86359   3.622  10.174   1.109 -0.5120  0.1998 -0.1760
  655MOL0     C86360   3.545  10.287   1.081  0.0530 -0.8417  0.4250
  655MOL0     C86361   3.408  10.284   1.096  0.0698  0.1715 -0.0258
  655MOL0     C86362   3.341  10.172   1.146  0.7832 -0.2127  0.1370
  655MOL0     O86363   3.208  10.149   1.183  0.0155  0.1807  0.4468
  655MOL0     C86364   3.100  10.225   1.112  0.7587  1.2266 -1.0687
  655MOL0     C86365   2.967  10.151   1.163  0.5696  0.1637 -0.2398
  655MOL0     C86366   2.937  10.024   1.077 -0.0138  0.6937  0.8305
  655MOL0     C86367   2.788   9.975   1.088 -0.1316 -0.1537  0.3257
  655MOL0     C86368   2.758   9.944   1.234  0.8449  0.0781 -0.2894
  655MOL0     C86369   2.635   9.840   1.225  0.2287 -0.4706  0.3951
  655MOL0     C86370   2.584   9.808   1.364  0.4937  0.1736 -0.0380
  655MOL0     C86371   2.628   9.670   1.422 -0.4318 -0.0520  0.7151
  655MOL0    Cl86372   2.523   9.650   1.560 -0.3523 -0.1454  0.7760
  655MOL0     C86373   3.419  10.056   1.167  1.0653  0.1501  0.2494
  655MOL0     C86374   3.558  10.056   1.151  0.4590  0.4621  0.4704
  655MOL0     O86375   3.817  10.375   1.129 -1.0773 -0.1490  0.4022
  655MOL0     C86376   4.023  10.098   1.064 -0.2407  0.1132 -0.2655
  655MOL0     C86377   4.163  10.070   1.034  1.6071  0.2456 -0.5218
  655MOL0     N86378   4.950   9.849   1.238  0.9799  0.5579  0.1140
  655MOL0     N86379   4.967   9.721   1.248 -0.4589  0.7649 -0.1632
  655MOL0     C86380   5.717   9.681   1.179 -0.4277 -0.2957  0.7883
  655MOL0     C86381   5.850   9.656   1.219  0.3851  0.2725  0.3569
  655MOL0     C86382   6.300   9.648   1.301  0.5182  0.5119 -0.5426
  655MOL0     C86383   6.359   9.770   1.345  0.0796 -0.1226  0.1561
  655MOL0     C86384   6.504   9.783   1.356  1.2964  0.2223 -1.3354
  655MOL0     C86385   6.589   9.683   1.315  0.0932 -0.8719  0.5945
  655MOL0     O86386   6.724   9.678   1.324  0.2240  0.0099  0.5972
  655MOL0     C86387   6.798   9.787   1.376  0.2024  0.2425 -0.3814
  655MOL0     C86388   6.941   9.774   1.333  0.4481  0.1406 -0.7240
  655MOL0     C86389   7.000   9.638   1.382 -0.1594 -0.1372  0.3339
  655MOL0     C86390   7.154   9.636   1.396  0.1359  0.3162  0.4885
  655MOL0     C86391   7.185   9.730   1.503  0.4454  0.4059  0.1913
  655MOL0     C86392   7.206   9.788   1.609  0.1933 -0.6065 -0.5225
  655MOL0     C86393   6.536   9.563   1.271  0.0255 -0.1548 -0.0442
  655MOL0     C86394   6.396   9.543   1.280 -0.4826  0.0656  0.7475
  655MOL0     H86395   5.991   9.933   1.107 -1.5214  1.3189  1.2118
  655MOL0     H86396   5.782   9.973   1.023  1.0013  2.3156  2.2761
  655MOL0     H86397   5.342   9.806   1.075  1.1306 -0.2888 -3.6767
  655MOL0     H86398   5.429   9.727   1.198 -1.4516 -0.4691 -0.0969
  655MOL0     H86399   5.414   9.534   1.068  2.5732 -1.9952 -0.3225
  655MOL0     H86400   5.536   9.598   0.966  0.1892  1.7806  0.2534
  655MOL0     H86401   5.339   9.533   0.844 -1.4057 -0.6187  0.9772
  655MOL0     H86402   5.314   9.711   0.858 -2.3678  0.5620  1.4408
  655MOL0     H86403   5.180   9.515   1.057  0.1878 -0.7408 -0.1382
  655MOL0     H86404   5.151   9.686   1.019 -1.2176 -0.2995 -0.7471
  655MOL0     H86405   5.100   9.427   0.869 -2.9167  0.5089  1.2083
  655MOL0     H86406   5.117   9.567   0.771 -0.5402  3.4204  0.4853
  655MOL0     H86407   4.887   9.560   0.801 -0.9315  0.9823  1.6391
  655MOL0     H86408   4.939   9.674   0.915 -1.5481 -0.6546  0.8371
  655MOL0     H86409   4.750   9.492   0.957 -0.0708  2.3529 -1.5239
  655MOL0     H86410   4.888   9.383   0.978 -1.2653 -0.2350  0.9210
  655MOL0     H86411   4.948   9.469   1.191 -0.2499  0.8237  0.3259
  655MOL0     H86412   4.780   9.493   1.204 -1.6147  0.7836 -1.6599
  655MOL0     H86413   4.717   9.748   1.031 -1.0828  1.8094  0.9021
  655MOL0     H86414   4.838  10.025   1.029 -1.3893 -1.5442 -0.8901
  655MOL0     H86415   4.811  10.071   1.203 -0.3997  0.0289 -0.3032
  655MOL0     H86416   4.577  10.012   1.183  0.0831 -0.2099 -0.4877
  655MOL0     H86417   4.602   9.940   1.023  1.2920 -1.3067 -0.1045
  655MOL0     H86418   4.690  10.220   1.099 -2.5972  5.3236 -1.6790
  655MOL0     H86419   4.655  10.160   0.932 -2.1045 -0.7716 -0.6768
  655MOL0     H86420   4.479  10.315   0.992 -0.2159  0.9517  1.1491
  655MOL0     H86421   4.450  10.231   1.150 -1.0414  1.1117 -0.8372
  655MOL0     H86422   4.280  10.390   1.008  0.1214  0.3617 -1.0895
  655MOL0     H86423   4.058  10.441   1.059  0.2651  0.5148 -1.8177
  655MOL0     H86424   3.578  10.378   1.031 -2.0996 -2.3073 -4.2652
  655MOL0     H86425   3.352  10.376   1.091  0.2165  0.2453 -0.3273
  655MOL0     H86426   3.113  10.213   1.004 -2.6478  0.0704 -1.4619
  655MOL0     H86427   3.107  10.331   1.138  0.6996  2.4686 -5.4172
  655MOL0     H86428   2.882  10.219   1.149  1.6792  1.4838 -0.8109
  655MOL0     H86429   2.964  10.123   1.269 -0.7209  2.9018  0.5357
  655MOL0     H86430   3.002   9.943   1.111 -0.2783  0.2257  0.2491
  655MOL0     H86431   2.944  10.043   0.970 -0.0885 -0.4004  0.6234
  655MOL0     H86432   2.732  10.057   1.041  0.3203 -2.1377 -4.1369
  655MOL0     H86433   2.779   9.894   1.016  1.9377  0.6746 -0.9693
  655MOL0     H86434   2.745  10.041   1.282 -2.2200 -0.9874  1.2942
  655MOL0     H86435   2.841   9.889   1.279 -2.2127 -3.7586  1.2359
  655MOL0     H86436   2.654   9.742   1.182  2.2860 -1.3661  3.1206
  655MOL0     H86437   2.556   9.887   1.165 -1.9172 -1.4338  2.3344
  655MOL0     H86438   2.600   9.894   1.430  0.4234 -1.5471  2.3796
  655MOL0     H86439   2.475   9.804   1.358  0.2705  1.5425  1.9983
  655MOL0     H86440   2.734   9.658   1.445 -0.0415 -0.2959 -1.0468
  655MOL0     H86441   2.606   9.586   1.355  1.2616  0.3751 -0.4609
  655MOL0     H86442   3.364   9.965   1.191  2.0773 -0.4248  0.4409
  655MOL0     H86443   3.613   9.967   1.178 -1.4540 -0.7256  0.6379
  655MOL0     H86444   3.947  10.021   1.056  0.4619 -1.0123  2.5324
  655MOL0     H86445   4.191   9.966   1.021 -2.2119 -1.0133  0.1357
  655MOL0     H86446   5.639   9.613   1.211 -1.3095 -0.4540 -1.5423
  655MOL0     H86447   5.872   9.570   1.281  0.4677  1.6490  2.2956
  655MOL0     H86448   6.295   9.854   1.370 -0.7329 -0.4931 -0.6298
  655MOL0     H86449   6.546   9.873   1.399  0.2090 -0.2543  0.8595
  655MOL0     H86450   6.801   9.783   1.485 -1.0424 -4.3070 -0.3048
  655MOL0     H86451   6.763   9.883   1.337  1.1145 -0.1129 -2.1794
  655MOL0     H86452   6.950   9.773   1.224  1.9211 -0.1746 -0.6176
  655MOL0     H86453   7.003   9.857   1.367  0.3190 -0.8800  2.3354
  655MOL0     H86454   6.980   9.559   1.309  0.4803 -0.6655  0.7132
  655MOL0     H86455   6.964   9.608   1.481  0.7043 -1.4698  0.2856
  655MOL0     H86456   7.196   9.542   1.432 -0.7982 -0.6385 -0.8372
  655MOL0     H86457   7.206   9.671   1.306  0.7681 -2.2389 -0.2119
  655MOL0     H86458   7.241   9.839   1.696  2.3069  0.0849 -1.6953
  655MOL0     H86459   6.597   9.480   1.239  0.0924  0.8598 -2.8024
  655MOL0     H86460   6.364   9.442   1.257 -0.4856  0.5802 -1.8561
  656MOL0     O86461  10.979   1.395   8.809 -0.1836  0.8090 -0.0642
  656MOL0     C86462  11.062   1.321   8.868 -0.0937  0.2091  0.0173
  656MOL0     O86463  11.053   1.187   8.888  0.0886  0.0004  0.9599
  656MOL0     C86464  10.949   1.127   8.819 -0.2967  0.7361  0.0052
  656MOL0     C86465  10.928   1.147   8.684 -0.0974  0.6653  0.4847
  656MOL0     C86466  10.818   1.086   8.613  0.7132  0.1986 -0.7465
  656MOL0     C86467  10.732   0.997   8.685 -0.1755 -0.1041 -0.4956
  656MOL0     O86468  10.618   0.938   8.633  0.3828  0.4958 -0.4836
  656MOL0     C86469  10.618   0.918   8.487 -0.1214 -0.3127  0.3327
  656MOL0     C86470  10.514   0.803   8.458 -0.4302 -0.3934  0.0232
  656MOL0     C86471  10.372   0.856   8.492  0.0543 -0.7799 -0.5553
  656MOL0     C86472  10.267   0.745   8.454 -0.0013 -0.0170  0.0875
  656MOL0     C86473  10.136   0.792   8.506  0.6658  0.4447 -0.2030
  656MOL0     C86474  10.041   0.667   8.492 -0.6201 -0.0560 -0.3836
  656MOL0     C86475   9.899   0.694   8.556 -0.2616 -0.1138 -0.1440
  656MOL0     C86476   9.802   0.580   8.505  0.8419  0.5695 -0.1637
  656MOL0     N86477   9.683   0.574   8.600  0.6183  0.3716  0.8225
  656MOL0     C86478   9.683   0.503   8.717 -0.0421 -0.1730 -0.1927
  656MOL0     C86479   9.554   0.480   8.745 -0.9762 -0.2365 -0.6839
  656MOL0     C86480   9.505   0.391   8.858 -0.8451  0.0450  0.3402
  656MOL0     C86481   9.377   0.316   8.824  1.5419 -0.1004 -0.2730
  656MOL0     C86482   9.346   0.215   8.942 -0.5525 -0.5267 -0.0796
  656MOL0     C86483   9.222   0.136   8.913 -0.1654 -0.2406 -0.6014
  656MOL0     O86484   9.121   0.237   8.886  0.0342  0.4677 -1.0311
  656MOL0     C86485   8.997   0.196   8.866 -0.0432  0.0494 -0.3109
  656MOL0     C86486   8.954   0.061   8.873  0.4603  0.3221  0.5649
  656MOL0     C86487   8.823   0.029   8.853  0.3927  0.1179  0.3264
  656MOL0     C86488   8.723   0.125   8.832  0.6189 -0.1834  0.4822
  656MOL0     C86489   8.580   0.091   8.808  0.2094  0.0592 -0.3266
  656MOL0     O86490   8.497   0.190   8.776 -0.1592  0.4834 -0.0810
  656MOL0     C86491   8.359   0.162   8.766  0.1585  0.0689  0.1848
  656MOL0     C86492   8.305   0.189   8.644 -0.3721 -0.4980  0.8558
  656MOL0     C86493   8.173   0.141   8.615  0.7099  0.0316 -0.5749
  656MOL0     C86494   8.094   0.075   8.713  0.7509 -0.1268  0.6437
  656MOL0     O86495   7.965   0.036   8.694 -0.4163 -0.3570 -0.3786
  656MOL0     C86496   7.880   0.136   8.636  0.5017  0.0177 -0.4321
  656MOL0     C86497   7.745   0.061   8.608  0.3202 -0.2749 -0.1064
  656MOL0     C86498   7.637   0.154   8.551  0.7777 -0.6903  0.2031
  656MOL0     C86499   7.502   0.100   8.568 -1.0007 -0.4763 -0.6458
  656MOL0     C86500   7.395   0.164   8.488 -0.0036  0.9391  0.3970
  656MOL0     C86501   7.407   0.311   8.475  0.3022 -0.6362 -0.1664
  656MOL0     C86502   7.303   0.360   8.378 -0.2638  0.2994  0.4747
  656MOL0     C86503   7.368   0.468   8.286 -0.1093 -0.0055 -0.6693
  656MOL0    Cl86504   7.247   0.526   8.170 -0.2291 -0.2208  0.0100
  656MOL0     C86505   8.146   0.065   8.838  0.1464 -0.4111 -0.0442
  656MOL0     C86506   8.281   0.100   8.871 -0.0759  0.8798  1.0585
  656MOL0     O86507   8.547  -0.024   8.816 -0.3718  0.5325 -0.3594
  656MOL0     C86508   8.767   0.262   8.831 -0.6174  0.1287 -0.9963
  656MOL0     C86509   8.904   0.291   8.840  0.2562 -0.4484 -0.0087
  656MOL0     N86510   9.478   0.560   8.666  0.6723  1.1388  0.8002
  656MOL0     N86511   9.550   0.605   8.568 -0.3136 -0.3929 -0.0984
  656MOL0     C86512  10.771   0.952   8.810 -0.9033 -0.1495 -0.3398
  656MOL0     C86513  10.878   1.017   8.881 -0.4401  0.3332  0.2763
  656MOL0     C86514  11.171   1.386   8.945  0.7157 -0.3482  0.1619
  656MOL0     C86515  11.177   1.521   8.965  0.6223  0.2098  0.0128
  656MOL0     C86516  11.277   1.584   9.044 -0.6531 -0.1196  0.3541
  656MOL0     C86517  11.381   1.509   9.099  0.2597 -0.1247  0.4593
  656MOL0     O86518  11.474   1.580   9.158 -0.9254  0.0607 -0.1118
  656MOL0     C86519  11.603   1.524   9.199 -0.2445  0.3436  0.3054
  656MOL0     C86520  11.690   1.647   9.241 -0.4946  0.6775 -0.1103
  656MOL0     C86521  11.713   1.737   9.118  1.2181 -0.5938  0.1188
  656MOL0     C86522  11.780   1.681   8.997  0.5078 -0.2901  0.1324
  656MOL0     C86523  11.822   1.790   8.914  0.2435 -1.8777  0.1892
  656MOL0     C86524  11.864   1.889   8.852 -0.6083 -0.0357 -0.9860
  656MOL0     C86525  11.372   1.374   9.077 -0.0493 -0.0868  0.0861
  656MOL0     C86526  11.273   1.309   9.006  0.6403  0.4784 -0.7988
  656MOL0     H86527  10.989   1.220   8.632  0.0788  0.8064  0.8855
  656MOL0     H86528  10.808   1.115   8.509  1.5724 -0.4987 -1.0360
  656MOL0     H86529  10.714   0.888   8.443 -0.2278 -1.5018  0.8666
  656MOL0     H86530  10.591   1.018   8.450  0.2407  0.3611  1.7972
  656MOL0     H86531  10.542   0.706   8.500  2.5134 -0.0136 -0.8243
  656MOL0     H86532  10.516   0.791   8.349 -0.3078  0.8632 -0.1321
  656MOL0     H86533  10.338   0.940   8.431 -0.6741  0.5016  1.5504
  656MOL0     H86534  10.368   0.888   8.596 -2.8629 -1.6788 -0.2810
  656MOL0     H86535  10.269   0.725   8.347 -0.3875  0.4881 -0.0185
  656MOL0     H86536  10.303   0.649   8.492  5.3336  1.0734 -1.3298
  656MOL0     H86537  10.089   0.876   8.453 -0.6704  0.4194  0.8743
  656MOL0     H86538  10.152   0.816   8.611 -2.7142 -3.5087  1.5242
  656MOL0     H86539  10.091   0.586   8.544  0.5867  1.8708  1.6149
  656MOL0     H86540  10.019   0.646   8.387 -3.7436  3.1491 -0.5823
  656MOL0     H86541   9.904   0.715   8.664  1.8473  1.9399 -0.5505
  656MOL0     H86542   9.859   0.790   8.522  1.8509  1.5413  1.6893
  656MOL0     H86543   9.849   0.482   8.493 -4.2591 -2.1729 -0.6358
  656MOL0     H86544   9.761   0.601   8.406  0.1338 -3.2981 -0.8743
  656MOL0     H86545   9.771   0.471   8.771  0.1501  1.2838  0.4201
  656MOL0     H86546   9.485   0.464   8.937 -0.1940 -1.1120  1.6146
  656MOL0     H86547   9.586   0.323   8.884 -1.7309 -1.6063 -1.0147
  656MOL0     H86548   9.381   0.255   8.733 -1.7668 -1.6728  0.4944
  656MOL0     H86549   9.296   0.389   8.809  0.9852 -0.9667 -1.7790
  656MOL0     H86550   9.430   0.147   8.957 -1.0135 -0.7282  1.7792
  656MOL0     H86551   9.335   0.277   9.031  0.3558  0.7841 -0.8351
  656MOL0     H86552   9.198   0.069   8.996 -2.4933 -0.9274 -1.7525
  656MOL0     H86553   9.242   0.065   8.832  2.0001 -0.3994  0.0236
  656MOL0     H86554   9.024  -0.018   8.901 -1.0652 -0.7354  1.5729
  656MOL0     H86555   8.784  -0.072   8.857  0.6211 -0.0050 -0.4969
  656MOL0     H86556   8.373   0.230   8.570 -1.7949 -0.5558 -0.5285
  656MOL0     H86557   8.137   0.166   8.516  0.7927  1.9988 -0.1519
  656MOL0     H86558   7.922   0.187   8.549  2.1505 -0.2264  0.1788
  656MOL0     H86559   7.860   0.218   8.707  1.9241 -1.7783  2.2111
  656MOL0     H86560   7.712   0.018   8.703  1.0063 -2.3925 -0.7758
  656MOL0     H86561   7.764  -0.022   8.540 -0.8635  1.6600 -3.0202
  656MOL0     H86562   7.657   0.163   8.444  1.4553 -2.8037  0.1081
  656MOL0     H86563   7.637   0.252   8.600 -1.8996 -1.7562  2.6318
  656MOL0     H86564   7.507  -0.007   8.546 -0.9725 -0.6866  0.3596
  656MOL0     H86565   7.475   0.122   8.672  1.9991 -0.0787  0.1188
  656MOL0     H86566   7.300   0.153   8.542  0.8914  0.0225  1.8575
  656MOL0     H86567   7.381   0.113   8.392 -2.7992  0.5420  0.9030
  656MOL0     H86568   7.508   0.337   8.442  0.6440  1.7200  2.3766
  656MOL0     H86569   7.390   0.356   8.573  1.0227 -0.7529  0.0166
  656MOL0     H86570   7.275   0.281   8.308  3.1183 -0.9075  0.2775
  656MOL0     H86571   7.217   0.404   8.430 -0.3656  1.4494 -0.6180
  656MOL0     H86572   7.445   0.425   8.222  2.3608 -1.5613  2.9931
  656MOL0     H86573   7.407   0.552   8.344 -1.2096 -0.6771  1.1219
  656MOL0     H86574   8.082   0.015   8.911  2.4167  0.0003  2.3925
  656MOL0     H86575   8.322   0.059   8.964 -0.4839 -3.1255 -0.3038
  656MOL0     H86576   8.702   0.347   8.819  0.7435  0.9069 -3.5135
  656MOL0     H86577   8.934   0.395   8.851  0.8843 -0.8461  2.6514
  656MOL0     H86578  10.711   0.881   8.866  0.7512 -0.1634  1.5491
  656MOL0     H86579  10.915   0.993   8.980  4.3284 -0.1156 -1.3487
  656MOL0     H86580  11.101   1.592   8.936  0.2426 -0.4733 -0.6978
  656MOL0     H86581  11.285   1.691   9.056  0.1300 -0.3713  2.7329
  656MOL0     H86582  11.651   1.475   9.114  1.2707  2.2782 -0.0208
  656MOL0     H86583  11.589   1.451   9.280 -1.1534 -0.4419 -0.5250
  656MOL0     H86584  11.638   1.690   9.327 -0.7191 -2.8374  1.6869
  656MOL0     H86585  11.782   1.613   9.291 -1.3728  1.2970  2.0374
  656MOL0     H86586  11.769   1.823   9.157 -1.8797  0.6006  2.3487
  656MOL0     H86587  11.610   1.766   9.094  1.1733 -1.4217 -0.7201
  656MOL0     H86588  11.869   1.622   9.025 -0.1599 -0.3424  2.3930
  656MOL0     H86589  11.704   1.621   8.948 -0.0033  1.2005 -0.9882
  656MOL0     H86590  11.894   1.963   8.781 -0.1632  0.0980 -0.6604
  656MOL0     H86591  11.463   1.327   9.113  1.6383  5.0597  3.7201
  656MOL0     H86592  11.278   1.201   8.998  0.7253  0.1993  2.1501
  657MOL0     O86593   3.478   9.410   3.894 -0.0386  0.0475 -0.1877
  657MOL0     C86594   3.415   9.487   3.966 -0.4205 -1.0113  1.0845
  657MOL0     O86595   3.453   9.609   4.008 -0.5113  0.2272 -0.0834
  657MOL0     C86596   3.572   9.669   3.962 -0.2481  0.1391 -0.4179
  657MOL0     C86597   3.572   9.809   3.940  0.5615 -0.5524 -0.2243
  657MOL0     C86598   3.683   9.877   3.883  0.1696 -0.0307 -0.4405
  657MOL0     C86599   3.806   9.808   3.862  1.1723  0.1417 -0.4902
  657MOL0     O86600   3.910   9.875   3.819  0.1235  0.0255 -0.2347
  657MOL0     C86601   4.041   9.817   3.806 -0.8564  0.3517 -0.1497
  657MOL0     C86602   4.139   9.926   3.766  0.2491 -0.5685  0.4769
  657MOL0     C86603   4.271   9.865   3.718 -1.6700 -0.7213  0.5616
  657MOL0     C86604   4.362   9.982   3.665  1.1855  0.3591  0.7103
  657MOL0     C86605   4.486   9.915   3.605  0.5094 -0.0817 -0.0485
  657MOL0     C86606   4.594  10.022   3.581 -0.5591  0.8478  0.2811
  657MOL0     C86607   4.725   9.957   3.523 -0.0730  0.8124 -0.4548
  657MOL0     C86608   4.834  10.065   3.501 -0.3668 -0.0882 -0.2033
  657MOL0     N86609   4.949  10.004   3.435 -0.8055 -0.6281  0.2194
  657MOL0     C86610   5.062  10.082   3.411  0.4106 -0.9974  0.4570
  657MOL0     C86611   5.148  10.019   3.326 -0.2100  0.1652 -0.8539
  657MOL0     C86612   5.283  10.077   3.283 -0.6843  0.3667  0.3483
  657MOL0     C86613   5.286  10.089   3.126  0.1939 -0.5148  0.6956
  657MOL0     C86614   5.264  10.237   3.080  0.6863 -0.5047  0.4925
  657MOL0     C86615   5.135  10.311   3.125  0.8835 -0.0175 -0.1869
  657MOL0     O86616   5.137  10.450   3.079 -0.4110  0.4001 -0.1456
  657MOL0     C86617   5.036  10.536   3.133 -0.9284  0.4045 -0.0003
  657MOL0     C86618   4.904  10.485   3.173 -0.0184  0.0606  0.0346
  657MOL0     C86619   4.810  10.579   3.212 -0.1989  0.6092  0.0318
  657MOL0     C86620   4.828  10.721   3.221  0.3339  0.4388  0.4610
  657MOL0     C86621   4.722  10.814   3.271 -0.2828  0.0439  0.0427
  657MOL0     O86622   4.603  10.752   3.303 -0.4903  0.3942 -0.1786
  657MOL0     C86623   4.507  10.826   3.367 -0.3432  0.3132 -0.2263
  657MOL0     C86624   4.474  10.962   3.337 -0.6081 -0.3293 -0.1517
  657MOL0     C86625   4.368  11.023   3.406  0.4933 -0.5664  0.5633
  657MOL0     C86626   4.303  10.953   3.508 -0.3439  0.2641  0.4605
  657MOL0     O86627   4.207  11.008   3.592 -0.3121 -0.1427  0.8366
  657MOL0     C86628   4.184  11.154   3.591  0.2156 -0.1024 -0.1362
  657MOL0     C86629   4.055  11.186   3.666  0.8784 -0.0206 -0.2671
  657MOL0     C86630   4.020  11.332   3.648  0.0419  0.3489 -1.1077
  657MOL0     C86631   3.901  11.364   3.740 -0.5569  0.0354 -0.0658
  657MOL0     C86632   3.848  11.504   3.707  0.1231 -0.2332  0.3069
  657MOL0     C86633   3.766  11.572   3.824 -0.2906 -0.2570  0.1676
  657MOL0     C86634   3.691  11.707   3.784 -0.1852  0.6151  0.3180
  657MOL0     C86635   3.583  11.730   3.889  0.0395 -0.0131  0.5991
  657MOL0    Cl86636   3.651  11.747   4.058 -0.1757 -0.2850 -0.0394
  657MOL0     C86637   4.333  10.818   3.528  0.5754 -0.1847  0.2976
  657MOL0     C86638   4.430  10.753   3.451 -0.6911  0.0712  0.0633
  657MOL0     O86639   4.750  10.933   3.299 -0.3231  0.1801  0.0647
  657MOL0     C86640   4.954  10.762   3.178 -0.6629  0.1816 -0.5132
  657MOL0     C86641   5.057  10.677   3.138 -0.6431  0.6061 -0.4556
  657MOL0     N86642   5.087   9.885   3.310 -0.7001  0.3975 -0.2570
  657MOL0     N86643   4.968   9.884   3.372 -0.0009  0.3013  0.3677
  657MOL0     C86644   3.813   9.667   3.899 -0.3461  0.2178 -0.4906
  657MOL0     C86645   3.695   9.604   3.948  0.1217  0.3835  0.1712
  657MOL0     C86646   3.287   9.432   4.002  0.5397 -0.2033 -0.4875
  657MOL0     C86647   3.193   9.513   4.070 -0.7971  0.0523 -0.3573
  657MOL0     C86648   3.073   9.453   4.116  0.2067  0.0238 -0.1409
  657MOL0     C86649   3.036   9.316   4.080 -0.0446  0.0695 -0.0230
  657MOL0     O86650   2.926   9.250   4.119  0.1051 -0.4119 -0.5052
  657MOL0     C86651   2.814   9.306   4.187  0.3611  0.2567  0.7485
  657MOL0     C86652   2.690   9.223   4.177 -0.2210 -0.5274 -1.0303
  657MOL0     C86653   2.718   9.078   4.233 -0.2458  0.3548  0.0686
  657MOL0     C86654   2.658   8.974   4.138 -0.8919  0.5166 -0.1242
  657MOL0     C86655   2.747   8.971   4.020 -0.4556 -0.0887 -0.4428
  657MOL0     C86656   2.837   8.978   3.944 -0.3494  0.4531  0.0639
  657MOL0     C86657   3.137   9.238   4.021  0.5877  0.6505 -0.7073
  657MOL0     C86658   3.257   9.296   3.976  0.2253  0.0010  0.2276
  657MOL0     H86659   3.480   9.866   3.949 -0.9458 -2.5891 -1.6687
  657MOL0     H86660   3.671   9.979   3.849  0.4547  0.7153  1.5720
  657MOL0     H86661   4.042   9.732   3.736  3.4366 -0.1744  0.3102
  657MOL0     H86662   4.078   9.772   3.899 -0.6802 -2.3369 -1.4006
  657MOL0     H86663   4.151   9.979   3.862 -0.2345 -3.3962  2.2048
  657MOL0     H86664   4.093   9.979   3.682  1.3140  0.9007  0.7608
  657MOL0     H86665   4.244   9.803   3.632 -0.6701  1.0247 -1.0689
  657MOL0     H86666   4.312   9.805   3.800  0.6812  4.0955  3.2984
  657MOL0     H86667   4.304  10.023   3.582 -0.1412 -1.7483  0.5024
  657MOL0     H86668   4.372  10.055   3.746 -3.2746  1.3876  0.5844
  657MOL0     H86669   4.458   9.874   3.507 -1.0092 -0.1341  0.3856
  657MOL0     H86670   4.524   9.834   3.668 -0.6304  0.4340  1.3627
  657MOL0     H86671   4.602  10.081   3.673 -1.4985  1.4200  0.0105
  657MOL0     H86672   4.570  10.097   3.506  3.0307  1.1956 -0.7266
  657MOL0     H86673   4.756   9.881   3.596  0.8730  1.7711  0.1701
  657MOL0     H86674   4.691   9.910   3.430 -1.3076  3.8883 -1.6954
  657MOL0     H86675   4.870  10.104   3.596  3.5755 -2.8850 -0.3300
  657MOL0     H86676   4.796  10.155   3.452 -3.0547 -2.5583 -3.1676
  657MOL0     H86677   5.087  10.183   3.439 -1.1128 -0.6446  0.6154
  657MOL0     H86678   5.354   9.996   3.303 -1.7543 -1.1607 -1.6418
  657MOL0     H86679   5.304  10.169   3.339  2.5831 -0.8861  1.4412
  657MOL0     H86680   5.223  10.017   3.074 -1.2612 -0.1413  1.8865
  657MOL0     H86681   5.386  10.068   3.085 -0.5342 -1.3406 -0.7335
  657MOL0     H86682   5.348  10.296   3.118  0.8010 -0.6397  0.4539
  657MOL0     H86683   5.265  10.250   2.971  1.3453  1.0212  0.6570
  657MOL0     H86684   5.143  10.320   3.234  1.6946  1.6231 -0.3538
  657MOL0     H86685   5.042  10.269   3.086 -0.5250  2.9481 -0.3531
  657MOL0     H86686   4.873  10.381   3.168 -1.0870  0.2758  1.4452
  657MOL0     H86687   4.717  10.532   3.242  0.4272 -2.3784 -2.2044
  657MOL0     H86688   4.536  11.025   3.274  0.2893 -0.2157  0.8210
  657MOL0     H86689   4.375  11.129   3.384  2.2245 -0.4379  1.5156
  657MOL0     H86690   4.164  11.189   3.489  1.0536  0.0255 -0.2653
  657MOL0     H86691   4.262  11.206   3.648  0.3235  0.7390 -1.0131
  657MOL0     H86692   4.075  11.172   3.773  2.6583  0.2487 -0.5292
  657MOL0     H86693   3.973  11.125   3.629  0.4077  0.6611 -0.3629
  657MOL0     H86694   4.006  11.352   3.541 -1.6232  2.9546 -0.5008
  657MOL0     H86695   4.106  11.395   3.671  0.5830 -0.5370 -0.6217
  657MOL0     H86696   3.812  11.304   3.722 -2.7250  2.8837  0.5266
  657MOL0     H86697   3.924  11.352   3.847  0.8755 -3.9669 -0.6575
  657MOL0     H86698   3.790  11.496   3.614 -1.1510 -0.9285  1.1239
  657MOL0     H86699   3.934  11.569   3.690  1.4628 -1.6048  1.4768
  657MOL0     H86700   3.821  11.588   3.918  2.2562 -0.5784 -1.1629
  657MOL0     H86701   3.682  11.506   3.845 -1.0583  0.6103 -0.1114
  657MOL0     H86702   3.767  11.784   3.769 -0.1693  0.3898 -0.8840
  657MOL0     H86703   3.648  11.692   3.684 -1.0672 -0.5158  0.8465
  657MOL0     H86704   3.506  11.652   3.890  1.3776 -1.5635  4.8662
  657MOL0     H86705   3.525  11.818   3.859  1.5423  0.6956 -0.3836
  657MOL0     H86706   4.283  10.757   3.603  2.4856 -2.0965  0.0991
  657MOL0     H86707   4.453  10.647   3.458  1.4929  0.3150 -2.1116
  657MOL0     H86708   4.966  10.870   3.182  1.4376 -0.0158 -0.3695
  657MOL0     H86709   5.153  10.720   3.111  1.0558 -3.6090 -1.9918
  657MOL0     H86710   3.898   9.602   3.880 -1.2032 -0.8833 -0.6130
  657MOL0     H86711   3.694   9.496   3.965  0.9443  0.3881  0.2515
  657MOL0     H86712   3.208   9.617   4.098 -2.9493  1.0152 -2.3907
  657MOL0     H86713   3.011   9.504   4.190 -0.2634  0.5428 -0.8706
  657MOL0     H86714   2.787   9.400   4.137 -5.0626 -1.8546 -1.0252
  657MOL0     H86715   2.840   9.323   4.292  1.1103  1.9180  0.3305
  657MOL0     H86716   2.602   9.263   4.227  0.0135 -0.5319 -0.6115
  657MOL0     H86717   2.667   9.210   4.071 -3.0524 -1.5507 -0.3554
  657MOL0     H86718   2.673   9.076   4.333  0.8219  3.3965  0.7312
  657MOL0     H86719   2.823   9.054   4.250 -0.4190  0.0366  0.7094
  657MOL0     H86720   2.658   8.871   4.176 -3.1891  0.7509  0.6465
  657MOL0     H86721   2.559   9.002   4.101 -1.0507  0.1887  0.0450
  657MOL0     H86722   2.926   9.006   3.891 -0.6125  0.3094 -0.4662
  657MOL0     H86723   3.122   9.130   4.015  0.1986  0.5927  0.7849
  657MOL0     H86724   3.326   9.227   3.928 -2.7369 -0.5017 -3.8829
  658MOL0     O86725   0.220   9.500   8.216  0.0953  0.0336 -0.6924
  658MOL0     C86726   0.239   9.406   8.291  0.0975  0.1958  0.5935
  658MOL0     O86727   0.165   9.290   8.293 -0.2768 -0.1335 -0.4175
  658MOL0     C86728   0.096   9.262   8.180 -0.0839  0.4421 -0.3008
  658MOL0     C86729  -0.034   9.315   8.156  0.7104  0.6692 -0.2422
  658MOL0     C86730  -0.096   9.284   8.035  0.2887  0.5435  0.1158
  658MOL0     C86731  -0.036   9.212   7.938 -0.3459 -0.4619  0.0568
  658MOL0     O86732  -0.090   9.174   7.821  0.3948 -0.6846 -0.4519
  658MOL0     C86733  -0.191   9.266   7.768  0.4379  0.0206 -0.2107
  658MOL0     C86734  -0.214   9.256   7.614 -0.6850 -0.1942  0.2078
  658MOL0     C86735  -0.342   9.324   7.568  0.2659  0.3173 -0.2138
  658MOL0     C86736  -0.360   9.309   7.423 -0.1905 -0.3471  0.6011
  658MOL0     C86737  -0.502   9.286   7.378  0.3872 -0.8676 -0.8479
  658MOL0     C86738  -0.511   9.244   7.232  0.4588  0.7908 -0.6525
  658MOL0     C86739  -0.663   9.228   7.181  0.5930 -0.0776 -0.0743
  658MOL0     C86740  -0.759   9.137   7.264 -0.9142  0.4667 -0.2456
  658MOL0     N86741  -0.890   9.131   7.198 -0.0982 -0.1094  0.1562
  658MOL0     C86742  -0.921   9.083   7.064 -0.4636  0.0973  0.1678
  658MOL0     C86743  -1.054   9.051   7.058 -0.2589 -0.7976 -0.4671
  658MOL0     C86744  -1.117   9.006   6.929  0.3379 -0.4787 -1.2588
  658MOL0     C86745  -1.124   9.123   6.822  0.4581 -0.0340 -0.5111
  658MOL0     C86746  -1.189   9.062   6.698 -0.0938  0.1687 -0.0084
  658MOL0     C86747  -1.214   9.171   6.595 -1.0631  0.0027  0.4850
  658MOL0     O86748  -1.276   9.113   6.480 -0.0721 -0.6412 -0.1464
  658MOL0     C86749  -1.401   9.172   6.446 -0.7294  0.9566  0.2515
  658MOL0     C86750  -1.425   9.284   6.366 -0.2642 -0.0146 -0.2003
  658MOL0     C86751  -1.548   9.329   6.334 -0.0881  0.1225  0.5254
  658MOL0     C86752  -1.657   9.266   6.400  0.8563 -0.4249  0.3637
  658MOL0     C86753  -1.794   9.319   6.374 -0.6585  0.0584  0.4984
  658MOL0     O86754  -1.888   9.270   6.447  0.2688  0.5133  0.3164
  658MOL0     C86755  -2.016   9.306   6.424 -0.0991  0.3098  0.2601
  658MOL0     C86756  -2.077   9.287   6.304 -0.2065  0.3946  0.8640
  658MOL0     C86757  -2.203   9.330   6.267 -0.0189  0.1529  0.3143
  658MOL0     C86758  -2.273   9.400   6.363  0.7850 -1.2862 -0.3299
  658MOL0     O86759  -2.396   9.466   6.351  0.8184  0.2475  0.3213
  658MOL0     C86760  -2.415   9.546   6.235  0.2303 -0.3967 -0.1934
  658MOL0     C86761  -2.529   9.484   6.157 -0.5528 -0.3361 -0.7714
  658MOL0     C86762  -2.663   9.475   6.236  0.0651  0.2757 -0.3520
  658MOL0     C86763  -2.757   9.366   6.185 -0.3097 -0.1827  0.0877
  658MOL0     C86764  -2.888   9.345   6.261  0.1940 -0.9956  0.2321
  658MOL0     C86765  -3.014   9.299   6.179  0.5806  0.0676  0.1436
  658MOL0     C86766  -2.989   9.152   6.133 -0.6628  0.1985 -0.2874
  658MOL0     C86767  -3.101   9.101   6.049 -0.6471 -0.4536  0.0442
  658MOL0    Cl86768  -3.045   8.985   5.923  0.1622  0.1854  0.1096
  658MOL0     C86769  -2.222   9.408   6.491 -0.3560  0.2758 -0.2362
  658MOL0     C86770  -2.094   9.364   6.523 -0.2518 -0.6231  0.2045
  658MOL0     O86771  -1.811   9.407   6.288 -0.4082 -0.2089 -0.5516
  658MOL0     C86772  -1.637   9.157   6.494 -1.1395  0.3542 -0.3751
  658MOL0     C86773  -1.504   9.113   6.509 -0.7851 -0.0367  0.2526
  658MOL0     N86774  -1.099   9.066   7.190  0.8962 -0.0185 -0.3128
  658MOL0     N86775  -1.007   9.114   7.268  0.1682  0.1140 -0.1511
  658MOL0     C86776   0.101   9.185   7.951  0.1085  0.4612 -0.4548
  658MOL0     C86777   0.163   9.193   8.079  0.0100  0.2270 -0.9915
  658MOL0     C86778   0.349   9.439   8.390 -0.2531 -0.0927 -0.0926
  658MOL0     C86779   0.390   9.334   8.470 -0.1804 -0.0199 -0.1044
  658MOL0     C86780   0.491   9.355   8.562 -1.0149 -0.0732  0.1659
  658MOL0     C86781   0.536   9.481   8.591 -1.1855  0.2862 -0.8404
  658MOL0     O86782   0.637   9.487   8.687 -0.4659  0.0512  0.6975
  658MOL0     C86783   0.728   9.602   8.694  0.4461  0.5708  0.1038
  658MOL0     C86784   0.776   9.635   8.837  0.5786 -0.5338  0.0985
  658MOL0     C86785   0.681   9.720   8.915  0.0092 -0.2431  0.5230
  658MOL0     C86786   0.694   9.709   9.068  0.4890 -0.1483  1.0278
  658MOL0     C86787   0.810   9.786   9.117  0.1657 -0.6892  0.0684
  658MOL0     C86788   0.921   9.833   9.158  0.4420  1.0636  0.3784
  658MOL0     C86789   0.489   9.586   8.510 -0.2627  0.2866 -0.9620
  658MOL0     C86790   0.402   9.564   8.408 -0.5807 -0.1737 -0.6327
  658MOL0     H86791  -0.081   9.376   8.233  1.0177 -0.5676  0.9412
  658MOL0     H86792  -0.197   9.320   8.022  0.0400  0.0193  0.5913
  658MOL0     H86793  -0.162   9.368   7.795 -1.9113  1.1610 -1.6566
  658MOL0     H86794  -0.284   9.238   7.818  0.7035 -0.3921  0.0546
  658MOL0     H86795  -0.218   9.147   7.601  1.6966 -0.4928  1.4037
  658MOL0     H86796  -0.124   9.286   7.559  0.0958 -1.2119  0.9022
  658MOL0     H86797  -0.357   9.424   7.609 -4.1206 -0.7346  1.3176
  658MOL0     H86798  -0.420   9.263   7.616  1.7967  0.3900  2.6216
  658MOL0     H86799  -0.327   9.404   7.381 -0.4242  0.6796  2.6366
  658MOL0     H86800  -0.296   9.230   7.382  0.0476 -0.8640  1.9208
  658MOL0     H86801  -0.559   9.376   7.404  0.1598 -1.1293 -0.4402
  658MOL0     H86802  -0.535   9.199   7.436  1.2632  0.5883  1.9971
  658MOL0     H86803  -0.460   9.149   7.215  2.9253  2.3278 -2.6000
  658MOL0     H86804  -0.463   9.306   7.155  2.3649 -0.9807 -0.9643
  658MOL0     H86805  -0.696   9.332   7.169  0.1915 -0.1676  0.2233
  658MOL0     H86806  -0.655   9.183   7.082 -0.7801 -1.4843  0.4052
  658MOL0     H86807  -0.775   9.178   7.364  1.1515 -1.4643  0.9759
  658MOL0     H86808  -0.723   9.035   7.279  0.2651  0.7953 -0.7052
  658MOL0     H86809  -0.847   9.080   6.985  0.8479  1.4369  1.2960
  658MOL0     H86810  -1.215   8.963   6.948  0.6644  0.2713  3.5374
  658MOL0     H86811  -1.060   8.926   6.882 -2.1176 -2.0739 -1.6903
  658MOL0     H86812  -1.020   9.151   6.806 -0.4295  4.0336 -0.0565
  658MOL0     H86813  -1.176   9.214   6.852  3.0920  2.0036 -1.7093
  658MOL0     H86814  -1.112   8.999   6.653 -0.6444  1.3534 -2.8497
  658MOL0     H86815  -1.279   9.006   6.725  0.5523 -0.9116 -0.0557
  658MOL0     H86816  -1.121   9.225   6.572 -0.7398  0.0863  1.9212
  658MOL0     H86817  -1.279   9.244   6.645  0.6622  1.5336  0.6093
  658MOL0     H86818  -1.343   9.331   6.313  1.6367 -3.0267 -0.1760
  658MOL0     H86819  -1.556   9.408   6.259  1.2769  1.8070  2.0689
  658MOL0     H86820  -2.025   9.239   6.222  0.8718  0.6676  1.3697
  658MOL0     H86821  -2.240   9.307   6.168  1.0304  1.5307 -0.4272
  658MOL0     H86822  -2.322   9.550   6.178  1.3025  0.5367  1.5405
  658MOL0     H86823  -2.437   9.651   6.256  2.8281  0.7216 -2.4100
  658MOL0     H86824  -2.502   9.379   6.142 -1.3154 -0.7806  0.7561
  658MOL0     H86825  -2.538   9.534   6.059  2.0217  3.1282  0.5517
  658MOL0     H86826  -2.724   9.566   6.240 -1.6941 -0.7533 -1.9928
  658MOL0     H86827  -2.636   9.455   6.340 -0.4191  0.9453 -0.0968
  658MOL0     H86828  -2.782   9.393   6.082 -2.9599 -1.8506  0.2109
  658MOL0     H86829  -2.719   9.263   6.177  2.9983  0.9004  0.2236
  658MOL0     H86830  -2.903   9.445   6.303  1.7427  0.0056 -1.4243
  658MOL0     H86831  -2.866   9.278   6.345  0.2974  1.0424  1.9034
  658MOL0     H86832  -3.027   9.361   6.090  1.8891 -0.0542 -0.1478
  658MOL0     H86833  -3.103   9.310   6.242  0.6621 -0.5658  0.3758
  658MOL0     H86834  -2.912   9.146   6.056 -0.7195 -2.2238 -0.2181
  658MOL0     H86835  -2.970   9.079   6.212 -1.1343  0.7383  0.3376
  658MOL0     H86836  -3.144   9.192   6.006  0.4688  0.4392  0.7804
  658MOL0     H86837  -3.171   9.041   6.109  0.2340 -2.4972 -0.8668
  658MOL0     H86838  -2.279   9.438   6.578 -3.2719  0.3959 -2.0409
  658MOL0     H86839  -2.046   9.377   6.619 -0.8179  0.9243  0.3054
  658MOL0     H86840  -1.712   9.102   6.550 -0.7882 -1.2421 -1.4161
  658MOL0     H86841  -1.489   9.030   6.577  3.4400  1.1124  1.0243
  658MOL0     H86842   0.163   9.142   7.872  2.5602  3.4267 -0.3344
  658MOL0     H86843   0.260   9.153   8.110 -1.7361 -2.6830  1.2314
  658MOL0     H86844   0.348   9.234   8.463  0.9297 -0.5138  0.0136
  658MOL0     H86845   0.519   9.273   8.628 -0.7447  0.7342  1.0880
  658MOL0     H86846   0.688   9.699   8.660  1.6261 -0.1252 -3.7405
  658MOL0     H86847   0.811   9.585   8.625  1.5131 -0.0308  1.4748
  658MOL0     H86848   0.789   9.536   8.881  3.6834  0.5486  1.9047
  658MOL0     H86849   0.869   9.691   8.828  0.0035  0.3729 -0.3537
  658MOL0     H86850   0.582   9.684   8.886  0.2751 -2.5960  2.2833
  658MOL0     H86851   0.690   9.826   8.888  4.0906 -1.3028 -3.6618
  658MOL0     H86852   0.606   9.766   9.099  0.2203  0.8310 -1.3050
  658MOL0     H86853   0.694   9.604   9.100 -1.5194 -0.2979  0.6858
  658MOL0     H86854   1.015   9.860   9.201 -0.6740  1.2509  2.8926
  658MOL0     H86855   0.524   9.684   8.540 -0.5712 -0.1227  0.9167
  658MOL0     H86856   0.383   9.649   8.343  0.3130 -2.1602 -3.6981
  659MOL0     O86857   4.183   0.071   5.932  0.0059 -0.5477 -0.0167
  659MOL0     C86858   4.205   0.174   5.864  0.2992  0.0341 -0.6749
  659MOL0     O86859   4.105   0.255   5.816  0.5023  0.5026 -0.8028
  659MOL0     C86860   3.970   0.245   5.849 -0.1878  0.8466  0.2490
  659MOL0     C86861   3.929   0.185   5.963  0.5996 -0.0809  0.9231
  659MOL0     C86862   3.796   0.148   5.971 -0.9125 -0.5673 -0.8894
  659MOL0     C86863   3.698   0.177   5.873  0.3795 -0.4687 -0.2126
  659MOL0     O86864   3.567   0.160   5.898  0.8128  0.3048 -0.2239
  659MOL0     C86865   3.464   0.172   5.801 -0.2483 -0.0381 -0.4208
  659MOL0     C86866   3.330   0.125   5.867  0.9864 -0.0803 -0.4896
  659MOL0     C86867   3.209   0.128   5.779 -0.6959 -0.2686  0.6144
  659MOL0     C86868   3.250   0.051   5.643 -0.2491 -0.6303 -0.1317
  659MOL0     C86869   3.128   0.007   5.564 -0.0431 -0.1762 -0.7687
  659MOL0     C86870   3.097  -0.139   5.586 -0.6475 -0.2002 -0.6929
  659MOL0     C86871   2.961  -0.188   5.528 -0.6189  0.3610 -1.1705
  659MOL0     C86872   2.936  -0.332   5.557 -0.9426 -0.4775 -0.2612
  659MOL0     N86873   2.817  -0.362   5.478 -0.6684 -0.5911 -0.0987
  659MOL0     C86874   2.688  -0.347   5.513 -0.1608 -0.3324 -0.7867
  659MOL0     C86875   2.611  -0.420   5.430  0.5689  0.6974 -0.4491
  659MOL0     C86876   2.459  -0.447   5.435 -0.6911 -0.9333 -0.3944
  659MOL0     C86877   2.402  -0.389   5.306  0.0551  0.3823  0.4667
  659MOL0     C86878   2.251  -0.377   5.285 -0.2139  0.1739 -1.1533
  659MOL0     C86879   2.192  -0.520   5.281  0.0669  0.0175 -0.0530
  659MOL0     O86880   2.089  -0.533   5.185 -0.0367  0.6944 -0.1111
  659MOL0     C86881   1.962  -0.513   5.234 -0.4749  0.0517  0.3021
  659MOL0     C86882   1.866  -0.583   5.172  0.5999 -0.5573 -0.5215
  659MOL0     C86883   1.727  -0.571   5.210 -0.7258 -0.2999 -0.3853
  659MOL0     C86884   1.692  -0.479   5.321  0.1803  0.0308  0.5574
  659MOL0     C86885   1.548  -0.460   5.368  0.6027 -0.4696  0.3089
  659MOL0     O86886   1.446  -0.560   5.358 -0.7355 -0.5833  0.7649
  659MOL0     C86887   1.314  -0.550   5.403 -0.0286  0.1954  0.3171
  659MOL0     C86888   1.287  -0.516   5.532  0.8553  0.0835  0.3974
  659MOL0     C86889   1.156  -0.523   5.574  0.4166  1.0372  0.1733
  659MOL0     C86890   1.045  -0.579   5.500 -0.2164  0.3070 -0.2306
  659MOL0     O86891   0.916  -0.601   5.552 -0.4350  0.3718 -0.5519
  659MOL0     C86892   0.880  -0.551   5.679 -0.1775  0.5227 -0.2086
  659MOL0     C86893   0.732  -0.606   5.709 -0.0795 -0.3579 -0.0468
  659MOL0     C86894   0.632  -0.490   5.672 -0.1057  0.2434  0.2755
  659MOL0     C86895   0.491  -0.544   5.675 -0.8045 -0.3451  0.4630
  659MOL0     C86896   0.391  -0.437   5.701  0.9036  0.2172  0.0960
  659MOL0     C86897   0.250  -0.476   5.647  0.9320  0.0614  0.5426
  659MOL0     C86898   0.135  -0.376   5.682  0.3849  0.2456  0.7787
  659MOL0     C86899   0.008  -0.404   5.598  0.5817  0.1422 -0.8397
  659MOL0    Cl86900  -0.070  -0.562   5.639 -0.0017 -0.2370  0.2377
  659MOL0     C86901   1.081  -0.617   5.369 -0.2000 -0.2120 -0.1558
  659MOL0     C86902   1.214  -0.599   5.325  1.2878 -0.1889  0.4363
  659MOL0     O86903   1.540  -0.361   5.439  0.1096  0.2552  0.1486
  659MOL0     C86904   1.801  -0.413   5.383 -0.5906  0.1120 -0.3135
  659MOL0     C86905   1.935  -0.433   5.347 -0.4268 -0.5563  0.5527
  659MOL0     N86906   2.694  -0.479   5.334  0.9479 -0.2809 -0.2701
  659MOL0     N86907   2.811  -0.445   5.370 -0.3568  0.1935  0.8206
  659MOL0     C86908   3.740   0.236   5.760 -0.7738  0.3827  0.2348
  659MOL0     C86909   3.871   0.267   5.750 -0.3507 -0.4062  0.7085
  659MOL0     C86910   4.337   0.235   5.870 -0.3323 -0.5070 -0.1523
  659MOL0     C86911   4.364   0.359   5.825  0.5737 -0.1673 -0.0833
  659MOL0     C86912   4.485   0.420   5.827  0.4146 -0.0261 -0.4330
  659MOL0     C86913   4.594   0.363   5.894 -0.6885 -0.5049  0.3844
  659MOL0     O86914   4.726   0.411   5.907  0.9052 -0.0972 -0.1584
  659MOL0     C86915   4.761   0.523   5.832 -0.5414 -0.3043 -0.4704
  659MOL0     C86916   4.859   0.595   5.921  0.5054 -0.6486 -0.0710
  659MOL0     C86917   4.912   0.724   5.859  0.0589 -0.4368  0.3891
  659MOL0     C86918   5.044   0.769   5.924  0.5998 -0.1054  0.1914
  659MOL0     C86919   5.090   0.897   5.869 -0.4490  0.8135  0.3067
  659MOL0     C86920   5.148   0.997   5.826  0.1786 -0.1396 -0.2058
  659MOL0     C86921   4.564   0.241   5.957 -0.1368  0.4501  0.3387
  659MOL0     C86922   4.442   0.177   5.934 -0.2859  0.4037  0.1695
  659MOL0     H86923   4.003   0.165   6.039  1.2129 -0.8043  0.1538
  659MOL0     H86924   3.756   0.117   6.067 -1.3614 -1.3498 -1.3200
  659MOL0     H86925   3.499   0.118   5.712  2.9112  2.4042 -0.8327
  659MOL0     H86926   3.455   0.276   5.770  0.0291  0.7859  2.0748
  659MOL0     H86927   3.298   0.190   5.949 -0.4364 -2.6669  1.1539
  659MOL0     H86928   3.336   0.023   5.904 -1.6385 -0.5047 -1.0249
  659MOL0     H86929   3.174   0.229   5.754 -0.0742  0.1671  1.4508
  659MOL0     H86930   3.128   0.068   5.821 -0.8388  0.8041  1.9576
  659MOL0     H86931   3.301   0.125   5.582 -0.5409 -0.2508  0.0767
  659MOL0     H86932   3.316  -0.033   5.667 -1.6783 -1.7487  0.0335
  659MOL0     H86933   3.148   0.028   5.459 -0.3806  1.6715 -0.5068
  659MOL0     H86934   3.046   0.077   5.582 -0.5184 -0.4717 -1.7265
  659MOL0     H86935   3.096  -0.156   5.695 -0.7840 -2.8598 -1.0355
  659MOL0     H86936   3.178  -0.205   5.555  0.6593  1.0105  0.0630
  659MOL0     H86937   2.884  -0.129   5.579 -1.1094 -2.1856  1.2670
  659MOL0     H86938   2.954  -0.183   5.419 -1.2782  0.9222 -1.1092
  659MOL0     H86939   2.920  -0.348   5.664  1.0440 -1.7450 -0.0993
  659MOL0     H86940   3.026  -0.391   5.535  1.6413  3.0027  0.1604
  659MOL0     H86941   2.639  -0.309   5.603  0.0861 -0.2717 -0.6780
  659MOL0     H86942   2.405  -0.393   5.513  1.5359 -1.0275  1.2877
  659MOL0     H86943   2.435  -0.553   5.452  2.5428 -2.2497 -2.8554
  659MOL0     H86944   2.450  -0.450   5.229 -1.7016  1.2265 -1.3944
  659MOL0     H86945   2.433  -0.285   5.293 -0.3448  0.2849 -1.7176
  659MOL0     H86946   2.213  -0.320   5.370 -2.2275 -0.7826 -1.3509
  659MOL0     H86947   2.228  -0.317   5.197  1.7708  1.3027 -0.9678
  659MOL0     H86948   2.167  -0.542   5.385  4.1061  0.5430  1.1638
  659MOL0     H86949   2.268  -0.591   5.249  0.7738  0.6326  0.2297
  659MOL0     H86950   1.888  -0.652   5.091 -0.5315  0.6493 -1.9063
  659MOL0     H86951   1.651  -0.627   5.157 -0.1825 -2.8034  1.2914
  659MOL0     H86952   1.365  -0.488   5.602  0.4855 -0.2506  0.9463
  659MOL0     H86953   1.143  -0.505   5.680 -0.8354  0.8543  0.0627
  659MOL0     H86954   0.877  -0.442   5.675 -3.0075  0.5495  0.5346
  659MOL0     H86955   0.948  -0.586   5.757 -0.6153  1.1987  0.4832
  659MOL0     H86956   0.730  -0.634   5.815  0.7238 -1.0713 -0.2152
  659MOL0     H86957   0.715  -0.690   5.642  0.3924  0.2944 -1.0081
  659MOL0     H86958   0.665  -0.459   5.573  1.1931  3.1818  1.4956
  659MOL0     H86959   0.641  -0.407   5.744 -1.7112  1.7526 -1.1799
  659MOL0     H86960   0.475  -0.576   5.571  0.2760  1.9211 -0.4818
  659MOL0     H86961   0.477  -0.621   5.751  2.1953  0.2296  1.7847
  659MOL0     H86962   0.410  -0.344   5.647 -1.6937  0.4684 -0.5311
  659MOL0     H86963   0.391  -0.419   5.809  3.1296 -0.7795  0.3265
  659MOL0     H86964   0.222  -0.574   5.688 -0.2646  0.4119  0.6001
  659MOL0     H86965   0.252  -0.483   5.538 -2.6858 -0.1710  0.3584
  659MOL0     H86966   0.124  -0.377   5.791  1.3821  2.5273  0.9645
  659MOL0     H86967   0.173  -0.276   5.658 -2.6255  1.1445 -0.6345
  659MOL0     H86968   0.029  -0.408   5.491  2.3742  2.0999 -0.6326
  659MOL0     H86969  -0.066  -0.324   5.611 -1.2895 -1.3328 -1.9338
  659MOL0     H86970   1.010  -0.663   5.300  0.6708  1.4083 -2.2515
  659MOL0     H86971   1.235  -0.624   5.221  1.6063  1.6665  0.0278
  659MOL0     H86972   1.791  -0.350   5.471 -1.9973  1.8818 -1.6787
  659MOL0     H86973   2.007  -0.381   5.409 -0.1025  0.5656 -0.7074
  659MOL0     H86974   3.678   0.283   5.684 -0.7696  1.6007  0.9528
  659MOL0     H86975   3.903   0.308   5.655 -2.1440  1.2266  0.7528
  659MOL0     H86976   4.285   0.420   5.782 -0.7712  1.8664  4.6396
  659MOL0     H86977   4.497   0.506   5.762 -1.9555 -1.5030 -3.0200
  659MOL0     H86978   4.680   0.591   5.805 -1.1220 -0.8089 -0.0054
  659MOL0     H86979   4.817   0.500   5.741 -0.8007  0.2318 -0.7723
  659MOL0     H86980   4.803   0.615   6.012 -1.7610  0.6260 -1.6289
  659MOL0     H86981   4.944   0.531   5.948  0.3013 -1.2253 -0.7548
  659MOL0     H86982   4.838   0.804   5.859  1.0562  0.5747 -1.6969
  659MOL0     H86983   4.937   0.701   5.755 -0.8636 -0.8000  0.2412
  659MOL0     H86984   5.015   0.771   6.029 -0.2706 -1.6850  0.0189
  659MOL0     H86985   5.123   0.694   5.920 -0.7147 -1.6195  1.3845
  659MOL0     H86986   5.205   1.080   5.787 -1.4101  0.3344 -1.6844
  659MOL0     H86987   4.645   0.186   6.003  0.7717  2.4833  1.2649
  659MOL0     H86988   4.439   0.081   5.985  3.6856 -1.2362 -2.1933
  660MOL0     O86989   7.385   5.860   6.603  0.3412  0.7451 -0.2295
  660MOL0     C86990   7.417   5.754   6.659 -0.4442  0.9417 -0.0291
  660MOL0     O86991   7.342   5.635   6.649  0.9239  1.1554 -1.0092
  660MOL0     C86992   7.213   5.626   6.602  0.4727 -0.1924  0.1091
  660MOL0     C86993   7.107   5.719   6.605 -0.0129  0.5046  0.6097
  660MOL0     C86994   6.988   5.685   6.543 -0.7606 -0.1268 -0.0507
  660MOL0     C86995   6.968   5.558   6.499 -0.1104  0.7477 -0.7582
  660MOL0     O86996   6.849   5.513   6.438  0.3663 -0.0264  0.6917
  660MOL0     C86997   6.717   5.547   6.492 -0.8122  0.8384  0.8021
  660MOL0     C86998   6.635   5.542   6.360  0.2338  0.1578 -0.4548
  660MOL0     C86999   6.479   5.529   6.381  0.9950 -0.2084 -0.1905
  660MOL0     C87000   6.431   5.406   6.455  0.7187 -0.2587  0.1013
  660MOL0     C87001   6.286   5.408   6.462  0.4337  0.0675  0.4651
  660MOL0     C87002   6.223   5.310   6.569  0.3596  0.2393  0.5928
  660MOL0     C87003   6.069   5.318   6.553 -0.5629 -0.0309 -0.0742
  660MOL0     C87004   6.003   5.236   6.668 -0.0018 -0.8298 -0.0459
  660MOL0     N87005   5.971   5.102   6.610 -0.6518  0.9270  0.4013
  660MOL0     C87006   6.061   4.992   6.592  0.5475 -0.2250  0.1177
  660MOL0     C87007   5.989   4.888   6.549 -0.6971 -0.0430 -0.7739
  660MOL0     C87008   6.049   4.752   6.527 -0.5913  0.8293  0.4841
  660MOL0     C87009   6.101   4.740   6.381 -0.3961  0.7872 -0.4437
  660MOL0     C87010   6.008   4.651   6.286 -0.2043  0.7397 -0.3796
  660MOL0     C87011   5.854   4.672   6.279 -0.0326 -0.2163 -0.3180
  660MOL0     O87012   5.793   4.621   6.159  0.1209 -0.3475 -0.8480
  660MOL0     C87013   5.655   4.619   6.141 -0.7213 -0.3087  0.1758
  660MOL0     C87014   5.598   4.595   6.009  0.1105  1.3898 -0.6254
  660MOL0     C87015   5.458   4.593   5.994 -1.0499  0.8772  0.4614
  660MOL0     C87016   5.378   4.604   6.104 -0.7142  0.2529 -1.8512
  660MOL0     C87017   5.234   4.591   6.108 -0.6619  0.5362  0.4782
  660MOL0     O87018   5.184   4.556   6.235 -0.0671 -0.2094  0.0355
  660MOL0     C87019   5.053   4.503   6.241 -0.1440  0.3297  0.4542
  660MOL0     C87020   5.027   4.380   6.178 -0.2518 -0.7521 -0.9104
  660MOL0     C87021   4.905   4.309   6.187  0.0953 -1.1809 -0.0831
  660MOL0     C87022   4.797   4.361   6.268  0.3148 -0.1874 -0.4765
  660MOL0     O87023   4.678   4.289   6.278 -0.2978  0.2395 -0.5985
  660MOL0     C87024   4.577   4.353   6.352  0.5024  0.1053 -1.5318
  660MOL0     C87025   4.473   4.245   6.384  0.2959  0.0784  0.5996
  660MOL0     C87026   4.337   4.298   6.441 -0.8119  0.5283  0.1911
  660MOL0     C87027   4.214   4.208   6.438  0.3504 -0.2673 -0.0965
  660MOL0     C87028   4.077   4.263   6.481 -0.1679 -0.3069  0.3854
  660MOL0     C87029   3.973   4.156   6.454  0.2323 -0.2526  0.0889
  660MOL0     C87030   3.845   4.226   6.508  0.1693  0.2253 -0.3106
  660MOL0     C87031   3.738   4.120   6.524 -0.5631 -0.6918 -0.4818
  660MOL0    Cl87032   3.690   4.065   6.361 -0.1285 -0.7093 -0.4692
  660MOL0     C87033   4.824   4.494   6.320  0.2296 -0.3009  0.1915
  660MOL0     C87034   4.950   4.560   6.307 -1.1103 -0.3926 -0.0286
  660MOL0     O87035   5.175   4.592   6.002  1.0005  0.8910  0.4224
  660MOL0     C87036   5.433   4.656   6.224  0.7025  0.9271 -0.1248
  660MOL0     C87037   5.571   4.664   6.241 -0.5145  0.0424 -0.1786
  660MOL0     N87038   5.859   4.932   6.545  0.2657 -0.2771 -0.0342
  660MOL0     N87039   5.847   5.059   6.585  0.0724  0.9506 -0.1995
  660MOL0     C87040   7.068   5.461   6.511  0.2789 -0.2904 -0.2071
  660MOL0     C87041   7.193   5.501   6.556 -0.6398  0.3102  0.2598
  660MOL0     C87042   7.558   5.745   6.709 -0.0680 -0.4367 -0.0666
  660MOL0     C87043   7.615   5.623   6.744 -0.5717 -0.4259  1.2399
  660MOL0     C87044   7.758   5.619   6.774 -1.0815  0.7972  0.2130
  660MOL0     C87045   7.833   5.733   6.782 -1.0523 -1.3737  0.2939
  660MOL0     O87046   7.965   5.731   6.823  0.4909  0.2278  0.6452
  660MOL0     C87047   8.060   5.657   6.731  0.0971  0.1258  0.0612
  660MOL0     C87048   8.187   5.609   6.797 -0.2070  0.4659  0.0254
  660MOL0     C87049   8.229   5.709   6.902 -0.5345 -0.2440  0.3236
  660MOL0     C87050   8.358   5.670   6.985  0.6297 -0.1979  0.4978
  660MOL0     C87051   8.397   5.777   7.080 -0.7406  0.9164 -0.1684
  660MOL0     C87052   8.434   5.860   7.162 -0.6055 -0.4283  0.7047
  660MOL0     C87053   7.780   5.857   6.756  0.7639  0.2235 -0.7156
  660MOL0     C87054   7.639   5.865   6.726 -0.3903  0.4521  0.3028
  660MOL0     H87055   7.120   5.818   6.646  3.4003 -0.5593  2.5268
  660MOL0     H87056   6.913   5.764   6.545 -0.0371  0.5910 -0.7319
  660MOL0     H87057   6.720   5.651   6.524  0.0760 -0.2043  4.5120
  660MOL0     H87058   6.676   5.477   6.565 -0.6219 -0.7080 -0.5090
  660MOL0     H87059   6.665   5.450   6.309 -0.4456  0.2934 -1.1160
  660MOL0     H87060   6.652   5.619   6.284  0.7481  0.7587  0.2614
  660MOL0     H87061   6.439   5.530   6.279  1.2030 -2.9675 -0.3594
  660MOL0     H87062   6.437   5.620   6.426 -0.4539 -0.5728 -0.7520
  660MOL0     H87063   6.474   5.323   6.399  2.3716  0.5306  0.1294
  660MOL0     H87064   6.475   5.398   6.555 -0.3725 -1.4046  0.5135
  660MOL0     H87065   6.247   5.386   6.362 -0.2793  0.2015  0.7113
  660MOL0     H87066   6.256   5.508   6.495  0.0331  0.8554 -2.0482
  660MOL0     H87067   6.249   5.340   6.671  0.0663  2.8477 -0.0058
  660MOL0     H87068   6.260   5.208   6.558  1.3496  0.3840  2.2326
  660MOL0     H87069   6.045   5.425   6.555  1.7239  0.5566  3.4866
  660MOL0     H87070   6.045   5.277   6.454 -0.5714 -1.0057  0.3204
  660MOL0     H87071   5.908   5.280   6.701 -1.1803  0.0444 -3.9871
  660MOL0     H87072   6.071   5.227   6.753  0.8214 -0.6843 -0.6778
  660MOL0     H87073   6.169   4.994   6.606  0.7690 -0.4006 -1.3918
  660MOL0     H87074   5.978   4.670   6.541  2.0049 -1.4882  1.0843
  660MOL0     H87075   6.126   4.733   6.602 -0.4884 -2.4499 -0.3035
  660MOL0     H87076   6.201   4.699   6.395 -0.7279  0.3923  0.8591
  660MOL0     H87077   6.108   4.835   6.327 -0.5076 -0.9446 -3.7721
  660MOL0     H87078   6.040   4.677   6.184  0.0683 -0.6100 -0.6502
  660MOL0     H87079   6.043   4.551   6.310  2.7642  1.5044 -1.1211
  660MOL0     H87080   5.850   4.781   6.273  1.8004 -0.1533 -5.0559
  660MOL0     H87081   5.810   4.633   6.371  1.0688  2.0144  1.2664
  660MOL0     H87082   5.659   4.570   5.924  1.5531  1.3856  0.3794
  660MOL0     H87083   5.425   4.577   5.892 -0.9961  1.1828  0.3943
  660MOL0     H87084   5.105   4.331   6.119  0.7310  1.2357 -1.3653
  660MOL0     H87085   4.882   4.219   6.130 -0.3836 -2.4037  1.9521
  660MOL0     H87086   4.535   4.433   6.290  0.0581  0.8224 -0.3503
  660MOL0     H87087   4.614   4.405   6.442 -1.2793 -0.4947 -0.4029
  660MOL0     H87088   4.506   4.162   6.448  0.9571  0.9680  1.4352
  660MOL0     H87089   4.441   4.213   6.285  2.7790 -2.4905  0.5164
  660MOL0     H87090   4.307   4.381   6.376  1.7309  1.1836 -0.2604
  660MOL0     H87091   4.348   4.328   6.545  2.4100 -1.0136  0.3998
  660MOL0     H87092   4.209   4.165   6.338  5.1529 -1.0987 -0.2049
  660MOL0     H87093   4.231   4.121   6.503 -0.2656 -1.8424 -1.9630
  660MOL0     H87094   4.061   4.349   6.414 -0.6295 -0.6632  0.0334
  660MOL0     H87095   4.082   4.280   6.588  0.8788 -1.1867  0.4918
  660MOL0     H87096   3.989   4.065   6.512  1.4302  0.5477  1.0676
  660MOL0     H87097   3.960   4.132   6.348  0.0352  1.2629 -0.2556
  660MOL0     H87098   3.872   4.278   6.600 -3.5734  1.3219  0.3442
  660MOL0     H87099   3.816   4.295   6.428 -0.0954  1.1031  0.5219
  660MOL0     H87100   3.648   4.167   6.565 -0.8719 -1.6013 -0.0902
  660MOL0     H87101   3.764   4.035   6.587  1.4659  2.2934  3.1357
  660MOL0     H87102   4.742   4.558   6.351  0.0419  0.2036 -1.2286
  660MOL0     H87103   4.952   4.654   6.361 -3.6993 -0.4585  0.2942
  660MOL0     H87104   5.370   4.704   6.298 -0.0587  3.0082 -1.9709
  660MOL0     H87105   5.615   4.711   6.329 -0.0192  0.0983 -0.4545
  660MOL0     H87106   7.053   5.360   6.476 -0.2160  0.5301 -2.5363
  660MOL0     H87107   7.271   5.426   6.552  0.7973  1.7007  0.9445
  660MOL0     H87108   7.548   5.538   6.741 -0.6398 -0.3562  0.5696
  660MOL0     H87109   7.809   5.525   6.786 -1.5365  0.6593  1.1222
  660MOL0     H87110   8.085   5.727   6.651  0.0330  0.5926  0.4409
  660MOL0     H87111   8.024   5.562   6.690  1.5421 -0.3518 -0.1355
  660MOL0     H87112   8.164   5.517   6.852  3.0462 -0.9337 -0.7239
  660MOL0     H87113   8.268   5.592   6.725  0.5060  3.8162 -0.0891
  660MOL0     H87114   8.152   5.719   6.979  0.2512  4.1445  0.8019
  660MOL0     H87115   8.242   5.807   6.856 -2.3464 -1.0039 -1.9632
  660MOL0     H87116   8.342   5.581   7.047  1.4401 -0.8316 -0.1667
  660MOL0     H87117   8.448   5.662   6.923  1.2793  1.0019  1.2541
  660MOL0     H87118   8.449   5.921   7.249  2.0378 -0.6217  0.4749
  660MOL0     H87119   7.847   5.942   6.767  2.7312 -1.3276  0.0610
  660MOL0     H87120   7.597   5.965   6.718  0.3553  0.8336  0.9617
  661MOL0     O87121   1.918   7.193   4.207  0.4204 -0.3686 -0.9705
  661MOL0     C87122   1.936   7.229   4.093 -1.1014 -0.9778 -0.6796
  661MOL0     O87123   1.845   7.207   3.996 -0.0605 -0.2355  0.0207
  661MOL0     C87124   1.720   7.167   4.018  0.0019 -0.3661  0.5622
  661MOL0     C87125   1.637   7.219   4.110  1.0704 -0.6491  0.6592
  661MOL0     C87126   1.505   7.168   4.119 -0.0090  0.6098 -0.5547
  661MOL0     C87127   1.464   7.062   4.038  1.2207 -0.7456 -0.3261
  661MOL0     O87128   1.339   7.007   4.071  0.5607  0.2337 -0.0944
  661MOL0     C87129   1.284   6.900   3.993 -0.4393 -0.2820 -0.2303
  661MOL0     C87130   1.236   6.970   3.860  0.1200 -0.9649  0.6580
  661MOL0     C87131   1.122   7.077   3.877 -0.3567  0.0099 -0.6048
  661MOL0     C87132   1.083   7.125   3.735  0.3409  0.8590 -0.0292
  661MOL0     C87133   0.988   7.239   3.752 -0.3251  0.4472 -0.3891
  661MOL0     C87134   0.960   7.324   3.636 -0.5064 -0.7204  0.4631
  661MOL0     C87135   0.849   7.437   3.673  0.1997 -0.3956 -0.7706
  661MOL0     C87136   0.704   7.390   3.654 -0.1792  0.1408 -0.0230
  661MOL0     N87137   0.664   7.385   3.512 -0.4208  0.2949  0.0844
  661MOL0     C87138   0.615   7.494   3.446  0.8474  0.1204  0.3693
  661MOL0     C87139   0.576   7.450   3.326 -0.2350 -0.5349 -0.1037
  661MOL0     C87140   0.533   7.550   3.220 -0.3594  0.5291  0.3050
  661MOL0     C87141   0.390   7.602   3.242 -0.1535  0.0438 -0.2353
  661MOL0     C87142   0.286   7.484   3.254  0.4533  0.8935 -0.3441
  661MOL0     C87143   0.136   7.525   3.244  0.7156 -0.7990  0.3131
  661MOL0     O87144   0.122   7.609   3.119  0.7827 -0.0051 -0.2672
  661MOL0     C87145   0.004   7.659   3.079 -0.1956  0.2853 -0.1414
  661MOL0     C87146  -0.109   7.670   3.157  0.1698  0.2074  0.2897
  661MOL0     C87147  -0.223   7.719   3.094  0.7728 -1.0189 -0.2807
  661MOL0     C87148  -0.240   7.737   2.952  0.2417 -0.5748  0.2339
  661MOL0     C87149  -0.370   7.783   2.897 -0.3846  0.2361  0.1213
  661MOL0     O87150  -0.474   7.775   2.974 -0.1189  0.6330 -0.6543
  661MOL0     C87151  -0.598   7.817   2.930 -0.5317 -0.7151 -0.3462
  661MOL0     C87152  -0.696   7.718   2.912  0.9026 -0.0496 -0.9120
  661MOL0     C87153  -0.829   7.764   2.902 -0.4632 -0.7560 -0.0479
  661MOL0     C87154  -0.860   7.898   2.909 -0.1602  0.2135 -0.0798
  661MOL0     O87155  -0.984   7.955   2.886 -0.0465 -0.6331  0.1102
  661MOL0     C87156  -1.090   7.862   2.845 -0.4092 -0.7411 -0.1285
  661MOL0     C87157  -1.206   7.953   2.815  0.6483  0.3176  0.1148
  661MOL0     C87158  -1.338   7.878   2.777 -0.0491 -0.4260  0.4603
  661MOL0     C87159  -1.331   7.817   2.638 -1.4502  0.3906  0.4749
  661MOL0     C87160  -1.319   7.911   2.519 -0.0349  0.4557 -0.2271
  661MOL0     C87161  -1.324   7.830   2.388  0.6033 -0.2564 -0.1602
  661MOL0     C87162  -1.216   7.728   2.376 -0.6411  0.0647 -0.1469
  661MOL0     C87163  -1.188   7.674   2.234  0.4117 -0.1998 -0.3429
  661MOL0    Cl87164  -1.327   7.655   2.129  0.1856 -0.7894 -0.2635
  661MOL0     C87165  -0.763   7.994   2.928 -0.2832  0.4524 -0.4498
  661MOL0     C87166  -0.632   7.950   2.943 -0.5716 -0.3162 -0.2389
  661MOL0     O87167  -0.378   7.811   2.776 -0.3831  0.3648 -0.1024
  661MOL0     C87168  -0.123   7.713   2.875  0.4765  0.2442 -0.0973
  661MOL0     C87169  -0.003   7.688   2.941  0.2634 -0.2216 -0.4041
  661MOL0     N87170   0.616   7.316   3.319  0.3098 -0.3641 -0.3034
  661MOL0     N87171   0.649   7.279   3.428 -0.4098  0.8088  0.4536
  661MOL0     C87172   1.547   7.018   3.935 -0.1384 -0.1657 -0.7987
  661MOL0     C87173   1.680   7.083   3.925  0.2140 -0.0047  0.0210
  661MOL0     C87174   2.059   7.316   4.067  0.2157 -0.5411  1.0651
  661MOL0     C87175   2.140   7.355   4.169  1.0116 -0.4841 -0.0519
  661MOL0     C87176   2.263   7.410   4.144  0.6049  0.5436  0.1208
  661MOL0     C87177   2.302   7.443   4.013 -0.1154 -0.0721  0.1296
  661MOL0     O87178   2.421   7.501   3.979 -0.7201  0.0501 -0.6741
  661MOL0     C87179   2.519   7.511   4.089 -0.0055  0.5060 -0.3367
  661MOL0     C87180   2.656   7.558   4.044  0.3180  0.7288 -0.1273
  661MOL0     C87181   2.668   7.703   4.011 -0.1023 -1.0960 -0.3833
  661MOL0     C87182   2.608   7.737   3.870 -0.2995  0.8740  0.2104
  661MOL0     C87183   2.611   7.883   3.850 -0.3111 -0.1154  0.0894
  661MOL0     C87184   2.610   8.001   3.817  0.1549 -1.8497  0.2814
  661MOL0     C87185   2.215   7.414   3.908 -0.3049 -0.2692 -0.3856
  661MOL0     C87186   2.092   7.344   3.932  0.3600 -0.0882 -0.7917
  661MOL0     H87187   1.657   7.310   4.166 -1.5263  2.0314 -2.4039
  661MOL0     H87188   1.439   7.206   4.197  0.2695  0.4274 -0.2291
  661MOL0     H87189   1.201   6.848   4.042 -0.4430  0.7128  0.8837
  661MOL0     H87190   1.356   6.819   3.980  0.1052 -0.7977  4.5108
  661MOL0     H87191   1.210   6.890   3.790 -0.1639 -1.8662  1.7574
  661MOL0     H87192   1.320   7.016   3.807  0.6674 -2.4776  0.1522
  661MOL0     H87193   1.143   7.159   3.946 -4.7881  1.7305 -0.9657
  661MOL0     H87194   1.034   7.034   3.926 -1.1097  0.6562 -1.3586
  661MOL0     H87195   1.167   7.172   3.683  0.4631  2.8897  1.8781
  661MOL0     H87196   1.038   7.042   3.678 -0.4706  0.9760  0.4239
  661MOL0     H87197   1.032   7.310   3.823  1.5344  1.7409 -2.6711
  661MOL0     H87198   0.889   7.211   3.789 -0.7427 -0.0755 -1.8301
  661MOL0     H87199   0.915   7.270   3.552  3.0589 -2.2696 -0.6370
  661MOL0     H87200   1.052   7.367   3.595 -0.4285 -0.8196  0.5341
  661MOL0     H87201   0.871   7.474   3.774  0.8474  1.7038 -1.6169
  661MOL0     H87202   0.850   7.527   3.610  1.8487 -0.6774 -1.2063
  661MOL0     H87203   0.628   7.445   3.710  0.5368  1.3066 -0.1602
  661MOL0     H87204   0.697   7.285   3.684  1.1073 -1.0973 -3.4977
  661MOL0     H87205   0.610   7.596   3.482 -1.7013  0.1069  0.2529
  661MOL0     H87206   0.545   7.493   3.128  0.6327  1.7009 -0.3176
  661MOL0     H87207   0.606   7.630   3.221  0.0397  0.1644  0.8096
  661MOL0     H87208   0.371   7.683   3.172 -0.2157  1.0844  0.9540
  661MOL0     H87209   0.390   7.644   3.343  0.5652 -1.9292  0.6414
  661MOL0     H87210   0.297   7.421   3.166  1.1747 -0.8810  0.9742
  661MOL0     H87211   0.311   7.421   3.339  1.5848  0.2753 -1.1096
  661MOL0     H87212   0.100   7.578   3.333 -1.4667 -1.6144 -0.0156
  661MOL0     H87213   0.077   7.434   3.235  0.6684 -0.6344 -1.3305
  661MOL0     H87214  -0.121   7.649   3.263 -1.0544  0.5465  0.2295
  661MOL0     H87215  -0.311   7.738   3.156  0.4017  1.7633 -1.5265
  661MOL0     H87216  -0.668   7.613   2.905  2.2861 -0.0774  2.6867
  661MOL0     H87217  -0.897   7.682   2.883 -0.6189 -1.5955  3.4279
  661MOL0     H87218  -1.100   7.789   2.927  0.5041  1.3515  1.9677
  661MOL0     H87219  -1.071   7.811   2.750 -0.2261  1.5324 -1.3697
  661MOL0     H87220  -1.183   8.035   2.747 -2.5991  2.0420  0.9128
  661MOL0     H87221  -1.239   8.004   2.906 -3.6343  0.4815 -1.3201
  661MOL0     H87222  -1.431   7.936   2.784  0.3800  0.8901 -2.7535
  661MOL0     H87223  -1.340   7.790   2.842 -0.5091 -1.1753 -0.5390
  661MOL0     H87224  -1.247   7.747   2.641  0.6631  2.8045  2.3901
  661MOL0     H87225  -1.420   7.755   2.623 -0.9473  0.1647 -1.9968
  661MOL0     H87226  -1.223   7.962   2.515  0.2076  0.1559 -5.6543
  661MOL0     H87227  -1.398   7.986   2.526 -0.1881  0.1243  5.0807
  661MOL0     H87228  -1.314   7.911   2.315  1.7277  1.5489  1.8564
  661MOL0     H87229  -1.423   7.787   2.369  0.5729 -1.6784  2.6718
  661MOL0     H87230  -1.123   7.778   2.404 -2.0194  2.4597  0.4504
  661MOL0     H87231  -1.228   7.644   2.445  5.1358  0.6807  2.1705
  661MOL0     H87232  -1.121   7.587   2.236 -0.1347 -0.6391 -1.0415
  661MOL0     H87233  -1.142   7.762   2.187 -1.6184  0.5693 -0.9753
  661MOL0     H87234  -0.786   8.098   2.947 -1.1041  0.8505 -3.1061
  661MOL0     H87235  -0.557   8.021   2.976 -0.4594 -0.2804 -0.5674
  661MOL0     H87236  -0.135   7.723   2.767  0.4845 -4.3054 -0.7226
  661MOL0     H87237   0.091   7.668   2.892  1.7421 -1.0090  2.5073
  661MOL0     H87238   1.516   6.949   3.856 -2.4593 -0.7278  0.5050
  661MOL0     H87239   1.746   7.051   3.845 -2.3783  0.0721 -2.2925
  661MOL0     H87240   2.115   7.327   4.271  1.0997 -0.6835 -0.0840
  661MOL0     H87241   2.329   7.422   4.229 -0.3516 -3.1916  1.5659
  661MOL0     H87242   2.532   7.410   4.130 -0.9078 -0.7735 -2.9180
  661MOL0     H87243   2.487   7.580   4.167  2.8672 -0.6032  1.9779
  661MOL0     H87244   2.723   7.546   4.130  2.0378 -2.2086 -1.7271
  661MOL0     H87245   2.691   7.491   3.965  0.9587  1.8636 -0.8274
  661MOL0     H87246   2.771   7.736   4.022  0.0166 -1.6296  0.1616
  661MOL0     H87247   2.608   7.764   4.080  1.2728  1.6103 -1.4295
  661MOL0     H87248   2.666   7.686   3.793 -1.4151 -0.1383  0.0133
  661MOL0     H87249   2.510   7.690   3.859 -0.4129  1.1355  0.0905
  661MOL0     H87250   2.609   8.098   3.772 -2.0854 -1.8500  0.2215
  661MOL0     H87251   2.243   7.435   3.805  0.1824  0.1961 -0.1620
  661MOL0     H87252   2.024   7.310   3.854 -1.9394  0.7331  0.7362
  662MOL0     O87253   7.504   7.150   9.476 -0.1039  0.3053 -0.5780
  662MOL0     C87254   7.575   7.118   9.572 -0.1116 -0.5197  0.8017
  662MOL0     O87255   7.541   7.108   9.700  0.7621 -0.0338 -0.8023
  662MOL0     C87256   7.406   7.119   9.728 -0.4225 -0.3308  0.0266
  662MOL0     C87257   7.340   7.243   9.753  0.1605 -0.0197  0.3925
  662MOL0     C87258   7.204   7.252   9.771 -0.2508  0.1987 -0.3408
  662MOL0     C87259   7.128   7.131   9.766 -0.2694  0.5244 -0.4410
  662MOL0     O87260   6.991   7.157   9.788 -0.5039 -0.4905  0.6348
  662MOL0     C87261   6.910   7.043   9.787  0.2985 -0.8946 -0.1210
  662MOL0     C87262   6.773   7.096   9.834  0.4724 -0.9768 -0.6917
  662MOL0     C87263   6.677   6.977   9.873  0.1113  0.0136  0.3476
  662MOL0     C87264   6.540   7.036   9.866  0.5708  0.1016 -0.5291
  662MOL0     C87265   6.439   6.942   9.924  0.5787 -0.4790 -0.7945
  662MOL0     C87266   6.292   6.978   9.874 -0.4396  0.0748 -0.2373
  662MOL0     C87267   6.185   6.907   9.967 -0.9720 -0.2210  0.8800
  662MOL0     C87268   6.039   6.942   9.935  0.2912  0.0482 -0.3782
  662MOL0     N87269   5.961   6.902  10.051 -0.4099 -1.3024 -0.1425
  662MOL0     C87270   5.919   6.979  10.167  0.4523 -0.7794 -0.7235
  662MOL0     C87271   5.844   6.888  10.230  0.1395 -0.1847  0.5248
  662MOL0     C87272   5.776   6.922  10.358  0.7348  0.3701  0.6245
  662MOL0     C87273   5.684   7.038  10.334  0.6556 -0.1819  0.5641
  662MOL0     C87274   5.602   7.081  10.461  0.2342  0.3240 -0.2781
  662MOL0     C87275   5.627   7.223  10.505 -0.5554 -0.1634 -0.4199
  662MOL0     O87276   5.534   7.275  10.599 -0.5266  0.3802 -0.6503
  662MOL0     C87277   5.410   7.312  10.548 -0.4937  0.8906 -0.0386
  662MOL0     C87278   5.386   7.434  10.492  0.2773  0.3765 -0.2866
  662MOL0     C87279   5.252   7.476  10.470 -0.1855  1.2338 -0.8405
  662MOL0     C87280   5.144   7.385  10.496 -0.3376  0.4266 -0.0540
  662MOL0     C87281   4.997   7.428  10.473  0.0072  0.0547 -0.8750
  662MOL0     O87282   4.883   7.345  10.497  0.1095 -0.0673  0.5872
  662MOL0     C87283   4.755   7.382  10.473  0.0196  0.0533  0.0861
  662MOL0     C87284   4.659   7.278  10.497  0.0345 -0.1959  0.1885
  662MOL0     C87285   4.520   7.302  10.483  0.0094  0.5209  0.2039
  662MOL0     C87286   4.469   7.424  10.445  0.0558  0.3992 -0.0908
  662MOL0     O87287   4.331   7.435  10.429 -0.7654 -0.2772 -0.3198
  662MOL0     C87288   4.271   7.569  10.427 -0.5933  0.6439  1.1625
  662MOL0     C87289   4.117   7.555  10.449 -0.0817  0.1350 -0.1519
  662MOL0     C87290   4.053   7.459  10.350 -0.3470  0.2552  0.1441
  662MOL0     C87291   3.906   7.446  10.358 -0.0163  0.2926  1.0753
  662MOL0     C87292   3.856   7.352  10.254 -0.1144  0.2898  0.4649
  662MOL0     C87293   3.729   7.276  10.304 -0.8452 -0.0037 -0.2841
  662MOL0     C87294   3.599   7.355  10.293 -0.0880  0.5096  0.3718
  662MOL0     C87295   3.498   7.295  10.206 -0.7081  0.0964  1.5259
  662MOL0    Cl87296   3.467   7.125  10.260  0.0421 -0.1391 -0.1960
  662MOL0     C87297   4.556   7.532  10.441  0.6195  0.3913 -0.8415
  662MOL0     C87298   4.702   7.513  10.464  0.4825 -0.5991  0.2363
  662MOL0     O87299   4.989   7.541  10.429  0.1276  0.5691 -0.3279
  662MOL0     C87300   5.168   7.253  10.543  0.3016  0.2223 -0.7062
  662MOL0     C87301   5.301   7.228  10.583 -0.2326 -0.5738  0.4238
  662MOL0     N87302   5.831   6.766  10.169 -0.6490 -0.2288  0.0064
  662MOL0     N87303   5.908   6.774  10.061 -0.1983  0.0573  0.0145
  662MOL0     C87304   7.188   7.007   9.757  0.2188  0.9135  0.0988
  662MOL0     C87305   7.329   7.009   9.730  1.6042  0.1444 -0.3787
  662MOL0     C87306   7.710   7.070   9.546  0.5429 -1.0969 -0.4288
  662MOL0     C87307   7.760   7.059   9.406  0.0815 -0.2514  1.4996
  662MOL0     C87308   7.892   7.018   9.383 -0.0796 -0.3210 -0.8895
  662MOL0     C87309   7.977   6.981   9.491  0.3969 -0.5332  0.0981
  662MOL0     O87310   8.101   6.942   9.452  0.2271  0.3847 -0.0202
  662MOL0     C87311   8.200   6.899   9.553  0.3153  0.2436  0.5421
  662MOL0     C87312   8.335   6.891   9.501  1.0414  0.2902  0.2371
  662MOL0     C87313   8.446   6.924   9.605 -0.0382 -0.4597 -0.0286
  662MOL0     C87314   8.467   6.827   9.722  0.1029 -0.3932  0.0506
  662MOL0     C87315   8.349   6.819   9.806 -0.1513  0.3189 -0.2652
  662MOL0     C87316   8.263   6.826   9.896  1.1179 -0.0255 -0.0885
  662MOL0     C87317   7.933   6.998   9.616 -0.0841 -0.5846 -0.4625
  662MOL0     C87318   7.805   7.037   9.647  1.2228 -0.1680  0.3750
  662MOL0     H87319   7.408   7.328   9.752  2.0479 -1.4210 -2.0654
  662MOL0     H87320   7.157   7.350   9.773  0.6546  0.6478 -0.8245
  662MOL0     H87321   6.952   6.975   9.861 -0.7325  1.5604  2.9341
  662MOL0     H87322   6.913   7.001   9.686 -1.9063 -0.2149 -0.5331
  662MOL0     H87323   6.733   7.174   9.769 -1.4558  1.4300  3.0220
  662MOL0     H87324   6.782   7.150   9.929 -2.9176  0.6085 -1.1301
  662MOL0     H87325   6.712   6.941   9.970  4.6399 -0.3942 -1.2223
  662MOL0     H87326   6.679   6.900   9.796 -2.1165  0.7653 -0.5606
  662MOL0     H87327   6.531   7.134   9.915  1.8611 -0.0850  0.1217
  662MOL0     H87328   6.515   7.055   9.761  1.1070  1.0288 -0.5021
  662MOL0     H87329   6.439   6.946  10.033 -2.4851  0.0966 -0.7278
  662MOL0     H87330   6.455   6.845   9.877 -3.6782  0.0479 -4.0026
  662MOL0     H87331   6.294   6.941   9.771  1.6509 -1.1000  0.1653
  662MOL0     H87332   6.285   7.087   9.884  3.0416  0.2164  2.6538
  662MOL0     H87333   6.206   6.800   9.969  0.9648  0.1222  0.9792
  662MOL0     H87334   6.218   6.954  10.060 -0.0417  1.6960 -0.3452
  662MOL0     H87335   6.007   6.883   9.848 -1.9661 -1.1342  1.1480
  662MOL0     H87336   6.031   7.050   9.917  0.5957  0.6796  2.7624
  662MOL0     H87337   5.942   7.080  10.197  1.6700 -1.8230  2.2069
  662MOL0     H87338   5.858   6.938  10.428  1.2091 -3.0857  1.0433
  662MOL0     H87339   5.722   6.836  10.398 -3.4992  2.4049 -0.1518
  662MOL0     H87340   5.613   7.016  10.255  1.1573  2.0626 -0.5841
  662MOL0     H87341   5.736   7.125  10.292 -2.6849  2.3208  1.1943
  662MOL0     H87342   5.494   7.074  10.444 -0.1094  0.6874  1.5997
  662MOL0     H87343   5.622   7.006  10.538 -0.0438 -1.4142 -1.8051
  662MOL0     H87344   5.635   7.285  10.416  2.1187  0.8136  0.3854
  662MOL0     H87345   5.729   7.230  10.546 -0.3546  1.5350 -1.1572
  662MOL0     H87346   5.473   7.494  10.466 -0.0194  0.3356 -1.4192
  662MOL0     H87347   5.239   7.573  10.424  3.0116  0.9861 -2.5729
  662MOL0     H87348   4.693   7.180  10.527  0.9765 -0.6079 -2.0605
  662MOL0     H87349   4.456   7.216  10.504 -0.9400  1.4354  1.2244
  662MOL0     H87350   4.300   7.607  10.328  1.3255  0.0104  1.4267
  662MOL0     H87351   4.311   7.637  10.503 -0.6161  1.6405  0.3058
  662MOL0     H87352   4.076   7.656  10.455 -1.7405 -0.4890 -0.6403
  662MOL0     H87353   4.097   7.503  10.543 -0.8486  1.2171  0.3060
  662MOL0     H87354   4.103   7.363  10.367  1.9078  1.5826  1.3111
  662MOL0     H87355   4.073   7.493  10.248 -1.2833  1.4906  0.3548
  662MOL0     H87356   3.875   7.431  10.461  0.3257 -0.4233  1.0819
  662MOL0     H87357   3.862   7.545  10.343  0.4648  0.6963  2.2828
  662MOL0     H87358   3.917   7.263  10.236 -1.0612 -0.4239  0.7365
  662MOL0     H87359   3.846   7.411  10.162  0.4786  0.8736  0.7649
  662MOL0     H87360   3.751   7.255  10.409  0.7256 -1.3296 -0.8366
  662MOL0     H87361   3.731   7.176  10.260  2.1175 -0.5244  0.7764
  662MOL0     H87362   3.576   7.354  10.401  0.2732 -1.4744  0.4814
  662MOL0     H87363   3.615   7.458  10.262  0.3733 -0.1520 -1.7371
  662MOL0     H87364   3.531   7.294  10.102  3.0962 -1.2811  2.5755
  662MOL0     H87365   3.409   7.359  10.204 -0.5432  0.3097  0.8268
  662MOL0     H87366   4.535   7.636  10.419  1.2054  0.0985 -2.9948
  662MOL0     H87367   4.761   7.603  10.448 -1.4651  1.1160  1.9864
  662MOL0     H87368   5.085   7.193  10.579 -0.0614 -1.0979 -3.4839
  662MOL0     H87369   5.330   7.138  10.636 -1.4549 -1.2339 -0.0153
  662MOL0     H87370   7.143   6.909   9.750 -0.4072  1.2857 -1.4868
  662MOL0     H87371   7.371   6.911   9.708 -1.7941 -1.6525  0.3970
  662MOL0     H87372   7.687   7.070   9.326  0.2507 -0.4409  1.3206
  662MOL0     H87373   7.917   7.009   9.278  1.9779 -2.3258 -0.3360
  662MOL0     H87374   8.172   6.798   9.585  3.4217 -0.4988  1.3086
  662MOL0     H87375   8.201   6.974   9.632  1.1336  0.1527  0.6277
  662MOL0     H87376   8.350   6.793   9.456  2.4740  2.2325 -4.0359
  662MOL0     H87377   8.346   6.968   9.424  1.8962  1.0130  1.0585
  662MOL0     H87378   8.433   7.023   9.651 -0.2877 -0.7315  0.4903
  662MOL0     H87379   8.540   6.910   9.551  1.0706 -3.5777  2.3881
  662MOL0     H87380   8.483   6.724   9.690  1.6580 -0.3568  0.6146
  662MOL0     H87381   8.550   6.869   9.779  2.3629 -0.8680 -2.6587
  662MOL0     H87382   8.184   6.824   9.968  0.1963  3.7363 -0.7952
  662MOL0     H87383   8.006   6.983   9.695 -1.1207  0.1231  0.6629
  662MOL0     H87384   7.763   7.036   9.747  3.1433 -1.4021  1.2196
  663MOL0     O87385   4.505   2.800  10.473  0.1625  0.0369  0.5449
  663MOL0     C87386   4.558   2.909  10.452  0.2388  0.8299  0.5335
  663MOL0     O87387   4.560   3.011  10.540 -0.0730  0.4094  0.1604
  663MOL0     C87388   4.508   2.996  10.670  0.3236  0.7792 -0.3741
  663MOL0     C87389   4.368   2.968  10.689 -0.1128 -0.2098  0.6627
  663MOL0     C87390   4.300   2.986  10.807 -0.4270  0.3128 -0.7182
  663MOL0     C87391   4.378   3.003  10.930 -0.5465  0.4563  0.1444
  663MOL0     O87392   4.316   3.025  11.047 -0.6407 -0.3108 -0.3398
  663MOL0     C87393   4.265   2.902  11.099  0.7564 -0.6172 -0.5301
  663MOL0     C87394   4.170   2.920  11.222  0.2262  0.8524 -0.4071
  663MOL0     C87395   4.041   2.993  11.173 -0.4563  0.3741 -0.1004
  663MOL0     C87396   3.925   2.995  11.281 -0.0253 -0.7114  0.5701
  663MOL0     C87397   3.800   3.052  11.220  0.5918 -0.7955 -0.4873
  663MOL0     C87398   3.672   3.033  11.296 -0.0849  0.3583 -0.0084
  663MOL0     C87399   3.682   3.089  11.439 -0.5605 -0.2458 -0.6697
  663MOL0     C87400   3.547   3.115  11.499  0.0598 -0.4480  0.8265
  663MOL0     N87401   3.497   2.999  11.576  0.2383 -0.2379  0.4455
  663MOL0     C87402   3.498   3.000  11.711  0.3264 -0.3819 -0.0684
  663MOL0     C87403   3.471   2.865  11.739 -0.1332 -0.2465 -0.1282
  663MOL0     C87404   3.449   2.804  11.875  0.2895 -0.2371 -0.0990
  663MOL0     C87405   3.334   2.860  11.958  0.5656  0.5060 -0.1153
  663MOL0     C87406   3.329   2.815  12.106  0.0393 -0.2934 -0.4738
  663MOL0     C87407   3.308   2.658  12.130 -0.6333  0.0265  0.5212
  663MOL0     O87408   3.203   2.614  12.046  0.0660  0.3670  0.5292
  663MOL0     C87409   3.078   2.598  12.093  0.2176 -0.6081  0.1184
  663MOL0     C87410   2.997   2.515  12.020  0.2707  0.1135 -0.5447
  663MOL0     C87411   2.859   2.497  12.061 -0.0966  0.0996 -0.0664
  663MOL0     C87412   2.813   2.568  12.165  1.1126 -0.9227  0.4667
  663MOL0     C87413   2.668   2.556  12.203 -0.1532 -0.0023  0.4683
  663MOL0     O87414   2.582   2.486  12.119 -0.6318 -0.5454 -0.2382
  663MOL0     C87415   2.445   2.457  12.147  0.0780  0.8102 -0.1280
  663MOL0     C87416   2.390   2.467  12.273 -0.0362  0.4320 -0.5791
  663MOL0     C87417   2.252   2.432  12.290 -0.6673 -0.3340 -0.8016
  663MOL0     C87418   2.177   2.387  12.184 -0.1443  0.5804  0.4196
  663MOL0     O87419   2.045   2.372  12.205  0.0889 -0.1203 -1.0095
  663MOL0     C87420   2.005   2.241  12.236 -0.1590  0.3012 -0.8903
  663MOL0     C87421   1.889   2.242  12.337  0.4900 -0.6745  0.4761
  663MOL0     C87422   1.937   2.325  12.464  0.2341  0.7248  0.1977
  663MOL0     C87423   1.821   2.369  12.549  0.2264  0.3220 -0.9944
  663MOL0     C87424   1.788   2.515  12.555  0.0658 -0.9943 -0.1607
  663MOL0     C87425   1.650   2.548  12.608  0.4452 -0.2624 -0.0959
  663MOL0     C87426   1.621   2.703  12.627 -0.3902 -0.0423  0.3754
  663MOL0     C87427   1.468   2.705  12.631 -0.5716  0.3497  0.3936
  663MOL0    Cl87428   1.392   2.612  12.764 -0.0536  0.4342 -0.0186
  663MOL0     C87429   2.232   2.388  12.055 -0.1921  0.3441  0.2375
  663MOL0     C87430   2.367   2.415  12.039 -0.4543  0.2325 -0.1343
  663MOL0     O87431   2.630   2.626  12.294  0.2769 -0.1555 -0.7426
  663MOL0     C87432   2.891   2.649  12.241  0.8442 -0.2350 -0.0090
  663MOL0     C87433   3.023   2.667  12.199  0.4761 -0.0700  0.0193
  663MOL0     N87434   3.450   2.793  11.616 -0.7229 -0.1787 -0.1966
  663MOL0     N87435   3.469   2.878  11.522 -0.3054  0.0832  0.0057
  663MOL0     C87436   4.522   3.022  10.917  0.4532 -0.9198 -0.7938
  663MOL0     C87437   4.581   3.018  10.787 -0.4147 -1.0629 -0.6258
  663MOL0     C87438   4.625   2.935  10.326 -0.3898  0.3875 -0.6004
  663MOL0     C87439   4.709   3.048  10.312  0.0651 -0.5140 -0.1272
  663MOL0     C87440   4.780   3.060  10.194 -0.8429  0.1400  0.3431
  663MOL0     C87441   4.774   2.969  10.085 -0.1006  0.6090  0.1559
  663MOL0     O87442   4.823   2.982   9.963 -0.4178  0.4514  0.1474
  663MOL0     C87443   4.942   3.062   9.958  0.8228 -0.1219  0.4919
  663MOL0     C87444   5.016   3.043   9.826 -0.6909  0.7006 -0.1563
  663MOL0     C87445   5.101   3.163   9.786 -0.3327  0.0425  0.1400
  663MOL0     C87446   5.217   3.184   9.894 -0.0435 -0.3344 -0.0465
  663MOL0     C87447   5.315   3.083   9.931  0.2068  0.5070 -0.0796
  663MOL0     C87448   5.403   3.010   9.969  0.0449  0.5704 -0.4667
  663MOL0     C87449   4.689   2.856  10.104  0.0059  0.0594  0.3872
  663MOL0     C87450   4.610   2.843  10.216  1.0107 -0.5358 -0.2383
  663MOL0     H87451   4.309   2.946  10.601  1.5022 -0.7648 -0.3226
  663MOL0     H87452   4.194   2.969  10.821 -0.5807  2.7176  2.0262
  663MOL0     H87453   4.345   2.831  11.121 -0.5021 -2.3633 -1.3961
  663MOL0     H87454   4.203   2.849  11.027  0.9242 -1.3362 -0.1472
  663MOL0     H87455   4.212   2.978  11.305 -1.5341 -0.0400  1.1802
  663MOL0     H87456   4.150   2.818  11.257  0.1660  0.7856 -0.6376
  663MOL0     H87457   4.006   2.940  11.084 -0.1949 -3.0224  1.6516
  663MOL0     H87458   4.055   3.097  11.141 -1.1196  0.3708 -0.4102
  663MOL0     H87459   3.909   2.890  11.309  1.6391 -0.5042  2.4575
  663MOL0     H87460   3.949   3.052  11.371  2.5712  0.5091 -0.8028
  663MOL0     H87461   3.780   3.013  11.120  0.2596  0.3961 -0.9012
  663MOL0     H87462   3.806   3.160  11.205 -0.7101 -0.4489  1.1418
  663MOL0     H87463   3.635   2.930  11.298 -0.4370  0.4944  0.5599
  663MOL0     H87464   3.602   3.100  11.245  0.5802 -0.7895 -2.6033
  663MOL0     H87465   3.741   3.023  11.504 -0.7231  2.0772  2.0212
  663MOL0     H87466   3.743   3.180  11.444  2.2770 -2.0349  0.3108
  663MOL0     H87467   3.476   3.135  11.418 -1.4976  2.9003  2.7822
  663MOL0     H87468   3.547   3.208  11.557 -0.6263 -0.1133  0.3024
  663MOL0     H87469   3.487   3.083  11.780  0.0021 -1.0752  0.7375
  663MOL0     H87470   3.539   2.832  11.930  0.4482  0.2893 -0.6196
  663MOL0     H87471   3.440   2.695  11.874 -1.4021 -0.2055  2.2882
  663MOL0     H87472   3.242   2.829  11.908  0.1657  0.7029  0.4923
  663MOL0     H87473   3.354   2.967  11.956  2.3617  0.1993 -1.5055
  663MOL0     H87474   3.426   2.845  12.148 -1.0154  1.1036  1.0624
  663MOL0     H87475   3.253   2.877  12.154  1.2196  2.7314 -2.2329
  663MOL0     H87476   3.290   2.639  12.236 -2.1076 -1.4743  0.0556
  663MOL0     H87477   3.398   2.602  12.105  1.1390  2.0147  2.0616
  663MOL0     H87478   3.036   2.475  11.927 -1.9172  0.1842 -1.5648
  663MOL0     H87479   2.792   2.428  12.010  2.5976 -2.9329  0.1962
  663MOL0     H87480   2.435   2.492  12.368 -1.2746 -1.3475  0.5289
  663MOL0     H87481   2.217   2.445  12.392  0.5596  0.0179 -0.4113
  663MOL0     H87482   2.091   2.184  12.273 -0.2852  1.0569  0.6463
  663MOL0     H87483   1.969   2.183  12.150 -0.1607 -3.8790  1.6432
  663MOL0     H87484   1.849   2.144  12.363  1.6792 -1.8124 -1.6908
  663MOL0     H87485   1.807   2.303  12.296 -0.7223 -0.3798  3.1526
  663MOL0     H87486   1.990   2.415  12.432 -2.0712  2.5928  1.3035
  663MOL0     H87487   2.003   2.258  12.521 -1.1502 -0.7838  0.0847
  663MOL0     H87488   1.730   2.317  12.519  0.1250  0.5608 -1.0998
  663MOL0     H87489   1.844   2.343  12.653 -1.0756 -1.1975 -1.0489
  663MOL0     H87490   1.797   2.548  12.451  0.1165 -1.8717 -0.4433
  663MOL0     H87491   1.864   2.566  12.615  0.6721  0.3428 -1.9410
  663MOL0     H87492   1.632   2.505  12.707 -3.3521  0.3681 -0.3367
  663MOL0     H87493   1.579   2.496  12.544 -3.1635  3.0191  0.8200
  663MOL0     H87494   1.652   2.730  12.729 -1.5883 -3.1513  1.6751
  663MOL0     H87495   1.658   2.761  12.542  0.2041  1.6076  1.7062
  663MOL0     H87496   1.430   2.674  12.534 -0.9944 -1.9415  1.2270
  663MOL0     H87497   1.433   2.803  12.666 -2.9758 -0.8354  1.5753
  663MOL0     H87498   2.173   2.355  11.970 -0.4360  0.8576  0.2005
  663MOL0     H87499   2.428   2.401  11.950  1.7316  1.6872  1.0720
  663MOL0     H87500   2.850   2.698  12.328  0.1388 -1.9525  0.6558
  663MOL0     H87501   3.083   2.738  12.256  1.1672 -0.2271 -0.5010
  663MOL0     H87502   4.574   3.043  11.010 -2.1405  1.1642  0.3467
  663MOL0     H87503   4.684   3.049  10.770 -1.1088  3.0058  1.1506
  663MOL0     H87504   4.728   3.126  10.385  2.4577  0.1252 -1.3203
  663MOL0     H87505   4.849   3.144  10.188  1.9809 -2.0916 -0.7627
  663MOL0     H87506   5.014   3.027  10.033  0.1156 -0.1174  1.1902
  663MOL0     H87507   4.923   3.169   9.977  1.3441  0.1611 -0.5310
  663MOL0     H87508   5.070   2.948   9.824  0.1314  1.1668 -1.0811
  663MOL0     H87509   4.935   3.037   9.754 -0.6305  3.8804 -0.6334
  663MOL0     H87510   5.040   3.253   9.782 -2.6287 -1.4038  0.5073
  663MOL0     H87511   5.144   3.147   9.687 -0.9664 -2.2566  0.1739
  663MOL0     H87512   5.278   3.272   9.872 -0.7037  0.0048 -0.5269
  663MOL0     H87513   5.174   3.206   9.992  2.1826  2.4362  0.4254
  663MOL0     H87514   5.477   2.943  10.009 -1.3036 -0.6260  0.1440
  663MOL0     H87515   4.673   2.783  10.025  0.8585  0.9468 -0.6391
  663MOL0     H87516   4.530   2.770  10.229  0.3166  0.4546  1.3740
  664MOL0     O87517   9.439   6.891   9.954  0.5228  0.3100  0.3460
  664MOL0     C87518   9.530   6.831  10.016  0.1180  0.2774  0.7846
  664MOL0     O87519   9.517   6.773  10.133 -0.7732 -0.2781  0.6425
  664MOL0     C87520   9.389   6.777  10.188 -0.3079  0.4554  0.1570
  664MOL0     C87521   9.286   6.698  10.145  0.9719  0.0070  0.5389
  664MOL0     C87522   9.157   6.696  10.201  0.8419 -0.0465 -0.4271
  664MOL0     C87523   9.114   6.791  10.294  0.4678 -0.7113 -0.3036
  664MOL0     O87524   8.987   6.791  10.331  0.0248 -0.5678  0.0081
  664MOL0     C87525   8.927   6.901  10.402 -0.6460 -0.1588  0.1593
  664MOL0     C87526   8.779   6.895  10.382 -0.6308  0.7094  0.2988
  664MOL0     C87527   8.701   6.979  10.482 -1.1310  0.2608  0.2256
  664MOL0     C87528   8.557   7.019  10.450  0.2858 -0.2211  0.3752
  664MOL0     C87529   8.512   7.123  10.551 -0.0134  0.6646 -0.0298
  664MOL0     C87530   8.372   7.182  10.525  0.6349 -0.6496 -0.4423
  664MOL0     C87531   8.328   7.295  10.622  0.1168  0.2788 -0.0099
  664MOL0     C87532   8.209   7.362  10.549  0.2604  0.3905  0.1892
  664MOL0     N87533   8.159   7.477  10.629  0.5955  0.5216 -0.2489
  664MOL0     C87534   8.092   7.477  10.744  0.1150  0.4880 -0.5246
  664MOL0     C87535   8.096   7.602  10.789  0.4617 -0.0179 -0.0342
  664MOL0     C87536   8.045   7.647  10.922  0.1616 -0.4978 -0.8398
  664MOL0     C87537   7.895   7.640  10.939  0.1587  0.5167  0.2161
  664MOL0     C87538   7.864   7.690  11.081 -0.0755  0.1010  0.3191
  664MOL0     C87539   7.719   7.665  11.118  0.0425  0.2372 -0.1707
  664MOL0     O87540   7.640   7.739  11.034  0.2465 -0.5833 -0.8257
  664MOL0     C87541   7.502   7.750  11.069 -0.4591  0.2954  0.6241
  664MOL0     C87542   7.441   7.694  11.185 -0.4367 -0.0251  0.4211
  664MOL0     C87543   7.301   7.711  11.198 -0.1329  0.3624  0.4080
  664MOL0     C87544   7.222   7.772  11.105 -0.5570  0.9029  0.1718
  664MOL0     C87545   7.077   7.774  11.110  0.0393  0.0791 -0.9161
  664MOL0     O87546   7.016   7.850  11.017 -0.2556 -0.2035 -0.0473
  664MOL0     C87547   6.884   7.881  11.022 -0.1652  0.1192  0.6295
  664MOL0     C87548   6.835   7.955  11.132  0.3924 -0.6016  0.1441
  664MOL0     C87549   6.701   7.983  11.144  1.1673 -0.2341  0.1873
  664MOL0     C87550   6.610   7.927  11.050 -0.2018 -0.0537  1.0410
  664MOL0     O87551   6.479   7.944  11.069 -0.0477 -0.4030  0.0629
  664MOL0     C87552   6.408   7.827  11.090  0.3195  0.3056  0.0864
  664MOL0     C87553   6.266   7.842  11.026 -0.1347 -0.8971 -0.7068
  664MOL0     C87554   6.158   7.936  11.102  0.4231  0.4403 -0.3720
  664MOL0     C87555   6.018   7.927  11.056 -0.6096  0.3842 -0.1537
  664MOL0     C87556   5.958   7.789  11.069  0.2214  0.0363  0.3901
  664MOL0     C87557   5.800   7.798  11.037  0.3230 -0.7286 -0.2163
  664MOL0     C87558   5.707   7.677  11.050  0.6077  0.5213  1.8014
  664MOL0     C87559   5.709   7.591  10.921 -0.7180 -0.5881 -0.9115
  664MOL0    Cl87560   5.668   7.413  10.947  0.3091  0.0251 -0.0596
  664MOL0     C87561   6.664   7.852  10.932  0.0622  1.1039 -0.8382
  664MOL0     C87562   6.801   7.833  10.926 -0.3054 -0.3372  0.7696
  664MOL0     O87563   7.024   7.714  11.206  0.1563 -0.1411  0.6194
  664MOL0     C87564   7.289   7.825  10.993  0.0497  0.1736 -0.4858
  664MOL0     C87565   7.425   7.820  10.979  0.2769 -0.3570  0.1625
  664MOL0     N87566   8.166   7.682  10.694 -0.3777  0.1779 -0.0006
  664MOL0     N87567   8.201   7.604  10.603 -0.0149  0.5793  0.7607
  664MOL0     C87568   9.213   6.880  10.333  0.0164  0.0019 -0.7658
  664MOL0     C87569   9.346   6.868  10.280 -0.5986 -0.3827 -0.7000
  664MOL0     C87570   9.666   6.815   9.956 -0.6021  0.4607 -0.2195
  664MOL0     C87571   9.701   6.892   9.843  0.1407  0.8262  0.1482
  664MOL0     C87572   9.829   6.904   9.790  0.2370 -1.0581 -0.1580
  664MOL0     C87573   9.930   6.825   9.848  0.5495  0.2688  0.3336
  664MOL0     O87574  10.055   6.826   9.812 -0.4152  0.0557  0.2446
  664MOL0     C87575  10.108   6.897   9.711 -0.2130  0.4327  0.8224
  664MOL0     C87576  10.224   6.812   9.663 -0.0745 -0.4465  0.2567
  664MOL0     C87577  10.305   6.863   9.541 -0.3041  0.5717  0.4662
  664MOL0     C87578  10.362   7.008   9.565  0.1038  0.0753 -0.3249
  664MOL0     C87579  10.454   7.024   9.683 -1.1459 -0.0456 -0.2151
  664MOL0     C87580  10.545   7.021   9.768  0.5771 -0.4655  0.1139
  664MOL0     C87581   9.904   6.734   9.955  0.0763  0.4034 -0.1148
  664MOL0     C87582   9.769   6.732  10.009 -0.1986  0.4988 -0.6556
  664MOL0     H87583   9.316   6.628  10.068  0.7115 -0.4303  0.8269
  664MOL0     H87584   9.086   6.622  10.165  0.3776  0.3567 -0.3511
  664MOL0     H87585   8.970   6.997  10.372  0.4802  0.0496  2.2503
  664MOL0     H87586   8.955   6.891  10.507 -3.6235  0.8003  1.1435
  664MOL0     H87587   8.738   6.794  10.378 -0.1446  0.4986  0.5271
  664MOL0     H87588   8.759   6.939  10.283 -1.6941  1.0213  0.6379
  664MOL0     H87589   8.760   7.072  10.481  1.5173 -1.1507 -4.0460
  664MOL0     H87590   8.721   6.939  10.582 -0.1245  2.8903  1.1777
  664MOL0     H87591   8.533   7.061  10.352  1.0315 -1.1671 -0.2316
  664MOL0     H87592   8.491   6.932  10.458  1.3802 -1.2352 -1.1145
  664MOL0     H87593   8.585   7.204  10.558  0.0049  0.5621  1.0670
  664MOL0     H87594   8.501   7.081  10.651 -0.9016  1.7041  0.3310
  664MOL0     H87595   8.299   7.102  10.536 -0.2227  0.3239  1.7223
  664MOL0     H87596   8.375   7.201  10.418  1.5046 -2.8037 -0.8438
  664MOL0     H87597   8.307   7.258  10.723  1.6923 -2.0715 -0.4799
  664MOL0     H87598   8.410   7.368  10.622  2.2526 -1.9346 -2.2025
  664MOL0     H87599   8.128   7.288  10.542 -2.2426  2.7825  1.7184
  664MOL0     H87600   8.238   7.399  10.450 -0.9295 -0.5818 -0.5567
  664MOL0     H87601   8.037   7.396  10.790  0.0488  0.0061 -1.4242
  664MOL0     H87602   8.081   7.749  10.937 -0.6554  0.0751 -2.4564
  664MOL0     H87603   8.091   7.587  11.001  0.4928 -1.0464 -1.4422
  664MOL0     H87604   7.864   7.535  10.927 -1.4056  1.1262 -1.5280
  664MOL0     H87605   7.851   7.705  10.864  2.4850  0.9341 -0.8742
  664MOL0     H87606   7.932   7.644  11.153 -2.0648 -2.5099  0.6640
  664MOL0     H87607   7.881   7.797  11.093  0.4699 -0.0003  0.4696
  664MOL0     H87608   7.707   7.695  11.223  0.5815 -1.7820  0.5161
  664MOL0     H87609   7.693   7.559  11.106  2.4166 -0.9042  3.1530
  664MOL0     H87610   7.494   7.643  11.264 -0.8920 -1.5099 -0.1891
  664MOL0     H87611   7.253   7.674  11.288 -0.7419  0.6884  0.2214
  664MOL0     H87612   6.891   7.983  11.221 -1.0793  0.6091  0.7337
  664MOL0     H87613   6.653   8.040  11.223  0.1226  0.0799 -0.6506
  664MOL0     H87614   6.425   7.798  11.194  2.0062 -0.8082 -0.4578
  664MOL0     H87615   6.448   7.740  11.037  0.3021 -0.9599  2.0732
  664MOL0     H87616   6.223   7.741  11.028 -0.0619 -0.9325 -0.9480
  664MOL0     H87617   6.271   7.881  10.924 -2.4183  2.4462  0.2898
  664MOL0     H87618   6.187   8.040  11.085 -1.3232  0.9636 -0.3098
  664MOL0     H87619   6.159   7.910  11.209 -1.4886 -0.3305 -0.4915
  664MOL0     H87620   5.960   7.996  11.118 -0.6096 -1.4383  2.0426
  664MOL0     H87621   6.007   7.954  10.951  0.0127 -0.4002 -0.4348
  664MOL0     H87622   5.954   7.740  11.167 -2.8535  0.7367  0.7068
  664MOL0     H87623   6.006   7.715  11.004  0.5795 -0.6364  1.3901
  664MOL0     H87624   5.785   7.837  10.936 -0.6162 -0.5065  0.0023
  664MOL0     H87625   5.766   7.872  11.109  1.2803 -0.5194  0.0386
  664MOL0     H87626   5.752   7.614  11.128 -0.1059 -1.7236  0.4747
  664MOL0     H87627   5.609   7.708  11.086  0.3957  2.2495 -0.1096
  664MOL0     H87628   5.812   7.598  10.886 -0.7085  3.6269 -0.6145
  664MOL0     H87629   5.641   7.639  10.850  0.8642  1.9915 -0.8194
  664MOL0     H87630   6.601   7.794  10.864 -0.4675 -0.7129  1.0936
  664MOL0     H87631   6.837   7.768  10.846 -0.8838  0.2413  0.0185
  664MOL0     H87632   7.248   7.895  10.922  2.5842  0.5462 -1.6875
  664MOL0     H87633   7.475   7.869  10.895 -2.4525 -1.7242 -2.4100
  664MOL0     H87634   9.196   6.959  10.405  2.2900 -0.7372  0.7137
  664MOL0     H87635   9.417   6.945  10.308 -0.7213  0.3253 -2.2010
  664MOL0     H87636   9.623   6.953   9.799 -1.5318 -2.3420 -1.5566
  664MOL0     H87637   9.840   6.986   9.719  1.0975  0.8270  2.0186
  664MOL0     H87638  10.153   6.987   9.754 -2.2584  0.6180  2.7491
  664MOL0     H87639  10.037   6.920   9.631  0.2233 -2.3363 -0.4898
  664MOL0     H87640  10.295   6.795   9.744  0.3488 -0.9106 -0.1958
  664MOL0     H87641  10.194   6.709   9.641 -0.3231 -0.8048  2.1684
  664MOL0     H87642  10.248   6.857   9.448  2.2893 -3.0463 -1.1365
  664MOL0     H87643  10.388   6.793   9.534 -1.1253 -0.6983  2.6549
  664MOL0     H87644  10.420   7.046   9.480 -1.9720  0.4886 -1.6234
  664MOL0     H87645  10.278   7.078   9.572 -0.0054 -0.1132  0.2709
  664MOL0     H87646  10.610   6.991   9.847 -2.9078 -2.1225  2.6017
  664MOL0     H87647   9.979   6.672  10.002 -0.2301  0.3299  0.2803
  664MOL0     H87648   9.740   6.681  10.101 -1.9362  2.6272  0.0739
  665MOL0     O87649   6.285   3.164   7.566  0.6963 -0.3906  0.3106
  665MOL0     C87650   6.326   3.283   7.569 -0.8523  0.4558  0.0853
  665MOL0     O87651   6.255   3.396   7.574  0.1524  1.0415 -0.1686
  665MOL0     C87652   6.120   3.377   7.570 -0.3890 -0.1666 -0.5212
  665MOL0     C87653   6.051   3.456   7.489  0.8145  0.1928 -0.8309
  665MOL0     C87654   5.910   3.453   7.483  0.3852  0.0008  0.4550
  665MOL0     C87655   5.838   3.371   7.570  0.6664 -0.7076 -0.4161
  665MOL0     O87656   5.700   3.375   7.554  0.3680  0.1543 -0.1793
  665MOL0     C87657   5.614   3.290   7.630 -0.8052 -0.7512 -0.2300
  665MOL0     C87658   5.463   3.317   7.600  0.2876 -0.7488  0.2763
  665MOL0     C87659   5.381   3.226   7.695  0.3209 -1.1533 -0.8673
  665MOL0     C87660   5.232   3.242   7.667 -1.2021  0.3719  0.3283
  665MOL0     C87661   5.149   3.186   7.780 -0.1276  0.3684  0.2521
  665MOL0     C87662   5.004   3.196   7.730 -0.9568  0.6802  0.6588
  665MOL0     C87663   4.916   3.130   7.835  0.9038  0.0464 -0.1974
  665MOL0     C87664   4.767   3.165   7.809 -0.3361 -0.0800 -0.4244
  665MOL0     N87665   4.679   3.105   7.917 -0.1639 -0.8647  0.3748
  665MOL0     C87666   4.648   2.973   7.921  0.2559  0.6762 -0.2469
  665MOL0     C87667   4.543   2.971   8.009 -0.3978 -0.2097  0.2849
  665MOL0     C87668   4.492   2.833   8.052 -0.0332  0.1536  0.3831
  665MOL0     C87669   4.346   2.828   8.051  0.0225  0.2259  0.1709
  665MOL0     C87670   4.278   2.915   8.159 -0.1034  0.3254  0.4784
  665MOL0     C87671   4.129   2.881   8.178  0.4236  0.7321 -0.0821
  665MOL0     O87672   4.102   2.762   8.262 -0.1205 -0.9527 -0.4320
  665MOL0     C87673   3.972   2.731   8.288 -0.9018  0.0275  0.1610
  665MOL0     C87674   3.961   2.610   8.350  0.2215  0.1092  0.5825
  665MOL0     C87675   3.834   2.560   8.372 -0.0008  0.5180  1.0638
  665MOL0     C87676   3.720   2.620   8.324  0.7159  0.8640  0.0844
  665MOL0     C87677   3.595   2.558   8.352  0.5202  0.2284  0.2171
  665MOL0     O87678   3.583   2.441   8.410 -0.6710 -0.0159 -0.0276
  665MOL0     C87679   3.457   2.388   8.418 -0.0551  0.0954 -0.0863
  665MOL0     C87680   3.371   2.402   8.524 -0.0249 -0.4626  0.3786
  665MOL0     C87681   3.235   2.356   8.518 -1.0176 -0.0930  0.6440
  665MOL0     C87682   3.187   2.289   8.407  0.2097  0.9310  0.0796
  665MOL0     O87683   3.062   2.235   8.401 -0.1953 -0.6518 -0.5855
  665MOL0     C87684   2.994   2.163   8.505 -0.1212 -0.0345 -0.5696
  665MOL0     C87685   2.844   2.173   8.508 -0.4718 -0.0285  0.4612
  665MOL0     C87686   2.793   2.101   8.637 -1.1401  1.6895 -0.0911
  665MOL0     C87687   2.642   2.109   8.649  0.2412 -0.3481  0.1010
  665MOL0     C87688   2.598   2.080   8.789  0.4782 -0.4485 -0.2035
  665MOL0     C87689   2.636   2.178   8.899  0.0940 -0.5121 -0.6204
  665MOL0     C87690   2.559   2.140   9.023 -1.1025  0.7729  0.6468
  665MOL0     C87691   2.528   2.261   9.103  0.6068  0.2459 -0.6474
  665MOL0    Cl87692   2.458   2.195   9.258  0.4088  0.1990 -0.2722
  665MOL0     C87693   3.275   2.265   8.299 -0.5649 -0.1955  0.9682
  665MOL0     C87694   3.411   2.308   8.307 -0.6712  0.5247 -0.6512
  665MOL0     O87695   3.503   2.635   8.326 -0.2557  0.3004 -0.2287
  665MOL0     C87696   3.735   2.749   8.261 -0.3462  0.7938 -0.2678
  665MOL0     C87697   3.861   2.801   8.244 -0.5745 -0.0192  0.4651
  665MOL0     N87698   4.522   3.104   8.056 -0.9621 -0.1712 -0.3297
  665MOL0     N87699   4.602   3.184   7.997  1.0186 -0.7365 -0.0098
  665MOL0     C87700   5.905   3.301   7.674 -0.4322  0.0524 -0.4910
  665MOL0     C87701   6.051   3.297   7.667  0.5290 -0.1147 -0.5551
  665MOL0     C87702   6.471   3.291   7.547  1.2373  0.6905  0.5579
  665MOL0     C87703   6.552   3.179   7.576  0.1868  0.4788 -0.8754
  665MOL0     C87704   6.683   3.182   7.555 -0.2767  0.6649  0.9236
  665MOL0     C87705   6.750   3.293   7.507  0.4391 -0.1352  0.3695
  665MOL0     O87706   6.885   3.289   7.475 -0.3483  0.8128 -0.0213
  665MOL0     C87707   6.954   3.390   7.404 -0.2915 -0.2130 -0.3930
  665MOL0     C87708   7.084   3.346   7.339 -0.3392 -0.1366  0.1870
  665MOL0     C87709   7.200   3.316   7.437 -0.1722 -0.1700 -0.7087
  665MOL0     C87710   7.320   3.278   7.357 -0.6713 -0.0470  0.7075
  665MOL0     C87711   7.437   3.239   7.439  1.4939 -0.5889  0.3928
  665MOL0     C87712   7.526   3.194   7.503  1.1509  0.2484  0.0399
  665MOL0     C87713   6.666   3.407   7.479  0.2688 -0.0650 -0.0406
  665MOL0     C87714   6.527   3.407   7.498 -0.2880  0.1252 -0.5212
  665MOL0     H87715   6.097   3.535   7.430 -0.2355  1.2304 -0.2880
  665MOL0     H87716   5.861   3.525   7.417  0.3808  1.0378  1.5511
  665MOL0     H87717   5.625   3.313   7.737 -0.8928  1.6292 -0.6786
  665MOL0     H87718   5.634   3.182   7.627  0.6187 -0.4965 -0.3834
  665MOL0     H87719   5.424   3.289   7.501 -2.5354  0.5624  0.8988
  665MOL0     H87720   5.443   3.424   7.612  1.1846 -0.5123 -0.2438
  665MOL0     H87721   5.407   3.252   7.798 -0.3008 -2.1017 -0.4568
  665MOL0     H87722   5.398   3.123   7.662 -1.3406 -1.8086  0.1815
  665MOL0     H87723   5.209   3.346   7.639  1.5682 -0.0629 -4.6966
  665MOL0     H87724   5.205   3.181   7.581 -1.6891 -0.1066  0.8118
  665MOL0     H87725   5.162   3.241   7.874  0.9349 -1.1075  1.0315
  665MOL0     H87726   5.181   3.082   7.796  1.7533  0.8532 -0.0937
  665MOL0     H87727   4.994   3.139   7.637 -0.1331 -1.9802  2.1071
  665MOL0     H87728   4.980   3.301   7.709  1.9358  1.3334  0.1515
  665MOL0     H87729   4.932   3.022   7.837  1.0346  0.0760  1.4269
  665MOL0     H87730   4.948   3.179   7.927  1.2878 -1.3883  0.4538
  665MOL0     H87731   4.738   3.116   7.716 -2.5551  1.6165 -0.7271
  665MOL0     H87732   4.754   3.273   7.794  0.1360 -0.2387 -2.1820
  665MOL0     H87733   4.693   2.891   7.866  1.2839 -0.5584  2.2826
  665MOL0     H87734   4.526   2.804   8.152 -1.5339 -3.9318 -0.0976
  665MOL0     H87735   4.538   2.753   7.993 -1.3484 -0.1991 -0.1982
  665MOL0     H87736   4.300   2.732   8.072 -0.8758  0.5802 -0.1454
  665MOL0     H87737   4.310   2.870   7.957  0.8743 -3.2391 -1.8411
  665MOL0     H87738   4.325   2.899   8.256  0.5600  1.3344  0.3411
  665MOL0     H87739   4.279   3.021   8.131  1.4641 -0.2284 -1.9432
  665MOL0     H87740   4.090   2.877   8.075  2.1999 -0.1709 -0.7521
  665MOL0     H87741   4.073   2.965   8.221 -0.0029 -0.4745  1.7862
  665MOL0     H87742   4.048   2.554   8.383  0.2490  0.4670  1.1338
  665MOL0     H87743   3.822   2.477   8.441 -0.6153  0.9068  1.4336
  665MOL0     H87744   3.400   2.448   8.618 -0.9728  0.3537  0.2886
  665MOL0     H87745   3.165   2.380   8.598 -2.3307  3.0827 -1.2389
  665MOL0     H87746   3.028   2.190   8.605 -0.0793 -0.5421 -0.4450
  665MOL0     H87747   3.028   2.059   8.505  2.2402  0.6759  0.3671
  665MOL0     H87748   2.811   2.128   8.413 -1.0504 -0.7262  0.9773
  665MOL0     H87749   2.827   2.281   8.513 -1.7758 -0.1257 -0.9087
  665MOL0     H87750   2.840   2.159   8.717  0.2241  2.1840 -1.2038
  665MOL0     H87751   2.822   1.996   8.641 -0.7332  1.8289  0.8932
  665MOL0     H87752   2.607   2.210   8.624  0.1292 -0.3782  0.1336
  665MOL0     H87753   2.598   2.035   8.582 -1.6890  0.9472 -0.1405
  665MOL0     H87754   2.607   1.974   8.812 -1.0988 -0.7570 -0.8774
  665MOL0     H87755   2.489   2.082   8.789  0.4847  1.3306 -0.2436
  665MOL0     H87756   2.599   2.274   8.862  0.6544 -0.8095 -2.0052
  665MOL0     H87757   2.742   2.186   8.927 -0.2480  1.9655  0.1554
  665MOL0     H87758   2.465   2.088   9.001  0.4287 -0.7966 -3.0790
  665MOL0     H87759   2.626   2.072   9.077  0.6313  1.7811 -0.1480
  665MOL0     H87760   2.453   2.322   9.051 -0.3775  1.0738  1.6420
  665MOL0     H87761   2.618   2.316   9.131  0.2857  0.4307  0.0343
  665MOL0     H87762   3.245   2.209   8.210  1.8540  0.1329 -0.1315
  665MOL0     H87763   3.476   2.307   8.220  0.2860  0.4796  0.0465
  665MOL0     H87764   3.649   2.800   8.220 -0.4529 -0.0242 -1.0980
  665MOL0     H87765   3.875   2.904   8.213  1.1542  0.3997  2.3856
  665MOL0     H87766   5.836   3.248   7.739  0.8507  0.3392  1.2015
  665MOL0     H87767   6.096   3.230   7.740 -0.2348  0.0306  0.0659
  665MOL0     H87768   6.520   3.089   7.627  1.2635  0.9747  0.7532
  665MOL0     H87769   6.755   3.101   7.558  0.2133  0.9877 -0.9145
  665MOL0     H87770   6.977   3.469   7.475  2.1371 -3.2144  2.4665
  665MOL0     H87771   6.888   3.421   7.322 -5.8134  0.4292  3.7541
  665MOL0     H87772   7.078   3.257   7.275  3.1107  0.1573 -0.7410
  665MOL0     H87773   7.127   3.422   7.273 -0.2352 -0.6298 -0.3200
  665MOL0     H87774   7.170   3.233   7.502  0.7503 -0.2973 -0.4207
  665MOL0     H87775   7.244   3.393   7.503  0.1750  1.2767 -2.5492
  665MOL0     H87776   7.315   3.200   7.281  1.9099 -0.0665  0.4640
  665MOL0     H87777   7.349   3.369   7.304  1.6799 -0.4592  1.1999
  665MOL0     H87778   7.593   3.138   7.566 -0.9992 -0.5821  1.7013
  665MOL0     H87779   6.721   3.495   7.448  1.2416 -0.7161 -0.2195
  665MOL0     H87780   6.466   3.496   7.491  0.7529  0.9574  0.5891
  666MOL0     O87781   8.133   6.314   1.816 -0.1961 -0.0404 -0.3726
  666MOL0     C87782   8.131   6.367   1.709 -0.2105  0.1514  1.0244
  666MOL0     O87783   8.068   6.486   1.679 -0.5637 -0.6751 -0.2672
  666MOL0     C87784   7.946   6.502   1.732 -0.4491 -0.2053 -0.0060
  666MOL0     C87785   7.899   6.631   1.767  0.8117  0.1858 -0.4371
  666MOL0     C87786   7.769   6.652   1.820  0.4764 -0.4825 -0.1148
  666MOL0     C87787   7.679   6.544   1.837 -0.1905 -0.2953  0.2638
  666MOL0     O87788   7.551   6.544   1.871 -0.2194 -0.2790 -1.0130
  666MOL0     C87789   7.490   6.676   1.866  1.2321 -0.0854  0.7383
  666MOL0     C87790   7.341   6.658   1.853  0.3063  0.5209  0.3575
  666MOL0     C87791   7.275   6.611   1.981 -1.3963 -0.7736  0.6794
  666MOL0     C87792   7.124   6.642   2.000 -0.1381 -0.3192  0.1365
  666MOL0     C87793   7.073   6.783   1.976 -0.5951  0.1805  0.9715
  666MOL0     C87794   6.922   6.792   2.004  0.0663  0.3949  0.3891
  666MOL0     C87795   6.861   6.924   1.986 -0.3867 -0.3287  0.5307
  666MOL0     C87796   6.726   6.914   2.051  0.0547  0.5072 -0.2517
  666MOL0     N87797   6.629   7.019   2.031 -0.1966 -0.1131  0.4909
  666MOL0     C87798   6.662   7.151   1.988  0.3399  0.4774  0.1126
  666MOL0     C87799   6.546   7.211   1.959 -0.0237  0.0345  0.1754
  666MOL0     C87800   6.518   7.350   1.915 -0.1955  0.1508  0.7378
  666MOL0     C87801   6.640   7.424   1.854  0.0311  0.1191 -0.3319
  666MOL0     C87802   6.601   7.564   1.811 -0.2177 -0.4723  0.7106
  666MOL0     C87803   6.569   7.668   1.921 -0.3773  0.0931 -0.2406
  666MOL0     O87804   6.527   7.786   1.865  0.5783  0.0104  0.6291
  666MOL0     C87805   6.600   7.903   1.895 -0.5114  0.4940 -0.2525
  666MOL0     C87806   6.564   7.998   1.990 -0.5382  0.5592 -0.2517
  666MOL0     C87807   6.638   8.110   2.017 -0.7388 -0.2563  0.0016
  666MOL0     C87808   6.756   8.143   1.952 -0.2057  0.5000  1.1777
  666MOL0     C87809   6.833   8.263   1.990 -0.3918  0.4048  0.4144
  666MOL0     O87810   6.963   8.269   1.957  0.2058 -0.0254  0.3259
  666MOL0     C87811   7.026   8.389   1.955 -1.4023  1.2811  0.3286
  666MOL0     C87812   6.979   8.501   1.881 -0.1201 -0.0192 -0.3217
  666MOL0     C87813   7.057   8.618   1.888  1.0186  0.1337  0.4012
  666MOL0     C87814   7.169   8.633   1.964  0.4237  0.2083 -0.0935
  666MOL0     O87815   7.245   8.753   1.975 -0.4879  0.6166 -0.2104
  666MOL0     C87816   7.174   8.877   2.014 -0.7043  0.3332  0.3209
  666MOL0     C87817   7.246   8.998   1.976 -0.1557  1.0871  0.0571
  666MOL0     C87818   7.177   9.109   2.057 -1.0978  0.2811  0.9164
  666MOL0     C87819   7.238   9.247   2.031 -0.2834  0.0915  0.0750
  666MOL0     C87820   7.373   9.251   2.100  0.3039  0.0889 -0.0978
  666MOL0     C87821   7.435   9.391   2.128  0.4048  0.0555 -0.5953
  666MOL0     C87822   7.564   9.400   2.206 -1.3998 -1.1498  0.4944
  666MOL0     C87823   7.559   9.374   2.355  0.2463 -0.7990 -0.4641
  666MOL0    Cl87824   7.718   9.381   2.446 -0.4339 -0.3592 -0.6183
  666MOL0     C87825   7.210   8.520   2.041 -0.0374  0.4859 -0.2330
  666MOL0     C87826   7.141   8.396   2.037  0.8673 -0.0502 -0.3672
  666MOL0     O87827   6.770   8.360   2.042  0.5873 -0.0748 -0.1626
  666MOL0     C87828   6.799   8.043   1.859  0.9510 -0.4955  0.1449
  666MOL0     C87829   6.714   7.936   1.816  0.2814 -0.8404  0.1846
  666MOL0     N87830   6.445   7.116   1.975 -0.5115 -0.0874 -0.2545
  666MOL0     N87831   6.495   7.004   2.021 -0.1463  0.2113 -0.1396
  666MOL0     C87832   7.725   6.423   1.795 -0.3468 -0.2091 -0.4269
  666MOL0     C87833   7.859   6.398   1.748  0.3614 -0.2246 -0.0667
  666MOL0     C87834   8.207   6.312   1.600 -0.4293 -0.1050 -0.8416
  666MOL0     C87835   8.252   6.173   1.597  0.1211  0.6010 -0.7974
  666MOL0     C87836   8.337   6.125   1.499 -0.2190 -0.3501  0.0201
  666MOL0     C87837   8.384   6.217   1.399 -0.5648  0.0166  0.1041
  666MOL0     O87838   8.476   6.167   1.316 -0.0937  0.4673  0.6092
  666MOL0     C87839   8.466   6.212   1.176  0.6020 -0.4556 -0.5143
  666MOL0     C87840   8.539   6.122   1.083 -0.2924 -0.3127 -0.7333
  666MOL0     C87841   8.500   6.142   0.939  0.8117  0.3226 -0.4679
  666MOL0     C87842   8.542   6.282   0.883  0.8530  0.3760  0.6889
  666MOL0     C87843   8.681   6.335   0.894 -0.1081  0.7042 -0.0586
  666MOL0     C87844   8.796   6.379   0.899  0.0360 -0.7927 -0.2843
  666MOL0     C87845   8.332   6.345   1.393 -0.0428  0.4539  0.6772
  666MOL0     C87846   8.254   6.396   1.496  0.3707 -0.0310  0.1805
  666MOL0     H87847   7.962   6.716   1.744  4.5130 -1.1834  3.3291
  666MOL0     H87848   7.737   6.751   1.850 -1.1526 -0.3924 -1.9735
  666MOL0     H87849   7.525   6.727   1.775  0.5047 -4.2463 -2.2096
  666MOL0     H87850   7.510   6.737   1.954 -1.2813  1.3704  0.4012
  666MOL0     H87851   7.315   6.584   1.777 -3.0197  1.4772  0.4000
  666MOL0     H87852   7.294   6.748   1.813 -1.4193 -0.6609 -0.3723
  666MOL0     H87853   7.321   6.670   2.061  1.7089  1.2081 -2.2864
  666MOL0     H87854   7.297   6.505   1.998  1.3774 -0.1725  1.3284
  666MOL0     H87855   7.061   6.576   1.941 -2.8712 -0.3278  2.8392
  666MOL0     H87856   7.114   6.616   2.105 -0.8441  1.0237  0.4177
  666MOL0     H87857   7.089   6.803   1.870 -1.4107  2.4406  1.2247
  666MOL0     H87858   7.133   6.856   2.033 -1.1961  2.1785 -0.8163
  666MOL0     H87859   6.915   6.763   2.109 -0.7008  1.1367  0.5514
  666MOL0     H87860   6.869   6.715   1.947 -0.5434 -0.6118  2.2165
  666MOL0     H87861   6.917   7.004   2.037 -2.9008  1.2476  0.9734
  666MOL0     H87862   6.855   6.941   1.878  2.3123  0.0889  0.3700
  666MOL0     H87863   6.750   6.915   2.157  0.2767 -0.7395 -0.2704
  666MOL0     H87864   6.668   6.825   2.027  0.2727 -0.1283  1.4305
  666MOL0     H87865   6.763   7.189   1.978  1.3249 -2.1669 -0.7633
  666MOL0     H87866   6.473   7.409   1.995  1.0572  0.8285  0.9742
  666MOL0     H87867   6.446   7.349   1.833 -1.7203  3.2734  1.8968
  666MOL0     H87868   6.667   7.369   1.763  0.0680  1.7941 -1.3816
  666MOL0     H87869   6.725   7.429   1.922  1.5187  2.8640 -2.2135
  666MOL0     H87870   6.694   7.597   1.764  2.0368 -1.7287  3.9013
  666MOL0     H87871   6.517   7.572   1.742  0.4315  1.4413  0.0696
  666MOL0     H87872   6.649   7.677   1.994  1.9819 -1.0004 -2.5212
  666MOL0     H87873   6.481   7.624   1.970  0.2243 -1.5565 -0.5957
  666MOL0     H87874   6.470   7.988   2.043 -0.8849 -0.3421 -1.0123
  666MOL0     H87875   6.611   8.178   2.097  3.5731  2.7690 -0.8086
  666MOL0     H87876   6.889   8.488   1.822  0.3533 -1.3263 -0.8164
  666MOL0     H87877   7.024   8.698   1.823  0.7140 -1.2541 -1.2198
  666MOL0     H87878   7.179   8.865   2.123 -1.0984 -1.5407  0.1764
  666MOL0     H87879   7.069   8.887   1.985 -0.8311 -1.5024 -0.0140
  666MOL0     H87880   7.233   8.995   1.867  0.6120  1.0515 -0.0404
  666MOL0     H87881   7.353   8.985   1.995 -0.8177 -3.5713  2.0185
  666MOL0     H87882   7.189   9.085   2.163  1.6890  2.6111  1.2398
  666MOL0     H87883   7.070   9.107   2.035 -1.2476  2.4748  1.1765
  666MOL0     H87884   7.251   9.266   1.924  0.6701 -1.6763 -0.1663
  666MOL0     H87885   7.181   9.335   2.063  0.3340  2.0244 -3.5371
  666MOL0     H87886   7.439   9.188   2.039  1.1253  0.0816  0.7653
  666MOL0     H87887   7.363   9.200   2.196 -2.7042 -0.5339 -0.6370
  666MOL0     H87888   7.360   9.449   2.183  0.3761 -0.5108 -0.0167
  666MOL0     H87889   7.461   9.432   2.031 -0.0207  0.9149 -0.3562
  666MOL0     H87890   7.640   9.338   2.158  2.7151  2.0674  2.2153
  666MOL0     H87891   7.612   9.498   2.196 -3.0043 -0.1387  1.9881
  666MOL0     H87892   7.515   9.275   2.368  0.6012 -0.7077  1.8206
  666MOL0     H87893   7.491   9.447   2.400 -0.2951 -2.5450  1.7284
  666MOL0     H87894   7.293   8.528   2.110  0.8409  0.5493 -1.2769
  666MOL0     H87895   7.174   8.309   2.093 -0.1836  0.2057  0.6832
  666MOL0     H87896   6.891   8.058   1.803  1.6453 -0.3306  1.3057
  666MOL0     H87897   6.763   7.875   1.740  3.6540  0.4458  1.1683
  666MOL0     H87898   7.656   6.341   1.809  0.2800 -1.0038 -1.7570
  666MOL0     H87899   7.883   6.293   1.734 -0.9065 -0.5003 -0.2633
  666MOL0     H87900   8.224   6.108   1.679  0.9888  1.4664  0.2203
  666MOL0     H87901   8.370   6.022   1.500  0.2752 -0.1839  0.8083
  666MOL0     H87902   8.505   6.313   1.161 -0.7139 -0.4292 -5.1107
  666MOL0     H87903   8.364   6.221   1.139 -0.0234  0.0834  1.2205
  666MOL0     H87904   8.646   6.143   1.092 -0.5294  0.9274 -0.5883
  666MOL0     H87905   8.522   6.018   1.112 -0.2539  0.1852  1.1991
  666MOL0     H87906   8.393   6.125   0.922  0.0802  0.1304  3.2942
  666MOL0     H87907   8.555   6.074   0.874 -1.2597 -2.2917  0.3313
  666MOL0     H87908   8.512   6.288   0.778  0.1584  4.1449  0.9472
  666MOL0     H87909   8.479   6.358   0.929  0.0016  0.7160 -0.9615
  666MOL0     H87910   8.898   6.412   0.905  0.5516 -2.3728  0.1332
  666MOL0     H87911   8.359   6.406   1.307 -0.6476  1.0735  0.9159
  666MOL0     H87912   8.208   6.494   1.491 -0.0384 -0.1485  1.3546
  667MOL0     O87913   3.435   6.130   9.647  0.5854 -0.0173  0.2274
  667MOL0     C87914   3.417   6.164   9.530  0.6814  0.2408  0.2108
  667MOL0     O87915   3.289   6.160   9.467  0.1781  0.2141 -0.2660
  667MOL0     C87916   3.190   6.100   9.541 -0.3036  1.0438 -0.5903
  667MOL0     C87917   3.153   5.968   9.514 -1.0286 -0.9132 -0.0900
  667MOL0     C87918   3.060   5.909   9.588  0.2210 -0.4473  0.0064
  667MOL0     C87919   2.980   5.985   9.683  0.3047  0.1058  0.1639
  667MOL0     O87920   2.874   5.923   9.743 -0.2654 -0.3981 -0.4810
  667MOL0     C87921   2.824   5.975   9.863  0.0782 -0.8247  0.6905
  667MOL0     C87922   2.711   5.888   9.938 -1.5239  0.1606 -0.2715
  667MOL0     C87923   2.599   5.874   9.831 -0.6439 -0.3942  0.0106
  667MOL0     C87924   2.462   5.835   9.899 -0.0282 -0.2269 -0.9550
  667MOL0     C87925   2.336   5.802   9.818 -0.0896  0.4184 -0.1926
  667MOL0     C87926   2.372   5.727   9.687  0.1053 -0.4369 -0.3763
  667MOL0     C87927   2.255   5.643   9.628  0.0142 -0.3612  0.8650
  667MOL0     C87928   2.153   5.732   9.556  0.2600 -0.3972 -0.6497
  667MOL0     N87929   2.057   5.666   9.466  0.4478  0.5438  0.0010
  667MOL0     C87930   1.915   5.681   9.469  0.6229 -0.1818  0.0352
  667MOL0     C87931   1.866   5.599   9.371 -1.0206  0.0385 -0.3390
  667MOL0     C87932   1.723   5.591   9.319 -0.4233  0.0288 -0.6132
  667MOL0     C87933   1.612   5.564   9.423  0.0747  0.1871 -0.2960
  667MOL0     C87934   1.480   5.575   9.357 -0.2741 -0.6470 -0.2569
  667MOL0     C87935   1.358   5.534   9.444 -1.4189 -0.5057  0.5631
  667MOL0     O87936   1.241   5.564   9.364 -0.1475  0.4793  0.0999
  667MOL0     C87937   1.123   5.497   9.373  0.3979 -0.4111 -0.6303
  667MOL0     C87938   1.108   5.371   9.428  0.4449 -0.9437 -0.2485
  667MOL0     C87939   0.984   5.311   9.417 -0.1955 -0.3183  0.2186
  667MOL0     C87940   0.878   5.369   9.357  0.7662  0.0376  0.0649
  667MOL0     C87941   0.749   5.301   9.334 -0.3173 -0.6090 -0.4312
  667MOL0     O87942   0.731   5.175   9.376 -0.0160 -0.0641  0.1340
  667MOL0     C87943   0.611   5.111   9.380  0.0829 -0.4106 -0.4018
  667MOL0     C87944   0.497   5.177   9.423 -0.4458  0.2515 -0.2753
  667MOL0     C87945   0.373   5.116   9.411  0.3310 -0.3517  0.2000
  667MOL0     C87946   0.359   4.985   9.369 -0.0429  0.1581  0.9284
  667MOL0     O87947   0.228   4.957   9.345  0.2659 -0.0601  0.4058
  667MOL0     C87948   0.193   4.836   9.285  0.2882 -0.3595 -0.1885
  667MOL0     C87949   0.041   4.837   9.262 -0.0021 -0.3316  0.3163
  667MOL0     C87950  -0.045   4.810   9.390 -0.4802 -0.5290 -0.3800
  667MOL0     C87951  -0.097   4.922   9.470 -0.1760 -0.1450 -0.1555
  667MOL0     C87952  -0.192   4.872   9.579 -0.3684  0.8720 -0.2021
  667MOL0     C87953  -0.206   4.985   9.682  0.1967 -0.0625  0.2648
  667MOL0     C87954  -0.300   4.941   9.799  0.2406 -0.1320 -0.1797
  667MOL0     C87955  -0.224   4.959   9.927 -0.6442  0.2028 -0.7349
  667MOL0    Cl87956  -0.340   4.964  10.062 -0.6615 -0.5879 -0.2108
  667MOL0     C87957   0.475   4.920   9.324 -0.8174 -0.1382  0.7776
  667MOL0     C87958   0.599   4.988   9.329 -0.0477  0.8928 -0.2826
  667MOL0     O87959   0.669   5.362   9.257  0.0869  0.0154  0.0090
  667MOL0     C87960   0.893   5.503   9.310  0.2166  0.4963  0.3223
  667MOL0     C87961   1.019   5.563   9.312  0.0571 -0.9028  0.3211
  667MOL0     N87962   1.977   5.538   9.313 -0.8134 -0.2291  0.5720
  667MOL0     N87963   2.083   5.572   9.372  0.0737 -0.0161 -0.3488
  667MOL0     C87964   3.022   6.111   9.716  0.4722 -0.4656  0.3465
  667MOL0     C87965   3.117   6.172   9.637  0.0085 -0.2810 -0.3559
  667MOL0     C87966   3.524   6.221   9.441  1.1304 -0.4461  0.0167
  667MOL0     C87967   3.642   6.269   9.500  0.4790 -0.2657  0.1123
  667MOL0     C87968   3.742   6.317   9.414 -0.0611 -0.7778 -1.3287
  667MOL0     C87969   3.740   6.311   9.271  0.0732  0.2804 -0.0079
  667MOL0     O87970   3.849   6.332   9.190  0.2587 -1.0815 -0.3359
  667MOL0     C87971   3.971   6.383   9.247  0.7026  0.4713 -1.7365
  667MOL0     C87972   4.070   6.398   9.137  0.3287 -0.6965 -0.1692
  667MOL0     C87973   4.053   6.536   9.080  0.3261  0.5887  0.5079
  667MOL0     C87974   4.129   6.564   8.951 -0.0447 -0.1400 -0.3089
  667MOL0     C87975   4.258   6.617   8.985  0.1313  0.6118  0.2681
  667MOL0     C87976   4.365   6.673   9.002 -0.0170 -0.2353  0.0796
  667MOL0     C87977   3.621   6.268   9.222 -0.0785  0.0743  0.0155
  667MOL0     C87978   3.514   6.224   9.297 -0.2911  0.2780 -0.4567
  667MOL0     H87979   3.215   5.911   9.445  0.7564 -0.1900  0.8410
  667MOL0     H87980   3.034   5.805   9.575  0.0568 -0.3627 -0.3381
  667MOL0     H87981   2.788   6.076   9.843  2.4331  0.4506  2.3772
  667MOL0     H87982   2.907   5.979   9.934  0.6686  1.1368 -0.0401
  667MOL0     H87983   2.675   5.943  10.025 -0.4104  0.6930 -0.1265
  667MOL0     H87984   2.761   5.798   9.975  0.9825  1.1404 -1.0075
  667MOL0     H87985   2.635   5.797   9.763  2.9260 -0.4082  1.6970
  667MOL0     H87986   2.593   5.965   9.770  1.7818  0.2376  0.6108
  667MOL0     H87987   2.480   5.753   9.968 -0.6906 -0.3502 -0.9237
  667MOL0     H87988   2.429   5.917   9.964 -1.9505 -0.6831 -1.2961
  667MOL0     H87989   2.287   5.899   9.804 -0.3278  0.2932 -0.2320
  667MOL0     H87990   2.265   5.741   9.874  1.4585 -0.0279  1.3455
  667MOL0     H87991   2.460   5.664   9.706  0.7308  0.4111 -0.4039
  667MOL0     H87992   2.412   5.802   9.618 -1.0679  1.7981  1.2460
  667MOL0     H87993   2.286   5.571   9.551  1.7982  0.9401  0.2902
  667MOL0     H87994   2.219   5.573   9.703  0.9107  0.3562  1.9904
  667MOL0     H87995   2.206   5.812   9.503  1.5372 -0.2624  0.7693
  667MOL0     H87996   2.097   5.769   9.642  1.7998  1.2126 -0.2882
  667MOL0     H87997   1.857   5.750   9.528  0.3255  0.5085 -1.0203
  667MOL0     H87998   1.721   5.508   9.248  1.7441  1.4100 -2.4779
  667MOL0     H87999   1.700   5.683   9.263 -2.3832 -0.5355 -0.7985
  667MOL0     H88000   1.612   5.635   9.506 -1.7549  1.4211 -1.2822
  667MOL0     H88001   1.634   5.462   9.455  0.7386  1.1860  2.7150
  667MOL0     H88002   1.471   5.679   9.324  1.7980  1.0245  3.8021
  667MOL0     H88003   1.474   5.520   9.263 -0.3917 -1.2986  0.1272
  667MOL0     H88004   1.371   5.590   9.537  2.6782  2.1237 -1.3293
  667MOL0     H88005   1.371   5.425   9.449  2.8280 -0.4859 -3.6169
  667MOL0     H88006   1.193   5.321   9.472  2.1546 -1.2485 -3.5546
  667MOL0     H88007   0.972   5.212   9.459  0.7408 -1.2646 -1.6434
  667MOL0     H88008   0.504   5.278   9.462  0.7560 -0.1198  0.5210
  667MOL0     H88009   0.287   5.173   9.446 -0.4722 -1.9383  0.9089
  667MOL0     H88010   0.226   4.752   9.348 -0.6649 -0.9682 -0.4928
  667MOL0     H88011   0.252   4.826   9.193  0.3519 -0.4680 -0.1379
  667MOL0     H88012   0.022   4.760   9.187  0.7336 -0.1963 -0.0206
  667MOL0     H88013   0.014   4.934   9.219  0.5705 -0.5528 -0.5803
  667MOL0     H88014   0.005   4.739   9.456  0.9017  1.7792  1.1588
  667MOL0     H88015  -0.132   4.753   9.356 -0.1818 -1.3783  0.2387
  667MOL0     H88016  -0.008   4.972   9.510 -0.9429  2.7788 -1.8161
  667MOL0     H88017  -0.145   5.000   9.410 -0.1520 -0.1432 -0.1735
  667MOL0     H88018  -0.160   4.778   9.625  1.2019  1.2335 -0.4978
  667MOL0     H88019  -0.289   4.852   9.533 -0.1799 -0.0450 -0.2167
  667MOL0     H88020  -0.245   5.078   9.639  3.6409  1.0045 -0.9681
  667MOL0     H88021  -0.110   5.004   9.731 -1.3097  0.9997  3.0362
  667MOL0     H88022  -0.399   4.988   9.796  0.5420  0.7504  1.8796
  667MOL0     H88023  -0.328   4.836   9.810 -2.0356  0.5803  1.9943
  667MOL0     H88024  -0.154   5.043   9.919 -0.1187 -0.3222 -1.7982
  667MOL0     H88025  -0.169   4.866   9.941 -1.9968 -0.3776  1.2315
  667MOL0     H88026   0.456   4.824   9.276 -0.0734  0.6422 -1.1999
  667MOL0     H88027   0.687   4.944   9.283  0.8839  0.0818  2.1033
  667MOL0     H88028   0.815   5.559   9.260  0.1999  0.0002 -0.2238
  667MOL0     H88029   1.035   5.655   9.257 -2.1059 -1.1631 -0.8758
  667MOL0     H88030   2.982   6.162   9.803  0.3277  0.1038 -0.0446
  667MOL0     H88031   3.136   6.275   9.667 -2.9686 -0.1516  1.5082
  667MOL0     H88032   3.657   6.298   9.604 -2.0674  0.4120  0.3445
  667MOL0     H88033   3.826   6.357   9.470 -1.6047  0.3710  0.2834
  667MOL0     H88034   4.015   6.328   9.331 -0.9261  2.0406  0.2817
  667MOL0     H88035   3.951   6.480   9.295  3.6598 -0.0631  0.9625
  667MOL0     H88036   4.171   6.380   9.175 -0.4322 -2.8407  1.0568
  667MOL0     H88037   4.045   6.319   9.066 -2.7505  0.8573 -1.0160
  667MOL0     H88038   4.072   6.616   9.153 -3.4868 -1.1330  3.7544
  667MOL0     H88039   3.948   6.549   9.055  0.2796  0.9949  0.8872
  667MOL0     H88040   4.133   6.470   8.893 -1.0626 -0.9870  0.9442
  667MOL0     H88041   4.085   6.637   8.883 -3.0596 -1.4065  0.1414
  667MOL0     H88042   4.457   6.726   9.021 -1.5275  2.2704  0.8786
  667MOL0     H88043   3.607   6.249   9.116  3.5399  1.0044 -0.7731
  667MOL0     H88044   3.423   6.189   9.249  0.3740  0.4434 -1.8770
  668MOL0     O88045   8.647   3.764   8.570  0.6791  0.3769 -0.1817
  668MOL0     C88046   8.590   3.759   8.459 -0.4032  0.5840 -0.8195
  668MOL0     O88047   8.452   3.777   8.440 -0.5005  0.5262  0.2609
  668MOL0     C88048   8.371   3.804   8.545  0.5962  0.0922 -0.5103
  668MOL0     C88049   8.389   3.782   8.686  0.7096 -0.1165  0.1989
  668MOL0     C88050   8.290   3.827   8.780 -0.2855  0.4899 -0.2742
  668MOL0     C88051   8.174   3.891   8.737 -0.0879  0.3891  0.6033
  668MOL0     O88052   8.095   3.945   8.831 -0.0473  0.2906 -0.4120
  668MOL0     C88053   7.954   3.908   8.821  0.2497 -0.0118  0.2661
  668MOL0     C88054   7.906   3.843   8.954 -0.0734  0.7079 -0.8230
  668MOL0     C88055   7.773   3.766   8.948  0.1443  0.3970  0.7799
  668MOL0     C88056   7.648   3.863   8.929  0.5665  0.2632  0.0505
  668MOL0     C88057   7.516   3.804   8.975 -0.4077  0.7967 -0.4275
  668MOL0     C88058   7.404   3.889   9.012 -0.0430 -0.3118 -0.3640
  668MOL0     C88059   7.285   3.813   9.066  0.4336 -0.1824 -0.5993
  668MOL0     C88060   7.195   3.901   9.154  0.0089 -0.6963  0.0149
  668MOL0     N88061   7.121   4.014   9.079 -0.1171  0.0861 -0.7081
  668MOL0     C88062   7.018   3.992   8.989 -0.7534  0.5228  0.4956
  668MOL0     C88063   6.988   4.117   8.954  0.5380 -0.2476 -0.6891
  668MOL0     C88064   6.880   4.144   8.854 -0.2379  1.0179  0.9018
  668MOL0     C88065   6.751   4.173   8.920  0.2968  0.1494 -0.7102
  668MOL0     C88066   6.642   4.209   8.813 -0.1419  0.3467  0.1526
  668MOL0     C88067   6.506   4.229   8.884 -0.2605 -0.5632  0.0671
  668MOL0     O88068   6.434   4.107   8.893 -0.3037 -0.6707  0.2345
  668MOL0     C88069   6.304   4.126   8.908 -0.4887 -0.0275  0.7762
  668MOL0     C88070   6.214   4.145   8.805  0.4787 -0.3581  0.3201
  668MOL0     C88071   6.077   4.170   8.829  0.0293  0.0863 -0.0053
  668MOL0     C88072   6.024   4.170   8.958 -0.2497 -0.0320 -0.6917
  668MOL0     C88073   5.883   4.194   8.985 -0.2337 -0.5152  0.0817
  668MOL0     O88074   5.799   4.244   8.882 -0.2379  0.2181  0.2128
  668MOL0     C88075   5.671   4.277   8.919  0.1912  0.5554  0.6031
  668MOL0     C88076   5.641   4.393   9.003  0.1029 -0.0611 -0.2953
  668MOL0     C88077   5.514   4.422   9.046  0.5469 -0.5881  0.7809
  668MOL0     C88078   5.405   4.354   8.989 -0.6086 -0.7223 -0.5964
  668MOL0     O88079   5.273   4.390   9.021 -0.0896  0.1687  0.2067
  668MOL0     C88080   5.215   4.480   8.929 -0.2207  0.3190 -0.6991
  668MOL0     C88081   5.108   4.562   9.007 -0.4115 -0.5874  0.0047
  668MOL0     C88082   4.993   4.462   9.038  0.8676  0.4325  0.0987
  668MOL0     C88083   4.871   4.539   9.083  0.0707  0.0159 -0.2348
  668MOL0     C88084   4.772   4.441   9.150  0.7163 -0.5453 -0.0429
  668MOL0     C88085   4.668   4.526   9.225  0.7941 -0.1128 -0.0305
  668MOL0     C88086   4.550   4.434   9.271  0.5674 -0.2072  0.3190
  668MOL0     C88087   4.430   4.523   9.308  0.3040  0.4901  0.1972
  668MOL0    Cl88088   4.482   4.642   9.432 -0.0269  0.2031 -0.5855
  668MOL0     C88089   5.432   4.246   8.905  0.8265  0.7208 -0.6718
  668MOL0     C88090   5.564   4.209   8.877  0.6159 -0.1859 -0.3298
  668MOL0     O88091   5.842   4.143   9.088  0.5122  0.0288  0.7181
  668MOL0     C88092   6.116   4.163   9.065 -1.6511  0.6606 -0.4159
  668MOL0     C88093   6.254   4.128   9.036  0.5744 -0.0768  0.2148
  668MOL0     N88094   7.059   4.212   9.025 -0.7328  0.4191  0.3719
  668MOL0     N88095   7.147   4.145   9.098 -0.0796  0.1512 -0.5683
  668MOL0     C88096   8.147   3.899   8.598  0.3367 -0.2756  0.2723
  668MOL0     C88097   8.244   3.854   8.504  0.0343 -0.0428 -0.7003
  668MOL0     C88098   8.675   3.743   8.340  0.2051  0.8801 -0.0382
  668MOL0     C88099   8.616   3.738   8.215  0.4367  0.6784 -0.1816
  668MOL0     C88100   8.692   3.702   8.110  0.1075 -0.3095 -1.3289
  668MOL0     C88101   8.828   3.667   8.124 -0.3355  0.0372  0.9342
  668MOL0     O88102   8.889   3.640   8.007 -0.9047  0.2260 -0.4452
  668MOL0     C88103   9.027   3.622   7.999 -0.3380 -0.2773  0.5018
  668MOL0     C88104   9.083   3.483   8.036  0.2335 -0.3397 -0.6808
  668MOL0     C88105   9.042   3.389   7.924  0.7777 -0.3332 -0.7397
  668MOL0     C88106   9.057   3.241   7.975  0.1701  0.2969  0.2889
  668MOL0     C88107   9.014   3.135   7.883 -0.4220 -0.0831 -0.0487
  668MOL0     C88108   8.973   3.047   7.810  0.1768 -0.1611  1.1353
  668MOL0     C88109   8.886   3.674   8.249  0.1022 -0.9347 -0.5950
  668MOL0     C88110   8.816   3.720   8.360 -0.6034 -0.1029  0.4568
  668MOL0     H88111   8.473   3.726   8.726  0.3716 -0.9631 -0.2570
  668MOL0     H88112   8.314   3.800   8.882  1.3662 -3.7590 -1.5631
  668MOL0     H88113   7.945   3.842   8.735 -0.7959 -0.5642  0.7787
  668MOL0     H88114   7.896   3.997   8.798  0.7887  0.4014  0.4809
  668MOL0     H88115   7.906   3.913   9.037  1.6296 -2.4713  2.1003
  668MOL0     H88116   7.973   3.760   8.979  0.4274  1.8768  2.0544
  668MOL0     H88117   7.769   3.710   9.041  1.3989  1.1468  1.3127
  668MOL0     H88118   7.775   3.703   8.859 -2.3759  3.2082 -1.4859
  668MOL0     H88119   7.676   3.956   8.979  0.6509 -0.4606  1.3952
  668MOL0     H88120   7.639   3.873   8.820  0.1059 -4.9902 -0.6502
  668MOL0     H88121   7.551   3.758   9.068  3.6247  3.2386 -0.4734
  668MOL0     H88122   7.487   3.733   8.897 -1.7670  1.3965 -0.4933
  668MOL0     H88123   7.368   3.964   8.940 -3.5349 -2.7736 -1.4735
  668MOL0     H88124   7.441   3.943   9.100 -0.1579 -0.0990 -0.4437
  668MOL0     H88125   7.229   3.767   8.983  0.0247  1.2081 -1.1225
  668MOL0     H88126   7.318   3.732   9.130 -2.7209 -1.3828 -0.2908
  668MOL0     H88127   7.256   3.957   9.227 -1.6874  1.0816  0.1446
  668MOL0     H88128   7.125   3.867   9.231  1.7675  2.5466  3.4142
  668MOL0     H88129   6.979   3.895   8.962 -0.7567  0.0006  2.2497
  668MOL0     H88130   6.873   4.066   8.778  3.1284  1.2559  0.1833
  668MOL0     H88131   6.897   4.240   8.804 -2.8869  0.9390 -0.3010
  668MOL0     H88132   6.772   4.252   8.992 -0.1131  1.0460 -1.5400
  668MOL0     H88133   6.717   4.093   8.986  0.5335  1.1714  0.6777
  668MOL0     H88134   6.661   4.304   8.762 -0.6406 -0.2479 -1.2001
  668MOL0     H88135   6.633   4.131   8.737 -1.2397 -0.6529  1.2558
  668MOL0     H88136   6.447   4.308   8.838 -1.8347 -0.2967  2.3872
  668MOL0     H88137   6.520   4.267   8.985  0.3046  0.9676 -0.5527
  668MOL0     H88138   6.247   4.145   8.702 -2.0132 -0.1490 -0.5420
  668MOL0     H88139   6.020   4.181   8.737  0.5820  3.2926 -0.0901
  668MOL0     H88140   5.728   4.444   9.042  1.0703 -1.9344  0.1197
  668MOL0     H88141   5.508   4.514   9.104  0.6047  0.0244 -0.1560
  668MOL0     H88142   5.173   4.435   8.839 -0.9034 -1.6382  0.5582
  668MOL0     H88143   5.280   4.558   8.886 -1.3204  0.9357 -1.3089
  668MOL0     H88144   5.065   4.645   8.951 -2.9580 -0.6809  1.6354
  668MOL0     H88145   5.142   4.608   9.100 -2.3737  0.0226  0.4582
  668MOL0     H88146   5.028   4.390   9.112 -0.0780  1.7505  1.9124
  668MOL0     H88147   4.964   4.412   8.946 -0.8147 -0.1730  0.9196
  668MOL0     H88148   4.902   4.623   9.145  1.4033 -2.4190  2.6669
  668MOL0     H88149   4.816   4.587   9.002 -2.3631 -1.7180  0.2496
  668MOL0     H88150   4.816   4.371   9.223 -1.5621 -0.5461  1.4243
  668MOL0     H88151   4.726   4.383   9.070 -0.3132 -0.2955  0.3590
  668MOL0     H88152   4.625   4.610   9.171  0.8002  0.8312  1.3604
  668MOL0     H88153   4.707   4.555   9.323  0.7348 -5.5991  1.9789
  668MOL0     H88154   4.509   4.373   9.190 -1.9771  1.3468  0.3322
  668MOL0     H88155   4.567   4.368   9.357  0.6532  1.2130  1.4254
  668MOL0     H88156   4.350   4.465   9.355  0.9334  0.9636  1.9231
  668MOL0     H88157   4.395   4.568   9.214  1.1981 -0.4279 -0.5959
  668MOL0     H88158   5.347   4.189   8.868  0.3110  0.6876  0.4976
  668MOL0     H88159   5.595   4.124   8.817 -1.0709 -1.6308  0.7542
  668MOL0     H88160   6.085   4.167   9.169 -3.9010  0.4214 -1.0329
  668MOL0     H88161   6.319   4.090   9.115 -0.3053 -0.7891  0.6224
  668MOL0     H88162   8.049   3.919   8.556  0.5906 -0.3474 -0.3577
  668MOL0     H88163   8.227   3.857   8.397 -2.5036  0.3745 -0.3457
  668MOL0     H88164   8.508   3.746   8.205  0.2853  0.0129  0.7415
  668MOL0     H88165   8.648   3.700   8.011 -0.1961  0.0370 -1.2007
  668MOL0     H88166   9.079   3.695   8.062 -0.5115  0.5221 -0.2681
  668MOL0     H88167   9.057   3.641   7.896  1.1969  1.7960  1.2509
  668MOL0     H88168   9.192   3.488   8.045  0.0369  0.3039  3.3564
  668MOL0     H88169   9.046   3.442   8.131  1.2472 -0.4474 -0.3173
  668MOL0     H88170   9.105   3.401   7.835 -0.4403  0.6410 -1.4974
  668MOL0     H88171   8.939   3.406   7.894  1.3310  1.7854 -1.6302
  668MOL0     H88172   9.158   3.208   7.997 -0.5964 -1.6770  1.0304
  668MOL0     H88173   8.998   3.235   8.068  0.0723  0.8298  0.2686
  668MOL0     H88174   8.945   2.972   7.738  0.8880  0.8030 -0.1983
  668MOL0     H88175   8.989   3.642   8.257 -0.0008 -1.1619 -0.1348
  668MOL0     H88176   8.860   3.735   8.458 -1.9228  3.0296  0.6853
  669MOL0     O88177   6.559   9.704   2.811 -0.2654  0.8762  0.5021
  669MOL0     C88178   6.624   9.721   2.915  0.1348 -1.2558 -0.2004
  669MOL0     O88179   6.582   9.789   3.033  0.5954 -0.2172  0.5465
  669MOL0     C88180   6.451   9.838   3.023  0.4707 -0.5288  0.7779
  669MOL0     C88181   6.337   9.761   3.011  0.3451  0.7672  0.6287
  669MOL0     C88182   6.214   9.808   2.997  0.6565  0.6714  0.0298
  669MOL0     C88183   6.195   9.951   2.986 -0.0275  0.4201  0.3099
  669MOL0     O88184   6.066   9.989   2.978 -0.3934  0.0209 -0.5649
  669MOL0     C88185   6.013  10.040   3.093  0.5561 -0.2805 -0.0275
  669MOL0     C88186   5.866  10.088   3.071  0.2294 -0.0221  0.0498
  669MOL0     C88187   5.775   9.955   3.060 -0.2764  0.3258  0.1960
  669MOL0     C88188   5.741   9.892   3.198  0.6972  0.6660  0.2342
  669MOL0     C88189   5.712   9.742   3.172 -0.3429 -0.1706 -0.5118
  669MOL0     C88190   5.570   9.723   3.123 -0.1376 -0.1486  0.0793
  669MOL0     C88191   5.470   9.720   3.254  0.7246  0.1091  0.7384
  669MOL0     C88192   5.459   9.586   3.335 -0.4465 -0.6799  0.6341
  669MOL0     N88193   5.339   9.579   3.420  0.5018 -0.1251 -0.3666
  669MOL0     C88194   5.211   9.588   3.373 -0.5493  0.2701  0.2121
  669MOL0     C88195   5.136   9.551   3.475 -0.3520 -1.1231 -0.0069
  669MOL0     C88196   4.992   9.563   3.478  0.4173  0.1591 -0.1650
  669MOL0     C88197   4.933   9.445   3.555  0.2977  0.4374 -0.6826
  669MOL0     C88198   4.789   9.464   3.586  0.5414  0.1539 -1.0283
  669MOL0     C88199   4.755   9.591   3.657  0.6187 -0.3515  0.6396
  669MOL0     O88200   4.661   9.571   3.761 -0.4472 -0.2026 -0.8862
  669MOL0     C88201   4.530   9.535   3.731 -0.4988 -0.5413 -0.0129
  669MOL0     C88202   4.458   9.556   3.606 -0.8455  0.3410 -0.0594
  669MOL0     C88203   4.325   9.513   3.586  0.4467  0.0530  0.2060
  669MOL0     C88204   4.263   9.443   3.692  0.0324  0.3617 -0.0057
  669MOL0     C88205   4.131   9.373   3.658 -0.1861 -0.2051 -1.3359
  669MOL0     O88206   4.087   9.389   3.530 -0.1118  0.1782  0.0317
  669MOL0     C88207   3.951   9.361   3.506  0.2066 -0.2830  0.1127
  669MOL0     C88208   3.912   9.302   3.389 -0.2499  0.1790  1.5813
  669MOL0     C88209   3.781   9.265   3.359  0.0471 -0.0971  0.5975
  669MOL0     C88210   3.684   9.288   3.459 -0.8559 -0.0378 -0.4787
  669MOL0     O88211   3.547   9.261   3.449 -0.3107  0.3925 -1.0310
  669MOL0     C88212   3.494   9.239   3.320 -0.1362 -0.0502 -0.4346
  669MOL0     C88213   3.347   9.249   3.331 -0.0555 -0.2714 -0.9310
  669MOL0     C88214   3.278   9.194   3.199  0.1782  0.3333  0.7979
  669MOL0     C88215   3.125   9.179   3.203 -0.7225 -0.1721 -0.2119
  669MOL0     C88216   3.050   9.307   3.249  0.2143 -0.7042  0.7945
  669MOL0     C88217   2.901   9.272   3.231 -0.2129  0.0423  0.5095
  669MOL0     C88218   2.816   9.401   3.257  0.3851 -0.2949 -0.1669
  669MOL0     C88219   2.677   9.379   3.195  0.6185 -0.0743 -0.3707
  669MOL0    Cl88220   2.589   9.254   3.301  0.5963  0.0537 -0.4318
  669MOL0     C88221   3.722   9.346   3.581  0.8594 -0.0000 -0.2255
  669MOL0     C88222   3.848   9.388   3.596 -0.4062  0.3797  0.0183
  669MOL0     O88223   4.086   9.306   3.747 -0.2084  0.2128 -0.2539
  669MOL0     C88224   4.332   9.430   3.814  0.1084  0.9277 -0.7277
  669MOL0     C88225   4.454   9.489   3.838 -0.2154  0.6499  0.9498
  669MOL0     N88226   5.220   9.515   3.579  0.1958  0.2343 -0.1191
  669MOL0     N88227   5.346   9.541   3.552  0.3695  0.7895 -0.1685
  669MOL0     C88228   6.305  10.033   2.990  0.4141  0.2689  0.9044
  669MOL0     C88229   6.431   9.973   3.015 -1.1309 -0.3392 -0.5510
  669MOL0     C88230   6.766   9.688   2.903  0.4816  0.2842  0.1212
  669MOL0     C88231   6.810   9.590   2.811  0.5036 -0.1562 -0.3390
  669MOL0     C88232   6.936   9.544   2.813 -0.8167 -0.0313 -0.9317
  669MOL0     C88233   7.036   9.601   2.899  0.8610 -0.0904  0.3418
  669MOL0     O88234   7.168   9.566   2.895 -0.3938  0.2558 -0.2131
  669MOL0     C88235   7.214   9.434   2.935  0.9061 -0.3399 -0.4173
  669MOL0     C88236   7.299   9.437   3.058 -0.5516 -0.2093 -0.0060
  669MOL0     C88237   7.399   9.560   3.056 -0.4694  0.9845 -0.2317
  669MOL0     C88238   7.480   9.558   3.192  0.1987  0.1635  0.0356
  669MOL0     C88239   7.594   9.466   3.192 -0.2294 -0.7686  0.2396
  669MOL0     C88240   7.684   9.387   3.182  0.2182 -0.7965  0.1056
  669MOL0     C88241   7.001   9.708   2.972 -0.1003 -0.4216 -0.6802
  669MOL0     C88242   6.862   9.745   2.990  0.2157 -0.5111 -0.0798
  669MOL0     H88243   6.336   9.654   3.027  0.4418  1.2341  4.8940
  669MOL0     H88244   6.123   9.750   2.985  2.6339 -3.0664  1.3476
  669MOL0     H88245   6.074  10.127   3.120  0.7339 -0.6408  0.7688
  669MOL0     H88246   6.021   9.961   3.168  1.5528 -1.7216 -1.5514
  669MOL0     H88247   5.857  10.144   2.977 -1.2308  2.7881  1.7220
  669MOL0     H88248   5.826  10.140   3.159 -0.5235 -1.7451  0.7811
  669MOL0     H88249   5.824   9.883   2.995  1.0243  0.8487  0.5778
  669MOL0     H88250   5.678   9.982   3.016 -0.5913  0.4638  0.9523
  669MOL0     H88251   5.832   9.893   3.260  1.8390  0.1195 -1.3692
  669MOL0     H88252   5.654   9.932   3.251  0.5357  1.8659 -0.8966
  669MOL0     H88253   5.730   9.695   3.269  0.2656  0.9152 -0.0743
  669MOL0     H88254   5.787   9.706   3.101  1.2395  0.0594  0.9735
  669MOL0     H88255   5.563   9.628   3.068 -0.8623 -1.0231  1.6284
  669MOL0     H88256   5.531   9.806   3.063  2.4155 -1.0382 -3.1314
  669MOL0     H88257   5.497   9.801   3.323  1.2260  1.8873 -1.4276
  669MOL0     H88258   5.372   9.751   3.218  0.9347  2.4670  2.0062
  669MOL0     H88259   5.559   9.580   3.379  1.0020 -1.6958 -2.4594
  669MOL0     H88260   5.451   9.499   3.269 -3.3230 -2.9382  3.6047
  669MOL0     H88261   5.176   9.625   3.277 -3.0554 -0.2250  0.8496
  669MOL0     H88262   4.954   9.554   3.375  1.1550 -0.9303 -0.3572
  669MOL0     H88263   4.982   9.664   3.519  2.6199  0.6088 -0.6203
  669MOL0     H88264   4.984   9.435   3.652  1.4542  1.4006 -1.1659
  669MOL0     H88265   4.941   9.347   3.508  0.1306 -0.8630  1.8131
  669MOL0     H88266   4.723   9.461   3.499  0.4363 -2.1675 -0.9342
  669MOL0     H88267   4.764   9.377   3.647  1.0682  0.3059 -0.5828
  669MOL0     H88268   4.750   9.667   3.578 -1.1239 -0.8832  0.2065
  669MOL0     H88269   4.849   9.612   3.710 -1.1166 -0.1282  3.8511
  669MOL0     H88270   4.504   9.608   3.522  1.5479 -0.8301  0.4187
  669MOL0     H88271   4.281   9.513   3.487  0.6971 -2.3915  0.0151
  669MOL0     H88272   3.979   9.281   3.307 -1.3288  2.5652 -0.0254
  669MOL0     H88273   3.758   9.214   3.266 -0.3618 -0.8895  1.1142
  669MOL0     H88274   3.525   9.139   3.289 -1.8191 -1.0548  0.9522
  669MOL0     H88275   3.520   9.318   3.249 -3.7185  1.7221  0.0032
  669MOL0     H88276   3.316   9.353   3.344  2.0664  0.4140 -0.9089
  669MOL0     H88277   3.313   9.192   3.418 -0.6907  1.8785  0.3274
  669MOL0     H88278   3.324   9.098   3.173 -0.8062 -0.1961  0.9692
  669MOL0     H88279   3.288   9.266   3.117 -2.9747  1.0043  0.8745
  669MOL0     H88280   3.103   9.143   3.102  2.1235 -2.0517 -0.2583
  669MOL0     H88281   3.097   9.092   3.263 -0.6708 -0.8971 -1.2226
  669MOL0     H88282   3.075   9.392   3.185  2.1418 -2.4136 -0.8612
  669MOL0     H88283   3.081   9.324   3.353  1.6076  0.3286  0.2384
  669MOL0     H88284   2.865   9.193   3.297 -1.3151  1.3350  1.5002
  669MOL0     H88285   2.878   9.248   3.126 -0.4030  2.0005  0.0623
  669MOL0     H88286   2.803   9.416   3.365  1.2909 -0.1844 -0.0657
  669MOL0     H88287   2.854   9.495   3.217 -0.6683 -0.0281 -0.5954
  669MOL0     H88288   2.689   9.333   3.096  0.8214  1.9845 -1.3477
  669MOL0     H88289   2.623   9.472   3.178 -0.6904 -0.8507 -0.5374
  669MOL0     H88290   3.651   9.366   3.661  1.9382 -0.8543  0.9866
  669MOL0     H88291   3.866   9.432   3.694  0.4934 -1.6561  0.8443
  669MOL0     H88292   4.280   9.378   3.894 -1.3438  1.5709 -1.2321
  669MOL0     H88293   4.499   9.482   3.937  2.8883  1.0110 -0.3014
  669MOL0     H88294   6.291  10.140   2.993  0.2433  0.2331  1.6927
  669MOL0     H88295   6.523  10.029   3.031 -0.0809 -2.6578  2.7443
  669MOL0     H88296   6.749   9.546   2.733 -0.0121  1.3172 -0.8005
  669MOL0     H88297   6.973   9.463   2.751  1.2941 -0.2777  0.5626
  669MOL0     H88298   7.266   9.393   2.848  0.8070  1.4981 -1.3921
  669MOL0     H88299   7.129   9.372   2.966  0.4497 -0.5395 -1.9618
  669MOL0     H88300   7.231   9.441   3.143 -1.8810  2.0036 -1.0565
  669MOL0     H88301   7.360   9.347   3.062  0.0984  0.2755  1.4453
  669MOL0     H88302   7.340   9.652   3.053 -1.5988  0.2461 -1.0738
  669MOL0     H88303   7.465   9.549   2.970  0.0641 -0.9946  0.3859
  669MOL0     H88304   7.519   9.659   3.211  1.2223 -0.6486  2.6975
  669MOL0     H88305   7.407   9.528   3.268 -1.6669  1.3493 -1.2068
  669MOL0     H88306   7.773   9.327   3.175  1.7511  1.4588 -0.8440
  669MOL0     H88307   7.076   9.763   3.028 -0.0430  0.7716 -1.8913
  669MOL0     H88308   6.829   9.818   3.063  0.0129 -1.6474  0.9986
  670MOL0     O88309   6.613   8.809   4.276 -0.1093 -0.3683  0.3212
  670MOL0     C88310   6.673   8.717   4.331  0.3356 -0.1730 -0.2405
  670MOL0     O88311   6.626   8.639   4.433 -0.7941  0.2249 -0.2810
  670MOL0     C88312   6.506   8.665   4.495 -0.8905  0.1425  0.6253
  670MOL0     C88313   6.436   8.786   4.499  0.2323  0.1922  0.7595
  670MOL0     C88314   6.308   8.794   4.559 -0.7302  0.1702 -0.1467
  670MOL0     C88315   6.256   8.678   4.617  0.4898  0.9567  0.2292
  670MOL0     O88316   6.130   8.679   4.664 -0.0542 -0.0670 -0.0190
  670MOL0     C88317   6.097   8.601   4.787  0.4405 -0.8252 -0.0288
  670MOL0     C88318   6.112   8.696   4.910  0.0650  0.6070  0.4165
  670MOL0     C88319   6.084   8.635   5.048  0.1705 -1.2083  0.3331
  670MOL0     C88320   5.934   8.589   5.066  0.2908 -0.5797 -1.2986
  670MOL0     C88321   5.894   8.533   5.202  0.2041  0.4947  0.0444
  670MOL0     C88322   5.736   8.499   5.188 -0.2441  0.3103  0.5270
  670MOL0     C88323   5.686   8.416   5.303 -0.3735 -0.1231 -0.0441
  670MOL0     C88324   5.543   8.364   5.280 -0.3851 -0.3731 -1.2048
  670MOL0     N88325   5.503   8.274   5.386 -0.1434  0.5647  0.6698
  670MOL0     C88326   5.422   8.303   5.489  0.5349  1.0199  0.2059
  670MOL0     C88327   5.414   8.187   5.559  0.7644  0.2278 -0.4295
  670MOL0     C88328   5.330   8.171   5.682 -0.5338 -0.5613  0.0432
  670MOL0     C88329   5.222   8.069   5.677  0.4214 -0.5587  0.3844
  670MOL0     C88330   5.108   8.102   5.587  1.0980  0.6159  0.2209
  670MOL0     C88331   5.015   7.983   5.569  0.4128  0.4547 -0.0986
  670MOL0     O88332   4.944   7.959   5.693  0.2146 -0.4957 -0.3065
  670MOL0     C88333   4.813   7.915   5.678  0.1365  0.0836 -0.5539
  670MOL0     C88334   4.731   7.944   5.789  0.0344  0.2899  0.3833
  670MOL0     C88335   4.596   7.910   5.795 -0.4107  0.1825 -0.2349
  670MOL0     C88336   4.537   7.853   5.680 -0.5094 -0.0360 -0.2332
  670MOL0     C88337   4.396   7.821   5.682  0.2875  1.0206  0.2900
  670MOL0     O88338   4.340   7.796   5.804 -0.0075 -0.1984  0.2388
  670MOL0     C88339   4.212   7.748   5.807  0.5883  0.3276 -0.5719
  670MOL0     C88340   4.093   7.813   5.760 -0.1874 -0.2539  0.2177
  670MOL0     C88341   3.968   7.751   5.763 -0.3122  0.3089 -0.2006
  670MOL0     C88342   3.958   7.623   5.804 -0.5041 -0.0242  0.1333
  670MOL0     O88343   3.844   7.554   5.807  0.7297  0.3781  0.0441
  670MOL0     C88344   3.742   7.611   5.895  0.1773  0.1394 -1.4841
  670MOL0     C88345   3.612   7.519   5.924  0.7507 -0.1030 -0.6532
  670MOL0     C88346   3.642   7.381   5.983  0.3491  1.1190 -0.1641
  670MOL0     C88347   3.532   7.266   5.978 -0.2680 -0.7370  0.2394
  670MOL0     C88348   3.400   7.319   6.020  0.8549 -0.4914 -0.0459
  670MOL0     C88349   3.301   7.212   5.996  0.7643 -0.0184 -1.1101
  670MOL0     C88350   3.172   7.239   6.081  0.4122 -0.1748  0.1583
  670MOL0     C88351   3.094   7.116   6.093 -0.1060 -0.2921 -0.4837
  670MOL0    Cl88352   2.966   7.158   6.209 -0.1009  0.2442 -0.1633
  670MOL0     C88353   4.072   7.549   5.851  0.0171  0.4395  0.2740
  670MOL0     C88354   4.200   7.615   5.843  0.5680  0.1776 -0.6035
  670MOL0     O88355   4.343   7.809   5.571  0.6453 -0.6172 -0.2507
  670MOL0     C88356   4.614   7.833   5.563  0.5595  0.7864 -0.3092
  670MOL0     C88357   4.750   7.854   5.572  0.1922 -0.2289  0.4797
  670MOL0     N88358   5.496   8.097   5.498 -0.4089 -0.0727 -0.5960
  670MOL0     N88359   5.549   8.143   5.392 -0.4889 -0.3728 -0.7448
  670MOL0     C88360   6.328   8.557   4.624 -0.5245 -0.5720  0.6992
  670MOL0     C88361   6.451   8.558   4.566  0.4802 -0.8315  0.0215
  670MOL0     C88362   6.809   8.683   4.283 -0.0501 -0.8679  0.2439
  670MOL0     C88363   6.879   8.760   4.197  0.1547  1.0208  0.9876
  670MOL0     C88364   7.004   8.716   4.142  0.4751 -0.0983  0.0009
  670MOL0     C88365   7.059   8.599   4.186  0.0392 -0.4265 -0.2561
  670MOL0     O88366   7.181   8.543   4.148 -0.1504 -0.1791 -0.1679
  670MOL0     C88367   7.275   8.629   4.096 -0.4382 -0.3985 -0.2545
  670MOL0     C88368   7.387   8.555   4.033  0.8226  0.2897 -0.0967
  670MOL0     C88369   7.483   8.657   3.964  0.2126 -0.0517  0.7017
  670MOL0     C88370   7.605   8.597   3.905 -0.8949 -0.6101 -0.1517
  670MOL0     C88371   7.709   8.549   3.993  0.3141  1.2026  0.4578
  670MOL0     C88372   7.793   8.525   4.075 -0.0023  0.4826 -0.3661
  670MOL0     C88373   6.992   8.524   4.281 -0.7852  1.0371 -0.1270
  670MOL0     C88374   6.871   8.567   4.328 -0.2822  0.2348 -0.3223
  670MOL0     H88375   6.467   8.873   4.442 -1.2049 -1.8048 -3.5007
  670MOL0     H88376   6.251   8.886   4.572 -0.8479  0.3285 -1.6332
  670MOL0     H88377   6.156   8.513   4.812  0.5260 -0.2622  2.0177
  670MOL0     H88378   5.993   8.569   4.774  0.1225 -0.2293  0.9083
  670MOL0     H88379   6.048   8.783   4.891 -1.3225 -0.6567 -1.0181
  670MOL0     H88380   6.210   8.744   4.907 -1.0438  2.9541 -1.0541
  670MOL0     H88381   6.103   8.712   5.124 -1.8308 -0.1548 -0.1541
  670MOL0     H88382   6.156   8.555   5.068  1.3533 -0.5588 -1.1215
  670MOL0     H88383   5.877   8.681   5.051  1.5711  0.4009 -0.3869
  670MOL0     H88384   5.909   8.511   4.992 -3.1565 -0.8924 -0.0145
  670MOL0     H88385   5.915   8.605   5.281  0.9419  1.6645 -1.1588
  670MOL0     H88386   5.946   8.443   5.234  0.4739  0.7600  0.3575
  670MOL0     H88387   5.716   8.457   5.089  1.9879 -0.2129  0.2551
  670MOL0     H88388   5.671   8.587   5.196 -1.2397 -0.5865  3.6851
  670MOL0     H88389   5.744   8.323   5.314  0.2510  0.1621 -0.8235
  670MOL0     H88390   5.687   8.463   5.402 -0.9221 -2.4767  1.1710
  670MOL0     H88391   5.538   8.307   5.186  1.3566 -0.7045 -1.1322
  670MOL0     H88392   5.485   8.456   5.268 -1.0774 -0.9768 -2.9374
  670MOL0     H88393   5.366   8.392   5.515  0.6649  0.6807  1.7740
  670MOL0     H88394   5.278   8.266   5.700  0.8716  1.1251 -3.7767
  670MOL0     H88395   5.396   8.141   5.763 -0.3665  3.2711  1.5525
  670MOL0     H88396   5.176   8.057   5.775 -0.4112 -1.8093 -0.1224
  670MOL0     H88397   5.258   7.968   5.654 -0.7942 -0.9643  0.2112
  670MOL0     H88398   5.046   8.188   5.615  0.8280  0.6766 -0.5351
  670MOL0     H88399   5.152   8.130   5.491  4.0305 -2.7171  0.3895
  670MOL0     H88400   5.076   7.895   5.546 -1.5605 -1.3872  1.3715
  670MOL0     H88401   4.954   8.000   5.480  2.9427  2.2138 -1.6336
  670MOL0     H88402   4.781   7.982   5.878  1.4125 -0.0369 -0.2321
  670MOL0     H88403   4.550   7.915   5.893 -0.0072  2.4313 -0.0872
  670MOL0     H88404   4.106   7.916   5.731 -2.7080  0.2366  0.5547
  670MOL0     H88405   3.883   7.808   5.726 -1.7057 -1.2842  0.4275
  670MOL0     H88406   3.713   7.707   5.852  0.9844  1.4622  0.7112
  670MOL0     H88407   3.783   7.630   5.995 -1.8786 -1.0747 -0.3313
  670MOL0     H88408   3.547   7.510   5.836 -3.2206 -0.8535  2.0737
  670MOL0     H88409   3.554   7.576   5.998  1.1672  1.1479 -1.2521
  670MOL0     H88410   3.666   7.389   6.089 -1.9304  0.1963  0.4926
  670MOL0     H88411   3.734   7.345   5.936 -0.7970  0.6953 -2.1959
  670MOL0     H88412   3.516   7.235   5.874  0.7933  1.3381 -0.6129
  670MOL0     H88413   3.559   7.180   6.040  2.1533 -2.9456 -3.4772
  670MOL0     H88414   3.365   7.413   5.977  1.1506 -0.2172  0.3062
  670MOL0     H88415   3.410   7.338   6.127  1.2193 -0.0704 -0.1531
  670MOL0     H88416   3.326   7.109   6.023 -1.1109 -0.9078 -2.5121
  670MOL0     H88417   3.284   7.203   5.888  2.8183 -4.6988 -1.2962
  670MOL0     H88418   3.183   7.289   6.177 -2.3680 -0.5774  0.7494
  670MOL0     H88419   3.113   7.304   6.017  1.6614  1.6140  0.7433
  670MOL0     H88420   3.162   7.039   6.130  0.7399  0.6398 -0.0610
  670MOL0     H88421   3.051   7.080   5.999  0.3436  0.5176 -1.0107
  670MOL0     H88422   4.059   7.450   5.894  0.9988  0.7828  1.4216
  670MOL0     H88423   4.285   7.557   5.876  1.9266  0.4036 -3.4390
  670MOL0     H88424   4.561   7.804   5.473 -3.0993 -0.1261  1.9093
  670MOL0     H88425   4.808   7.844   5.480 -0.5869  1.1194 -0.1821
  670MOL0     H88426   6.289   8.464   4.663 -1.1066  0.5055  2.8486
  670MOL0     H88427   6.502   8.462   4.567 -0.2744 -1.2660  2.2951
  670MOL0     H88428   6.832   8.848   4.154  0.2005 -0.5716 -2.6333
  670MOL0     H88429   7.043   8.778   4.062  0.6807 -0.1981  0.0229
  670MOL0     H88430   7.305   8.688   4.183 -3.8043  1.0051  0.1154
  670MOL0     H88431   7.231   8.699   4.024  0.1794  3.6189  2.9568
  670MOL0     H88432   7.443   8.501   4.111  2.3421 -1.3539 -2.1926
  670MOL0     H88433   7.354   8.482   3.959 -0.6803  0.1045  0.7173
  670MOL0     H88434   7.511   8.723   4.047 -1.2977  2.9931 -1.0105
  670MOL0     H88435   7.431   8.716   3.888  0.6778  1.1883  1.3087
  670MOL0     H88436   7.574   8.517   3.837  0.5769 -3.4529  2.2825
  670MOL0     H88437   7.640   8.680   3.843 -1.5439  0.3119  0.6790
  670MOL0     H88438   7.862   8.488   4.148 -0.6610 -1.9987 -0.9314
  670MOL0     H88439   7.028   8.428   4.316 -2.4155  0.2504 -0.4971
  670MOL0     H88440   6.826   8.494   4.396  1.1775 -0.0669  0.3626
  671MOL0     O88441   5.390   1.974   7.372  0.1940  0.3782  0.1215
  671MOL0     C88442   5.383   1.849   7.381 -0.1953 -0.7506  0.1563
  671MOL0     O88443   5.265   1.782   7.423  0.3178  0.4595  0.0461
  671MOL0     C88444   5.135   1.826   7.413 -0.4250  0.7458 -0.1244
  671MOL0     C88445   5.098   1.953   7.355  0.7816 -1.0005 -0.0244
  671MOL0     C88446   4.969   1.990   7.340  0.5060 -0.7753 -0.0834
  671MOL0     C88447   4.858   1.909   7.385 -0.1012  0.1559 -0.0501
  671MOL0     O88448   4.740   1.941   7.328 -0.8568  0.3435 -0.3761
  671MOL0     C88449   4.624   1.878   7.386 -1.0405  0.8826 -0.1375
  671MOL0     C88450   4.511   1.960   7.328  0.5836  1.3235 -0.6918
  671MOL0     C88451   4.368   1.905   7.361  0.4194 -0.1623  0.8585
  671MOL0     C88452   4.255   1.970   7.270 -0.0487 -0.6750 -0.5115
  671MOL0     C88453   4.109   1.955   7.313 -0.3666  0.7439 -0.4868
  671MOL0     C88454   4.087   1.822   7.376  0.3594 -0.2686  0.0312
  671MOL0     C88455   3.944   1.781   7.373  0.2117 -0.5152 -0.4408
  671MOL0     C88456   3.887   1.745   7.232  0.2890  0.6662 -0.5103
  671MOL0     N88457   3.779   1.634   7.237 -0.4580 -0.0050 -0.1334
  671MOL0     C88458   3.672   1.632   7.317 -0.0649 -0.2141 -0.0155
  671MOL0     C88459   3.614   1.511   7.291  0.3198  0.2035 -0.7733
  671MOL0     C88460   3.478   1.473   7.347 -0.3406 -0.1493  0.4251
  671MOL0     C88461   3.372   1.475   7.242 -0.2934 -0.6109  0.1297
  671MOL0     C88462   3.393   1.366   7.136  0.8533 -0.3938  0.7940
  671MOL0     C88463   3.409   1.223   7.179 -0.1501  0.3764 -0.3089
  671MOL0     O88464   3.309   1.182   7.274  0.2727  0.4601  0.6137
  671MOL0     C88465   3.184   1.131   7.234 -0.6635 -0.0225  0.2971
  671MOL0     C88466   3.085   1.106   7.336 -0.8284 -0.1753 -0.1793
  671MOL0     C88467   2.964   1.051   7.302  0.8153 -0.2118 -0.7020
  671MOL0     C88468   2.929   1.043   7.171  0.1980 -0.2109  0.0318
  671MOL0     C88469   2.795   0.982   7.123  0.4759 -0.2679 -0.6605
  671MOL0     O88470   2.701   0.967   7.217 -0.1823 -0.2749  0.9935
  671MOL0     C88471   2.593   0.896   7.185  1.0762  0.0679  0.2091
  671MOL0     C88472   2.589   0.753   7.194  0.2189  0.6890 -1.1561
  671MOL0     C88473   2.459   0.691   7.186 -0.7037 -0.1692  0.2125
  671MOL0     C88474   2.344   0.759   7.168  0.4386 -0.6068  0.3182
  671MOL0     O88475   2.225   0.687   7.165  0.3499  0.3698  0.1603
  671MOL0     C88476   2.096   0.750   7.200 -0.4852 -0.0082 -0.0168
  671MOL0     C88477   1.983   0.645   7.193 -0.3040  0.6702 -0.5131
  671MOL0     C88478   1.853   0.681   7.261  0.1797 -0.5242 -0.1507
  671MOL0     C88479   1.745   0.583   7.240  0.3074  0.4213  0.3982
  671MOL0     C88480   1.614   0.640   7.310 -0.0478 -0.3500 -0.0397
  671MOL0     C88481   1.512   0.532   7.324 -0.2959  0.5481 -0.3372
  671MOL0     C88482   1.381   0.596   7.360 -0.3448 -0.3579  0.0638
  671MOL0     C88483   1.275   0.490   7.382 -0.3337  0.5380 -0.2889
  671MOL0    Cl88484   1.172   0.479   7.231 -0.0876 -0.7279 -0.2676
  671MOL0     C88485   2.355   0.902   7.148  0.1105 -0.0674  0.2231
  671MOL0     C88486   2.478   0.967   7.163  0.8757 -0.3895 -0.2235
  671MOL0     O88487   2.785   0.947   7.005 -0.1460 -0.7099  0.1214
  671MOL0     C88488   3.017   1.078   7.072 -0.3417 -0.6884 -0.2426
  671MOL0     C88489   3.143   1.127   7.097 -0.9566 -0.0980  0.2684
  671MOL0     N88490   3.689   1.432   7.208  0.5804 -0.8675  0.4715
  671MOL0     N88491   3.796   1.513   7.183 -0.1992  0.6565  0.2594
  671MOL0     C88492   4.899   1.784   7.466 -0.1458 -0.3019  0.0530
  671MOL0     C88493   5.036   1.745   7.475 -0.7480  0.0144  0.2355
  671MOL0     C88494   5.506   1.766   7.369 -0.3635  0.7184 -0.8749
  671MOL0     C88495   5.627   1.804   7.295  0.5858 -0.2551 -0.0494
  671MOL0     C88496   5.721   1.702   7.270  0.1663  0.5556  0.6322
  671MOL0     C88497   5.706   1.568   7.308 -0.1260 -0.4687  0.3411
  671MOL0     O88498   5.807   1.478   7.291  0.4883 -0.8337  0.7052
  671MOL0     C88499   5.783   1.340   7.312 -0.1765 -0.1524 -0.2690
  671MOL0     C88500   5.896   1.277   7.232  0.4522 -1.1163  0.0402
  671MOL0     C88501   6.015   1.224   7.329 -1.0375  0.0769  0.3299
  671MOL0     C88502   6.116   1.148   7.244 -0.6584  0.3339  0.9013
  671MOL0     C88503   6.085   1.007   7.232 -0.6743  0.0982  1.2365
  671MOL0     C88504   6.049   0.897   7.206 -0.5368  0.5393  1.1173
  671MOL0     C88505   5.592   1.537   7.374  0.3850  0.0233 -0.6919
  671MOL0     C88506   5.495   1.630   7.408 -0.0688 -0.0395  0.1120
  671MOL0     H88507   5.161   2.032   7.315 -0.7092  0.7875  0.9668
  671MOL0     H88508   4.942   2.079   7.284 -2.0572 -1.8575 -0.7247
  671MOL0     H88509   4.636   1.885   7.495  2.4676 -4.0616  0.1328
  671MOL0     H88510   4.612   1.774   7.357 -3.1980  1.5110 -1.7415
  671MOL0     H88511   4.515   1.963   7.219  1.3321  1.1293 -0.6762
  671MOL0     H88512   4.527   2.061   7.366  0.6532  0.3656  2.0398
  671MOL0     H88513   4.349   1.937   7.464 -1.7165 -0.0186  0.4752
  671MOL0     H88514   4.369   1.796   7.347 -1.0219  0.0001 -0.7859
  671MOL0     H88515   4.281   2.073   7.244 -1.6737  0.0043  0.3752
  671MOL0     H88516   4.248   1.922   7.172 -0.5131  0.3108 -0.9689
  671MOL0     H88517   4.048   1.972   7.223 -0.4136 -0.5212 -0.7095
  671MOL0     H88518   4.094   2.034   7.387 -1.1756  0.3540 -0.2188
  671MOL0     H88519   4.133   1.816   7.475  2.7645  0.2060 -1.0028
  671MOL0     H88520   4.152   1.755   7.319  1.9513  1.1716  0.0785
  671MOL0     H88521   3.943   1.690   7.435 -0.3683 -1.6363 -2.0193
  671MOL0     H88522   3.885   1.857   7.425  2.9205  1.2829  0.1695
  671MOL0     H88523   3.963   1.733   7.154  1.4582  0.0553  0.6783
  671MOL0     H88524   3.843   1.837   7.194 -0.6149 -0.5031 -2.4709
  671MOL0     H88525   3.636   1.715   7.376  2.8127  1.3109 -0.2397
  671MOL0     H88526   3.450   1.533   7.434  0.4824  1.6319 -0.4817
  671MOL0     H88527   3.485   1.371   7.387  1.7314 -0.3476 -0.3691
  671MOL0     H88528   3.384   1.572   7.192 -2.2533 -0.6509 -0.4969
  671MOL0     H88529   3.274   1.469   7.289  0.3610 -0.9846  1.5080
  671MOL0     H88530   3.306   1.366   7.071  1.1830  1.2953  0.3093
  671MOL0     H88531   3.472   1.397   7.067 -1.4183  1.5234 -1.1102
  671MOL0     H88532   3.502   1.201   7.231 -2.5803 -1.7866  3.6341
  671MOL0     H88533   3.398   1.165   7.087 -2.2874  1.4999 -0.8345
  671MOL0     H88534   3.114   1.116   7.440  0.5391 -0.9289 -0.4628
  671MOL0     H88535   2.895   1.018   7.379  3.8808 -0.9503  1.9504
  671MOL0     H88536   2.681   0.698   7.213 -0.5910 -0.8967 -1.6723
  671MOL0     H88537   2.453   0.584   7.200  1.1807 -0.6999 -2.3008
  671MOL0     H88538   2.076   0.836   7.134 -1.7539 -1.5860 -1.7887
  671MOL0     H88539   2.102   0.791   7.301 -1.8895 -0.4809  0.2813
  671MOL0     H88540   2.022   0.551   7.235 -0.2107  0.7676 -0.3789
  671MOL0     H88541   1.959   0.638   7.087 -1.1871  0.2748 -0.2952
  671MOL0     H88542   1.825   0.781   7.227  1.0248  0.0433  0.7609
  671MOL0     H88543   1.866   0.688   7.369 -3.1369 -4.0314  0.6786
  671MOL0     H88544   1.718   0.569   7.135  2.4448 -0.4584 -0.0713
  671MOL0     H88545   1.762   0.481   7.274 -3.5773 -0.4492  0.2124
  671MOL0     H88546   1.568   0.711   7.241 -0.2956 -0.6647 -0.2005
  671MOL0     H88547   1.633   0.677   7.412  1.5770  0.4884 -0.6155
  671MOL0     H88548   1.539   0.460   7.402 -0.2648  0.4902 -0.4017
  671MOL0     H88549   1.499   0.472   7.233 -0.4872 -1.7415  1.1220
  671MOL0     H88550   1.400   0.665   7.442  0.3931 -0.4116 -0.0539
  671MOL0     H88551   1.353   0.642   7.265  1.2567 -2.0962 -1.3538
  671MOL0     H88552   1.221   0.500   7.477 -0.9073  1.9804 -0.7422
  671MOL0     H88553   1.317   0.391   7.402 -2.4439 -0.7307 -1.7235
  671MOL0     H88554   2.266   0.959   7.123  1.1774  3.0694  2.8210
  671MOL0     H88555   2.481   1.074   7.143 -2.1186  0.4562  2.8154
  671MOL0     H88556   3.003   1.059   6.966  0.2495 -1.4772 -0.1824
  671MOL0     H88557   3.198   1.153   7.008 -1.7692  2.4727  0.4617
  671MOL0     H88558   4.827   1.708   7.493 -1.3567  0.9081  0.2987
  671MOL0     H88559   5.061   1.653   7.528  2.9166 -0.0732 -1.3458
  671MOL0     H88560   5.638   1.909   7.273 -1.9802  0.1060  0.0336
  671MOL0     H88561   5.804   1.733   7.207  0.4600 -0.2626  0.6068
  671MOL0     H88562   5.684   1.301   7.285 -1.2327  0.2724  2.6417
  671MOL0     H88563   5.791   1.309   7.416  0.7489 -1.3263 -0.6606
  671MOL0     H88564   5.856   1.187   7.186  0.5645 -0.9771 -0.3298
  671MOL0     H88565   5.934   1.334   7.147  0.3186  1.1371  1.4026
  671MOL0     H88566   5.982   1.165   7.415 -1.8781  2.6639  1.9165
  671MOL0     H88567   6.068   1.314   7.362 -1.7973 -0.6008  3.8031
  671MOL0     H88568   6.112   1.192   7.144 -2.8477  0.1482  0.8422
  671MOL0     H88569   6.216   1.150   7.286 -0.5710 -1.2914  0.8339
  671MOL0     H88570   6.020   0.798   7.177 -0.1668  0.2321  1.7806
  671MOL0     H88571   5.581   1.435   7.410 -0.9182 -0.3056 -1.9175
  671MOL0     H88572   5.409   1.603   7.468  0.7287 -0.0882  1.2587
  672MOL0     O88573   8.932   7.130  11.190 -0.3666 -0.0097 -0.4313
  672MOL0     C88574   8.995   7.027  11.215 -0.1478 -0.1438 -0.2750
  672MOL0     O88575   8.945   6.909  11.269 -0.3248 -0.8066 -0.6424
  672MOL0     C88576   8.818   6.908  11.319  0.8004 -0.5986  0.4457
  672MOL0     C88577   8.699   6.958  11.258 -0.1308 -0.9125 -0.1769
  672MOL0     C88578   8.570   6.946  11.316  0.2548 -0.0288  0.1126
  672MOL0     C88579   8.550   6.870  11.429 -0.4654  0.7981  0.1742
  672MOL0     O88580   8.424   6.838  11.486  0.2008  0.1433  0.6055
  672MOL0     C88581   8.298   6.912  11.463  0.3827  0.4669 -0.4526
  672MOL0     C88582   8.228   6.861  11.333  0.1788 -0.3658 -1.0349
  672MOL0     C88583   8.089   6.917  11.312  0.4047 -0.3434  0.2370
  672MOL0     C88584   7.979   6.852  11.397  0.2254  0.2315  0.2667
  672MOL0     C88585   7.847   6.864  11.339 -1.1857 -0.3797 -0.3689
  672MOL0     C88586   7.737   6.800  11.428  0.4436 -0.3727 -0.9364
  672MOL0     C88587   7.596   6.830  11.385 -1.2795  0.4818  0.0438
  672MOL0     C88588   7.488   6.777  11.474  0.1597 -0.2648 -0.7093
  672MOL0     N88589   7.360   6.813  11.423  0.3932 -0.0582 -0.1879
  672MOL0     C88590   7.273   6.917  11.450 -0.5034 -1.6059  0.5831
  672MOL0     C88591   7.165   6.895  11.369  0.4816  1.0497 -0.2232
  672MOL0     C88592   7.053   6.994  11.337 -0.9579  0.5462 -0.5814
  672MOL0     C88593   6.920   6.932  11.381  0.1193  0.1863  0.7322
  672MOL0     C88594   6.806   7.034  11.345 -0.9306  0.3821  0.4461
  672MOL0     C88595   6.690   7.000  11.434  0.4410  0.0890  0.1974
  672MOL0     O88596   6.602   7.099  11.402  0.7833  0.1167 -0.1510
  672MOL0     C88597   6.471   7.103  11.466 -0.7368  0.6477 -0.1602
  672MOL0     C88598   6.390   7.218  11.452 -0.1772 -0.2052  1.2056
  672MOL0     C88599   6.259   7.223  11.506 -0.6016  0.4867  0.4520
  672MOL0     C88600   6.210   7.114  11.577  0.1894  0.2673  1.0585
  672MOL0     C88601   6.070   7.128  11.632 -0.9042 -0.1047  0.0295
  672MOL0     O88602   6.031   7.013  11.702  0.5282 -0.3054  0.0919
  672MOL0     C88603   5.923   7.017  11.779  0.3795  0.3676  1.0991
  672MOL0     C88604   5.829   6.913  11.775  0.1482  0.0513  0.1135
  672MOL0     C88605   5.718   6.908  11.850 -0.7083 -0.1134 -0.0275
  672MOL0     C88606   5.703   6.996  11.951 -0.0330 -0.5979 -0.0547
  672MOL0     O88607   5.597   6.974  12.040  0.3354  0.0444  0.0425
  672MOL0     C88608   5.585   7.060  12.152 -0.8425 -0.4759  0.3011
  672MOL0     C88609   5.498   6.988  12.258 -0.6018 -0.5311 -0.4541
  672MOL0     C88610   5.345   7.006  12.226  0.0671  0.1492 -0.6270
  672MOL0     C88611   5.251   6.949  12.342 -0.6820 -0.2764 -0.9000
  672MOL0     C88612   5.105   6.951  12.293  0.2247 -0.0747  0.0140
  672MOL0     C88613   5.009   6.901  12.399 -0.1589 -1.2040  0.4986
  672MOL0     C88614   4.864   6.935  12.360 -0.9357  0.0649 -0.0383
  672MOL0     C88615   4.774   6.859  12.461  0.2505  0.3945  0.5557
  672MOL0    Cl88616   4.778   6.946  12.611 -0.3985 -0.3166  0.4089
  672MOL0     C88617   5.783   7.108  11.956 -0.4058  0.7341 -0.3518
  672MOL0     C88618   5.899   7.116  11.868 -0.7482 -0.1210 -0.8711
  672MOL0     O88619   6.008   7.236  11.616 -0.1562 -0.0236 -0.4226
  672MOL0     C88620   6.290   7.000  11.597 -0.2819 -0.7746 -0.1662
  672MOL0     C88621   6.419   6.993  11.540 -0.0393  0.3236 -0.2496
  672MOL0     N88622   7.188   6.780  11.294 -0.0556 -0.0280  1.2300
  672MOL0     N88623   7.301   6.730  11.332 -0.3088  0.5560  0.0773
  672MOL0     C88624   8.663   6.810  11.485  0.3671 -0.1572 -1.4331
  672MOL0     C88625   8.794   6.829  11.434  0.4697 -0.0724  0.3284
  672MOL0     C88626   9.137   7.030  11.176 -0.2024  0.0384 -0.4250
  672MOL0     C88627   9.194   7.131  11.098  0.1157 -0.2488  0.0137
  672MOL0     C88628   9.329   7.133  11.074 -0.0775 -0.0237  0.1565
  672MOL0     C88629   9.413   7.050  11.140  0.4469  0.9329  0.1937
  672MOL0     O88630   9.548   7.043  11.136 -0.1284 -0.2914 -0.4415
  672MOL0     C88631   9.615   7.140  11.057  0.0371 -0.7769  0.0758
  672MOL0     C88632   9.627   7.096  10.913 -0.1812  0.6394 -0.2450
  672MOL0     C88633   9.727   6.975  10.918  0.9666 -0.2269  0.9104
  672MOL0     C88634   9.737   6.905  10.779  0.2885  0.0447  0.2231
  672MOL0     C88635   9.833   6.798  10.794 -0.5876  0.3516 -0.2826
  672MOL0     C88636   9.910   6.705  10.823  1.8147  0.6028  0.8185
  672MOL0     C88637   9.363   6.951  11.227 -0.0025 -0.1953 -0.0975
  672MOL0     C88638   9.222   6.937  11.240 -0.3695 -0.7735 -0.4816
  672MOL0     H88639   8.716   7.016  11.167 -1.2586 -2.2624 -1.2908
  672MOL0     H88640   8.492   6.993  11.257  1.5698  1.5415 -0.4562
  672MOL0     H88641   8.317   7.019  11.444 -0.0371 -0.0776 -4.8953
  672MOL0     H88642   8.231   6.900  11.548 -0.7681  0.6189 -1.3212
  672MOL0     H88643   8.231   6.752  11.322  0.6574 -0.3671 -0.8995
  672MOL0     H88644   8.288   6.901  11.251 -2.9576  2.9892 -1.9558
  672MOL0     H88645   8.071   6.898  11.206 -0.9186  0.1197  0.3608
  672MOL0     H88646   8.075   7.025  11.325  2.0379  0.1304 -1.4267
  672MOL0     H88647   8.009   6.747  11.410 -0.8343 -0.1589 -0.2839
  672MOL0     H88648   7.981   6.902  11.494 -2.3458  1.3554 -0.1743
  672MOL0     H88649   7.843   6.806  11.247  0.1752  0.8287 -1.2341
  672MOL0     H88650   7.840   6.971  11.318  1.9285  0.0534  0.2128
  672MOL0     H88651   7.745   6.832  11.532  2.3003 -0.6351 -0.9671
  672MOL0     H88652   7.742   6.691  11.426  1.8063 -0.3482  0.0637
  672MOL0     H88653   7.587   6.939  11.380 -1.1742  0.5121  0.5186
  672MOL0     H88654   7.575   6.785  11.287  0.3291 -0.5477  0.1353
  672MOL0     H88655   7.502   6.794  11.581 -1.6666  0.2612 -0.5256
  672MOL0     H88656   7.479   6.669  11.465  1.5658 -0.4480 -0.2180
  672MOL0     H88657   7.295   7.003  11.513  2.6538 -1.6880 -0.2084
  672MOL0     H88658   7.059   7.006  11.229  1.4814 -1.4629 -0.7614
  672MOL0     H88659   7.075   7.089  11.388  1.9660 -0.7637  0.8394
  672MOL0     H88660   6.924   6.896  11.484 -1.3277 -1.9729  0.0978
  672MOL0     H88661   6.900   6.846  11.317 -1.4202  0.4216  0.8560
  672MOL0     H88662   6.830   7.139  11.367 -1.1791  0.4392  0.4444
  672MOL0     H88663   6.768   7.037  11.242  0.0869  4.2237  0.0057
  672MOL0     H88664   6.723   7.007  11.538  1.7134 -3.3804  0.1366
  672MOL0     H88665   6.656   6.898  11.417  0.8956 -0.6292  3.1046
  672MOL0     H88666   6.435   7.306  11.407 -2.0433  1.0754  1.7075
  672MOL0     H88667   6.189   7.304  11.487  0.6679  1.1884 -1.4075
  672MOL0     H88668   5.842   6.838  11.698 -1.5750 -0.1351 -0.0348
  672MOL0     H88669   5.650   6.824  11.838 -1.5843  0.7523 -1.4580
  672MOL0     H88670   5.540   7.158  12.135 -0.4924  0.0055  1.9122
  672MOL0     H88671   5.679   7.078  12.205 -1.1931 -1.5932  1.3597
  672MOL0     H88672   5.517   7.038  12.353 -0.0283 -1.1778 -0.2104
  672MOL0     H88673   5.532   6.884  12.257 -1.7078 -1.0557  3.3964
  672MOL0     H88674   5.320   6.966  12.128  0.8965 -1.8920 -0.0446
  672MOL0     H88675   5.328   7.114  12.224  0.8731  0.2793 -1.2190
  672MOL0     H88676   5.283   6.848  12.366 -0.7972 -0.1358 -0.1372
  672MOL0     H88677   5.262   7.002  12.437  3.4147  1.4139 -2.0959
  672MOL0     H88678   5.087   6.891  12.203  0.1271 -2.1067  1.3206
  672MOL0     H88679   5.078   7.054  12.271  0.0203 -0.1187  0.0569
  672MOL0     H88680   5.032   6.953  12.492 -0.8510  0.3092 -0.1373
  672MOL0     H88681   5.019   6.794  12.417  0.0727 -1.2718 -0.0226
  672MOL0     H88682   4.846   7.043  12.365 -1.5834 -0.0843  1.5388
  672MOL0     H88683   4.852   6.901  12.257  0.5671 -1.7004  0.3113
  672MOL0     H88684   4.787   6.750  12.470 -0.1252  0.2322 -0.5765
  672MOL0     H88685   4.673   6.871  12.421 -0.7740 -1.5696  2.3572
  672MOL0     H88686   5.781   7.185  12.031  3.4746  0.7955 -0.1117
  672MOL0     H88687   5.968   7.199  11.876 -2.0556  0.8740  0.6182
  672MOL0     H88688   6.252   6.921  11.661 -0.6827  0.7573  1.5723
  672MOL0     H88689   6.464   6.894  11.549  2.6630  1.5339  0.4761
  672MOL0     H88690   8.655   6.754  11.578 -1.5095  0.3644 -1.2419
  672MOL0     H88691   8.884   6.787  11.477 -0.3295 -0.4080  1.7189
  672MOL0     H88692   9.134   7.215  11.063  1.4040  1.0271  0.7490
  672MOL0     H88693   9.360   7.197  10.992  0.4472 -2.5095 -1.6991
  672MOL0     H88694   9.712   7.157  11.106 -2.2378  0.5838  4.6606
  672MOL0     H88695   9.556   7.232  11.060  0.4978 -0.4489  3.7602
  672MOL0     H88696   9.531   7.070  10.867 -0.2770 -0.1234  0.3659
  672MOL0     H88697   9.681   7.178  10.865 -1.7842  0.2599 -2.8714
  672MOL0     H88698   9.692   6.904  10.994 -2.6213  0.6387  0.2660
  672MOL0     H88699   9.825   7.017  10.942  1.3331 -1.0976  0.9544
  672MOL0     H88700   9.643   6.855  10.754  0.6477 -1.1285  1.1065
  672MOL0     H88701   9.763   6.974  10.699  0.4969 -3.5937 -3.1269
  672MOL0     H88702   9.978   6.624  10.841 -0.4695 -1.2189  1.7680
  672MOL0     H88703   9.423   6.879  11.282 -1.8625 -0.9388  1.0652
  672MOL0     H88704   9.178   6.855  11.295  1.1874 -2.0330 -1.0613
  673MOL0     O88705   8.846  10.970   2.610 -0.0416 -0.8674  0.1312
  673MOL0     C88706   8.761  10.890   2.568 -0.9994 -0.4656  0.5700
  673MOL0     O88707   8.780  10.753   2.541 -0.5158 -0.1701  0.2781
  673MOL0     C88708   8.909  10.711   2.568  0.2085 -0.1015  0.1432
  673MOL0     C88709   8.951  10.715   2.702 -1.3344 -0.1279 -0.2224
  673MOL0     C88710   9.090  10.679   2.734  1.2017 -0.4706  0.0102
  673MOL0     C88711   9.169  10.630   2.624  0.1176  0.1811 -0.1051
  673MOL0     O88712   9.296  10.583   2.643 -0.4058  0.3670 -0.2442
  673MOL0     C88713   9.357  10.601   2.771 -0.1784 -0.1036  0.6342
  673MOL0     C88714   9.509  10.566   2.756 -0.2398  0.6706  0.4056
  673MOL0     C88715   9.594  10.596   2.874 -0.1248  0.1541 -0.0186
  673MOL0     C88716   9.607  10.747   2.891 -0.4779 -0.2932  0.2447
  673MOL0     C88717   9.723  10.790   2.988  1.1384 -0.1137  0.3757
  673MOL0     C88718   9.704  10.928   3.055 -0.8657  0.2040  0.1153
  673MOL0     C88719   9.842  10.978   3.111  0.1296 -0.2831  0.2942
  673MOL0     C88720   9.928  11.090   3.027  0.4284  0.6566  0.3773
  673MOL0     N88721   9.851  11.211   2.997  0.2616  0.6442 -0.1735
  673MOL0     C88722   9.832  11.311   3.087 -0.6909 -0.3356  0.8229
  673MOL0     C88723   9.743  11.392   3.025  0.2835 -0.2882 -0.5343
  673MOL0     C88724   9.671  11.510   3.093  0.3688  0.2819  0.6831
  673MOL0     C88725   9.525  11.501   3.083 -0.9165  0.2655  0.6968
  673MOL0     C88726   9.480  11.569   2.951  0.2764 -0.6198  0.4885
  673MOL0     C88727   9.322  11.574   2.938  0.4624 -0.2534  0.7753
  673MOL0     O88728   9.280  11.661   3.049 -0.6937 -0.1538 -0.3477
  673MOL0     C88729   9.157  11.718   3.048 -0.7070  0.4628  0.7876
  673MOL0     C88730   9.060  11.700   2.945 -0.4439  0.0122 -0.0306
  673MOL0     C88731   8.939  11.774   2.947  0.9100  0.4185  0.4703
  673MOL0     C88732   8.906  11.851   3.060  1.1452  0.1389 -0.4314
  673MOL0     C88733   8.776  11.921   3.068 -0.2617 -0.9562  0.1357
  673MOL0     O88734   8.672  11.894   2.973 -0.2403  0.1323  0.2401
  673MOL0     C88735   8.553  11.962   2.956 -0.6352 -0.0567 -0.5413
  673MOL0     C88736   8.456  11.900   2.877  0.3829 -0.1001  0.2783
  673MOL0     C88737   8.326  11.959   2.857 -0.2434  0.2958  0.9191
  673MOL0     C88738   8.291  12.084   2.921  0.0288  0.2836  0.2432
  673MOL0     O88739   8.172  12.146   2.891  0.5570 -0.5595 -0.1972
  673MOL0     C88740   8.114  12.231   2.997  0.2970 -0.6295 -0.5642
  673MOL0     C88741   7.981  12.301   2.939 -0.3865 -0.5799 -0.3519
  673MOL0     C88742   7.865  12.203   2.908  0.3682  0.5906 -0.4748
  673MOL0     C88743   7.740  12.268   2.850 -0.0827 -0.4370 -0.2603
  673MOL0     C88744   7.632  12.166   2.829 -0.5187  0.4447  0.7403
  673MOL0     C88745   7.664  12.076   2.714  0.2988 -0.4837  0.2250
  673MOL0     C88746   7.549  11.973   2.684 -0.4850 -0.4207 -0.5967
  673MOL0     C88747   7.597  11.869   2.587  0.6393  0.0769 -0.2786
  673MOL0    Cl88748   7.460  11.779   2.521 -0.1547 -0.2308 -0.4782
  673MOL0     C88749   8.394  12.136   3.005 -0.2355 -0.2581 -0.4759
  673MOL0     C88750   8.521  12.078   3.030 -0.2669 -0.0179  0.1868
  673MOL0     O88751   8.770  12.009   3.156  0.3109 -0.3073 -0.4574
  673MOL0     C88752   8.999  11.857   3.167  0.2711  0.0272  0.1046
  673MOL0     C88753   9.121  11.795   3.160 -0.2188  0.2670 -1.1472
  673MOL0     N88754   9.715  11.344   2.902 -0.2310 -0.2123  0.1969
  673MOL0     N88755   9.784  11.236   2.886 -0.1414 -0.2126  0.1792
  673MOL0     C88756   9.120  10.620   2.497  0.2776 -0.4274 -0.0969
  673MOL0     C88757   8.987  10.656   2.467 -0.0005 -0.1387 -0.4102
  673MOL0     C88758   8.626  10.945   2.549 -0.2585  0.6880  0.7850
  673MOL0     C88759   8.518  10.854   2.527  0.1313  0.8370 -0.1730
  673MOL0     C88760   8.389  10.900   2.526 -0.3158 -0.4130  0.0475
  673MOL0     C88761   8.361  11.039   2.526 -0.0864 -0.3960 -0.7954
  673MOL0     O88762   8.234  11.085   2.514 -0.0972 -0.0040  0.1247
  673MOL0     C88763   8.129  10.990   2.514 -0.6144  0.7169  0.5613
  673MOL0     C88764   7.999  11.066   2.516 -0.2134  1.2597  0.7719
  673MOL0     C88765   7.878  10.980   2.572 -0.0615 -0.4343 -0.2311
  673MOL0     C88766   7.748  11.045   2.537  0.6254 -0.3790  0.0590
  673MOL0     C88767   7.627  10.964   2.579  0.8070 -0.1401  0.8759
  673MOL0     C88768   7.535  10.890   2.599 -0.2617 -0.2329 -0.2310
  673MOL0     C88769   8.460  11.124   2.548  0.6712  0.2300 -0.2745
  673MOL0     C88770   8.590  11.083   2.565  0.8169  0.2634  0.1713
  673MOL0     H88771   8.888  10.773   2.769 -0.7163 -0.0937  0.3489
  673MOL0     H88772   9.117  10.674   2.839 -1.2840  2.4173  0.9226
  673MOL0     H88773   9.328  10.537   2.854  1.6491  2.3253  3.3449
  673MOL0     H88774   9.334  10.705   2.798 -3.5457 -0.1854 -1.2937
  673MOL0     H88775   9.553  10.621   2.673  3.5336  3.9872  4.1616
  673MOL0     H88776   9.513  10.460   2.727  3.9614  1.5485 -3.3454
  673MOL0     H88777   9.689  10.545   2.856 -1.1202 -1.4818 -0.8911
  673MOL0     H88778   9.555  10.569   2.973  1.6354  1.3391  1.0654
  673MOL0     H88779   9.628  10.798   2.797 -0.3828 -0.1877  0.3238
  673MOL0     H88780   9.509  10.779   2.928 -1.2837 -2.2766 -0.0461
  673MOL0     H88781   9.814  10.798   2.928  0.1903  2.1265 -0.9223
  673MOL0     H88782   9.725  10.724   3.075 -1.0508  2.5686  2.6618
  673MOL0     H88783   9.628  10.923   3.133 -0.6111 -0.9523  0.3192
  673MOL0     H88784   9.667  10.992   2.975  1.6711  0.0493 -1.3069
  673MOL0     H88785   9.815  11.011   3.211 -4.5123  0.0259 -0.8408
  673MOL0     H88786   9.911  10.894   3.123 -1.7568 -1.8103  0.9833
  673MOL0     H88787   9.959  11.055   2.928  0.0721 -0.4496  0.6408
  673MOL0     H88788  10.015  11.120   3.086  0.0737  2.3072  0.0966
  673MOL0     H88789   9.878  11.321   3.185 -1.3822  1.4194  1.0108
  673MOL0     H88790   9.718  11.598   3.049  2.8374 -0.0305  2.4895
  673MOL0     H88791   9.695  11.532   3.197 -2.0671  4.8756  0.5181
  673MOL0     H88792   9.495  11.544   3.178  1.7517 -0.9087  2.1863
  673MOL0     H88793   9.498  11.395   3.092  0.6531  0.0175  5.9456
  673MOL0     H88794   9.499  11.676   2.960 -1.2044  0.1768 -3.5855
  673MOL0     H88795   9.538  11.540   2.863 -1.3144 -0.5412 -0.6418
  673MOL0     H88796   9.285  11.472   2.947 -0.4077 -0.0414 -0.1787
  673MOL0     H88797   9.295  11.618   2.842  0.7700 -1.0893  0.2992
  673MOL0     H88798   9.086  11.644   2.856  1.4201  0.5707  0.1226
  673MOL0     H88799   8.861  11.764   2.872 -0.2531 -3.7848  1.9638
  673MOL0     H88800   8.456  11.808   2.818 -1.7781 -0.5418  0.9022
  673MOL0     H88801   8.247  11.912   2.799 -0.7631  0.2562  1.6428
  673MOL0     H88802   8.176  12.320   3.017 -0.4875 -0.2032  0.0176
  673MOL0     H88803   8.082  12.178   3.087 -2.9315  0.5631 -0.8819
  673MOL0     H88804   8.009  12.367   2.857  1.8555  0.5249  1.2049
  673MOL0     H88805   7.949  12.373   3.015 -1.4216 -0.2678 -1.0655
  673MOL0     H88806   7.836  12.147   2.998  1.5082  0.2924 -0.2671
  673MOL0     H88807   7.903  12.128   2.839  2.4495  2.4727 -1.5259
  673MOL0     H88808   7.700  12.338   2.924 -1.5825 -1.6920  0.1734
  673MOL0     H88809   7.769  12.309   2.753  2.8736 -1.1745  0.2036
  673MOL0     H88810   7.544  12.229   2.813 -1.9757 -1.4563  0.8246
  673MOL0     H88811   7.614  12.101   2.915 -3.8387 -0.7511 -0.6486
  673MOL0     H88812   7.759  12.023   2.726 -1.3858 -4.1173 -1.2402
  673MOL0     H88813   7.681  12.127   2.619 -1.5133 -1.0352 -0.4349
  673MOL0     H88814   7.532  11.923   2.780  2.2402  0.1925  0.3026
  673MOL0     H88815   7.466  12.032   2.644  0.4189  0.5655 -1.0833
  673MOL0     H88816   7.679  11.813   2.632  4.1686  4.5977 -0.3757
  673MOL0     H88817   7.652  11.923   2.510  2.4125 -3.0048 -1.3134
  673MOL0     H88818   8.369  12.223   3.063  2.6617  1.9925 -2.3060
  673MOL0     H88819   8.592  12.119   3.101 -1.2545 -1.0862  1.8745
  673MOL0     H88820   8.983  11.902   3.265 -0.8850 -0.1214 -0.0000
  673MOL0     H88821   9.185  11.801   3.248 -1.1436  1.2707 -0.5258
  673MOL0     H88822   9.185  10.561   2.433 -2.4582 -1.9036 -1.7531
  673MOL0     H88823   8.956  10.648   2.363  0.4173  1.1703 -0.6555
  673MOL0     H88824   8.528  10.746   2.520 -0.7820  0.7860 -0.7141
  673MOL0     H88825   8.301  10.837   2.513 -0.7109  0.1133  0.1500
  673MOL0     H88826   8.140  10.935   2.608  1.3298 -0.9758 -0.5578
  673MOL0     H88827   8.134  10.922   2.429 -0.6178 -0.7773  1.7132
  673MOL0     H88828   8.017  11.158   2.573  0.9611  0.3102  1.9819
  673MOL0     H88829   7.982  11.092   2.411  2.1409  1.3616  0.3776
  673MOL0     H88830   7.885  10.972   2.681  4.0988  1.5331 -0.1569
  673MOL0     H88831   7.887  10.876   2.538  1.9305 -1.1331  2.1374
  673MOL0     H88832   7.748  11.143   2.585  4.3246  0.2946 -1.0236
  673MOL0     H88833   7.742  11.059   2.428  2.0509 -0.8799 -0.1003
  673MOL0     H88834   7.444  10.842   2.630 -0.5657  0.8014  0.5228
  673MOL0     H88835   8.435  11.230   2.551 -0.0711  0.0934  3.5950
  673MOL0     H88836   8.672  11.152   2.584  4.1419 -3.1097 -0.7137
  674MOL0     O88837   6.860   7.109  10.454  0.5874  0.3705  0.9888
  674MOL0     C88838   6.863   7.046  10.344 -0.0996  0.6251 -0.0251
  674MOL0     O88839   6.754   7.014  10.273  0.5584 -0.3025  0.0181
  674MOL0     C88840   6.628   7.043  10.321 -0.4014 -0.1410 -0.0984
  674MOL0     C88841   6.536   7.084  10.232  0.8378 -0.3711 -0.2788
  674MOL0     C88842   6.410   7.122  10.266 -0.1760  0.8501 -0.2642
  674MOL0     C88843   6.361   7.105  10.400 -0.0183  0.1850 -0.0825
  674MOL0     O88844   6.226   7.137  10.417  0.0900  0.4292 -0.1146
  674MOL0     C88845   6.182   7.150  10.555 -0.8400 -0.5152  0.7794
  674MOL0     C88846   6.040   7.191  10.550 -0.4496 -0.0164  0.1240
  674MOL0     C88847   5.973   7.196  10.686 -0.4222 -0.2586  0.7922
  674MOL0     C88848   5.946   7.059  10.756  0.2792 -0.2539 -0.0730
  674MOL0     C88849   5.840   7.062  10.876 -0.3956 -0.0450 -0.6825
  674MOL0     C88850   5.699   7.049  10.827 -0.1065 -0.1806 -0.0005
  674MOL0     C88851   5.613   7.052  10.958  0.9401 -1.1322 -0.0829
  674MOL0     C88852   5.466   7.071  10.913  0.4926  0.3766 -0.3551
  674MOL0     N88853   5.377   7.101  11.031 -0.2251 -0.6680  0.2781
  674MOL0     C88854   5.389   7.197  11.132 -0.4862  0.6793 -0.2495
  674MOL0     C88855   5.282   7.187  11.213  0.0094  0.7761 -0.0400
  674MOL0     C88856   5.249   7.264  11.342 -0.2250  0.1824 -0.2256
  674MOL0     C88857   5.139   7.186  11.429 -0.0137 -0.9575  0.1588
  674MOL0     C88858   5.111   7.270  11.552 -0.4708 -0.0745  0.2486
  674MOL0     C88859   5.046   7.193  11.667  0.7578  0.3448  0.7524
  674MOL0     O88860   4.913   7.154  11.616 -0.8460  0.2482  0.7037
  674MOL0     C88861   4.823   7.115  11.713 -0.3423 -0.2483 -0.6854
  674MOL0     C88862   4.840   7.109  11.855  0.0833 -0.4611 -0.4716
  674MOL0     C88863   4.740   7.074  11.943  0.2352 -0.3041  0.0358
  674MOL0     C88864   4.610   7.059  11.895 -0.4086  0.3755 -0.5960
  674MOL0     C88865   4.506   7.008  11.989  0.5451  0.1417  0.2179
  674MOL0     O88866   4.380   6.991  11.940 -0.1131 -0.7778  0.3622
  674MOL0     C88867   4.271   6.961  12.015 -0.1594 -0.2198 -0.7426
  674MOL0     C88868   4.173   6.890  11.948  0.3557  0.3742 -0.4401
  674MOL0     C88869   4.056   6.841  12.019  0.1340  0.0218  0.1067
  674MOL0     C88870   4.037   6.847  12.154 -1.2894 -0.2157  1.1311
  674MOL0     O88871   3.933   6.781  12.207 -0.0353  0.0287 -0.5614
  674MOL0     C88872   3.897   6.823  12.340  0.3325 -0.1879 -0.1064
  674MOL0     C88873   3.783   6.726  12.365  0.6738  0.3467  0.4039
  674MOL0     C88874   3.842   6.585  12.373  0.3640  1.1022 -0.2754
  674MOL0     C88875   3.733   6.474  12.413 -0.1161  0.3353  0.1487
  674MOL0     C88876   3.801   6.335  12.448  0.5495  0.4134 -0.9738
  674MOL0     C88877   3.701   6.215  12.456 -0.2248 -0.4576 -0.4920
  674MOL0     C88878   3.562   6.222  12.375 -0.5165 -0.5795 -0.0358
  674MOL0     C88879   3.477   6.101  12.401  0.1339 -0.2663 -0.3026
  674MOL0    Cl88880   3.552   5.956  12.333  0.4431 -0.3435  0.3666
  674MOL0     C88881   4.141   6.921  12.220  0.2811 -0.2578  0.6559
  674MOL0     C88882   4.248   6.982  12.152 -0.2024  0.1599 -0.0354
  674MOL0     O88883   4.546   6.985  12.101  0.3481  0.5331 -0.1885
  674MOL0     C88884   4.585   7.074  11.753 -0.0574  0.3245  0.4636
  674MOL0     C88885   4.690   7.105  11.668 -0.5702 -0.4676  0.2324
  674MOL0     N88886   5.212   7.072  11.167  0.0979  0.0037 -0.4797
  674MOL0     N88887   5.267   7.019  11.059 -0.2793  0.1748  0.5405
  674MOL0     C88888   6.451   7.052  10.494 -0.4167 -0.3156  0.3653
  674MOL0     C88889   6.582   7.021  10.450  0.9720  0.4651 -0.5822
  674MOL0     C88890   6.998   7.016  10.292  0.0629  1.1917 -0.2734
  674MOL0     C88891   7.026   6.980  10.162  0.4711  0.5165 -0.7339
  674MOL0     C88892   7.158   6.951  10.118 -0.4787  0.8354  0.1605
  674MOL0     C88893   7.269   6.950  10.200 -0.0620 -0.4064 -0.3423
  674MOL0     O88894   7.384   6.919  10.153  0.4529  0.6094 -0.3144
  674MOL0     C88895   7.459   7.034  10.113  0.4410  0.4976  0.3827
  674MOL0     C88896   7.588   6.993  10.037 -0.2088 -0.1176  0.0202
  674MOL0     C88897   7.692   6.902  10.107  0.5104  0.4402 -0.2055
  674MOL0     C88898   7.813   6.865  10.017  0.3124  0.2066  0.1755
  674MOL0     C88899   7.912   6.791  10.095  0.1394  0.4302 -0.6237
  674MOL0     C88900   7.986   6.712  10.162  0.1029 -0.6044 -0.9776
  674MOL0     C88901   7.246   6.998  10.337 -0.2456 -0.0928  0.0426
  674MOL0     C88902   7.114   7.021  10.380  0.3391  0.4279 -0.2144
  674MOL0     H88903   6.578   7.101  10.133  0.2378  3.6043 -0.0412
  674MOL0     H88904   6.338   7.140  10.187 -0.5507 -2.8942 -0.9584
  674MOL0     H88905   6.245   7.229  10.597  1.3863  1.2346 -4.8992
  674MOL0     H88906   6.190   7.052  10.602 -0.7280 -0.8172  0.1311
  674MOL0     H88907   5.981   7.124  10.488  0.5366  1.5111 -2.6241
  674MOL0     H88908   6.032   7.289  10.501  1.3295  1.6842  2.8749
  674MOL0     H88909   5.879   7.252  10.686 -0.3571 -0.1145  2.2868
  674MOL0     H88910   6.042   7.258  10.744  1.4135 -1.5328  0.0893
  674MOL0     H88911   5.901   6.989  10.685 -2.4626  0.0483  1.2164
  674MOL0     H88912   6.039   7.021  10.800  0.8486 -0.0547 -1.0914
  674MOL0     H88913   5.858   7.147  10.942  0.8439  0.2135 -1.3372
  674MOL0     H88914   5.861   6.975  10.939 -1.6028  0.9549  1.2015
  674MOL0     H88915   5.686   6.949  10.783 -0.3748 -0.3953  0.5555
  674MOL0     H88916   5.682   7.127  10.752  3.2808 -0.2050 -0.9443
  674MOL0     H88917   5.623   6.959  11.014  3.3993  0.4386  2.3098
  674MOL0     H88918   5.641   7.135  11.023  0.3709 -1.6466  0.8498
  674MOL0     H88919   5.427   6.974  10.877  0.8537 -0.2936  1.0062
  674MOL0     H88920   5.455   7.140  10.829  0.5298 -0.8595 -1.4139
  674MOL0     H88921   5.471   7.268  11.134  1.0906 -1.0384 -1.0459
  674MOL0     H88922   5.226   7.365  11.307 -0.3134 -0.7274 -3.0352
  674MOL0     H88923   5.338   7.271  11.405  0.5328  0.2750 -1.2694
  674MOL0     H88924   5.175   7.089  11.465  0.0769  0.0063  2.8588
  674MOL0     H88925   5.043   7.166  11.379  0.4752 -1.6955 -0.5234
  674MOL0     H88926   5.207   7.310  11.583  0.6884 -1.6123 -1.1526
  674MOL0     H88927   5.052   7.359  11.530 -0.5736 -0.4723 -1.1926
  674MOL0     H88928   5.025   7.263  11.749 -0.4606  0.4871  0.3356
  674MOL0     H88929   5.097   7.108  11.713 -0.4159 -0.6622  0.2507
  674MOL0     H88930   4.940   7.128  11.893 -0.5340  0.8836  0.5598
  674MOL0     H88931   4.762   7.078  12.049  2.9959  0.8407 -0.4874
  674MOL0     H88932   4.193   6.868  11.844 -1.4723  2.3097 -1.2851
  674MOL0     H88933   3.994   6.778  11.956 -0.7921 -0.9970  1.9749
  674MOL0     H88934   3.857   6.925  12.347  0.1498 -0.3137  0.7850
  674MOL0     H88935   3.978   6.810  12.412  2.4797 -1.4127 -2.5827
  674MOL0     H88936   3.707   6.736  12.287 -0.9931 -0.8668  1.7925
  674MOL0     H88937   3.729   6.748  12.457  2.6428  0.0221  1.6965
  674MOL0     H88938   3.929   6.585  12.439  2.0363 -1.3576 -2.2827
  674MOL0     H88939   3.875   6.555  12.273  0.3586  0.0669  0.0156
  674MOL0     H88940   3.680   6.517  12.499 -1.0395  0.3468 -0.4144
  674MOL0     H88941   3.668   6.462  12.326  0.4909 -1.7493 -0.0729
  674MOL0     H88942   3.856   6.341  12.542  0.9420  1.5022 -1.2501
  674MOL0     H88943   3.868   6.311  12.365  0.6735  1.8361 -1.3239
  674MOL0     H88944   3.670   6.203  12.560  1.7542  0.7616  0.3122
  674MOL0     H88945   3.754   6.124  12.428  2.1328  0.7109 -0.1198
  674MOL0     H88946   3.519   6.318  12.404  2.5371  0.8249  0.2324
  674MOL0     H88947   3.583   6.220  12.268  2.6859 -0.7557  0.5159
  674MOL0     H88948   3.377   6.099  12.357  0.2156  2.6415 -0.8289
  674MOL0     H88949   3.466   6.101  12.510 -0.8897  2.0418 -0.3547
  674MOL0     H88950   4.138   6.923  12.328 -3.4007  0.1855  0.6539
  674MOL0     H88951   4.324   7.036  12.209  1.1318 -0.6784 -0.9823
  674MOL0     H88952   4.485   7.061  11.711  0.0698  2.2242 -0.5670
  674MOL0     H88953   4.673   7.123  11.562  3.5262  1.7986 -0.2704
  674MOL0     H88954   6.430   7.020  10.596  4.7379 -1.4004  1.3842
  674MOL0     H88955   6.648   6.987  10.529  0.4236 -1.0235 -0.7441
  674MOL0     H88956   6.940   7.002  10.100 -1.7337  0.3627  2.0587
  674MOL0     H88957   7.171   6.923  10.014 -1.9988 -2.8100  0.7923
  674MOL0     H88958   7.481   7.086  10.207  0.1446 -1.1825  1.4264
  674MOL0     H88959   7.402   7.094  10.041  0.4216 -2.2995 -2.1230
  674MOL0     H88960   7.545   6.945   9.948 -2.4570  1.1617  0.3337
  674MOL0     H88961   7.644   7.082  10.006 -0.1779  0.0008  0.4137
  674MOL0     H88962   7.630   6.818  10.139 -1.9421  1.9548 -0.6919
  674MOL0     H88963   7.728   6.961  10.192  0.0543  1.7042 -0.8537
  674MOL0     H88964   7.788   6.797   9.934  2.6640 -3.3562  2.1465
  674MOL0     H88965   7.854   6.963   9.993 -1.3175  0.7107 -0.6943
  674MOL0     H88966   8.059   6.654  10.214  0.8724  0.7826 -0.4475
  674MOL0     H88967   7.317   7.028  10.414 -1.1064 -0.3023  0.9485
  674MOL0     H88968   7.103   7.031  10.488 -2.9607 -2.5159 -0.1195
  675MOL0     O88969   5.644   3.311   4.270  0.4896  0.0468 -0.2411
  675MOL0     C88970   5.635   3.194   4.313  0.6855  0.7564 -0.6813
  675MOL0     O88971   5.532   3.145   4.401  0.2943 -0.2192 -0.5051
  675MOL0     C88972   5.442   3.232   4.453  0.0943 -1.4122  0.2094
  675MOL0     C88973   5.404   3.209   4.587  0.5053  1.2350 -0.0672
  675MOL0     C88974   5.303   3.287   4.650  0.3838 -0.5097  0.2717
  675MOL0     C88975   5.233   3.377   4.573 -0.2432  0.7441 -0.0105
  675MOL0     O88976   5.139   3.447   4.637 -0.5240 -0.1969 -0.0795
  675MOL0     C88977   5.052   3.526   4.567  0.5927  0.0852 -0.9068
  675MOL0     C88978   4.945   3.584   4.653  0.3911 -0.1736 -0.0264
  675MOL0     C88979   4.820   3.504   4.643  0.0249  0.3164  0.0233
  675MOL0     C88980   4.716   3.561   4.746 -0.0364  0.7547  0.2920
  675MOL0     C88981   4.580   3.486   4.750 -0.3406 -0.6273  0.0540
  675MOL0     C88982   4.502   3.480   4.611 -0.5157  0.3840 -0.0370
  675MOL0     C88983   4.354   3.459   4.616  0.1690  0.0789  0.0672
  675MOL0     C88984   4.280   3.575   4.677  0.0637  0.3727  0.1440
  675MOL0     N88985   4.134   3.557   4.686  0.0706 -0.0308 -0.2982
  675MOL0     C88986   4.048   3.548   4.573 -0.1064  0.7882  0.0855
  675MOL0     C88987   3.926   3.529   4.633  0.4967  0.8341 -0.1266
  675MOL0     C88988   3.793   3.517   4.566  0.2637 -0.2697 -0.2614
  675MOL0     C88989   3.685   3.611   4.626  0.1454 -0.3954  1.0393
  675MOL0     C88990   3.571   3.606   4.527  0.6172  0.1761  0.2320
  675MOL0     C88991   3.441   3.673   4.589  0.0775  1.2579  0.5466
  675MOL0     O88992   3.352   3.674   4.478  0.6814 -0.9462 -0.5345
  675MOL0     C88993   3.228   3.730   4.498  0.5691 -1.2225  0.0109
  675MOL0     C88994   3.179   3.787   4.615 -1.2066  0.3174  0.8275
  675MOL0     C88995   3.044   3.842   4.621 -0.4107  0.1991 -0.0672
  675MOL0     C88996   2.967   3.834   4.507  0.7149  0.6406 -0.3942
  675MOL0     C88997   2.831   3.889   4.521 -1.1835  0.3536  0.5289
  675MOL0     O88998   2.775   3.913   4.404 -0.7435 -1.0923 -0.0332
  675MOL0     C88999   2.639   3.936   4.406  0.0068  0.0236 -0.1647
  675MOL0     C89000   2.568   4.039   4.477 -0.4268 -0.7481 -0.3245
  675MOL0     C89001   2.430   4.048   4.479  0.3267  0.3318 -0.6219
  675MOL0     C89002   2.359   3.941   4.421  0.0282  0.4762 -0.3501
  675MOL0     O89003   2.222   3.932   4.433  0.7193 -0.9611  0.7196
  675MOL0     C89004   2.200   3.828   4.528  0.2590  0.1467 -0.2988
  675MOL0     C89005   2.073   3.854   4.602 -0.3265  0.4427 -0.2284
  675MOL0     C89006   2.083   3.984   4.688  0.3740  0.5765 -0.7303
  675MOL0     C89007   1.936   4.022   4.723 -0.1211  0.2383  0.0162
  675MOL0     C89008   1.934   4.089   4.863 -0.1797 -0.7631  0.4376
  675MOL0     C89009   2.012   4.224   4.867  0.2105 -0.2397  0.2825
  675MOL0     C89010   2.013   4.287   5.010 -0.0687 -0.1031 -0.7114
  675MOL0     C89011   1.894   4.377   5.051 -0.0098 -0.7962 -0.5389
  675MOL0    Cl89012   1.930   4.457   5.210  0.2900 -0.5676  0.3358
  675MOL0     C89013   2.429   3.839   4.346  0.7870 -0.7116  0.1594
  675MOL0     C89014   2.560   3.837   4.336  0.4716 -0.7288  0.9108
  675MOL0     O89015   2.781   3.886   4.628  1.0141  0.1001  0.2426
  675MOL0     C89016   3.018   3.787   4.390  0.4621 -0.1443 -0.1881
  675MOL0     C89017   3.145   3.728   4.386  0.2955 -0.5724  0.2818
  675MOL0     N89018   3.938   3.529   4.768  0.0643 -0.3499 -0.0569
  675MOL0     N89019   4.057   3.567   4.799  0.0173  0.0367 -0.6439
  675MOL0     C89020   5.278   3.407   4.445 -0.5178 -0.0699 -0.0146
  675MOL0     C89021   5.380   3.337   4.380  0.2441 -0.1857 -0.3699
  675MOL0     C89022   5.747   3.100   4.291  1.1064  0.5029 -0.0378
  675MOL0     C89023   5.837   3.119   4.194  0.2894  0.5108 -0.4265
  675MOL0     C89024   5.924   3.020   4.150  0.1532 -0.3371 -0.0988
  675MOL0     C89025   5.938   2.906   4.217 -0.5298  0.4248 -0.0014
  675MOL0     O89026   6.040   2.817   4.187  0.4150 -0.1373  0.1705
  675MOL0     C89027   6.064   2.779   4.052  0.2731  0.0051  0.5998
  675MOL0     C89028   5.942   2.771   3.955 -0.7666  0.2800 -0.4610
  675MOL0     C89029   5.985   2.701   3.822 -0.3520 -0.7519 -0.4248
  675MOL0     C89030   5.880   2.721   3.712 -0.4660 -0.0014  0.2672
  675MOL0     C89031   5.748   2.688   3.757 -0.8321  0.3356  0.3782
  675MOL0     C89032   5.631   2.682   3.776  0.4307  0.6271 -0.1200
  675MOL0     C89033   5.854   2.877   4.327 -0.3427 -0.2513  0.3618
  675MOL0     C89034   5.759   2.978   4.364  0.2902 -0.3963  0.4258
  675MOL0     H89035   5.459   3.133   4.642 -0.4828 -0.2728 -1.0816
  675MOL0     H89036   5.275   3.269   4.754  0.4796 -1.4974  0.1317
  675MOL0     H89037   5.004   3.459   4.495 -1.5639 -2.3593  2.4651
  675MOL0     H89038   5.095   3.608   4.508  0.8001 -0.1810 -1.1283
  675MOL0     H89039   4.919   3.684   4.619 -0.9542 -0.3647  0.3994
  675MOL0     H89040   4.985   3.596   4.754  2.1020  0.6503 -0.7691
  675MOL0     H89041   4.848   3.399   4.659 -0.8218 -0.3941 -2.5761
  675MOL0     H89042   4.766   3.494   4.548 -0.2664 -1.6192  0.3494
  675MOL0     H89043   4.753   3.558   4.848  0.0115  0.0858  0.2595
  675MOL0     H89044   4.691   3.666   4.730 -0.1724  1.0374  2.2110
  675MOL0     H89045   4.516   3.527   4.829  1.5770  1.8165  0.4511
  675MOL0     H89046   4.606   3.383   4.775  1.0184 -0.3725 -0.2407
  675MOL0     H89047   4.541   3.395   4.554  0.3545  0.8899 -0.2160
  675MOL0     H89048   4.526   3.578   4.568  1.0045  0.0237 -0.0554
  675MOL0     H89049   4.311   3.435   4.518  1.4747 -2.1212 -0.0362
  675MOL0     H89050   4.332   3.366   4.668 -2.0574  0.3710 -0.2484
  675MOL0     H89051   4.302   3.660   4.613  0.1075 -0.4386 -0.9556
  675MOL0     H89052   4.315   3.593   4.780  0.7847 -2.3350  0.4611
  675MOL0     H89053   4.077   3.561   4.469  0.3550 -1.7527 -0.1754
  675MOL0     H89054   3.769   3.410   4.568  2.3591 -0.8029 -0.3921
  675MOL0     H89055   3.814   3.561   4.468 -0.8769  1.8774  0.4104
  675MOL0     H89056   3.724   3.712   4.637  2.5408 -1.0616 -0.5167
  675MOL0     H89057   3.640   3.581   4.721 -3.0637  2.1775  0.4875
  675MOL0     H89058   3.602   3.649   4.431 -1.0758  1.0813  0.0470
  675MOL0     H89059   3.550   3.500   4.512  0.3572  0.5062 -2.2003
  675MOL0     H89060   3.463   3.772   4.631  0.1952  0.8063  1.5567
  675MOL0     H89061   3.394   3.603   4.658 -0.5144  0.5496 -0.5470
  675MOL0     H89062   3.242   3.781   4.703  1.0639  1.3152 -0.6278
  675MOL0     H89063   3.000   3.882   4.711 -1.5473 -3.2898  1.1124
  675MOL0     H89064   2.608   4.113   4.545 -2.8250  2.4068 -2.1269
  675MOL0     H89065   2.377   4.117   4.543  4.7708  1.2057  2.6524
  675MOL0     H89066   2.278   3.832   4.604  2.7764 -0.0182 -2.7488
  675MOL0     H89067   2.206   3.727   4.486 -0.7517 -0.6675  1.3574
  675MOL0     H89068   2.055   3.776   4.677  0.0778  1.7249  1.2651
  675MOL0     H89069   1.992   3.861   4.530  0.9455 -2.9749 -2.2113
  675MOL0     H89070   2.132   4.067   4.638 -1.8299  1.4435 -1.5819
  675MOL0     H89071   2.135   3.958   4.781 -1.7603  1.1785  0.7171
  675MOL0     H89072   1.892   4.081   4.643  1.1537 -3.2869 -3.6726
  675MOL0     H89073   1.869   3.936   4.716  0.1263  0.0994 -0.7948
  675MOL0     H89074   1.979   4.038   4.948  1.4982  0.3458  0.2821
  675MOL0     H89075   1.829   4.113   4.883 -0.8935 -1.8834 -1.6730
  675MOL0     H89076   1.966   4.293   4.796 -0.6457 -0.6404  0.4389
  675MOL0     H89077   2.117   4.225   4.837 -0.3614  3.0340 -2.1499
  675MOL0     H89078   2.024   4.210   5.087  0.8346  1.8202  1.1834
  675MOL0     H89079   2.101   4.352   5.007  0.6203 -0.6583  2.8915
  675MOL0     H89080   1.797   4.326   5.044 -0.4110 -0.0159 -0.6753
  675MOL0     H89081   1.882   4.449   4.970 -2.3446 -2.4433 -1.7848
  675MOL0     H89082   2.356   3.777   4.296 -2.2973  1.7655  1.2130
  675MOL0     H89083   2.619   3.769   4.276  1.5635 -0.7239  1.9280
  675MOL0     H89084   2.967   3.791   4.295  1.7376  0.3482 -0.8713
  675MOL0     H89085   3.197   3.697   4.296 -0.9394  3.0973 -1.9170
  675MOL0     H89086   5.223   3.486   4.395 -2.8238  1.1362  3.9698
  675MOL0     H89087   5.402   3.345   4.274  1.3369 -2.5931 -0.3816
  675MOL0     H89088   5.847   3.215   4.145 -0.6371  0.3464 -0.9522
  675MOL0     H89089   5.986   3.049   4.065 -3.4305  0.8140 -2.5219
  675MOL0     H89090   6.107   2.678   4.056 -0.4206 -0.3655 -0.6341
  675MOL0     H89091   6.147   2.839   4.013  0.7285 -1.2701 -0.4978
  675MOL0     H89092   5.860   2.715   4.000 -0.5562  1.3569  1.3625
  675MOL0     H89093   5.908   2.873   3.937 -3.3053 -0.7914 -2.4147
  675MOL0     H89094   5.999   2.593   3.831 -0.0240 -0.8076 -1.4915
  675MOL0     H89095   6.072   2.754   3.783 -0.8619 -0.7817 -1.6315
  675MOL0     H89096   5.886   2.826   3.683 -1.5191 -0.1296 -0.4950
  675MOL0     H89097   5.904   2.661   3.623  0.6463  1.8958 -0.7636
  675MOL0     H89098   5.525   2.693   3.784  0.5238  0.1624  3.4992
  675MOL0     H89099   5.863   2.788   4.389 -2.4977 -1.8249 -1.4253
  675MOL0     H89100   5.702   2.969   4.456 -2.3093  2.8485 -0.6579
  676MOL0     O89101   1.054   3.367   0.159  0.3750 -0.2182  0.7065
  676MOL0     C89102   1.051   3.383   0.281 -0.7443  0.5429 -0.6592
  676MOL0     O89103   0.940   3.400   0.364 -0.2359 -0.4434  0.3558
  676MOL0     C89104   0.824   3.419   0.294 -0.0809  0.0384 -0.0206
  676MOL0     C89105   0.753   3.310   0.243  0.3817  0.9930 -0.0429
  676MOL0     C89106   0.623   3.330   0.194 -0.5798  1.2304 -0.8932
  676MOL0     C89107   0.560   3.450   0.213  0.2673  0.1631  0.3906
  676MOL0     O89108   0.437   3.475   0.169  0.4514 -0.1845 -0.4246
  676MOL0     C89109   0.394   3.438   0.040  0.5234  0.2904 -0.6370
  676MOL0     C89110   0.356   3.552  -0.050  0.5220 -1.1524 -0.2067
  676MOL0     C89111   0.274   3.656   0.038  0.1019  0.0019  0.3996
  676MOL0     C89112   0.244   3.783  -0.050 -0.5020  0.8450  0.9584
  676MOL0     C89113   0.185   3.899   0.027  0.1809  0.0027  0.2075
  676MOL0     C89114   0.132   4.012  -0.065 -0.4955 -0.0822  0.0622
  676MOL0     C89115   0.249   4.084  -0.141  0.0759  1.3691 -0.1082
  676MOL0     C89116   0.209   4.223  -0.198  0.1601 -0.5018  0.7688
  676MOL0     N89117   0.100   4.212  -0.288 -0.6639  0.2584 -0.5731
  676MOL0     C89118   0.093   4.196  -0.423 -0.3833  0.1276  1.7174
  676MOL0     C89119  -0.039   4.209  -0.462  0.9647 -0.0296 -0.2369
  676MOL0     C89120  -0.097   4.213  -0.604 -0.4512  0.8070 -0.0841
  676MOL0     C89121  -0.249   4.225  -0.587 -0.4852  0.1346  0.2965
  676MOL0     C89122  -0.320   4.253  -0.720 -0.0337 -0.1862 -0.6971
  676MOL0     C89123  -0.471   4.229  -0.707 -0.0586  0.3279  0.1065
  676MOL0     O89124  -0.530   4.273  -0.828  0.4159 -0.5436  0.0409
  676MOL0     C89125  -0.669   4.305  -0.839 -0.0965  0.4489 -0.4700
  676MOL0     C89126  -0.706   4.408  -0.915  0.3308  0.4200 -0.2715
  676MOL0     C89127  -0.840   4.450  -0.920 -0.8318 -0.8602 -0.0787
  676MOL0     C89128  -0.935   4.379  -0.859 -0.0004 -0.1814  0.8919
  676MOL0     C89129  -1.078   4.412  -0.855 -0.7492  0.0766  0.1862
  676MOL0     O89130  -1.127   4.488  -0.959 -0.4245  0.7605  0.0741
  676MOL0     C89131  -1.264   4.496  -0.972 -0.2656  0.1786  0.3049
  676MOL0     C89132  -1.352   4.387  -0.976  0.0954 -0.5541  0.1331
  676MOL0     C89133  -1.486   4.400  -0.999 -0.8695  0.0633  0.5126
  676MOL0     C89134  -1.546   4.524  -1.033 -0.9929 -0.3773 -0.3229
  676MOL0     O89135  -1.674   4.552  -1.059  0.1988  0.1249  0.2415
  676MOL0     C89136  -1.759   4.469  -0.989 -0.3393 -0.6297 -0.5756
  676MOL0     C89137  -1.887   4.541  -0.959  0.6096 -0.0513 -0.5239
  676MOL0     C89138  -1.871   4.654  -0.856  0.0633  0.2278 -0.6876
  676MOL0     C89139  -1.996   4.705  -0.791  0.9452 -0.6991 -0.0388
  676MOL0     C89140  -2.078   4.797  -0.881  0.1387  0.3734 -0.5002
  676MOL0     C89141  -2.223   4.787  -0.839  0.1869  0.1797 -0.8652
  676MOL0     C89142  -2.257   4.850  -0.703 -0.7979  0.2507 -0.1081
  676MOL0     C89143  -2.393   4.819  -0.642  0.0858  0.1265  0.4500
  676MOL0    Cl89144  -2.521   4.843  -0.763 -0.1033 -0.2118  0.0493
  676MOL0     C89145  -1.466   4.634  -1.007 -0.7009 -0.0743  0.3773
  676MOL0     C89146  -1.322   4.619  -0.979 -0.3603 -0.1835 -0.4627
  676MOL0     O89147  -1.148   4.364  -0.762 -0.3695 -0.2663  0.2560
  676MOL0     C89148  -0.899   4.269  -0.774 -0.0583 -0.1191 -0.0102
  676MOL0     C89149  -0.766   4.228  -0.779 -0.3605  0.0377  0.0427
  676MOL0     N89150  -0.120   4.222  -0.345  0.3010  0.9328 -0.4390
  676MOL0     N89151  -0.029   4.225  -0.245 -0.5427 -0.0435  0.3325
  676MOL0     C89152   0.640   3.548   0.275  0.2859  0.3914 -0.1208
  676MOL0     C89153   0.766   3.540   0.318  0.4154 -0.1375  0.7206
  676MOL0     C89154   1.182   3.400   0.345  0.1467  0.5229 -0.2787
  676MOL0     C89155   1.289   3.316   0.310  0.6030  0.7094 -0.1993
  676MOL0     C89156   1.417   3.347   0.350  0.4524  1.1280  0.0027
  676MOL0     C89157   1.450   3.455   0.440  0.0032  0.0294  0.2383
  676MOL0     O89158   1.574   3.467   0.479  0.0907  0.4643  0.1964
  676MOL0     C89159   1.606   3.593   0.534 -0.5428  0.2483 -0.4953
  676MOL0     C89160   1.758   3.609   0.538 -0.0820  0.5407  1.2295
  676MOL0     C89161   1.796   3.742   0.613  0.5760  0.0660  0.4992
  676MOL0     C89162   1.777   3.740   0.763  0.5380 -0.7047  0.0894
  676MOL0     C89163   1.846   3.628   0.820 -0.9511  0.3176 -0.4687
  676MOL0     C89164   1.919   3.548   0.876  0.5824  0.1443  0.9571
  676MOL0     C89165   1.346   3.526   0.487 -0.2120 -0.5761 -0.5473
  676MOL0     C89166   1.212   3.508   0.432  0.0683 -0.4098  0.3646
  676MOL0     H89167   0.807   3.217   0.227 -0.9172  0.3092 -0.5527
  676MOL0     H89168   0.555   3.250   0.165 -1.8815  1.1365  2.0521
  676MOL0     H89169   0.304   3.377   0.050  0.4045  0.5608 -0.0603
  676MOL0     H89170   0.466   3.384  -0.023  0.0249  0.9216 -1.7788
  676MOL0     H89171   0.292   3.524  -0.134 -1.1764  0.5624  0.4495
  676MOL0     H89172   0.445   3.598  -0.095 -0.5451  0.2748 -0.9243
  676MOL0     H89173   0.330   3.698   0.122 -2.8078  1.5852  1.6862
  676MOL0     H89174   0.182   3.610   0.075  0.6804 -0.0772  1.8255
  676MOL0     H89175   0.342   3.819  -0.081  0.2044 -1.4488  0.3698
  676MOL0     H89176   0.188   3.753  -0.139  2.3987 -1.6296 -0.2169
  676MOL0     H89177   0.258   3.938   0.098  1.1072  0.1124 -0.7869
  676MOL0     H89178   0.103   3.856   0.086  1.1029 -1.1818  0.6598
  676MOL0     H89179   0.075   4.074   0.005  0.9408  1.1738  0.1628
  676MOL0     H89180   0.072   3.969  -0.146 -1.3231 -1.6001  1.4203
  676MOL0     H89181   0.334   4.085  -0.071  2.7229 -4.0846 -2.6474
  676MOL0     H89182   0.292   4.027  -0.224  2.4314  0.2715  1.7360
  676MOL0     H89183   0.299   4.262  -0.247  0.5066 -1.5740  0.5197
  676MOL0     H89184   0.181   4.298  -0.124 -0.6056  2.4246 -2.2191
  676MOL0     H89185   0.177   4.196  -0.492  0.3030 -2.8848  2.4133
  676MOL0     H89186  -0.065   4.126  -0.661 -1.5061 -1.5869  2.7197
  676MOL0     H89187  -0.068   4.301  -0.662 -0.7169  0.9103 -0.0598
  676MOL0     H89188  -0.280   4.305  -0.519 -2.0155  1.3797 -1.7812
  676MOL0     H89189  -0.285   4.137  -0.533 -0.3850  0.3477  0.7209
  676MOL0     H89190  -0.300   4.358  -0.740  2.6071 -0.7440 -1.4242
  676MOL0     H89191  -0.279   4.192  -0.801  0.0009 -0.6999 -0.3026
  676MOL0     H89192  -0.525   4.269  -0.620  0.2277  0.3859  0.2581
  676MOL0     H89193  -0.485   4.121  -0.705 -2.9159  0.4777 -2.9904
  676MOL0     H89194  -0.638   4.473  -0.970  0.6110 -0.0387 -0.4674
  676MOL0     H89195  -0.876   4.536  -0.975  1.9567  0.8838  0.6066
  676MOL0     H89196  -1.295   4.296  -0.959  2.8189  0.9167 -0.6078
  676MOL0     H89197  -1.544   4.309  -1.004  0.7894 -1.0473  0.6341
  676MOL0     H89198  -1.712   4.447  -0.893  1.0011  0.1816 -1.0207
  676MOL0     H89199  -1.780   4.377  -1.045 -1.5314 -0.1008 -1.0424
  676MOL0     H89200  -1.959   4.473  -0.912  0.6938 -0.2517 -0.6848
  676MOL0     H89201  -1.916   4.590  -1.051  2.2035  1.3592 -0.3206
  676MOL0     H89202  -1.798   4.728  -0.889  1.9337 -1.8557 -1.4208
  676MOL0     H89203  -1.818   4.617  -0.768 -2.4978 -0.0322  0.8624
  676MOL0     H89204  -2.052   4.613  -0.771 -0.3310  0.2573  0.9662
  676MOL0     H89205  -1.976   4.746  -0.692 -0.2919 -0.7848  0.2533
  676MOL0     H89206  -2.068   4.777  -0.988 -0.7293  0.1185 -0.5383
  676MOL0     H89207  -2.044   4.901  -0.875  2.1074  0.0177 -3.3682
  676MOL0     H89208  -2.266   4.687  -0.829  0.4889  0.2563  2.4606
  676MOL0     H89209  -2.288   4.840  -0.910 -1.4516  1.7221  1.6270
  676MOL0     H89210  -2.188   4.809  -0.628 -1.6057 -0.9188  0.0265
  676MOL0     H89211  -2.239   4.958  -0.702  3.8592 -0.2784  2.3401
  676MOL0     H89212  -2.412   4.886  -0.557 -0.6830  1.8529 -1.0102
  676MOL0     H89213  -2.388   4.718  -0.602 -0.1183  0.1263  0.4770
  676MOL0     H89214  -1.510   4.732  -0.991  1.3100  0.6593  1.8374
  676MOL0     H89215  -1.262   4.709  -0.972  2.9642 -2.2181 -0.8862
  676MOL0     H89216  -0.969   4.215  -0.711  0.8395  2.2343  3.2648
  676MOL0     H89217  -0.731   4.145  -0.719 -1.6676 -0.4853  0.0973
  676MOL0     H89218   0.605   3.645   0.309  3.0099  0.8692  1.6315
  676MOL0     H89219   0.806   3.617   0.383 -0.4194 -0.5033  1.7051
  676MOL0     H89220   1.269   3.234   0.242 -1.6280  1.1018 -0.0848
  676MOL0     H89221   1.497   3.278   0.322 -0.5826  0.4855 -1.5155
  676MOL0     H89222   1.567   3.595   0.636 -1.4635 -2.3313 -0.7402
  676MOL0     H89223   1.561   3.679   0.483 -1.7088  0.3982  0.7279
  676MOL0     H89224   1.817   3.531   0.587  1.0652  0.9866  0.6049
  676MOL0     H89225   1.806   3.623   0.440 -1.6195  2.3041  0.6449
  676MOL0     H89226   1.733   3.815   0.561  1.4615  1.4497  1.2936
  676MOL0     H89227   1.901   3.759   0.591  0.2922  0.6177 -0.5225
  676MOL0     H89228   1.821   3.831   0.804 -0.4087 -0.1951  0.0023
  676MOL0     H89229   1.672   3.744   0.792  0.3956  1.3860 -0.5876
  676MOL0     H89230   1.961   3.457   0.915 -1.4608 -2.3392 -2.1617
  676MOL0     H89231   1.360   3.616   0.547 -0.7899  0.7975 -2.3644
  676MOL0     H89232   1.124   3.565   0.459 -1.3865 -2.1299 -0.4665
  677MOL0     O89233   4.265   7.237   3.236 -0.1350 -1.1702  0.2573
  677MOL0     C89234   4.307   7.119   3.232 -0.2299  0.0870 -0.3538
  677MOL0     O89235   4.227   7.005   3.221  0.1730  0.3257  0.1859
  677MOL0     C89236   4.097   7.023   3.220 -0.1959 -0.4172  0.6304
  677MOL0     C89237   4.021   7.014   3.095 -1.4886  0.9101  0.2728
  677MOL0     C89238   3.876   7.014   3.107 -0.0911  0.7634 -0.7498
  677MOL0     C89239   3.814   7.041   3.228 -0.2771 -0.6113  0.8684
  677MOL0     O89240   3.688   7.068   3.244  0.0084  0.1498  0.1398
  677MOL0     C89241   3.623   6.948   3.295  0.3653 -0.6919 -0.2862
  677MOL0     C89242   3.486   6.992   3.360 -0.2004 -0.1836  0.9097
  677MOL0     C89243   3.488   7.127   3.438  0.4129  0.4803  0.2561
  677MOL0     C89244   3.347   7.153   3.492 -0.1199 -0.5622 -0.5390
  677MOL0     C89245   3.357   7.213   3.633 -0.1903 -0.1168 -0.0377
  677MOL0     C89246   3.224   7.276   3.671 -0.5378  0.1956  0.3112
  677MOL0     C89247   3.234   7.382   3.782 -0.6332 -1.0314 -0.4806
  677MOL0     C89248   3.096   7.399   3.836  0.2050 -0.4222 -0.7139
  677MOL0     N89249   3.087   7.513   3.925  0.1892  0.4472 -0.2786
  677MOL0     C89250   3.063   7.637   3.881  0.0823 -0.8853 -0.2979
  677MOL0     C89251   3.081   7.714   3.996  0.4112 -0.9587 -0.5263
  677MOL0     C89252   3.080   7.867   4.006 -0.3777  0.0488  0.0173
  677MOL0     C89253   3.040   7.950   3.888  0.1338  0.1050 -0.2308
  677MOL0     C89254   3.156   7.950   3.788  0.2965 -0.4111 -0.6937
  677MOL0     C89255   3.125   8.022   3.658 -1.0797 -0.5189  0.0321
  677MOL0     O89256   3.015   7.972   3.582  0.7908 -0.1863 -0.6384
  677MOL0     C89257   3.005   7.847   3.527  0.2390 -0.1852 -1.1111
  677MOL0     C89258   3.089   7.803   3.429 -0.9040  0.6721 -0.4105
  677MOL0     C89259   3.056   7.702   3.342  0.4126  0.2931 -0.1761
  677MOL0     C89260   2.945   7.621   3.368  0.1352  0.3206  0.4131
  677MOL0     C89261   2.912   7.497   3.290  0.1707 -0.4022 -0.5183
  677MOL0     O89262   2.789   7.432   3.325 -0.3014  0.3110 -0.2695
  677MOL0     C89263   2.756   7.316   3.260 -0.4054  0.5720 -0.3619
  677MOL0     C89264   2.733   7.194   3.334 -0.3504 -0.0513 -0.2729
  677MOL0     C89265   2.711   7.078   3.259  0.1868  0.1049 -1.1758
  677MOL0     C89266   2.690   7.085   3.119 -0.7200 -0.1086 -0.4660
  677MOL0     O89267   2.652   6.974   3.057 -0.0142 -0.0507  0.2495
  677MOL0     C89268   2.604   6.976   2.923  0.5658 -0.7847  0.1875
  677MOL0     C89269   2.570   6.830   2.875  0.2069 -0.2488  0.5351
  677MOL0     C89270   2.448   6.774   2.932  0.2314  0.7270  0.2151
  677MOL0     C89271   2.411   6.632   2.874  0.8776 -0.6118 -0.0724
  677MOL0     C89272   2.264   6.584   2.914 -0.1302  0.3651 -0.1412
  677MOL0     C89273   2.238   6.447   2.851 -0.7898 -0.3068 -0.7118
  677MOL0     C89274   2.134   6.384   2.938  0.3279 -0.1541 -0.2594
  677MOL0     C89275   2.088   6.260   2.884 -0.1378  0.2477 -0.0723
  677MOL0    Cl89276   1.969   6.184   2.987 -0.1411 -0.3855 -0.0594
  677MOL0     C89277   2.720   7.204   3.051  0.5790 -0.0591 -0.0928
  677MOL0     C89278   2.749   7.321   3.121 -0.5729  0.4615 -0.1177
  677MOL0     O89279   2.987   7.467   3.198 -0.4586  0.9182  0.2385
  677MOL0     C89280   2.866   7.659   3.479 -0.1451  0.5913  0.5484
  677MOL0     C89281   2.888   7.773   3.552 -0.8217  0.6898  0.3106
  677MOL0     N89282   3.101   7.625   4.101 -0.2792  0.5976 -0.6162
  677MOL0     N89283   3.108   7.507   4.054 -0.1956 -0.0792  0.6322
  677MOL0     C89284   3.892   7.062   3.339  0.4564  0.2703 -0.5699
  677MOL0     C89285   4.032   7.056   3.333  0.3318 -0.3149 -0.5879
  677MOL0     C89286   4.456   7.102   3.229  0.5166 -0.3834  0.7094
  677MOL0     C89287   4.546   7.202   3.237 -0.6808 -0.9056 -1.2280
  677MOL0     C89288   4.680   7.181   3.238  0.5764  0.5017 -0.4652
  677MOL0     C89289   4.733   7.050   3.215  1.0775  0.1175  0.1207
  677MOL0     O89290   4.864   7.014   3.209 -0.2720 -0.2541  0.2027
  677MOL0     C89291   4.966   7.124   3.194 -0.6004 -0.2469 -0.8379
  677MOL0     C89292   4.943   7.182   3.054 -1.5569 -0.2122  0.4278
  677MOL0     C89293   5.003   7.099   2.934 -1.0774 -0.2664 -0.5511
  677MOL0     C89294   4.932   7.117   2.801 -0.3235  0.6299  0.2778
  677MOL0     C89295   4.971   7.246   2.747 -0.5098 -0.6494  0.2608
  677MOL0     C89296   5.012   7.355   2.715  0.1607  0.7798 -0.0856
  677MOL0     C89297   4.639   6.945   3.202  0.5300 -0.6353 -0.3639
  677MOL0     C89298   4.505   6.971   3.215  0.0236 -0.8819 -0.6611
  677MOL0     H89299   4.072   7.000   3.000 -2.3385 -0.4590 -0.0120
  677MOL0     H89300   3.816   7.004   3.017  0.3074  2.9725 -1.3033
  677MOL0     H89301   3.678   6.907   3.380  0.3038 -0.5352 -0.1700
  677MOL0     H89302   3.616   6.878   3.211  1.0634  0.3835 -1.2798
  677MOL0     H89303   3.458   6.915   3.432 -0.6468 -0.6628  0.2339
  677MOL0     H89304   3.410   6.992   3.282 -0.1803 -0.6656  0.8884
  677MOL0     H89305   3.508   7.215   3.376 -2.7474  1.0830 -0.0762
  677MOL0     H89306   3.564   7.121   3.516 -1.4741 -1.2334  2.0780
  677MOL0     H89307   3.303   7.226   3.424 -0.1709  1.7573  1.8445
  677MOL0     H89308   3.279   7.067   3.496  0.0738 -0.7466 -1.0930
  677MOL0     H89309   3.429   7.294   3.620 -1.2378  0.6253 -1.6014
  677MOL0     H89310   3.390   7.142   3.709 -0.4947  1.3203  1.4777
  677MOL0     H89311   3.166   7.186   3.694  0.9635 -0.7349  0.5810
  677MOL0     H89312   3.169   7.309   3.583 -2.5897 -5.2150 -0.8750
  677MOL0     H89313   3.294   7.343   3.864 -0.9204  1.9140  1.2449
  677MOL0     H89314   3.270   7.472   3.730 -0.7352 -1.6060 -1.5936
  677MOL0     H89315   3.065   7.308   3.888 -0.4799  0.9388  1.4267
  677MOL0     H89316   3.029   7.405   3.750  1.2387 -2.4339 -1.7223
  677MOL0     H89317   3.031   7.667   3.782 -0.7906 -3.1086 -0.7514
  677MOL0     H89318   3.181   7.897   4.034 -0.7828  1.0959  0.4064
  677MOL0     H89319   3.011   7.886   4.089 -0.8561 -0.0270 -0.3579
  677MOL0     H89320   3.011   8.046   3.932 -0.5657 -1.0081  1.9088
  677MOL0     H89321   2.951   7.910   3.840 -0.5669 -1.4972  2.1973
  677MOL0     H89322   3.246   7.997   3.828  1.4942 -1.5958 -1.9065
  677MOL0     H89323   3.185   7.848   3.760 -0.6974 -0.6998 -0.7103
  677MOL0     H89324   3.206   8.024   3.583 -0.6875 -1.3742  0.4241
  677MOL0     H89325   3.109   8.128   3.679  0.8310  0.1416 -1.4824
  677MOL0     H89326   3.187   7.849   3.425 -0.4080 -0.4433 -1.9120
  677MOL0     H89327   3.123   7.672   3.263  0.6727 -1.5282  0.6778
  677MOL0     H89328   2.768   7.191   3.436 -0.9515  0.7427 -0.0300
  677MOL0     H89329   2.689   6.994   3.323 -3.0698 -0.5717 -2.9385
  677MOL0     H89330   2.683   7.017   2.860  1.6824 -0.9382  1.4381
  677MOL0     H89331   2.511   7.033   2.921 -0.3982 -2.2377  1.5750
  677MOL0     H89332   2.657   6.767   2.896 -0.3669 -1.2485 -0.0323
  677MOL0     H89333   2.553   6.843   2.768  0.5710 -0.2643  0.4762
  677MOL0     H89334   2.360   6.837   2.916 -3.3261 -2.5925  4.2718
  677MOL0     H89335   2.456   6.774   3.041  0.4987 -1.2500  0.2265
  677MOL0     H89336   2.422   6.644   2.766  1.8252  0.0134  0.0795
  677MOL0     H89337   2.479   6.560   2.919  1.0655 -1.0280 -0.9980
  677MOL0     H89338   2.179   6.654   2.909  1.3476  2.2915  0.4267
  677MOL0     H89339   2.281   6.573   3.021 -0.0059  0.3994 -0.1574
  677MOL0     H89340   2.329   6.387   2.861  2.4311  3.8080 -2.1230
  677MOL0     H89341   2.193   6.458   2.752  0.0064  0.9094 -0.9561
  677MOL0     H89342   2.175   6.358   3.036 -3.2167 -3.0393  0.6942
  677MOL0     H89343   2.051   6.451   2.958 -0.8218 -0.9348 -2.1148
  677MOL0     H89344   2.172   6.196   2.857  1.5630  1.5902  1.7275
  677MOL0     H89345   2.037   6.284   2.790  1.0155 -0.4464 -0.9040
  677MOL0     H89346   2.719   7.213   2.943 -0.3437 -0.1774 -0.1043
  677MOL0     H89347   2.781   7.410   3.069 -1.3021  2.3373  2.4310
  677MOL0     H89348   2.768   7.613   3.489 -0.6783  1.4855 -0.3775
  677MOL0     H89349   2.819   7.810   3.627  0.8743  0.8176  1.8782
  677MOL0     H89350   3.856   7.096   3.436 -2.3828 -0.4153 -1.2924
  677MOL0     H89351   4.093   7.079   3.420 -0.8112 -1.4925  0.5559
  677MOL0     H89352   4.506   7.302   3.251  2.2142  0.0553  1.0769
  677MOL0     H89353   4.752   7.261   3.249 -0.3111  1.7315 -2.8379
  677MOL0     H89354   5.070   7.094   3.205 -0.5772 -0.0710 -0.5766
  677MOL0     H89355   4.957   7.205   3.266 -0.2541  0.2314 -1.3207
  677MOL0     H89356   4.836   7.187   3.032 -1.3854  1.1850 -0.2201
  677MOL0     H89357   4.965   7.288   3.043 -0.3837 -0.5400 -0.6129
  677MOL0     H89358   4.987   6.993   2.958 -3.6144  0.0450 -0.6043
  677MOL0     H89359   5.109   7.126   2.938 -1.4068  1.1246  3.1930
  677MOL0     H89360   4.960   7.044   2.725 -1.3473 -0.6252  1.0520
  677MOL0     H89361   4.825   7.111   2.826 -0.1455  0.0164  0.9289
  677MOL0     H89362   5.065   7.445   2.689  1.7444 -0.1036 -0.0315
  677MOL0     H89363   4.675   6.843   3.196  2.7907  0.1360 -0.8496
  677MOL0     H89364   4.439   6.885   3.214 -1.5427  0.2657 -1.7544
  678MOL0     O89365   1.542   1.133   4.586 -0.3015  0.0430  0.0391
  678MOL0     C89366   1.552   1.243   4.537  0.3108 -0.2333 -0.1033
  678MOL0     O89367   1.443   1.322   4.496 -0.2911  0.4178 -0.6441
  678MOL0     C89368   1.316   1.278   4.469  0.4450 -0.2214  0.6108
  678MOL0     C89369   1.278   1.147   4.439 -0.2630  0.4977 -0.7437
  678MOL0     C89370   1.157   1.121   4.389  0.3989  0.0928 -0.5862
  678MOL0     C89371   1.057   1.224   4.383  0.6022  0.6970 -0.2485
  678MOL0     O89372   0.931   1.207   4.334  0.2110 -0.1208  0.1196
  678MOL0     C89373   0.874   1.082   4.304  0.8050  0.6626 -0.9533
  678MOL0     C89374   0.728   1.116   4.247 -0.0870 -0.7451  0.1604
  678MOL0     C89375   0.650   1.206   4.336  0.0411  0.1294 -0.3805
  678MOL0     C89376   0.502   1.188   4.327  0.4498 -0.2394 -0.8534
  678MOL0     C89377   0.440   1.283   4.437 -0.2830  0.0787  0.8948
  678MOL0     C89378   0.286   1.275   4.446  0.4656  0.1753  0.7712
  678MOL0     C89379   0.200   1.323   4.330 -0.2610 -0.1397 -0.2129
  678MOL0     C89380   0.059   1.337   4.385 -1.6920 -0.4553 -0.8547
  678MOL0     N89381  -0.041   1.351   4.282 -0.4810  0.3920  0.5175
  678MOL0     C89382  -0.036   1.449   4.188 -0.0263 -0.3975 -0.1647
  678MOL0     C89383  -0.132   1.425   4.098  0.2300 -0.0349  0.1881
  678MOL0     C89384  -0.168   1.509   3.978  0.4787 -0.1856 -0.8248
  678MOL0     C89385  -0.323   1.509   3.967 -0.5194 -0.4323  0.0564
  678MOL0     C89386  -0.377   1.440   3.850  0.1249  0.3109  0.2041
  678MOL0     C89387  -0.373   1.286   3.861  0.6562  0.6186  1.5264
  678MOL0     O89388  -0.412   1.234   3.734  0.2832 -0.3130 -0.0386
  678MOL0     C89389  -0.538   1.245   3.690  0.0125  0.5576  0.2029
  678MOL0     C89390  -0.558   1.215   3.558  0.4460 -0.4892  0.1328
  678MOL0     C89391  -0.676   1.250   3.490 -0.2020  0.0416 -0.2888
  678MOL0     C89392  -0.779   1.307   3.563 -0.7985 -0.7295 -0.3439
  678MOL0     C89393  -0.906   1.341   3.496 -0.4249 -0.5757 -0.2248
  678MOL0     O89394  -0.901   1.316   3.359 -0.3851  0.7941 -0.0795
  678MOL0     C89395  -1.005   1.371   3.284  0.5212  0.5711 -0.8149
  678MOL0     C89396  -1.081   1.279   3.212  0.6900 -0.6975  0.2834
  678MOL0     C89397  -1.178   1.335   3.112  0.1858  0.3327 -0.2259
  678MOL0     C89398  -1.191   1.475   3.099 -0.1761  0.4889 -0.0762
  678MOL0     O89399  -1.259   1.540   2.995  0.3313 -0.5224  0.3166
  678MOL0     C89400  -1.294   1.455   2.889  0.3282 -0.1357 -0.6272
  678MOL0     C89401  -1.380   1.529   2.781 -0.4635 -1.0706 -0.8298
  678MOL0     C89402  -1.516   1.576   2.831  0.9971 -0.3785  0.3049
  678MOL0     C89403  -1.570   1.661   2.710 -0.6239  0.3753 -0.0563
  678MOL0     C89404  -1.711   1.708   2.747  0.3887  0.5615 -0.0134
  678MOL0     C89405  -1.741   1.835   2.659 -0.5095  0.6662  0.7777
  678MOL0     C89406  -1.885   1.887   2.662  0.2089  0.2120 -0.3078
  678MOL0     C89407  -1.913   1.997   2.562  1.0402  0.6524  0.6432
  678MOL0    Cl89408  -1.896   1.931   2.397  0.0300  0.0375 -0.4079
  678MOL0     C89409  -1.119   1.553   3.189  0.6350  0.0653  0.5561
  678MOL0     C89410  -1.035   1.504   3.277 -0.4983  0.6779  0.2171
  678MOL0     O89411  -1.000   1.393   3.562 -0.3883 -0.2120  0.4281
  678MOL0     C89412  -0.759   1.324   3.704 -0.0412  1.2101  0.1808
  678MOL0     C89413  -0.644   1.299   3.768  0.5736  1.2289  0.3960
  678MOL0     N89414  -0.187   1.298   4.128  0.6099  0.5720 -0.1636
  678MOL0     N89415  -0.131   1.262   4.240 -0.1078 -1.4453  0.6105
  678MOL0     C89416   1.088   1.349   4.427  0.0935 -1.2775  0.5249
  678MOL0     C89417   1.220   1.380   4.462  0.5782  0.3281  0.3744
  678MOL0     C89418   1.690   1.295   4.521  0.0413 -0.6292  0.3128
  678MOL0     C89419   1.706   1.423   4.453 -0.2632 -0.0100 -0.3943
  678MOL0     C89420   1.836   1.482   4.437  0.3369  0.8509  0.8314
  678MOL0     C89421   1.950   1.418   4.484  0.3473 -0.1763  0.4782
  678MOL0     O89422   2.069   1.479   4.464  0.0926  0.0720  0.0759
  678MOL0     C89423   2.192   1.415   4.506  0.4728 -0.5430  0.1225
  678MOL0     C89424   2.306   1.511   4.465 -0.9535 -0.7175  0.2792
  678MOL0     C89425   2.307   1.535   4.312  0.8398 -0.4833 -0.1649
  678MOL0     C89426   2.421   1.453   4.247  0.1683 -0.0150  0.1867
  678MOL0     C89427   2.403   1.309   4.257  0.5641 -0.1420 -1.0477
  678MOL0     C89428   2.384   1.186   4.270  0.7048  0.0825  0.5728
  678MOL0     C89429   1.930   1.295   4.547  0.8139  0.2927  0.6965
  678MOL0     C89430   1.806   1.236   4.566 -0.1751  0.6198 -0.7108
  678MOL0     H89431   1.350   1.068   4.457 -1.6133 -0.5816  0.1488
  678MOL0     H89432   1.140   1.017   4.360  0.5077  0.2369 -1.1810
  678MOL0     H89433   0.868   1.017   4.392 -0.5106  0.0269 -1.4891
  678MOL0     H89434   0.930   1.028   4.228  0.1028 -2.6768  0.7059
  678MOL0     H89435   0.679   1.020   4.227  1.6428 -2.1234  2.0765
  678MOL0     H89436   0.735   1.163   4.149 -1.2716 -1.8895 -0.5031
  678MOL0     H89437   0.683   1.309   4.322 -1.2733  0.7976  1.1505
  678MOL0     H89438   0.687   1.193   4.438 -0.4205  2.4317  0.1303
  678MOL0     H89439   0.454   1.221   4.234 -1.7012 -1.2941 -0.1836
  678MOL0     H89440   0.471   1.084   4.340  1.1445 -0.3693 -0.1897
  678MOL0     H89441   0.460   1.387   4.410  0.3133 -0.4929 -1.0104
  678MOL0     H89442   0.478   1.259   4.537 -1.3044 -2.6048  0.7251
  678MOL0     H89443   0.255   1.332   4.534 -0.4648 -1.0180  1.2477
  678MOL0     H89444   0.267   1.167   4.452  1.2071 -0.0322 -0.1957
  678MOL0     H89445   0.249   1.410   4.286  0.7093 -0.2653  0.5889
  678MOL0     H89446   0.193   1.245   4.253  2.4916 -0.2086 -0.4747
  678MOL0     H89447   0.057   1.421   4.455  2.1500 -2.4552  1.9742
  678MOL0     H89448   0.038   1.250   4.447  1.4625 -0.8256 -0.1486
  678MOL0     H89449   0.035   1.531   4.179 -0.0526 -0.5503 -2.2777
  678MOL0     H89450  -0.124   1.470   3.886 -0.9144 -0.3345 -1.4575
  678MOL0     H89451  -0.129   1.611   3.990 -1.0160  0.5621 -1.9600
  678MOL0     H89452  -0.335   1.616   3.951  2.6547  0.0023 -0.0414
  678MOL0     H89453  -0.375   1.470   4.056 -2.8914 -0.2432 -1.1635
  678MOL0     H89454  -0.477   1.483   3.838  0.7386  1.9383  0.6931
  678MOL0     H89455  -0.323   1.475   3.762  0.2145  0.2272  0.2261
  678MOL0     H89456  -0.440   1.257   3.942 -2.5325  1.8586 -0.4592
  678MOL0     H89457  -0.270   1.255   3.875  1.4933  2.6528  0.3905
  678MOL0     H89458  -0.471   1.183   3.501  0.5489  0.1153 -0.0528
  678MOL0     H89459  -0.679   1.228   3.384 -1.2466 -1.7260  0.0715
  678MOL0     H89460  -1.067   1.172   3.205 -3.4182 -1.3463 -0.7256
  678MOL0     H89461  -1.226   1.258   3.054  0.3168  0.5381 -0.6157
  678MOL0     H89462  -1.347   1.372   2.937  1.2667 -0.5732 -0.3296
  678MOL0     H89463  -1.200   1.418   2.846  0.8373  0.5402 -0.1247
  678MOL0     H89464  -1.390   1.460   2.696  2.2635 -0.3329 -1.8428
  678MOL0     H89465  -1.326   1.618   2.748 -1.9639 -0.0549 -0.6824
  678MOL0     H89466  -1.504   1.635   2.922 -0.2801  0.8282 -0.2799
  678MOL0     H89467  -1.588   1.496   2.847 -0.5004  0.4246 -1.9554
  678MOL0     H89468  -1.511   1.748   2.681 -4.0789  1.9732 -3.1081
  678MOL0     H89469  -1.561   1.592   2.625  2.9925  0.3005  0.2395
  678MOL0     H89470  -1.720   1.740   2.851 -0.3825 -0.4875  0.2594
  678MOL0     H89471  -1.776   1.621   2.738 -2.0596  2.2334  0.3830
  678MOL0     H89472  -1.714   1.800   2.559 -2.4607  0.4836  0.2745
  678MOL0     H89473  -1.666   1.910   2.684  1.2352  0.1556 -2.4219
  678MOL0     H89474  -1.945   1.801   2.632 -1.9290  2.3376 -2.5732
  678MOL0     H89475  -1.910   1.917   2.764  0.6852  1.6751 -0.5957
  678MOL0     H89476  -1.837   2.070   2.593  3.3659 -1.5601  0.4610
  678MOL0     H89477  -2.016   2.030   2.574 -0.4599 -3.0923 -0.4684
  678MOL0     H89478  -1.127   1.661   3.182 -3.1212 -0.1151 -0.2169
  678MOL0     H89479  -0.980   1.570   3.343 -0.7559  1.1568 -0.0460
  678MOL0     H89480  -0.840   1.370   3.760 -0.0664  1.7283 -0.2735
  678MOL0     H89481  -0.629   1.318   3.874 -1.4211  2.6394  0.4695
  678MOL0     H89482   1.006   1.420   4.422  2.5133  1.6270 -2.5279
  678MOL0     H89483   1.246   1.479   4.496 -1.8548  1.3151 -0.4018
  678MOL0     H89484   1.617   1.476   4.423 -1.0268  0.2659  2.0802
  678MOL0     H89485   1.858   1.577   4.390  1.3460  1.8503  3.1317
  678MOL0     H89486   2.207   1.321   4.452  0.6141 -0.0837 -0.6409
  678MOL0     H89487   2.192   1.403   4.615 -0.7867  3.2691  0.6896
  678MOL0     H89488   2.284   1.607   4.513  0.0655 -0.1033 -0.4328
  678MOL0     H89489   2.403   1.481   4.506 -1.1079  0.1478  1.3461
  678MOL0     H89490   2.313   1.641   4.286 -2.6142 -0.2756 -0.6162
  678MOL0     H89491   2.218   1.503   4.257 -0.3570 -0.1329  1.4964
  678MOL0     H89492   2.443   1.470   4.142 -2.3760 -2.2557 -0.8255
  678MOL0     H89493   2.507   1.483   4.309 -0.9558  3.0505  0.4595
  678MOL0     H89494   2.368   1.081   4.264  0.8760  0.1041 -0.5700
  678MOL0     H89495   2.020   1.252   4.590  1.0958  1.7643  1.6619
  678MOL0     H89496   1.801   1.143   4.622  1.0795  0.9061 -0.0965
  679MOL0     O89497  10.158   8.176   9.179  0.0099  0.6456 -0.0832
  679MOL0     C89498  10.166   8.279   9.234 -0.9201  0.0796  0.4682
  679MOL0     O89499  10.066   8.360   9.274  0.9022  0.2665 -0.4723
  679MOL0     C89500   9.943   8.339   9.225 -0.4913  0.0793 -0.0128
  679MOL0     C89501   9.920   8.346   9.084 -0.8196 -1.0669 -0.0360
  679MOL0     C89502   9.790   8.311   9.046 -0.3471  0.4134 -0.0122
  679MOL0     C89503   9.688   8.261   9.136  0.3428  0.2527 -0.3599
  679MOL0     O89504   9.574   8.213   9.075 -0.1193  0.3493 -0.1494
  679MOL0     C89505   9.448   8.217   9.146 -0.1627  0.0706  0.2349
  679MOL0     C89506   9.347   8.123   9.078 -0.3495  0.4694 -0.0964
  679MOL0     C89507   9.295   8.176   8.948  0.1332  0.1756 -0.2769
  679MOL0     C89508   9.187   8.088   8.887 -0.0580 -0.6756 -0.3698
  679MOL0     C89509   9.067   8.171   8.847  0.6470 -0.2882  0.4505
  679MOL0     C89510   8.987   8.233   8.957  0.2032 -0.3698  0.2401
  679MOL0     C89511   8.855   8.295   8.903  0.9740  0.4717  0.4253
  679MOL0     C89512   8.876   8.415   8.810  0.4252  0.3913  0.4570
  679MOL0     N89513   8.752   8.457   8.747 -0.6042 -0.4164 -0.9506
  679MOL0     C89514   8.677   8.387   8.668 -0.0671  0.1025  0.5551
  679MOL0     C89515   8.587   8.473   8.610  0.7752  0.0924  0.6358
  679MOL0     C89516   8.493   8.429   8.504  0.5726 -0.0927  0.8185
  679MOL0     C89517   8.351   8.390   8.555 -0.4360 -0.5651 -0.5532
  679MOL0     C89518   8.254   8.357   8.439 -0.4559  0.0969  0.1498
  679MOL0     C89519   8.224   8.473   8.337 -0.2696  0.2187 -0.6882
  679MOL0     O89520   8.122   8.565   8.383 -0.2937  0.5782  0.7291
  679MOL0     C89521   7.993   8.547   8.330  0.6287 -0.3557 -0.4370
  679MOL0     C89522   7.953   8.427   8.267  0.5618  0.2576 -0.0104
  679MOL0     C89523   7.821   8.412   8.217  0.0860 -0.6288 -0.5361
  679MOL0     C89524   7.724   8.517   8.231  0.3997  1.0502  1.3077
  679MOL0     C89525   7.594   8.503   8.165  0.4950 -0.4792 -0.7115
  679MOL0     O89526   7.517   8.622   8.162  0.0637  0.6961  0.5262
  679MOL0     C89527   7.400   8.611   8.091 -0.3422 -0.3426 -0.3756
  679MOL0     C89528   7.397   8.625   7.951  0.1052  0.7062  0.6442
  679MOL0     C89529   7.285   8.598   7.878 -1.1350  0.9996  0.1677
  679MOL0     C89530   7.173   8.556   7.945  0.5460 -0.6020 -0.3776
  679MOL0     O89531   7.055   8.526   7.878  0.3170  0.0318  0.0851
  679MOL0     C89532   7.061   8.440   7.762 -0.2799  0.3347  0.1453
  679MOL0     C89533   6.912   8.446   7.702 -0.6761  0.8860 -0.4310
  679MOL0     C89534   6.802   8.407   7.795 -0.3737  0.2333  0.3246
  679MOL0     C89535   6.671   8.400   7.728 -0.2250 -0.6351 -0.0698
  679MOL0     C89536   6.602   8.541   7.714 -0.2426  1.2246 -0.7055
  679MOL0     C89537   6.457   8.526   7.662 -0.7089 -0.5654  0.0950
  679MOL0     C89538   6.371   8.446   7.762  0.3470 -1.0193  0.2287
  679MOL0     C89539   6.222   8.454   7.733  0.9945 -0.0846 -0.5721
  679MOL0    Cl89540   6.147   8.315   7.822 -0.2607  0.3379  0.3423
  679MOL0     C89541   7.160   8.548   8.086  0.2033 -1.0280  0.0126
  679MOL0     C89542   7.276   8.583   8.154  1.0234  0.1745 -0.4701
  679MOL0     O89543   7.565   8.396   8.115  0.0068  0.5265 -0.3223
  679MOL0     C89544   7.764   8.632   8.293 -0.0797 -0.5801  0.1986
  679MOL0     C89545   7.896   8.651   8.340  0.2563  0.1040 -0.9142
  679MOL0     N89546   8.621   8.599   8.654 -0.2980 -0.2647 -0.6032
  679MOL0     N89547   8.722   8.587   8.734  0.0287 -0.8910 -0.4626
  679MOL0     C89548   9.720   8.267   9.272 -0.0520  0.8446  0.1913
  679MOL0     C89549   9.845   8.305   9.310  0.0918 -0.0921 -0.5733
  679MOL0     C89550  10.305   8.307   9.285  0.7328 -0.1757  0.2607
  679MOL0     C89551  10.417   8.241   9.235 -0.5485 -0.2427  0.2666
  679MOL0     C89552  10.542   8.275   9.285 -0.3598 -1.2290  0.1148
  679MOL0     C89553  10.557   8.379   9.381  0.2250  1.2846  0.4723
  679MOL0     O89554  10.675   8.419   9.432  0.2057 -0.4556  0.0170
  679MOL0     C89555  10.785   8.376   9.360  0.6809  0.2814 -0.1392
  679MOL0     C89556  10.909   8.422   9.421  0.4637  0.0010 -0.3663
  679MOL0     C89557  10.926   8.573   9.411  0.1983  0.4313 -0.4133
  679MOL0     C89558  11.052   8.608   9.485  0.1148  0.0118 -0.4983
  679MOL0     C89559  11.180   8.588   9.410 -0.1501 -0.2707  0.1942
  679MOL0     C89560  11.287   8.574   9.349  1.7426  0.2176  0.4500
  679MOL0     C89561  10.451   8.448   9.431 -0.2578 -0.4086  0.0152
  679MOL0     C89562  10.324   8.410   9.378  0.4324  0.0675 -0.6992
  679MOL0     H89563  10.003   8.373   9.020 -0.1832  0.3329  1.3047
  679MOL0     H89564   9.775   8.312   8.939  0.3952  1.2448 -0.1189
  679MOL0     H89565   9.405   8.317   9.133 -1.9057 -0.8936 -2.4863
  679MOL0     H89566   9.457   8.195   9.252  2.0835 -2.7967 -0.4222
  679MOL0     H89567   9.270   8.095   9.151  1.0081 -2.7886  0.2352
  679MOL0     H89568   9.398   8.028   9.063  0.4248  1.2947 -3.3873
  679MOL0     H89569   9.378   8.192   8.880  0.3887 -0.4186 -0.1134
  679MOL0     H89570   9.251   8.275   8.966 -0.8106 -0.5060  1.5526
  679MOL0     H89571   9.229   8.039   8.798  1.8855  0.4708 -0.1245
  679MOL0     H89572   9.157   8.018   8.965  1.4019  0.4364  1.2718
  679MOL0     H89573   9.003   8.109   8.784  1.5551 -1.1524  0.3639
  679MOL0     H89574   9.107   8.247   8.779  2.0379  0.0827  1.6453
  679MOL0     H89575   9.046   8.313   9.004  2.7509 -2.5217  0.9637
  679MOL0     H89576   8.961   8.154   9.028  0.2692 -1.0608 -0.4848
  679MOL0     H89577   8.799   8.217   8.850 -1.7958  1.5958  1.4928
  679MOL0     H89578   8.786   8.320   8.983 -1.2759 -2.9444 -0.2334
  679MOL0     H89579   8.939   8.381   8.727 -0.5295 -1.2959  0.3796
  679MOL0     H89580   8.915   8.507   8.854  1.9108 -0.0940  0.1997
  679MOL0     H89581   8.678   8.280   8.648  1.2321  0.3823 -0.9991
  679MOL0     H89582   8.541   8.343   8.456  1.0946 -0.7972  2.5073
  679MOL0     H89583   8.493   8.511   8.433 -1.6897  1.5257  2.5154
  679MOL0     H89584   8.311   8.472   8.615 -1.7878 -0.1363 -1.9679
  679MOL0     H89585   8.361   8.303   8.620 -1.0447  0.0631  0.4174
  679MOL0     H89586   8.293   8.273   8.380 -2.2950  0.5390 -1.8580
  679MOL0     H89587   8.158   8.320   8.477 -0.1389  0.3038  1.1707
  679MOL0     H89588   8.211   8.429   8.238  0.2287 -3.5155  0.7399
  679MOL0     H89589   8.314   8.534   8.326  0.4671 -1.1057 -2.6659
  679MOL0     H89590   8.027   8.348   8.261  0.3220 -0.1951  1.9967
  679MOL0     H89591   7.795   8.318   8.168 -4.2932  0.7130 -1.1687
  679MOL0     H89592   7.486   8.657   7.899  1.3011 -3.1239  0.0239
  679MOL0     H89593   7.304   8.595   7.771 -0.3545 -0.4860  0.3266
  679MOL0     H89594   7.089   8.344   7.807 -0.5499 -0.1525 -0.7076
  679MOL0     H89595   7.131   8.459   7.681 -0.7892 -2.6505 -1.1383
  679MOL0     H89596   6.901   8.380   7.616  1.3251 -3.0105  2.0005
  679MOL0     H89597   6.908   8.547   7.661  0.7802  0.1184 -2.6199
  679MOL0     H89598   6.802   8.487   7.870 -1.7125 -0.5537  1.2177
  679MOL0     H89599   6.829   8.308   7.832  0.0660 -0.9894 -2.9619
  679MOL0     H89600   6.677   8.362   7.625 -1.0615 -0.2431 -0.2764
  679MOL0     H89601   6.605   8.331   7.782  0.1321 -0.7297  0.2474
  679MOL0     H89602   6.664   8.596   7.642  1.6709  2.5110  1.7716
  679MOL0     H89603   6.600   8.600   7.806 -2.5294 -1.0323  0.8386
  679MOL0     H89604   6.451   8.477   7.564 -0.0110  0.3865 -0.4329
  679MOL0     H89605   6.408   8.623   7.648 -2.0609 -1.5756 -3.0811
  679MOL0     H89606   6.402   8.342   7.754  4.1016  0.0568 -1.1474
  679MOL0     H89607   6.378   8.475   7.868 -4.5184  4.2225 -0.4009
  679MOL0     H89608   6.198   8.455   7.626  1.5221 -1.3809 -0.7159
  679MOL0     H89609   6.186   8.552   7.768  0.9481 -0.3098  0.0197
  679MOL0     H89610   7.069   8.519   8.137 -1.4179  0.9646 -1.5514
  679MOL0     H89611   7.275   8.555   8.259 -0.8000 -1.2321 -0.8033
  679MOL0     H89612   7.701   8.719   8.288  1.7585  0.8350  0.5659
  679MOL0     H89613   7.912   8.742   8.397  0.5786 -0.8245  0.5365
  679MOL0     H89614   9.654   8.223   9.347  0.6826 -0.9220 -0.1572
  679MOL0     H89615   9.857   8.312   9.418 -2.5684 -0.6244 -0.1837
  679MOL0     H89616  10.421   8.163   9.160  0.5829  1.4699 -1.5532
  679MOL0     H89617  10.623   8.216   9.244  0.0464  0.3745 -1.4835
  679MOL0     H89618  10.779   8.399   9.253 -2.2101  2.1492  0.3250
  679MOL0     H89619  10.785   8.268   9.379 -1.8214  0.1402 -0.5810
  679MOL0     H89620  10.913   8.388   9.524  2.1811 -1.8149 -0.9670
  679MOL0     H89621  10.991   8.382   9.360 -1.6311  0.2696 -3.6480
  679MOL0     H89622  10.839   8.620   9.456  0.8797  1.3102 -0.0057
  679MOL0     H89623  10.941   8.614   9.311 -0.2368 -2.0041 -1.5606
  679MOL0     H89624  11.050   8.712   9.520  0.2185 -0.0457 -0.3190
  679MOL0     H89625  11.052   8.549   9.577 -1.3443 -0.9120 -1.0584
  679MOL0     H89626  11.378   8.569   9.293  1.6851  4.3189 -0.3372
  679MOL0     H89627  10.459   8.531   9.500  0.6986  1.9451 -2.7465
  679MOL0     H89628  10.237   8.471   9.399  0.6976  0.6819 -1.3358
  680MOL0     O89629   7.954   7.722   1.258  0.2604  0.2509 -0.3776
  680MOL0     C89630   7.963   7.825   1.196 -0.0659  0.0144  0.2939
  680MOL0     O89631   7.864   7.916   1.162  0.4722  0.9907  0.4409
  680MOL0     C89632   7.734   7.879   1.184 -0.5476  0.6299  0.4535
  680MOL0     C89633   7.651   7.978   1.235  0.1884 -0.3299 -1.2077
  680MOL0     C89634   7.511   7.961   1.257 -0.2500  0.5052  0.8867
  680MOL0     C89635   7.455   7.833   1.215 -0.7256 -0.1272 -0.4409
  680MOL0     O89636   7.322   7.801   1.228 -0.6455 -0.0296 -0.3296
  680MOL0     C89637   7.244   7.899   1.300  0.6620  0.5315 -0.2711
  680MOL0     C89638   7.104   7.849   1.318 -0.3148  0.3649 -0.0808
  680MOL0     C89639   7.017   7.917   1.418 -0.5113 -0.7043  0.3717
  680MOL0     C89640   6.966   8.054   1.362 -0.1544 -0.0755  0.9693
  680MOL0     C89641   6.892   8.114   1.473  0.3266 -0.1801  0.6466
  680MOL0     C89642   6.860   8.259   1.453  0.1814 -0.0809 -0.1264
  680MOL0     C89643   6.778   8.283   1.327 -0.5218  0.0075 -0.3365
  680MOL0     C89644   6.703   8.420   1.328  0.9211  0.2362 -0.6979
  680MOL0     N89645   6.657   8.439   1.191  0.5374 -0.0407  1.0033
  680MOL0     C89646   6.580   8.348   1.114  0.6045 -0.5644 -1.0731
  680MOL0     C89647   6.582   8.391   0.988  0.2206 -0.3773 -0.2464
  680MOL0     C89648   6.504   8.324   0.876  0.5886  0.0373 -0.4656
  680MOL0     C89649   6.363   8.380   0.871  0.2266 -0.6767 -0.4240
  680MOL0     C89650   6.285   8.291   0.767  0.2250  0.4311 -0.7333
  680MOL0     C89651   6.138   8.345   0.763  0.0913 -0.2726  0.3161
  680MOL0     O89652   6.060   8.321   0.875  0.0021  0.1743 -0.5177
  680MOL0     C89653   5.939   8.381   0.897  0.6132 -0.3646 -0.7511
  680MOL0     C89654   5.894   8.497   0.828 -0.2880  0.0771  0.2566
  680MOL0     C89655   5.763   8.557   0.853 -0.6729  0.9124  0.2393
  680MOL0     C89656   5.671   8.488   0.936 -0.0165 -0.1560  0.2152
  680MOL0     C89657   5.534   8.547   0.962  0.7792 -0.3714  0.5192
  680MOL0     O89658   5.447   8.477   1.044  0.0423  0.2210  0.1825
  680MOL0     C89659   5.317   8.494   0.987 -0.1875 -0.1730  0.2313
  680MOL0     C89660   5.231   8.568   1.063 -0.1266 -0.4894  0.1334
  680MOL0     C89661   5.100   8.602   1.018 -0.1765  0.4026 -0.4311
  680MOL0     C89662   5.056   8.553   0.893 -0.1359 -0.2754 -0.0989
  680MOL0     O89663   4.932   8.572   0.840  0.6420 -0.9049 -0.3855
  680MOL0     C89664   4.883   8.702   0.842 -0.1064 -0.3301 -0.4981
  680MOL0     C89665   4.764   8.714   0.758  0.2570  0.1224  0.6353
  680MOL0     C89666   4.655   8.620   0.823  0.2702 -0.0894 -0.4900
  680MOL0     C89667   4.512   8.625   0.756 -0.0354 -0.1837  0.4211
  680MOL0     C89668   4.411   8.545   0.836 -0.2502 -0.5192  0.5969
  680MOL0     C89669   4.272   8.554   0.771 -0.1375 -0.0585  0.2784
  680MOL0     C89670   4.172   8.486   0.870  0.1743  0.6313 -0.0772
  680MOL0     C89671   4.039   8.470   0.801 -0.6948 -0.8976 -0.7307
  680MOL0    Cl89672   4.046   8.322   0.708  0.6030 -0.3632  0.4293
  680MOL0     C89673   5.143   8.477   0.813  0.1343 -0.1758 -0.7959
  680MOL0     C89674   5.269   8.455   0.862 -0.0934  0.5370 -1.0901
  680MOL0     O89675   5.505   8.655   0.904  0.0323  0.0332 -0.6563
  680MOL0     C89676   5.719   8.373   1.006 -0.1610 -0.5946  0.5623
  680MOL0     C89677   5.847   8.329   0.992 -0.9917  0.7819 -0.1371
  680MOL0     N89678   6.654   8.510   0.988 -0.1891  0.4831  0.4409
  680MOL0     N89679   6.707   8.531   1.102 -0.4626 -0.0270  0.8323
  680MOL0     C89680   7.534   7.736   1.172 -0.2640  0.6770 -0.0745
  680MOL0     C89681   7.672   7.751   1.152  0.6769 -0.8247  0.1616
  680MOL0     C89682   8.100   7.871   1.166 -0.0944  1.4075 -0.4078
  680MOL0     C89683   8.210   7.795   1.213  0.1473  0.1661  0.4090
  680MOL0     C89684   8.342   7.840   1.183  0.0589  0.1560 -0.6022
  680MOL0     C89685   8.363   7.956   1.111 -0.9942  0.1036  0.8233
  680MOL0     O89686   8.489   8.005   1.112 -0.5639  0.2364  0.4176
  680MOL0     C89687   8.523   8.114   1.023  0.7309  0.8576  0.0001
  680MOL0     C89688   8.672   8.139   1.040 -0.2891  0.3320  0.1272
  680MOL0     C89689   8.770   8.042   0.979  0.1891 -0.4337  0.1425
  680MOL0     C89690   8.774   8.038   0.832 -0.1185 -0.3060  0.5320
  680MOL0     C89691   8.873   7.942   0.771 -0.0033 -0.1343  1.0557
  680MOL0     C89692   8.958   7.861   0.725  0.4496  0.0937  0.2349
  680MOL0     C89693   8.256   8.017   1.043 -0.1124 -0.7073  0.4217
  680MOL0     C89694   8.125   7.975   1.076 -0.4924  0.5097  0.8245
  680MOL0     H89695   7.689   8.080   1.243 -0.8157  0.0653 -1.3669
  680MOL0     H89696   7.461   8.050   1.294  1.4146  1.8036  0.1296
  680MOL0     H89697   7.236   7.998   1.255 -1.5553  0.4251 -0.2348
  680MOL0     H89698   7.283   7.926   1.399  1.9290 -1.2830 -0.2379
  680MOL0     H89699   7.110   7.744   1.348 -0.9433  0.9449  2.3112
  680MOL0     H89700   7.053   7.867   1.223 -1.0775 -0.1328  0.2170
  680MOL0     H89701   7.083   7.939   1.503 -0.9610  0.9021  0.3274
  680MOL0     H89702   6.936   7.854   1.457  0.3721 -1.7018  0.6572
  680MOL0     H89703   7.054   8.110   1.329 -0.6794 -0.3652 -1.0080
  680MOL0     H89704   6.900   8.038   1.277 -0.1717  0.9947  0.7609
  680MOL0     H89705   6.942   8.095   1.569 -0.6569 -1.8348  0.8702
  680MOL0     H89706   6.805   8.048   1.479  1.0355 -1.0838  1.5279
  680MOL0     H89707   6.954   8.315   1.449 -0.3829  0.8600 -0.5910
  680MOL0     H89708   6.798   8.290   1.538 -3.2307 -1.0265 -2.0826
  680MOL0     H89709   6.843   8.283   1.238 -1.9359 -0.0222 -1.4050
  680MOL0     H89710   6.703   8.204   1.317  3.5622 -4.1625 -1.5129
  680MOL0     H89711   6.767   8.497   1.373 -0.4441 -0.1345  2.0470
  680MOL0     H89712   6.612   8.407   1.386  2.0395  1.2576  1.4212
  680MOL0     H89713   6.526   8.258   1.143  0.0219  0.3742  0.9738
  680MOL0     H89714   6.504   8.220   0.910 -3.5406  0.8145  2.7915
  680MOL0     H89715   6.547   8.318   0.776  3.1628  1.1681  0.4776
  680MOL0     H89716   6.358   8.487   0.847  1.6089 -0.5673 -0.2997
  680MOL0     H89717   6.321   8.373   0.972 -2.8382  0.1474 -1.5375
  680MOL0     H89718   6.333   8.289   0.669 -1.3426 -2.5670 -1.5464
  680MOL0     H89719   6.284   8.185   0.795 -0.9340 -0.0964 -2.6140
  680MOL0     H89720   6.082   8.304   0.678 -0.3948  0.2449  0.3756
  680MOL0     H89721   6.144   8.453   0.744  0.2793 -0.7339 -2.7648
  680MOL0     H89722   5.962   8.540   0.755 -0.1914 -0.4449  0.0417
  680MOL0     H89723   5.725   8.635   0.787 -1.5311 -1.0324 -1.6868
  680MOL0     H89724   5.273   8.619   1.148  1.3189 -3.5514  1.3869
  680MOL0     H89725   5.020   8.661   1.060 -2.2276 -0.8041 -2.3768
  680MOL0     H89726   4.956   8.770   0.800 -2.9316  1.9361 -2.1133
  680MOL0     H89727   4.866   8.744   0.942 -1.2828 -1.3461 -0.2404
  680MOL0     H89728   4.768   8.695   0.651 -1.5920 -0.7232  0.6889
  680MOL0     H89729   4.746   8.822   0.749  3.2816  0.7368  0.8513
  680MOL0     H89730   4.655   8.634   0.932 -0.5434  0.5237 -0.5504
  680MOL0     H89731   4.694   8.520   0.809  1.4056  0.2686  0.0181
  680MOL0     H89732   4.486   8.731   0.749 -1.7276 -0.6755 -3.0224
  680MOL0     H89733   4.515   8.583   0.655  3.9527  2.5019 -0.7999
  680MOL0     H89734   4.404   8.579   0.940 -0.5667 -4.7659  2.1514
  680MOL0     H89735   4.455   8.445   0.834 -0.7573 -0.7412  0.2440
  680MOL0     H89736   4.274   8.508   0.672 -1.7853  1.7400 -0.6659
  680MOL0     H89737   4.251   8.661   0.759  2.4784  0.6430  1.3209
  680MOL0     H89738   4.221   8.399   0.914  0.7740  1.9047  1.8791
  680MOL0     H89739   4.147   8.548   0.957  0.7606 -0.0742  0.6083
  680MOL0     H89740   4.008   8.547   0.731 -0.1714 -2.1594 -2.4194
  680MOL0     H89741   3.966   8.468   0.883  0.4934 -1.1875  0.3383
  680MOL0     H89742   5.119   8.440   0.715 -0.4451  2.1421 -1.6009
  680MOL0     H89743   5.345   8.397   0.810  1.8910  1.7111  0.3473
  680MOL0     H89744   5.642   8.332   1.070  0.2029 -1.3585  0.5173
  680MOL0     H89745   5.876   8.243   1.051  0.6613  1.8408  0.6650
  680MOL0     H89746   7.498   7.636   1.151  0.4421  0.4089 -0.0318
  680MOL0     H89747   7.738   7.670   1.125 -0.0013 -2.9248  4.0592
  680MOL0     H89748   8.206   7.708   1.278  0.0474  0.3653  0.6722
  680MOL0     H89749   8.429   7.788   1.221 -1.3811 -0.3579  2.2838
  680MOL0     H89750   8.465   8.195   1.067 -1.9434 -0.5232 -0.7316
  680MOL0     H89751   8.514   8.097   0.915  1.9361  2.2494 -0.3464
  680MOL0     H89752   8.697   8.235   0.992 -1.5437  1.3625  1.4474
  680MOL0     H89753   8.699   8.148   1.145 -1.8354 -1.4903  0.7282
  680MOL0     H89754   8.742   7.949   1.029 -1.6923 -0.5396 -1.0288
  680MOL0     H89755   8.870   8.062   1.019 -0.1282 -1.3317  1.4550
  680MOL0     H89756   8.674   8.006   0.800 -1.0992  2.3538  0.7148
  680MOL0     H89757   8.781   8.139   0.791  0.9899 -1.2091 -1.6578
  680MOL0     H89758   9.041   7.826   0.667  0.5678  0.9762 -0.1428
  680MOL0     H89759   8.260   8.100   0.973 -0.0390 -1.8174 -0.9352
  680MOL0     H89760   8.046   8.037   1.036  1.7860  4.0293  1.3092
  681MOL0     O89761   8.012   3.313   4.290 -0.5252 -0.2019 -0.5448
  681MOL0     C89762   8.028   3.211   4.217 -0.0925 -0.0559 -0.1120
  681MOL0     O89763   7.927   3.158   4.146  0.0245  0.2022  0.3791
  681MOL0     C89764   7.804   3.220   4.141  0.1884 -0.1945 -0.9889
  681MOL0     C89765   7.776   3.281   4.017  0.7892  0.5967 -0.5160
  681MOL0     C89766   7.655   3.338   3.999  1.1114  0.2315 -0.0169
  681MOL0     C89767   7.562   3.350   4.097 -0.1741  0.5832 -0.6220
  681MOL0     O89768   7.451   3.426   4.075  0.7429 -0.1837  0.2553
  681MOL0     C89769   7.341   3.435   4.170 -0.4381 -0.2073 -0.1047
  681MOL0     C89770   7.235   3.532   4.111 -0.2070  0.9575 -0.5048
  681MOL0     C89771   7.116   3.555   4.204  0.1191 -1.1025 -0.3048
  681MOL0     C89772   7.033   3.675   4.156  0.0945 -0.7458 -0.0033
  681MOL0     C89773   6.918   3.732   4.251 -0.3160  0.2443  0.3810
  681MOL0     C89774   6.798   3.631   4.276  1.2112  0.3279 -0.5846
  681MOL0     C89775   6.684   3.702   4.359  0.5004  0.0418  0.1404
  681MOL0     C89776   6.552   3.627   4.369  0.5523 -0.0166  0.6692
  681MOL0     N89777   6.528   3.531   4.483  0.2316 -0.2928 -0.2957
  681MOL0     C89778   6.552   3.550   4.616 -1.1523  0.3525  1.0687
  681MOL0     C89779   6.502   3.450   4.686 -0.7988  0.0451 -0.1141
  681MOL0     C89780   6.495   3.450   4.837 -0.0697  0.5971  1.3499
  681MOL0     C89781   6.396   3.347   4.881 -0.2315  0.9186  0.0876
  681MOL0     C89782   6.374   3.371   5.031  0.0953  0.6735 -0.1047
  681MOL0     C89783   6.338   3.240   5.108  0.4697  0.9821  0.5220
  681MOL0     O89784   6.277   3.268   5.232 -0.1948  0.6088  0.1034
  681MOL0     C89785   6.145   3.293   5.248  0.6113  0.4413  1.0014
  681MOL0     C89786   6.055   3.317   5.142  0.1588 -0.7767  0.5275
  681MOL0     C89787   5.922   3.342   5.179  0.4767  0.3601  0.1321
  681MOL0     C89788   5.877   3.343   5.312 -0.0406  0.3591 -0.0409
  681MOL0     C89789   5.733   3.386   5.331 -0.0962 -0.4038  1.2001
  681MOL0     O89790   5.675   3.335   5.446  0.1988  0.0192 -0.4007
  681MOL0     C89791   5.543   3.360   5.468 -0.2106 -0.1079 -0.7488
  681MOL0     C89792   5.498   3.388   5.597 -0.5624 -0.1363  0.5291
  681MOL0     C89793   5.363   3.405   5.624  0.6724  0.4618 -0.2256
  681MOL0     C89794   5.265   3.365   5.538 -0.4761  0.3893  0.7611
  681MOL0     O89795   5.134   3.384   5.579  0.1003  0.8066  0.3311
  681MOL0     C89796   5.030   3.452   5.505  0.0541  0.0894  0.7404
  681MOL0     C89797   4.880   3.413   5.525 -0.0129 -0.3143 -0.8071
  681MOL0     C89798   4.851   3.379   5.665 -0.6332 -0.2043  0.0146
  681MOL0     C89799   4.702   3.402   5.687 -0.1439  0.1155 -0.2163
  681MOL0     C89800   4.677   3.320   5.821  0.2548  0.6733 -0.2230
  681MOL0     C89801   4.615   3.176   5.786  0.0417  0.3169  0.3239
  681MOL0     C89802   4.548   3.129   5.903  0.0396 -0.5574 -0.4920
  681MOL0     C89803   4.476   3.001   5.875 -0.1506 -0.5198 -0.2466
  681MOL0    Cl89804   4.321   3.036   5.801  0.5015  0.0024  0.1985
  681MOL0     C89805   5.303   3.326   5.407 -0.1193  0.5669 -0.0830
  681MOL0     C89806   5.438   3.340   5.376 -0.5428 -0.1337  0.1219
  681MOL0     O89807   5.673   3.442   5.239  0.3652 -0.8902  0.3253
  681MOL0     C89808   5.965   3.314   5.416  0.5111  0.5359 -0.4469
  681MOL0     C89809   6.096   3.282   5.380 -0.2982 -0.4901  0.3620
  681MOL0     N89810   6.442   3.363   4.594 -0.2184  0.1951 -0.9746
  681MOL0     N89811   6.454   3.410   4.474 -0.2316 -0.1092  0.1231
  681MOL0     C89812   7.584   3.283   4.211  0.6067  0.1516 -0.9017
  681MOL0     C89813   7.695   3.202   4.232 -0.0745 -0.2359 -0.3092
  681MOL0     C89814   8.165   3.171   4.190  0.6222  0.0497  0.3675
  681MOL0     C89815   8.271   3.245   4.251 -0.5028  0.0357 -0.0091
  681MOL0     C89816   8.403   3.204   4.223  0.7917 -0.2714 -0.2944
  681MOL0     C89817   8.432   3.090   4.141 -0.0246  0.7096  0.0812
  681MOL0     O89818   8.554   3.031   4.130 -0.2836 -0.7959  0.1072
  681MOL0     C89819   8.664   3.121   4.088  0.4892  0.1751  1.0202
  681MOL0     C89820   8.742   3.054   3.981 -1.1893 -0.1923  0.3881
  681MOL0     C89821   8.879   3.131   3.955  0.8015 -0.2557 -0.4462
  681MOL0     C89822   8.962   3.094   3.837  0.2772  0.8530  0.4243
  681MOL0     C89823   9.097   3.147   3.849  0.1583  0.2063  0.0881
  681MOL0     C89824   9.201   3.209   3.849  0.0048 -0.6137 -0.3978
  681MOL0     C89825   8.334   3.013   4.088  0.7845 -0.6646  0.1846
  681MOL0     C89826   8.199   3.052   4.123  0.8237 -0.5860  0.0564
  681MOL0     H89827   7.859   3.287   3.946  2.0529  1.0588  0.9469
  681MOL0     H89828   7.640   3.398   3.910  1.4811 -0.6419 -0.6831
  681MOL0     H89829   7.379   3.476   4.264 -0.3416 -1.6030  0.4934
  681MOL0     H89830   7.297   3.339   4.198 -0.1450  0.5304  3.2724
  681MOL0     H89831   7.195   3.493   4.017  2.3262 -0.7163 -0.9957
  681MOL0     H89832   7.281   3.626   4.079  0.2497  0.0332 -2.7862
  681MOL0     H89833   7.150   3.575   4.306 -2.4172 -0.9797  0.5939
  681MOL0     H89834   7.064   3.460   4.217 -1.5979 -0.1698 -0.0344
  681MOL0     H89835   7.101   3.760   4.151 -1.9123  1.0477  1.1987
  681MOL0     H89836   6.975   3.643   4.069 -0.0216 -1.2200  0.2465
  681MOL0     H89837   6.878   3.820   4.200  1.1122  0.0173 -1.2275
  681MOL0     H89838   6.967   3.766   4.343 -1.8897  2.8196  0.3710
  681MOL0     H89839   6.837   3.558   4.348  0.9008  1.7161  1.0391
  681MOL0     H89840   6.756   3.596   4.182 -3.7972  1.6361  0.8842
  681MOL0     H89841   6.722   3.724   4.459  1.7652  1.2024 -0.5397
  681MOL0     H89842   6.663   3.800   4.315  1.6785  0.1522 -0.2196
  681MOL0     H89843   6.538   3.579   4.271  0.9454  2.0858 -0.4785
  681MOL0     H89844   6.472   3.699   4.384  1.8163  0.8919  3.7112
  681MOL0     H89845   6.597   3.645   4.643 -1.5690  0.5365  1.1236
  681MOL0     H89846   6.452   3.544   4.873 -0.0650  1.1960 -0.1380
  681MOL0     H89847   6.598   3.434   4.868  0.3674  0.1549 -0.2329
  681MOL0     H89848   6.447   3.252   4.863  0.0226  1.3288 -1.5044
  681MOL0     H89849   6.302   3.355   4.826 -1.1416  2.9933  1.7836
  681MOL0     H89850   6.458   3.420   5.082  0.0392 -0.0138  0.6698
  681MOL0     H89851   6.287   3.437   5.029 -1.0470 -0.7637  0.7229
  681MOL0     H89852   6.422   3.174   5.128 -2.1135 -1.8429  3.1725
  681MOL0     H89853   6.269   3.183   5.044  0.0722  1.5564  0.4231
  681MOL0     H89854   6.087   3.318   5.039 -0.3440  0.2318  0.3746
  681MOL0     H89855   5.852   3.356   5.097  0.6072  0.1103 -0.0230
  681MOL0     H89856   5.576   3.420   5.666 -1.6979 -0.6614  2.1191
  681MOL0     H89857   5.331   3.434   5.724 -0.3893 -2.9847  0.5973
  681MOL0     H89858   5.039   3.433   5.398 -0.3331 -0.0150  0.7270
  681MOL0     H89859   5.041   3.558   5.530  1.0629 -0.0521  0.9623
  681MOL0     H89860   4.858   3.324   5.466  0.3751 -1.5059  0.7893
  681MOL0     H89861   4.829   3.504   5.491  1.4450  1.5452  1.5893
  681MOL0     H89862   4.913   3.434   5.737 -1.4405 -2.1982  2.3804
  681MOL0     H89863   4.876   3.274   5.680 -4.2730 -0.9919  1.6728
  681MOL0     H89864   4.678   3.505   5.714  0.5030  0.1988  0.0598
  681MOL0     H89865   4.640   3.382   5.600  1.4132  0.5197 -1.4599
  681MOL0     H89866   4.590   3.367   5.866 -1.4391 -1.1835 -1.3737
  681MOL0     H89867   4.760   3.318   5.892  0.0370 -0.4185  0.0215
  681MOL0     H89868   4.693   3.104   5.759  0.7142  1.3391 -0.5222
  681MOL0     H89869   4.552   3.188   5.698  0.6643 -0.7095 -0.2877
  681MOL0     H89870   4.620   3.097   5.980 -2.2074 -0.3563  1.8439
  681MOL0     H89871   4.485   3.208   5.945  0.5821  0.2528 -1.1915
  681MOL0     H89872   4.464   2.943   5.967  0.8790  0.3179  0.4334
  681MOL0     H89873   4.536   2.943   5.805 -0.6250  2.6595 -3.5724
  681MOL0     H89874   5.228   3.303   5.332  0.6736  0.6862 -0.9284
  681MOL0     H89875   5.471   3.313   5.276  1.5546 -1.1782  1.0439
  681MOL0     H89876   5.945   3.325   5.523  0.2767  0.8142 -0.5157
  681MOL0     H89877   6.168   3.252   5.455 -1.6041 -1.8501  1.1279
  681MOL0     H89878   7.518   3.283   4.297  2.9142  0.2835  0.9886
  681MOL0     H89879   7.710   3.137   4.318 -0.3284 -0.1350 -0.1881
  681MOL0     H89880   8.264   3.332   4.316 -0.6987 -0.3059  0.4349
  681MOL0     H89881   8.486   3.259   4.265  0.4514  0.9821 -1.1956
  681MOL0     H89882   8.739   3.130   4.167  0.5829 -1.7136  1.1959
  681MOL0     H89883   8.632   3.221   4.058 -1.5592 -0.4642  0.9181
  681MOL0     H89884   8.769   2.949   3.998  2.1777  0.4170 -0.5544
  681MOL0     H89885   8.688   3.062   3.886 -1.6336  2.5572  0.8007
  681MOL0     H89886   8.947   3.127   4.041 -0.7135  0.8003  0.8541
  681MOL0     H89887   8.842   3.233   3.942  2.0415  0.3991  0.8345
  681MOL0     H89888   8.980   2.987   3.839 -1.4143  0.5622  0.9145
  681MOL0     H89889   8.920   3.122   3.740  0.0497  0.1742  0.3238
  681MOL0     H89890   9.299   3.246   3.872  0.7417 -0.1406 -3.8262
  681MOL0     H89891   8.354   2.915   4.046  0.5502  0.2260 -2.1814
  681MOL0     H89892   8.113   2.995   4.088  0.1266 -0.9659  2.2812
  682MOL0     O89893  10.832   7.215   3.382 -0.4353 -0.2046 -0.6216
  682MOL0     C89894  10.920   7.218   3.291  0.9854 -0.1854 -0.0430
  682MOL0     O89895  10.898   7.263   3.166  0.3539  0.3723  0.0704
  682MOL0     C89896  10.776   7.218   3.119  0.3861  0.4117 -0.2329
  682MOL0     C89897  10.738   7.088   3.143 -0.2126  0.1372 -0.0960
  682MOL0     C89898  10.614   7.046   3.088 -0.2646  0.1003 -0.1278
  682MOL0     C89899  10.521   7.140   3.042  0.7741  0.5334 -0.4165
  682MOL0     O89900  10.402   7.091   2.997  0.3089 -0.3335  0.5625
  682MOL0     C89901  10.289   7.170   3.027  0.3993  0.3228 -0.0553
  682MOL0     C89902  10.223   7.115   3.148 -0.9867 -0.5379 -0.4687
  682MOL0     C89903  10.073   7.160   3.166  0.2828 -0.3480 -1.2347
  682MOL0     C89904   9.974   7.074   3.081  0.3540  0.4730 -0.9852
  682MOL0     C89905   9.826   7.082   3.108  0.0147  0.7977  0.7571
  682MOL0     C89906   9.769   7.221   3.078  0.8420 -1.1062  0.1317
  682MOL0     C89907   9.615   7.217   3.096 -0.2267 -0.6778  0.0646
  682MOL0     C89908   9.550   7.176   2.960  0.0291 -0.2908  0.9942
  682MOL0     N89909   9.413   7.225   2.943  1.0488 -0.3473 -0.8659
  682MOL0     C89910   9.375   7.320   2.855 -0.3053 -0.2099 -0.1219
  682MOL0     C89911   9.249   7.291   2.815  0.5347 -0.7440 -0.4517
  682MOL0     C89912   9.146   7.363   2.720  0.7363 -0.1130  0.8091
  682MOL0     C89913   9.160   7.512   2.724  0.3507  0.3378  0.8448
  682MOL0     C89914   9.050   7.569   2.636 -0.2082  0.1529  0.2047
  682MOL0     C89915   9.025   7.717   2.672  0.3304 -0.8614  0.0485
  682MOL0     O89916   8.895   7.737   2.733 -0.6432 -0.1782 -0.3868
  682MOL0     C89917   8.790   7.816   2.684 -0.7601  0.5407  0.6839
  682MOL0     C89918   8.679   7.808   2.762  0.7016 -0.3736  0.8996
  682MOL0     C89919   8.555   7.864   2.713 -0.9087  0.4638 -0.0223
  682MOL0     C89920   8.559   7.945   2.595  0.0048 -0.0876  0.2487
  682MOL0     C89921   8.447   8.035   2.553  0.0662 -0.8142  1.0119
  682MOL0     O89922   8.324   7.986   2.580 -0.4056 -0.1184  0.0055
  682MOL0     C89923   8.205   8.054   2.569 -0.1374  0.7682 -0.8624
  682MOL0     C89924   8.174   8.168   2.485 -0.3950  0.3188 -0.1633
  682MOL0     C89925   8.041   8.211   2.483  0.4806 -0.2632 -0.7162
  682MOL0     C89926   7.942   8.164   2.573 -0.0930 -0.9904 -0.4901
  682MOL0     O89927   7.822   8.223   2.586  0.8337 -0.3370  1.1644
  682MOL0     C89928   7.824   8.336   2.656  0.5416 -0.4532  0.2278
  682MOL0     C89929   7.697   8.420   2.641  0.2056 -0.1731 -0.2434
  682MOL0     C89930   7.562   8.345   2.676 -0.3750 -1.4228  0.3772
  682MOL0     C89931   7.558   8.300   2.822 -0.5594  0.7628  1.1735
  682MOL0     C89932   7.436   8.222   2.865 -0.4361  0.1548 -0.1007
  682MOL0     C89933   7.458   8.157   3.004  0.6555 -0.5479 -0.1261
  682MOL0     C89934   7.335   8.098   3.057 -0.0147  0.7178  0.7905
  682MOL0     C89935   7.352   8.003   3.167  0.6125 -0.7540  0.1867
  682MOL0    Cl89936   7.412   8.098   3.303  0.1354  0.0495 -0.2735
  682MOL0     C89937   7.972   8.057   2.659 -0.2223  0.4204  0.3309
  682MOL0     C89938   8.108   8.011   2.658  0.2544 -0.6474  0.0939
  682MOL0     O89939   8.466   8.146   2.505 -0.2420 -0.2500 -0.6010
  682MOL0     C89940   8.683   7.949   2.525  0.1665 -0.3233 -1.1657
  682MOL0     C89941   8.796   7.890   2.571 -0.7036  0.3570  0.2256
  682MOL0     N89942   9.198   7.185   2.891 -0.4490  0.6989 -0.0260
  682MOL0     N89943   9.303   7.151   2.965 -0.0574  0.9603  0.0246
  682MOL0     C89944  10.568   7.276   3.020  0.6075 -0.2693  0.1141
  682MOL0     C89945  10.692   7.305   3.055 -0.6732 -0.0537 -0.1525
  682MOL0     C89946  11.061   7.203   3.322 -1.0110  0.5331  1.0393
  682MOL0     C89947  11.111   7.195   3.451 -0.9013  0.4505 -0.0592
  682MOL0     C89948  11.246   7.176   3.466 -0.5821 -0.1055  0.4301
  682MOL0     C89949  11.342   7.152   3.369  0.4655 -0.6343  0.1354
  682MOL0     O89950  11.469   7.117   3.404  0.1772  0.4065  0.0847
  682MOL0     C89951  11.565   7.070   3.310 -0.1727  0.0601 -0.8391
  682MOL0     C89952  11.658   6.963   3.372  0.7443 -0.0481 -0.8089
  682MOL0     C89953  11.702   7.003   3.520  0.0350  0.2684  0.4325
  682MOL0     C89954  11.801   6.899   3.571  0.0577  0.7065 -0.0259
  682MOL0     C89955  11.878   6.932   3.696  0.5572  0.3328  0.2182
  682MOL0     C89956  11.937   6.986   3.783 -0.1606 -0.1138 -0.7806
  682MOL0     C89957  11.293   7.170   3.239 -0.1258 -0.4331  0.0340
  682MOL0     C89958  11.156   7.199   3.217  0.4753 -0.6287 -0.1963
  682MOL0     H89959  10.801   7.012   3.187 -0.6543  0.0484  0.3984
  682MOL0     H89960  10.589   6.941   3.091  0.5544 -0.1311  3.4475
  682MOL0     H89961  10.223   7.151   2.942  1.3021  0.9517 -0.9286
  682MOL0     H89962  10.308   7.278   3.027 -1.1556  0.6214  0.0708
  682MOL0     H89963  10.291   7.152   3.226  0.5520 -0.6642 -1.6886
  682MOL0     H89964  10.225   7.006   3.152 -2.1202 -0.5462  0.6108
  682MOL0     H89965  10.050   7.262   3.135 -1.5835  0.2065  1.5752
  682MOL0     H89966  10.050   7.161   3.273 -2.2538  1.0195 -1.7265
  682MOL0     H89967   9.990   7.089   2.973 -1.0866 -2.4522 -1.7029
  682MOL0     H89968  10.002   6.972   3.108  0.1380  0.0936 -2.1220
  682MOL0     H89969   9.808   7.060   3.214 -1.9819 -0.6675  0.1743
  682MOL0     H89970   9.776   7.004   3.050  0.1974  2.3319 -1.5878
  682MOL0     H89971   9.796   7.253   2.976 -1.4046  0.2654 -0.1049
  682MOL0     H89972   9.806   7.299   3.146  0.8910 -1.8882  1.0143
  682MOL0     H89973   9.590   7.143   3.173 -0.0764 -2.4589 -1.5329
  682MOL0     H89974   9.570   7.314   3.118 -1.8358 -1.6440  1.2853
  682MOL0     H89975   9.550   7.068   2.942  0.4392  0.0445 -1.3350
  682MOL0     H89976   9.615   7.215   2.881 -2.5698  0.5950 -0.8210
  682MOL0     H89977   9.434   7.404   2.819 -0.4179  0.6850  1.6812
  682MOL0     H89978   9.050   7.321   2.750  0.0789 -0.2486 -1.2971
  682MOL0     H89979   9.163   7.324   2.619 -1.6140 -1.4785  0.8917
  682MOL0     H89980   9.261   7.547   2.702  0.6271  0.5299  2.3400
  682MOL0     H89981   9.150   7.552   2.825 -0.8928  2.1677  0.0568
  682MOL0     H89982   9.081   7.569   2.531 -4.4025  1.8911 -1.2776
  682MOL0     H89983   8.965   7.501   2.633  1.2269 -1.6922 -0.1348
  682MOL0     H89984   9.046   7.771   2.580 -0.2515  0.9271  0.9326
  682MOL0     H89985   9.099   7.762   2.740  0.1075  1.9470 -1.4302
  682MOL0     H89986   8.676   7.729   2.836 -1.2814 -1.2067  0.0120
  682MOL0     H89987   8.461   7.835   2.758 -0.5678 -0.9597 -0.1987
  682MOL0     H89988   8.239   8.202   2.405 -1.0433 -2.9122 -2.2429
  682MOL0     H89989   8.023   8.296   2.419  1.1027 -0.0324 -0.5989
  682MOL0     H89990   7.904   8.404   2.626  2.9116 -2.2529  2.0499
  682MOL0     H89991   7.844   8.310   2.761  1.8358 -0.0049  0.1131
  682MOL0     H89992   7.693   8.445   2.534  2.8500  1.0819 -0.1038
  682MOL0     H89993   7.708   8.512   2.699  0.1127 -0.4935  0.2886
  682MOL0     H89994   7.550   8.257   2.611  1.6386  0.5480 -2.9486
  682MOL0     H89995   7.481   8.415   2.653  2.3476  1.8660  0.0627
  682MOL0     H89996   7.642   8.235   2.846  2.6245  3.8813 -0.5820
  682MOL0     H89997   7.572   8.387   2.887  1.6363  0.1055  1.6391
  682MOL0     H89998   7.408   8.145   2.792 -2.8676  0.3839  0.5078
  682MOL0     H89999   7.358   8.298   2.874 -0.0280  0.6889 -0.9734
  682MOL0     H90000   7.497   8.230   3.075 -1.3404 -1.6573  2.2805
  682MOL0     H90001   7.531   8.077   2.990 -0.2289 -1.2149 -1.1324
  682MOL0     H90002   7.272   8.180   3.093  2.1746  1.9423  1.9892
  682MOL0     H90003   7.283   8.038   2.981 -1.3395  1.6016  0.9603
  682MOL0     H90004   7.417   7.919   3.142  1.5247  0.1818 -0.6447
  682MOL0     H90005   7.257   7.959   3.199  1.1087 -0.5319  2.0409
  682MOL0     H90006   7.895   8.009   2.720 -1.3176  1.0843 -0.4989
  682MOL0     H90007   8.139   7.928   2.721 -1.4019 -1.3096  0.0772
  682MOL0     H90008   8.681   8.007   2.433 -1.7412 -1.5053 -1.9170
  682MOL0     H90009   8.885   7.892   2.510  0.2596 -1.5895  1.4772
  682MOL0     H90010  10.513   7.356   2.972 -1.6147 -1.0373  1.2380
  682MOL0     H90011  10.738   7.403   3.048 -1.3676  0.3514  0.7400
  682MOL0     H90012  11.050   7.197   3.541  0.9716 -2.1745  1.4033
  682MOL0     H90013  11.292   7.163   3.563  0.0516  0.4707  0.2115
  682MOL0     H90014  11.626   7.148   3.263 -1.7542  1.9346  0.1233
  682MOL0     H90015  11.504   7.022   3.232 -1.9236 -3.1572  2.1907
  682MOL0     H90016  11.594   6.876   3.392  0.9400  0.3880  2.2360
  682MOL0     H90017  11.736   6.924   3.307  0.2015 -0.9167 -0.9645
  682MOL0     H90018  11.614   7.015   3.583 -0.6689 -1.5775 -0.1507
  682MOL0     H90019  11.754   7.099   3.517  0.8433 -0.1303  1.1472
  682MOL0     H90020  11.745   6.806   3.583  0.4823 -0.2747 -4.2425
  682MOL0     H90021  11.881   6.881   3.500  1.0807 -0.6231  1.3929
  682MOL0     H90022  12.000   7.036   3.854  0.7632 -1.7014 -0.4123
  682MOL0     H90023  11.360   7.149   3.156  0.7992  0.5904  0.4864
  682MOL0     H90024  11.120   7.225   3.118  2.2701 -1.1332 -1.0223
  683MOL0     O90025   7.541   6.669   9.340 -0.0572  0.0957 -0.9783
  683MOL0     C90026   7.549   6.761   9.259 -0.1130  0.3365  0.7985
  683MOL0     O90027   7.459   6.850   9.233  0.0981 -0.1906 -0.8824
  683MOL0     C90028   7.335   6.818   9.265  0.0828  0.8475 -0.7148
  683MOL0     C90029   7.246   6.762   9.169  0.9815 -0.1426  0.1777
  683MOL0     C90030   7.107   6.739   9.200  0.0659 -0.0570 -0.0726
  683MOL0     C90031   7.054   6.765   9.332  0.5351  0.5486  0.2178
  683MOL0     O90032   6.920   6.774   9.365  0.0010  0.0738  0.1080
  683MOL0     C90033   6.839   6.675   9.304  1.0566 -0.1987  1.1485
  683MOL0     C90034   6.690   6.692   9.348 -0.6725 -0.1503 -0.2393
  683MOL0     C90035   6.677   6.645   9.497  0.6955 -1.1278  0.8710
  683MOL0     C90036   6.528   6.632   9.521  0.4694  1.0898  0.3679
  683MOL0     C90037   6.503   6.592   9.668 -0.1917  0.1009  0.2451
  683MOL0     C90038   6.362   6.533   9.688 -0.2080  0.0947 -0.0730
  683MOL0     C90039   6.322   6.512   9.832 -0.1102 -0.0147  0.5103
  683MOL0     C90040   6.178   6.479   9.863  0.6858 -0.2201  0.3412
  683MOL0     N90041   6.127   6.366   9.776  0.8507  0.1766  0.1519
  683MOL0     C90042   6.200   6.259   9.737 -0.0725  0.5071 -0.0033
  683MOL0     C90043   6.130   6.194   9.641  0.6367  0.1727 -0.0916
  683MOL0     C90044   6.162   6.060   9.572  0.4520  0.1494 -0.0798
  683MOL0     C90045   6.169   5.950   9.689 -0.7904  0.2612 -0.2253
  683MOL0     C90046   6.251   5.827   9.629  0.0696 -0.9797  0.2163
  683MOL0     C90047   6.197   5.763   9.503 -0.3569 -0.3838 -0.3340
  683MOL0     O90048   6.227   5.826   9.381  0.2180 -0.0075  0.4453
  683MOL0     C90049   6.355   5.821   9.335 -0.8758  0.2806  0.2135
  683MOL0     C90050   6.440   5.705   9.343 -0.8488 -0.8183  0.5151
  683MOL0     C90051   6.567   5.711   9.280  0.1056  0.0264 -0.7449
  683MOL0     C90052   6.606   5.830   9.220 -0.2712  0.1654 -0.4662
  683MOL0     C90053   6.742   5.832   9.164  0.1259  0.4812  0.0643
  683MOL0     O90054   6.765   5.931   9.078 -0.7607  0.0339  0.9072
  683MOL0     C90055   6.885   5.955   9.009 -0.9352 -0.1133 -0.1255
  683MOL0     C90056   7.019   5.900   9.038  0.2169  0.0799 -0.3580
  683MOL0     C90057   7.133   5.956   8.980  0.1801  0.0977 -0.0409
  683MOL0     C90058   7.119   6.038   8.868 -0.2683 -0.2933  0.4219
  683MOL0     O90059   7.239   6.058   8.796 -0.1539 -0.3795  0.5276
  683MOL0     C90060   7.258   6.185   8.724  0.3747  0.1144  0.0220
  683MOL0     C90061   7.385   6.176   8.642  0.8321 -0.3303  0.2050
  683MOL0     C90062   7.393   6.288   8.534  0.0241  0.1497  1.1305
  683MOL0     C90063   7.490   6.259   8.417  0.2009  0.3109 -0.1661
  683MOL0     C90064   7.463   6.358   8.303  0.0704 -0.4566 -0.3329
  683MOL0     C90065   7.513   6.504   8.338 -0.4365  1.0295 -0.2846
  683MOL0     C90066   7.508   6.607   8.221  0.3150 -0.6060 -0.0145
  683MOL0     C90067   7.519   6.755   8.276 -0.0297 -0.2936  0.0062
  683MOL0    Cl90068   7.389   6.795   8.395 -0.1424 -0.2053  0.0203
  683MOL0     C90069   6.991   6.084   8.835 -0.1545 -0.5700 -0.4892
  683MOL0     C90070   6.880   6.057   8.909  0.0163 -0.4910  0.4645
  683MOL0     O90071   6.832   5.749   9.199  1.2020  0.1372 -0.9961
  683MOL0     C90072   6.525   5.941   9.199 -0.4991  0.1580  0.1890
  683MOL0     C90073   6.395   5.931   9.256 -0.2671 -0.0785 -0.0549
  683MOL0     N90074   6.017   6.273   9.616 -0.5263 -1.2622 -0.0435
  683MOL0     N90075   6.015   6.366   9.702 -0.2283  0.4723  0.6013
  683MOL0     C90076   7.143   6.822   9.420 -0.2658  0.1011 -0.4778
  683MOL0     C90077   7.277   6.848   9.385  0.0492  0.2628  0.3890
  683MOL0     C90078   7.681   6.754   9.177 -0.4013  0.1307 -0.1338
  683MOL0     C90079   7.696   6.829   9.057 -0.1650  0.1823 -1.1404
  683MOL0     C90080   7.826   6.827   8.993 -0.4572  0.4203 -0.3315
  683MOL0     C90081   7.936   6.758   9.043  0.4269 -0.1964 -0.0883
  683MOL0     O90082   8.053   6.765   8.971  0.0587  0.0962 -0.0127
  683MOL0     C90083   8.154   6.674   9.017 -1.0060  0.1552  0.4596
  683MOL0     C90084   8.276   6.683   8.932  0.4364 -0.3127  0.3852
  683MOL0     C90085   8.281   6.628   8.783 -0.2791  0.0007 -0.4423
  683MOL0     C90086   8.293   6.472   8.779 -0.0325  1.4761 -0.1818
  683MOL0     C90087   8.282   6.425   8.638 -0.4066  0.6038  0.3163
  683MOL0     C90088   8.261   6.387   8.522  0.3186  0.1217  0.7141
  683MOL0     C90089   7.917   6.673   9.153  0.2055  0.9652  0.5200
  683MOL0     C90090   7.793   6.677   9.214  0.4760  0.2951 -0.3226
  683MOL0     H90091   7.280   6.731   9.071 -2.0133  1.1059 -1.4115
  683MOL0     H90092   7.051   6.704   9.114 -0.0952  0.7309 -0.2969
  683MOL0     H90093   6.878   6.574   9.316 -0.0232 -0.9458 -1.0128
  683MOL0     H90094   6.841   6.689   9.195 -2.5946  0.1042  0.9975
  683MOL0     H90095   6.615   6.633   9.294 -1.9374  1.9455 -0.8746
  683MOL0     H90096   6.655   6.795   9.338 -1.0871 -0.1609  0.9600
  683MOL0     H90097   6.727   6.710   9.569  0.6067 -1.4884  1.2597
  683MOL0     H90098   6.723   6.546   9.505  1.7667 -0.6402  0.8365
  683MOL0     H90099   6.473   6.723   9.495 -1.7060  0.0253  1.0005
  683MOL0     H90100   6.499   6.556   9.448  2.6731 -0.4570  1.0019
  683MOL0     H90101   6.516   6.687   9.720 -1.5287 -0.2919  1.3247
  683MOL0     H90102   6.589   6.534   9.704  1.6340  3.4597  1.7963
  683MOL0     H90103   6.377   6.429   9.655 -4.1215 -1.6882  2.9181
  683MOL0     H90104   6.286   6.589   9.632  0.3884  0.9091 -0.0821
  683MOL0     H90105   6.385   6.434   9.876 -1.8899 -3.4902 -2.5379
  683MOL0     H90106   6.338   6.602   9.892 -1.7141  0.8912 -0.3492
  683MOL0     H90107   6.127   6.574   9.842  2.4400  0.5353 -0.6633
  683MOL0     H90108   6.164   6.456   9.969 -0.9915 -1.2437 -0.0502
  683MOL0     H90109   6.286   6.215   9.787 -1.5291  0.0437  2.2745
  683MOL0     H90110   6.262   6.074   9.530  0.3259  1.1740 -0.0637
  683MOL0     H90111   6.088   6.020   9.503 -1.4745 -0.1733  2.0517
  683MOL0     H90112   6.068   5.917   9.715 -0.8820 -1.6568 -2.6119
  683MOL0     H90113   6.230   5.987   9.771  1.7541 -0.4128 -1.6858
  683MOL0     H90114   6.350   5.861   9.595 -1.7393  1.5909 -3.1545
  683MOL0     H90115   6.282   5.758   9.708  1.5862  0.0330  0.5773
  683MOL0     H90116   6.088   5.768   9.516 -0.2282  3.1458  0.5405
  683MOL0     H90117   6.243   5.664   9.505  0.9522  0.2211  1.2779
  683MOL0     H90118   6.397   5.615   9.385 -3.4319  0.0946  0.0247
  683MOL0     H90119   6.640   5.631   9.289  2.1374  1.9708  1.1551
  683MOL0     H90120   7.027   5.816   9.107 -1.0548 -1.2732 -1.7763
  683MOL0     H90121   7.235   5.923   8.992 -0.2436 -0.7005  1.6881
  683MOL0     H90122   7.255   6.273   8.789 -2.3812 -0.6555  1.0720
  683MOL0     H90123   7.168   6.194   8.662  0.3805  1.4256  0.1742
  683MOL0     H90124   7.403   6.080   8.593  3.4134  1.1706 -2.1210
  683MOL0     H90125   7.463   6.182   8.719 -1.0705 -0.4143  2.2412
  683MOL0     H90126   7.416   6.386   8.578  1.4858  0.1635  0.3891
  683MOL0     H90127   7.296   6.299   8.486  1.9567  3.4372 -2.6330
  683MOL0     H90128   7.591   6.268   8.457 -0.8232 -1.3370  3.1446
  683MOL0     H90129   7.483   6.162   8.365  2.5175  0.8333 -1.6277
  683MOL0     H90130   7.358   6.370   8.273  0.3927  0.7109 -1.0729
  683MOL0     H90131   7.506   6.312   8.213  0.1623  1.0532 -1.0845
  683MOL0     H90132   7.614   6.498   8.379 -1.3401  0.7220  2.0891
  683MOL0     H90133   7.465   6.541   8.429 -1.2594  1.1314 -0.7530
  683MOL0     H90134   7.579   6.593   8.138  0.3071  1.1919 -0.3717
  683MOL0     H90135   7.410   6.604   8.172  0.5471 -1.0140 -0.4659
  683MOL0     H90136   7.519   6.835   8.202  0.2567  0.0359  0.3612
  683MOL0     H90137   7.612   6.762   8.333 -0.3853  2.1312  0.3721
  683MOL0     H90138   6.971   6.158   8.758 -0.5401 -1.4162 -1.2291
  683MOL0     H90139   6.783   6.099   8.888 -0.7606 -1.5556  1.7713
  683MOL0     H90140   6.548   6.036   9.151 -0.6830 -0.5771 -1.4268
  683MOL0     H90141   6.330   6.015   9.233  0.7304  0.5521 -0.6544
  683MOL0     H90142   7.110   6.855   9.518  1.7462 -0.2608  0.3876
  683MOL0     H90143   7.339   6.897   9.460  0.3694 -1.8008  1.5375
  683MOL0     H90144   7.621   6.894   9.015  1.5943  1.6674 -2.1096
  683MOL0     H90145   7.835   6.874   8.896 -2.5356  2.4654  0.3636
  683MOL0     H90146   8.124   6.570   9.000 -2.8957  1.0945 -2.9025
  683MOL0     H90147   8.176   6.681   9.124  1.0795  0.4854  0.0538
  683MOL0     H90148   8.279   6.792   8.923 -2.3903 -0.2795 -1.1911
  683MOL0     H90149   8.359   6.639   8.989 -0.1330 -0.6587  0.9596
  683MOL0     H90150   8.365   6.664   8.723 -1.9367  0.0355 -2.9120
  683MOL0     H90151   8.187   6.659   8.737 -0.5080  0.1454  0.1138
  683MOL0     H90152   8.390   6.454   8.825  0.8165  3.2811 -1.1378
  683MOL0     H90153   8.215   6.421   8.836 -2.5806  1.3734 -3.4126
  683MOL0     H90154   8.234   6.351   8.425  1.3260 -1.5144  0.9981
  683MOL0     H90155   7.994   6.604   9.187  1.8403  3.0637  1.3566
  683MOL0     H90156   7.764   6.608   9.293 -1.2236  1.5320  0.1975
  684MOL0     O90157   9.332  10.691   8.687  0.1885 -0.7540 -0.0366
  684MOL0     C90158   9.352  10.751   8.579 -0.3656 -0.3350 -0.2613
  684MOL0     O90159   9.267  10.845   8.531  0.5802  0.0459 -0.4771
  684MOL0     C90160   9.133  10.833   8.576  0.0766 -0.2028  0.5556
  684MOL0     C90161   9.073  10.700   8.579 -0.0706  0.2080 -0.3182
  684MOL0     C90162   8.932  10.692   8.598  0.6664 -0.4575  0.2107
  684MOL0     C90163   8.864  10.813   8.618  0.1850  0.4136  0.5736
  684MOL0     O90164   8.731  10.806   8.648 -1.0373  0.3567 -0.3794
  684MOL0     C90165   8.654  10.920   8.625  0.4886  0.3351 -0.2808
  684MOL0     C90166   8.505  10.891   8.655 -0.8585  0.2281  0.4093
  684MOL0     C90167   8.446  10.794   8.560 -0.4588  0.5522 -1.1081
  684MOL0     C90168   8.294  10.768   8.587  0.8544 -0.3143 -0.5095
  684MOL0     C90169   8.255  10.693   8.719  0.2378 -0.5108 -0.1165
  684MOL0     C90170   8.109  10.657   8.730  0.7824  0.3606 -0.4356
  684MOL0     C90171   8.065  10.543   8.638  0.7479  0.2601 -0.1370
  684MOL0     C90172   7.915  10.539   8.619  0.1559 -0.0026 -0.2307
  684MOL0     N90173   7.844  10.493   8.744 -0.5918  1.1757  0.3269
  684MOL0     C90174   7.825  10.566   8.851  0.5404  0.3130 -0.2530
  684MOL0     C90175   7.751  10.488   8.932 -0.5885  0.4436  0.5601
  684MOL0     C90176   7.701  10.551   9.058 -0.3635 -0.7785  0.5064
  684MOL0     C90177   7.549  10.571   9.053  0.1791 -0.3798 -0.2927
  684MOL0     C90178   7.498  10.645   9.171  0.4903 -0.5845 -0.2361
  684MOL0     C90179   7.348  10.630   9.174 -0.0512 -0.4148 -0.1300
  684MOL0     O90180   7.302  10.700   9.055 -0.3557  0.0505 -0.4441
  684MOL0     C90181   7.193  10.648   8.993 -0.5741  0.1390 -0.0935
  684MOL0     C90182   7.069  10.681   9.048  0.3434 -0.6781  0.2656
  684MOL0     C90183   6.949  10.632   8.980  0.4835  0.3890  1.0942
  684MOL0     C90184   6.960  10.546   8.870  1.5773  0.0503 -0.0576
  684MOL0     C90185   6.837  10.500   8.807  1.1292  0.6910  0.4202
  684MOL0     O90186   6.723  10.541   8.871 -0.2233  0.8057 -0.5743
  684MOL0     C90187   6.605  10.475   8.839 -0.2350 -0.9326 -0.0832
  684MOL0     C90188   6.508  10.541   8.760  0.3595 -0.1765  0.3492
  684MOL0     C90189   6.389  10.478   8.727 -0.2087 -0.3496  0.4876
  684MOL0     C90190   6.366  10.352   8.769  0.4834  1.2359 -0.7006
  684MOL0     O90191   6.246  10.287   8.740  0.3245  0.0720 -0.4491
  684MOL0     C90192   6.197  10.178   8.832 -0.1873 -0.9090 -0.3178
  684MOL0     C90193   6.046  10.149   8.811 -0.5170 -0.2549 -0.1238
  684MOL0     C90194   6.017  10.083   8.684 -0.1692 -0.1584  0.4863
  684MOL0     C90195   5.866  10.109   8.649 -0.4293 -0.4832  0.4170
  684MOL0     C90196   5.815  10.000   8.552  0.6342  0.4857 -0.8969
  684MOL0     C90197   5.664  10.017   8.553 -0.9040 -0.2236 -0.4905
  684MOL0     C90198   5.589   9.946   8.442 -0.1040 -0.1904 -0.0021
  684MOL0     C90199   5.439   9.979   8.449 -0.3346  0.7401 -1.1471
  684MOL0    Cl90200   5.367   9.938   8.609  0.6034 -0.4335 -0.0978
  684MOL0     C90201   6.465  10.290   8.849  0.4071  0.2290  0.1373
  684MOL0     C90202   6.582  10.349   8.880 -0.5587 -0.7883  0.3030
  684MOL0     O90203   6.841  10.423   8.710 -0.0932  0.2424  0.1998
  684MOL0     C90204   7.085  10.521   8.823  0.8091  1.4897  0.1571
  684MOL0     C90205   7.203  10.573   8.880  0.0994  0.4603 -0.9804
  684MOL0     N90206   7.719  10.374   8.871 -0.2056  0.1832  0.5763
  684MOL0     N90207   7.782  10.373   8.756 -0.0955 -0.4729  0.4057
  684MOL0     C90208   8.928  10.933   8.619  0.1468  0.8615 -0.3303
  684MOL0     C90209   9.068  10.953   8.593  0.2918 -0.5126  0.2205
  684MOL0     C90210   9.483  10.746   8.520 -0.4689  0.3638  0.1109
  684MOL0     C90211   9.514  10.812   8.398  0.1914 -0.5630 -0.2954
  684MOL0     C90212   9.649  10.834   8.370  0.8515 -0.2493  0.3962
  684MOL0     C90213   9.748  10.769   8.442 -1.3356  0.1548 -0.1206
  684MOL0     O90214   9.884  10.783   8.392  0.1305  0.0922 -0.7151
  684MOL0     C90215   9.998  10.717   8.462 -0.0034 -0.5612  0.0819
  684MOL0     C90216  10.064  10.797   8.581  0.0399  0.0692 -0.2424
  684MOL0     C90217  10.166  10.896   8.514  0.6390 -0.2461  0.3429
  684MOL0     C90218  10.211  11.005   8.609  0.8347 -0.8260  0.0191
  684MOL0     C90219  10.300  10.947   8.714  0.7156 -1.3290 -0.3099
  684MOL0     C90220  10.363  10.905   8.806  0.1820 -0.4495 -0.0155
  684MOL0     C90221   9.712  10.680   8.546  0.0457  0.1783 -0.0038
  684MOL0     C90222   9.580  10.671   8.586 -0.5264 -0.1932 -0.5512
  684MOL0     H90223   9.131  10.611   8.560  2.3678  0.6280  3.8008
  684MOL0     H90224   8.877  10.599   8.587 -2.4216  1.4203 -1.5837
  684MOL0     H90225   8.663  10.958   8.523  0.4875  0.6042 -0.1820
  684MOL0     H90226   8.686  10.991   8.702  1.4413  0.0680 -0.4169
  684MOL0     H90227   8.451  10.986   8.645  1.5901  1.5807 -1.1660
  684MOL0     H90228   8.491  10.847   8.754 -0.4759 -1.0709 -0.0883
  684MOL0     H90229   8.499  10.699   8.573 -0.6592  0.6826  0.9240
  684MOL0     H90230   8.455  10.822   8.455  0.0411 -0.0056 -1.2161
  684MOL0     H90231   8.237  10.861   8.580  1.9745  0.2622 -4.7328
  684MOL0     H90232   8.251  10.711   8.505  0.3429  0.8970 -1.1023
  684MOL0     H90233   8.275  10.761   8.802  1.7416 -0.5061 -0.4398
  684MOL0     H90234   8.314  10.603   8.739  0.9499 -0.3024 -1.1466
  684MOL0     H90235   8.036  10.738   8.718  1.7113  1.6282  1.8866
  684MOL0     H90236   8.104  10.630   8.836  1.8715 -2.6470 -1.0718
  684MOL0     H90237   8.115  10.552   8.542 -0.6835 -3.1393 -1.3398
  684MOL0     H90238   8.085  10.443   8.677  0.5998 -0.7735 -2.5627
  684MOL0     H90239   7.885  10.481   8.531 -1.6304 -1.1819  1.0692
  684MOL0     H90240   7.881  10.642   8.603  1.6679  0.7942  1.3395
  684MOL0     H90241   7.862  10.666   8.870  2.5198 -0.1923 -1.2104
  684MOL0     H90242   7.729  10.656   9.072 -0.9985  0.2526 -4.4325
  684MOL0     H90243   7.747  10.507   9.148 -2.0462  3.3291  3.7375
  684MOL0     H90244   7.511  10.470   9.041  2.3977 -1.1216 -1.6236
  684MOL0     H90245   7.520  10.620   8.959  0.0868 -0.3859 -0.2678
  684MOL0     H90246   7.537  10.602   9.263  1.3287 -3.6883 -1.8969
  684MOL0     H90247   7.532  10.749   9.162  0.2451 -0.4320  0.5548
  684MOL0     H90248   7.310  10.683   9.262 -2.3428  0.5619 -1.6147
  684MOL0     H90249   7.321  10.524   9.181 -1.9535 -0.3524 -3.9700
  684MOL0     H90250   7.056  10.735   9.142 -1.2282  0.6992 -0.6801
  684MOL0     H90251   6.855  10.676   9.013 -0.2357 -0.7373  0.6270
  684MOL0     H90252   6.532  10.645   8.739  1.9729 -0.6282 -0.1294
  684MOL0     H90253   6.319  10.533   8.666  0.0025  0.7914  1.2338
  684MOL0     H90254   6.217  10.209   8.935 -1.1798  0.3428 -0.4724
  684MOL0     H90255   6.245  10.081   8.819 -1.5497 -1.5873 -0.5288
  684MOL0     H90256   5.991  10.243   8.816 -0.1404  0.0781 -1.6172
  684MOL0     H90257   5.999  10.080   8.882 -0.3407 -0.2863 -0.0371
  684MOL0     H90258   6.048   9.978   8.686 -0.1324 -0.2044 -1.1088
  684MOL0     H90259   6.072  10.136   8.606 -2.0553  3.0069  1.1456
  684MOL0     H90260   5.807  10.104   8.741 -1.5565  1.1864 -0.1735
  684MOL0     H90261   5.845  10.211   8.616 -1.1129  0.2887  3.0102
  684MOL0     H90262   5.846   9.898   8.575 -0.4604  0.3276 -0.0889
  684MOL0     H90263   5.849  10.011   8.448  0.6953 -0.3586 -0.9769
  684MOL0     H90264   5.653  10.126   8.541  0.2517  0.0597  0.7097
  684MOL0     H90265   5.618   9.992   8.649  1.0427  0.0700  0.5921
  684MOL0     H90266   5.625   9.966   8.340 -1.8077  1.5943 -0.3183
  684MOL0     H90267   5.594   9.839   8.462 -1.3228 -0.0421  1.2004
  684MOL0     H90268   5.392   9.919   8.371  2.4982 -1.2536 -1.4738
  684MOL0     H90269   5.422  10.084   8.422  2.0470  1.2241 -1.0072
  684MOL0     H90270   6.450  10.199   8.905 -1.0069  1.3067  1.6353
  684MOL0     H90271   6.656  10.284   8.926 -0.0776 -1.9557 -1.9606
  684MOL0     H90272   7.091  10.445   8.746 -0.6228 -0.6202  2.0149
  684MOL0     H90273   7.296  10.583   8.825 -0.7748  2.4349 -2.2342
  684MOL0     H90274   8.884  11.028   8.649 -2.1055 -0.5925  1.3182
  684MOL0     H90275   9.113  11.051   8.582 -0.2070 -0.2581  0.4028
  684MOL0     H90276   9.435  10.854   8.337 -0.5185 -2.3642 -0.6740
  684MOL0     H90277   9.688  10.896   8.289 -1.9778 -1.1569 -1.8331
  684MOL0     H90278  10.073  10.700   8.385 -0.9002 -0.0937 -0.9163
  684MOL0     H90279   9.977  10.617   8.501 -1.5263 -0.4258 -0.3045
  684MOL0     H90280   9.985  10.846   8.639  0.6176 -1.1564  1.6768
  684MOL0     H90281  10.121  10.729   8.644 -1.3817 -0.0603  0.9666
  684MOL0     H90282  10.111  10.940   8.431  1.7297  1.5337  0.5253
  684MOL0     H90283  10.255  10.854   8.467  0.5864  2.6679 -2.7542
  684MOL0     H90284  10.253  11.087   8.550 -2.1282 -0.5794 -1.9656
  684MOL0     H90285  10.123  11.046   8.660  3.2002  2.0551  2.1024
  684MOL0     H90286  10.408  10.887   8.902  1.9341  4.0408  0.2304
  684MOL0     H90287   9.788  10.637   8.611 -2.1418 -1.7253  1.4438
  684MOL0     H90288   9.553  10.612   8.673 -0.8162  1.6467  0.6631
  685MOL0     O90289  11.117   0.914   2.153  0.1083  0.2443 -0.3166
  685MOL0     C90290  11.175   0.971   2.058 -0.1552  0.5811 -1.6783
  685MOL0     O90291  11.144   0.972   1.932  0.1642  0.0062 -0.2765
  685MOL0     C90292  11.040   0.892   1.886 -0.2092  0.1247 -0.5882
  685MOL0     C90293  11.043   0.821   1.757 -0.5911 -0.0520 -0.1225
  685MOL0     C90294  10.937   0.744   1.714  0.0140 -0.3497 -0.1816
  685MOL0     C90295  10.817   0.736   1.786 -0.1828 -0.2154  0.7537
  685MOL0     O90296  10.712   0.670   1.737 -0.0756 -0.2832 -0.0519
  685MOL0     C90297  10.631   0.749   1.649 -0.1605  0.2193  0.6040
  685MOL0     C90298  10.485   0.697   1.631  0.4053  0.6455 -0.5875
  685MOL0     C90299  10.392   0.798   1.568  0.4501  0.0456 -0.2360
  685MOL0     C90300  10.417   0.823   1.422 -0.1171  0.3254  0.2277
  685MOL0     C90301  10.293   0.840   1.334 -0.2013 -0.5297 -0.3084
  685MOL0     C90302  10.234   0.981   1.348  0.6838  0.2015  0.4775
  685MOL0     C90303  10.102   0.985   1.268 -0.5411 -0.4535  0.4327
  685MOL0     C90304  10.036   1.123   1.295  0.0820 -0.1138  0.3067
  685MOL0     N90305   9.922   1.158   1.198 -0.2728  1.2193 -0.3279
  685MOL0     C90306   9.817   1.236   1.245 -0.2383 -0.2240  0.3707
  685MOL0     C90307   9.742   1.243   1.133  0.5754 -0.2747  0.7760
  685MOL0     C90308   9.592   1.278   1.128  0.1609  0.3542 -0.2108
  685MOL0     C90309   9.527   1.192   1.017  0.0804  0.0447  0.9608
  685MOL0     C90310   9.373   1.203   1.000 -1.1091 -0.4803  0.2011
  685MOL0     C90311   9.335   1.163   0.864 -0.2229  1.3153  0.0946
  685MOL0     O90312   9.193   1.146   0.858  0.6931  0.7537 -0.6318
  685MOL0     C90313   9.108   1.252   0.882  0.0765 -0.0862 -0.0472
  685MOL0     C90314   8.975   1.225   0.874 -0.4333  0.9418  0.0401
  685MOL0     C90315   8.873   1.313   0.883 -0.6012 -0.5894 -0.0535
  685MOL0     C90316   8.899   1.446   0.887 -0.4286 -0.1394 -1.3287
  685MOL0     C90317   8.785   1.534   0.894  0.0901 -0.4044 -0.1365
  685MOL0     O90318   8.665   1.501   0.849 -0.7077  1.0002 -0.0076
  685MOL0     C90319   8.564   1.590   0.827 -0.0875  0.4432  0.4406
  685MOL0     C90320   8.483   1.584   0.710 -0.5726 -0.2136 -0.1726
  685MOL0     C90321   8.389   1.684   0.676  0.6073  0.6713 -0.4369
  685MOL0     C90322   8.358   1.776   0.776 -0.3020 -0.0040 -0.1969
  685MOL0     O90323   8.246   1.850   0.749  0.1652 -0.3121 -0.0221
  685MOL0     C90324   8.193   1.946   0.852  0.3335  0.1981 -0.5062
  685MOL0     C90325   8.062   2.013   0.794  0.3371 -0.7979 -0.4106
  685MOL0     C90326   8.052   2.145   0.872 -0.1641 -0.1014  0.6004
  685MOL0     C90327   7.919   2.216   0.847  0.8946  0.8831  0.4084
  685MOL0     C90328   7.811   2.155   0.938  0.6684 -0.1844  0.3888
  685MOL0     C90329   7.669   2.219   0.929 -0.4503  0.9963  0.2865
  685MOL0     C90330   7.685   2.363   0.962  1.0810 -0.4763 -0.0522
  685MOL0     C90331   7.540   2.428   0.945 -1.3611 -0.0571  0.3822
  685MOL0    Cl90332   7.418   2.339   1.049  0.1789  0.0351  0.2768
  685MOL0     C90333   8.424   1.767   0.898  0.3191  0.0199  0.2676
  685MOL0     C90334   8.534   1.682   0.922  0.2215  0.1192  0.0577
  685MOL0     O90335   8.817   1.644   0.931 -0.6027 -0.5013 -0.8587
  685MOL0     C90336   9.028   1.488   0.900  0.0958  0.3171  0.2807
  685MOL0     C90337   9.130   1.390   0.894 -0.1761 -0.1462  0.7645
  685MOL0     N90338   9.817   1.184   1.019  0.5615 -0.2570  0.6034
  685MOL0     N90339   9.925   1.144   1.065  0.7328  0.0367  0.2060
  685MOL0     C90340  10.812   0.814   1.899 -0.6160 -1.0896  0.4252
  685MOL0     C90341  10.914   0.890   1.952  0.5428 -0.1661 -0.1338
  685MOL0     C90342  11.306   1.050   2.092  0.7142  1.4449  0.8811
  685MOL0     C90343  11.385   1.090   1.984  0.2744 -0.3326 -0.1270
  685MOL0     C90344  11.504   1.158   2.008 -0.2044  0.4697 -0.1179
  685MOL0     C90345  11.550   1.172   2.141 -0.2178  0.3647  0.4513
  685MOL0     O90346  11.667   1.250   2.144 -0.3288  0.2392  0.1664
  685MOL0     C90347  11.762   1.231   2.251 -0.2080  0.0648 -0.3877
  685MOL0     C90348  11.892   1.303   2.243 -0.5388 -0.2411  0.5340
  685MOL0     C90349  11.998   1.263   2.353 -0.2200 -0.5037 -0.0684
  685MOL0     C90350  12.143   1.312   2.341 -1.0357  0.0963 -0.0815
  685MOL0     C90351  12.148   1.457   2.300 -0.0887 -0.7703 -0.2414
  685MOL0     C90352  12.155   1.570   2.254 -0.1776 -0.2356  0.0603
  685MOL0     C90353  11.478   1.112   2.239 -0.6123 -0.1277 -0.5032
  685MOL0     C90354  11.352   1.064   2.223  0.0168  0.0374 -0.1630
  685MOL0     H90355  11.130   0.830   1.694 -0.2637  1.3522  0.5024
  685MOL0     H90356  10.939   0.694   1.617 -1.8782 -0.1008 -0.3771
  685MOL0     H90357  10.682   0.741   1.552 -1.7271 -0.2552 -0.2157
  685MOL0     H90358  10.626   0.850   1.691  0.7853  1.2199 -1.5248
  685MOL0     H90359  10.440   0.666   1.726  0.4999  0.8411 -0.4775
  685MOL0     H90360  10.485   0.606   1.570 -1.2968 -1.2798  2.0339
  685MOL0     H90361  10.400   0.893   1.622 -1.2549  0.1036 -0.0169
  685MOL0     H90362  10.286   0.772   1.578  0.1128  0.2152 -2.6451
  685MOL0     H90363  10.476   0.914   1.410  1.2847 -0.6184 -0.2856
  685MOL0     H90364  10.472   0.734   1.389  0.4096  0.7413 -0.0311
  685MOL0     H90365  10.217   0.768   1.367 -0.6575  0.4201  0.7925
  685MOL0     H90366  10.324   0.829   1.230 -0.5682 -0.9958 -0.3742
  685MOL0     H90367  10.302   1.062   1.320  1.1940  0.2264  1.7435
  685MOL0     H90368  10.212   1.002   1.453  1.4307 -1.8580  1.0972
  685MOL0     H90369  10.119   0.987   1.160  1.5522 -1.3252  0.6992
  685MOL0     H90370  10.031   0.902   1.276 -0.2671 -0.8449 -0.9750
  685MOL0     H90371  10.100   1.211   1.280 -2.7159  2.1443  0.7509
  685MOL0     H90372  10.005   1.123   1.399  1.3784 -0.4323  0.7090
  685MOL0     H90373   9.788   1.261   1.346 -1.5829  1.1502 -0.3124
  685MOL0     H90374   9.572   1.385   1.111  0.9658  0.7146  0.9799
  685MOL0     H90375   9.541   1.247   1.219 -0.3335 -2.2402 -1.2699
  685MOL0     H90376   9.540   1.085   1.036 -1.6462 -1.1347 -3.3310
  685MOL0     H90377   9.581   1.206   0.923 -3.3642 -1.9115 -1.5082
  685MOL0     H90378   9.324   1.129   1.064 -2.5395  0.1164 -0.1767
  685MOL0     H90379   9.338   1.305   1.014 -2.1335 -0.3204 -2.7940
  685MOL0     H90380   9.387   1.070   0.839 -2.2239  0.3040 -0.5576
  685MOL0     H90381   9.364   1.224   0.778 -0.5019  1.0502 -0.1953
  685MOL0     H90382   8.965   1.117   0.867 -1.5044  0.7592  2.9177
  685MOL0     H90383   8.774   1.270   0.877 -0.1579 -1.6380 -0.0336
  685MOL0     H90384   8.513   1.506   0.641  0.4289 -0.9122  1.0016
  685MOL0     H90385   8.340   1.686   0.580  1.6878  0.6000 -1.0032
  685MOL0     H90386   8.269   2.025   0.860  1.4228 -0.9632  1.4115
  685MOL0     H90387   8.193   1.891   0.947  0.4855  1.8564  0.4948
  685MOL0     H90388   7.972   1.953   0.814 -1.6871  1.5494 -1.8557
  685MOL0     H90389   8.057   2.027   0.686 -2.7996 -2.6478 -0.6530
  685MOL0     H90390   8.129   2.212   0.831 -1.0787  2.5528  2.8993
  685MOL0     H90391   8.074   2.128   0.977 -1.5370  2.0024  1.2914
  685MOL0     H90392   7.939   2.320   0.872  1.1350  0.5939  1.5189
  685MOL0     H90393   7.886   2.218   0.743  2.4473 -1.5199 -0.2185
  685MOL0     H90394   7.847   2.168   1.040  1.8785 -0.9981  0.0866
  685MOL0     H90395   7.794   2.051   0.910 -3.6319  0.4593 -0.0741
  685MOL0     H90396   7.603   2.165   0.997 -0.5713 -4.6332 -3.5650
  685MOL0     H90397   7.633   2.212   0.826  0.0687 -0.9494  0.1895
  685MOL0     H90398   7.708   2.375   1.068 -1.1949 -0.1207  0.4549
  685MOL0     H90399   7.763   2.407   0.898  1.0812 -0.2564  0.0964
  685MOL0     H90400   7.510   2.411   0.842  0.5761 -0.8817 -0.0925
  685MOL0     H90401   7.532   2.535   0.967  1.1102  0.4136 -0.6708
  685MOL0     H90402   8.411   1.848   0.969 -0.7314 -0.5106  0.7042
  685MOL0     H90403   8.588   1.688   1.016  0.5624  0.0845 -0.1345
  685MOL0     H90404   9.071   1.583   0.930  2.0622 -0.1537 -0.8390
  685MOL0     H90405   9.231   1.431   0.895 -0.9924  1.9335  1.1565
  685MOL0     H90406  10.719   0.829   1.953 -0.0934  2.0781  0.6237
  685MOL0     H90407  10.893   0.947   2.042  1.0243  2.4386 -1.5562
  685MOL0     H90408  11.348   1.090   1.882  1.0607  2.4343 -0.4914
  685MOL0     H90409  11.565   1.185   1.923  0.7679 -0.5472  0.2342
  685MOL0     H90410  11.790   1.126   2.256  1.0719  0.3161 -1.7085
  685MOL0     H90411  11.708   1.250   2.344  1.0353 -2.1432  0.8726
  685MOL0     H90412  11.919   1.300   2.137 -0.3260  0.0861  0.5771
  685MOL0     H90413  11.871   1.407   2.270 -0.4523 -0.2306  0.5585
  685MOL0     H90414  11.991   1.155   2.369  1.5309 -1.0711 -2.5905
  685MOL0     H90415  11.960   1.310   2.444  0.1431 -3.0941  1.5148
  685MOL0     H90416  12.183   1.302   2.443  0.2823  1.0915 -0.4690
  685MOL0     H90417  12.200   1.248   2.273  2.4616  0.7613  1.9713
  685MOL0     H90418  12.175   1.670   2.222  1.4123 -0.0066  1.6286
  685MOL0     H90419  11.520   1.123   2.338 -1.0013  0.0752 -0.3595
  685MOL0     H90420  11.290   1.027   2.305  0.4645 -1.4820 -0.4699
  686MOL0     O90421   1.063   7.951   2.832 -0.0732  0.3986 -0.2227
  686MOL0     C90422   1.159   8.014   2.807  0.3481 -0.6996  0.2786
  686MOL0     O90423   1.277   8.020   2.877  0.2401 -0.3963 -0.1602
  686MOL0     C90424   1.265   7.968   2.997  0.5643  0.6736 -0.5755
  686MOL0     C90425   1.203   8.033   3.105  0.3556  0.2715 -0.5809
  686MOL0     C90426   1.182   7.976   3.231 -0.3327 -0.2419 -0.0508
  686MOL0     C90427   1.230   7.848   3.253  0.7882  0.2545 -0.0625
  686MOL0     O90428   1.203   7.771   3.366 -0.5243  0.1748  0.0542
  686MOL0     C90429   1.062   7.755   3.391 -0.3028 -0.8408  0.9385
  686MOL0     C90430   1.005   7.688   3.267 -0.1352 -0.3019  0.1915
  686MOL0     C90431   1.031   7.538   3.283  0.1820 -0.5481 -0.9970
  686MOL0     C90432   0.966   7.444   3.177 -0.3377 -0.0947  0.1523
  686MOL0     C90433   0.995   7.299   3.205  0.6711  0.0393  0.5078
  686MOL0     C90434   0.935   7.218   3.094 -0.1033  0.5381 -0.3384
  686MOL0     C90435   0.917   7.078   3.146  0.5328  0.1789  0.8248
  686MOL0     C90436   0.867   6.980   3.040  0.1374  0.6134  1.0227
  686MOL0     N90437   0.848   6.842   3.081  0.5467 -0.6502 -1.1903
  686MOL0     C90438   0.766   6.778   3.174  0.3875 -0.2550  0.3383
  686MOL0     C90439   0.775   6.651   3.143  1.0517  0.8748  0.3002
  686MOL0     C90440   0.690   6.543   3.200  1.2782 -0.8140 -1.2224
  686MOL0     C90441   0.563   6.545   3.138  0.2644 -0.0655 -0.4004
  686MOL0     C90442   0.458   6.467   3.217 -0.9642 -0.3295  0.1018
  686MOL0     C90443   0.326   6.479   3.166 -0.6338 -0.1571  0.1502
  686MOL0     O90444   0.263   6.598   3.192 -0.2819 -0.4798  0.5895
  686MOL0     C90445   0.133   6.611   3.165  0.2101  0.0852 -0.1795
  686MOL0     C90446   0.083   6.737   3.166  0.8278 -0.1312 -0.3599
  686MOL0     C90447  -0.054   6.763   3.130 -0.0769  0.3924 -0.2560
  686MOL0     C90448  -0.141   6.659   3.116 -0.1950  0.2839  0.4728
  686MOL0     C90449  -0.281   6.689   3.086 -0.3025 -0.4293 -0.2353
  686MOL0     O90450  -0.353   6.587   3.030 -0.1975  0.3255  0.2846
  686MOL0     C90451  -0.491   6.578   3.005 -0.2541  0.4558 -0.6055
  686MOL0     C90452  -0.540   6.473   2.924  0.1941  0.2484 -0.4622
  686MOL0     C90453  -0.670   6.454   2.888  1.1681  0.0739  0.4795
  686MOL0     C90454  -0.776   6.525   2.942 -0.5727 -0.2443 -0.2558
  686MOL0     O90455  -0.911   6.501   2.929  0.3240  0.3535 -0.9881
  686MOL0     C90456  -0.945   6.360   2.900  0.9484  0.4355 -0.4006
  686MOL0     C90457  -1.077   6.312   2.963  0.7107 -0.6948  0.4134
  686MOL0     C90458  -1.131   6.180   2.925  0.1039  0.0218  0.3797
  686MOL0     C90459  -1.247   6.142   3.018  0.2813 -0.2022 -0.1016
  686MOL0     C90460  -1.295   6.002   2.983 -0.2258  0.1384 -0.3851
  686MOL0     C90461  -1.401   5.951   3.081  0.1739  0.0614 -0.4247
  686MOL0     C90462  -1.482   5.836   3.041 -0.2118 -0.8916 -0.7057
  686MOL0     C90463  -1.557   5.787   3.166 -0.2216 -0.6870 -0.1118
  686MOL0    Cl90464  -1.652   5.903   3.249  0.2801 -0.3120 -0.2773
  686MOL0     C90465  -0.737   6.625   3.037  0.6458  0.8215 -0.9414
  686MOL0     C90466  -0.598   6.657   3.063 -0.5768 -0.6595  0.4459
  686MOL0     O90467  -0.326   6.799   3.122 -0.2178  0.4302 -0.0726
  686MOL0     C90468  -0.101   6.528   3.130  0.1691 -0.0380  0.4922
  686MOL0     C90469   0.040   6.505   3.149  0.6691  0.9611  0.6231
  686MOL0     N90470   0.867   6.632   3.039 -0.1990 -0.6006 -0.7536
  686MOL0     N90471   0.917   6.752   3.016 -0.2565  0.7176 -0.0858
  686MOL0     C90472   1.304   7.783   3.161  1.5675 -0.1172  0.0516
  686MOL0     C90473   1.320   7.845   3.035  0.4491 -0.1820 -0.2571
  686MOL0     C90474   1.159   8.090   2.677 -0.2653  0.4208  0.0679
  686MOL0     C90475   1.037   8.135   2.623  0.1592 -0.6452 -0.8368
  686MOL0     C90476   1.027   8.209   2.506 -0.3842  0.0410 -0.9162
  686MOL0     C90477   1.146   8.253   2.452  0.6562  0.5090 -0.6464
  686MOL0     O90478   1.128   8.314   2.332 -0.0767 -0.4054  0.1773
  686MOL0     C90479   1.239   8.294   2.238 -0.2385  0.0473  0.5165
  686MOL0     C90480   1.204   8.380   2.122  0.5867 -0.0554  0.0601
  686MOL0     C90481   1.298   8.365   2.003  0.3154  0.4875 -1.1451
  686MOL0     C90482   1.270   8.238   1.929 -0.9416 -0.4285 -0.9079
  686MOL0     C90483   1.395   8.183   1.877 -0.3399  0.5449  0.2911
  686MOL0     C90484   1.501   8.146   1.841  0.3035  1.4882 -0.3128
  686MOL0     C90485   1.268   8.215   2.509  0.4436 -0.2713  0.9988
  686MOL0     C90486   1.273   8.137   2.616 -0.2008 -0.3309  0.2553
  686MOL0     H90487   1.150   8.126   3.091  1.6728  1.3482  1.2523
  686MOL0     H90488   1.134   8.038   3.306 -0.7921  1.5286 -1.7375
  686MOL0     H90489   1.027   7.859   3.397  1.7597  0.1228 -1.6528
  686MOL0     H90490   1.045   7.696   3.481  3.5186 -4.0775 -0.1341
  686MOL0     H90491   1.040   7.734   3.174  0.4109  0.0998  0.5912
  686MOL0     H90492   0.897   7.705   3.272 -0.4686 -2.4979  2.1862
  686MOL0     H90493   1.007   7.509   3.386  2.0875  1.0595 -0.0317
  686MOL0     H90494   1.137   7.521   3.266 -0.1225 -2.7462 -0.9170
  686MOL0     H90495   0.858   7.454   3.173 -0.5208 -1.2997  1.1402
  686MOL0     H90496   1.007   7.472   3.080  1.7236 -0.8821  0.7329
  686MOL0     H90497   0.946   7.273   3.299 -0.4926  2.2990  0.5881
  686MOL0     H90498   1.102   7.279   3.215  0.7256  0.3228  0.5121
  686MOL0     H90499   0.999   7.221   3.005  1.9120  0.1999  1.0394
  686MOL0     H90500   0.833   7.246   3.067 -0.9079 -1.8619  0.0363
  686MOL0     H90501   1.007   7.043   3.197 -0.0046 -4.8111 -1.0481
  686MOL0     H90502   0.839   7.083   3.223  0.7921 -1.9705  1.2915
  686MOL0     H90503   0.933   6.985   2.953  0.8250  0.8095  1.5432
  686MOL0     H90504   0.769   7.016   3.009 -1.0139 -1.1835  2.3830
  686MOL0     H90505   0.691   6.832   3.231 -1.2709 -2.1067 -0.0035
  686MOL0     H90506   0.670   6.564   3.305  2.5717 -0.9711 -0.9219
  686MOL0     H90507   0.741   6.446   3.198  2.0277 -0.5457  1.2215
  686MOL0     H90508   0.571   6.502   3.038  0.2466 -0.7466 -0.1093
  686MOL0     H90509   0.532   6.650   3.126 -0.3770 -0.2159 -0.0455
  686MOL0     H90510   0.489   6.362   3.214 -1.9206 -0.6035 -1.3251
  686MOL0     H90511   0.461   6.507   3.319 -0.7462 -0.2508  0.0664
  686MOL0     H90512   0.260   6.400   3.203 -0.5519 -0.2831  0.0302
  686MOL0     H90513   0.332   6.450   3.061 -2.4784 -1.7001  0.4167
  686MOL0     H90514   0.148   6.824   3.163 -1.3359  1.5726 -0.5759
  686MOL0     H90515  -0.077   6.868   3.120  4.5604  2.1849  3.5419
  686MOL0     H90516  -0.471   6.399   2.885  0.6383  1.2302 -1.6077
  686MOL0     H90517  -0.684   6.381   2.809  1.9306 -1.2001  1.4717
  686MOL0     H90518  -0.866   6.293   2.937  3.0018  3.2203  0.6294
  686MOL0     H90519  -0.943   6.345   2.791  2.3843 -1.5405 -0.1694
  686MOL0     H90520  -1.139   6.394   2.926 -0.3239 -2.2739 -1.6115
  686MOL0     H90521  -1.057   6.332   3.069 -0.0920  1.1477  0.2547
  686MOL0     H90522  -1.050   6.107   2.918 -1.6670 -1.8651 -1.6938
  686MOL0     H90523  -1.163   6.182   2.821  2.2236 -0.2552 -0.3334
  686MOL0     H90524  -1.202   6.147   3.117  0.8110  1.5021 -0.3835
  686MOL0     H90525  -1.328   6.215   3.008  0.6588  0.5899  2.1643
  686MOL0     H90526  -1.216   5.927   2.993 -1.0368 -0.5863  1.0094
  686MOL0     H90527  -1.334   6.019   2.882  1.7988 -0.9323 -1.3959
  686MOL0     H90528  -1.467   6.037   3.097  3.2082  2.2875  1.0257
  686MOL0     H90529  -1.351   5.930   3.175 -3.1008 -2.3987  0.9682
  686MOL0     H90530  -1.551   5.865   2.961  0.7955  2.6326 -0.4934
  686MOL0     H90531  -1.407   5.761   3.015  0.9165  0.3413 -1.1608
  686MOL0     H90532  -1.480   5.741   3.229  1.8100  0.3590 -1.7095
  686MOL0     H90533  -1.620   5.702   3.139  2.3925 -3.1121  0.9024
  686MOL0     H90534  -0.814   6.689   3.079  0.3096  1.1460 -1.9970
  686MOL0     H90535  -0.566   6.736   3.130 -3.4970  0.7730  0.3192
  686MOL0     H90536  -0.176   6.451   3.137 -1.2150  1.4207  4.1392
  686MOL0     H90537   0.066   6.400   3.145 -1.3907  0.3289  2.0247
  686MOL0     H90538   1.345   7.683   3.172 -2.4512 -2.4117 -2.9185
  686MOL0     H90539   1.372   7.788   2.959  1.1103  0.9599 -0.6858
  686MOL0     H90540   0.943   8.103   2.667  0.3396 -0.0106  0.0286
  686MOL0     H90541   0.936   8.241   2.456 -1.1455  2.4838  1.7970
  686MOL0     H90542   1.242   8.189   2.207  0.9964 -0.5821  2.6064
  686MOL0     H90543   1.337   8.329   2.271 -0.0194  0.1277 -0.2053
  686MOL0     H90544   1.100   8.357   2.097 -0.4910  0.9496  3.1550
  686MOL0     H90545   1.203   8.480   2.167 -0.2521 -0.6905  1.5218
  686MOL0     H90546   1.393   8.363   2.058 -0.6137  0.3919  0.5260
  686MOL0     H90547   1.288   8.458   1.945 -2.2221  1.2572  0.3550
  686MOL0     H90548   1.222   8.161   1.990 -3.0762  1.4420 -0.0406
  686MOL0     H90549   1.202   8.262   1.847 -0.9759  0.2341 -0.6915
  686MOL0     H90550   1.599   8.112   1.814 -1.3815 -1.7361 -3.0585
  686MOL0     H90551   1.359   8.251   2.463  0.5698  1.1972  2.3100
  686MOL0     H90552   1.373   8.112   2.650  0.7142  1.7868 -0.7068
  687MOL0     O90553   0.886   9.793  10.654  0.1406  0.5169 -0.0672
  687MOL0     C90554   0.857   9.879  10.579  0.1253 -0.0336 -0.9620
  687MOL0     O90555   0.938   9.979  10.538 -0.1077 -1.4751 -0.1928
  687MOL0     C90556   1.065   9.967  10.582  0.5653  0.4288  0.6128
  687MOL0     C90557   1.102  10.033  10.700  0.0062  0.0662 -0.0267
  687MOL0     C90558   1.240  10.030  10.731  0.1282 -1.1394 -0.4143
  687MOL0     C90559   1.332   9.953  10.662  0.3255  0.1457  0.5504
  687MOL0     O90560   1.469   9.952  10.681  0.3525 -0.6962 -0.5057
  687MOL0     C90561   1.525   9.968  10.813 -0.1742  0.7629  0.4561
  687MOL0     C90562   1.641  10.074  10.811  0.1789 -0.5304 -0.5066
  687MOL0     C90563   1.715  10.077  10.950  0.3599  0.7106 -0.0052
  687MOL0     C90564   1.849  10.149  10.944 -0.2579 -0.1901 -0.4957
  687MOL0     C90565   1.936  10.098  11.059 -0.2591  0.1773  0.4331
  687MOL0     C90566   2.044  10.201  11.096 -0.1970  0.3610  0.0302
  687MOL0     C90567   2.133  10.247  10.977 -0.1782  0.2882 -0.1763
  687MOL0     C90568   2.204  10.122  10.911 -0.5869  0.1012  0.2994
  687MOL0     N90569   2.260  10.167  10.780 -0.8882  0.1220  0.9691
  687MOL0     C90570   2.211  10.146  10.652  0.1217  0.2986 -0.1596
  687MOL0     C90571   2.319  10.170  10.576 -0.2721  0.9313  0.8876
  687MOL0     C90572   2.313  10.163  10.423 -0.1759 -0.0361  0.7832
  687MOL0     C90573   2.319  10.024  10.372 -0.2476 -0.1588  0.1052
  687MOL0     C90574   2.354  10.004  10.226 -0.1109 -0.4322 -0.3269
  687MOL0     C90575   2.365   9.856  10.192 -1.4696 -1.0750  0.1268
  687MOL0     O90576   2.248   9.781  10.234 -0.0935  0.3711  0.4027
  687MOL0     C90577   2.164   9.739  10.142  1.1728  0.4659  0.3543
  687MOL0     C90578   2.150   9.787  10.009  0.2816 -0.8876  0.5463
  687MOL0     C90579   2.033   9.751   9.918 -0.2248  0.5960 -0.6752
  687MOL0     C90580   1.930   9.668   9.966  0.4489 -0.6965  0.1742
  687MOL0     C90581   1.807   9.652   9.882 -0.8507 -0.0469  0.0249
  687MOL0     O90582   1.732   9.544   9.918  0.2019  0.5438  0.2473
  687MOL0     C90583   1.605   9.522   9.863 -0.2442  0.3275  0.2211
  687MOL0     C90584   1.589   9.506   9.721  1.0762 -0.6633 -0.0304
  687MOL0     C90585   1.472   9.455   9.672 -0.6166 -0.3227  0.0341
  687MOL0     C90586   1.359   9.420   9.753  0.0014  0.2676  0.1293
  687MOL0     O90587   1.256   9.341   9.696  0.6175 -0.0990 -0.0402
  687MOL0     C90588   1.139   9.319   9.772  0.0235 -0.4179  0.0557
  687MOL0     C90589   1.029   9.245   9.695 -1.0629  0.7298 -0.5426
  687MOL0     C90590   1.078   9.092   9.692 -0.2285  0.4000 -0.1646
  687MOL0     C90591   0.967   9.000   9.642  0.4037  0.4013  0.5340
  687MOL0     C90592   0.993   8.852   9.675  0.2322  0.4092 -0.1997
  687MOL0     C90593   1.121   8.806   9.616  0.3968 -0.4994 -0.2025
  687MOL0     C90594   1.134   8.653   9.618  0.6005 -0.4811  0.4042
  687MOL0     C90595   1.220   8.598   9.502  0.0293 -0.0423 -0.0134
  687MOL0    Cl90596   1.153   8.633   9.342  0.0943  0.2771  0.1092
  687MOL0     C90597   1.378   9.437   9.892 -0.5973  0.4606  0.0217
  687MOL0     C90598   1.493   9.487   9.951  0.6927 -0.1161  1.2781
  687MOL0     O90599   1.787   9.723   9.780 -0.2980 -0.3175 -0.2966
  687MOL0     C90600   1.949   9.615  10.096 -0.5567  0.5778  0.7774
  687MOL0     C90601   2.061   9.639  10.180  0.2640 -0.2329 -0.1300
  687MOL0     N90602   2.432  10.200  10.646  0.4090 -0.4671 -0.4820
  687MOL0     N90603   2.388  10.202  10.771  0.0229 -0.4759 -0.0231
  687MOL0     C90604   1.288   9.889  10.546  0.8371  0.2473  0.2369
  687MOL0     C90605   1.151   9.896  10.501  0.0890  0.6105 -0.2329
  687MOL0     C90606   0.713   9.882  10.534  0.4167  0.9345  0.2700
  687MOL0     C90607   0.664   9.964  10.430 -0.2919 -0.2508 -0.1314
  687MOL0     C90608   0.525   9.967  10.391  0.0115 -0.4046  0.4267
  687MOL0     C90609   0.433   9.875  10.457 -1.0897  0.7732  0.8347
  687MOL0     O90610   0.300   9.867  10.432  0.2567 -0.1254  0.4972
  687MOL0     C90611   0.239   9.937  10.316  0.5211 -0.5739  0.2094
  687MOL0     C90612   0.157  10.058  10.356 -0.8269 -0.5741  0.8177
  687MOL0     C90613   0.013  10.006  10.382 -0.0368  0.2877  0.4443
  687MOL0     C90614  -0.050  10.116  10.460  0.5195 -0.8740 -1.3425
  687MOL0     C90615  -0.199  10.091  10.466  0.5185  0.4612 -0.7568
  687MOL0     C90616  -0.323  10.079  10.445  0.4991 -0.4375  0.0283
  687MOL0     C90617   0.488   9.785  10.553  0.7542 -0.3219  0.4691
  687MOL0     C90618   0.619   9.794  10.592 -0.7536 -0.7132 -1.0838
  687MOL0     H90619   1.030  10.100  10.746  0.1335  0.4354 -0.3601
  687MOL0     H90620   1.265  10.109  10.800  0.2019 -1.5766  0.0683
  687MOL0     H90621   1.570   9.872  10.838  1.1322  0.8588 -1.2869
  687MOL0     H90622   1.456  10.002  10.890  0.4526  0.4348  1.1802
  687MOL0     H90623   1.590  10.170  10.803 -2.4407 -1.9219 -2.6455
  687MOL0     H90624   1.720  10.062  10.737  0.8454 -0.0611  0.1259
  687MOL0     H90625   1.738   9.972  10.972  2.5525  0.7996 -1.5616
  687MOL0     H90626   1.651  10.118  11.028 -2.7349 -1.2001 -1.3510
  687MOL0     H90627   1.897  10.134  10.847 -1.4813  1.7749 -1.4759
  687MOL0     H90628   1.828  10.255  10.960  2.8227  0.3005  0.9484
  687MOL0     H90629   1.984  10.010  11.016  3.4559  1.4990  1.5575
  687MOL0     H90630   1.868  10.077  11.142 -2.1802 -0.1766 -1.1492
  687MOL0     H90631   2.110  10.162  11.175 -1.7693 -2.8815 -0.0805
  687MOL0     H90632   1.999  10.290  11.139  1.0044 -0.0155  2.2469
  687MOL0     H90633   2.077  10.311  10.908 -0.9522  0.5734  0.6897
  687MOL0     H90634   2.212  10.305  11.027 -0.6651  0.1075  0.8299
  687MOL0     H90635   2.132  10.046  10.879 -1.2215  1.0587 -0.6355
  687MOL0     H90636   2.290  10.082  10.965  0.1937 -1.3470 -1.8434
  687MOL0     H90637   2.112  10.109  10.625  0.6175 -0.1900 -1.4100
  687MOL0     H90638   2.382  10.238  10.385  0.0110  0.8686  2.7699
  687MOL0     H90639   2.225  10.216  10.386  0.6520  2.8292  2.5823
  687MOL0     H90640   2.220   9.980  10.390 -0.7638  0.9527  0.0608
  687MOL0     H90641   2.384   9.956  10.427  0.8822 -2.7542 -3.9893
  687MOL0     H90642   2.276  10.051  10.164 -0.0168 -0.2435 -0.3051
  687MOL0     H90643   2.447  10.051  10.193 -0.8077 -1.6521 -4.7055
  687MOL0     H90644   2.460   9.817  10.229 -0.1619  0.4654 -1.4767
  687MOL0     H90645   2.389   9.860  10.086 -1.0750 -0.5158  0.2311
  687MOL0     H90646   2.225   9.858   9.976 -0.4051 -0.2220  0.3730
  687MOL0     H90647   2.032   9.801   9.821  1.1267  2.8267  0.3748
  687MOL0     H90648   1.666   9.535   9.651 -0.0393  0.5538 -0.8150
  687MOL0     H90649   1.441   9.424   9.573 -3.3989  0.8155  0.4347
  687MOL0     H90650   1.101   9.420   9.790  1.3435 -0.2590  2.2666
  687MOL0     H90651   1.158   9.263   9.865 -1.4565 -1.5643 -0.2887
  687MOL0     H90652   1.024   9.279   9.592  0.5499  3.0780  0.0676
  687MOL0     H90653   0.933   9.265   9.744 -0.7450 -0.4567  0.6319
  687MOL0     H90654   1.090   9.068   9.798  0.1326  3.2868  0.5094
  687MOL0     H90655   1.176   9.082   9.644  0.1210 -1.0186  0.7698
  687MOL0     H90656   0.873   9.029   9.691 -0.7057 -2.6544  0.4351
  687MOL0     H90657   0.962   9.014   9.534  0.6783 -2.3316  0.0790
  687MOL0     H90658   0.916   8.786   9.634  1.6875 -1.0036 -0.7826
  687MOL0     H90659   0.996   8.850   9.784  0.3365  2.6488 -0.1214
  687MOL0     H90660   1.206   8.840   9.677  0.6570 -0.3641 -0.6340
  687MOL0     H90661   1.120   8.842   9.513 -1.1895  0.7558  0.2148
  687MOL0     H90662   1.171   8.618   9.714  2.4233  0.5825  0.1319
  687MOL0     H90663   1.035   8.607   9.613  1.3936 -2.1927 -0.3798
  687MOL0     H90664   1.228   8.490   9.511 -0.0135  0.0976  2.2633
  687MOL0     H90665   1.315   8.653   9.500 -0.3270  0.7258  1.8464
  687MOL0     H90666   1.307   9.398   9.965  0.5915 -0.5826  0.6574
  687MOL0     H90667   1.504   9.494  10.058  1.4273  1.2736  1.1223
  687MOL0     H90668   1.872   9.544  10.126  0.4745 -1.0295 -0.2447
  687MOL0     H90669   2.061   9.589  10.277 -0.8090 -1.9698 -0.9676
  687MOL0     H90670   1.359   9.833  10.486  2.4157  1.4026  0.9889
  687MOL0     H90671   1.109   9.849  10.412  0.3628  1.8834 -1.0692
  687MOL0     H90672   0.731  10.031  10.377  0.4407 -1.3138 -0.5965
  687MOL0     H90673   0.498  10.039  10.315  2.9511 -0.6859 -1.0127
  687MOL0     H90674   0.175   9.878  10.249 -0.7527  3.2817 -2.3092
  687MOL0     H90675   0.320   9.971  10.250 -0.8436  2.3836 -0.1054
  687MOL0     H90676   0.204  10.114  10.438 -0.7872  2.2260 -0.9982
  687MOL0     H90677   0.159  10.122  10.268 -1.3719 -2.4954 -0.6628
  687MOL0     H90678   0.013   9.915  10.444  2.1986  0.8108  1.2858
  687MOL0     H90679  -0.043   9.990  10.290  2.9261  2.0830 -1.8190
  687MOL0     H90680  -0.008  10.119  10.561 -0.8510  0.1540 -0.7758
  687MOL0     H90681  -0.026  10.215  10.422 -2.8018  1.5300  2.0416
  687MOL0     H90682  -0.428  10.067  10.429  0.4489  1.4020 -1.2999
  687MOL0     H90683   0.417   9.714  10.594 -2.9907  2.6158 -0.2873
  687MOL0     H90684   0.661   9.725  10.664 -0.0072  0.7201 -0.0836
  688MOL0     O90685  10.663  10.495   1.489 -0.0162  0.6146 -0.3704
  688MOL0     C90686  10.694  10.555   1.591 -0.6195  0.1296 -0.3050
  688MOL0     O90687  10.613  10.614   1.685 -0.2682 -0.0572 -0.6118
  688MOL0     C90688  10.476  10.601   1.689  0.2329  0.4579  0.0272
  688MOL0     C90689  10.398  10.574   1.572 -0.1407 -0.2646  0.1309
  688MOL0     C90690  10.255  10.571   1.580  0.8386 -1.3222  0.3533
  688MOL0     C90691  10.193  10.585   1.704 -0.4993  0.1717  0.2374
  688MOL0     O90692  10.061  10.557   1.719 -0.4924 -0.0152 -0.9023
  688MOL0     C90693   9.998  10.449   1.642  0.4159  0.1088 -0.1579
  688MOL0     C90694   9.849  10.449   1.652  0.3042 -0.1090  0.1284
  688MOL0     C90695   9.801  10.394   1.782 -0.2248 -0.0157  1.0126
  688MOL0     C90696   9.658  10.425   1.803  0.3039 -0.6076 -0.4846
  688MOL0     C90697   9.617  10.369   1.948  0.2282 -0.6131 -0.3089
  688MOL0     C90698   9.481  10.434   2.001 -0.3368  0.6856  0.1617
  688MOL0     C90699   9.359  10.405   1.904 -0.3403  0.2314 -0.0614
  688MOL0     C90700   9.334  10.251   1.905 -0.4584 -1.1521  0.2052
  688MOL0     N90701   9.204  10.220   1.848 -0.5784 -0.5292  0.5680
  688MOL0     C90702   9.093  10.174   1.917  0.5535 -0.2612  0.1835
  688MOL0     C90703   8.998  10.141   1.823 -0.6454 -0.5139 -0.0509
  688MOL0     C90704   8.864  10.087   1.844  0.8561 -0.5111 -0.4945
  688MOL0     C90705   8.767  10.113   1.714 -1.4053  0.2628 -0.3311
  688MOL0     C90706   8.640  10.037   1.736 -0.9814 -0.4865  0.1125
  688MOL0     C90707   8.519  10.102   1.794  0.8050 -0.3991  0.1415
  688MOL0     O90708   8.457  10.190   1.709  0.2436 -0.5499  0.9325
  688MOL0     C90709   8.320  10.184   1.703  1.0818 -0.2000 -0.5751
  688MOL0     C90710   8.258  10.184   1.576  0.6920  0.1738  0.0549
  688MOL0     C90711   8.119  10.183   1.575 -0.0734 -0.2469 -0.1905
  688MOL0     C90712   8.042  10.198   1.689  1.3613  0.3849 -0.4169
  688MOL0     C90713   7.893  10.207   1.688 -0.0684  0.8505 -0.5231
  688MOL0     O90714   7.841  10.204   1.565  0.1475  0.1770 -0.5735
  688MOL0     C90715   7.717  10.263   1.559 -0.1125  0.2984 -0.1203
  688MOL0     C90716   7.599  10.207   1.611 -0.2376  0.3861 -0.7492
  688MOL0     C90717   7.475  10.273   1.594  0.0083  0.1389 -0.5809
  688MOL0     C90718   7.467  10.394   1.530 -0.2910 -1.0992 -0.0574
  688MOL0     O90719   7.345  10.463   1.506 -0.3772  0.1992 -0.4432
  688MOL0     C90720   7.224  10.395   1.448 -0.4318 -0.3985  0.1552
  688MOL0     C90721   7.112  10.492   1.424  0.4203 -0.4753  0.1652
  688MOL0     C90722   6.979  10.415   1.409  1.3276  0.1588  0.1704
  688MOL0     C90723   6.869  10.522   1.392  0.9310  0.6732 -0.8149
  688MOL0     C90724   6.716  10.474   1.394 -0.2536 -0.3433  0.2848
  688MOL0     C90725   6.624  10.582   1.354  0.2062  0.7737 -0.9177
  688MOL0     C90726   6.486  10.527   1.336 -0.0538  0.4063 -0.8130
  688MOL0     C90727   6.387  10.635   1.318 -0.9775 -0.5714  0.2669
  688MOL0    Cl90728   6.241  10.566   1.270  0.3718 -0.1045 -0.0140
  688MOL0     C90729   7.585  10.455   1.490  0.2492  0.4160 -0.3189
  688MOL0     C90730   7.702  10.385   1.500 -0.8614 -0.0565  0.0866
  688MOL0     O90731   7.832  10.209   1.794  0.0663  0.3602 -0.1486
  688MOL0     C90732   8.110  10.209   1.812 -0.2015 -0.4745  0.3344
  688MOL0     C90733   8.247  10.204   1.823  0.6334  1.0949 -0.1067
  688MOL0     N90734   9.050  10.182   1.704 -0.3555  0.1266 -0.3654
  688MOL0     N90735   9.176  10.220   1.717  0.5041  0.1373 -0.1702
  688MOL0     C90736  10.269  10.607   1.817 -0.0836 -0.6659 -0.3950
  688MOL0     C90737  10.407  10.620   1.812 -0.8900 -0.1994 -0.0905
  688MOL0     C90738  10.836  10.588   1.615  0.3457 -0.1185 -0.6148
  688MOL0     C90739  10.927  10.580   1.518  0.1492  0.6688  0.7658
  688MOL0     C90740  11.069  10.594   1.529 -0.3952 -0.1570  0.0433
  688MOL0     C90741  11.118  10.658   1.646  0.4647  0.5562  0.1347
  688MOL0     O90742  11.246  10.715   1.635 -0.4278  0.2653  0.1374
  688MOL0     C90743  11.304  10.798   1.743  0.0865  0.1774  0.0336
  688MOL0     C90744  11.454  10.818   1.694  0.0084 -0.1794  0.6054
  688MOL0     C90745  11.442  10.882   1.562 -0.0634  0.1597  0.2853
  688MOL0     C90746  11.582  10.907   1.512 -0.8174 -1.0626 -0.5810
  688MOL0     C90747  11.666  11.006   1.577 -0.8267 -0.9375  0.2623
  688MOL0     C90748  11.744  11.077   1.636  0.0358 -0.1450 -0.7791
  688MOL0     C90749  11.021  10.667   1.755 -0.0667  0.6877  0.1932
  688MOL0     C90750  10.891  10.626   1.735 -0.1491  1.0559  0.2524
  688MOL0     H90751  10.447  10.557   1.477 -1.8028 -3.7376 -0.2613
  688MOL0     H90752  10.198  10.550   1.490  0.9552 -0.0621 -0.0324
  688MOL0     H90753  10.040  10.356   1.681  1.0037  0.9962  1.4315
  688MOL0     H90754  10.012  10.458   1.534 -3.1039  1.2134 -0.6225
  688MOL0     H90755   9.824  10.371   1.579  3.2483  0.2971 -1.4631
  688MOL0     H90756   9.809  10.546   1.622  0.1609  0.4670  2.0655
  688MOL0     H90757   9.866  10.437   1.858  0.9082 -1.3333  0.8292
  688MOL0     H90758   9.808  10.285   1.788 -0.5038 -0.0290  1.1120
  688MOL0     H90759   9.648  10.534   1.800  0.9084 -0.4648  1.2683
  688MOL0     H90760   9.605  10.383   1.717 -3.6338  0.1314  1.3563
  688MOL0     H90761   9.702  10.402   2.009  0.4750 -0.5463 -0.6879
  688MOL0     H90762   9.604  10.262   1.934  2.1434 -0.7513 -1.4396
  688MOL0     H90763   9.494  10.542   2.010 -3.2218  1.6643 -4.1767
  688MOL0     H90764   9.454  10.403   2.102  0.5625  1.9907  0.8182
  688MOL0     H90765   9.273  10.463   1.939 -0.3268 -0.6055  1.4629
  688MOL0     H90766   9.378  10.445   1.804 -1.3530  1.6195  0.2712
  688MOL0     H90767   9.352  10.218   2.008 -0.8378  0.3275  0.7722
  688MOL0     H90768   9.405  10.192   1.845  1.0870  0.2313  0.5794
  688MOL0     H90769   9.083  10.157   2.024 -0.0779  1.5642  0.4507
  688MOL0     H90770   8.821  10.139   1.930  2.7698  1.6592 -0.7644
  688MOL0     H90771   8.873   9.983   1.877 -3.7281 -0.7462  0.6694
  688MOL0     H90772   8.821  10.071   1.629 -0.7616  2.8132 -1.2934
  688MOL0     H90773   8.760  10.222   1.701  1.2553  0.8126  1.8944
  688MOL0     H90774   8.605   9.995   1.641 -1.1770  1.2139 -0.6045
  688MOL0     H90775   8.675   9.953   1.796  2.1413 -0.7602 -1.8819
  688MOL0     H90776   8.539  10.144   1.893  2.2255  1.1663 -0.7728
  688MOL0     H90777   8.455  10.016   1.819  1.3580 -0.5775  0.9736
  688MOL0     H90778   8.322  10.175   1.488  0.8970 -0.1553  0.2325
  688MOL0     H90779   8.079  10.161   1.476  0.9539 -0.0543 -0.6723
  688MOL0     H90780   7.607  10.112   1.663 -0.7534  1.3506  1.1962
  688MOL0     H90781   7.393  10.227   1.648  0.1943  2.5439  1.9507
  688MOL0     H90782   7.194  10.317   1.519  1.8324 -1.4816  0.0277
  688MOL0     H90783   7.270  10.363   1.354  3.6032  4.1372  0.1995
  688MOL0     H90784   7.137  10.541   1.330 -0.1367  1.1809  0.8330
  688MOL0     H90785   7.106  10.566   1.504 -2.4359 -0.9769  0.5099
  688MOL0     H90786   6.945  10.358   1.496 -0.4896  0.7505 -0.1019
  688MOL0     H90787   6.998  10.360   1.317  1.9366  2.5530 -1.2413
  688MOL0     H90788   6.869  10.597   1.472 -2.6603 -1.4095  1.3875
  688MOL0     H90789   6.894  10.583   1.304  0.3303  2.7534  0.3938
  688MOL0     H90790   6.696  10.439   1.495 -0.2400 -2.7666 -0.5031
  688MOL0     H90791   6.709  10.396   1.318  1.9417  1.6457 -2.1823
  688MOL0     H90792   6.661  10.626   1.261 -0.6690 -0.5728 -1.9498
  688MOL0     H90793   6.625  10.671   1.418  0.2908  2.5011 -3.1955
  688MOL0     H90794   6.484  10.469   1.243  0.1325 -1.4283  0.2630
  688MOL0     H90795   6.462  10.461   1.420  2.3851  0.3063 -0.1347
  688MOL0     H90796   6.417  10.704   1.239  0.0125 -2.9862 -1.6098
  688MOL0     H90797   6.385  10.679   1.418  3.2223 -1.8233  1.0832
  688MOL0     H90798   7.580  10.551   1.440 -1.8485  0.1196 -0.7482
  688MOL0     H90799   7.794  10.429   1.463 -0.2649 -1.4796 -0.1899
  688MOL0     H90800   8.049  10.214   1.902 -1.8590  3.5563 -0.7929
  688MOL0     H90801   8.313  10.212   1.908  1.0393 -1.7512 -0.0665
  688MOL0     H90802  10.221  10.643   1.907 -0.1721 -1.8431  0.0470
  688MOL0     H90803  10.462  10.642   1.903  0.0610  1.4090 -1.0010
  688MOL0     H90804  10.895  10.561   1.416 -1.7371  1.1913  1.2155
  688MOL0     H90805  11.128  10.580   1.439 -0.2334  2.2316 -0.2739
  688MOL0     H90806  11.308  10.752   1.842  1.0724  0.4830  0.1478
  688MOL0     H90807  11.259  10.897   1.750  0.2442  0.1780  1.3910
  688MOL0     H90808  11.516  10.886   1.753  1.0293  0.5026 -1.1747
  688MOL0     H90809  11.502  10.723   1.669  1.2427  1.1527 -2.6193
  688MOL0     H90810  11.387  10.977   1.560  2.3448  1.6459 -0.2734
  688MOL0     H90811  11.388  10.822   1.489  1.2742  0.8110 -1.3023
  688MOL0     H90812  11.643  10.817   1.506  1.7523  0.5885 -1.2749
  688MOL0     H90813  11.564  10.931   1.406  2.0785 -2.8438 -1.6039
  688MOL0     H90814  11.823  11.135   1.678 -0.7202  1.4948 -1.5240
  688MOL0     H90815  11.045  10.731   1.839  1.3555  0.9108 -0.3504
  688MOL0     H90816  10.833  10.645   1.825  0.3588  2.4113  0.3025
  689MOL0     O90817   7.328   6.043   1.249 -0.6446  0.2121  0.5862
  689MOL0     C90818   7.366   5.996   1.353 -0.1105 -0.1160 -0.4233
  689MOL0     O90819   7.289   5.970   1.470 -0.1397 -0.7620  0.3622
  689MOL0     C90820   7.158   6.017   1.490  0.1993  0.4888 -0.6195
  689MOL0     C90821   7.071   6.091   1.399 -0.5241  0.5286 -0.0460
  689MOL0     C90822   6.942   6.122   1.438  0.0837  0.6607 -0.9617
  689MOL0     C90823   6.882   6.065   1.560  0.2652  0.4588  0.6924
  689MOL0     O90824   6.748   6.083   1.586 -0.5086 -0.4104  0.3466
  689MOL0     C90825   6.665   5.958   1.595 -0.5453 -0.0511 -0.0434
  689MOL0     C90826   6.538   5.993   1.662  0.0725 -0.2192  0.8321
  689MOL0     C90827   6.451   5.869   1.687 -1.0178  0.0900  0.4535
  689MOL0     C90828   6.321   5.933   1.749 -0.0093 -0.0977 -0.5911
  689MOL0     C90829   6.216   5.825   1.767  0.5243  0.2359 -0.0128
  689MOL0     C90830   6.095   5.865   1.858 -0.0581  0.5788 -0.4417
  689MOL0     C90831   5.981   5.766   1.862 -0.1184  0.3777 -0.1994
  689MOL0     C90832   6.012   5.636   1.934 -0.1938 -0.1387 -0.5397
  689MOL0     N90833   5.883   5.557   1.947  0.4352  0.5805  0.6731
  689MOL0     C90834   5.853   5.439   1.886  0.5489  0.4802  0.1925
  689MOL0     C90835   5.738   5.397   1.938 -0.3041 -0.4687  0.2485
  689MOL0     C90836   5.676   5.267   1.909 -0.0100  0.8531 -1.5584
  689MOL0     C90837   5.522   5.287   1.920  0.4981 -0.9950  0.4218
  689MOL0     C90838   5.452   5.159   1.863  0.3650 -0.3367  0.4110
  689MOL0     C90839   5.301   5.160   1.901  0.6068 -0.6653  0.0842
  689MOL0     O90840   5.230   5.071   1.817  0.0316  0.0308 -0.3383
  689MOL0     C90841   5.098   5.051   1.838  0.1317 -1.8993  0.9492
  689MOL0     C90842   5.033   4.965   1.755  0.2279  0.5176  0.4187
  689MOL0     C90843   4.894   4.941   1.772  0.4121  0.0133  0.3199
  689MOL0     C90844   4.822   5.009   1.868 -0.1742  0.7304 -0.3554
  689MOL0     C90845   4.680   4.983   1.894  0.3998 -0.3531  0.4702
  689MOL0     O90846   4.623   5.071   1.982  0.5527  0.5449  0.2600
  689MOL0     C90847   4.490   5.050   2.010  0.3410  0.7913 -0.2181
  689MOL0     C90848   4.456   4.935   2.085  0.9877  0.3255  0.1049
  689MOL0     C90849   4.325   4.911   2.113 -0.1673  1.0468 -0.0935
  689MOL0     C90850   4.219   4.995   2.066  0.2602  1.1589 -0.7374
  689MOL0     O90851   4.089   4.967   2.088  1.0045 -0.1478 -0.1447
  689MOL0     C90852   4.052   4.863   2.185  0.3229 -0.8288  0.6983
  689MOL0     C90853   3.908   4.899   2.224 -0.5641  0.1917 -0.0638
  689MOL0     C90854   3.851   4.771   2.278  0.5371  0.3418  0.0212
  689MOL0     C90855   3.700   4.783   2.322 -0.1533 -0.0457  0.2792
  689MOL0     C90856   3.637   4.669   2.392  0.0870 -0.1516  0.0956
  689MOL0     C90857   3.503   4.694   2.459 -0.5039 -0.7904 -0.7431
  689MOL0     C90858   3.441   4.557   2.497  0.0392 -0.1825  0.7882
  689MOL0     C90859   3.358   4.572   2.626 -0.7900  0.3560  0.5058
  689MOL0    Cl90860   3.238   4.698   2.628 -0.0730  0.5524  0.3234
  689MOL0     C90861   4.257   5.103   1.977  0.7413  0.1861 -0.5244
  689MOL0     C90862   4.391   5.129   1.953 -0.3650  1.1959  0.0098
  689MOL0     O90863   4.622   4.893   1.832  0.3326 -0.3914 -0.2606
  689MOL0     C90864   4.898   5.087   1.954  1.2012 -0.8566 -0.5014
  689MOL0     C90865   5.031   5.119   1.936 -0.3617  0.2846 -0.1713
  689MOL0     N90866   5.692   5.496   2.023 -0.1373 -0.4004  1.1495
  689MOL0     N90867   5.783   5.587   2.030 -0.4213 -0.1216  0.1447
  689MOL0     C90868   6.966   5.995   1.645  1.1065  0.9112 -0.0871
  689MOL0     C90869   7.092   5.964   1.614 -0.7119 -0.2633  0.7243
  689MOL0     C90870   7.510   5.963   1.365 -0.4780  0.1219  0.3481
  689MOL0     C90871   7.572   5.910   1.252 -0.2029  0.1645  0.0612
  689MOL0     C90872   7.707   5.874   1.257  0.2212  0.2998  0.5075
  689MOL0     C90873   7.787   5.885   1.372 -0.6328 -0.7276  0.6729
  689MOL0     O90874   7.910   5.842   1.385 -0.9716 -0.2931  0.0647
  689MOL0     C90875   7.980   5.802   1.269 -0.4167  0.1165 -0.4260
  689MOL0     C90876   8.126   5.800   1.304  0.7670  0.5381 -0.5408
  689MOL0     C90877   8.210   5.761   1.174  0.5386  0.4512 -0.1096
  689MOL0     C90878   8.357   5.786   1.178 -0.2919 -0.9410 -0.3325
  689MOL0     C90879   8.406   5.665   1.239 -0.1421  0.4138 -1.1597
  689MOL0     C90880   8.435   5.565   1.307 -0.4390  1.1976  0.8449
  689MOL0     C90881   7.729   5.952   1.474 -0.0704 -1.1043 -0.5239
  689MOL0     C90882   7.588   5.981   1.479  0.0871 -0.4342 -0.6987
  689MOL0     H90883   7.117   6.132   1.310 -0.4301 -1.2527 -0.8470
  689MOL0     H90884   6.883   6.193   1.382  0.6492  2.2251  0.3531
  689MOL0     H90885   6.718   5.888   1.660  1.8374 -0.2030 -2.0087
  689MOL0     H90886   6.646   5.932   1.491  0.1093 -1.1482  0.0949
  689MOL0     H90887   6.499   6.069   1.594 -0.1134 -0.8985  0.1540
  689MOL0     H90888   6.553   6.030   1.763 -1.8225 -0.4627  1.2505
  689MOL0     H90889   6.501   5.805   1.760  0.2331  0.9423  0.3568
  689MOL0     H90890   6.430   5.828   1.588  1.6980  1.6699 -0.8661
  689MOL0     H90891   6.338   5.982   1.845 -2.6024 -2.0590  1.0043
  689MOL0     H90892   6.274   6.004   1.679  0.9681  0.6232 -0.5311
  689MOL0     H90893   6.265   5.741   1.818 -1.4437  0.0272  1.6766
  689MOL0     H90894   6.177   5.789   1.672  0.9516  2.0875 -0.9375
  689MOL0     H90895   6.050   5.949   1.805  0.3713  1.5267  0.6571
  689MOL0     H90896   6.114   5.897   1.961 -1.8400  1.8971 -0.4825
  689MOL0     H90897   5.899   5.809   1.920 -0.4462 -1.4720  0.7987
  689MOL0     H90898   5.944   5.751   1.760 -3.0222  0.6448  0.7507
  689MOL0     H90899   6.061   5.658   2.029 -1.1220  0.7367 -0.2382
  689MOL0     H90900   6.088   5.588   1.872  1.3094  1.2809  0.1300
  689MOL0     H90901   5.899   5.378   1.808 -1.5133 -2.7332  1.2885
  689MOL0     H90902   5.712   5.191   1.978 -1.4177  1.9170  0.4701
  689MOL0     H90903   5.703   5.234   1.809 -1.1022  1.2413 -1.9971
  689MOL0     H90904   5.493   5.371   1.856 -3.3592 -2.4606 -0.0360
  689MOL0     H90905   5.485   5.310   2.020 -0.2296 -0.2494 -0.0084
  689MOL0     H90906   5.462   5.148   1.755  0.7118 -0.1072  0.4177
  689MOL0     H90907   5.501   5.071   1.906 -0.4063 -0.0748  1.8822
  689MOL0     H90908   5.258   5.260   1.891 -0.1904 -1.1604 -1.9670
  689MOL0     H90909   5.293   5.131   2.006 -1.8786 -0.3588  0.0496
  689MOL0     H90910   5.087   4.912   1.677 -0.0830 -0.6947  1.0025
  689MOL0     H90911   4.849   4.871   1.703  2.4228  0.5200 -1.5929
  689MOL0     H90912   4.528   4.866   2.129  2.9374  2.0040 -0.3577
  689MOL0     H90913   4.309   4.821   2.171  1.0592 -0.0146 -1.3140
  689MOL0     H90914   4.127   4.871   2.264  1.0004  0.5854 -0.0459
  689MOL0     H90915   4.055   4.772   2.123  0.8113  0.0441 -0.5978
  689MOL0     H90916   3.855   4.938   2.137 -0.4951  1.5450  0.4731
  689MOL0     H90917   3.894   4.980   2.296 -1.7237  0.2353 -0.3143
  689MOL0     H90918   3.909   4.748   2.368  0.8989 -1.0558 -0.5368
  689MOL0     H90919   3.863   4.685   2.211  0.3232  0.1158  0.2676
  689MOL0     H90920   3.702   4.867   2.391  2.1003 -0.3105  0.6212
  689MOL0     H90921   3.641   4.804   2.232  1.3216  3.1202 -0.0784
  689MOL0     H90922   3.716   4.635   2.460  2.0355 -2.2523 -2.9408
  689MOL0     H90923   3.638   4.580   2.329  1.7736 -0.6574  0.7517
  689MOL0     H90924   3.438   4.752   2.392 -0.6155 -1.4888 -1.2513
  689MOL0     H90925   3.519   4.756   2.548 -0.0814 -1.2845 -0.4663
  689MOL0     H90926   3.375   4.523   2.416 -0.4401  4.6710 -1.2083
  689MOL0     H90927   3.524   4.489   2.518 -0.3719 -0.5574  1.2055
  689MOL0     H90928   3.433   4.585   2.705 -1.0752 -1.4027  1.1215
  689MOL0     H90929   3.300   4.482   2.649 -0.5724  0.5524  1.9529
  689MOL0     H90930   4.176   5.166   1.940 -0.4993 -0.8919  0.2676
  689MOL0     H90931   4.415   5.216   1.894  2.4288 -0.8648 -2.1857
  689MOL0     H90932   4.848   5.152   2.024  1.2445  0.3172 -1.5143
  689MOL0     H90933   5.074   5.189   2.008  0.7210 -1.2828  0.7759
  689MOL0     H90934   6.922   5.945   1.731  3.6918 -0.3882  0.5547
  689MOL0     H90935   7.148   5.899   1.681  0.6273  0.4139  0.2966
  689MOL0     H90936   7.529   5.904   1.153 -0.6439 -0.2692  0.2762
  689MOL0     H90937   7.745   5.834   1.163 -0.4873 -0.3729  0.4951
  689MOL0     H90938   7.968   5.864   1.179 -1.3831  1.9118  0.8625
  689MOL0     H90939   7.950   5.699   1.247  1.4319 -0.4604 -0.4101
  689MOL0     H90940   8.157   5.893   1.352  0.1626  0.6809 -0.4103
  689MOL0     H90941   8.142   5.729   1.385 -1.7735  2.5270  1.9322
  689MOL0     H90942   8.171   5.812   1.085 -1.1933 -1.1458 -0.3370
  689MOL0     H90943   8.184   5.658   1.151  1.1935  0.2896 -0.1630
  689MOL0     H90944   8.412   5.813   1.087 -1.1401  0.6995 -0.3905
  689MOL0     H90945   8.361   5.864   1.254 -0.7527 -0.0370 -1.2110
  689MOL0     H90946   8.451   5.485   1.377 -1.5704  0.9431  0.8458
  689MOL0     H90947   7.790   5.959   1.563 -0.2375 -0.2649 -0.4624
  689MOL0     H90948   7.548   6.017   1.573 -0.1030  2.5096 -1.8152
  690MOL0     O90949   1.566   0.602  11.233 -0.0826 -0.0499 -0.1076
  690MOL0     C90950   1.628   0.611  11.336 -0.9520  0.2214 -1.2243
  690MOL0     O90951   1.572   0.598  11.458  1.2232  0.4081 -0.0671
  690MOL0     C90952   1.443   0.556  11.466  0.0926 -0.3496 -0.7821
  690MOL0     C90953   1.352   0.637  11.538  0.4406 -0.1302  0.3913
  690MOL0     C90954   1.216   0.594  11.555  0.5692 -0.3005 -0.4415
  690MOL0     C90955   1.177   0.465  11.516 -0.9631  0.4872 -0.1727
  690MOL0     O90956   1.054   0.403  11.557 -0.9838  0.5036 -0.2909
  690MOL0     C90957   0.942   0.478  11.585  0.0217 -0.1022 -0.3544
  690MOL0     C90958   0.864   0.381  11.680  0.2815  0.4222  0.1396
  690MOL0     C90959   0.767   0.286  11.605  0.1205  0.1120  0.5968
  690MOL0     C90960   0.663   0.212  11.698 -0.1343  0.1741 -0.3173
  690MOL0     C90961   0.565   0.134  11.623  0.1963  0.8614  0.4458
  690MOL0     C90962   0.424   0.126  11.692  0.2737 -0.7415  0.2491
  690MOL0     C90963   0.323   0.047  11.612  0.0758  0.0626  0.4953
  690MOL0     C90964   0.180   0.069  11.659  0.3196 -0.4616  0.0913
  690MOL0     N90965   0.079   0.030  11.560  0.5572  0.6192 -0.1238
  690MOL0     C90966  -0.007  -0.081  11.553  0.0963  0.8887 -0.6851
  690MOL0     C90967  -0.079  -0.074  11.443 -1.0220  0.7765  0.2069
  690MOL0     C90968  -0.203  -0.153  11.409 -0.2168 -0.3201  0.5712
  690MOL0     C90969  -0.326  -0.105  11.477  0.1997  0.7151  0.1839
  690MOL0     C90970  -0.384   0.017  11.401 -0.0498 -0.3425 -0.0459
  690MOL0     C90971  -0.525   0.052  11.433 -0.6721  0.1788  1.5233
  690MOL0     O90972  -0.534   0.065  11.576 -0.1087 -0.1480 -0.2694
  690MOL0     C90973  -0.653   0.075  11.627 -0.4007  0.3634  0.0089
  690MOL0     C90974  -0.772   0.119  11.557  1.3011 -0.0280  0.2158
  690MOL0     C90975  -0.893   0.129  11.620  0.2562 -0.5240 -0.1832
  690MOL0     C90976  -0.909   0.090  11.752  0.8033  0.6013 -0.2977
  690MOL0     C90977  -1.038   0.105  11.826 -0.4539  0.0484 -0.1738
  690MOL0     O90978  -1.138   0.144  11.744  0.7836 -0.1538 -0.3766
  690MOL0     C90979  -1.260   0.186  11.791 -0.2382 -0.1102 -0.4366
  690MOL0     C90980  -1.365   0.178  11.703 -0.2520  0.2480 -0.4292
  690MOL0     C90981  -1.489   0.228  11.744  0.4859  0.1319 -0.0303
  690MOL0     C90982  -1.515   0.295  11.863 -0.1848 -0.5749  0.1268
  690MOL0     O90983  -1.638   0.349  11.885 -0.2298 -0.2301 -0.1872
  690MOL0     C90984  -1.668   0.455  11.979  0.6239 -0.4476  0.1144
  690MOL0     C90985  -1.813   0.511  11.941  0.0362  0.4736  0.4141
  690MOL0     C90986  -1.862   0.620  12.034 -0.1596 -0.3291 -0.2232
  690MOL0     C90987  -2.011   0.670  11.996  0.8529  0.4160  0.5216
  690MOL0     C90988  -2.030   0.737  11.860 -0.2495 -0.0365  0.3972
  690MOL0     C90989  -2.159   0.826  11.853  0.2779  0.7075  0.2634
  690MOL0     C90990  -2.294   0.746  11.881 -0.2304  0.8451  0.1095
  690MOL0     C90991  -2.334   0.629  11.789 -0.1508 -0.0297  0.0739
  690MOL0    Cl90992  -2.417   0.693  11.640 -0.3050  0.0559 -0.0814
  690MOL0     C90993  -1.410   0.297  11.950 -1.0453 -0.8447  0.3971
  690MOL0     C90994  -1.285   0.250  11.916  0.7136 -0.5028 -0.1999
  690MOL0     O90995  -1.044   0.093  11.950 -0.1102 -0.0912  0.5699
  690MOL0     C90996  -0.795   0.040  11.824  0.4168 -1.1230 -0.4629
  690MOL0     C90997  -0.670   0.041  11.763 -0.5074 -0.2595  0.0303
  690MOL0     N90998  -0.040   0.039  11.385  0.2029 -0.3281 -0.5958
  690MOL0     N90999   0.047   0.105  11.451  0.0099  0.5077  0.1523
  690MOL0     C91000   1.270   0.388  11.449 -0.0999  0.0154 -0.7968
  690MOL0     C91001   1.406   0.427  11.423 -0.0331 -0.5682  0.6100
  690MOL0     C91002   1.770   0.657  11.319 -0.5794 -0.0222  1.0426
  690MOL0     C91003   1.863   0.627  11.422 -0.0708  0.5374 -0.0203
  690MOL0     C91004   1.995   0.683  11.420 -0.0918 -0.1600 -0.3607
  690MOL0     C91005   2.043   0.737  11.300 -0.2255 -0.6323 -0.1912
  690MOL0     O91006   2.166   0.788  11.282 -0.3685 -0.5888  0.7853
  690MOL0     C91007   2.243   0.696  11.212  0.3944 -0.1897  0.0263
  690MOL0     C91008   2.387   0.734  11.200 -0.3664 -0.1688 -0.2185
  690MOL0     C91009   2.472   0.625  11.122  0.3360 -0.6788  0.2050
  690MOL0     C91010   2.548   0.524  11.212 -0.0653  0.2054  0.0466
  690MOL0     C91011   2.639   0.437  11.143 -0.3939  0.4754  0.0827
  690MOL0     C91012   2.724   0.382  11.072  0.3893  0.1594 -0.1797
  690MOL0     C91013   1.950   0.755  11.194 -0.6863  0.0306 -0.1180
  690MOL0     C91014   1.818   0.719  11.204 -0.2203 -0.1312  0.0110
  690MOL0     H91015   1.386   0.728  11.585  0.9337  0.8741 -1.7856
  690MOL0     H91016   1.147   0.651  11.616  0.4879 -1.5934  0.7184
  690MOL0     H91017   0.883   0.490  11.493 -1.5670  0.5082  0.7102
  690MOL0     H91018   0.956   0.574  11.636 -1.1449  0.9855 -1.9411
  690MOL0     H91019   0.794   0.440  11.739 -2.1190 -0.7822 -1.3606
  690MOL0     H91020   0.933   0.331  11.749 -0.0240  0.3903  0.4241
  690MOL0     H91021   0.828   0.205  11.564  1.8025  0.6594  1.8820
  690MOL0     H91022   0.711   0.340  11.528  2.2173  2.1684  0.4021
  690MOL0     H91023   0.707   0.146  11.773  1.2053 -2.4335 -3.1631
  690MOL0     H91024   0.595   0.278  11.752 -0.3921  0.2511 -0.7286
  690MOL0     H91025   0.596   0.029  11.620 -1.8202  0.1260  2.2303
  690MOL0     H91026   0.548   0.171  11.522  0.2024 -1.1909 -0.3628
  690MOL0     H91027   0.379   0.225  11.699  0.8698 -0.5299  1.2783
  690MOL0     H91028   0.438   0.077  11.789  4.6642  0.4484  0.4222
  690MOL0     H91029   0.333   0.090  11.512 -1.4785  0.8024  0.6395
  690MOL0     H91030   0.335  -0.062  11.609 -5.1220 -0.8214  2.1675
  690MOL0     H91031   0.165   0.175  11.678  0.8909  0.5107 -3.8784
  690MOL0     H91032   0.170   0.010  11.751  2.5673  1.8029  1.9250
  690MOL0     H91033  -0.018  -0.156  11.631 -0.2358  1.1130 -0.5095
  690MOL0     H91034  -0.189  -0.260  11.431  1.3442 -0.2355  0.0728
  690MOL0     H91035  -0.214  -0.149  11.300 -2.0820 -0.9526  0.6824
  690MOL0     H91036  -0.310  -0.080  11.582 -0.5859 -0.3303  0.5763
  690MOL0     H91037  -0.404  -0.182  11.469 -0.5032  1.5139 -1.0215
  690MOL0     H91038  -0.319   0.104  11.417 -0.2225 -0.0532 -0.8731
  690MOL0     H91039  -0.386  -0.004  11.293 -4.3155  1.4365 -0.5053
  690MOL0     H91040  -0.598  -0.021  11.396  0.4746  0.6798 -2.1746
  690MOL0     H91041  -0.548   0.150  11.391 -3.2341 -1.7618 -2.1722
  690MOL0     H91042  -0.759   0.148  11.453 -1.8255 -1.4996 -0.7344
  690MOL0     H91043  -0.981   0.176  11.578  1.1096  1.5715  0.2610
  690MOL0     H91044  -1.355   0.138  11.603 -1.2445  2.4453 -1.4659
  690MOL0     H91045  -1.572   0.221  11.674  0.1951  1.8552  0.0918
  690MOL0     H91046  -1.589   0.529  11.964 -1.1885  2.2157  2.6648
  690MOL0     H91047  -1.659   0.412  12.079 -0.0266 -2.3064 -0.5642
  690MOL0     H91048  -1.887   0.430  11.949  1.4313 -0.6923  1.9590
  690MOL0     H91049  -1.810   0.548  11.838  1.1498 -1.2373 -0.2072
  690MOL0     H91050  -1.795   0.705  12.023  0.9942 -1.4226 -2.1927
  690MOL0     H91051  -1.861   0.582  12.136 -0.5767 -3.2946 -1.2169
  690MOL0     H91052  -2.074   0.581  12.007  0.0859  1.1087  2.0799
  690MOL0     H91053  -2.044   0.740  12.073  2.8495  0.4818  1.3662
  690MOL0     H91054  -2.040   0.660  11.782 -1.8084  0.6333 -0.1052
  690MOL0     H91055  -1.935   0.784  11.835 -0.4056 -0.4534 -1.0698
  690MOL0     H91056  -2.171   0.884  11.761  3.0091  1.5372  0.3539
  690MOL0     H91057  -2.153   0.904  11.930 -0.8572  1.0082  0.0629
  690MOL0     H91058  -2.299   0.721  11.987 -0.6303  1.4972  0.2530
  690MOL0     H91059  -2.376   0.818  11.872  0.7066  1.9462  0.1896
  690MOL0     H91060  -2.416   0.578  11.841  1.0800 -1.1336  1.0065
  690MOL0     H91061  -2.251   0.559  11.771 -0.8326 -0.1254 -3.2932
  690MOL0     H91062  -1.423   0.340  12.049 -0.3142  0.0777  0.0978
  690MOL0     H91063  -1.202   0.278  11.980  1.8409 -0.5091 -1.5989
  690MOL0     H91064  -0.790   0.013  11.929  1.1365 -2.4665 -0.8170
  690MOL0     H91065  -0.583   0.005  11.818  0.3934 -1.8266 -2.2602
  690MOL0     H91066   1.242   0.288  11.416  3.0836 -1.4931  0.6460
  690MOL0     H91067   1.474   0.359  11.373 -2.1573 -1.0084 -1.9068
  690MOL0     H91068   1.834   0.576  11.513 -0.2277 -1.1513 -0.9763
  690MOL0     H91069   2.063   0.662  11.502 -0.9079 -1.3938  0.0194
  690MOL0     H91070   2.209   0.707  11.108 -2.9754 -0.3096  0.9972
  690MOL0     H91071   2.217   0.591  11.232 -0.4930 -0.3432 -1.7277
  690MOL0     H91072   2.389   0.828  11.145 -2.4085  1.5462  2.3809
  690MOL0     H91073   2.438   0.756  11.294  1.9246 -2.6201 -0.7894
  690MOL0     H91074   2.551   0.682  11.072  1.3526  0.6794  3.1331
  690MOL0     H91075   2.415   0.581  11.040  0.3903  1.2377 -0.9017
  690MOL0     H91076   2.607   0.583  11.283 -0.9217  1.2147 -0.0735
  690MOL0     H91077   2.481   0.462  11.272  0.3912  2.2018  2.8249
  690MOL0     H91078   2.796   0.328  11.014  1.3853  2.0173 -0.7486
  690MOL0     H91079   1.966   0.825  11.112 -2.2542  1.4704  0.7361
  690MOL0     H91080   1.754   0.731  11.117  1.2597 -0.2583 -1.1373
  691MOL0     O91081   2.301   1.721   3.466 -0.2837 -0.4879 -0.6045
  691MOL0     C91082   2.265   1.648   3.373  0.4120 -0.8043  0.0666
  691MOL0     O91083   2.188   1.535   3.384  0.0694 -0.3934  0.3652
  691MOL0     C91084   2.172   1.476   3.504  0.1966  0.1432 -0.6212
  691MOL0     C91085   2.039   1.446   3.527  0.2323 -0.3566  1.1988
  691MOL0     C91086   1.997   1.391   3.642 -0.2992 -0.7329  0.1196
  691MOL0     C91087   2.093   1.374   3.745 -0.4829 -0.0293  0.0037
  691MOL0     O91088   2.050   1.300   3.850  0.1082 -0.0349 -0.8305
  691MOL0     C91089   2.107   1.323   3.978  0.0580 -1.0693 -0.1245
  691MOL0     C91090   1.996   1.315   4.085 -0.5033  0.7524 -0.5273
  691MOL0     C91091   1.949   1.170   4.107 -0.0154 -0.3436 -0.2031
  691MOL0     C91092   1.845   1.164   4.221 -0.4381  0.0851 -0.2893
  691MOL0     C91093   1.811   1.025   4.268  0.0211  0.3442  0.1053
  691MOL0     C91094   1.673   0.977   4.223 -0.2372 -0.8554  0.0198
  691MOL0     C91095   1.674   0.960   4.073 -0.0825  0.2811 -0.4515
  691MOL0     C91096   1.576   0.847   4.027 -0.0696  0.1832 -0.2239
  691MOL0     N91097   1.441   0.907   4.009  0.0436 -0.0321  0.2816
  691MOL0     C91098   1.383   0.956   3.896 -0.5287  0.1213 -0.3620
  691MOL0     C91099   1.263   1.003   3.931 -0.4362  0.0387 -0.5061
  691MOL0     C91100   1.164   1.067   3.835 -0.2311  0.1086  0.1600
  691MOL0     C91101   1.033   0.983   3.828 -0.2382  0.2414  0.1431
  691MOL0     C91102   0.918   1.048   3.761  0.1901 -0.4128 -0.4806
  691MOL0     C91103   0.792   0.959   3.774  0.3620  0.3773  0.4760
  691MOL0     O91104   0.705   1.002   3.668 -0.3282  0.1425  0.2766
  691MOL0     C91105   0.603   0.918   3.629 -0.1557  0.0450 -0.5721
  691MOL0     C91106   0.516   0.945   3.520  1.1171 -0.1095 -0.3864
  691MOL0     C91107   0.413   0.859   3.473 -0.6486  0.8995 -0.6399
  691MOL0     C91108   0.394   0.738   3.546 -0.4347  0.2190 -0.0866
  691MOL0     C91109   0.291   0.640   3.497  0.1618  0.6780  0.4698
  691MOL0     O91110   0.206   0.687   3.398 -0.1112  0.7823 -0.3348
  691MOL0     C91111   0.106   0.606   3.355  1.1458 -0.7170 -0.3543
  691MOL0     C91112  -0.009   0.680   3.316  0.2799  0.6547  0.1627
  691MOL0     C91113  -0.134   0.619   3.280  0.4546 -0.0739  0.8366
  691MOL0     C91114  -0.139   0.480   3.284  0.8017 -0.1810 -0.1751
  691MOL0     O91115  -0.272   0.425   3.269  0.4714  0.2981  0.2308
  691MOL0     C91116  -0.284   0.286   3.287  0.1453 -0.0838 -0.3216
  691MOL0     C91117  -0.428   0.266   3.248 -0.2797  0.1313 -0.1845
  691MOL0     C91118  -0.476   0.130   3.282  0.0240  0.0745  0.3968
  691MOL0     C91119  -0.608   0.088   3.213 -0.2818 -0.4334  0.4736
  691MOL0     C91120  -0.613   0.108   3.061  0.4051 -0.2291 -0.4208
  691MOL0     C91121  -0.490   0.052   2.988 -0.7721 -0.3996 -0.6071
  691MOL0     C91122  -0.485   0.070   2.834  0.4048  0.5622 -0.7058
  691MOL0     C91123  -0.351   0.033   2.772  0.4407 -0.1767  0.9653
  691MOL0    Cl91124  -0.363  -0.009   2.601 -0.1018  0.0935  0.0804
  691MOL0     C91125  -0.030   0.408   3.328  0.3711 -0.3577  0.5461
  691MOL0     C91126   0.103   0.468   3.346  0.3203  0.2584 -0.6627
  691MOL0     O91127   0.303   0.521   3.530  0.0706  0.3413 -0.3780
  691MOL0     C91128   0.489   0.703   3.645 -0.1795 -0.4922  0.4021
  691MOL0     C91129   0.585   0.795   3.689  0.0388  0.4259 -0.4897
  691MOL0     N91130   1.240   0.965   4.063 -0.6031  0.7202  0.6253
  691MOL0     N91131   1.344   0.902   4.105  0.1796  0.3864 -0.3785
  691MOL0     C91132   2.232   1.391   3.724 -0.5940  0.6804  0.2472
  691MOL0     C91133   2.269   1.443   3.600 -0.0119 -0.8062 -0.0681
  691MOL0     C91134   2.297   1.690   3.236  0.4800 -0.6372 -0.5681
  691MOL0     C91135   2.385   1.802   3.228 -0.9939  1.1511  0.7997
  691MOL0     C91136   2.413   1.858   3.104 -0.0473 -0.1157 -0.2335
  691MOL0     C91137   2.360   1.799   2.986  0.6338  0.0492  0.2153
  691MOL0     O91138   2.379   1.845   2.856  1.4131 -0.5782  0.2988
  691MOL0     C91139   2.453   1.960   2.826 -0.5151 -0.0035 -0.1872
  691MOL0     C91140   2.578   1.910   2.748 -0.5241 -0.4119  0.0597
  691MOL0     C91141   2.683   1.862   2.846 -0.7461 -0.4673 -0.2856
  691MOL0     C91142   2.781   1.767   2.789 -0.7000 -0.8509 -0.5937
  691MOL0     C91143   2.888   1.836   2.715  0.0427  0.2495 -0.1987
  691MOL0     C91144   2.979   1.886   2.648 -0.4299  0.4139 -0.0260
  691MOL0     C91145   2.276   1.686   3.001  0.6405 -0.4358  0.0739
  691MOL0     C91146   2.240   1.634   3.118 -0.9680  0.2192  0.1870
  691MOL0     H91147   1.978   1.468   3.439  1.4181 -0.9394  0.2051
  691MOL0     H91148   1.892   1.374   3.662 -0.3865 -0.4984 -0.1169
  691MOL0     H91149   2.166   1.415   3.978  1.1169 -1.7138 -1.2198
  691MOL0     H91150   2.188   1.254   4.001  2.0595  1.3186  0.4229
  691MOL0     H91151   1.915   1.386   4.065  0.4478  2.3703  0.9958
  691MOL0     H91152   2.030   1.360   4.179 -0.7039 -0.6768  0.2470
  691MOL0     H91153   2.037   1.107   4.126  0.2798 -0.0085 -0.4439
  691MOL0     H91154   1.897   1.129   4.020  0.7418  0.1949 -0.9324
  691MOL0     H91155   1.902   1.208   4.304 -2.2200  1.4171  0.2766
  691MOL0     H91156   1.758   1.227   4.202 -0.6609 -0.2103 -0.2622
  691MOL0     H91157   1.798   1.034   4.377  1.2180  2.7233  0.1223
  691MOL0     H91158   1.895   0.959   4.248 -1.0017  0.0477 -3.8772
  691MOL0     H91159   1.607   1.061   4.246  2.3333  1.3623 -0.3368
  691MOL0     H91160   1.656   0.882   4.275 -2.3270  0.7677  2.5308
  691MOL0     H91161   1.641   1.055   4.030 -0.7938  1.0604  1.6782
  691MOL0     H91162   1.777   0.937   4.044  0.9940  3.6424  0.3339
  691MOL0     H91163   1.571   0.768   4.102 -0.2167  0.4733  0.0728
  691MOL0     H91164   1.610   0.806   3.931  1.2225  0.4965  0.0822
  691MOL0     H91165   1.433   0.964   3.800 -0.0601 -0.5082 -0.1790
  691MOL0     H91166   1.211   1.086   3.738 -1.4946  0.8597 -0.3240
  691MOL0     H91167   1.143   1.170   3.866  0.3209  0.4595 -0.6079
  691MOL0     H91168   0.998   0.943   3.924  2.3135  0.6476  1.3403
  691MOL0     H91169   1.057   0.897   3.766  1.4632  1.4634 -0.9905
  691MOL0     H91170   0.887   1.139   3.813  0.0375 -0.4339 -0.5344
  691MOL0     H91171   0.939   1.081   3.659 -0.0441  2.9617  0.4319
  691MOL0     H91172   0.759   0.997   3.871 -1.9657  2.6242 -1.0414
  691MOL0     H91173   0.817   0.853   3.779 -0.2012  0.2621  0.9622
  691MOL0     H91174   0.531   1.029   3.453 -3.0947  0.1931 -1.1891
  691MOL0     H91175   0.361   0.895   3.385 -3.4864  0.3688  0.6974
  691MOL0     H91176   0.009   0.787   3.315  0.4169  0.6320 -0.5468
  691MOL0     H91177  -0.218   0.682   3.253  1.0708  0.6068  0.4728
  691MOL0     H91178  -0.259   0.258   3.390 -2.8165 -0.8665  0.2834
  691MOL0     H91179  -0.221   0.221   3.225  2.3823  1.3773  0.2834
  691MOL0     H91180  -0.452   0.283   3.143  0.7153 -0.8656 -0.5973
  691MOL0     H91181  -0.488   0.338   3.305 -1.6476 -1.1685  0.0788
  691MOL0     H91182  -0.481   0.116   3.390  2.5740 -0.9985  0.4424
  691MOL0     H91183  -0.396   0.059   3.257 -0.7389 -1.3233  1.7242
  691MOL0     H91184  -0.623  -0.020   3.219 -3.0890 -0.1752 -0.4609
  691MOL0     H91185  -0.702   0.127   3.254 -1.5738 -1.3694 -1.4410
  691MOL0     H91186  -0.626   0.214   3.035  1.2837 -0.4572 -1.9025
  691MOL0     H91187  -0.705   0.062   3.023  0.0436  0.1856 -0.0531
  691MOL0     H91188  -0.493  -0.055   3.009 -1.1131 -0.3137 -0.1981
  691MOL0     H91189  -0.401   0.105   3.026 -2.7139  0.6722  2.9390
  691MOL0     H91190  -0.571   0.019   2.790  0.7382 -0.4094 -0.2563
  691MOL0     H91191  -0.497   0.176   2.812 -0.0849  0.7261  0.3049
  691MOL0     H91192  -0.324  -0.057   2.828  0.2333  0.8892  2.8795
  691MOL0     H91193  -0.283   0.116   2.795 -1.3219  1.5093  0.4063
  691MOL0     H91194  -0.035   0.300   3.321  0.6252 -0.2396 -2.6859
  691MOL0     H91195   0.192   0.408   3.361  0.4798  1.0186  1.8580
  691MOL0     H91196   0.476   0.605   3.691  1.4576  0.4491  3.1291
  691MOL0     H91197   0.645   0.752   3.768 -0.9992 -0.7348 -0.2975
  691MOL0     H91198   2.312   1.352   3.788  0.3186 -1.5480 -2.0621
  691MOL0     H91199   2.372   1.455   3.569 -1.0832 -0.4718 -4.0075
  691MOL0     H91200   2.439   1.854   3.306  2.4119 -1.0778  0.1486
  691MOL0     H91201   2.480   1.944   3.102  0.3414 -0.4075  0.2220
  691MOL0     H91202   2.484   2.027   2.907  1.9950  1.9105 -2.5395
  691MOL0     H91203   2.391   2.019   2.756  0.3764  0.0209 -0.9759
  691MOL0     H91204   2.553   1.838   2.670 -0.9259 -0.0232 -0.1761
  691MOL0     H91205   2.613   2.003   2.702  1.3183 -0.1078  1.8880
  691MOL0     H91206   2.633   1.808   2.928  0.0738 -0.0756  0.4935
  691MOL0     H91207   2.735   1.948   2.888 -1.7548 -0.9530  2.2146
  691MOL0     H91208   2.830   1.713   2.871  2.2514 -0.5317 -2.0173
  691MOL0     H91209   2.725   1.708   2.715 -0.3829 -0.5880 -1.0426
  691MOL0     H91210   3.041   1.950   2.589 -2.3707  1.0448 -1.4961
  691MOL0     H91211   2.228   1.641   2.915  1.3656 -0.3748 -0.3646
  691MOL0     H91212   2.165   1.556   3.118 -2.4114  1.5556  0.1197
  692MOL0     O91213   9.075   9.884   2.128 -0.3543 -0.8971 -0.5577
  692MOL0     C91214   9.058   9.794   2.049  0.1842 -0.1923  0.1375
  692MOL0     O91215   9.159   9.737   1.978 -0.2676  0.0734 -0.2268
  692MOL0     C91216   9.289   9.779   1.999 -0.0752 -0.3520  0.1306
  692MOL0     C91217   9.362   9.741   2.117  0.6862  0.3555  0.3698
  692MOL0     C91218   9.492   9.791   2.125  0.3328  0.3081 -0.2574
  692MOL0     C91219   9.557   9.861   2.020  0.3306 -0.0437 -0.1074
  692MOL0     O91220   9.689   9.898   2.021  0.3378 -0.9667 -0.3782
  692MOL0     C91221   9.765   9.903   2.151  0.4638 -0.3125 -0.0054
  692MOL0     C91222   9.710  10.014   2.247 -0.0345  0.2890 -0.8400
  692MOL0     C91223   9.760  10.155   2.214  0.0949 -0.1903 -0.5032
  692MOL0     C91224   9.914  10.181   2.251  0.4429 -0.4945  0.4105
  692MOL0     C91225   9.955  10.304   2.165 -0.2790  0.2224  0.5685
  692MOL0     C91226  10.058  10.383   2.240 -0.1365 -0.2171 -0.6902
  692MOL0     C91227  10.121  10.486   2.164  0.2339  0.0849  0.5091
  692MOL0     C91228  10.210  10.576   2.249 -0.6459  0.2143  0.3566
  692MOL0     N91229  10.222  10.711   2.192 -0.4911 -1.2444  0.9077
  692MOL0     C91230  10.118  10.811   2.175 -0.2111  0.2512  0.5503
  692MOL0     C91231  10.184  10.917   2.116  0.3711  0.5463  0.5507
  692MOL0     C91232  10.117  11.050   2.090 -0.7603 -0.4363  0.5326
  692MOL0     C91233  10.136  11.136   2.220  0.4537  0.2078  0.2459
  692MOL0     C91234  10.056  11.266   2.210  0.4844  0.3860 -0.4705
  692MOL0     C91235   9.911  11.243   2.204  0.2566 -0.3878 -0.5514
  692MOL0     O91236   9.850  11.185   2.325  0.2289 -0.4559 -0.2339
  692MOL0     C91237   9.730  11.239   2.365 -0.1368 -1.1618  0.3623
  692MOL0     C91238   9.632  11.287   2.276  0.1787 -0.0628  0.1258
  692MOL0     C91239   9.508  11.335   2.316 -0.4996  0.2864 -0.0826
  692MOL0     C91240   9.486  11.358   2.451 -0.2966  0.9382 -0.3404
  692MOL0     C91241   9.360  11.418   2.502 -0.9375  0.4530  0.2518
  692MOL0     O91242   9.265  11.462   2.415  0.6525 -0.2329 -0.7092
  692MOL0     C91243   9.160  11.539   2.467  1.0051  0.4049 -0.5815
  692MOL0     C91244   9.184  11.679   2.490  0.3430  0.2274 -0.2867
  692MOL0     C91245   9.076  11.762   2.526  0.0559  0.2837 -0.0957
  692MOL0     C91246   8.952  11.704   2.561  0.5713 -0.3032  0.2962
  692MOL0     O91247   8.839  11.767   2.609  0.5207  0.3860  0.4710
  692MOL0     C91248   8.784  11.864   2.520 -0.2702  0.5828  0.3996
  692MOL0     C91249   8.695  11.791   2.421 -0.4001 -0.5933 -0.4303
  692MOL0     C91250   8.635  11.891   2.322 -0.1031  0.1866  0.1636
  692MOL0     C91251   8.511  11.973   2.376 -0.3287 -0.2647 -0.6207
  692MOL0     C91252   8.435  12.028   2.255  0.0235  0.3337  0.0727
  692MOL0     C91253   8.365  12.153   2.297 -0.2954  0.2378 -0.2546
  692MOL0     C91254   8.281  12.216   2.178 -0.3042  0.1076 -0.1417
  692MOL0     C91255   8.254  12.359   2.214  1.3205  0.1435 -0.4131
  692MOL0    Cl91256   8.396  12.463   2.183  0.4596  0.0819  0.1785
  692MOL0     C91257   8.933  11.568   2.539 -0.3409  0.3526 -0.3918
  692MOL0     C91258   9.038  11.479   2.498  0.3405 -0.0810 -0.7134
  692MOL0     O91259   9.368  11.450   2.620  0.3824  0.3458 -0.2716
  692MOL0     C91260   9.588  11.309   2.541 -0.8260 -0.8451  0.1558
  692MOL0     C91261   9.707  11.255   2.498  0.2320  0.8323 -0.4772
  692MOL0     N91262  10.320  10.892   2.102  0.3523  1.0163 -0.2360
  692MOL0     N91263  10.344  10.772   2.151  0.2013  0.6628 -0.1149
  692MOL0     C91264   9.479   9.889   1.908 -0.2696 -0.9489  0.0126
  692MOL0     C91265   9.349   9.847   1.893  0.4936  0.0256 -0.3053
  692MOL0     C91266   8.915   9.750   2.023  0.0894  0.0925  1.0156
  692MOL0     C91267   8.886   9.646   1.926  0.3367  0.9942 -0.1631
  692MOL0     C91268   8.754   9.610   1.894 -0.6298 -0.1934 -0.4160
  692MOL0     C91269   8.654   9.688   1.954 -0.4331  0.5527 -0.3745
  692MOL0     O91270   8.514   9.650   1.932  0.0252  0.2850  0.6807
  692MOL0     C91271   8.442   9.748   1.862 -0.0869  0.2411 -0.5522
  692MOL0     C91272   8.294   9.703   1.829  0.7302 -0.6291 -0.2310
  692MOL0     C91273   8.214   9.818   1.755 -0.5250  0.4337 -0.3786
  692MOL0     C91274   8.075   9.788   1.695 -0.5092 -0.4204 -0.4344
  692MOL0     C91275   7.979   9.714   1.781 -0.3872  0.2524 -0.7319
  692MOL0     C91276   7.896   9.665   1.862  0.1294  1.6741  0.9369
  692MOL0     C91277   8.682   9.794   2.044  0.1000 -0.0985  0.4753
  692MOL0     C91278   8.809   9.822   2.085 -0.3760  0.4805  0.0304
  692MOL0     H91279   9.314   9.685   2.196  0.2684  0.4523  0.1838
  692MOL0     H91280   9.546   9.778   2.218 -0.0072  2.5166  0.3234
  692MOL0     H91281   9.869   9.923   2.125  0.3055  0.0606 -0.3711
  692MOL0     H91282   9.765   9.804   2.198 -1.4593 -0.4320 -0.1534
  692MOL0     H91283   9.735   9.998   2.352 -1.0381  4.0392  0.1244
  692MOL0     H91284   9.601  10.016   2.240 -0.1159 -0.8588 -0.1823
  692MOL0     H91285   9.697  10.237   2.249  0.3990 -0.7058  1.3428
  692MOL0     H91286   9.755  10.158   2.105 -2.0649 -1.1265 -0.4832
  692MOL0     H91287   9.919  10.218   2.354  1.6336  1.1783 -0.2083
  692MOL0     H91288   9.982  10.099   2.227 -0.2305  0.0233 -4.1316
  692MOL0     H91289   9.865  10.361   2.141 -1.1462 -1.5200 -0.5308
  692MOL0     H91290   9.993  10.267   2.069 -2.8991 -0.2440 -0.3668
  692MOL0     H91291  10.137  10.328   2.291  0.3088  2.1114  1.3361
  692MOL0     H91292  10.004  10.434   2.321 -0.1437  0.7564 -1.2950
  692MOL0     H91293  10.181  10.443   2.084  0.9734 -0.7179  1.4678
  692MOL0     H91294  10.045  10.546   2.112  1.0611  1.0559  0.3787
  692MOL0     H91295  10.305  10.521   2.244 -0.2188  0.9343  0.4894
  692MOL0     H91296  10.166  10.586   2.348  0.5681 -2.4448  1.2807
  692MOL0     H91297  10.012  10.799   2.195 -0.8257 -0.4748 -2.4989
  692MOL0     H91298  10.009  11.034   2.075 -0.6429  0.7035 -1.9934
  692MOL0     H91299  10.149  11.096   1.996  0.3679 -2.3511 -0.0586
  692MOL0     H91300  10.240  11.165   2.237  0.8752  1.8613 -3.9407
  692MOL0     H91301  10.102  11.082   2.309  0.5668 -0.0916  0.1085
  692MOL0     H91302  10.092  11.334   2.287 -1.4028  1.4507 -0.4525
  692MOL0     H91303  10.086  11.314   2.117  1.6593 -0.7275 -0.6922
  692MOL0     H91304   9.877  11.193   2.113  0.1660  1.2065 -1.4340
  692MOL0     H91305   9.871  11.343   2.186 -0.6573 -0.6571 -0.0904
  692MOL0     H91306   9.640  11.271   2.169 -2.5891 -0.7336 -0.0569
  692MOL0     H91307   9.436  11.381   2.248  0.2493  0.6048 -0.6735
  692MOL0     H91308   9.284  11.712   2.464 -0.0477  2.0472  0.3867
  692MOL0     H91309   9.074  11.869   2.541  1.4454  0.4184 -0.7531
  692MOL0     H91310   8.862  11.927   2.476 -1.3999  0.7459 -1.4682
  692MOL0     H91311   8.724  11.936   2.576  0.6739  1.3491  0.4338
  692MOL0     H91312   8.621  11.732   2.475  1.9065 -2.0742  1.2586
  692MOL0     H91313   8.763  11.723   2.370  2.3977  1.8924 -0.2856
  692MOL0     H91314   8.603  11.831   2.235  3.3446 -0.0666 -1.0662
  692MOL0     H91315   8.713  11.957   2.284 -0.7115  1.4527  1.0591
  692MOL0     H91316   8.438  11.921   2.439 -0.8580 -0.6043 -1.4937
  692MOL0     H91317   8.559  12.050   2.437  0.8889 -0.7579 -0.9335
  692MOL0     H91318   8.370  11.952   2.210 -0.5173  1.6223 -1.4348
  692MOL0     H91319   8.510  12.052   2.179  1.8011 -1.7437  1.0540
  692MOL0     H91320   8.437  12.230   2.324 -0.3356  0.3874 -0.5697
  692MOL0     H91321   8.305  12.121   2.382  0.7106  0.3773  0.5268
  692MOL0     H91322   8.331  12.210   2.080  3.5725  1.3019  1.5876
  692MOL0     H91323   8.186  12.161   2.178 -0.6181  0.6417  0.2723
  692MOL0     H91324   8.234  12.366   2.321 -0.5834  1.2482 -0.7979
  692MOL0     H91325   8.165  12.406   2.171 -1.1073  2.4923  5.9706
  692MOL0     H91326   8.831  11.534   2.556  0.4601 -1.8275  0.5027
  692MOL0     H91327   9.035  11.371   2.489 -0.2979 -0.1306  0.0016
  692MOL0     H91328   9.576  11.307   2.648 -1.9058 -1.6073  0.0379
  692MOL0     H91329   9.776  11.224   2.575 -0.2096 -0.9249 -0.7416
  692MOL0     H91330   9.528   9.936   1.824  0.3526 -3.5073 -1.1657
  692MOL0     H91331   9.298   9.859   1.798 -0.3516 -0.6180  0.0524
  692MOL0     H91332   8.963   9.599   1.867  0.0856 -2.4161  1.9400
  692MOL0     H91333   8.743   9.522   1.832  2.7887 -0.5243 -0.7579
  692MOL0     H91334   8.490   9.769   1.766  0.6675  1.1806  0.0182
  692MOL0     H91335   8.445   9.839   1.922 -0.9585 -0.1435  0.0830
  692MOL0     H91336   8.291   9.617   1.762 -0.3690 -0.4855 -0.3863
  692MOL0     H91337   8.240   9.679   1.921  3.1212 -0.8225  1.1994
  692MOL0     H91338   8.264   9.821   1.658 -0.2274 -3.8261 -0.5286
  692MOL0     H91339   8.226   9.910   1.813  2.0666 -0.3399  0.4543
  692MOL0     H91340   8.038   9.887   1.668 -1.7395 -0.7636 -0.1009
  692MOL0     H91341   8.072   9.739   1.597  0.8372 -0.5003 -0.4462
  692MOL0     H91342   7.812   9.631   1.919 -0.0033  1.1506  0.4263
  692MOL0     H91343   8.595   9.842   2.086  2.0556  3.3480  0.9748
  692MOL0     H91344   8.832   9.903   2.153  0.5762 -0.7638  1.2603
  693MOL0     O91345   1.536   7.150  10.417  0.3861  0.4887 -0.6436
  693MOL0     C91346   1.515   7.248  10.491  0.2132 -0.0858 -0.2076
  693MOL0     O91347   1.396   7.306  10.513  0.0534 -0.2286  0.1939
  693MOL0     C91348   1.274   7.252  10.486  0.1226  0.2925 -0.0404
  693MOL0     C91349   1.243   7.130  10.419  0.2130  0.0339  1.2937
  693MOL0     C91350   1.117   7.087  10.391 -0.3241 -0.0588  0.3181
  693MOL0     C91351   1.006   7.161  10.434 -0.3331  0.4795  0.0085
  693MOL0     O91352   0.892   7.095  10.406  0.7416  0.0289 -0.1199
  693MOL0     C91353   0.777   7.181  10.398  0.0859 -0.0410  0.0512
  693MOL0     C91354   0.661   7.097  10.352  0.9404 -0.0435 -0.4111
  693MOL0     C91355   0.546   7.197  10.318 -0.1689  0.0039  0.2356
  693MOL0     C91356   0.432   7.119  10.255  0.3694  0.2734 -0.4234
  693MOL0     C91357   0.304   7.194  10.270  0.5474  0.4790  0.3734
  693MOL0     C91358   0.172   7.102  10.253 -0.0314  0.1844 -0.5084
  693MOL0     C91359   0.046   7.180  10.201 -0.1938  0.5327 -0.5042
  693MOL0     C91360   0.026   7.158  10.049  0.0110  0.0079 -0.2262
  693MOL0     N91361  -0.114   7.177  10.014 -0.0365  0.0879 -0.7361
  693MOL0     C91362  -0.147   7.293   9.952 -0.2591  0.8760  0.8148
  693MOL0     C91363  -0.262   7.266   9.886 -1.0091  0.4851  1.3025
  693MOL0     C91364  -0.349   7.373   9.824  0.0938 -0.2204 -0.4835
  693MOL0     C91365  -0.496   7.355   9.861 -0.2253 -1.1990 -0.4358
  693MOL0     C91366  -0.596   7.468   9.817 -0.4331  0.6725 -0.5769
  693MOL0     C91367  -0.736   7.407   9.803 -0.1629 -0.3414  0.9651
  693MOL0     O91368  -0.824   7.486   9.719 -0.5946 -1.0628 -0.0570
  693MOL0     C91369  -0.953   7.438   9.692  0.2844 -0.1683  0.7623
  693MOL0     C91370  -1.009   7.324   9.738 -0.0685 -1.0794  0.2333
  693MOL0     C91371  -1.148   7.301   9.710 -0.2471  0.0305 -0.1036
  693MOL0     C91372  -1.222   7.390   9.628 -0.3215  0.1365  0.1570
  693MOL0     C91373  -1.364   7.355   9.584  0.3777  0.4611 -0.1447
  693MOL0     O91374  -1.405   7.229   9.616 -1.3284 -0.5656 -0.3070
  693MOL0     C91375  -1.536   7.206   9.626 -0.1582  1.1121  1.3260
  693MOL0     C91376  -1.596   7.122   9.531  0.4746  0.5582  0.9295
  693MOL0     C91377  -1.728   7.083   9.538 -0.7461  0.3367 -0.6518
  693MOL0     C91378  -1.812   7.140   9.636  0.1697  0.1646  0.0608
  693MOL0     O91379  -1.952   7.106   9.627  0.4735  0.0635  0.0424
  693MOL0     C91380  -2.042   7.156   9.726 -0.5356 -1.2539  0.1030
  693MOL0     C91381  -2.187   7.140   9.685 -0.2476  0.4044  0.2647
  693MOL0     C91382  -2.280   7.223   9.784  0.2238  0.4785 -0.6315
  693MOL0     C91383  -2.433   7.210   9.773 -1.0648 -0.4678  0.1912
  693MOL0     C91384  -2.508   7.272   9.897  0.2329  1.0436 -1.2681
  693MOL0     C91385  -2.659   7.240   9.910  0.0742  0.3433 -0.2173
  693MOL0     C91386  -2.687   7.124  10.018 -0.0767 -0.1417 -0.6516
  693MOL0     C91387  -2.839   7.125  10.058  0.6642  0.0708 -0.3168
  693MOL0    Cl91388  -2.887   6.984  10.156  0.1458 -0.5093 -0.0222
  693MOL0     C91389  -1.750   7.227   9.731  0.3855 -0.1667 -0.8701
  693MOL0     C91390  -1.617   7.262   9.726  0.1512  0.0191  0.0705
  693MOL0     O91391  -1.436   7.440   9.535 -0.3367  0.2551 -0.6232
  693MOL0     C91392  -1.153   7.500   9.568 -0.9705  0.3987 -0.1717
  693MOL0     C91393  -1.019   7.521   9.610  0.9545 -0.3214 -0.1485
  693MOL0     N91394  -0.297   7.132   9.902 -0.0007  0.4076 -0.2211
  693MOL0     N91395  -0.202   7.081   9.983 -0.0003 -0.1612 -0.6066
  693MOL0     C91396   1.028   7.288  10.500  0.0764  0.4998 -0.0015
  693MOL0     C91397   1.161   7.328  10.526  0.5273  0.3494 -0.4974
  693MOL0     C91398   1.627   7.308  10.562  0.3325 -1.6398  0.2982
  693MOL0     C91399   1.609   7.389  10.681  0.5898 -0.4416  0.3699
  693MOL0     C91400   1.728   7.440  10.738 -0.3452 -0.1594 -0.0622
  693MOL0     C91401   1.858   7.415  10.686  0.8818 -0.1884  0.5413
  693MOL0     O91402   1.978   7.457  10.739 -0.1027  0.1613  1.5582
  693MOL0     C91403   1.968   7.506  10.873  0.2948  0.2770 -0.3055
  693MOL0     C91404   2.107   7.512  10.950 -0.1131 -0.6861  0.4051
  693MOL0     C91405   2.206   7.607  10.894  0.0976  0.3773 -0.2580
  693MOL0     C91406   2.342   7.583  10.968  0.2315 -0.2196  0.2721
  693MOL0     C91407   2.443   7.655  10.890  0.3729 -0.2155  0.0448
  693MOL0     C91408   2.524   7.723  10.833  0.2543 -0.6411  0.3191
  693MOL0     C91409   1.861   7.345  10.568  0.0912 -0.4296 -0.7340
  693MOL0     C91410   1.751   7.279  10.510  0.0514 -0.2261  0.4629
  693MOL0     H91411   1.328   7.072  10.383 -0.7214 -0.4050 -0.2875
  693MOL0     H91412   1.097   6.986  10.357  1.0027 -0.4681  0.6989
  693MOL0     H91413   0.799   7.259  10.325  1.2795 -1.2426 -0.9117
  693MOL0     H91414   0.751   7.229  10.493 -2.3789 -2.3349  0.6425
  693MOL0     H91415   0.630   7.027  10.429 -2.2610 -3.6273 -4.4717
  693MOL0     H91416   0.686   7.044  10.260 -1.5069  0.4161 -1.4106
  693MOL0     H91417   0.589   7.272  10.251  2.3436 -0.3543  1.3284
  693MOL0     H91418   0.516   7.254  10.407  0.0204 -1.9821  1.6567
  693MOL0     H91419   0.459   7.096  10.151  0.4815 -5.0883  0.4953
  693MOL0     H91420   0.423   7.026  10.312  2.7196 -1.5424 -2.7477
  693MOL0     H91421   0.306   7.269  10.190 -1.6814 -0.6282 -0.8028
  693MOL0     H91422   0.305   7.250  10.363 -2.1515  1.4066 -0.0900
  693MOL0     H91423   0.144   7.046  10.343 -0.5117  1.9628  0.4812
  693MOL0     H91424   0.193   7.025  10.179 -0.2469 -0.7913  0.4075
  693MOL0     H91425  -0.045   7.140  10.247 -0.9576  1.3982 -1.2174
  693MOL0     H91426   0.051   7.287  10.222  0.1245  0.7420 -1.6075
  693MOL0     H91427   0.052   7.057  10.018  1.7589  0.1229  0.7571
  693MOL0     H91428   0.081   7.228   9.986  1.9269 -1.1494  0.0916
  693MOL0     H91429  -0.091   7.386   9.955  0.0985  0.7915 -1.4115
  693MOL0     H91430  -0.331   7.368   9.716  1.5328 -0.6660 -0.2436
  693MOL0     H91431  -0.315   7.467   9.867  0.9416 -1.6455  2.1442
  693MOL0     H91432  -0.493   7.358   9.970 -2.0150  2.2205 -0.3565
  693MOL0     H91433  -0.525   7.255   9.828 -2.1905  0.4187 -4.2084
  693MOL0     H91434  -0.588   7.539   9.900  0.0043 -0.3783  0.3109
  693MOL0     H91435  -0.560   7.519   9.728 -0.5934  1.1249 -0.3852
  693MOL0     H91436  -0.771   7.393   9.905  1.1567  0.6515  1.5915
  693MOL0     H91437  -0.738   7.307   9.759  0.6528  0.2573 -0.4969
  693MOL0     H91438  -0.956   7.255   9.804 -1.4433 -0.5537  1.9660
  693MOL0     H91439  -1.206   7.227   9.765 -0.8316  1.0295  0.6528
  693MOL0     H91440  -1.536   7.061   9.463  0.2900 -0.7345  1.8889
  693MOL0     H91441  -1.778   7.025   9.461 -0.2720 -0.8250 -0.1115
  693MOL0     H91442  -2.016   7.259   9.751 -0.4786 -1.1543 -0.3403
  693MOL0     H91443  -2.024   7.103   9.820  0.6481  2.8090  2.4316
  693MOL0     H91444  -2.214   7.034   9.681  1.2709  0.0063  0.1767
  693MOL0     H91445  -2.198   7.186   9.587  4.1006  1.9878  0.3222
  693MOL0     H91446  -2.258   7.330   9.782 -0.2669  0.5803 -0.5921
  693MOL0     H91447  -2.257   7.193   9.887  0.8835 -3.0703 -1.6708
  693MOL0     H91448  -2.476   7.272   9.694 -0.5566  1.6274  1.4970
  693MOL0     H91449  -2.455   7.102   9.772  0.5696 -0.8643  2.0051
  693MOL0     H91450  -2.479   7.377   9.890  1.7202  0.8238  0.6099
  693MOL0     H91451  -2.461   7.255   9.995  2.5388  5.8054 -1.2273
  693MOL0     H91452  -2.702   7.207   9.815  3.7922 -1.1839 -1.5685
  693MOL0     H91453  -2.701   7.332   9.949  1.8169  1.3979 -0.6913
  693MOL0     H91454  -2.675   7.022   9.980 -0.4633 -1.3780  2.2697
  693MOL0     H91455  -2.617   7.137  10.100 -2.4034 -0.6775  1.5353
  693MOL0     H91456  -2.900   7.126   9.967 -1.0657  1.7191  0.7631
  693MOL0     H91457  -2.862   7.222  10.104 -2.0803 -0.2582 -0.8431
  693MOL0     H91458  -1.814   7.270   9.808  0.7114  2.3866 -1.9198
  693MOL0     H91459  -1.570   7.318   9.807  0.0685 -1.4221  1.1484
  693MOL0     H91460  -1.197   7.569   9.496  0.1335  0.2231 -1.0421
  693MOL0     H91461  -0.955   7.604   9.582 -0.0047  1.1685  1.7880
  693MOL0     H91462   0.941   7.347  10.528 -2.1114 -2.2012 -0.5750
  693MOL0     H91463   1.181   7.418  10.582  1.5952 -0.5312  0.6125
  693MOL0     H91464   1.510   7.413  10.719  0.9459  2.2128 -0.1471
  693MOL0     H91465   1.713   7.506  10.823 -0.4202 -0.3662  0.0849
  693MOL0     H91466   1.897   7.442  10.925 -0.5298  0.5132 -1.1203
  693MOL0     H91467   1.923   7.606  10.873 -3.2675 -1.0996 -3.6069
  693MOL0     H91468   2.089   7.540  11.054 -1.6107  0.6555 -0.1798
  693MOL0     H91469   2.144   7.409  10.957  1.6836 -0.1488 -0.7470
  693MOL0     H91470   2.163   7.707  10.904 -0.8293  0.1895 -1.9452
  693MOL0     H91471   2.222   7.579  10.789 -1.2240  1.0970 -0.6659
  693MOL0     H91472   2.348   7.623  11.069  1.5674 -1.2485  0.6191
  693MOL0     H91473   2.373   7.478  10.971 -0.2465 -0.4952 -2.0605
  693MOL0     H91474   2.601   7.788  10.796 -2.3907  1.7922 -1.3803
  693MOL0     H91475   1.957   7.346  10.516 -0.3231 -1.0708 -1.5197
  693MOL0     H91476   1.761   7.218  10.422 -0.7418  1.8296 -1.1479
  694MOL0     O91477   4.461  10.397   5.601 -0.0014 -0.0509 -0.1520
  694MOL0     C91478   4.455  10.451   5.707  0.9585 -0.1588 -0.2518
  694MOL0     O91479   4.363  10.422   5.807 -0.1777  0.3043  0.3966
  694MOL0     C91480   4.286  10.308   5.790 -0.0439 -0.8339 -0.1263
  694MOL0     C91481   4.162  10.319   5.851  0.5749 -0.3381  0.3151
  694MOL0     C91482   4.062  10.220   5.832  0.3898  0.0322 -0.0395
  694MOL0     C91483   4.094  10.101   5.771 -0.8801 -0.3940  0.9808
  694MOL0     O91484   4.003  10.002   5.751  0.5387  0.1489  0.5294
  694MOL0     C91485   3.891  10.036   5.665  0.2376  0.4408 -0.4401
  694MOL0     C91486   3.760  10.003   5.742 -0.3238 -0.4414  0.0981
  694MOL0     C91487   3.732   9.852   5.720 -0.4153  0.2029  0.2516
  694MOL0     C91488   3.589   9.813   5.754 -0.1127  0.9937 -0.1633
  694MOL0     C91489   3.568   9.659   5.714 -0.1258 -0.1129 -0.4080
  694MOL0     C91490   3.450   9.602   5.801 -0.5942 -0.2457 -0.2529
  694MOL0     C91491   3.313   9.659   5.764 -0.0193  0.5516 -0.2196
  694MOL0     C91492   3.216   9.611   5.871  0.1971 -0.1555 -0.2435
  694MOL0     N91493   3.161   9.477   5.847  0.0068 -0.0395  1.1095
  694MOL0     C91494   3.205   9.353   5.899 -1.1442 -0.3439 -0.3123
  694MOL0     C91495   3.117   9.261   5.865 -0.6173 -0.5481  0.2067
  694MOL0     C91496   3.121   9.113   5.900  0.3314 -1.2747  0.4739
  694MOL0     C91497   3.154   9.077   6.050  0.0038 -0.2169 -0.2583
  694MOL0     C91498   3.042   9.103   6.151  0.1958  0.1895  0.0758
  694MOL0     C91499   3.087   9.121   6.295  0.3209 -0.2809  0.0612
  694MOL0     O91500   3.136   9.255   6.317  0.2253  0.0981 -0.0370
  694MOL0     C91501   3.169   9.291   6.443 -0.3112 -0.2277 -0.3830
  694MOL0     C91502   3.252   9.404   6.454  0.5753  0.0378 -0.0690
  694MOL0     C91503   3.300   9.438   6.582 -0.4861  0.6213 -0.3426
  694MOL0     C91504   3.266   9.367   6.699  0.0093  0.5630 -0.4587
  694MOL0     C91505   3.308   9.408   6.835 -0.4074  0.4854 -0.2164
  694MOL0     O91506   3.235   9.356   6.944 -0.4741 -0.0374 -0.7219
  694MOL0     C91507   3.274   9.387   7.069  0.1533 -0.6788  0.2409
  694MOL0     C91508   3.187   9.467   7.153  0.0755 -0.2590  1.1910
  694MOL0     C91509   3.238   9.495   7.287  0.8088  0.2082  0.2742
  694MOL0     C91510   3.367   9.452   7.335  0.1044 -0.3709  1.0312
  694MOL0     O91511   3.412   9.492   7.459 -0.0144 -0.1912  0.7715
  694MOL0     C91512   3.551   9.460   7.497  1.2666 -0.1776 -0.1475
  694MOL0     C91513   3.587   9.550   7.610 -0.7173 -0.3257 -0.4518
  694MOL0     C91514   3.615   9.698   7.577 -0.0068 -0.3310  0.1665
  694MOL0     C91515   3.663   9.777   7.694  0.4202  0.4742 -0.2047
  694MOL0     C91516   3.619   9.925   7.674  0.0779 -0.8355  0.3974
  694MOL0     C91517   3.652   9.990   7.539  0.2896 -0.0817  0.1081
  694MOL0     C91518   3.605  10.128   7.535 -0.0572 -0.2017 -0.6575
  694MOL0     C91519   3.657  10.215   7.415  0.2882 -0.7849 -0.7793
  694MOL0    Cl91520   3.665  10.123   7.266  0.2062 -0.0223  0.2912
  694MOL0     C91521   3.446   9.370   7.239 -0.2489  0.0803 -0.6944
  694MOL0     C91522   3.394   9.334   7.114  0.3694  0.0585  0.0742
  694MOL0     O91523   3.406   9.483   6.847 -0.7443  0.7763  0.5092
  694MOL0     C91524   3.185   9.246   6.684 -0.7729  0.0369 -0.7707
  694MOL0     C91525   3.137   9.223   6.559  0.4263  0.0195 -0.0136
  694MOL0     N91526   3.015   9.324   5.799  0.0399 -0.2808  0.4047
  694MOL0     N91527   3.042   9.454   5.786 -0.3978  0.2852  0.0417
  694MOL0     C91528   4.231  10.085   5.724 -0.1610 -0.2671  0.1311
  694MOL0     C91529   4.327  10.185   5.741 -0.6660  0.2698  0.2925
  694MOL0     C91530   4.552  10.559   5.735  0.5153 -0.2720 -0.2713
  694MOL0     C91531   4.547  10.621   5.859  0.0351 -0.4305  0.2436
  694MOL0     C91532   4.645  10.712   5.887 -0.5852 -0.7981  0.2518
  694MOL0     C91533   4.739  10.749   5.793  0.0736  0.0134  1.5998
  694MOL0     O91534   4.826  10.852   5.804 -0.4682  0.3403  0.1817
  694MOL0     C91535   4.864  10.896   5.933  0.4335 -0.0972  0.1200
  694MOL0     C91536   4.955  11.018   5.911  0.1067  0.7504  0.5574
  694MOL0     C91537   5.094  10.986   5.873 -0.3008  0.1504 -0.1707
  694MOL0     C91538   5.178  11.113   5.849  0.8566 -0.4884 -0.4705
  694MOL0     C91539   5.306  11.076   5.790 -1.0526  0.4151 -1.4799
  694MOL0     C91540   5.403  11.024   5.746 -1.1882  0.1660 -0.1640
  694MOL0     C91541   4.744  10.690   5.668 -0.0902 -0.7191  0.7117
  694MOL0     C91542   4.647  10.593   5.637 -0.4792 -0.1505  0.1205
  694MOL0     H91543   4.142  10.415   5.898 -0.0677 -0.5755  0.5378
  694MOL0     H91544   3.960  10.234   5.868 -0.2417 -1.0690 -1.3320
  694MOL0     H91545   3.901   9.979   5.572 -3.6474  1.5958 -1.7654
  694MOL0     H91546   3.898  10.142   5.640  0.6209  0.4734 -0.1945
  694MOL0     H91547   3.673  10.062   5.710 -0.2332 -0.4702 -0.2039
  694MOL0     H91548   3.769  10.030   5.847  2.1343  0.3977 -0.2764
  694MOL0     H91549   3.793   9.805   5.797 -1.6995 -0.1705  1.0676
  694MOL0     H91550   3.750   9.827   5.615 -0.7583  1.6180 -0.1780
  694MOL0     H91551   3.585   9.828   5.863 -0.9136 -2.5931  0.4356
  694MOL0     H91552   3.516   9.876   5.702 -1.7631  0.4694  1.4072
  694MOL0     H91553   3.656   9.608   5.756  1.0688  2.0210 -0.1521
  694MOL0     H91554   3.555   9.636   5.608 -4.4673  1.6162 -0.4234
  694MOL0     H91555   3.471   9.629   5.905 -1.2250  0.7271 -0.3752
  694MOL0     H91556   3.447   9.493   5.788 -1.3316 -0.1926 -0.5589
  694MOL0     H91557   3.315   9.767   5.751  1.2394  0.5084 -0.4326
  694MOL0     H91558   3.273   9.622   5.669 -0.1528  1.8096 -0.6689
  694MOL0     H91559   3.138   9.686   5.874 -2.1420 -2.3989 -1.0382
  694MOL0     H91560   3.251   9.611   5.975 -2.2180 -1.7014  0.6630
  694MOL0     H91561   3.297   9.341   5.956 -2.4654  0.9074  2.2814
  694MOL0     H91562   3.195   9.066   5.835  1.0265  2.3808 -1.6748
  694MOL0     H91563   3.022   9.078   5.869 -0.8598  1.6746  0.6620
  694MOL0     H91564   3.245   9.131   6.079  1.9755 -2.7741 -1.2706
  694MOL0     H91565   3.169   8.969   6.053  2.2742  0.0002 -1.5909
  694MOL0     H91566   2.992   9.197   6.126  3.8069  2.2881  0.1075
  694MOL0     H91567   2.968   9.024   6.143  0.3846 -0.0236  0.4056
  694MOL0     H91568   3.159   9.044   6.324 -0.0496 -0.1201  1.4725
  694MOL0     H91569   2.992   9.107   6.347  1.0729 -2.6092  0.9104
  694MOL0     H91570   3.271   9.476   6.374 -0.7427  0.1216 -0.3267
  694MOL0     H91571   3.366   9.524   6.595  3.7329 -2.2627 -0.8181
  694MOL0     H91572   3.091   9.509   7.124  0.1211 -0.5190  0.6401
  694MOL0     H91573   3.168   9.553   7.346  0.4933 -0.7961  0.8975
  694MOL0     H91574   3.614   9.487   7.411 -0.6722  0.7367 -1.3629
  694MOL0     H91575   3.572   9.355   7.515  0.2342 -0.8128 -2.2687
  694MOL0     H91576   3.678   9.504   7.651 -0.8751 -0.6963 -0.5129
  694MOL0     H91577   3.519   9.541   7.695 -1.0546 -0.1056 -0.6964
  694MOL0     H91578   3.527   9.738   7.526 -1.0249 -3.2793 -0.5527
  694MOL0     H91579   3.696   9.710   7.505  0.7027  3.6886  1.3881
  694MOL0     H91580   3.632   9.732   7.788  0.6341 -0.8659 -0.7559
  694MOL0     H91581   3.772   9.769   7.705  0.2613  0.1176  1.3994
  694MOL0     H91582   3.658   9.987   7.755 -0.1677 -2.2135  1.5943
  694MOL0     H91583   3.510   9.928   7.687  0.0312 -1.8152  0.2646
  694MOL0     H91584   3.595   9.935   7.463 -0.9635  1.9235 -0.4647
  694MOL0     H91585   3.758   9.984   7.514 -0.1396  0.9012 -2.2257
  694MOL0     H91586   3.495  10.126   7.533 -0.1068  0.8275  0.0288
  694MOL0     H91587   3.624  10.181   7.629  2.3862 -3.8579  1.1390
  694MOL0     H91588   3.759  10.247   7.437  0.2071 -0.5503 -0.7366
  694MOL0     H91589   3.589  10.300   7.406 -0.7263 -0.5758  5.0257
  694MOL0     H91590   3.548   9.339   7.258  0.0681  0.1424 -2.1549
  694MOL0     H91591   3.452   9.268   7.051  1.4497  0.4768  0.5911
  694MOL0     H91592   3.162   9.167   6.755  0.2940 -2.2766 -2.8382
  694MOL0     H91593   3.078   9.132   6.557  0.2005  0.1728 -0.6475
  694MOL0     H91594   4.265   9.989   5.689 -2.5284 -2.3175  2.9118
  694MOL0     H91595   4.432  10.184   5.715 -0.4366  5.2331  0.0034
  694MOL0     H91596   4.482  10.593   5.942  1.7353 -0.4274  1.6321
  694MOL0     H91597   4.646  10.757   5.985 -1.2237  0.0605 -0.1219
  694MOL0     H91598   4.923  10.825   5.992  2.0681 -0.3521 -1.7270
  694MOL0     H91599   4.770  10.919   5.984 -0.0940 -0.6075 -0.5996
  694MOL0     H91600   4.918  11.083   5.831  3.7288  1.0180 -1.0672
  694MOL0     H91601   4.955  11.077   6.003 -1.7396  2.1474 -0.2606
  694MOL0     H91602   5.100  10.925   5.783 -1.3428  1.6670 -1.3295
  694MOL0     H91603   5.141  10.940   5.961  2.2631  2.9970  0.1021
  694MOL0     H91604   5.129  11.186   5.784 -0.0292 -1.0111 -0.3978
  694MOL0     H91605   5.181  11.154   5.951  0.2646 -1.1603 -0.1739
  694MOL0     H91606   5.485  10.971   5.701 -0.8177 -0.1458  0.8299
  694MOL0     H91607   4.822  10.716   5.598 -1.1148 -1.9828 -0.9900
  694MOL0     H91608   4.645  10.542   5.541  2.1554  1.1371 -0.7029
  695MOL0     O91609   8.177   2.339   9.469  0.3589 -0.3241 -0.2220
  695MOL0     C91610   8.096   2.430   9.456 -0.8474  0.3436 -0.7722
  695MOL0     O91611   7.963   2.435   9.495  0.2330 -0.1767 -0.0393
  695MOL0     C91612   7.926   2.316   9.549 -0.3126 -0.4192  0.8685
  695MOL0     C91613   7.900   2.202   9.472 -0.7635  0.7610  0.5686
  695MOL0     C91614   7.857   2.085   9.520  0.1378 -0.4944  0.8141
  695MOL0     C91615   7.836   2.076   9.652 -0.4726 -1.3531  0.5231
  695MOL0     O91616   7.773   1.957   9.692 -0.0738  0.3218 -0.4471
  695MOL0     C91617   7.736   1.941   9.833 -0.0693  0.0316  0.2503
  695MOL0     C91618   7.660   1.811   9.831 -0.1513 -0.4959  0.0136
  695MOL0     C91619   7.586   1.797   9.966  0.1322  1.0984  0.2967
  695MOL0     C91620   7.506   1.659   9.959 -0.0279  0.3501  0.0082
  695MOL0     C91621   7.407   1.663  10.079  0.0929  0.2531  0.0878
  695MOL0     C91622   7.323   1.536  10.089  0.3273  0.1357 -0.7984
  695MOL0     C91623   7.196   1.545  10.001  0.8289  1.5437 -0.5994
  695MOL0     C91624   7.147   1.396   9.993  0.3571  0.1161  0.4731
  695MOL0     N91625   7.116   1.348  10.128  0.9888  0.5755  0.5124
  695MOL0     C91626   7.179   1.243  10.193 -0.1694 -0.0842  0.6089
  695MOL0     C91627   7.102   1.215  10.300 -0.4879 -0.5032  1.1200
  695MOL0     C91628   7.118   1.099  10.394 -0.1375 -0.1498  0.2597
  695MOL0     C91629   7.225   1.124  10.493 -0.2826 -0.2704 -0.3985
  695MOL0     C91630   7.255   1.000  10.583 -0.2900 -0.3950 -0.1492
  695MOL0     C91631   7.394   0.999  10.651  0.1598 -0.7726  0.6840
  695MOL0     O91632   7.495   1.005  10.544  0.1791 -0.3708  0.5398
  695MOL0     C91633   7.629   0.969  10.553 -0.0031 -0.3581  0.7377
  695MOL0     C91634   7.710   0.985  10.438 -0.3956  0.8908  0.0044
  695MOL0     C91635   7.841   0.946  10.440 -0.6999 -0.4760  0.4635
  695MOL0     C91636   7.905   0.904  10.562 -0.2688 -0.5264  0.1013
  695MOL0     C91637   8.050   0.880  10.569  0.4226 -0.0765 -0.2699
  695MOL0     O91638   8.102   0.873  10.697  0.0656 -0.1254  0.1002
  695MOL0     C91639   8.229   0.858  10.715 -1.0291  0.0017 -0.7186
  695MOL0     C91640   8.326   0.893  10.624  0.4307  0.6848  0.4598
  695MOL0     C91641   8.463   0.858  10.653  0.0283 -0.6842 -0.2093
  695MOL0     C91642   8.508   0.795  10.764 -1.4063  0.2035 -0.1948
  695MOL0     O91643   8.641   0.780  10.784 -1.0363  0.3257 -0.3395
  695MOL0     C91644   8.680   0.647  10.818 -0.2487 -1.4502  1.3786
  695MOL0     C91645   8.754   0.572  10.708 -0.2338  0.0707  0.4819
  695MOL0     C91646   8.864   0.661  10.639  0.0407 -0.1047  0.2572
  695MOL0     C91647   8.895   0.585  10.511 -0.1270  0.0637 -0.4718
  695MOL0     C91648   9.019   0.633  10.442 -0.6287 -0.0689  1.1321
  695MOL0     C91649   9.019   0.560  10.308  0.5299 -0.1262  0.6648
  695MOL0     C91650   9.155   0.576  10.243  0.3632 -0.0918 -0.3737
  695MOL0     C91651   9.169   0.507  10.103  0.2070 -0.0322 -0.7338
  695MOL0    Cl91652   9.114   0.331  10.096 -0.2556 -0.1820 -0.2795
  695MOL0     C91653   8.409   0.773  10.860 -0.4642  0.8044  0.8197
  695MOL0     C91654   8.275   0.793  10.837  0.5106  0.5871  0.0387
  695MOL0     O91655   8.106   0.856  10.464  0.1565  0.2618  0.5098
  695MOL0     C91656   7.813   0.878  10.666 -0.0291  0.2410 -0.4629
  695MOL0     C91657   7.678   0.916  10.672  1.0338  0.5394  0.4135
  695MOL0     N91658   7.007   1.320  10.313 -0.8575 -0.3664 -0.1328
  695MOL0     N91659   7.010   1.390  10.204 -0.0402  0.1860  0.0423
  695MOL0     C91660   7.865   2.181   9.733 -0.4246 -0.3716  0.0039
  695MOL0     C91661   7.911   2.302   9.686 -0.0181 -0.0425 -0.3674
  695MOL0     C91662   8.137   2.547   9.367  0.6726  0.3557  0.2504
  695MOL0     C91663   8.046   2.643   9.317 -0.0819  0.0382 -0.4907
  695MOL0     C91664   8.095   2.754   9.237 -0.4081  0.1391 -0.0474
  695MOL0     C91665   8.232   2.757   9.199 -0.4409 -0.4362 -0.2088
  695MOL0     O91666   8.257   2.862   9.114 -0.7048  0.0406 -0.2341
  695MOL0     C91667   8.393   2.900   9.092 -0.7871  0.0981 -0.4697
  695MOL0     C91668   8.428   3.030   9.150  0.5645 -0.4121 -0.6437
  695MOL0     C91669   8.413   3.021   9.299 -0.3593 -0.1286 -0.0529
  695MOL0     C91670   8.279   3.077   9.351 -0.2369  0.7579 -0.2918
  695MOL0     C91671   8.276   3.221   9.338 -0.3153 -0.2979 -0.2779
  695MOL0     C91672   8.294   3.339   9.338  0.7525 -0.1780 -0.4778
  695MOL0     C91673   8.320   2.672   9.268 -0.8558 -0.0127  0.0540
  695MOL0     C91674   8.271   2.567   9.348 -0.0571 -0.1826  0.1435
  695MOL0     H91675   7.925   2.214   9.367 -0.8043  1.8897  0.6710
  695MOL0     H91676   7.842   2.004   9.450 -2.1802  0.5798 -0.0612
  695MOL0     H91677   7.683   2.027   9.873  1.5868  1.9132 -1.4041
  695MOL0     H91678   7.824   1.930   9.896  1.0707  5.7302  0.1388
  695MOL0     H91679   7.724   1.726   9.805 -0.9349 -0.6989 -1.4042
  695MOL0     H91680   7.587   1.796   9.750 -0.6854 -2.3211  0.7742
  695MOL0     H91681   7.524   1.886   9.977  0.9002  1.9511 -1.7410
  695MOL0     H91682   7.666   1.787  10.040  0.7242 -1.5121 -0.5611
  695MOL0     H91683   7.448   1.647   9.868  2.6676 -2.0346 -1.5571
  695MOL0     H91684   7.574   1.574   9.950  1.8549  1.8737 -0.9210
  695MOL0     H91685   7.338   1.748  10.075 -1.1657 -0.7600 -0.2398
  695MOL0     H91686   7.466   1.671  10.171 -0.5454  0.7093  0.4664
  695MOL0     H91687   7.292   1.518  10.192  0.0560 -0.9455 -1.0605
  695MOL0     H91688   7.379   1.450  10.051  2.2865  0.0366  1.9522
  695MOL0     H91689   7.124   1.612  10.048  0.6483  2.0280 -1.5450
  695MOL0     H91690   7.216   1.581   9.899 -2.3153  0.7011 -1.6297
  695MOL0     H91691   7.221   1.333   9.943 -1.7619 -2.9943  0.9455
  695MOL0     H91692   7.053   1.385   9.939  0.4641  0.3934  0.2318
  695MOL0     H91693   7.264   1.180  10.167 -0.5612 -0.8118  1.0564
  695MOL0     H91694   7.139   1.002  10.349 -0.4081 -0.3303  0.5165
  695MOL0     H91695   7.019   1.100  10.441 -0.0473  0.0572  0.4476
  695MOL0     H91696   7.180   1.203  10.553 -2.8465 -1.2083 -0.9310
  695MOL0     H91697   7.317   1.151  10.442 -1.7084 -1.9951 -4.2861
  695MOL0     H91698   7.173   0.997  10.655 -0.0808 -3.0193  0.1015
  695MOL0     H91699   7.242   0.907  10.526 -1.7134 -0.0498 -0.4159
  695MOL0     H91700   7.385   0.909  10.713 -0.8545 -0.6458  0.7368
  695MOL0     H91701   7.405   1.090  10.711 -2.5907  1.3263 -1.7144
  695MOL0     H91702   7.654   1.021  10.353 -0.4650 -2.5000 -1.5372
  695MOL0     H91703   7.900   0.958  10.350 -4.0880 -0.3862 -1.9311
  695MOL0     H91704   8.309   0.956  10.538  2.1844  0.7335  0.1089
  695MOL0     H91705   8.547   0.875  10.586  0.4740  0.7564  0.6672
  695MOL0     H91706   8.595   0.589  10.853 -0.1553 -1.1523  2.0985
  695MOL0     H91707   8.746   0.662  10.903  1.3620  1.7654 -0.2626
  695MOL0     H91708   8.680   0.539  10.635 -0.8085  1.0143  0.6172
  695MOL0     H91709   8.793   0.479  10.749 -3.2106 -0.9913  1.1525
  695MOL0     H91710   8.955   0.676  10.698  0.7260 -1.6285 -0.3307
  695MOL0     H91711   8.828   0.763  10.625 -3.0887 -0.9751  1.3087
  695MOL0     H91712   8.901   0.478  10.531 -2.6305 -0.0632 -0.0742
  695MOL0     H91713   8.803   0.600  10.453 -0.8003 -1.5724  0.1157
  695MOL0     H91714   9.098   0.609  10.514 -0.5791  0.2799  1.1965
  695MOL0     H91715   9.014   0.742  10.432 -1.4001 -0.1926  0.0751
  695MOL0     H91716   8.942   0.608  10.246  1.0750 -2.1022 -1.7157
  695MOL0     H91717   9.003   0.452  10.303 -1.0178  0.0981 -3.2097
  695MOL0     H91718   9.178   0.682  10.231  1.2664 -0.3412 -0.9099
  695MOL0     H91719   9.232   0.532  10.307  1.4006  2.3293  0.1564
  695MOL0     H91720   9.277   0.505  10.086  0.6663 -4.4478  1.2451
  695MOL0     H91721   9.110   0.562  10.029 -0.3696 -1.3855 -1.3104
  695MOL0     H91722   8.457   0.728  10.947  4.4264  1.0471 -1.3889
  695MOL0     H91723   8.207   0.763  10.916  0.7288 -1.2725 -0.4111
  695MOL0     H91724   7.854   0.834  10.756  0.3620  0.8383 -0.3432
  695MOL0     H91725   7.616   0.898  10.759  1.6147 -0.9858  0.5320
  695MOL0     H91726   7.850   2.158   9.838 -0.5574 -1.0273 -0.1603
  695MOL0     H91727   7.917   2.376   9.765 -0.0083 -1.3044  0.8738
  695MOL0     H91728   7.945   2.633   9.355  1.0790  0.1390  3.0674
  695MOL0     H91729   8.021   2.828   9.208 -0.2016  0.5071  0.3565
  695MOL0     H91730   8.398   2.895   8.983 -1.6514 -1.6770 -0.4565
  695MOL0     H91731   8.470   2.832   9.128  2.4264  2.9658 -1.3441
  695MOL0     H91732   8.532   3.047   9.118  0.3268 -1.1913 -1.8833
  695MOL0     H91733   8.373   3.118   9.115  1.7668  0.4425 -0.4719
  695MOL0     H91734   8.491   3.078   9.349 -1.6051 -0.2211  2.1403
  695MOL0     H91735   8.426   2.921   9.341  0.4987  0.2857  0.7069
  695MOL0     H91736   8.197   3.046   9.286  0.1677  2.1274 -1.5082
  695MOL0     H91737   8.264   3.048   9.456 -1.4639  3.2339  0.2808
  695MOL0     H91738   8.308   3.445   9.344 -0.7452 -0.0658  1.9956
  695MOL0     H91739   8.424   2.671   9.239 -0.8097  0.7804  0.1632
  695MOL0     H91740   8.341   2.499   9.395 -1.8009 -1.0406  1.6549
  696MOL0     O91741   4.043   1.342   8.340 -0.4580 -0.2789 -0.5107
  696MOL0     C91742   4.085   1.441   8.396  0.5069  0.8755 -0.3759
  696MOL0     O91743   4.008   1.548   8.444 -0.0748  1.0836  0.4057
  696MOL0     C91744   3.877   1.559   8.425  0.6478  0.0197 -0.0739
  696MOL0     C91745   3.813   1.581   8.300 -0.9550  0.0814 -0.5774
  696MOL0     C91746   3.673   1.598   8.290 -0.6188  0.2383 -0.4506
  696MOL0     C91747   3.596   1.616   8.407  0.1077 -0.1889 -0.6250
  696MOL0     O91748   3.464   1.648   8.385 -0.4227 -0.4689  0.6423
  696MOL0     C91749   3.379   1.536   8.414  0.7291  0.3137  0.5941
  696MOL0     C91750   3.249   1.557   8.320 -0.2542  0.4300  0.0205
  696MOL0     C91751   3.181   1.435   8.259 -0.5517  0.2352 -1.0708
  696MOL0     C91752   3.067   1.462   8.169  0.1420  0.7120 -0.0094
  696MOL0     C91753   2.934   1.476   8.237  0.1546 -0.3275 -0.1591
  696MOL0     C91754   2.818   1.466   8.134 -0.4355  0.3884  1.2182
  696MOL0     C91755   2.699   1.484   8.220  0.1933  0.1427  1.0447
  696MOL0     C91756   2.563   1.455   8.146  0.4103 -0.6607  0.1691
  696MOL0     N91757   2.451   1.450   8.234 -0.3953 -0.1028  0.4234
  696MOL0     C91758   2.438   1.509   8.354  0.4381 -0.2472  0.5788
  696MOL0     C91759   2.326   1.451   8.404 -0.1224  0.2954 -0.0661
  696MOL0     C91760   2.245   1.483   8.525 -0.7039 -1.0378  0.2827
  696MOL0     C91761   2.104   1.528   8.473 -0.5269  0.0510  0.4942
  696MOL0     C91762   2.027   1.589   8.584  0.3072  0.9379 -0.5454
  696MOL0     C91763   1.877   1.581   8.556 -0.2073 -0.2087  0.1188
  696MOL0     O91764   1.824   1.447   8.577 -0.2727 -0.1933 -0.2489
  696MOL0     C91765   1.711   1.410   8.506  0.0470  0.0445 -0.3433
  696MOL0     C91766   1.683   1.278   8.484 -0.1539  0.5460 -0.0884
  696MOL0     C91767   1.563   1.238   8.425 -0.3399  0.4232  0.0971
  696MOL0     C91768   1.465   1.326   8.394  0.5685 -2.0286  0.5874
  696MOL0     C91769   1.335   1.284   8.337  0.0617 -0.7327 -0.0432
  696MOL0     O91770   1.258   1.394   8.307  0.5471  0.3842  0.0946
  696MOL0     C91771   1.127   1.356   8.275 -1.0543 -0.6518 -0.0514
  696MOL0     C91772   1.043   1.342   8.383 -0.0226  0.8379 -0.0253
  696MOL0     C91773   0.910   1.316   8.373  0.2363 -0.3705  0.1373
  696MOL0     C91774   0.851   1.317   8.245 -0.0132 -0.8578  0.2615
  696MOL0     O91775   0.719   1.296   8.221  0.6667 -0.3467  0.3737
  696MOL0     C91776   0.621   1.381   8.284 -0.1132 -0.6914 -0.0562
  696MOL0     C91777   0.484   1.321   8.259  0.2103 -0.3334  0.3543
  696MOL0     C91778   0.383   1.361   8.364 -0.0808 -0.5262  0.0597
  696MOL0     C91779   0.268   1.261   8.361 -0.1249  0.3655 -0.1872
  696MOL0     C91780   0.145   1.298   8.457 -0.0424  1.4241  0.1807
  696MOL0     C91781   0.018   1.203   8.429  0.4743  0.7316  0.8738
  696MOL0     C91782  -0.053   1.235   8.296  0.0787 -0.2959 -0.2389
  696MOL0     C91783  -0.195   1.175   8.281 -0.7843  0.4871  0.6970
  696MOL0    Cl91784  -0.182   1.000   8.301 -0.3822 -0.3563  0.2145
  696MOL0     C91785   0.933   1.333   8.130  0.6105 -0.7319 -0.1021
  696MOL0     C91786   1.070   1.353   8.145 -0.5006  0.4343 -0.0190
  696MOL0     O91787   1.310   1.163   8.311  0.0531 -0.4081 -0.4563
  696MOL0     C91788   1.486   1.462   8.430 -0.8761 -0.1764  0.7910
  696MOL0     C91789   1.610   1.501   8.477 -0.2211 -0.4801  0.0938
  696MOL0     N91790   2.281   1.357   8.309 -0.0993  0.8045 -0.5999
  696MOL0     N91791   2.363   1.355   8.208  1.1817  0.5144  0.3152
  696MOL0     C91792   3.661   1.592   8.529 -0.1117 -0.2195  0.1753
  696MOL0     C91793   3.797   1.558   8.543 -0.1945  0.3379  0.5784
  696MOL0     C91794   4.232   1.446   8.415 -0.1031  0.0257 -0.7779
  696MOL0     C91795   4.332   1.395   8.324  0.5626 -0.5498  0.2180
  696MOL0     C91796   4.468   1.400   8.348 -1.0746  0.7074 -0.2838
  696MOL0     C91797   4.520   1.467   8.468 -0.0148  0.6202  0.3575
  696MOL0     O91798   4.657   1.486   8.469 -0.3165 -0.0615  0.3547
  696MOL0     C91799   4.719   1.586   8.557 -0.2030  0.1628  0.4132
  696MOL0     C91800   4.858   1.636   8.511 -0.5811 -0.6352 -0.4816
  696MOL0     C91801   4.941   1.514   8.481  0.3952  0.1375 -0.7918
  696MOL0     C91802   5.089   1.530   8.525  0.7861  0.6435  0.0908
  696MOL0     C91803   5.170   1.630   8.444 -0.1728  0.2088  0.2814
  696MOL0     C91804   5.232   1.707   8.378  0.3820  0.0975 -0.2625
  696MOL0     C91805   4.428   1.517   8.563  0.0937  0.8173 -0.3128
  696MOL0     C91806   4.286   1.499   8.533 -0.2200 -0.3457  0.5619
  696MOL0     H91807   3.860   1.572   8.202 -0.9401 -2.6849 -0.3958
  696MOL0     H91808   3.620   1.629   8.200 -0.2299 -2.0515 -1.5447
  696MOL0     H91809   3.350   1.542   8.519 -2.5712  1.1578 -0.2248
  696MOL0     H91810   3.429   1.440   8.402 -0.5814 -0.5602  1.7578
  696MOL0     H91811   3.272   1.618   8.233  0.2379  0.2098 -0.0090
  696MOL0     H91812   3.172   1.612   8.376 -1.4095 -1.1466  0.0594
  696MOL0     H91813   3.147   1.367   8.338  0.8947  0.8814  0.1544
  696MOL0     H91814   3.258   1.376   8.208  2.0625  0.6397  2.0934
  696MOL0     H91815   3.094   1.546   8.105 -0.1947  1.4231  0.7662
  696MOL0     H91816   3.055   1.369   8.112 -1.8693  0.2656  1.0263
  696MOL0     H91817   2.931   1.576   8.281 -0.3003 -0.3189 -0.2042
  696MOL0     H91818   2.910   1.399   8.310 -1.7636 -0.3887 -0.8016
  696MOL0     H91819   2.811   1.369   8.085 -1.2396 -0.2794  2.5913
  696MOL0     H91820   2.826   1.549   8.062  0.5173 -0.4787  0.3079
  696MOL0     H91821   2.705   1.426   8.313 -2.3338 -0.7265  0.7557
  696MOL0     H91822   2.697   1.587   8.257  0.6258 -0.0262  1.5569
  696MOL0     H91823   2.566   1.375   8.071 -0.3585  0.9283 -1.6338
  696MOL0     H91824   2.548   1.544   8.084  1.8377 -0.1069  0.5805
  696MOL0     H91825   2.501   1.585   8.400 -0.1630 -0.7190  2.2613
  696MOL0     H91826   2.292   1.566   8.578  1.6453  0.0023 -3.0983
  696MOL0     H91827   2.227   1.397   8.589 -4.4083  1.0054  2.3340
  696MOL0     H91828   2.060   1.446   8.416 -1.2168  0.7731 -0.0445
  696MOL0     H91829   2.123   1.608   8.400 -0.8537 -1.2217 -1.0362
  696MOL0     H91830   2.062   1.541   8.676  2.8975  2.8704 -0.4353
  696MOL0     H91831   2.039   1.697   8.586 -1.0570  1.1306 -1.2789
  696MOL0     H91832   1.840   1.635   8.468  3.5783 -0.4854 -1.8331
  696MOL0     H91833   1.832   1.632   8.642 -3.5530  0.2856 -1.7490
  696MOL0     H91834   1.750   1.195   8.502 -2.3459 -1.7407 -1.7669
  696MOL0     H91835   1.543   1.134   8.399  3.0944 -0.2264 -0.4864
  696MOL0     H91836   1.088   1.338   8.481  1.9224  0.2839 -0.8981
  696MOL0     H91837   0.856   1.295   8.465  0.9388  0.9341  0.8812
  696MOL0     H91838   0.622   1.487   8.257 -0.1277  0.4412  3.7887
  696MOL0     H91839   0.642   1.374   8.391  0.6969  0.3074 -0.1328
  696MOL0     H91840   0.505   1.213   8.262  0.8750 -0.2204 -0.0940
  696MOL0     H91841   0.466   1.338   8.152  1.3989  2.5187  0.5289
  696MOL0     H91842   0.353   1.466   8.351 -1.3446 -0.7567  0.8742
  696MOL0     H91843   0.424   1.355   8.465  1.7591  0.1542 -0.6081
  696MOL0     H91844   0.219   1.263   8.263  2.2072  1.3959 -1.4233
  696MOL0     H91845   0.300   1.159   8.381  0.4894  0.6386  0.2423
  696MOL0     H91846   0.105   1.399   8.441 -0.1165  1.4104  0.2793
  696MOL0     H91847   0.180   1.278   8.558 -0.4798 -1.0052 -0.1010
  696MOL0     H91848  -0.047   1.210   8.517  0.3345  1.8374  0.6879
  696MOL0     H91849   0.038   1.095   8.421  0.0989  0.5283  2.4287
  696MOL0     H91850  -0.051   1.343   8.278  1.7171 -0.3863 -0.7513
  696MOL0     H91851   0.003   1.193   8.212  1.9861 -1.5251  1.5289
  696MOL0     H91852  -0.240   1.196   8.184  1.7638 -0.5090 -0.7839
  696MOL0     H91853  -0.264   1.206   8.360 -1.6794 -4.6176  2.3208
  696MOL0     H91854   0.895   1.330   8.029  0.0124  0.8774  0.0422
  696MOL0     H91855   1.126   1.367   8.053 -2.9270  1.7298 -1.4235
  696MOL0     H91856   1.412   1.538   8.408 -1.1535 -0.7985 -0.4902
  696MOL0     H91857   1.627   1.607   8.494 -0.3461 -0.2863 -0.9366
  696MOL0     H91858   3.600   1.604   8.618 -2.3781 -1.0124 -1.1978
  696MOL0     H91859   3.847   1.526   8.634  2.2645  2.0790 -0.0506
  696MOL0     H91860   4.312   1.344   8.229  0.6731 -1.3051  0.5921
  696MOL0     H91861   4.534   1.360   8.272 -2.5564 -0.6076 -0.9368
  696MOL0     H91862   4.719   1.544   8.658  1.7188  1.7319  1.1290
  696MOL0     H91863   4.655   1.675   8.555  0.1555  0.4192  0.0393
  696MOL0     H91864   4.852   1.696   8.420 -1.2746 -0.0221 -0.0459
  696MOL0     H91865   4.911   1.699   8.584  1.0458 -1.5582 -0.7998
  696MOL0     H91866   4.927   1.485   8.377  0.0149 -1.5537 -0.3040
  696MOL0     H91867   4.896   1.430   8.535  0.1872 -0.9190 -2.5497
  696MOL0     H91868   5.088   1.572   8.626 -1.0011 -1.2682  0.9348
  696MOL0     H91869   5.125   1.428   8.511 -1.6450 -0.4804  1.4351
  696MOL0     H91870   5.301   1.765   8.320  1.7536  0.3939  1.5723
  696MOL0     H91871   4.453   1.567   8.657 -0.0771 -0.5918  0.5136
  696MOL0     H91872   4.212   1.548   8.595 -2.6649 -1.8676 -0.9548
  697MOL0     O91873   5.904   5.261   1.358 -0.8306 -0.0347 -0.0298
  697MOL0     C91874   5.963   5.169   1.417 -0.0400 -0.2915 -0.0556
  697MOL0     O91875   5.903   5.067   1.484  0.3436  0.2300  0.1079
  697MOL0     C91876   5.777   5.025   1.461  0.2760 -0.3230 -0.3670
  697MOL0     C91877   5.672   5.089   1.528  1.0217 -0.0865  0.1433
  697MOL0     C91878   5.535   5.048   1.495 -0.5637  0.5495  0.6934
  697MOL0     C91879   5.508   4.947   1.406  0.5279 -0.7620  0.2739
  697MOL0     O91880   5.382   4.911   1.357  0.3417  0.7934 -0.4420
  697MOL0     C91881   5.268   4.960   1.431  0.3809  0.2766 -0.0956
  697MOL0     C91882   5.137   4.891   1.393  1.0108  0.1248 -0.4677
  697MOL0     C91883   5.157   4.739   1.418  0.3112  0.6420 -0.4998
  697MOL0     C91884   5.022   4.670   1.425 -0.3600  0.0841 -0.7068
  697MOL0     C91885   5.042   4.524   1.461  0.5678 -0.2495 -0.7446
  697MOL0     C91886   4.912   4.442   1.425  0.2913 -0.6441 -0.1766
  697MOL0     C91887   4.895   4.319   1.513 -0.6992  0.0728 -0.2234
  697MOL0     C91888   4.794   4.219   1.456  0.2873 -0.4757 -0.4779
  697MOL0     N91889   4.660   4.274   1.440  0.6150 -0.1830  0.5126
  697MOL0     C91890   4.585   4.303   1.326 -0.3210  0.6873  0.0786
  697MOL0     C91891   4.477   4.358   1.376 -0.7912 -1.4006  0.3661
  697MOL0     C91892   4.359   4.394   1.296  0.2333  0.3554  0.3592
  697MOL0     C91893   4.234   4.331   1.359 -0.0760  0.0869  0.0615
  697MOL0     C91894   4.115   4.347   1.264  1.0779 -0.1012 -0.1330
  697MOL0     C91895   3.980   4.281   1.314 -0.4024  0.1476  0.7903
  697MOL0     O91896   3.882   4.297   1.207  0.1622  0.5656 -0.1463
  697MOL0     C91897   3.754   4.237   1.197 -0.6329 -0.0592 -0.4605
  697MOL0     C91898   3.711   4.122   1.270  0.3774 -0.8791  0.2484
  697MOL0     C91899   3.579   4.078   1.258 -0.1006 -0.5823  0.7050
  697MOL0     C91900   3.481   4.144   1.168 -0.8300 -0.0922  0.2627
  697MOL0     C91901   3.343   4.093   1.145 -0.4988 -0.2484  0.7040
  697MOL0     O91902   3.263   4.163   1.053  0.0513 -0.1600 -0.1499
  697MOL0     C91903   3.138   4.140   1.021  0.0846 -1.3932 -1.3108
  697MOL0     C91904   3.074   4.015   1.038 -0.1744 -0.7527  0.5670
  697MOL0     C91905   2.947   3.984   1.008 -0.1449 -0.1758  0.2943
  697MOL0     C91906   2.865   4.090   0.959 -0.0765  0.2529  0.3081
  697MOL0     O91907   2.729   4.082   0.954  0.6664  0.2239  0.1466
  697MOL0     C91908   2.657   3.961   0.980  0.3187  0.2772  0.1670
  697MOL0     C91909   2.506   3.981   0.955  0.2109 -0.2020  0.4745
  697MOL0     C91910   2.412   3.879   1.019  0.6394  0.1173 -0.3554
  697MOL0     C91911   2.265   3.911   1.012  0.2890 -0.4101 -0.8254
  697MOL0     C91912   2.214   3.945   1.158 -0.6536  0.1740  0.0701
  697MOL0     C91913   2.059   3.965   1.162 -0.2029  0.7564 -0.9714
  697MOL0     C91914   1.978   3.849   1.104 -0.0629  1.0946  0.8741
  697MOL0     C91915   1.841   3.833   1.169  0.2676  0.6091  0.6114
  697MOL0    Cl91916   1.712   3.887   1.059 -0.1749  0.0236  0.0592
  697MOL0     C91917   2.917   4.217   0.940 -0.6903 -1.0552 -0.3487
  697MOL0     C91918   3.055   4.238   0.970  0.1900 -0.9668  0.1905
  697MOL0     O91919   3.300   4.021   1.232  1.1306 -0.3589 -0.1798
  697MOL0     C91920   3.536   4.250   1.087 -0.3507  0.0791  0.5007
  697MOL0     C91921   3.663   4.294   1.101  0.0205  0.4104 -0.0560
  697MOL0     N91922   4.495   4.386   1.515  1.3021  0.5926  0.3614
  697MOL0     N91923   4.600   4.329   1.556  0.1768  0.0398  0.1050
  697MOL0     C91924   5.614   4.892   1.336 -0.1328 -0.4125  0.6691
  697MOL0     C91925   5.746   4.924   1.368 -0.1893 -0.5036  1.2655
  697MOL0     C91926   6.109   5.171   1.419  0.4354  0.8496  0.0382
  697MOL0     C91927   6.194   5.251   1.339 -0.0190 -0.9253  0.8774
  697MOL0     C91928   6.332   5.260   1.363  0.3028  0.7915  0.4538
  697MOL0     C91929   6.393   5.188   1.463 -0.5061 -0.5863  0.2132
  697MOL0     O91930   6.528   5.200   1.487 -1.0840  0.7828 -0.1947
  697MOL0     C91931   6.589   5.127   1.599 -1.1969 -0.4049 -0.0422
  697MOL0     C91932   6.743   5.117   1.582  0.6528  0.0883 -0.5424
  697MOL0     C91933   6.807   5.254   1.576  0.9345 -0.8365 -0.3153
  697MOL0     C91934   6.961   5.250   1.563  0.1839  1.0459 -0.1645
  697MOL0     C91935   7.012   5.385   1.550  0.0148 -0.1084  0.9100
  697MOL0     C91936   7.051   5.498   1.557  0.0745 -0.0374  1.2598
  697MOL0     C91937   6.303   5.102   1.537  0.3663 -0.5133 -0.1243
  697MOL0     C91938   6.170   5.092   1.518  0.1760  0.0371  1.3588
  697MOL0     H91939   5.690   5.169   1.599 -2.9005 -0.5086  1.8566
  697MOL0     H91940   5.454   5.103   1.542 -2.6340 -0.6777 -1.2244
  697MOL0     H91941   5.249   5.066   1.410 -1.2959  0.3190  1.3791
  697MOL0     H91942   5.271   4.945   1.539 -1.1179 -0.3671 -0.1136
  697MOL0     H91943   5.103   4.904   1.290 -0.6808 -1.7947 -0.2293
  697MOL0     H91944   5.049   4.918   1.452  0.7605 -2.2875  0.3912
  697MOL0     H91945   5.218   4.729   1.508 -2.3152 -0.3477  1.2729
  697MOL0     H91946   5.221   4.709   1.335  1.9629 -1.9857  1.5600
  697MOL0     H91947   4.955   4.722   1.494  2.3491  2.9249 -0.0227
  697MOL0     H91948   4.987   4.668   1.321 -1.3146 -1.7099 -0.3985
  697MOL0     H91949   5.073   4.507   1.565 -1.0202  0.7396 -0.0704
  697MOL0     H91950   5.123   4.472   1.408 -0.9599 -1.2350 -2.1996
  697MOL0     H91951   4.936   4.406   1.325  0.7206 -0.9231  0.0244
  697MOL0     H91952   4.825   4.507   1.417  0.1837 -0.9313 -1.8020
  697MOL0     H91953   4.992   4.269   1.521 -1.3158 -1.3514 -1.2153
  697MOL0     H91954   4.866   4.344   1.615 -0.0695 -0.7589  0.1609
  697MOL0     H91955   4.786   4.143   1.534 -0.9349  0.1356  0.0178
  697MOL0     H91956   4.829   4.173   1.363  1.0301  1.0323 -0.9767
  697MOL0     H91957   4.605   4.277   1.223  1.0882 -1.1748  0.7657
  697MOL0     H91958   4.386   4.345   1.202 -0.5111 -0.9581  0.7999
  697MOL0     H91959   4.351   4.502   1.287 -0.3029  0.2378 -0.7124
  697MOL0     H91960   4.216   4.391   1.449  2.2190 -1.7329  1.8352
  697MOL0     H91961   4.245   4.230   1.399  1.3877  0.6976  1.2964
  697MOL0     H91962   4.099   4.456   1.262 -0.3561 -0.2611  1.1403
  697MOL0     H91963   4.143   4.299   1.170  0.6964 -0.4235 -0.0816
  697MOL0     H91964   3.927   4.326   1.399 -1.3416  1.0040 -0.2097
  697MOL0     H91965   4.009   4.177   1.331  0.4413  0.6599  2.7759
  697MOL0     H91966   3.781   4.075   1.338  2.2000  1.9613  0.5342
  697MOL0     H91967   3.538   3.997   1.317 -3.0998  0.2559 -0.0235
  697MOL0     H91968   3.124   3.934   1.091 -1.4946 -1.0957  1.3409
  697MOL0     H91969   2.911   3.885   1.031  0.2293 -0.1763  0.8795
  697MOL0     H91970   2.672   3.939   1.086  1.2822  0.5683  0.1004
  697MOL0     H91971   2.709   3.885   0.921  3.8471  2.0959  0.6580
  697MOL0     H91972   2.499   3.970   0.846 -0.5178 -0.8717  0.5784
  697MOL0     H91973   2.479   4.081   0.989  1.8711  0.9330 -1.3437
  697MOL0     H91974   2.428   3.866   1.126 -2.1673  0.5577  0.1829
  697MOL0     H91975   2.419   3.781   0.970  3.1003  0.8825 -1.7155
  697MOL0     H91976   2.253   3.997   0.946 -2.8989 -0.4708 -0.4661
  697MOL0     H91977   2.213   3.824   0.972  0.3632 -0.3853 -0.9749
  697MOL0     H91978   2.260   4.037   1.196 -2.2308  1.5883 -1.3185
  697MOL0     H91979   2.235   3.864   1.229 -1.1396 -0.0082  0.0097
  697MOL0     H91980   2.036   4.059   1.111 -2.5183  0.4166 -0.6832
  697MOL0     H91981   2.025   3.977   1.266  0.7036  1.1004 -0.7106
  697MOL0     H91982   1.967   3.861   0.996 -2.4066 -1.0007  0.7832
  697MOL0     H91983   2.040   3.759   1.107 -1.1778  0.1564 -1.4978
  697MOL0     H91984   1.830   3.884   1.265  1.2901  1.8927  0.0651
  697MOL0     H91985   1.841   3.726   1.194  0.0682  0.8654  1.7333
  697MOL0     H91986   2.847   4.299   0.928 -1.2205 -0.8981  2.8496
  697MOL0     H91987   3.099   4.337   0.963  0.4885 -1.1060  0.0741
  697MOL0     H91988   3.472   4.302   1.017  0.3805  0.2259 -0.0684
  697MOL0     H91989   3.690   4.384   1.047  2.1179 -0.6619 -0.9474
  697MOL0     H91990   5.586   4.814   1.266 -1.5351  0.2134  0.4982
  697MOL0     H91991   5.828   4.894   1.303 -1.8131  0.4880 -1.4356
  697MOL0     H91992   6.148   5.312   1.262 -0.0301 -1.8838  0.1044
  697MOL0     H91993   6.394   5.335   1.314  1.0207  0.4636  0.8483
  697MOL0     H91994   6.542   5.029   1.617 -5.8844  1.7124  0.7509
  697MOL0     H91995   6.570   5.178   1.694  2.0626 -0.8051  0.9801
  697MOL0     H91996   6.800   5.069   1.662 -0.7790  0.7926  0.9694
  697MOL0     H91997   6.763   5.057   1.493 -0.1447 -1.1156  0.0433
  697MOL0     H91998   6.783   5.308   1.668  1.0738 -0.4916 -0.4817
  697MOL0     H91999   6.759   5.308   1.494 -2.5824 -1.5647  1.0855
  697MOL0     H92000   7.003   5.199   1.650  1.1668  1.8855 -0.1371
  697MOL0     H92001   6.988   5.190   1.476 -0.7130 -0.1202  0.3220
  697MOL0     H92002   7.081   5.601   1.563  0.5419 -0.1978  1.8092
  697MOL0     H92003   6.340   5.045   1.621 -1.3270 -0.3407  0.7887
  697MOL0     H92004   6.120   5.028   1.590 -2.4703  0.7922  0.3352
  698MOL0     O92005   1.223   0.029   3.061 -0.2432 -0.0039 -0.3286
  698MOL0     C92006   1.183   0.110   3.146 -0.3793 -0.3461  0.4342
  698MOL0     O92007   1.058   0.102   3.207 -0.9200 -0.0908  0.4337
  698MOL0     C92008   0.980  -0.011   3.190  0.1794  0.0620  0.1388
  698MOL0     C92009   1.036  -0.129   3.238 -0.1088  0.6714  0.5424
  698MOL0     C92010   0.960  -0.243   3.240 -0.4910  0.7324  0.9270
  698MOL0     C92011   0.833  -0.255   3.181  0.6493  0.1624  0.0182
  698MOL0     O92012   0.783  -0.382   3.163  0.0209 -0.0931 -0.0933
  698MOL0     C92013   0.641  -0.396   3.186  0.1250  0.0741 -0.0094
  698MOL0     C92014   0.615  -0.533   3.256 -0.2945 -0.1007  0.0562
  698MOL0     C92015   0.470  -0.539   3.314 -0.7462 -0.3427  1.1195
  698MOL0     C92016   0.447  -0.680   3.361 -1.1930 -0.5021  0.8359
  698MOL0     C92017   0.300  -0.715   3.367  0.3920 -0.3082 -0.0079
  698MOL0     C92018   0.276  -0.858   3.401 -0.4065  1.1567  0.1921
  698MOL0     C92019   0.131  -0.887   3.442 -0.3013 -0.2659  0.1931
  698MOL0     C92020   0.111  -1.038   3.444  0.2576 -0.5106 -0.3215
  698MOL0     N92021  -0.034  -1.070   3.416  0.6812 -0.7399  0.1274
  698MOL0     C92022  -0.127  -1.083   3.521  0.6414  0.9814  0.0157
  698MOL0     C92023  -0.245  -1.087   3.456  0.6475 -0.0394  0.1999
  698MOL0     C92024  -0.383  -1.098   3.521 -0.3243 -0.3227  0.2063
  698MOL0     C92025  -0.489  -1.038   3.434  0.2723 -0.3309 -0.1287
  698MOL0     C92026  -0.618  -1.049   3.513 -0.4486  0.5491  0.0133
  698MOL0     C92027  -0.733  -1.075   3.412 -0.8443 -0.0525 -0.6087
  698MOL0     O92028  -0.853  -1.061   3.488 -0.4268 -0.0964  0.3619
  698MOL0     C92029  -0.969  -1.074   3.421 -0.3211  0.0499 -0.2908
  698MOL0     C92030  -1.086  -1.081   3.494  0.4590  0.2474  0.6394
  698MOL0     C92031  -1.218  -1.098   3.433 -0.9438 -0.0646 -0.0654
  698MOL0     C92032  -1.232  -1.109   3.295 -0.1720  0.7483 -0.1679
  698MOL0     C92033  -1.363  -1.115   3.223  1.1394  0.6342 -0.0825
  698MOL0     O92034  -1.368  -1.150   3.081 -0.0205  0.4171  0.0022
  698MOL0     C92035  -1.501  -1.144   3.037  0.1844 -0.4059  0.2794
  698MOL0     C92036  -1.562  -1.260   2.988  1.1122  0.4821 -0.4847
  698MOL0     C92037  -1.694  -1.253   2.939 -0.3240 -0.6395 -0.1607
  698MOL0     C92038  -1.763  -1.132   2.937  0.0422  0.1746  0.0691
  698MOL0     O92039  -1.892  -1.134   2.899  0.2510  0.3310 -0.0574
  698MOL0     C92040  -1.951  -1.020   2.830  0.4037 -0.3363 -0.1316
  698MOL0     C92041  -2.081  -1.071   2.772  0.2701 -0.0734 -0.3507
  698MOL0     C92042  -2.173  -0.965   2.701 -1.2446 -0.9199  0.0871
  698MOL0     C92043  -2.319  -1.008   2.670 -0.1301  0.4010 -0.5484
  698MOL0     C92044  -2.391  -0.886   2.620  1.6258  0.2389  0.2466
  698MOL0     C92045  -2.539  -0.924   2.591 -0.0561 -0.0750 -0.0728
  698MOL0     C92046  -2.629  -0.797   2.557 -0.5901  0.0878 -0.7921
  698MOL0     C92047  -2.765  -0.846   2.510  0.4264  0.3862 -0.5958
  698MOL0    Cl92048  -2.885  -0.717   2.491 -0.3583  0.2675  0.4429
  698MOL0     C92049  -1.694  -1.017   2.975 -0.1380 -0.1946 -0.0477
  698MOL0     C92050  -1.566  -1.024   3.027 -0.2390  0.0452  0.0553
  698MOL0     O92051  -1.462  -1.102   3.290  0.1329 -0.3044 -0.0252
  698MOL0     C92052  -1.119  -1.104   3.219 -0.2910 -0.2888 -0.4610
  698MOL0     C92053  -0.992  -1.091   3.281  0.6090 -0.8414  0.5041
  698MOL0     N92054  -0.221  -1.087   3.326 -0.1022  0.5725 -0.2173
  698MOL0     N92055  -0.097  -1.077   3.296 -0.0988  0.9936 -0.4196
  698MOL0     C92056   0.775  -0.136   3.118 -0.1764  0.4911  0.1632
  698MOL0     C92057   0.853  -0.015   3.131 -0.6071  0.4148  0.0017
  698MOL0     C92058   1.266   0.214   3.195 -1.4745  0.0074 -0.6855
  698MOL0     C92059   1.394   0.238   3.135 -0.1363  0.3599  0.0603
  698MOL0     C92060   1.473   0.335   3.184  0.0458 -0.8554  0.2958
  698MOL0     C92061   1.427   0.430   3.282 -0.2492 -0.2905 -0.2806
  698MOL0     O92062   1.492   0.539   3.330 -0.0765  0.1136 -0.5633
  698MOL0     C92063   1.622   0.587   3.279  0.3828  0.1831  0.4724
  698MOL0     C92064   1.606   0.670   3.145  0.4967  0.0004  0.4058
  698MOL0     C92065   1.741   0.716   3.084 -0.2541 -1.6832  0.0968
  698MOL0     C92066   1.762   0.861   3.118 -0.2690 -0.3264 -0.9442
  698MOL0     C92067   1.898   0.900   3.080  0.0231 -0.1550 -0.1550
  698MOL0     C92068   2.007   0.913   3.040  0.1032  0.7662  0.4073
  698MOL0     C92069   1.304   0.410   3.337 -0.7408 -1.1748 -0.8916
  698MOL0     C92070   1.222   0.311   3.297 -1.1038  0.6136  0.1658
  698MOL0     H92071   1.130  -0.118   3.291  0.5154  0.0441 -0.3932
  698MOL0     H92072   1.001  -0.334   3.283 -3.0556 -1.4905 -0.9849
  698MOL0     H92073   0.585  -0.393   3.093 -0.3622 -0.9534  0.2292
  698MOL0     H92074   0.604  -0.307   3.237 -0.3812  1.2559 -2.3166
  698MOL0     H92075   0.689  -0.540   3.336 -0.4038 -1.0465  0.0924
  698MOL0     H92076   0.639  -0.605   3.177  3.3791 -0.8241  1.6254
  698MOL0     H92077   0.409  -0.512   3.227  0.5608 -0.9179 -0.0174
  698MOL0     H92078   0.453  -0.464   3.392 -2.6583  1.3260 -0.7536
  698MOL0     H92079   0.500  -0.745   3.291  1.2984  2.6713 -0.5084
  698MOL0     H92080   0.497  -0.689   3.457  1.2540 -0.8822 -0.3990
  698MOL0     H92081   0.243  -0.676   3.281  0.2201  0.7630  0.5803
  698MOL0     H92082   0.260  -0.664   3.455 -1.6466 -0.2530 -0.8976
  698MOL0     H92083   0.347  -0.884   3.480 -0.4889 -0.5859 -0.2694
  698MOL0     H92084   0.301  -0.926   3.319  3.7354  0.3767  1.8389
  698MOL0     H92085   0.111  -0.839   3.538  0.1236  0.2305  0.0390
  698MOL0     H92086   0.065  -0.835   3.372  0.8499  2.5400  1.0701
  698MOL0     H92087   0.133  -1.075   3.545 -2.1515 -0.8825  0.1293
  698MOL0     H92088   0.181  -1.089   3.378  1.4659  1.2620 -0.4816
  698MOL0     H92089  -0.098  -1.095   3.625  2.2912  1.3039 -0.3829
  698MOL0     H92090  -0.381  -1.039   3.613 -0.7472 -0.8223  0.5447
  698MOL0     H92091  -0.415  -1.200   3.543 -0.0815  0.1264  3.0230
  698MOL0     H92092  -0.503  -1.088   3.338  0.0732 -1.1702  0.3304
  698MOL0     H92093  -0.472  -0.932   3.410 -1.4304 -0.6568 -3.2622
  698MOL0     H92094  -0.623  -1.126   3.591 -4.2826  2.3024  1.7545
  698MOL0     H92095  -0.629  -0.954   3.565  0.0538  0.3532  0.4902
  698MOL0     H92096  -0.732  -1.171   3.360  0.4000  0.7650 -2.1692
  698MOL0     H92097  -0.741  -0.991   3.343 -0.6627  0.8902  0.4851
  698MOL0     H92098  -1.079  -1.072   3.602 -3.0368 -1.5323  1.1301
  698MOL0     H92099  -1.302  -1.089   3.501  0.8184  0.2775  2.1764
  698MOL0     H92100  -1.501  -1.349   2.989  1.6782  0.8506  1.1323
  698MOL0     H92101  -1.737  -1.342   2.894 -0.2149 -0.7505 -0.0448
  698MOL0     H92102  -1.891  -0.972   2.752  2.4949 -0.5125  1.2970
  698MOL0     H92103  -1.980  -0.947   2.906 -1.0813 -0.3418 -0.6426
  698MOL0     H92104  -2.152  -1.114   2.843 -1.3915  0.5084 -1.5929
  698MOL0     H92105  -2.061  -1.152   2.702 -0.1724  1.3747 -2.2403
  698MOL0     H92106  -2.125  -0.941   2.606 -2.1126 -1.0648 -0.3993
  698MOL0     H92107  -2.160  -0.869   2.751 -1.3381  0.1950 -1.9453
  698MOL0     H92108  -2.325  -1.087   2.594  0.8027 -0.3892  0.1909
  698MOL0     H92109  -2.366  -1.046   2.760  0.5740  2.8749  0.9488
  698MOL0     H92110  -2.354  -0.837   2.530  0.0296  1.9894  0.4800
  698MOL0     H92111  -2.391  -0.810   2.699 -5.0024  0.5991  0.4465
  698MOL0     H92112  -2.586  -1.003   2.650 -1.9241 -1.2981 -2.9987
  698MOL0     H92113  -2.524  -0.973   2.495  2.2422  0.2915  0.0476
  698MOL0     H92114  -2.637  -0.736   2.648  2.1519  1.0888 -1.1257
  698MOL0     H92115  -2.579  -0.736   2.481  3.7745  0.1889  1.8070
  698MOL0     H92116  -2.807  -0.916   2.584  0.0991  0.9596 -0.2342
  698MOL0     H92117  -2.751  -0.891   2.411 -0.9068 -2.7151  0.4886
  698MOL0     H92118  -1.747  -0.922   2.977 -0.2071 -0.2281 -0.2404
  698MOL0     H92119  -1.502  -0.942   3.059  1.5350 -0.3379 -2.2080
  698MOL0     H92120  -1.123  -1.113   3.110  0.5574  0.5143 -0.5696
  698MOL0     H92121  -0.907  -1.098   3.213 -0.2887  0.7296 -0.8495
  698MOL0     H92122   0.678  -0.149   3.070  0.6985 -1.7790 -1.0919
  698MOL0     H92123   0.807   0.072   3.084  2.2471  0.6432 -2.6653
  698MOL0     H92124   1.433   0.169   3.061 -3.2281 -2.4017  0.7797
  698MOL0     H92125   1.577   0.341   3.150 -0.3296 -0.6971 -0.8718
  698MOL0     H92126   1.681   0.495   3.271  1.2908  0.7417  0.6565
  698MOL0     H92127   1.678   0.653   3.345  1.0928  0.9170 -0.8311
  698MOL0     H92128   1.572   0.587   3.082  0.3620  0.5188 -0.2144
  698MOL0     H92129   1.529   0.748   3.144  1.7683  1.3003  0.3350
  698MOL0     H92130   1.739   0.707   2.975  1.4537  2.6656 -0.5175
  698MOL0     H92131   1.818   0.649   3.124 -0.4444 -1.3102  1.1211
  698MOL0     H92132   1.698   0.933   3.066  2.2864  1.1845 -2.1898
  698MOL0     H92133   1.758   0.872   3.227 -0.3944 -2.4939 -0.6904
  698MOL0     H92134   2.111   0.920   3.016 -0.5434 -0.0229 -3.0883
  698MOL0     H92135   1.279   0.468   3.425  1.5768 -0.2872 -0.7229
  698MOL0     H92136   1.126   0.316   3.347  0.6268  1.2446  3.7935
  699MOL0     O92137   7.326  10.896  10.330 -0.4383  0.4352 -0.3630
  699MOL0     C92138   7.310  11.002  10.397  0.6847  0.2196  0.0849
  699MOL0     O92139   7.190  11.055  10.434  0.2387 -0.2975 -0.3735
  699MOL0     C92140   7.075  10.988  10.416  0.0186  0.0828 -0.3919
  699MOL0     C92141   7.048  10.893  10.313 -0.1632  0.2896  0.4653
  699MOL0     C92142   6.919  10.840  10.305 -0.6751  0.4852  0.1225
  699MOL0     C92143   6.817  10.879  10.388 -0.3751 -0.2345  0.5216
  699MOL0     O92144   6.680  10.838  10.375 -0.4642 -0.2759  0.0740
  699MOL0     C92145   6.641  10.780  10.249  0.1576  0.2946  0.1858
  699MOL0     C92146   6.494  10.791  10.241 -0.5297  0.8136  0.4230
  699MOL0     C92147   6.438  10.686  10.338 -0.0392 -0.4813  0.4164
  699MOL0     C92148   6.286  10.701  10.336  0.4387 -0.1142 -0.2169
  699MOL0     C92149   6.219  10.560  10.382  1.1571 -0.5927  0.4047
  699MOL0     C92150   6.244  10.521  10.525 -0.6693 -0.6277 -0.4944
  699MOL0     C92151   6.150  10.413  10.580  0.2089 -0.2274  0.4326
  699MOL0     C92152   6.014  10.480  10.626  0.2028  0.4177  0.9161
  699MOL0     N92153   5.932  10.363  10.671  0.5927  0.5604  0.5772
  699MOL0     C92154   5.871  10.265  10.596  0.0871 -0.1322  0.2757
  699MOL0     C92155   5.810  10.176  10.684  0.3522 -0.7014  0.1895
  699MOL0     C92156   5.733  10.048  10.654 -0.7855 -0.5490  0.3393
  699MOL0     C92157   5.594  10.055  10.725  1.0551  0.6699 -0.9991
  699MOL0     C92158   5.533   9.911  10.735  0.2852 -0.2770  0.4142
  699MOL0     C92159   5.382   9.889  10.752  0.0465  0.1158  0.9513
  699MOL0     O92160   5.304   9.960  10.649  0.0605  0.3984 -0.0054
  699MOL0     C92161   5.171   9.932  10.644 -0.2930  0.5327 -0.2112
  699MOL0     C92162   5.104   9.958  10.523  0.3543  1.4593 -0.0241
  699MOL0     C92163   4.965   9.928  10.500 -0.4947  0.0073 -0.3313
  699MOL0     C92164   4.893   9.866  10.602  0.3843  0.7553  0.4343
  699MOL0     C92165   4.750   9.853  10.585  0.9024  0.6617  0.3621
  699MOL0     O92166   4.681   9.796  10.690  0.2032  0.5484  0.0843
  699MOL0     C92167   4.547   9.776  10.676  0.6459  0.3112  0.1343
  699MOL0     C92168   4.471   9.870  10.735  0.8982  0.1683 -1.3058
  699MOL0     C92169   4.333   9.858  10.753  0.1845  0.2101  0.4290
  699MOL0     C92170   4.268   9.739  10.712 -0.5497  0.3553  0.0306
  699MOL0     O92171   4.140   9.726  10.737  0.6812  0.1754 -0.2055
  699MOL0     C92172   4.074   9.600  10.711  0.3880 -0.9172 -0.7032
  699MOL0     C92173   3.932   9.594  10.752 -0.6558  0.6477  0.2403
  699MOL0     C92174   3.849   9.638  10.635  0.5642  0.5919 -0.9097
  699MOL0     C92175   3.806   9.516  10.551 -0.3807  0.2018  0.2374
  699MOL0     C92176   3.747   9.544  10.416 -0.8618  0.8618 -0.4499
  699MOL0     C92177   3.741   9.416  10.337  0.2404 -0.0655  0.9456
  699MOL0     C92178   3.753   9.444  10.186 -0.6475 -0.1067  0.7246
  699MOL0     C92179   3.768   9.321  10.103  0.2010  1.1965  0.8415
  699MOL0    Cl92180   3.609   9.229  10.095  0.1956  0.0067  0.1064
  699MOL0     C92181   4.351   9.643  10.635  0.4355 -0.5125  0.1640
  699MOL0     C92182   4.488   9.667  10.616  0.7231  0.2469  0.3423
  699MOL0     O92183   4.701   9.910  10.489  0.7346  0.2506 -0.4705
  699MOL0     C92184   4.963   9.852  10.725 -0.8272 -0.3440 -0.3047
  699MOL0     C92185   5.092   9.876  10.748  0.7256 -0.3183  0.2702
  699MOL0     N92186   5.831  10.226  10.808 -0.0484 -0.3660 -0.4550
  699MOL0     N92187   5.900  10.333  10.803  1.0340  0.1805 -0.4572
  699MOL0     C92188   6.844  10.980  10.478 -0.8823 -0.6012 -0.0466
  699MOL0     C92189   6.978  11.031  10.506  0.3437  0.7092  0.2013
  699MOL0     C92190   7.423  11.074  10.446 -1.4285 -0.0275 -0.0122
  699MOL0     C92191   7.556  11.030  10.426  0.2374  0.4992 -0.0831
  699MOL0     C92192   7.667  11.102  10.471  0.2456  0.1632 -0.0395
  699MOL0     C92193   7.648  11.227  10.532 -0.1596 -0.4906 -1.4580
  699MOL0     O92194   7.746  11.323  10.569  0.6735  0.7401  0.0514
  699MOL0     C92195   7.853  11.281  10.647  0.5379  0.4773  0.4027
  699MOL0     C92196   7.979  11.309  10.572 -0.3040 -0.8194  0.3227
  699MOL0     C92197   8.083  11.205  10.596  0.0546  0.3622 -0.4281
  699MOL0     C92198   8.145  11.210  10.734  0.1645 -0.7256  0.0030
  699MOL0     C92199   8.194  11.072  10.753 -1.3440 -0.4115  0.1024
  699MOL0     C92200   8.233  10.965  10.785  0.1491 -0.2460  0.3723
  699MOL0     C92201   7.517  11.271  10.563  0.5865  0.7308 -0.2042
  699MOL0     C92202   7.405  11.192  10.532 -1.3803 -0.0530  0.1727
  699MOL0     H92203   7.117  10.865  10.234  0.3601  0.9998  0.6579
  699MOL0     H92204   6.897  10.760  10.236 -0.3764  1.1162 -0.7253
  699MOL0     H92205   6.672  10.675  10.242  3.1417  0.9170  2.2705
  699MOL0     H92206   6.683  10.827  10.160  1.4343 -3.0687 -1.1583
  699MOL0     H92207   6.461  10.758  10.142 -1.2390  1.2182  0.5181
  699MOL0     H92208   6.454  10.889  10.270  0.9862  1.2568  1.0650
  699MOL0     H92209   6.489  10.685  10.435 -1.6192 -2.0904  1.3095
  699MOL0     H92210   6.455  10.589  10.290  1.0597  0.0320 -0.2612
  699MOL0     H92211   6.252  10.779  10.405 -0.0262 -0.0468 -0.5102
  699MOL0     H92212   6.248  10.722  10.235 -0.3977 -1.0486 -0.1182
  699MOL0     H92213   6.258  10.480  10.319  1.5074  0.0560 -0.2070
  699MOL0     H92214   6.109  10.559  10.377  1.0394 -0.6215  2.2348
  699MOL0     H92215   6.221  10.609  10.586  0.2578 -1.2338  0.7852
  699MOL0     H92216   6.349  10.496  10.539 -0.9318 -0.8399  1.2966
  699MOL0     H92217   6.134  10.344  10.496  0.4359  1.0731 -0.7260
  699MOL0     H92218   6.205  10.359  10.657 -1.5783 -2.9529 -0.0662
  699MOL0     H92219   5.953  10.521  10.544 -1.3633  0.5991  2.1269
  699MOL0     H92220   6.032  10.565  10.692 -1.2954  0.3904  1.3828
  699MOL0     H92221   5.871  10.245  10.489 -1.5479  0.2793  0.1781
  699MOL0     H92222   5.790   9.962  10.689  1.1848  0.7425  0.4595
  699MOL0     H92223   5.716  10.041  10.546  0.6591  0.1815  0.0353
  699MOL0     H92224   5.518  10.117  10.677 -1.7501 -0.9352  1.0907
  699MOL0     H92225   5.607  10.102  10.823  0.2502 -0.8350 -0.1377
  699MOL0     H92226   5.560   9.858  10.643 -2.0617 -2.4703  0.8810
  699MOL0     H92227   5.586   9.865  10.819  1.2994  0.1679  0.0271
  699MOL0     H92228   5.355   9.933  10.848  1.6405  1.0661  1.0081
  699MOL0     H92229   5.360   9.782  10.750  2.1353 -0.5319  4.3085
  699MOL0     H92230   5.151  10.003  10.437  1.2578 -0.7520 -0.7235
  699MOL0     H92231   4.919   9.936  10.402  0.9921 -1.8295 -1.2487
  699MOL0     H92232   4.521   9.951  10.785 -0.4526 -0.4148  1.1352
  699MOL0     H92233   4.278   9.930  10.813  1.7033  0.8791  1.0689
  699MOL0     H92234   4.136   9.528  10.766 -1.1533 -1.5344  0.2941
  699MOL0     H92235   4.080   9.585  10.603  0.9212  0.3251 -0.8573
  699MOL0     H92236   3.919   9.663  10.836  2.2217 -2.1390  3.2908
  699MOL0     H92237   3.907   9.495  10.791  3.5337 -0.1295  1.4301
  699MOL0     H92238   3.900   9.715  10.578  0.7158  2.8489  2.0294
  699MOL0     H92239   3.762   9.693  10.673  1.7519  1.8579  0.0620
  699MOL0     H92240   3.895   9.455  10.539 -0.1631  0.6658 -0.6051
  699MOL0     H92241   3.734   9.457  10.608  0.1177 -1.0869 -0.4254
  699MOL0     H92242   3.807   9.615  10.357  1.9600 -0.6762  0.3807
  699MOL0     H92243   3.650   9.594  10.430 -0.7549  0.7555  0.8250
  699MOL0     H92244   3.642   9.374  10.355 -1.3932  1.9521 -2.3566
  699MOL0     H92245   3.813   9.340  10.368 -0.8545 -2.1008 -1.0785
  699MOL0     H92246   3.661   9.492  10.154  0.4308  0.4790 -1.7489
  699MOL0     H92247   3.834   9.510  10.153 -1.2644 -0.7507 -2.3811
  699MOL0     H92248   3.840   9.254  10.151  0.8299  2.5398  1.8390
  699MOL0     H92249   3.804   9.339  10.001  1.3426  1.4266  1.2690
  699MOL0     H92250   4.313   9.549  10.597  1.5353  0.2455 -3.1493
  699MOL0     H92251   4.555   9.591  10.578  3.3014  2.5170  0.0164
  699MOL0     H92252   4.898   9.800  10.795 -1.0287 -1.6903 -1.4511
  699MOL0     H92253   5.129   9.856  10.848 -0.4625  1.2953  1.0641
  699MOL0     H92254   6.763  11.019  10.538 -0.4758 -0.9449  0.7398
  699MOL0     H92255   6.988  11.109  10.580 -1.4108  1.2888 -0.1203
  699MOL0     H92256   7.589  10.947  10.364  3.2794 -0.7768  2.9219
  699MOL0     H92257   7.766  11.061  10.452 -0.0855 -1.1009  0.7945
  699MOL0     H92258   7.852  11.173  10.662 -1.2077  0.8304  4.0751
  699MOL0     H92259   7.849  11.325  10.748 -2.0503  1.0230  0.1468
  699MOL0     H92260   7.952  11.319  10.467 -0.1070  2.2346  0.4689
  699MOL0     H92261   8.012  11.408  10.606  0.8032 -0.4754 -1.6395
  699MOL0     H92262   8.163  11.223  10.524  1.2271 -0.7887  0.5170
  699MOL0     H92263   8.033  11.109  10.578 -0.4961  0.7614 -1.0388
  699MOL0     H92264   8.235  11.272  10.732  2.1501 -3.3176  1.4400
  699MOL0     H92265   8.076  11.244  10.812  2.0119  1.0432  0.9623
  699MOL0     H92266   8.262  10.864  10.810 -1.6559 -0.7317  0.6868
  699MOL0     H92267   7.501  11.361  10.623  0.2693 -0.0547  0.9225
  699MOL0     H92268   7.306  11.227  10.561 -2.2549 -2.2901  0.1437
  700MOL0     O92269   2.389   4.053   3.317  0.0821 -0.1442 -0.1799
  700MOL0     C92270   2.411   4.130   3.413 -0.0561 -0.0839 -0.1575
  700MOL0     O92271   2.344   4.127   3.532  0.0933  0.1313  0.0787
  700MOL0     C92272   2.260   4.017   3.555  0.7516  0.2179 -0.7089
  700MOL0     C92273   2.275   3.936   3.667 -0.1288  0.1621 -0.0155
  700MOL0     C92274   2.178   3.842   3.695  0.8437 -0.5949  0.5834
  700MOL0     C92275   2.063   3.829   3.620  0.0995  0.1192  0.1161
  700MOL0     O92276   1.977   3.729   3.668 -0.5175 -0.1958 -0.5788
  700MOL0     C92277   1.842   3.712   3.628 -0.9295  0.6974  0.4016
  700MOL0     C92278   1.767   3.632   3.739  0.6038  0.6836  0.6132
  700MOL0     C92279   1.625   3.605   3.696  0.3075 -0.8958 -0.1216
  700MOL0     C92280   1.537   3.554   3.810  0.2193  0.1831  1.1252
  700MOL0     C92281   1.391   3.579   3.764 -0.2205 -0.4760  0.2932
  700MOL0     C92282   1.307   3.478   3.843 -0.1994  0.0356  0.1635
  700MOL0     C92283   1.164   3.481   3.795  0.0999  0.0419  0.2666
  700MOL0     C92284   1.070   3.381   3.878 -1.1047 -0.1935 -0.4255
  700MOL0     N92285   0.931   3.395   3.841  0.6156 -0.2212  0.2906
  700MOL0     C92286   0.857   3.509   3.847 -0.0419 -0.8617  0.2620
  700MOL0     C92287   0.733   3.484   3.799 -0.2952 -0.2374  0.3939
  700MOL0     C92288   0.635   3.588   3.763  0.4882 -0.2832  0.9625
  700MOL0     C92289   0.497   3.543   3.737 -0.6081  0.4365  0.4033
  700MOL0     C92290   0.407   3.658   3.667 -0.3331 -0.7807  0.3406
  700MOL0     C92291   0.264   3.603   3.664  0.6187 -0.0490  0.3692
  700MOL0     O92292   0.172   3.695   3.622 -0.2571 -0.6376 -0.5730
  700MOL0     C92293   0.033   3.682   3.640 -0.6526  0.5802 -0.6610
  700MOL0     C92294  -0.035   3.557   3.669 -0.5199 -0.3392 -0.3224
  700MOL0     C92295  -0.180   3.548   3.674 -0.3799  0.9451 -0.2283
  700MOL0     C92296  -0.255   3.664   3.660 -0.3511 -0.8241  0.1298
  700MOL0     C92297  -0.404   3.665   3.676 -1.1800  0.6497 -0.3779
  700MOL0     O92298  -0.465   3.548   3.713  0.2221 -0.1635 -0.2769
  700MOL0     C92299  -0.600   3.547   3.738  0.6738 -0.5081  0.5236
  700MOL0     C92300  -0.660   3.656   3.801  0.1356  0.3747  0.8745
  700MOL0     C92301  -0.799   3.651   3.834 -0.0685  0.3247 -0.1211
  700MOL0     C92302  -0.871   3.537   3.806  0.8395 -0.6198 -0.7706
  700MOL0     O92303  -1.007   3.536   3.835 -0.5005  0.0216  0.3334
  700MOL0     C92304  -1.071   3.406   3.842  0.2799 -0.4133  0.4821
  700MOL0     C92305  -1.218   3.414   3.894  0.3268 -0.2702 -0.1910
  700MOL0     C92306  -1.303   3.516   3.820  0.1209 -1.0694  0.5949
  700MOL0     C92307  -1.453   3.491   3.823 -0.3124  0.8358 -1.0484
  700MOL0     C92308  -1.511   3.526   3.965  0.0390 -0.6785  0.2809
  700MOL0     C92309  -1.664   3.500   3.970 -0.1893  0.4145  0.2756
  700MOL0     C92310  -1.701   3.508   4.117  0.7110  0.4408  0.2295
  700MOL0     C92311  -1.666   3.389   4.201 -0.3499  0.4395  0.5532
  700MOL0    Cl92312  -1.757   3.250   4.139  0.2578 -0.1819  0.3850
  700MOL0     C92313  -0.809   3.425   3.732  0.0555 -0.1277  0.2634
  700MOL0     C92314  -0.671   3.438   3.698  0.4670  0.9811  0.2596
  700MOL0     O92315  -0.457   3.766   3.632 -0.2187  0.3378 -0.1732
  700MOL0     C92316  -0.188   3.780   3.626 -0.3395  0.2469  0.2230
  700MOL0     C92317  -0.050   3.790   3.615 -0.5975 -0.3370 -0.0936
  700MOL0     N92318   0.738   3.353   3.766  0.7068 -0.0645 -0.3769
  700MOL0     N92319   0.850   3.298   3.798 -0.7648 -0.3296  0.1472
  700MOL0     C92320   2.049   3.901   3.501 -0.2052  0.5092 -1.0491
  700MOL0     C92321   2.148   4.003   3.473 -0.4117  0.9190  0.2479
  700MOL0     C92322   2.500   4.248   3.394 -0.1486  1.0535 -0.2508
  700MOL0     C92323   2.544   4.328   3.499 -0.2758 -0.0395  0.3294
  700MOL0     C92324   2.646   4.422   3.468 -0.5255  0.5943 -0.4719
  700MOL0     C92325   2.709   4.436   3.348  0.6223  0.5037  1.1929
  700MOL0     O92326   2.813   4.527   3.342  0.5468  0.3123  0.1273
  700MOL0     C92327   2.837   4.612   3.227 -0.9792  0.1343  0.2954
  700MOL0     C92328   2.981   4.636   3.216  0.0841 -0.2014 -0.1297
  700MOL0     C92329   3.024   4.672   3.079  0.5408  0.5028  0.3424
  700MOL0     C92330   3.056   4.823   3.058 -1.3032 -0.2074 -0.0552
  700MOL0     C92331   2.937   4.899   3.077  0.8784 -0.6207 -0.3303
  700MOL0     C92332   2.837   4.964   3.099  0.4052 -0.4127  0.1837
  700MOL0     C92333   2.665   4.355   3.244 -0.6237  0.2834 -0.1483
  700MOL0     C92334   2.557   4.266   3.265  0.0953  0.3298 -0.2917
  700MOL0     H92335   2.350   3.945   3.745  1.6425  0.1045 -1.6413
  700MOL0     H92336   2.172   3.792   3.791  1.2365 -0.9848  0.4060
  700MOL0     H92337   1.852   3.656   3.534 -0.0738  2.0199 -0.3352
  700MOL0     H92338   1.787   3.806   3.618 -0.4745  0.8828 -0.4868
  700MOL0     H92339   1.761   3.695   3.828 -2.5216  1.0501  0.2422
  700MOL0     H92340   1.820   3.539   3.763  0.8121  0.9107  1.0442
  700MOL0     H92341   1.640   3.541   3.608  2.0403 -0.5064 -0.1408
  700MOL0     H92342   1.576   3.696   3.659 -3.7564 -3.2031 -1.0677
  700MOL0     H92343   1.562   3.450   3.834 -2.6859 -0.8060  0.2084
  700MOL0     H92344   1.557   3.615   3.899 -0.3462 -0.6786  1.8590
  700MOL0     H92345   1.388   3.545   3.661  1.6295 -0.1831  0.1045
  700MOL0     H92346   1.356   3.682   3.770  2.2952  0.5258 -0.8778
  700MOL0     H92347   1.321   3.510   3.947  2.0468 -0.8391  0.1835
  700MOL0     H92348   1.349   3.379   3.823 -1.2053 -0.2296 -0.6775
  700MOL0     H92349   1.121   3.581   3.799 -0.3409 -0.1452  0.2831
  700MOL0     H92350   1.160   3.451   3.690  1.8298 -1.2185  0.5152
  700MOL0     H92351   1.085   3.396   3.986  0.2325 -4.1752  0.1156
  700MOL0     H92352   1.110   3.282   3.855 -1.5346 -0.3450 -0.5250
  700MOL0     H92353   0.896   3.604   3.883 -0.3297 -1.3336  1.8782
  700MOL0     H92354   0.668   3.649   3.678 -1.7879  2.3635  1.7922
  700MOL0     H92355   0.622   3.664   3.841 -2.1759 -1.3258  1.6621
  700MOL0     H92356   0.446   3.532   3.833 -0.9635  2.5122  0.5016
  700MOL0     H92357   0.490   3.451   3.679  0.5968  1.1991 -1.0206
  700MOL0     H92358   0.409   3.749   3.727 -0.7671  0.5995 -1.6636
  700MOL0     H92359   0.442   3.688   3.568 -0.1895  2.4576  1.2582
  700MOL0     H92360   0.236   3.565   3.763 -1.1139 -1.9390 -0.7640
  700MOL0     H92361   0.261   3.517   3.596  1.8470  0.9971 -1.0556
  700MOL0     H92362   0.025   3.471   3.698  6.0164  3.5526 -0.2479
  700MOL0     H92363  -0.226   3.451   3.694  0.7221  0.2110 -1.1083
  700MOL0     H92364  -0.611   3.752   3.812  0.1558  0.8483 -2.3757
  700MOL0     H92365  -0.842   3.739   3.882  2.4683  1.5079  0.1710
  700MOL0     H92366  -1.016   3.339   3.910 -0.1545 -1.3933 -0.1104
  700MOL0     H92367  -1.068   3.359   3.743 -0.2133  2.2255 -0.8622
  700MOL0     H92368  -1.224   3.450   3.997  0.5200 -0.6940 -0.0279
  700MOL0     H92369  -1.264   3.315   3.887 -1.6903  0.5508  0.8784
  700MOL0     H92370  -1.276   3.515   3.714  0.4895 -2.6506  0.6905
  700MOL0     H92371  -1.289   3.618   3.857 -2.7428 -0.6107  0.6459
  700MOL0     H92372  -1.505   3.544   3.742 -0.2219  0.4220 -1.3776
  700MOL0     H92373  -1.453   3.384   3.804  4.9748 -0.0177  1.8384
  700MOL0     H92374  -1.484   3.628   3.996 -1.1444 -0.0134 -0.7720
  700MOL0     H92375  -1.461   3.458   4.034  0.3673  0.2532  0.9946
  700MOL0     H92376  -1.684   3.395   3.947  2.5334 -0.1774  0.3183
  700MOL0     H92377  -1.718   3.578   3.914  1.3824  0.8310 -0.7099
  700MOL0     H92378  -1.652   3.596   4.160 -0.8516  1.8666 -0.7785
  700MOL0     H92379  -1.806   3.533   4.140  1.1046  2.0485  0.4556
  700MOL0     H92380  -1.703   3.416   4.300  1.8113  3.3373  0.7076
  700MOL0     H92381  -1.560   3.370   4.218  0.6404  3.6100 -1.1939
  700MOL0     H92382  -0.870   3.338   3.712 -2.2906  1.4447  0.2329
  700MOL0     H92383  -0.616   3.363   3.643 -0.7631  2.8125 -3.9175
  700MOL0     H92384  -0.241   3.875   3.617 -1.5375 -0.1507  2.3294
  700MOL0     H92385  -0.001   3.881   3.582 -3.4632  1.8748  1.2733
  700MOL0     H92386   1.962   3.888   3.438 -0.6827 -1.2819 -0.0898
  700MOL0     H92387   2.136   4.072   3.390  1.9474  3.4998  1.8812
  700MOL0     H92388   2.521   4.308   3.603  0.2606 -1.7544  0.1410
  700MOL0     H92389   2.681   4.474   3.557  0.6970 -1.1547  0.1360
  700MOL0     H92390   2.789   4.705   3.257 -0.1052 -0.3992  3.8132
  700MOL0     H92391   2.804   4.567   3.132  2.6055 -2.8547  0.2449
  700MOL0     H92392   3.015   4.708   3.290 -0.7261  0.2447 -0.1799
  700MOL0     H92393   3.042   4.548   3.239  1.9817  1.0170 -0.3257
  700MOL0     H92394   2.959   4.638   2.997 -0.2019  0.3910  0.9663
  700MOL0     H92395   3.118   4.619   3.062 -0.4631 -1.4562  0.5060
  700MOL0     H92396   3.132   4.848   3.133 -0.4015  2.9546 -1.8791
  700MOL0     H92397   3.109   4.851   2.967 -2.3807 -1.1703 -1.0129
  700MOL0     H92398   2.745   5.015   3.122  1.1992  0.5472  1.3539
  700MOL0     H92399   2.732   4.347   3.159  2.8090 -0.4784  2.4101
  700MOL0     H92400   2.541   4.210   3.174  2.5495  1.9952 -1.8916
  701MOL0     O92401   4.313   0.494   8.012  0.3517 -0.4161  0.1166
  701MOL0     C92402   4.335   0.613   8.011  0.1492 -0.5645  0.3125
  701MOL0     O92403   4.237   0.714   8.002 -0.5320  0.3788 -0.0189
  701MOL0     C92404   4.101   0.683   7.983 -0.0868  0.0608  0.5265
  701MOL0     C92405   4.013   0.797   8.007 -0.3600  0.2830 -0.4964
  701MOL0     C92406   3.875   0.789   7.998 -0.0239 -0.1430 -0.5958
  701MOL0     C92407   3.812   0.673   7.972 -0.5974  0.5745  1.0275
  701MOL0     O92408   3.678   0.685   7.976 -0.0280  0.7603  1.3479
  701MOL0     C92409   3.594   0.578   7.924 -0.2056  0.5862  0.7108
  701MOL0     C92410   3.450   0.616   7.930 -0.3591  0.0320  0.3928
  701MOL0     C92411   3.366   0.525   7.838 -0.8356  0.3453  0.1849
  701MOL0     C92412   3.218   0.538   7.869  0.2184 -1.0037 -0.7073
  701MOL0     C92413   3.127   0.529   7.741 -0.2144 -0.3631 -0.4333
  701MOL0     C92414   3.140   0.413   7.644  0.1739 -0.3537 -0.3285
  701MOL0     C92415   3.116   0.271   7.708 -0.2716 -0.2054  0.5636
  701MOL0     C92416   2.996   0.230   7.787 -0.2020  0.2363 -0.0261
  701MOL0     N92417   2.868   0.237   7.714 -0.3164 -0.1544 -0.7220
  701MOL0     C92418   2.789   0.354   7.716 -0.0343 -0.1842  0.6130
  701MOL0     C92419   2.679   0.309   7.635 -0.5920  0.2972 -0.0909
  701MOL0     C92420   2.562   0.394   7.602  0.1682  0.7480 -0.1586
  701MOL0     C92421   2.601   0.522   7.521 -0.7455  0.5952 -0.4791
  701MOL0     C92422   2.587   0.657   7.605  0.0209  0.3680 -0.2189
  701MOL0     C92423   2.627   0.780   7.526 -0.2753  0.1364  0.2819
  701MOL0     O92424   2.744   0.762   7.454  0.0704 -0.1618 -0.5986
  701MOL0     C92425   2.868   0.787   7.502  0.0787  0.2053 -0.1020
  701MOL0     C92426   2.899   0.827   7.629 -0.0159 -0.5712 -0.8589
  701MOL0     C92427   3.022   0.889   7.662  0.7518  0.6145  0.3236
  701MOL0     C92428   3.131   0.887   7.569  0.2361 -1.3702  0.2619
  701MOL0     C92429   3.263   0.931   7.603 -1.1279  0.5383  0.5200
  701MOL0     O92430   3.358   0.936   7.505  0.1103 -0.0578 -0.8445
  701MOL0     C92431   3.483   0.972   7.549  0.0071  0.6331  1.0330
  701MOL0     C92432   3.557   0.888   7.631 -0.5772  0.7432 -0.1649
  701MOL0     C92433   3.690   0.926   7.670 -1.4593 -0.3088  0.1296
  701MOL0     C92434   3.739   1.053   7.646 -0.9074 -0.6108  0.2455
  701MOL0     O92435   3.867   1.080   7.686 -0.4398  0.1033 -0.6659
  701MOL0     C92436   3.958   1.098   7.577 -0.2428 -0.1234 -0.2519
  701MOL0     C92437   4.102   1.064   7.627  1.4560  0.3499  0.0459
  701MOL0     C92438   4.133   0.924   7.653 -0.4150 -0.4393  0.5851
  701MOL0     C92439   4.282   0.915   7.690  0.6874  0.2759 -0.1429
  701MOL0     C92440   4.378   0.894   7.568  0.3514  0.3030  0.7568
  701MOL0     C92441   4.529   0.871   7.602 -0.1140 -0.4244 -0.0073
  701MOL0     C92442   4.627   0.851   7.484  0.6174  0.2768  0.5592
  701MOL0     C92443   4.770   0.915   7.512  0.7934 -0.1443  0.7155
  701MOL0    Cl92444   4.894   0.889   7.386  0.6793  0.1228  0.0900
  701MOL0     C92445   3.667   1.136   7.566  0.6557 -0.1237  0.4944
  701MOL0     C92446   3.535   1.102   7.518 -0.9760 -0.4096 -0.1731
  701MOL0     O92447   3.285   0.957   7.721  0.4488 -0.2707 -0.1797
  701MOL0     C92448   3.109   0.831   7.443 -0.4453 -0.9278  0.0074
  701MOL0     C92449   2.980   0.778   7.411 -0.0544 -0.0595  0.3262
  701MOL0     N92450   2.699   0.177   7.601  0.2699 -0.6994 -0.0883
  701MOL0     N92451   2.798   0.134   7.658  0.0548  0.7443  0.5616
  701MOL0     C92452   3.891   0.556   7.962 -0.4322  0.1347  0.4066
  701MOL0     C92453   4.036   0.562   7.965 -0.7023 -0.1584  0.3477
  701MOL0     C92454   4.479   0.651   8.015  0.1398 -0.5735  0.0461
  701MOL0     C92455   4.519   0.789   7.996  0.0012 -0.7086 -0.1962
  701MOL0     C92456   4.656   0.821   7.994  0.1008 -0.4841  0.0008
  701MOL0     C92457   4.753   0.722   7.993 -0.2317  0.9102 -0.4305
  701MOL0     O92458   4.889   0.753   7.981  0.0181  0.0212  0.0893
  701MOL0     C92459   4.960   0.877   8.004 -0.4368 -0.6029 -0.1725
  701MOL0     C92460   5.015   0.935   7.877 -0.0491 -0.2558 -0.3207
  701MOL0     C92461   5.110   0.851   7.804 -0.2578 -0.8012 -0.6688
  701MOL0     C92462   5.179   0.926   7.689  0.0716 -0.5197  0.5098
  701MOL0     C92463   5.275   0.835   7.629  1.2679 -0.1305 -0.4227
  701MOL0     C92464   5.370   0.765   7.604  0.0931  0.7428 -0.5018
  701MOL0     C92465   4.719   0.583   8.010 -0.4553 -0.0675 -0.4096
  701MOL0     C92466   4.581   0.549   8.023 -0.1708 -0.6046 -0.0485
  701MOL0     H92467   4.062   0.893   8.020  0.5955 -0.1163 -1.0687
  701MOL0     H92468   3.808   0.873   8.012  0.0413  0.4601 -3.3271
  701MOL0     H92469   3.610   0.491   7.987  2.4221 -1.2898 -2.2053
  701MOL0     H92470   3.622   0.548   7.822  0.3116 -1.7331  1.4755
  701MOL0     H92471   3.434   0.718   7.893  0.8863  0.4327  0.9301
  701MOL0     H92472   3.407   0.604   8.030  0.4425 -1.3701  0.5840
  701MOL0     H92473   3.401   0.423   7.856  3.6325  1.7841  0.9883
  701MOL0     H92474   3.398   0.563   7.740  0.7220 -1.1372  0.0708
  701MOL0     H92475   3.186   0.465   7.944  0.2598 -3.0292 -2.5754
  701MOL0     H92476   3.198   0.637   7.911  0.1330 -0.4169 -2.0759
  701MOL0     H92477   3.141   0.616   7.676 -1.1107  0.2846  0.2233
  701MOL0     H92478   3.026   0.532   7.781 -1.2694  1.5927 -3.0265
  701MOL0     H92479   3.241   0.419   7.601  0.3582  0.1546  0.1636
  701MOL0     H92480   3.073   0.422   7.557  1.2461  1.0222 -1.0488
  701MOL0     H92481   3.113   0.202   7.623 -1.7272 -0.0628  0.4834
  701MOL0     H92482   3.208   0.252   7.765  0.4547  0.5689 -0.3195
  701MOL0     H92483   2.985   0.282   7.882 -0.8804  0.3202 -0.1468
  701MOL0     H92484   3.012   0.124   7.809 -1.2902  0.6665  3.2242
  701MOL0     H92485   2.806   0.456   7.747  3.7002 -0.0222 -1.4332
  701MOL0     H92486   2.507   0.421   7.692 -1.5473 -2.6412 -0.0324
  701MOL0     H92487   2.488   0.338   7.545 -2.5574  0.4348  3.3915
  701MOL0     H92488   2.523   0.526   7.445 -0.0020  4.3511 -1.2534
  701MOL0     H92489   2.701   0.518   7.477  0.4003  1.3980  1.8785
  701MOL0     H92490   2.483   0.675   7.632  0.5025  2.3726  0.4186
  701MOL0     H92491   2.654   0.653   7.691  2.2383 -2.1194 -1.8941
  701MOL0     H92492   2.635   0.869   7.589  1.1001  1.4127 -1.5796
  701MOL0     H92493   2.544   0.797   7.458 -1.3965 -1.8255  1.0784
  701MOL0     H92494   2.828   0.832   7.712  1.7612 -1.8270  0.8519
  701MOL0     H92495   3.034   0.924   7.764 -0.7978  0.7455  0.4880
  701MOL0     H92496   3.527   0.784   7.645 -1.3453  0.8706 -0.7974
  701MOL0     H92497   3.744   0.859   7.736 -1.2802  1.0907  1.4631
  701MOL0     H92498   3.943   1.200   7.540 -0.7815 -0.4256 -0.8876
  701MOL0     H92499   3.931   1.022   7.503 -0.6952 -1.4411  1.2273
  701MOL0     H92500   4.130   1.142   7.698  1.0325  0.9412 -0.4274
  701MOL0     H92501   4.167   1.089   7.543  1.8514  0.5765  0.4117
  701MOL0     H92502   4.125   0.868   7.559 -2.0635  0.7444 -0.0191
  701MOL0     H92503   4.072   0.884   7.735  1.2213  0.2024  2.1860
  701MOL0     H92504   4.317   1.004   7.743 -1.2592  1.9626 -1.5659
  701MOL0     H92505   4.295   0.839   7.769 -0.1449 -0.0122 -0.2736
  701MOL0     H92506   4.376   0.979   7.500  0.2291 -0.2945  0.0024
  701MOL0     H92507   4.349   0.805   7.512  1.9253 -1.0080  1.9000
  701MOL0     H92508   4.533   0.781   7.664 -0.3736 -0.3155  0.1648
  701MOL0     H92509   4.565   0.961   7.653  2.5024 -0.4438 -1.5924
  701MOL0     H92510   4.631   0.741   7.476  3.2389  0.3412  0.0476
  701MOL0     H92511   4.592   0.900   7.393 -0.3824  1.8836  1.7664
  701MOL0     H92512   4.815   0.870   7.600  2.0585  0.2612  0.2917
  701MOL0     H92513   4.760   1.024   7.515 -0.5326 -0.2636  1.5111
  701MOL0     H92514   3.713   1.231   7.540  0.0236  0.0285 -0.0818
  701MOL0     H92515   3.484   1.174   7.455 -0.2051  0.2074 -0.0992
  701MOL0     H92516   3.178   0.809   7.363 -0.5288 -1.8650  0.1899
  701MOL0     H92517   2.957   0.736   7.314 -2.2352  0.9887  0.3369
  701MOL0     H92518   3.857   0.456   7.937  3.8925 -1.7540  1.1475
  701MOL0     H92519   4.085   0.465   7.955 -1.1273 -0.3163 -0.2376
  701MOL0     H92520   4.444   0.866   7.990  0.0136 -0.7664 -1.3342
  701MOL0     H92521   4.691   0.923   7.985  1.4070 -1.0022 -1.1138
  701MOL0     H92522   5.050   0.862   8.064  0.0717  0.3401 -0.6697
  701MOL0     H92523   4.899   0.949   8.060  2.5643  2.5687 -0.6085
  701MOL0     H92524   4.927   0.960   7.817 -0.1978  0.4392  0.1707
  701MOL0     H92525   5.061   1.027   7.915 -2.1844  1.8038 -2.3570
  701MOL0     H92526   5.049   0.772   7.759 -3.2215  1.2033 -0.3936
  701MOL0     H92527   5.182   0.808   7.875  0.2367 -1.5333 -1.5849
  701MOL0     H92528   5.102   0.958   7.618  0.0688 -0.0459  0.7181
  701MOL0     H92529   5.235   1.015   7.721  2.4580 -1.1035 -1.7270
  701MOL0     H92530   5.459   0.707   7.590 -0.7003 -0.5244 -0.4111
  701MOL0     H92531   4.796   0.506   8.008  0.4334  0.7811 -2.7722
  701MOL0     H92532   4.540   0.449   8.035  0.7691 -0.7611  2.2802
  702MOL0     O92533  10.962   0.482   4.242  0.3902  0.0292  0.1923
  702MOL0     C92534  11.004   0.383   4.306 -0.2917 -0.3019 -0.2996
  702MOL0     O92535  10.928   0.283   4.349  0.2106  0.2509 -0.0175
  702MOL0     C92536  10.803   0.251   4.294 -0.7179 -0.5279 -0.4697
  702MOL0     C92537  10.709   0.327   4.221  0.1238 -0.2626 -0.1740
  702MOL0     C92538  10.587   0.286   4.173  0.0375  0.6932 -0.6889
  702MOL0     C92539  10.551   0.152   4.203 -0.8247 -0.1169  0.1572
  702MOL0     O92540  10.421   0.125   4.166 -0.9514 -0.4625 -0.1235
  702MOL0     C92541  10.369  -0.002   4.167 -0.0319  0.7016  0.1848
  702MOL0     C92542  10.233  -0.021   4.098 -0.8582  0.4806  0.6424
  702MOL0     C92543  10.130   0.038   4.192 -0.3413 -0.8928  0.9951
  702MOL0     C92544   9.981   0.030   4.155  0.0280  0.2945  0.0290
  702MOL0     C92545   9.928   0.092   4.023  0.1111 -0.3063 -0.6325
  702MOL0     C92546   9.772   0.109   4.011  0.7107  0.2229  0.0151
  702MOL0     C92547   9.701  -0.015   4.049  0.0899  0.0855  0.2435
  702MOL0     C92548   9.558  -0.038   3.998 -0.7143  0.0560 -0.4195
  702MOL0     N92549   9.448   0.029   4.064  0.6539 -1.2046 -0.2894
  702MOL0     C92550   9.453   0.092   4.195 -0.9474 -0.5391  0.4914
  702MOL0     C92551   9.322   0.111   4.235 -0.0255  0.1749  0.1634
  702MOL0     C92552   9.286   0.190   4.359 -0.1762 -1.0923  0.2214
  702MOL0     C92553   9.278   0.107   4.487 -0.9819 -0.1041 -1.0107
  702MOL0     C92554   9.181  -0.017   4.474 -0.2960  0.3429  0.3869
  702MOL0     C92555   9.043   0.008   4.399 -0.3836 -0.0631 -0.6336
  702MOL0     O92556   8.939  -0.079   4.450 -0.2273 -0.1782  0.3254
  702MOL0     C92557   8.810  -0.041   4.411 -0.4252  0.4534 -0.5444
  702MOL0     C92558   8.703  -0.122   4.458  0.0831  0.4747  0.7295
  702MOL0     C92559   8.565  -0.105   4.416 -1.0130  0.2696  0.0185
  702MOL0     C92560   8.543   0.004   4.326  0.6766 -0.8816 -0.0476
  702MOL0     C92561   8.401   0.023   4.291  0.5901  0.4584  0.0580
  702MOL0     O92562   8.378   0.135   4.214  0.3806  0.3420 -0.8470
  702MOL0     C92563   8.250   0.169   4.183 -0.0259 -0.2557 -0.3523
  702MOL0     C92564   8.148   0.075   4.141 -0.7044  0.5956  0.5205
  702MOL0     C92565   8.012   0.114   4.121  0.0968 -0.3179 -1.0552
  702MOL0     C92566   7.979   0.254   4.120  1.3380 -0.3428  0.2151
  702MOL0     O92567   7.849   0.302   4.081  0.0152 -0.1154 -0.6055
  702MOL0     C92568   7.754   0.207   4.017  0.4355  1.1893  0.0601
  702MOL0     C92569   7.614   0.276   4.010 -0.3484  0.2422 -0.3172
  702MOL0     C92570   7.548   0.275   4.146  0.7630 -0.3928 -0.2997
  702MOL0     C92571   7.397   0.300   4.151 -0.5198  0.5824  0.4292
  702MOL0     C92572   7.374   0.453   4.144 -0.0754  0.6693  0.0406
  702MOL0     C92573   7.228   0.485   4.191 -0.0659 -0.0028 -0.1512
  702MOL0     C92574   7.204   0.632   4.215 -0.6594  0.1550  0.1853
  702MOL0     C92575   7.186   0.715   4.087 -0.1893  0.3509 -0.9947
  702MOL0    Cl92576   7.156   0.889   4.121  0.2724 -0.2822  0.0449
  702MOL0     C92577   8.081   0.339   4.148 -0.1798  0.3999 -0.7108
  702MOL0     C92578   8.216   0.297   4.185 -0.5456  0.2534  1.1177
  702MOL0     O92579   8.317  -0.062   4.335 -0.7964  0.1086  0.4925
  702MOL0     C92580   8.646   0.088   4.281 -0.1556 -0.1159  0.1763
  702MOL0     C92581   8.780   0.063   4.321  0.0887 -0.9956 -0.9319
  702MOL0     N92582   9.250   0.055   4.135 -0.5549 -0.7479  0.1385
  702MOL0     N92583   9.313   0.023   4.031 -0.4589  0.5415  0.1292
  702MOL0     C92584  10.637   0.070   4.272  0.2055  0.3453  0.1491
  702MOL0     C92585  10.762   0.116   4.318 -0.1882 -0.3612  0.1620
  702MOL0     C92586  11.146   0.386   4.338 -0.7847  0.1690 -0.2817
  702MOL0     C92587  11.213   0.290   4.417  0.0577 -0.1793  0.5708
  702MOL0     C92588  11.358   0.294   4.425  0.5675 -0.4762 -0.9511
  702MOL0     C92589  11.434   0.396   4.377  0.0947 -0.2156  1.1362
  702MOL0     O92590  11.572   0.418   4.370  0.4661  0.3498 -0.5937
  702MOL0     C92591  11.651   0.309   4.405 -0.0529  0.4080 -0.6617
  702MOL0     C92592  11.709   0.326   4.540 -1.2181 -0.0657 -0.2556
  702MOL0     C92593  11.800   0.449   4.555 -0.2527 -0.4114 -0.7533
  702MOL0     C92594  11.892   0.489   4.436  0.7743  0.1170 -0.2883
  702MOL0     C92595  11.964   0.613   4.462 -0.1411  0.5156 -0.5702
  702MOL0     C92596  12.025   0.719   4.484  0.7977  0.5732 -0.7722
  702MOL0     C92597  11.362   0.500   4.309 -0.0604 -0.0778  0.3033
  702MOL0     C92598  11.224   0.490   4.280 -0.0174 -0.9062  0.2737
  702MOL0     H92599  10.738   0.428   4.193 -2.8274  0.4909 -0.9319
  702MOL0     H92600  10.525   0.338   4.101 -0.7386  2.2314  0.9997
  702MOL0     H92601  10.360  -0.037   4.270 -2.6696 -0.2756 -0.2949
  702MOL0     H92602  10.440  -0.072   4.121  1.7351  1.0994  2.1271
  702MOL0     H92603  10.214  -0.128   4.085  1.3287  0.1550 -0.2705
  702MOL0     H92604  10.237   0.033   4.003  1.1131  1.9820  1.4984
  702MOL0     H92605  10.162   0.141   4.209 -1.6483 -0.5252  1.3748
  702MOL0     H92606  10.149  -0.011   4.288  0.8844 -1.0701  0.6743
  702MOL0     H92607   9.944  -0.072   4.163  0.1062  0.2990  0.4381
  702MOL0     H92608   9.930   0.088   4.232 -2.5529 -1.7019 -0.0507
  702MOL0     H92609   9.950   0.009   3.955 -1.0960 -3.3098  2.3385
  702MOL0     H92610   9.971   0.191   4.004  0.8288 -0.6100 -0.6538
  702MOL0     H92611   9.744   0.151   3.914  0.9432  1.1587  0.3446
  702MOL0     H92612   9.744   0.188   4.082 -0.4135  0.8407 -1.0764
  702MOL0     H92613   9.762  -0.098   4.014  1.1915 -1.1084  4.4415
  702MOL0     H92614   9.698  -0.030   4.158 -0.7613  1.7648  0.4901
  702MOL0     H92615   9.539  -0.146   4.001  1.0545 -0.2607  0.6822
  702MOL0     H92616   9.562  -0.015   3.891  2.0607 -2.5722 -1.0016
  702MOL0     H92617   9.544   0.123   4.244 -1.2929  1.5689 -0.0874
  702MOL0     H92618   9.189   0.237   4.339 -0.9069 -3.2586 -1.8987
  702MOL0     H92619   9.359   0.270   4.369 -0.3583 -0.8595 -0.2813
  702MOL0     H92620   9.240   0.174   4.565  1.3215  1.9928 -1.5584
  702MOL0     H92621   9.377   0.069   4.511 -0.4132  2.2009  0.6022
  702MOL0     H92622   9.233  -0.098   4.421 -0.0474 -1.3143  2.9725
  702MOL0     H92623   9.170  -0.057   4.576  2.6338 -1.2028  0.2091
  702MOL0     H92624   9.051  -0.004   4.290 -1.3946 -1.6421 -0.5736
  702MOL0     H92625   9.020   0.113   4.415 -0.4917 -0.0790 -0.6857
  702MOL0     H92626   8.709  -0.213   4.516 -2.6503 -0.1958  0.0759
  702MOL0     H92627   8.497  -0.177   4.461  0.1026 -1.4208 -0.9061
  702MOL0     H92628   8.154  -0.034   4.140 -1.4934  0.4601 -3.2515
  702MOL0     H92629   7.936   0.038   4.107 -1.7628  0.7539  2.0731
  702MOL0     H92630   7.739   0.121   4.083 -0.2672  1.1117 -0.1977
  702MOL0     H92631   7.779   0.180   3.914 -2.5050  0.2983 -0.4933
  702MOL0     H92632   7.554   0.223   3.935 -1.6885 -0.6436  1.2807
  702MOL0     H92633   7.627   0.375   3.966 -0.0411 -0.9299 -3.0342
  702MOL0     H92634   7.606   0.344   4.207 -0.0529  0.3166 -0.2990
  702MOL0     H92635   7.569   0.174   4.182  1.1320 -0.5687 -0.9890
  702MOL0     H92636   7.351   0.256   4.062 -3.2253  1.3716  1.3408
  702MOL0     H92637   7.353   0.264   4.245 -2.2747 -1.7971 -1.2012
  702MOL0     H92638   7.378   0.472   4.036  0.7562 -5.0409 -1.2909
  702MOL0     H92639   7.447   0.512   4.200  0.0278  0.9252 -0.3613
  702MOL0     H92640   7.217   0.433   4.287 -1.9692 -0.9997 -0.8575
  702MOL0     H92641   7.152   0.460   4.117 -0.5142  0.3646  0.1743
  702MOL0     H92642   7.112   0.640   4.274 -0.7893 -0.2982  0.0429
  702MOL0     H92643   7.280   0.669   4.285 -1.7281  0.2568  1.3372
  702MOL0     H92644   7.104   0.675   4.026 -1.1552  1.2100 -0.3159
  702MOL0     H92645   7.274   0.705   4.024 -0.6600 -0.3615 -1.5572
  702MOL0     H92646   8.053   0.442   4.161 -0.5898  0.1853  0.1524
  702MOL0     H92647   8.290   0.374   4.203  0.6223  0.0982 -2.3236
  702MOL0     H92648   8.613   0.180   4.234 -2.2704  0.5255  2.6821
  702MOL0     H92649   8.865   0.123   4.289  2.0359 -2.5344  1.0036
  702MOL0     H92650  10.608  -0.033   4.294 -0.3369  0.6611  0.9622
  702MOL0     H92651  10.839   0.052   4.359  0.4524  1.7762  2.5906
  702MOL0     H92652  11.152   0.216   4.469 -0.8459  0.1987  0.0856
  702MOL0     H92653  11.402   0.223   4.494 -0.0946 -1.3374 -1.3947
  702MOL0     H92654  11.734   0.290   4.335 -2.6231 -0.0650 -3.8186
  702MOL0     H92655  11.601   0.213   4.392  4.0782 -1.8717 -1.3268
  702MOL0     H92656  11.624   0.344   4.607 -2.2113 -1.9121 -0.9442
  702MOL0     H92657  11.763   0.234   4.567 -0.8174  0.1364 -0.3626
  702MOL0     H92658  11.868   0.437   4.641 -0.2722  0.1388 -0.6604
  702MOL0     H92659  11.738   0.536   4.576  0.4493  0.4267 -2.0480
  702MOL0     H92660  11.954   0.405   4.403 -1.4845 -0.8342 -2.5235
  702MOL0     H92661  11.832   0.516   4.348  2.8907  1.2012 -1.4808
  702MOL0     H92662  12.087   0.803   4.509  2.3481 -1.1886  1.8167
  702MOL0     H92663  11.413   0.585   4.266  0.0319 -0.9176 -1.3027
  702MOL0     H92664  11.178   0.568   4.219  2.8646 -0.6704 -1.7868
  703MOL0     O92665   3.812   7.599   7.527  0.3343  0.5205 -0.1335
  703MOL0     C92666   3.836   7.710   7.555 -0.6104 -0.4272  0.3496
  703MOL0     O92667   3.741   7.812   7.558 -0.4960 -0.6740 -0.2088
  703MOL0     C92668   3.618   7.793   7.505 -0.2774  0.2487 -0.3824
  703MOL0     C92669   3.515   7.808   7.583  0.5150 -0.0117 -0.2747
  703MOL0     C92670   3.388   7.787   7.531  0.3071  0.4584 -0.6152
  703MOL0     C92671   3.363   7.761   7.394 -0.2934 -0.5726  0.6049
  703MOL0     O92672   3.228   7.771   7.349 -0.4576  0.6584  0.4603
  703MOL0     C92673   3.154   7.659   7.411  0.4749  0.5377  0.8488
  703MOL0     C92674   3.029   7.627   7.333  0.7401 -0.4844 -0.4868
  703MOL0     C92675   2.935   7.523   7.406 -0.2445 -0.0821 -0.1821
  703MOL0     C92676   2.802   7.532   7.330 -0.8577  0.0847 -0.4563
  703MOL0     C92677   2.702   7.425   7.378 -0.3764 -0.5811 -0.8830
  703MOL0     C92678   2.624   7.448   7.509  0.7449 -0.5335  0.8447
  703MOL0     C92679   2.486   7.515   7.498 -0.3500  0.0480 -0.1750
  703MOL0     C92680   2.421   7.510   7.637  0.5942 -0.4589  0.5324
  703MOL0     N92681   2.288   7.573   7.628  1.4045  0.3284  0.6468
  703MOL0     C92682   2.174   7.524   7.682  0.1624  0.4031  0.6075
  703MOL0     C92683   2.083   7.620   7.649  0.7860 -0.0449  0.0935
  703MOL0     C92684   1.940   7.630   7.694  0.0079 -0.4066 -0.4288
  703MOL0     C92685   1.866   7.764   7.667  0.0500 -0.0437  0.3883
  703MOL0     C92686   1.740   7.757   7.739  0.7703  0.7670  0.0730
  703MOL0     C92687   1.646   7.882   7.719 -0.1819  0.4312 -0.1593
  703MOL0     O92688   1.618   7.883   7.582 -0.1229 -0.3449  0.7404
  703MOL0     C92689   1.520   7.957   7.529 -0.1707 -0.1087  0.0186
  703MOL0     C92690   1.433   8.031   7.603 -0.3105 -0.8312 -0.0494
  703MOL0     C92691   1.323   8.092   7.543 -0.1867  0.0963 -0.9633
  703MOL0     C92692   1.295   8.072   7.411 -1.2559  0.3992 -0.3825
  703MOL0     C92693   1.168   8.116   7.348 -0.0883 -0.1123 -0.2957
  703MOL0     O92694   1.125   8.066   7.219 -0.1958 -0.2143 -0.3979
  703MOL0     C92695   1.011   8.115   7.162 -0.8265  0.1791 -0.0249
  703MOL0     C92696   0.911   8.029   7.116  0.1308  0.1848  0.3728
  703MOL0     C92697   0.804   8.076   7.033 -0.1355  0.5351 -0.2292
  703MOL0     C92698   0.787   8.213   7.013  0.6049 -0.0465 -0.9280
  703MOL0     O92699   0.699   8.278   6.925 -0.6536  0.5178 -0.1640
  703MOL0     C92700   0.603   8.200   6.856  0.0879 -0.1861 -0.2388
  703MOL0     C92701   0.501   8.310   6.812  0.8771 -0.0758  0.1649
  703MOL0     C92702   0.395   8.240   6.715  0.4207  0.8570  0.1492
  703MOL0     C92703   0.323   8.345   6.633 -0.3120 -0.3795 -0.3083
  703MOL0     C92704   0.218   8.284   6.546  0.8950  1.0306 -0.9213
  703MOL0     C92705   0.122   8.396   6.499  0.9277 -0.2176 -0.6801
  703MOL0     C92706   0.016   8.344   6.399  0.2010 -0.0467 -0.7495
  703MOL0     C92707  -0.070   8.229   6.450 -0.5441 -0.7929 -0.1668
  703MOL0    Cl92708  -0.203   8.236   6.332 -0.1934  0.1890 -0.0909
  703MOL0     C92709   0.879   8.303   7.072  0.3954  0.1888  0.5177
  703MOL0     C92710   0.993   8.253   7.142  0.4795 -0.4036 -0.0136
  703MOL0     O92711   1.100   8.189   7.425  0.0348  0.1892  0.0664
  703MOL0     C92712   1.393   8.005   7.333 -0.4730 -0.7289 -0.5715
  703MOL0     C92713   1.502   7.946   7.394  0.5292 -0.2472 -0.3488
  703MOL0     N92714   2.144   7.730   7.583  0.6356  0.5457  0.0114
  703MOL0     N92715   2.267   7.696   7.560  0.1218 -0.6125 -0.6858
  703MOL0     C92716   3.476   7.750   7.310 -0.2428  0.1465  0.2666
  703MOL0     C92717   3.603   7.760   7.367 -0.4402 -0.5747  0.0804
  703MOL0     C92718   3.979   7.741   7.590  1.3542  0.0712  0.0477
  703MOL0     C92719   4.024   7.877   7.614 -0.7449 -0.2013  0.6698
  703MOL0     C92720   4.157   7.904   7.633 -0.9084 -0.8617 -0.1481
  703MOL0     C92721   4.258   7.808   7.611  0.1481  0.0759 -0.0252
  703MOL0     O92722   4.393   7.821   7.636 -0.2981  0.3653  0.0289
  703MOL0     C92723   4.451   7.956   7.625 -0.0096  1.4470 -0.5924
  703MOL0     C92724   4.592   7.929   7.573  0.1734 -0.4219 -0.2505
  703MOL0     C92725   4.691   8.049   7.544  0.1011  0.2533 -0.8327
  703MOL0     C92726   4.731   8.118   7.681  0.7302  0.2547 -0.1188
  703MOL0     C92727   4.866   8.086   7.709  0.2874  0.5217  0.3280
  703MOL0     C92728   4.984   8.059   7.732  0.9228  0.3196  0.0262
  703MOL0     C92729   4.215   7.683   7.580  0.2092  0.1122  0.4413
  703MOL0     C92730   4.080   7.645   7.574  0.4360  0.2182  0.1861
  703MOL0     H92731   3.523   7.834   7.688 -1.8942 -2.7377  0.7535
  703MOL0     H92732   3.306   7.800   7.600  0.6252 -0.1874 -0.1086
  703MOL0     H92733   3.130   7.692   7.513 -2.6345 -1.5558  0.9069
  703MOL0     H92734   3.221   7.573   7.409 -0.3325 -0.1343 -2.3164
  703MOL0     H92735   3.049   7.607   7.227 -0.5988  2.8575 -1.5215
  703MOL0     H92736   2.981   7.725   7.315  2.8536  0.6635 -0.1646
  703MOL0     H92737   2.920   7.546   7.511  1.5436 -1.6923  0.4714
  703MOL0     H92738   2.975   7.422   7.398 -1.3697 -0.6964  1.4297
  703MOL0     H92739   2.754   7.631   7.330  1.2096  1.1508  0.3538
  703MOL0     H92740   2.830   7.506   7.228 -1.7373  1.6050 -1.1208
  703MOL0     H92741   2.752   7.329   7.395  0.2258 -0.2451 -0.7419
  703MOL0     H92742   2.628   7.411   7.298  1.0897 -0.8323 -2.2630
  703MOL0     H92743   2.692   7.497   7.579 -0.0906  2.5152 -0.3368
  703MOL0     H92744   2.608   7.345   7.542 -0.9580 -0.5772 -0.0482
  703MOL0     H92745   2.488   7.621   7.469 -0.3512 -0.0318 -0.4647
  703MOL0     H92746   2.432   7.446   7.433  1.6779 -1.7522 -0.0623
  703MOL0     H92747   2.475   7.577   7.704 -0.5036  0.3536  0.6319
  703MOL0     H92748   2.412   7.412   7.685 -4.2974 -1.1710 -1.2367
  703MOL0     H92749   2.173   7.431   7.738 -0.3509 -0.8962 -1.4503
  703MOL0     H92750   1.951   7.601   7.799  2.6069 -0.2091 -0.5822
  703MOL0     H92751   1.874   7.552   7.655 -2.9258  1.9670 -0.5726
  703MOL0     H92752   1.852   7.751   7.560 -0.6576 -1.6610  0.6483
  703MOL0     H92753   1.931   7.848   7.694  1.1913 -0.5566 -0.6736
  703MOL0     H92754   1.680   7.670   7.712 -1.5527  2.2502  0.1430
  703MOL0     H92755   1.756   7.761   7.847  0.8290  1.1255  0.0538
  703MOL0     H92756   1.695   7.978   7.737  2.3830 -0.3835 -2.1593
  703MOL0     H92757   1.561   7.877   7.787  0.1649  1.3856  0.3534
  703MOL0     H92758   1.449   8.037   7.710 -0.4838  1.9460 -0.0967
  703MOL0     H92759   1.255   8.146   7.609 -0.8887 -1.5638 -0.2781
  703MOL0     H92760   0.909   7.922   7.133 -0.7736  0.2610  0.8380
  703MOL0     H92761   0.723   8.018   6.990 -2.8170  3.2553  0.8367
  703MOL0     H92762   0.553   8.133   6.927 -1.2454  2.9011  2.0080
  703MOL0     H92763   0.648   8.150   6.770 -2.4268 -2.9304 -0.1272
  703MOL0     H92764   0.557   8.383   6.752 -2.3192  1.5630 -1.0656
  703MOL0     H92765   0.465   8.361   6.902  1.6376  0.6077  0.0948
  703MOL0     H92766   0.330   8.168   6.765 -2.8313  2.0706 -1.9561
  703MOL0     H92767   0.452   8.177   6.645 -0.5904 -0.6267  0.6105
  703MOL0     H92768   0.277   8.413   6.705  0.3612 -1.3253  1.0532
  703MOL0     H92769   0.388   8.416   6.580 -2.2271  2.5779  1.0457
  703MOL0     H92770   0.161   8.210   6.601  1.2608  1.2233 -0.2698
  703MOL0     H92771   0.263   8.234   6.459  0.0533 -0.7275 -0.3715
  703MOL0     H92772   0.182   8.485   6.474 -0.9760  1.0893 -0.8155
  703MOL0     H92773   0.060   8.427   6.583  0.6788 -3.2302  0.3360
  703MOL0     H92774  -0.041   8.427   6.355  1.3772  1.2267  0.0357
  703MOL0     H92775   0.073   8.305   6.315 -0.5623  0.3194 -1.4522
  703MOL0     H92776  -0.104   8.260   6.549 -1.1680  3.2099 -1.4501
  703MOL0     H92777  -0.020   8.132   6.446 -1.6255 -1.3673 -0.0034
  703MOL0     H92778   0.861   8.408   7.049 -1.5166  0.2649  2.1692
  703MOL0     H92779   1.046   8.337   7.186 -2.0793  0.3157  1.9781
  703MOL0     H92780   1.373   7.995   7.227  0.0201  0.7049 -0.8239
  703MOL0     H92781   1.584   7.904   7.337  1.0935 -3.0275  2.2423
  703MOL0     H92782   3.479   7.737   7.203 -1.4321 -0.4650  0.2965
  703MOL0     H92783   3.689   7.745   7.302  1.5415 -0.7000  2.5759
  703MOL0     H92784   3.949   7.954   7.629  1.8795  2.2459  2.0754
  703MOL0     H92785   4.186   8.006   7.658 -0.6401 -0.6504 -1.2742
  703MOL0     H92786   4.438   8.006   7.722 -2.4957  1.0418 -0.6534
  703MOL0     H92787   4.398   8.019   7.553  0.6421  0.7841 -1.6808
  703MOL0     H92788   4.656   7.860   7.630  4.2634  0.0691 -3.6976
  703MOL0     H92789   4.563   7.886   7.477  1.2501 -2.6090  0.3288
  703MOL0     H92790   4.647   8.119   7.472 -2.0298 -2.5514 -2.4729
  703MOL0     H92791   4.778   8.016   7.487  0.7733 -0.2697  0.4581
  703MOL0     H92792   4.722   8.224   7.654  1.7208  0.5972  0.8435
  703MOL0     H92793   4.656   8.078   7.750 -0.3786  1.4784 -0.5513
  703MOL0     H92794   5.084   8.028   7.759  0.7747 -0.1174  0.0852
  703MOL0     H92795   4.288   7.608   7.552 -0.9475  0.0846 -2.9443
  703MOL0     H92796   4.068   7.538   7.568  1.1714  0.0914  0.7609
  704MOL0     O92797   2.780   1.601   7.823  0.1231 -0.4794  0.4790
  704MOL0     C92798   2.771   1.597   7.700 -0.8763 -0.1275 -0.0840
  704MOL0     O92799   2.662   1.577   7.628 -0.8692 -0.3462 -0.3826
  704MOL0     C92800   2.557   1.508   7.678  0.9238 -0.0759  0.8138
  704MOL0     C92801   2.479   1.444   7.574 -0.2994  0.6306 -0.6748
  704MOL0     C92802   2.348   1.388   7.604  0.3465 -0.3471  0.3054
  704MOL0     C92803   2.293   1.410   7.732 -0.3069 -0.5594  0.3872
  704MOL0     O92804   2.169   1.368   7.767 -0.7021 -0.0063  0.4340
  704MOL0     C92805   2.076   1.369   7.656  0.7299  0.1040 -0.0882
  704MOL0     C92806   1.930   1.344   7.711  0.0374  0.6939 -0.2937
  704MOL0     C92807   1.810   1.355   7.613  0.0644 -0.2134 -0.5142
  704MOL0     C92808   1.678   1.336   7.685 -0.3262  0.0262 -0.8907
  704MOL0     C92809   1.553   1.360   7.600  0.5093 -0.3557 -0.1788
  704MOL0     C92810   1.421   1.359   7.692 -0.1790 -0.7461  1.2284
  704MOL0     C92811   1.303   1.379   7.595 -0.4041 -0.1456 -0.3372
  704MOL0     C92812   1.178   1.425   7.667  0.2516  0.8156  0.4327
  704MOL0     N92813   1.080   1.319   7.676  0.4524 -0.7941 -0.5651
  704MOL0     C92814   1.063   1.231   7.785 -0.1468  0.7475 -0.1057
  704MOL0     C92815   0.943   1.184   7.763 -0.0954 -0.0017  1.3745
  704MOL0     C92816   0.869   1.071   7.840  0.1556  1.1013  0.0115
  704MOL0     C92817   0.717   1.070   7.818  0.8543  1.2078  0.0721
  704MOL0     C92818   0.649   1.204   7.839 -1.0271 -0.3022 -0.5386
  704MOL0     C92819   0.514   1.216   7.775  0.3653  0.0962 -0.2308
  704MOL0     O92820   0.415   1.279   7.858 -0.0672 -0.3462  0.5077
  704MOL0     C92821   0.287   1.270   7.808  0.7367  0.4998 -0.1510
  704MOL0     C92822   0.248   1.231   7.677  0.2633 -0.0132 -0.0156
  704MOL0     C92823   0.119   1.231   7.636  0.2753  0.4902  0.1184
  704MOL0     C92824   0.015   1.272   7.708  0.9289  0.1119 -0.0628
  704MOL0     C92825  -0.126   1.278   7.640 -0.4816  0.4425 -0.7136
  704MOL0     O92826  -0.231   1.317   7.718  1.1545 -0.0922  0.1412
  704MOL0     C92827  -0.357   1.282   7.678 -0.4761 -0.4279  0.3656
  704MOL0     C92828  -0.439   1.393   7.660  0.2528  0.1534 -0.4855
  704MOL0     C92829  -0.570   1.375   7.620 -0.2438  0.4295  0.3760
  704MOL0     C92830  -0.621   1.243   7.608  0.2633 -0.8629  0.3528
  704MOL0     O92831  -0.748   1.218   7.565 -0.1132  0.0880 -0.2429
  704MOL0     C92832  -0.814   1.083   7.581 -0.1552 -0.2280 -0.1085
  704MOL0     C92833  -0.965   1.107   7.565 -0.2495 -0.2647  0.1076
  704MOL0     C92834  -1.052   0.983   7.600  0.5127 -0.6465  0.0344
  704MOL0     C92835  -1.197   1.011   7.552 -0.5411  0.4461 -0.6466
  704MOL0     C92836  -1.306   0.924   7.633 -0.3691 -0.3073  0.6928
  704MOL0     C92837  -1.445   0.934   7.561 -0.0336 -0.1689 -0.0263
  704MOL0     C92838  -1.503   1.072   7.578 -0.2773 -0.3283  0.1721
  704MOL0     C92839  -1.513   1.118   7.726 -0.3893  0.1532 -0.0663
  704MOL0    Cl92840  -1.627   1.252   7.759  0.2011 -0.1216 -0.0879
  704MOL0     C92841  -0.538   1.135   7.635 -0.0077  0.1074 -0.8840
  704MOL0     C92842  -0.405   1.149   7.676 -0.4308 -0.7806 -0.0082
  704MOL0     O92843  -0.132   1.236   7.527  0.2511 -0.0542  0.3261
  704MOL0     C92844   0.049   1.319   7.837 -0.1952 -0.1298  0.6285
  704MOL0     C92845   0.179   1.313   7.886 -1.1129 -0.6815  0.7057
  704MOL0     N92846   0.890   1.231   7.643  0.6803 -0.9295  0.1801
  704MOL0     N92847   0.970   1.325   7.595 -0.6698 -0.7288 -0.2562
  704MOL0     C92848   2.374   1.469   7.830  0.4154  0.4615 -0.0376
  704MOL0     C92849   2.503   1.517   7.805 -0.3706  1.3647  0.2766
  704MOL0     C92850   2.898   1.643   7.624  0.3884  0.3904 -0.3004
  704MOL0     C92851   3.010   1.675   7.689 -0.1059 -0.3677  0.1618
  704MOL0     C92852   3.123   1.707   7.603 -0.4987  0.0889 -0.2269
  704MOL0     C92853   3.117   1.711   7.461  0.0368 -0.5150  0.4507
  704MOL0     O92854   3.221   1.730   7.373  0.2767 -1.0078 -0.1881
  704MOL0     C92855   3.315   1.823   7.424  0.1997 -0.1040  0.2525
  704MOL0     C92856   3.393   1.880   7.302  0.7288  0.8804  0.3958
  704MOL0     C92857   3.497   1.986   7.325 -0.4724  0.4075 -0.1413
  704MOL0     C92858   3.578   2.027   7.195 -0.2933  0.2950 -0.6588
  704MOL0     C92859   3.698   2.107   7.222  0.0688  0.0626  0.1591
  704MOL0     C92860   3.789   2.190   7.234  0.1066  0.4246 -0.3169
  704MOL0     C92861   2.997   1.669   7.402 -0.1469  0.5013 -0.6136
  704MOL0     C92862   2.889   1.633   7.482  0.7663 -0.6430  0.1564
  704MOL0     H92863   2.519   1.446   7.474  0.6185  1.0869 -0.3083
  704MOL0     H92864   2.308   1.321   7.529 -1.0237 -2.5023  2.7838
  704MOL0     H92865   2.091   1.297   7.575  5.0596 -0.9325  1.3313
  704MOL0     H92866   2.080   1.469   7.611  0.2358 -0.4716 -1.4564
  704MOL0     H92867   1.913   1.401   7.802 -1.2972  0.7786 -0.5674
  704MOL0     H92868   1.934   1.239   7.741  2.3266  0.8859  0.2018
  704MOL0     H92869   1.828   1.277   7.539  2.2831  0.8708 -1.2229
  704MOL0     H92870   1.818   1.453   7.564  2.1541  0.3054  0.7454
  704MOL0     H92871   1.680   1.238   7.734 -1.9986  0.0607 -0.6628
  704MOL0     H92872   1.679   1.423   7.751  4.1179 -0.1214 -0.5223
  704MOL0     H92873   1.538   1.285   7.522 -1.1775  0.3404 -0.5709
  704MOL0     H92874   1.553   1.462   7.560  3.9436 -0.1154  0.1300
  704MOL0     H92875   1.430   1.444   7.761  1.4454 -0.6172  0.9001
  704MOL0     H92876   1.419   1.266   7.749  1.1283 -1.2725  0.4469
  704MOL0     H92877   1.327   1.455   7.520 -0.0035  0.1429  0.0788
  704MOL0     H92878   1.279   1.284   7.547  1.4384 -0.8741  0.1163
  704MOL0     H92879   1.142   1.508   7.606 -2.0163 -0.9499 -0.7909
  704MOL0     H92880   1.202   1.454   7.769  2.7455 -1.9363  0.7868
  704MOL0     H92881   1.122   1.203   7.872 -1.6463  1.8043  1.3233
  704MOL0     H92882   0.894   1.089   7.945  0.9220  2.4303 -0.3673
  704MOL0     H92883   0.910   0.980   7.796 -1.9705  0.5479 -0.9836
  704MOL0     H92884   0.676   1.007   7.896 -0.2249  2.4653  0.5601
  704MOL0     H92885   0.696   1.040   7.715  0.1652  1.0829  0.2467
  704MOL0     H92886   0.631   1.211   7.947  0.2683 -3.1381 -0.0368
  704MOL0     H92887   0.710   1.290   7.810 -0.5821 -0.0365  1.0707
  704MOL0     H92888   0.473   1.117   7.756 -0.7013  0.5443 -0.3588
  704MOL0     H92889   0.521   1.263   7.676 -0.9816 -1.0817 -0.9239
  704MOL0     H92890   0.319   1.196   7.602 -0.2311  0.2920 -0.6395
  704MOL0     H92891   0.104   1.189   7.537  1.6514  2.5910 -1.0510
  704MOL0     H92892  -0.402   1.495   7.665 -3.2050  1.6030 -1.0485
  704MOL0     H92893  -0.634   1.458   7.591  0.0885  0.7259  0.4879
  704MOL0     H92894  -0.804   1.048   7.685 -0.6594  1.3914  0.5140
  704MOL0     H92895  -0.781   1.008   7.508  2.6010 -0.0037  0.7869
  704MOL0     H92896  -0.985   1.141   7.463  1.9619 -2.7849 -1.2861
  704MOL0     H92897  -0.993   1.190   7.632  0.0399 -1.0743  1.2681
  704MOL0     H92898  -1.064   0.973   7.709 -2.1318  2.4896  0.1885
  704MOL0     H92899  -1.011   0.900   7.542  2.3621  0.8977 -0.9743
  704MOL0     H92900  -1.221   1.114   7.580 -0.6552  0.9384 -2.4323
  704MOL0     H92901  -1.202   0.998   7.443 -1.6205 -1.3198 -0.4309
  704MOL0     H92902  -1.299   0.953   7.738 -0.3440 -2.2144  1.2521
  704MOL0     H92903  -1.284   0.817   7.629 -0.9028 -0.4586  1.5837
  704MOL0     H92904  -1.511   0.854   7.595  1.6449 -1.2655  0.7987
  704MOL0     H92905  -1.431   0.922   7.453  2.2351 -1.8207  0.3956
  704MOL0     H92906  -1.443   1.144   7.522  0.3312 -0.8204  0.1917
  704MOL0     H92907  -1.607   1.066   7.544 -0.7864 -0.7298  1.7543
  704MOL0     H92908  -1.413   1.159   7.738 -0.2225  0.2387 -1.5410
  704MOL0     H92909  -1.532   1.029   7.787 -1.6367  1.3890  1.4205
  704MOL0     H92910  -0.579   1.035   7.622  0.4366 -0.3816  1.1082
  704MOL0     H92911  -0.346   1.059   7.690 -0.8967 -1.3755 -1.6455
  704MOL0     H92912  -0.038   1.364   7.884 -0.3121  3.5745 -2.6526
  704MOL0     H92913   0.191   1.348   7.988 -0.2925 -2.0357  1.0961
  704MOL0     H92914   2.332   1.480   7.930  0.0155  2.2743 -0.3617
  704MOL0     H92915   2.551   1.575   7.883 -1.3394  2.6416 -0.0443
  704MOL0     H92916   3.014   1.684   7.797 -0.4088 -1.0949  0.2383
  704MOL0     H92917   3.214   1.728   7.660  0.1163 -2.3004 -0.2230
  704MOL0     H92918   3.390   1.769   7.482  0.7413 -3.3749 -3.1043
  704MOL0     H92919   3.274   1.900   7.492  1.3482  0.6430  0.1192
  704MOL0     H92920   3.437   1.791   7.256  0.8666  1.7162 -1.1480
  704MOL0     H92921   3.315   1.918   7.235  1.0123 -2.2512 -1.9217
  704MOL0     H92922   3.563   1.950   7.405 -0.6918  2.2216  0.9194
  704MOL0     H92923   3.448   2.075   7.365 -0.3766  1.4377 -2.1571
  704MOL0     H92924   3.615   1.938   7.143  2.3133  1.1850 -0.4420
  704MOL0     H92925   3.511   2.075   7.123  0.3029  1.3497 -0.5302
  704MOL0     H92926   3.867   2.263   7.243 -2.2938  2.9615  2.7419
  704MOL0     H92927   2.996   1.665   7.294 -0.7798  0.4414 -0.6127
  704MOL0     H92928   2.797   1.609   7.429  1.3031  1.0175 -1.6550
  705MOL0     O92929   1.883   7.903   6.122  0.3422  0.7045 -0.5759
  705MOL0     C92930   1.901   8.010   6.179  0.3249 -0.2243  0.4381
  705MOL0     O92931   1.868   8.134   6.125  0.5001 -1.1629 -0.6318
  705MOL0     C92932   1.774   8.149   6.020  0.2001 -0.4128 -0.3496
  705MOL0     C92933   1.663   8.070   5.995  0.2542 -0.5313 -0.5377
  705MOL0     C92934   1.566   8.114   5.912  0.8948  0.5214  1.0082
  705MOL0     C92935   1.580   8.232   5.845 -0.4452  0.5211  0.1129
  705MOL0     O92936   1.469   8.266   5.764  0.2119  0.6269 -0.0919
  705MOL0     C92937   1.504   8.340   5.647  0.1980 -0.5815 -0.1156
  705MOL0     C92938   1.386   8.367   5.556  0.0546 -0.2758  0.8919
  705MOL0     C92939   1.431   8.430   5.416  0.1421 -0.2267  0.3867
  705MOL0     C92940   1.509   8.558   5.423 -0.6581  0.6536  0.6299
  705MOL0     C92941   1.549   8.602   5.277  0.7775  0.0863  0.4630
  705MOL0     C92942   1.663   8.713   5.279  0.1752  0.2536 -0.4839
  705MOL0     C92943   1.693   8.761   5.138  0.7622 -0.1878  0.1563
  705MOL0     C92944   1.759   8.892   5.149 -0.3730 -0.1720 -1.4591
  705MOL0     N92945   1.885   8.871   5.225 -0.3169  0.0905 -0.7477
  705MOL0     C92946   1.997   8.818   5.168  1.2388 -0.4835  0.6155
  705MOL0     C92947   2.089   8.827   5.269 -0.6084  0.4117  0.8652
  705MOL0     C92948   2.229   8.776   5.259 -0.4592  0.1856 -0.3451
  705MOL0     C92949   2.334   8.878   5.208 -0.5730  0.2154  0.5249
  705MOL0     C92950   2.336   9.002   5.296 -0.3081  0.2235 -0.3991
  705MOL0     C92951   2.449   9.098   5.252 -0.6266 -0.0865 -0.6224
  705MOL0     O92952   2.572   9.021   5.287  0.3006 -0.3991 -0.3477
  705MOL0     C92953   2.689   9.069   5.236 -1.1776  0.0803  0.4540
  705MOL0     C92954   2.717   9.197   5.182  0.5504  1.1228 -0.5529
  705MOL0     C92955   2.845   9.235   5.145 -0.1611 -0.3469 -0.3671
  705MOL0     C92956   2.952   9.146   5.148 -0.2379  0.7994 -0.8249
  705MOL0     C92957   3.083   9.195   5.088  0.0557  0.2430 -0.1792
  705MOL0     O92958   3.157   9.097   5.019  0.5164  0.0894 -0.4389
  705MOL0     C92959   3.275   9.141   4.972  0.3417  0.1247 -0.6513
  705MOL0     C92960   3.381   9.176   5.060  0.3363  0.1794  0.0933
  705MOL0     C92961   3.507   9.199   5.001  0.5706 -0.4140 -0.8256
  705MOL0     C92962   3.535   9.196   4.868  0.3406 -0.3995  0.3234
  705MOL0     O92963   3.665   9.216   4.835 -0.0416 -0.3494  0.2441
  705MOL0     C92964   3.691   9.247   4.693  0.9432  0.5925  1.0001
  705MOL0     C92965   3.845   9.230   4.669  0.1052  0.0505  0.0028
  705MOL0     C92966   3.928   9.334   4.742  0.8512  0.8314  0.0766
  705MOL0     C92967   4.064   9.368   4.687 -0.0048  0.0627 -0.3699
  705MOL0     C92968   4.139   9.479   4.763 -0.0131  0.0877 -0.7419
  705MOL0     C92969   4.293   9.471   4.742  0.1678  0.0343  0.1245
  705MOL0     C92970   4.351   9.607   4.782  0.3998 -0.2827 -0.0728
  705MOL0     C92971   4.497   9.596   4.770 -0.5479  0.5635  0.1780
  705MOL0    Cl92972   4.544   9.570   4.591 -0.0978  0.3703 -0.1408
  705MOL0     C92973   3.419   9.183   4.784 -0.4775 -0.6341  0.0583
  705MOL0     C92974   3.301   9.142   4.840  0.2321  0.2308  0.8038
  705MOL0     O92975   3.120   9.310   5.099 -0.8417 -0.5831 -0.5075
  705MOL0     C92976   2.923   9.019   5.202 -0.3717  0.6322  0.1461
  705MOL0     C92977   2.797   8.985   5.250  0.3581 -0.7982  0.8757
  705MOL0     N92978   2.028   8.885   5.382 -0.2009 -0.0333 -0.3682
  705MOL0     N92979   1.908   8.916   5.355  0.2298  0.4103  0.2331
  705MOL0     C92980   1.696   8.309   5.850 -0.6928 -0.4191 -0.7047
  705MOL0     C92981   1.793   8.265   5.940  0.1700  0.5397 -0.5108
  705MOL0     C92982   1.983   8.007   6.304  0.2940  0.0298 -0.3829
  705MOL0     C92983   2.001   8.128   6.373 -0.1932 -0.3309 -0.1424
  705MOL0     C92984   2.062   8.136   6.494 -0.4863 -0.2213  0.8942
  705MOL0     C92985   2.124   8.022   6.547 -0.1707 -0.7820  0.1968
  705MOL0     O92986   2.191   8.029   6.670  0.2463 -0.4240  0.0085
  705MOL0     C92987   2.253   8.144   6.722  0.5917 -0.2040 -0.3503
  705MOL0     C92988   2.321   8.095   6.848  0.4728  0.0589 -0.2771
  705MOL0     C92989   2.400   8.206   6.908  0.2226  0.0066 -0.0473
  705MOL0     C92990   2.331   8.272   7.035 -0.1219 -0.5906  0.0606
  705MOL0     C92991   2.229   8.356   6.974  0.2468 -1.3287 -0.6279
  705MOL0     C92992   2.135   8.413   6.925 -0.6078 -0.0355 -0.9884
  705MOL0     C92993   2.116   7.901   6.481 -0.6634  0.2857  0.6878
  705MOL0     C92994   2.054   7.896   6.353 -1.2939  0.5767 -0.3935
  705MOL0     H92995   1.650   7.990   6.067  0.6158  0.8517  1.1223
  705MOL0     H92996   1.470   8.065   5.898  0.8478  0.8841  0.0419
  705MOL0     H92997   1.593   8.301   5.596  0.4877 -1.3298  0.9316
  705MOL0     H92998   1.533   8.441   5.676  1.1609 -1.5404  2.6392
  705MOL0     H92999   1.314   8.420   5.618 -0.6086 -1.5070  1.2192
  705MOL0     H93000   1.326   8.281   5.526 -1.2324  1.1183 -0.7093
  705MOL0     H93001   1.345   8.447   5.349  0.7473  0.0612 -0.3288
  705MOL0     H93002   1.496   8.352   5.377  0.9831  0.6084  0.0808
  705MOL0     H93003   1.444   8.635   5.466 -0.0956  1.4321  0.1200
  705MOL0     H93004   1.598   8.551   5.487 -0.5725 -1.5096  0.3554
  705MOL0     H93005   1.451   8.631   5.239  0.8044 -1.7450 -1.1373
  705MOL0     H93006   1.584   8.512   5.226  1.8105 -0.2203  1.6392
  705MOL0     H93007   1.751   8.673   5.329 -0.4052 -0.5547 -0.0812
  705MOL0     H93008   1.622   8.797   5.336  0.5465  0.0233  0.1310
  705MOL0     H93009   1.760   8.698   5.078 -1.1750  0.0105 -2.3686
  705MOL0     H93010   1.603   8.772   5.079 -0.9953  0.9305  2.8486
  705MOL0     H93011   1.707   8.968   5.208  3.3310  1.6622 -0.2097
  705MOL0     H93012   1.778   8.930   5.048  2.0511  0.6698 -0.7464
  705MOL0     H93013   2.001   8.776   5.068 -1.7677 -1.1348  0.6805
  705MOL0     H93014   2.237   8.689   5.192 -2.9001  0.0283 -0.5312
  705MOL0     H93015   2.269   8.751   5.357  0.2914 -1.2297 -0.9834
  705MOL0     H93016   2.319   8.918   5.107  1.1992  1.6341  0.7694
  705MOL0     H93017   2.435   8.836   5.214  0.9462  2.6326 -3.8295
  705MOL0     H93018   2.242   9.059   5.296  1.5741  3.5738 -0.9768
  705MOL0     H93019   2.358   8.976   5.400  0.2221 -2.3231 -1.0982
  705MOL0     H93020   2.440   9.194   5.304  1.2654  0.6748 -1.5997
  705MOL0     H93021   2.443   9.123   5.146  0.1786  2.5959 -0.1065
  705MOL0     H93022   2.640   9.274   5.174  0.6209  1.0238 -2.4989
  705MOL0     H93023   2.861   9.338   5.113 -0.8463 -0.3618 -0.7774
  705MOL0     H93024   3.358   9.170   5.166 -0.8940  1.4171 -0.0644
  705MOL0     H93025   3.594   9.227   5.061 -1.7982 -0.4794  3.0109
  705MOL0     H93026   3.652   9.346   4.667 -0.2858 -0.1392 -0.0448
  705MOL0     H93027   3.644   9.178   4.622  3.4071  0.6111 -0.7953
  705MOL0     H93028   3.865   9.239   4.562  0.7989 -1.2650  0.0131
  705MOL0     H93029   3.870   9.128   4.700 -1.1209 -0.3159 -0.1515
  705MOL0     H93030   3.922   9.303   4.846 -0.4923 -2.5859 -0.8726
  705MOL0     H93031   3.871   9.428   4.746 -0.9629 -0.2463  2.6494
  705MOL0     H93032   4.123   9.276   4.693 -2.1198 -1.3827 -0.4324
  705MOL0     H93033   4.058   9.390   4.580 -1.4767 -0.4482 -0.4228
  705MOL0     H93034   4.122   9.482   4.871  0.8097 -1.3991 -0.5397
  705MOL0     H93035   4.095   9.574   4.733 -0.9948 -0.1286 -0.0448
  705MOL0     H93036   4.319   9.441   4.640  1.2257  0.7045  0.1836
  705MOL0     H93037   4.334   9.392   4.806  0.7296 -0.4637 -0.8233
  705MOL0     H93038   4.321   9.685   4.711  1.6316  1.1249  0.8980
  705MOL0     H93039   4.320   9.627   4.885  1.6569  2.0151 -0.0901
  705MOL0     H93040   4.538   9.512   4.826 -0.7365  0.4751  0.1863
  705MOL0     H93041   4.543   9.687   4.809  0.0871  0.2402  0.1830
  705MOL0     H93042   3.423   9.177   4.675 -0.1231 -2.8602  0.1590
  705MOL0     H93043   3.222   9.126   4.767  2.6367 -0.0087 -1.9487
  705MOL0     H93044   3.001   8.944   5.210  0.2172  1.3184  1.0969
  705MOL0     H93045   2.769   8.891   5.294 -3.4911  0.4872  1.4974
  705MOL0     H93046   1.711   8.397   5.788  1.2366 -1.5801 -1.9772
  705MOL0     H93047   1.880   8.331   5.938  0.4478  0.1769 -0.4865
  705MOL0     H93048   1.963   8.218   6.326  0.1139 -1.0674 -1.8834
  705MOL0     H93049   2.077   8.234   6.537  3.0502  0.3641 -1.2527
  705MOL0     H93050   2.188   8.227   6.749  0.0868 -1.1484  1.5124
  705MOL0     H93051   2.331   8.181   6.655 -1.1579 -1.2392 -3.1432
  705MOL0     H93052   2.248   8.068   6.924 -1.1869  0.8082 -1.5406
  705MOL0     H93053   2.375   8.001   6.831  1.1152  0.3345  0.1733
  705MOL0     H93054   2.433   8.286   6.842 -1.2676 -0.6236 -1.6378
  705MOL0     H93055   2.486   8.150   6.945  0.3661 -0.0018 -0.3960
  705MOL0     H93056   2.290   8.194   7.101  2.3939 -0.2115  2.2204
  705MOL0     H93057   2.391   8.340   7.096 -1.7064  3.0771 -2.1367
  705MOL0     H93058   2.045   8.448   6.878  0.0538  2.1854 -0.7394
  705MOL0     H93059   2.169   7.821   6.531 -1.4591 -0.2184  0.7439
  705MOL0     H93060   2.063   7.803   6.298  0.7682 -0.1853  1.1089
  706MOL0     O93061   0.512   6.100   0.770  0.1094 -0.3536 -0.3358
  706MOL0     C93062   0.536   6.018   0.857  0.1523 -0.4904  0.1877
  706MOL0     O93063   0.492   5.890   0.856 -0.7153 -0.7645 -0.2654
  706MOL0     C93064   0.439   5.855   0.736  0.0109 -0.9423 -0.5330
  706MOL0     C93065   0.519   5.813   0.622 -0.4104 -0.4803 -0.2502
  706MOL0     C93066   0.455   5.772   0.512  0.2196  0.0441 -0.5852
  706MOL0     C93067   0.317   5.788   0.489 -0.4430  0.2909  0.7810
  706MOL0     O93068   0.260   5.752   0.370  0.3861 -0.1878  0.0284
  706MOL0     C93069   0.133   5.799   0.326 -0.2140  0.2943 -0.5033
  706MOL0     C93070   0.102   5.754   0.184 -0.4823  0.1681 -0.2443
  706MOL0     C93071  -0.046   5.786   0.156 -0.5000 -0.7438  0.6888
  706MOL0     C93072  -0.085   5.770   0.018  0.7088 -0.3816 -1.0075
  706MOL0     C93073  -0.242   5.796   0.015 -0.1912 -0.5887  0.0081
  706MOL0     C93074  -0.291   5.792  -0.128 -0.5742  0.2271  0.1582
  706MOL0     C93075  -0.442   5.838  -0.136  0.0153  0.5751  0.3414
  706MOL0     C93076  -0.539   5.742  -0.068 -0.3240  0.4434 -1.0202
  706MOL0     N93077  -0.675   5.779  -0.104  0.3904 -0.5254  0.0686
  706MOL0     C93078  -0.738   5.767  -0.229  0.3569  0.4472  0.0983
  706MOL0     C93079  -0.862   5.824  -0.214  0.2282  0.3295  1.5367
  706MOL0     C93080  -0.980   5.832  -0.307 -0.5410  0.6812  0.4750
  706MOL0     C93081  -1.117   5.844  -0.244  0.3278  0.1830  1.0497
  706MOL0     C93082  -1.228   5.872  -0.355  0.1601 -0.1164 -0.0867
  706MOL0     C93083  -1.373   5.843  -0.304 -0.2753 -0.2596 -0.0573
  706MOL0     O93084  -1.457   5.861  -0.413  0.2004  0.0727 -0.4515
  706MOL0     C93085  -1.583   5.814  -0.399  0.1404  0.7828  0.2124
  706MOL0     C93086  -1.636   5.772  -0.273  0.1114  0.1886  0.2337
  706MOL0     C93087  -1.754   5.705  -0.263  0.7294 -0.3391 -0.6618
  706MOL0     C93088  -1.843   5.696  -0.370 -0.4134  0.2579  0.5027
  706MOL0     C93089  -1.975   5.622  -0.362  0.4950  1.5687 -0.3835
  706MOL0     O93090  -2.021   5.591  -0.239  0.0654  0.2737 -0.6582
  706MOL0     C93091  -2.155   5.570  -0.205  0.2717 -0.0701  0.6588
  706MOL0     C93092  -2.251   5.666  -0.223 -0.6872  0.0687  0.0166
  706MOL0     C93093  -2.381   5.653  -0.175  0.6091  0.0270  0.7860
  706MOL0     C93094  -2.428   5.540  -0.120 -0.4056  1.3456  0.6017
  706MOL0     O93095  -2.556   5.520  -0.085 -0.0581 -0.5803 -0.2671
  706MOL0     C93096  -2.657   5.601  -0.136  0.3360 -0.7540 -0.1726
  706MOL0     C93097  -2.695   5.575  -0.287 -0.1322 -0.5851  0.4791
  706MOL0     C93098  -2.827   5.648  -0.332 -0.3304 -0.5093 -0.5334
  706MOL0     C93099  -2.951   5.576  -0.284 -0.0431 -0.3760 -0.3835
  706MOL0     C93100  -3.066   5.589  -0.374  0.7869 -0.0153  0.5703
  706MOL0     C93101  -3.177   5.486  -0.334  0.4888 -0.2325 -0.2240
  706MOL0     C93102  -3.252   5.525  -0.207 -0.1641  0.4482 -0.4502
  706MOL0     C93103  -3.389   5.475  -0.204  0.4367 -0.0963  0.2267
  706MOL0    Cl93104  -3.498   5.556  -0.319 -0.4015  0.7548 -0.3169
  706MOL0     C93105  -2.335   5.430  -0.112 -0.0623 -0.4040  0.2348
  706MOL0     C93106  -2.197   5.448  -0.155  0.4866 -0.4568  0.4999
  706MOL0     O93107  -2.047   5.606  -0.462 -0.6148  0.3013  0.3294
  706MOL0     C93108  -1.790   5.739  -0.496  0.3113 -0.7315  0.8101
  706MOL0     C93109  -1.665   5.795  -0.511 -0.5654 -0.5255 -0.0700
  706MOL0     N93110  -0.869   5.854  -0.077 -0.2747  0.0795  0.5679
  706MOL0     N93111  -0.756   5.831  -0.016 -0.2275 -0.3391  0.1102
  706MOL0     C93112   0.246   5.847   0.588 -0.3991  0.0884 -0.9402
  706MOL0     C93113   0.300   5.866   0.716  0.3362  0.0107  0.0252
  706MOL0     C93114   0.616   6.069   0.968 -0.1819 -0.2107  0.5909
  706MOL0     C93115   0.720   6.161   0.943 -0.3600  0.5847 -0.9336
  706MOL0     C93116   0.811   6.197   1.046 -0.3838 -0.6288  0.1975
  706MOL0     C93117   0.796   6.141   1.175  0.2766 -0.2374  0.7951
  706MOL0     O93118   0.882   6.167   1.286 -0.2802  0.4436 -0.1941
  706MOL0     C93119   1.016   6.219   1.269  0.2286  0.6487  0.4281
  706MOL0     C93120   1.078   6.226   1.408 -0.0942  0.2318  0.2708
  706MOL0     C93121   1.110   6.085   1.461 -0.4880 -0.2617 -0.2458
  706MOL0     C93122   1.185   6.079   1.602  0.1259 -0.4666 -0.0948
  706MOL0     C93123   1.333   6.082   1.589  0.3431 -0.2096 -0.1480
  706MOL0     C93124   1.453   6.064   1.582  0.4482 -0.0091  0.4925
  706MOL0     C93125   0.685   6.056   1.199 -0.2019  0.3203 -0.6103
  706MOL0     C93126   0.598   6.018   1.094 -0.8376 -0.1020 -0.5129
  706MOL0     H93127   0.626   5.795   0.624 -0.6352 -2.2969  2.6815
  706MOL0     H93128   0.524   5.738   0.436  1.5810  1.1382  0.1269
  706MOL0     H93129   0.126   5.908   0.327 -2.0284  0.2388  1.6028
  706MOL0     H93130   0.057   5.769   0.398  1.7394  0.4838  1.7696
  706MOL0     H93131   0.104   5.648   0.157  0.0559  0.1784 -0.2617
  706MOL0     H93132   0.178   5.809   0.127  0.7591 -0.2585  0.9428
  706MOL0     H93133  -0.061   5.893   0.170 -0.5218 -0.5365 -0.8275
  706MOL0     H93134  -0.114   5.736   0.227 -2.4440  1.9631  0.8652
  706MOL0     H93135  -0.028   5.838  -0.046  2.2953 -0.1454  0.5630
  706MOL0     H93136  -0.063   5.667  -0.011 -1.2069 -0.6109 -1.7787
  706MOL0     H93137  -0.263   5.897   0.052  1.4066 -1.5725  4.1973
  706MOL0     H93138  -0.290   5.725   0.083  2.3312 -0.0363  2.5867
  706MOL0     H93139  -0.289   5.686  -0.154 -0.1394  0.3362 -0.2797
  706MOL0     H93140  -0.217   5.845  -0.189  1.3996 -2.1897  0.2703
  706MOL0     H93141  -0.454   5.938  -0.092 -1.4281  0.9219 -0.7705
  706MOL0     H93142  -0.477   5.847  -0.239 -1.3393  0.5353  0.7840
  706MOL0     H93143  -0.511   5.739   0.037 -1.6161 -0.6755 -0.6645
  706MOL0     H93144  -0.520   5.637  -0.090 -1.8790  0.1382 -1.0419
  706MOL0     H93145  -0.707   5.706  -0.313  0.2019  0.4542  0.0378
  706MOL0     H93146  -0.979   5.743  -0.370 -1.2694  1.8735 -1.3265
  706MOL0     H93147  -0.959   5.918  -0.372  2.6225 -0.0320  0.3841
  706MOL0     H93148  -1.129   5.927  -0.174 -1.1102  0.4734  0.5019
  706MOL0     H93149  -1.129   5.741  -0.209 -0.9630  0.0094  0.1680
  706MOL0     H93150  -1.215   5.977  -0.381 -1.4887  0.6648  1.9797
  706MOL0     H93151  -1.207   5.806  -0.440  1.1662  0.5291 -0.3577
  706MOL0     H93152  -1.398   5.909  -0.220 -2.1123 -1.6883  0.5770
  706MOL0     H93153  -1.371   5.743  -0.262  1.2492 -0.9945 -1.7563
  706MOL0     H93154  -1.575   5.791  -0.186 -2.3703  3.1645  1.5589
  706MOL0     H93155  -1.782   5.678  -0.162  0.6358  1.5457 -0.1551
  706MOL0     H93156  -2.220   5.750  -0.285 -0.0215 -0.9109 -1.0244
  706MOL0     H93157  -2.448   5.730  -0.210  0.3652 -0.1469  0.8735
  706MOL0     H93158  -2.646   5.709  -0.125 -2.3233 -0.4382  0.0745
  706MOL0     H93159  -2.749   5.589  -0.077 -1.8527  1.6135 -2.8332
  706MOL0     H93160  -2.694   5.468  -0.306  2.2601 -0.7770  1.4301
  706MOL0     H93161  -2.623   5.620  -0.356 -0.9654 -1.3648 -0.9349
  706MOL0     H93162  -2.827   5.646  -0.442 -0.0769 -2.0681 -0.5351
  706MOL0     H93163  -2.842   5.752  -0.304  0.4554  0.3029 -2.9120
  706MOL0     H93164  -2.921   5.473  -0.266  2.7465  0.4738  0.3328
  706MOL0     H93165  -2.984   5.611  -0.185  0.6592  0.3900 -0.4086
  706MOL0     H93166  -3.028   5.566  -0.473  0.4976 -1.3270  0.7423
  706MOL0     H93167  -3.102   5.693  -0.379  2.0033  0.4885  1.8122
  706MOL0     H93168  -3.135   5.388  -0.314 -1.5518 -1.5622 -1.9804
  706MOL0     H93169  -3.242   5.477  -0.421  1.2076  0.4295 -0.8468
  706MOL0     H93170  -3.214   5.475  -0.117 -3.5031  1.4085  1.7034
  706MOL0     H93171  -3.242   5.631  -0.183 -0.2194  0.2660  0.4145
  706MOL0     H93172  -3.437   5.481  -0.106 -2.2682  0.8309 -1.0455
  706MOL0     H93173  -3.387   5.368  -0.226 -2.9476  0.3829 -3.7897
  706MOL0     H93174  -2.358   5.335  -0.066 -1.1453  0.2397  1.0753
  706MOL0     H93175  -2.113   5.379  -0.145  3.2566  2.7792  1.3511
  706MOL0     H93176  -1.837   5.724  -0.593  0.9736 -0.5800  0.4659
  706MOL0     H93177  -1.608   5.811  -0.602  1.3717  1.9439  1.4462
  706MOL0     H93178   0.139   5.860   0.578 -0.2749  2.8497  0.4851
  706MOL0     H93179   0.233   5.898   0.795 -1.0248 -3.0077  0.2318
  706MOL0     H93180   0.746   6.194   0.843  5.1766 -0.5513 -0.1813
  706MOL0     H93181   0.891   6.269   1.032 -2.9886  2.2462 -1.0478
  706MOL0     H93182   1.010   6.323   1.235 -0.3515  0.6543  0.5347
  706MOL0     H93183   1.077   6.151   1.209  0.2800  1.0358  0.0355
  706MOL0     H93184   1.171   6.281   1.401  0.6134 -1.0433 -1.0613
  706MOL0     H93185   1.006   6.274   1.474 -3.6408 -2.3446 -1.3459
  706MOL0     H93186   1.169   6.028   1.390 -0.9327 -1.6357  0.4408
  706MOL0     H93187   1.015   6.031   1.469 -0.9909  0.4770 -0.9803
  706MOL0     H93188   1.149   6.162   1.664 -0.2074 -0.4982 -0.2457
  706MOL0     H93189   1.152   5.985   1.646 -2.2624 -0.5855 -1.8997
  706MOL0     H93190   1.559   6.052   1.572  1.0489  4.3818 -0.7877
  706MOL0     H93191   0.679   6.027   1.303  1.0129  2.4577  0.1246
  706MOL0     H93192   0.511   5.963   1.126 -2.2109  1.0827 -2.0271
  707MOL0     O93193   5.412   8.216   0.660  0.1148 -0.0357 -0.4596
  707MOL0     C93194   5.448   8.133   0.580  0.2914 -0.5093 -0.2998
  707MOL0     O93195   5.358   8.044   0.529  0.2596 -0.6746  1.0720
  707MOL0     C93196   5.225   8.056   0.554 -0.2302  0.0853 -0.3505
  707MOL0     C93197   5.136   8.123   0.465 -0.2372  0.4330 -0.2919
  707MOL0     C93198   5.007   8.141   0.495  0.4224 -0.6620 -0.2039
  707MOL0     C93199   4.956   8.095   0.622  0.4801 -0.0686 -0.0911
  707MOL0     O93200   4.827   8.138   0.632 -0.1445 -0.3461 -0.4114
  707MOL0     C93201   4.763   8.164   0.750  0.4749  0.5588 -0.2665
  707MOL0     C93202   4.628   8.220   0.729 -0.4169 -0.1904 -0.0387
  707MOL0     C93203   4.539   8.135   0.643 -0.1813 -0.5600 -0.1072
  707MOL0     C93204   4.396   8.195   0.628  0.0008  0.0967 -0.5114
  707MOL0     C93205   4.302   8.099   0.553  0.4898  0.1175  0.6429
  707MOL0     C93206   4.241   7.987   0.635  1.3187  0.1816 -0.1346
  707MOL0     C93207   4.158   7.896   0.547  0.0417 -0.1399  0.3105
  707MOL0     C93208   4.018   7.952   0.543  0.0088 -0.7912  0.0926
  707MOL0     N93209   3.930   7.843   0.490 -0.4843  0.0416  0.4540
  707MOL0     C93210   3.935   7.792   0.365 -0.0415 -0.5439  0.3394
  707MOL0     C93211   3.851   7.685   0.369  0.8989 -0.1445  0.0772
  707MOL0     C93212   3.834   7.590   0.263  0.6284  0.4458  0.4023
  707MOL0     C93213   3.946   7.482   0.266  0.1401  0.7816  0.0588
  707MOL0     C93214   3.933   7.389   0.150  0.2684 -0.0420 -0.0192
  707MOL0     C93215   3.793   7.320   0.137 -0.6925 -0.7469  0.3627
  707MOL0     O93216   3.735   7.294   0.265 -0.0663 -0.1319  0.0515
  707MOL0     C93217   3.606   7.257   0.273  0.9210 -0.8825  0.3808
  707MOL0     C93218   3.541   7.147   0.207 -0.4712 -0.8497  0.1683
  707MOL0     C93219   3.406   7.125   0.215  1.0345 -0.9602 -0.4111
  707MOL0     C93220   3.317   7.222   0.265  0.1916  0.2308  0.7816
  707MOL0     C93221   3.167   7.201   0.263  0.3398 -0.6094 -0.3626
  707MOL0     O93222   3.115   7.075   0.254  0.1206  0.2579  0.9907
  707MOL0     C93223   2.983   7.061   0.225 -0.5830 -0.4101 -0.1437
  707MOL0     C93224   2.884   7.123   0.303  0.1498  1.0262  0.3376
  707MOL0     C93225   2.748   7.115   0.274 -0.1989  0.5876  0.0660
  707MOL0     C93226   2.702   7.054   0.158 -0.1262  1.0394 -0.7070
  707MOL0     O93227   2.570   7.036   0.112  0.0626 -0.6518 -0.4740
  707MOL0     C93228   2.469   7.047   0.218  0.1322  0.2368  0.2210
  707MOL0     C93229   2.471   6.922   0.306  0.4398 -0.5542  0.5464
  707MOL0     C93230   2.386   6.812   0.246  0.1033  0.2421  0.7027
  707MOL0     C93231   2.381   6.704   0.355 -0.0614 -0.0346 -0.0802
  707MOL0     C93232   2.319   6.578   0.307 -0.1933  0.4816  0.4172
  707MOL0     C93233   2.165   6.581   0.303 -0.0802  0.7812 -0.1551
  707MOL0     C93234   2.112   6.439   0.275 -0.3533 -0.5704 -0.1881
  707MOL0     C93235   1.967   6.447   0.235  0.1234 -0.9781 -0.1075
  707MOL0    Cl93236   1.933   6.293   0.164  0.2012 -0.0228 -0.0104
  707MOL0     C93237   2.804   6.999   0.073  0.8790  0.4358 -0.9141
  707MOL0     C93238   2.943   7.004   0.105 -0.1213  0.0734 -0.7243
  707MOL0     O93239   3.104   7.306   0.256 -0.1694 -0.2614  0.2689
  707MOL0     C93240   3.380   7.333   0.325  0.0137 -0.4387  0.7749
  707MOL0     C93241   3.520   7.356   0.331 -0.4930 -0.5912  0.2606
  707MOL0     N93242   3.783   7.684   0.490  0.4288 -1.0939  0.1212
  707MOL0     N93243   3.835   7.777   0.561  0.0048 -0.1056 -0.1526
  707MOL0     C93244   5.037   8.027   0.711 -1.4518 -0.0210  0.3855
  707MOL0     C93245   5.170   7.997   0.670  0.2668 -0.7918 -0.0072
  707MOL0     C93246   5.580   8.139   0.512 -0.7375 -0.0190  0.3769
  707MOL0     C93247   5.613   8.048   0.411 -0.3965 -0.7769 -0.6924
  707MOL0     C93248   5.743   8.064   0.347 -0.4473  1.2481 -0.8972
  707MOL0     C93249   5.835   8.149   0.401 -0.1641  0.3439  0.7281
  707MOL0     O93250   5.957   8.148   0.346 -0.4049 -0.6295 -0.0004
  707MOL0     C93251   6.069   8.214   0.400 -0.0383  0.3795  0.1772
  707MOL0     C93252   6.206   8.213   0.331  0.5202 -0.1117 -0.6324
  707MOL0     C93253   6.194   8.263   0.186 -0.3252  0.5193 -0.0327
  707MOL0     C93254   6.332   8.334   0.148 -0.1991 -0.0548  0.4370
  707MOL0     C93255   6.456   8.256   0.165  1.1687 -0.2783  0.0538
  707MOL0     C93256   6.557   8.197   0.178  0.2761 -0.7250  0.3371
  707MOL0     C93257   5.806   8.229   0.507  0.6936 -0.5551  0.4097
  707MOL0     C93258   5.675   8.225   0.561  0.2753 -0.3083 -0.7466
  707MOL0     H93259   5.177   8.165   0.374  0.4169  0.7628  0.1497
  707MOL0     H93260   4.940   8.206   0.438  1.4168  3.3637  2.7464
  707MOL0     H93261   4.816   8.223   0.826  1.3383 -0.8936  0.3004
  707MOL0     H93262   4.746   8.068   0.800  0.1732 -0.9333 -3.0460
  707MOL0     H93263   4.639   8.319   0.685  0.4086  0.4806  1.5941
  707MOL0     H93264   4.573   8.247   0.820 -1.6273 -2.0651 -0.1595
  707MOL0     H93265   4.532   8.034   0.685  0.5938 -0.8328 -0.6105
  707MOL0     H93266   4.586   8.127   0.545  1.3484 -1.3052  0.6542
  707MOL0     H93267   4.348   8.215   0.724 -1.9781 -0.0583 -1.4206
  707MOL0     H93268   4.408   8.286   0.568 -1.5246  0.7455  0.0965
  707MOL0     H93269   4.363   8.050   0.477  0.0886  0.1166  0.3174
  707MOL0     H93270   4.228   8.167   0.511  1.7797  1.3705  0.3020
  707MOL0     H93271   4.181   8.021   0.720 -1.2135 -0.4454 -1.5995
  707MOL0     H93272   4.317   7.916   0.669  1.1587  0.2646  0.4103
  707MOL0     H93273   4.203   7.897   0.447  1.8222  1.3873  1.0792
  707MOL0     H93274   4.160   7.794   0.586 -1.4234  0.5527  2.3862
  707MOL0     H93275   4.009   8.049   0.495 -1.4779 -1.0790 -0.2562
  707MOL0     H93276   3.992   7.971   0.648 -1.3948  0.8712 -0.5161
  707MOL0     H93277   3.985   7.830   0.276 -1.3434 -0.3190 -0.3237
  707MOL0     H93278   3.848   7.636   0.164  0.9650 -2.5376 -1.0444
  707MOL0     H93279   3.731   7.552   0.262  1.4191 -1.8676  1.3345
  707MOL0     H93280   3.942   7.431   0.363 -2.4721 -0.8441 -0.7836
  707MOL0     H93281   4.042   7.524   0.234  0.2577 -2.2977 -4.5511
  707MOL0     H93282   3.948   7.439   0.054 -2.1772 -2.4846 -1.8313
  707MOL0     H93283   4.007   7.308   0.153  0.4875  0.0902 -1.4415
  707MOL0     H93284   3.801   7.232   0.073 -3.4452 -0.1146 -0.9674
  707MOL0     H93285   3.726   7.395   0.096  1.6213  1.8268  0.9868
  707MOL0     H93286   3.601   7.080   0.146  2.0126  2.1875 -0.9971
  707MOL0     H93287   3.363   7.039   0.165  0.9186 -1.8711  1.1721
  707MOL0     H93288   2.917   7.175   0.393  0.6383  2.0743 -0.4309
  707MOL0     H93289   2.670   7.160   0.335 -1.0735 -1.5078  0.5837
  707MOL0     H93290   2.372   7.052   0.168  0.0685 -0.2037  0.2981
  707MOL0     H93291   2.474   7.138   0.277 -0.6418 -0.6769  1.7562
  707MOL0     H93292   2.424   6.954   0.399 -1.0075  0.3195 -0.4391
  707MOL0     H93293   2.573   6.888   0.328  1.1412  0.0574 -1.4599
  707MOL0     H93294   2.421   6.770   0.151 -3.3983  0.7938 -0.9943
  707MOL0     H93295   2.296   6.861   0.209  1.7689  1.0359 -2.7991
  707MOL0     H93296   2.485   6.679   0.376 -0.0031 -1.2539 -1.7064
  707MOL0     H93297   2.332   6.733   0.449 -1.8831 -1.0402 -0.6562
  707MOL0     H93298   2.356   6.503   0.378  1.2374  0.8384  0.0902
  707MOL0     H93299   2.354   6.556   0.206  0.0494  2.2928  0.0593
  707MOL0     H93300   2.114   6.658   0.245 -3.8893 -0.5748  1.1220
  707MOL0     H93301   2.130   6.600   0.405  1.4242 -0.5393  0.6587
  707MOL0     H93302   2.171   6.391   0.196  0.6021  0.2319  0.0172
  707MOL0     H93303   2.116   6.377   0.365 -2.0497  1.3124  1.3097
  707MOL0     H93304   1.960   6.524   0.157 -0.5170  0.4592  1.3259
  707MOL0     H93305   1.898   6.469   0.317 -3.4899 -1.4956 -2.7688
  707MOL0     H93306   2.769   6.941  -0.012 -0.8835 -0.8555  0.6110
  707MOL0     H93307   3.008   6.962   0.029 -1.4330 -1.9449 -0.7995
  707MOL0     H93308   3.310   7.401   0.373 -0.2701  1.9020 -2.6101
  707MOL0     H93309   3.571   7.441   0.376 -0.7736 -0.4395  0.2944
  707MOL0     H93310   4.990   7.996   0.803  0.2845  3.3417  2.6099
  707MOL0     H93311   5.235   7.937   0.733 -1.4642 -0.3113  2.3629
  707MOL0     H93312   5.535   7.977   0.386 -1.3640 -0.3004  0.8156
  707MOL0     H93313   5.775   8.000   0.265  1.1973 -1.5479  1.7222
  707MOL0     H93314   6.087   8.163   0.496  1.0670 -0.1260 -0.2754
  707MOL0     H93315   6.041   8.319   0.414 -3.6638 -0.6959  2.6341
  707MOL0     H93316   6.284   8.272   0.381  0.6023  2.4672 -3.4697
  707MOL0     H93317   6.239   8.109   0.327  0.0736 -0.2140 -2.1676
  707MOL0     H93318   6.116   8.338   0.169 -0.4153  0.5554  0.5018
  707MOL0     H93319   6.174   8.186   0.112 -1.8957 -0.7062  1.5583
  707MOL0     H93320   6.335   8.385   0.051  1.6606 -1.1773 -0.1545
  707MOL0     H93321   6.349   8.422   0.211 -1.4017 -0.1756  0.9497
  707MOL0     H93322   6.641   8.132   0.188  0.8767 -0.3358 -1.7795
  707MOL0     H93323   5.877   8.302   0.543  0.3703 -0.3136  0.5540
  707MOL0     H93324   5.644   8.299   0.634 -0.8427  0.2040 -1.7086
  708MOL0     O93325   5.363  10.382   8.884 -0.0151  0.6293 -0.1647
  708MOL0     C93326   5.462  10.383   8.814 -0.0592  0.0962  0.0611
  708MOL0     O93327   5.465  10.379   8.670 -0.0536  0.5715 -0.0422
  708MOL0     C93328   5.339  10.392   8.603 -0.6333  0.4895  0.0272
  708MOL0     C93329   5.300  10.502   8.527 -0.3662  0.7927 -0.2655
  708MOL0     C93330   5.173  10.507   8.467  0.2800 -0.3322  0.3535
  708MOL0     C93331   5.078  10.409   8.492 -0.2408 -0.6510  0.1681
  708MOL0     O93332   4.945  10.411   8.441 -0.3191  0.2122 -1.1916
  708MOL0     C93333   4.925  10.490   8.323  0.2003  0.0722  0.1183
  708MOL0     C93334   4.799  10.459   8.243  0.5725  0.4577  0.9902
  708MOL0     C93335   4.660  10.458   8.314 -0.1165 -0.9067 -0.2221
  708MOL0     C93336   4.621  10.586   8.398  0.5304 -0.5544 -0.9703
  708MOL0     C93337   4.479  10.542   8.456 -0.2657  0.0492  0.1644
  708MOL0     C93338   4.354  10.547   8.372 -0.0278  0.2807 -0.2162
  708MOL0     C93339   4.241  10.490   8.444  0.6703  0.1492 -0.2424
  708MOL0     C93340   4.100  10.499   8.364 -0.1563 -0.4498  0.1298
  708MOL0     N93341   4.043  10.637   8.347  0.3828  0.4563  0.0123
  708MOL0     C93342   3.927  10.661   8.264 -0.8957  0.3139 -0.2873
  708MOL0     C93343   3.902  10.794   8.287  0.4383  0.3915 -0.2301
  708MOL0     C93344   3.801  10.876   8.217  1.0461 -0.2048  0.5366
  708MOL0     C93345   3.655  10.846   8.268 -0.7766  0.7308  0.4612
  708MOL0     C93346   3.598  10.717   8.200  0.0911 -0.3708 -0.2136
  708MOL0     C93347   3.462  10.693   8.270  0.3648  0.3295  0.1836
  708MOL0     O93348   3.357  10.760   8.211  0.1980  0.5472 -0.0892
  708MOL0     C93349   3.231  10.779   8.267 -0.6640  0.9219  0.4041
  708MOL0     C93350   3.134  10.833   8.189  0.1216  0.1730 -0.3390
  708MOL0     C93351   3.004  10.848   8.234  0.2357  0.1061 -1.0464
  708MOL0     C93352   2.973  10.821   8.366 -0.0483 -0.6867  0.4220
  708MOL0     C93353   2.835  10.855   8.427 -0.4615  1.3142  0.2487
  708MOL0     O93354   2.742  10.906   8.346 -0.2341 -1.1859 -0.1812
  708MOL0     C93355   2.604  10.919   8.379  0.1937 -0.9240  0.2550
  708MOL0     C93356   2.532  10.847   8.475 -0.0683  0.3246 -0.3505
  708MOL0     C93357   2.399  10.881   8.502 -0.7909 -0.0836 -0.6921
  708MOL0     C93358   2.330  10.963   8.418 -1.1938 -0.4809  0.0832
  708MOL0     O93359   2.203  11.000   8.437  0.3618 -0.0773 -0.5279
  708MOL0     C93360   2.190  11.091   8.545  0.8015 -0.0847  0.3450
  708MOL0     C93361   2.060  11.178   8.516 -0.5744 -0.6184 -0.0838
  708MOL0     C93362   2.016  11.275   8.629 -1.3042 -0.0177  0.6171
  708MOL0     C93363   1.977  11.204   8.762  0.0518 -0.7849 -0.1399
  708MOL0     C93364   1.940  11.318   8.859  1.1441  0.2255 -0.0528
  708MOL0     C93365   1.895  11.264   8.996  0.2140 -0.3315 -0.1673
  708MOL0     C93366   1.842  11.382   9.079 -0.3321  0.5161 -0.2769
  708MOL0     C93367   1.776  11.346   9.209  0.6202 -0.1927 -0.0030
  708MOL0    Cl93368   1.637  11.230   9.171 -0.0231 -0.3810  0.0228
  708MOL0     C93369   2.401  11.033   8.327  0.9636 -0.2214  0.7731
  708MOL0     C93370   2.534  11.017   8.307  0.5156 -0.1379  0.2532
  708MOL0     O93371   2.818  10.819   8.544 -0.1782 -1.0699  0.4857
  708MOL0     C93372   3.080  10.768   8.448  0.0110 -0.0763 -0.5598
  708MOL0     C93373   3.205  10.744   8.401  0.9644 -0.0494 -0.4740
  708MOL0     N93374   3.979  10.843   8.396 -0.4523  0.0047 -0.1486
  708MOL0     N93375   4.060  10.748   8.426  0.3267 -0.1011 -0.6287
  708MOL0     C93376   5.122  10.297   8.566  0.7119 -0.0833  0.2298
  708MOL0     C93377   5.248  10.285   8.617  0.1554  0.4500  1.6633
  708MOL0     C93378   5.591  10.409   8.873  0.0850 -0.2016 -0.0276
  708MOL0     C93379   5.607  10.400   9.010 -0.2258 -0.0265  0.3947
  708MOL0     C93380   5.735  10.432   9.069  0.1828 -0.1139  0.3338
  708MOL0     C93381   5.839  10.472   8.991 -0.4623 -0.2468  0.2264
  708MOL0     O93382   5.952  10.495   9.056 -0.7247 -0.5218 -0.1452
  708MOL0     C93383   6.070  10.529   8.983 -0.2755  1.0887 -0.1874
  708MOL0     C93384   6.177  10.576   9.087 -0.0591  1.3643  0.7811
  708MOL0     C93385   6.156  10.722   9.122 -0.3039  0.5556  0.2761
  708MOL0     C93386   6.283  10.771   9.197  0.0432  0.2592  0.3249
  708MOL0     C93387   6.253  10.908   9.242  0.9556  0.2103  0.4155
  708MOL0     C93388   6.227  11.020   9.287  0.3452  0.7463  0.1946
  708MOL0     C93389   5.830  10.478   8.851  0.5759  0.5603  0.2576
  708MOL0     C93390   5.707  10.446   8.795  0.8069 -0.0968  0.4860
  708MOL0     H93391   5.358  10.592   8.512 -0.0958  0.5927 -0.4181
  708MOL0     H93392   5.158  10.592   8.402 -0.6407  0.3311  1.3820
  708MOL0     H93393   5.007  10.473   8.252 -0.4044  1.3099 -0.9122
  708MOL0     H93394   4.925  10.596   8.349  1.9747 -0.2907  1.8348
  708MOL0     H93395   4.815  10.363   8.194  0.6633  0.7169  0.5140
  708MOL0     H93396   4.795  10.525   8.157  0.9325  0.0917  0.6910
  708MOL0     H93397   4.661  10.376   8.387 -2.4408 -0.9095 -0.1280
  708MOL0     H93398   4.586  10.432   8.238  0.0144  0.4178 -0.8335
  708MOL0     H93399   4.692  10.611   8.478  0.6040 -1.1831 -0.8305
  708MOL0     H93400   4.624  10.677   8.338  0.3614  1.0258  1.2637
  708MOL0     H93401   4.463  10.602   8.545  0.7498  0.6194 -0.0242
  708MOL0     H93402   4.497  10.436   8.479  0.6097 -0.4081 -2.2288
  708MOL0     H93403   4.376  10.491   8.281  0.1726 -0.3208  0.1915
  708MOL0     H93404   4.340  10.652   8.346  1.8011  0.9116  1.1600
  708MOL0     H93405   4.263  10.385   8.464 -1.0764 -0.3752 -0.8847
  708MOL0     H93406   4.237  10.540   8.541  0.1727  3.3582 -1.7460
  708MOL0     H93407   4.027  10.434   8.412 -1.3656 -1.2426 -2.5852
  708MOL0     H93408   4.119  10.453   8.266  0.6077 -4.9321  2.1333
  708MOL0     H93409   3.888  10.592   8.190 -1.2775  1.1717 -0.9045
  708MOL0     H93410   3.801  10.864   8.109 -2.4217 -0.8100  0.4848
  708MOL0     H93411   3.815  10.979   8.254 -0.9547  0.0085  0.8407
  708MOL0     H93412   3.592  10.932   8.241 -0.2338  0.6520 -1.1531
  708MOL0     H93413   3.660  10.843   8.378  2.2995  1.7148  0.4436
  708MOL0     H93414   3.593  10.731   8.092  0.3516 -3.0369 -0.6422
  708MOL0     H93415   3.660  10.633   8.233  0.0586 -0.4926 -0.4668
  708MOL0     H93416   3.471  10.724   8.374  1.0064  1.2978 -0.1468
  708MOL0     H93417   3.443  10.585   8.264  2.9848 -0.1290 -3.0566
  708MOL0     H93418   3.152  10.854   8.084 -1.0193 -0.6083 -0.7133
  708MOL0     H93419   2.922  10.886   8.175 -0.3532  0.5296  0.0157
  708MOL0     H93420   2.580  10.766   8.530  0.9559 -0.1886 -1.9313
  708MOL0     H93421   2.348  10.836   8.586 -1.2108  1.2595 -0.1909
  708MOL0     H93422   2.277  11.152   8.570  1.1154  0.0105 -0.9307
  708MOL0     H93423   2.167  11.024   8.629  1.7264  1.2235  1.6885
  708MOL0     H93424   1.977  11.107   8.508  0.4339 -2.1182  1.7053
  708MOL0     H93425   2.065  11.236   8.424 -0.3429  1.2064  1.0302
  708MOL0     H93426   1.932  11.334   8.592 -1.0879 -0.1796 -0.1379
  708MOL0     H93427   2.098  11.346   8.642 -2.5726  1.5610  0.2542
  708MOL0     H93428   1.886  11.148   8.737 -2.0471  2.2200  0.2081
  708MOL0     H93429   2.047  11.129   8.800 -0.6983 -1.8268 -0.7742
  708MOL0     H93430   1.866  11.387   8.817  0.4516  1.0922  2.4266
  708MOL0     H93431   2.031  11.376   8.878  3.0973 -2.6084 -0.1712
  708MOL0     H93432   1.974  11.222   9.059  1.1826 -0.1749 -1.2468
  708MOL0     H93433   1.819  11.187   8.981 -0.6545  0.4981 -0.0930
  708MOL0     H93434   1.923  11.453   9.100  1.2412 -0.5284 -2.4371
  708MOL0     H93435   1.763  11.433   9.023  4.2494  3.5993 -4.8007
  708MOL0     H93436   1.737  11.442   9.245 -2.4767 -0.5775 -2.0039
  708MOL0     H93437   1.850  11.313   9.282  1.5313  1.6252 -0.0329
  708MOL0     H93438   2.355  11.108   8.264  2.7797  0.2150 -0.1103
  708MOL0     H93439   2.588  11.071   8.230 -0.7429 -2.6897 -2.6370
  708MOL0     H93440   3.058  10.751   8.553 -0.9584 -0.3399 -0.7916
  708MOL0     H93441   3.280  10.713   8.473 -1.2679  0.3987  2.2180
  708MOL0     H93442   5.043  10.223   8.574  0.1084  0.1609 -2.5086
  708MOL0     H93443   5.275  10.188   8.657  0.6280  0.1473  0.6624
  708MOL0     H93444   5.521  10.379   9.074  0.9352  1.0471  2.4214
  708MOL0     H93445   5.734  10.423   9.177 -0.7979 -3.4799  0.1483
  708MOL0     H93446   6.051  10.617   8.920 -0.6099  0.5266 -0.8763
  708MOL0     H93447   6.110  10.437   8.940  1.0228  0.1221  2.8134
  708MOL0     H93448   6.171  10.515   9.177 -0.5820 -2.9306 -1.8757
  708MOL0     H93449   6.274  10.558   9.040 -0.0681  0.9237  0.9271
  708MOL0     H93450   6.070  10.740   9.187  0.0317  3.1138  0.0955
  708MOL0     H93451   6.137  10.779   9.030 -4.5446 -1.8870 -0.6313
  708MOL0     H93452   6.287  10.701   9.281 -0.7018 -0.7173 -0.4213
  708MOL0     H93453   6.371  10.759   9.133 -0.6251 -2.2483 -0.2307
  708MOL0     H93454   6.200  11.119   9.317 -2.5418  0.1076 -0.0162
  708MOL0     H93455   5.914  10.508   8.789  0.9182 -3.1306 -1.3405
  708MOL0     H93456   5.704  10.462   8.688 -0.5744  0.2297  0.5516
  709MOL0     O93457   8.269   7.083   4.295  0.4202  0.5973 -0.7785
  709MOL0     C93458   8.364   7.147   4.260 -0.0506  1.1379 -0.4195
  709MOL0     O93459   8.381   7.242   4.162  0.0261  0.0257  0.6282
  709MOL0     C93460   8.270   7.323   4.133  0.3166 -0.0191  0.3360
  709MOL0     C93461   8.156   7.333   4.215 -0.1901  0.2219 -0.0131
  709MOL0     C93462   8.057   7.413   4.171 -0.0347 -0.1253  0.8310
  709MOL0     C93463   8.060   7.477   4.048  0.7503  0.9558  0.0572
  709MOL0     O93464   7.950   7.555   4.015  0.4342  0.6448  0.3099
  709MOL0     C93465   7.947   7.612   3.881 -0.1449 -0.0276 -0.8031
  709MOL0     C93466   7.831   7.712   3.879 -0.0682 -0.1343  0.1590
  709MOL0     C93467   7.690   7.647   3.897  0.2170 -0.3017 -0.3354
  709MOL0     C93468   7.571   7.742   3.902  0.0413  0.0577  0.2732
  709MOL0     C93469   7.424   7.690   3.880  0.1921  0.0502  0.1355
  709MOL0     C93470   7.324   7.803   3.917 -0.5496 -0.0831  0.8955
  709MOL0     C93471   7.178   7.759   3.921 -0.1448  0.4583  0.0969
  709MOL0     C93472   7.093   7.874   3.939  0.2170 -0.0445 -1.2427
  709MOL0     N93473   6.952   7.840   3.964 -0.0236  0.7305  0.1861
  709MOL0     C93474   6.907   7.801   4.088 -0.3055 -0.2209  1.0704
  709MOL0     C93475   6.773   7.787   4.077  0.1460 -0.5471 -0.1083
  709MOL0     C93476   6.682   7.706   4.159 -0.8290 -0.0923 -1.2796
  709MOL0     C93477   6.598   7.780   4.255  0.0925 -0.7187  0.2162
  709MOL0     C93478   6.522   7.692   4.356  0.4273  0.3585 -0.6794
  709MOL0     C93479   6.429   7.588   4.299 -0.0386 -0.3188 -0.2595
  709MOL0     O93480   6.322   7.648   4.229  0.1031  0.1739 -0.1300
  709MOL0     C93481   6.210   7.570   4.233 -0.0167  0.2615  0.6060
  709MOL0     C93482   6.179   7.504   4.114  0.4057 -0.2174  0.2312
  709MOL0     C93483   6.063   7.427   4.107 -0.2737 -0.1093  0.3246
  709MOL0     C93484   5.975   7.417   4.212  0.3006  0.0569 -0.4439
  709MOL0     C93485   5.863   7.323   4.220  0.6427  0.5016  1.0115
  709MOL0     O93486   5.853   7.230   4.115 -0.4560 -0.4670  0.2802
  709MOL0     C93487   5.740   7.161   4.091  0.5944 -0.0833 -0.3618
  709MOL0     C93488   5.603   7.203   4.111 -0.5576 -0.1458  0.8316
  709MOL0     C93489   5.504   7.114   4.087 -0.0081  0.5951 -0.1362
  709MOL0     C93490   5.529   6.973   4.043  0.2779 -0.4582 -0.7737
  709MOL0     O93491   5.431   6.876   4.029 -0.6766  0.1735  0.2677
  709MOL0     C93492   5.333   6.871   4.138  0.4742  0.1309  0.1267
  709MOL0     C93493   5.267   6.733   4.135 -0.2304  0.6954  0.5204
  709MOL0     C93494   5.125   6.717   4.202 -0.1810  0.9063  0.0479
  709MOL0     C93495   5.035   6.627   4.119 -0.0140 -0.1009  0.2327
  709MOL0     C93496   4.891   6.605   4.163 -0.7882  0.7198 -0.2544
  709MOL0     C93497   4.806   6.733   4.171  0.7212 -0.7105  0.1664
  709MOL0     C93498   4.666   6.730   4.226 -0.6264  0.3530 -0.5761
  709MOL0     C93499   4.567   6.823   4.161 -0.3922 -0.1872 -0.3385
  709MOL0    Cl93500   4.506   6.767   3.998  0.0306 -0.4554 -0.0158
  709MOL0     C93501   5.656   6.946   4.008 -0.4064 -0.1498 -0.3723
  709MOL0     C93502   5.760   7.030   4.038 -1.1973  0.2096 -0.7444
  709MOL0     O93503   5.787   7.344   4.313  0.4391  0.7609 -0.7025
  709MOL0     C93504   6.012   7.484   4.337  0.3281  0.2750  0.2586
  709MOL0     C93505   6.131   7.551   4.345 -0.2400  1.1512  0.8670
  709MOL0     N93506   6.740   7.830   3.947 -0.7648  0.3638  0.5184
  709MOL0     N93507   6.842   7.860   3.878  0.1063 -0.1379  0.2508
  709MOL0     C93508   8.175   7.468   3.972 -0.2558 -0.2951 -0.1372
  709MOL0     C93509   8.291   7.403   4.024  0.0999  0.3272 -0.2739
  709MOL0     C93510   8.488   7.098   4.334  0.5829 -0.8937  0.1129
  709MOL0     C93511   8.479   7.011   4.438  0.1421  0.5379 -0.5221
  709MOL0     C93512   8.587   6.971   4.514 -0.0488  1.2492 -0.0371
  709MOL0     C93513   8.715   7.011   4.481 -0.0828 -0.7003  0.5525
  709MOL0     O93514   8.816   6.961   4.555  0.4484 -0.3203  0.4307
  709MOL0     C93515   8.948   7.011   4.530 -0.4946  1.2461 -0.7101
  709MOL0     C93516   9.026   7.007   4.653 -0.0227  0.4378 -0.2714
  709MOL0     C93517   9.165   7.078   4.658  0.9073 -0.3029 -1.3957
  709MOL0     C93518   9.159   7.215   4.614 -0.7008 -0.6019  0.7405
  709MOL0     C93519   9.066   7.313   4.685 -0.5099  0.5048 -0.3917
  709MOL0     C93520   8.995   7.379   4.757  0.5488 -0.0607  0.3038
  709MOL0     C93521   8.729   7.092   4.369 -0.0711 -0.9555 -0.4001
  709MOL0     C93522   8.619   7.144   4.300  0.6508  0.1369  0.1293
  709MOL0     H93523   8.146   7.290   4.315  1.0512 -1.5044 -0.5850
  709MOL0     H93524   7.971   7.438   4.232 -0.8726  0.1783 -0.4312
  709MOL0     H93525   7.932   7.538   3.802 -0.5367 -0.4591 -0.3286
  709MOL0     H93526   8.041   7.661   3.854  0.5531 -2.4395 -3.1937
  709MOL0     H93527   7.827   7.749   3.776  1.3188 -0.5093 -0.0577
  709MOL0     H93528   7.842   7.795   3.949  2.8348 -0.7642  0.6010
  709MOL0     H93529   7.686   7.585   3.987 -0.2237  0.2467  0.0240
  709MOL0     H93530   7.681   7.581   3.810 -1.1224  0.9838 -1.2247
  709MOL0     H93531   7.570   7.790   4.000  3.0793  0.7564  0.0626
  709MOL0     H93532   7.574   7.826   3.832 -0.1768  0.2730  0.5249
  709MOL0     H93533   7.419   7.607   3.950  0.8637  1.9609  2.5992
  709MOL0     H93534   7.402   7.652   3.780  1.5086  2.1340 -1.0302
  709MOL0     H93535   7.335   7.892   3.854  1.7814  1.6708  3.5468
  709MOL0     H93536   7.361   7.839   4.013 -0.1526 -0.8612  1.0478
  709MOL0     H93537   7.158   7.722   3.820  1.1982  2.4290 -0.9591
  709MOL0     H93538   7.166   7.681   3.997  0.0659  0.7698  0.4513
  709MOL0     H93539   7.112   7.944   3.857  2.6714  1.9256  0.8398
  709MOL0     H93540   7.140   7.925   4.024  0.2434 -1.5165 -0.3351
  709MOL0     H93541   6.975   7.775   4.169 -1.3721  2.5776  2.9978
  709MOL0     H93542   6.739   7.635   4.220 -1.2029 -0.1602 -1.0054
  709MOL0     H93543   6.613   7.647   4.098 -1.2287 -2.3060  1.1399
  709MOL0     H93544   6.525   7.836   4.195 -1.2444 -3.3419 -0.7841
  709MOL0     H93545   6.658   7.852   4.310 -0.5713  0.0577 -0.0608
  709MOL0     H93546   6.592   7.643   4.424  1.8006  2.7015 -0.3268
  709MOL0     H93547   6.465   7.767   4.412  0.4267 -1.7529  2.3814
  709MOL0     H93548   6.393   7.526   4.382 -0.0720 -0.3196 -0.2747
  709MOL0     H93549   6.480   7.515   4.235  0.6621  0.9042 -1.1255
  709MOL0     H93550   6.241   7.517   4.026  0.1957 -2.1154 -0.2513
  709MOL0     H93551   6.059   7.380   4.010  1.7377  0.5564 -0.1347
  709MOL0     H93552   5.579   7.308   4.119 -0.4674  0.2826 -2.7676
  709MOL0     H93553   5.400   7.140   4.105  0.3226  1.3456  0.7484
  709MOL0     H93554   5.244   6.932   4.117 -0.4693 -0.8821  1.0141
  709MOL0     H93555   5.372   6.886   4.239  0.4877 -0.1984  0.1694
  709MOL0     H93556   5.332   6.656   4.177  0.7403  2.3611  2.2422
  709MOL0     H93557   5.263   6.697   4.032  1.0999  0.6443  0.4637
  709MOL0     H93558   5.082   6.814   4.228 -1.2254  0.7929 -1.1600
  709MOL0     H93559   5.131   6.665   4.298 -0.6181  3.5693  1.6114
  709MOL0     H93560   5.035   6.663   4.015  0.2539 -1.7417 -0.3688
  709MOL0     H93561   5.092   6.534   4.113  3.6089  1.9492  0.0552
  709MOL0     H93562   4.897   6.559   4.262 -0.8790  1.4350  0.0872
  709MOL0     H93563   4.857   6.525   4.096  3.0725 -2.1088  0.7808
  709MOL0     H93564   4.793   6.766   4.068 -3.9882 -1.4784  0.3073
  709MOL0     H93565   4.861   6.811   4.226  0.9605  0.0076 -1.0638
  709MOL0     H93566   4.622   6.634   4.199 -2.0330  1.3876 -2.1474
  709MOL0     H93567   4.671   6.746   4.334 -3.3873  0.3393 -0.3841
  709MOL0     H93568   4.609   6.922   4.140  0.0961 -0.5542 -1.1399
  709MOL0     H93569   4.479   6.839   4.224  1.4972 -0.8817  2.7017
  709MOL0     H93570   5.660   6.850   3.957  1.4533 -0.3567  0.0903
  709MOL0     H93571   5.865   7.008   4.018 -0.5629  1.6974  0.7145
  709MOL0     H93572   5.946   7.488   4.423  2.7574 -0.8446  2.3088
  709MOL0     H93573   6.169   7.603   4.433  2.3556 -0.5697  0.8703
  709MOL0     H93574   8.204   7.523   3.883  1.7221  2.1910  1.8860
  709MOL0     H93575   8.382   7.410   3.965 -1.0734 -0.9091 -2.3458
  709MOL0     H93576   8.379   6.977   4.463  1.6966 -3.5461  0.9310
  709MOL0     H93577   8.580   6.896   4.592 -2.2153  1.4054  0.0044
  709MOL0     H93578   8.949   7.116   4.499 -0.6950  0.6042 -3.0775
  709MOL0     H93579   8.990   6.937   4.462  0.3003  0.0124  1.0568
  709MOL0     H93580   8.972   7.060   4.732  1.3960 -0.3535  1.3022
  709MOL0     H93581   9.036   6.902   4.684 -2.4193 -0.5652 -2.5516
  709MOL0     H93582   9.235   7.028   4.591  2.1398 -0.2044 -0.2377
  709MOL0     H93583   9.208   7.079   4.759  2.0057 -1.3411 -1.8341
  709MOL0     H93584   9.257   7.262   4.621 -2.1093  2.6632  0.5192
  709MOL0     H93585   9.147   7.212   4.505  0.1470  0.7914  0.5897
  709MOL0     H93586   8.934   7.455   4.804  2.4704  0.4153  2.1433
  709MOL0     H93587   8.828   7.115   4.331  0.1568  0.2292  0.8135
  709MOL0     H93588   8.636   7.215   4.220 -0.1989 -1.5769 -1.6698
  710MOL0     O93589   2.152   1.270   8.848 -0.2108  0.2366  0.3294
  710MOL0     C93590   2.126   1.292   8.968  0.6410 -0.3713 -0.5695
  710MOL0     O93591   2.008   1.266   9.030  0.1645 -0.0727  0.5815
  710MOL0     C93592   1.931   1.169   8.974  1.1230  0.2030  1.1879
  710MOL0     C93593   1.828   1.195   8.889  0.0194  0.4947 -0.7416
  710MOL0     C93594   1.744   1.090   8.841  0.0797 -0.2313 -0.0613
  710MOL0     C93595   1.753   0.957   8.900 -0.2480  0.0393  0.8428
  710MOL0     O93596   1.652   0.865   8.864  0.4451  0.4006  1.0229
  710MOL0     C93597   1.639   0.749   8.947 -0.4898 -0.1146  0.0338
  710MOL0     C93598   1.516   0.659   8.905 -1.0516  0.3669  0.0198
  710MOL0     C93599   1.526   0.522   8.967  0.5440  0.1769 -0.4080
  710MOL0     C93600   1.392   0.451   8.943 -0.0555  0.5465  0.0640
  710MOL0     C93601   1.368   0.331   9.037  0.0030 -0.1656 -0.5006
  710MOL0     C93602   1.237   0.247   9.005 -0.7686 -0.0931 -0.0960
  710MOL0     C93603   1.191   0.163   9.130 -0.4891 -0.3555 -0.5280
  710MOL0     C93604   1.044   0.142   9.113 -0.2935 -0.7011  0.3359
  710MOL0     N93605   0.964   0.110   9.235 -0.4989  0.2258  0.2653
  710MOL0     C93606   0.911   0.197   9.332  0.2444  0.5490 -0.3035
  710MOL0     C93607   0.877   0.116   9.436  0.0232  0.3414  0.3408
  710MOL0     C93608   0.816   0.167   9.562  0.8326  0.4886  0.1549
  710MOL0     C93609   0.683   0.093   9.598  0.3209  0.0657 -0.9301
  710MOL0     C93610   0.648   0.105   9.755  1.1489 -0.3112  0.3778
  710MOL0     C93611   0.501   0.076   9.790  0.2533 -0.3916 -0.5156
  710MOL0     O93612   0.465  -0.056   9.752  0.3258  0.6901  0.1832
  710MOL0     C93613   0.332  -0.088   9.741 -0.0100  0.1781  0.4467
  710MOL0     C93614   0.292  -0.181   9.645 -0.1684  0.0983  0.2047
  710MOL0     C93615   0.161  -0.198   9.612  0.2671 -0.9229 -0.2064
  710MOL0     C93616   0.059  -0.119   9.672  0.2974  0.5906  0.3044
  710MOL0     C93617  -0.088  -0.148   9.641  0.1260  0.6996 -0.0208
  710MOL0     O93618  -0.195  -0.081   9.692  0.7497 -0.1824 -0.0568
  710MOL0     C93619  -0.312  -0.104   9.635  0.4745 -0.2500 -0.3501
  710MOL0     C93620  -0.422  -0.122   9.715 -0.1859  0.6552  0.5882
  710MOL0     C93621  -0.550  -0.137   9.667 -0.1391 -0.0226  0.7448
  710MOL0     C93622  -0.577  -0.129   9.526  0.2450 -1.4060  0.6373
  710MOL0     O93623  -0.699  -0.125   9.471  0.0525 -0.2110  0.4179
  710MOL0     C93624  -0.819  -0.121   9.545 -0.8569 -0.7450  0.9568
  710MOL0     C93625  -0.841   0.017   9.602 -0.6497 -0.7929  0.5621
  710MOL0     C93626  -0.957   0.022   9.696  0.1734 -0.1632  0.3259
  710MOL0     C93627  -1.094  -0.011   9.635  0.6946  0.4490  0.4650
  710MOL0     C93628  -1.209   0.009   9.735  0.2346  0.1043  0.0038
  710MOL0     C93629  -1.339  -0.009   9.650  0.6653  0.5095  0.6303
  710MOL0     C93630  -1.466  -0.029   9.734  0.2227 -0.0575 -0.0081
  710MOL0     C93631  -1.581  -0.097   9.669  0.2858  0.1439 -0.6525
  710MOL0    Cl93632  -1.729  -0.127   9.757  0.7339 -0.1603 -0.3730
  710MOL0     C93633  -0.462  -0.101   9.443 -0.1984 -0.0398 -0.4260
  710MOL0     C93634  -0.332  -0.098   9.496  0.3790  0.5413  0.2694
  710MOL0     O93635  -0.091  -0.237   9.555 -0.4668  0.9550  0.0170
  710MOL0     C93636   0.094  -0.025   9.767  0.1176 -0.9991 -0.0059
  710MOL0     C93637   0.226  -0.011   9.803  0.8138  0.2675  0.3741
  710MOL0     N93638   0.902  -0.010   9.404 -0.5919 -0.3370 -0.7097
  710MOL0     N93639   0.943  -0.019   9.283 -0.1081 -0.1451  0.4042
  710MOL0     C93640   1.863   0.937   8.985 -0.3003  0.6587 -0.8822
  710MOL0     C93641   1.957   1.039   9.016 -0.3207 -0.5098  0.2936
  710MOL0     C93642   2.216   1.376   9.047 -0.0001 -0.0852  0.3209
  710MOL0     C93643   2.339   1.416   8.990 -0.3348  0.0114  0.5476
  710MOL0     C93644   2.421   1.514   9.055  0.5476  0.0739 -1.0751
  710MOL0     C93645   2.382   1.555   9.185  0.5621 -0.1325  0.1734
  710MOL0     O93646   2.464   1.641   9.245 -0.2151  0.5960 -0.1777
  710MOL0     C93647   2.422   1.710   9.360  0.0993 -1.1334 -0.7660
  710MOL0     C93648   2.548   1.787   9.406  0.5180 -0.6599 -0.6438
  710MOL0     C93649   2.607   1.886   9.298  0.4360 -0.1316  0.6491
  710MOL0     C93650   2.707   1.989   9.358  0.9819  0.1936 -0.8928
  710MOL0     C93651   2.847   1.952   9.322 -0.0341  0.0478  0.8709
  710MOL0     C93652   2.958   1.938   9.288 -0.0655  0.1637  0.5167
  710MOL0     C93653   2.274   1.503   9.250  0.0905 -0.9276 -0.1247
  710MOL0     C93654   2.184   1.419   9.179 -0.6140  0.5431  0.2987
  710MOL0     H93655   1.834   1.297   8.851  2.4881  0.9285  0.6057
  710MOL0     H93656   1.666   1.120   8.773 -1.9747 -1.2821  1.7138
  710MOL0     H93657   1.615   0.783   9.048 -1.4559 -1.7828  0.3981
  710MOL0     H93658   1.728   0.685   8.948 -1.2977 -1.2549  0.2524
  710MOL0     H93659   1.516   0.654   8.795 -0.0968  2.9631 -0.1506
  710MOL0     H93660   1.424   0.709   8.937 -0.3367  1.9656 -0.3437
  710MOL0     H93661   1.530   0.531   9.076  0.1848 -4.2232  0.1549
  710MOL0     H93662   1.619   0.476   8.935  2.4755  3.1612  0.4450
  710MOL0     H93663   1.304   0.517   8.949 -1.2076 -0.9635  0.2757
  710MOL0     H93664   1.403   0.422   8.838  1.4278  1.1390  0.0391
  710MOL0     H93665   1.362   0.367   9.140 -0.4295  0.4208 -0.7274
  710MOL0     H93666   1.456   0.269   9.020  0.5945  0.1187  1.2665
  710MOL0     H93667   1.254   0.175   8.924 -1.9766 -0.0962 -0.3754
  710MOL0     H93668   1.165   0.317   8.963 -0.4495 -0.4701 -1.3099
  710MOL0     H93669   1.245   0.068   9.126  1.1936  0.5456 -0.1306
  710MOL0     H93670   1.223   0.213   9.222 -1.7916  1.7725 -1.1569
  710MOL0     H93671   1.029   0.074   9.029  1.5038 -1.0389  0.2420
  710MOL0     H93672   0.995   0.239   9.097 -0.1571 -0.6009  0.5162
  710MOL0     H93673   0.890   0.304   9.338  1.4651  0.7784  0.2759
  710MOL0     H93674   0.801   0.275   9.557  1.9648  0.5994 -2.1685
  710MOL0     H93675   0.893   0.146   9.637  2.6017  0.5810 -1.5568
  710MOL0     H93676   0.690  -0.013   9.572  0.5595 -0.0739 -0.3288
  710MOL0     H93677   0.597   0.132   9.544  0.7596 -0.7384 -2.2447
  710MOL0     H93678   0.712   0.038   9.813 -0.2508 -0.8260  1.3722
  710MOL0     H93679   0.663   0.207   9.793 -0.2978 -0.0085  0.1860
  710MOL0     H93680   0.446   0.151   9.731  1.6033 -0.6788 -2.2078
  710MOL0     H93681   0.483   0.094   9.897  2.8126 -0.9850  0.0781
  710MOL0     H93682   0.360  -0.240   9.585 -3.7762 -0.1893 -4.0694
  710MOL0     H93683   0.149  -0.263   9.526  3.6233  0.0977 -1.6425
  710MOL0     H93684  -0.406  -0.132   9.822 -0.6773  0.7889  0.6741
  710MOL0     H93685  -0.627  -0.160   9.739  0.6143 -2.7016  0.8348
  710MOL0     H93686  -0.800  -0.199   9.619 -0.6801 -2.1728 -0.5353
  710MOL0     H93687  -0.893  -0.134   9.465  1.0385 -2.6653 -0.6053
  710MOL0     H93688  -0.864   0.082   9.517  0.4478 -1.6891 -0.4794
  710MOL0     H93689  -0.757   0.072   9.645 -3.4165  2.6153  2.0756
  710MOL0     H93690  -0.954   0.124   9.736  1.5282 -0.2040  0.3942
  710MOL0     H93691  -0.951  -0.047   9.781  1.0710  1.6997  1.8809
  710MOL0     H93692  -1.107   0.050   9.545 -0.8854 -1.4500 -0.6821
  710MOL0     H93693  -1.098  -0.111   9.592  2.2988  1.3242 -1.8936
  710MOL0     H93694  -1.198   0.108   9.780 -0.9975  1.0901 -1.7535
  710MOL0     H93695  -1.213  -0.074   9.807  0.0508 -0.8757 -1.1008
  710MOL0     H93696  -1.332  -0.104   9.595  3.8489  0.8073  0.3227
  710MOL0     H93697  -1.362   0.076   9.585 -0.8476  0.0996  0.6092
  710MOL0     H93698  -1.437  -0.084   9.824 -0.4438  0.5438  0.5916
  710MOL0     H93699  -1.500   0.066   9.777  1.2905  2.0525 -3.4405
  710MOL0     H93700  -1.537  -0.189   9.632  2.0617  2.0708 -3.7966
  710MOL0     H93701  -1.594  -0.046   9.572  2.4167 -0.1290 -1.1155
  710MOL0     H93702  -0.466  -0.073   9.338  0.8509  0.2698 -0.3990
  710MOL0     H93703  -0.263  -0.056   9.424  2.7430 -2.2699  0.7370
  710MOL0     H93704   0.011   0.024   9.816 -0.8622 -2.5885  0.0098
  710MOL0     H93705   0.253   0.082   9.852  4.3176 -0.5422  0.2293
  710MOL0     H93706   1.884   0.841   9.031  2.7181  1.2471 -0.8847
  710MOL0     H93707   2.034   1.009   9.086 -1.1608 -1.9393  0.6488
  710MOL0     H93708   2.368   1.400   8.886 -1.5392  0.3542  0.1401
  710MOL0     H93709   2.506   1.559   9.005 -0.1912  1.8286 -0.8177
  710MOL0     H93710   2.383   1.644   9.437 -0.9023 -0.6835 -0.8818
  710MOL0     H93711   2.347   1.783   9.327  2.5034  1.9830  0.0992
  710MOL0     H93712   2.523   1.851   9.492  0.5639 -0.0407 -1.0881
  710MOL0     H93713   2.621   1.714   9.442  2.7995  0.4454 -2.7257
  710MOL0     H93714   2.526   1.931   9.240  1.3497 -0.0075 -0.5919
  710MOL0     H93715   2.653   1.820   9.223 -0.4821 -1.3974  1.1604
  710MOL0     H93716   2.679   2.085   9.313 -2.0197 -0.3603 -0.4609
  710MOL0     H93717   2.704   1.986   9.467 -2.2634 -0.4454 -0.8848
  710MOL0     H93718   3.063   1.934   9.268 -0.2271  3.1026 -1.6167
  710MOL0     H93719   2.250   1.526   9.353  1.7037  2.0383 -0.3183
  710MOL0     H93720   2.091   1.385   9.225 -1.7203  5.3383  2.2995
  711MOL0     O93721   1.237  10.125   8.709  0.6670 -0.4714  0.5255
  711MOL0     C93722   1.247  10.058   8.812 -0.5159 -0.1573  0.3368
  711MOL0     O93723   1.169   9.951   8.845  0.2389 -0.4521  0.0083
  711MOL0     C93724   1.082   9.917   8.746 -0.1109  0.2006  0.6067
  711MOL0     C93725   0.947   9.955   8.751 -0.0229  0.0086  0.3352
  711MOL0     C93726   0.868   9.926   8.642  0.0639 -0.8162  1.0272
  711MOL0     C93727   0.900   9.843   8.535 -0.5105  0.1045  0.4099
  711MOL0     O93728   0.802   9.805   8.452 -0.0815 -0.0415  0.0188
  711MOL0     C93729   0.840   9.749   8.320  0.7993 -0.3656  0.0944
  711MOL0     C93730   0.715   9.728   8.236 -0.8214  0.4222 -0.3132
  711MOL0     C93731   0.760   9.658   8.099  0.0106 -0.5452 -0.3501
  711MOL0     C93732   0.679   9.651   7.975  0.4519  1.0353  1.2560
  711MOL0     C93733   0.607   9.782   7.961  0.1856 -0.1223  0.1214
  711MOL0     C93734   0.563   9.793   7.813 -0.3335  0.4260  0.1886
  711MOL0     C93735   0.457   9.902   7.800 -0.2726  0.2410  0.1261
  711MOL0     C93736   0.471   9.982   7.675  0.4034  0.7866 -0.7969
  711MOL0     N93737   0.484   9.898   7.552 -0.0191 -0.1487  0.0959
  711MOL0     C93738   0.594   9.893   7.479 -0.2117  0.8154  0.4880
  711MOL0     C93739   0.561   9.820   7.365 -0.1034  0.1689 -1.1452
  711MOL0     C93740   0.657   9.767   7.264  1.0788 -0.3022  0.0492
  711MOL0     C93741   0.770   9.873   7.234  0.0434 -0.0328  0.1536
  711MOL0     C93742   0.881   9.834   7.139 -0.9529  0.3570  0.4437
  711MOL0     C93743   0.958   9.956   7.088 -0.4962 -0.0556  0.5000
  711MOL0     O93744   1.032   9.904   6.981 -0.3397  0.1254 -0.0220
  711MOL0     C93745   1.083   9.998   6.892 -0.2378 -0.0509 -0.5209
  711MOL0     C93746   1.086   9.959   6.765 -0.4364 -0.1034  0.2323
  711MOL0     C93747   1.142  10.037   6.663 -0.2904 -0.3864 -1.0176
  711MOL0     C93748   1.207  10.157   6.693  0.2297 -0.2693  0.3170
  711MOL0     C93749   1.270  10.237   6.581 -0.7218  0.7991 -0.0984
  711MOL0     O93750   1.321  10.159   6.473  0.1557 -0.7021  0.2453
  711MOL0     C93751   1.407  10.218   6.385 -0.7205 -0.4881 -0.7624
  711MOL0     C93752   1.385  10.208   6.249 -0.9616  0.1235 -0.6340
  711MOL0     C93753   1.463  10.260   6.149  0.2458  0.4724 -0.7650
  711MOL0     C93754   1.585  10.324   6.184  0.4359 -0.1352 -0.1799
  711MOL0     O93755   1.658  10.378   6.080  0.6264 -0.5858 -0.3003
  711MOL0     C93756   1.797  10.385   6.105 -0.3857 -0.5904 -0.0598
  711MOL0     C93757   1.875  10.387   5.975  0.0629  0.4967 -0.7674
  711MOL0     C93758   2.025  10.412   5.998  0.0264 -0.0202  0.0806
  711MOL0     C93759   2.104  10.437   5.866  0.9351 -0.5740 -0.4469
  711MOL0     C93760   2.253  10.470   5.890 -0.0788 -0.2158  0.3925
  711MOL0     C93761   2.278  10.611   5.951  0.5649 -0.2679 -0.3632
  711MOL0     C93762   2.420  10.654   5.971  0.3962  0.1814 -0.5070
  711MOL0     C93763   2.493  10.708   5.851  0.8151 -0.4882 -0.5560
  711MOL0    Cl93764   2.419  10.863   5.790 -0.2560 -0.1980 -0.0755
  711MOL0     C93765   1.617  10.334   6.324 -0.7966  0.3913  0.2095
  711MOL0     C93766   1.523  10.289   6.422 -0.8536 -0.6545  0.1834
  711MOL0     O93767   1.274  10.363   6.592 -0.7841 -0.5600 -0.1229
  711MOL0     C93768   1.207  10.203   6.827  0.9574 -0.3311 -0.6253
  711MOL0     C93769   1.152  10.119   6.933  0.6555 -0.5596  0.3696
  711MOL0     N93770   0.426   9.784   7.375 -0.1313  0.5365 -0.2670
  711MOL0     N93771   0.387   9.828   7.485  0.3197 -0.1289 -0.4041
  711MOL0     C93772   1.041   9.799   8.536  0.2144  0.2985 -0.1194
  711MOL0     C93773   1.128   9.839   8.638 -0.4800 -0.2684 -0.5719
  711MOL0     C93774   1.355  10.106   8.908  0.6238 -0.2774  0.3079
  711MOL0     C93775   1.378  10.027   9.019  0.0112  0.6532 -0.2206
  711MOL0     C93776   1.484  10.052   9.102  0.2998 -0.1092 -0.4333
  711MOL0     C93777   1.560  10.165   9.090 -0.6759 -0.0245  0.1578
  711MOL0     O93778   1.662  10.180   9.183  0.2382 -0.0439 -0.5109
  711MOL0     C93779   1.758  10.282   9.157 -0.2898  0.0250  0.0393
  711MOL0     C93780   1.885  10.277   9.249 -0.1552 -0.1065  0.1557
  711MOL0     C93781   1.991  10.363   9.198 -0.0078 -0.7299  0.7549
  711MOL0     C93782   2.109  10.357   9.288  0.0413  0.0374 -0.3584
  711MOL0     C93783   2.089  10.436   9.410  0.9490 -0.7557  0.1392
  711MOL0     C93784   2.053  10.495   9.509 -1.6682  0.1061 -0.4219
  711MOL0     C93785   1.526  10.259   8.993 -0.1038 -0.5667  0.8949
  711MOL0     C93786   1.427  10.233   8.901  0.2300 -0.0956 -0.6927
  711MOL0     H93787   0.916  10.013   8.838  3.0152 -2.2687  3.2067
  711MOL0     H93788   0.763   9.949   8.652 -0.3669 -2.1644 -0.1115
  711MOL0     H93789   0.884   9.649   8.323 -0.6367 -1.3310 -4.4427
  711MOL0     H93790   0.913   9.809   8.266  2.2120 -2.8703 -0.9379
  711MOL0     H93791   0.663   9.821   8.211  1.3042  2.4150  2.0180
  711MOL0     H93792   0.648   9.667   8.297  1.1155  0.1336  1.6680
  711MOL0     H93793   0.781   9.554   8.127  1.6793  0.1824  1.3715
  711MOL0     H93794   0.863   9.687   8.074  0.8696  0.8332  3.8870
  711MOL0     H93795   0.741   9.637   7.886  0.1687  0.7669  1.0960
  711MOL0     H93796   0.611   9.565   7.977 -0.2181  1.5730  2.5648
  711MOL0     H93797   0.673   9.866   7.985  1.1782 -0.7752 -0.2613
  711MOL0     H93798   0.529   9.784   8.038 -0.0478  0.0953 -0.1184
  711MOL0     H93799   0.536   9.701   7.760  0.1478  0.0281  0.6101
  711MOL0     H93800   0.653   9.835   7.768  0.9649 -1.5035  0.8666
  711MOL0     H93801   0.363   9.846   7.798 -1.1011  1.4178  2.4013
  711MOL0     H93802   0.452   9.971   7.885 -0.6527 -0.0807  0.3673
  711MOL0     H93803   0.560  10.045   7.676  0.7602  0.4568 -3.7520
  711MOL0     H93804   0.386  10.050   7.670  1.3477  2.0227 -0.5953
  711MOL0     H93805   0.688   9.943   7.498 -0.3055  0.3951  2.1889
  711MOL0     H93806   0.609   9.726   7.174 -0.5030 -1.9092  1.5301
  711MOL0     H93807   0.703   9.678   7.307 -0.4763 -1.2078 -0.0577
  711MOL0     H93808   0.820   9.893   7.329 -0.5062  3.1198 -0.1291
  711MOL0     H93809   0.726   9.971   7.212  0.7045  0.6238  1.5987
  711MOL0     H93810   0.956   9.777   7.194  2.4431  3.2028 -0.8453
  711MOL0     H93811   0.860   9.767   7.055 -1.3831 -0.2971  1.0577
  711MOL0     H93812   1.026   9.996   7.163  1.6021 -1.6284 -0.4709
  711MOL0     H93813   0.887  10.031   7.053 -1.8120 -1.9220 -1.0417
  711MOL0     H93814   1.034   9.870   6.732 -1.0405  0.8832 -1.6338
  711MOL0     H93815   1.137  10.005   6.559  0.7431  1.6898 -1.7802
  711MOL0     H93816   1.295  10.151   6.228 -0.6966 -0.2193 -0.8592
  711MOL0     H93817   1.423  10.262   6.049 -0.3046  3.6631 -0.5662
  711MOL0     H93818   1.832  10.307   6.173 -1.1753 -1.6322 -0.8249
  711MOL0     H93819   1.820  10.479   6.157  0.7775 -1.4344  1.0124
  711MOL0     H93820   1.838  10.458   5.900  3.4187  3.7698  0.3719
  711MOL0     H93821   1.865  10.289   5.927 -1.3292 -0.0222  0.4946
  711MOL0     H93822   2.072  10.325   6.044  2.3518  1.3806  0.5278
  711MOL0     H93823   2.041  10.499   6.062 -0.2932  0.7963 -0.9119
  711MOL0     H93824   2.099  10.345   5.807  0.0765 -1.2935  0.7078
  711MOL0     H93825   2.053  10.510   5.802  0.0471 -0.6310  0.1839
  711MOL0     H93826   2.306  10.467   5.794 -0.0484  2.2561  0.2738
  711MOL0     H93827   2.282  10.395   5.964  0.5795 -2.4592 -2.0060
  711MOL0     H93828   2.227  10.600   6.048  2.2690 -2.1694  0.4013
  711MOL0     H93829   2.230  10.686   5.887 -0.2398  0.7026  1.3003
  711MOL0     H93830   2.421  10.735   6.045 -2.0512 -1.0933  1.0491
  711MOL0     H93831   2.488  10.581   6.016  0.8913  0.8328 -0.1778
  711MOL0     H93832   2.497  10.638   5.766 -0.4416  0.8288 -1.7520
  711MOL0     H93833   2.599  10.728   5.873  0.3630  0.9465  0.4306
  711MOL0     H93834   1.700  10.392   6.363 -0.8060  0.0029  0.8172
  711MOL0     H93835   1.545  10.307   6.526 -0.0866  0.1017 -0.1002
  711MOL0     H93836   1.245  10.303   6.843  2.6708 -0.3650 -3.6201
  711MOL0     H93837   1.156  10.150   7.037  0.6306 -2.0313  0.8265
  711MOL0     H93838   1.079   9.728   8.463 -0.3886 -2.4498  2.0640
  711MOL0     H93839   1.236   9.828   8.635 -0.6736 -3.4216  0.5686
  711MOL0     H93840   1.317   9.939   9.039  0.3188 -0.1832 -2.6196
  711MOL0     H93841   1.498   9.994   9.192 -2.6154  0.1045  0.2323
  711MOL0     H93842   1.719  10.384   9.154 -0.2567  0.0463  0.3572
  711MOL0     H93843   1.796  10.276   9.054  2.1107 -0.1633  0.8744
  711MOL0     H93844   1.844  10.313   9.344 -1.8934  1.4571 -1.1178
  711MOL0     H93845   1.923  10.176   9.264 -2.6515 -1.1584 -0.0629
  711MOL0     H93846   1.954  10.466   9.192  0.5595 -0.2447  3.8413
  711MOL0     H93847   2.025  10.321   9.103  0.6279 -0.9758  1.0843
  711MOL0     H93848   2.138  10.257   9.320 -0.7749  0.2887  1.2472
  711MOL0     H93849   2.195  10.391   9.228  0.8451 -0.1716  0.6343
  711MOL0     H93850   2.023  10.546   9.598 -3.8132  0.3332 -1.2299
  711MOL0     H93851   1.574  10.356   8.989  0.2733 -0.7679  0.4900
  711MOL0     H93852   1.395  10.313   8.835 -2.9084  1.3305  2.2614
  712MOL0     O93853   0.948   0.685   2.782 -0.1768 -0.3866 -0.4681
  712MOL0     C93854   0.904   0.631   2.881  1.1180  0.5062 -0.5542
  712MOL0     O93855   0.972   0.573   2.989 -0.6709  0.6945  0.2399
  712MOL0     C93856   1.094   0.514   2.951 -0.3034 -0.9267  0.0362
  712MOL0     C93857   1.220   0.588   2.920 -0.4125  0.6943 -0.7051
  712MOL0     C93858   1.332   0.518   2.873 -0.4286  0.2058  1.0922
  712MOL0     C93859   1.329   0.380   2.849  0.1149 -0.4933 -0.3801
  712MOL0     O93860   1.440   0.325   2.798 -0.4043 -1.0344 -0.7930
  712MOL0     C93861   1.438   0.195   2.741  0.2107  0.3979  1.1383
  712MOL0     C93862   1.582   0.164   2.687  0.8466  0.4259 -0.6787
  712MOL0     C93863   1.666   0.115   2.799  0.8354  0.3700  0.2633
  712MOL0     C93864   1.814   0.082   2.754 -0.1311 -0.2112  0.1928
  712MOL0     C93865   1.893   0.003   2.862  0.0716  0.1484 -0.3430
  712MOL0     C93866   1.893   0.075   2.994  0.5417 -0.0246 -0.4899
  712MOL0     C93867   1.986   0.001   3.088  0.4310 -0.7970  0.8470
  712MOL0     C93868   1.965   0.045   3.236  0.6608 -0.4590 -0.3501
  712MOL0     N93869   1.966   0.196   3.262 -1.0337  0.3918 -1.0419
  712MOL0     C93870   2.079   0.266   3.304  0.0904  0.1943 -0.1245
  712MOL0     C93871   2.035   0.393   3.327  0.4450 -0.8720 -0.5310
  712MOL0     C93872   2.123   0.505   3.379  0.1342  0.6993  0.6706
  712MOL0     C93873   2.118   0.524   3.531 -0.2714  0.8099  0.2359
  712MOL0     C93874   2.179   0.406   3.615  0.3451  0.0160  0.3026
  712MOL0     C93875   2.149   0.418   3.768 -0.0612  0.3399 -0.4631
  712MOL0     O93876   2.190   0.311   3.853  0.3115  0.1937 -0.0392
  712MOL0     C93877   2.100   0.210   3.893 -0.2270 -0.2973  0.0023
  712MOL0     C93878   1.966   0.249   3.948 -0.3225  0.0533  0.1555
  712MOL0     C93879   1.870   0.160   3.988 -0.3413  0.8196 -0.1490
  712MOL0     C93880   1.898   0.026   3.968 -0.5680  0.1609 -0.1501
  712MOL0     C93881   1.788  -0.075   3.989 -0.2625  1.0736  0.5095
  712MOL0     O93882   1.817  -0.213   3.958  0.3940 -0.2400  0.5091
  712MOL0     C93883   1.729  -0.299   3.890  0.3508 -0.8981  0.3019
  712MOL0     C93884   1.593  -0.262   3.851  0.4461 -0.5410  0.5959
  712MOL0     C93885   1.523  -0.362   3.778  0.1392 -0.7595  0.5866
  712MOL0     C93886   1.582  -0.485   3.748  0.4794 -0.4593 -0.0606
  712MOL0     O93887   1.505  -0.573   3.686  0.0753 -0.1997  0.1799
  712MOL0     C93888   1.499  -0.702   3.750 -0.4292  0.4578  0.2699
  712MOL0     C93889   1.407  -0.796   3.669  0.3524  0.3701 -0.7815
  712MOL0     C93890   1.270  -0.733   3.633 -0.3867  0.5493 -0.8610
  712MOL0     C93891   1.175  -0.678   3.744 -0.4913  0.0805 -0.1986
  712MOL0     C93892   1.104  -0.789   3.813  0.1923  0.3255  0.1934
  712MOL0     C93893   1.026  -0.735   3.928  0.1768 -0.5725 -0.3143
  712MOL0     C93894   0.918  -0.836   3.968 -0.2240  0.3236 -0.4733
  712MOL0     C93895   0.821  -0.776   4.074 -0.2680  0.0994 -0.3250
  712MOL0    Cl93896   0.668  -0.871   4.114 -0.0372  0.2627 -0.3581
  712MOL0     C93897   1.714  -0.514   3.781 -0.1853 -0.3673  0.1539
  712MOL0     C93898   1.781  -0.420   3.856  0.4751 -0.7232  0.9155
  712MOL0     O93899   1.681  -0.030   4.017 -0.1860 -1.1455 -0.1250
  712MOL0     C93900   2.026  -0.018   3.920  1.0614  0.2843  0.6572
  712MOL0     C93901   2.125   0.069   3.876  0.6110  0.2420 -0.2059
  712MOL0     N93902   1.900   0.391   3.304  0.5745 -0.8314 -0.4423
  712MOL0     N93903   1.859   0.277   3.261 -0.2072  0.5319  0.0678
  712MOL0     C93904   1.204   0.311   2.858 -0.6314 -0.5500  0.0629
  712MOL0     C93905   1.094   0.377   2.916 -0.0152 -0.0230 -0.1511
  712MOL0     C93906   0.760   0.616   2.887 -0.1022 -0.1364 -0.3363
  712MOL0     C93907   0.680   0.629   2.775  0.6779  0.7202 -0.3261
  712MOL0     C93908   0.541   0.600   2.783  0.0020  0.2434 -0.6860
  712MOL0     C93909   0.476   0.569   2.910  0.4725 -1.8196 -0.7494
  712MOL0     O93910   0.338   0.553   2.911  0.2424  0.1102 -0.0947
  712MOL0     C93911   0.302   0.450   3.007  0.3714  0.3624  0.8194
  712MOL0     C93912   0.161   0.390   2.980 -0.1003 -0.7622 -0.4449
  712MOL0     C93913   0.159   0.337   2.837  0.3053 -0.1422  0.2543
  712MOL0     C93914   0.048   0.230   2.825 -0.4115  0.1845  0.3522
  712MOL0     C93915   0.026   0.185   2.684  0.1811  0.4866  0.0791
  712MOL0     C93916   0.024   0.158   2.569 -0.9361 -0.1647 -0.5071
  712MOL0     C93917   0.561   0.566   3.021 -0.0429  0.6060  0.5415
  712MOL0     C93918   0.696   0.587   3.007 -0.1233  0.0395  0.5637
  712MOL0     H93919   1.240   0.693   2.937 -0.7377  0.4766  1.1860
  712MOL0     H93920   1.417   0.573   2.834  0.4935 -1.5888  0.4764
  712MOL0     H93921   1.366   0.188   2.659  1.2240 -0.5724  0.2931
  712MOL0     H93922   1.406   0.117   2.811 -0.1952 -3.0747 -2.5090
  712MOL0     H93923   1.628   0.259   2.657  0.3477  1.4837  1.6106
  712MOL0     H93924   1.574   0.090   2.608  2.3139  0.9381 -1.3274
  712MOL0     H93925   1.618   0.033   2.853  2.1353 -1.4750 -1.2353
  712MOL0     H93926   1.687   0.199   2.865  3.1687  0.2381 -0.2190
  712MOL0     H93927   1.817   0.019   2.665  1.1108 -1.6926  1.2255
  712MOL0     H93928   1.872   0.173   2.737 -0.0557 -0.7058 -2.6796
  712MOL0     H93929   1.994  -0.014   2.823  0.1370 -1.5378  0.4575
  712MOL0     H93930   1.856  -0.099   2.880 -1.0952  0.4550 -0.9711
  712MOL0     H93931   1.794   0.077   3.041  0.9915  0.8005  0.4335
  712MOL0     H93932   1.934   0.175   2.978 -2.3416  1.8699  2.5525
  712MOL0     H93933   1.962  -0.105   3.074  2.2416 -1.1846  0.4654
  712MOL0     H93934   2.086   0.024   3.051 -0.1634 -1.0799 -1.0374
  712MOL0     H93935   2.038   0.004   3.307 -1.6227 -0.1571  2.3235
  712MOL0     H93936   1.868   0.006   3.267  0.2753  3.0613  3.7313
  712MOL0     H93937   2.176   0.226   3.330  0.1893  0.4231 -0.1404
  712MOL0     H93938   2.090   0.599   3.333  3.5384  1.7909  0.1653
  712MOL0     H93939   2.222   0.487   3.336  0.5469  1.3567  1.3259
  712MOL0     H93940   2.013   0.534   3.560 -0.1879  1.2817  0.3861
  712MOL0     H93941   2.173   0.615   3.555  2.2120 -0.4932 -0.1205
  712MOL0     H93942   2.145   0.307   3.582  2.9421 -1.3316  1.2905
  712MOL0     H93943   2.286   0.388   3.598  0.5866 -0.7210  2.2620
  712MOL0     H93944   2.041   0.434   3.764 -0.0537  0.1990 -1.6170
  712MOL0     H93945   2.202   0.508   3.801  1.8015 -0.6294 -0.6455
  712MOL0     H93946   1.945   0.356   3.952  0.1490  0.1362  0.6504
  712MOL0     H93947   1.774   0.188   4.032 -1.8984 -0.1902 -2.6683
  712MOL0     H93948   1.559  -0.160   3.862 -0.3868 -0.3660 -2.7974
  712MOL0     H93949   1.422  -0.338   3.747  0.2355  0.0405  0.8552
  712MOL0     H93950   1.481  -0.686   3.856  5.6193  2.1240  1.4677
  712MOL0     H93951   1.599  -0.747   3.748  1.2337  3.6858 -3.2416
  712MOL0     H93952   1.384  -0.886   3.726  0.6946  0.6671 -0.1556
  712MOL0     H93953   1.465  -0.821   3.579 -1.1678  1.3490 -2.0817
  712MOL0     H93954   1.207  -0.797   3.570 -0.7895 -0.0758  0.1550
  712MOL0     H93955   1.277  -0.651   3.561  0.2283  0.4847 -0.8840
  712MOL0     H93956   1.234  -0.634   3.825 -1.0702 -0.9449  0.8087
  712MOL0     H93957   1.101  -0.606   3.707 -2.3350 -0.5777  1.9885
  712MOL0     H93958   1.180  -0.860   3.844 -1.5608 -1.0512  1.6068
  712MOL0     H93959   1.037  -0.844   3.746 -1.0804  3.3007 -1.1898
  712MOL0     H93960   0.976  -0.639   3.909  0.5319 -0.3103  0.0625
  712MOL0     H93961   1.087  -0.709   4.015 -0.7069 -0.0290  0.1623
  712MOL0     H93962   0.876  -0.875   3.875  0.7210  1.4441 -1.4028
  712MOL0     H93963   0.955  -0.922   4.024 -1.2850 -0.2537 -0.6324
  712MOL0     H93964   0.788  -0.684   4.025  1.8757  2.1714  1.8817
  712MOL0     H93965   0.884  -0.749   4.159 -0.3541 -1.4143  0.2537
  712MOL0     H93966   1.762  -0.610   3.761 -0.9129 -0.6676 -0.1679
  712MOL0     H93967   1.876  -0.442   3.905 -0.8966  1.1835  4.8821
  712MOL0     H93968   2.032  -0.126   3.905 -0.3159  0.5773 -3.2930
  712MOL0     H93969   2.216   0.038   3.826  0.5118 -1.6527  0.7084
  712MOL0     H93970   1.191   0.204   2.839 -0.1618 -0.9822  1.9594
  712MOL0     H93971   1.003   0.317   2.918 -0.1741  0.1607 -1.1090
  712MOL0     H93972   0.722   0.657   2.679  2.5118 -2.6627 -0.6745
  712MOL0     H93973   0.476   0.601   2.696 -3.8352  2.8489  1.9125
  712MOL0     H93974   0.304   0.486   3.111  2.7690  0.4736  0.8008
  712MOL0     H93975   0.372   0.368   2.990 -0.5112  0.1700 -2.6301
  712MOL0     H93976   0.141   0.307   3.049 -3.4820 -1.5136 -2.0889
  712MOL0     H93977   0.078   0.459   2.998 -0.0196 -0.6856 -0.3698
  712MOL0     H93978   0.254   0.309   2.791  0.2556  0.6061 -0.3177
  712MOL0     H93979   0.120   0.418   2.775 -0.0930 -1.4156 -1.2153
  712MOL0     H93980   0.067   0.143   2.889 -1.7409  0.6490  1.4247
  712MOL0     H93981  -0.044   0.276   2.862 -2.4002 -2.1560 -1.3549
  712MOL0     H93982   0.049   0.137   2.467  0.3503 -1.6445  0.0691
  712MOL0     H93983   0.521   0.548   3.121 -0.7283 -1.4442 -0.0487
  712MOL0     H93984   0.753   0.593   3.099  1.1159  3.3764 -0.3006
  713MOL0     O93985   4.998   5.778   6.251 -0.2390 -0.6015  0.9817
  713MOL0     C93986   4.981   5.840   6.145 -0.1027  0.6121 -0.4250
  713MOL0     O93987   4.881   5.818   6.059  0.4031  0.3571 -0.2810
  713MOL0     C93988   4.769   5.742   6.092 -0.4840 -0.6075  1.0034
  713MOL0     C93989   4.725   5.662   5.985  0.6538  0.4455  0.1243
  713MOL0     C93990   4.609   5.595   6.004  0.7808  0.6644  0.0836
  713MOL0     C93991   4.537   5.598   6.124 -0.0344 -0.0466  0.6388
  713MOL0     O93992   4.419   5.532   6.140  0.0712  0.1487  0.1281
  713MOL0     C93993   4.301   5.556   6.060 -0.0848  0.7418  0.4457
  713MOL0     C93994   4.184   5.454   6.080 -0.1992 -0.0325 -0.5141
  713MOL0     C93995   4.056   5.504   6.003  0.3367 -0.6213 -0.1268
  713MOL0     C93996   3.937   5.404   6.014  0.2732  0.4027 -0.4714
  713MOL0     C93997   3.801   5.477   6.007  0.4830 -0.5443 -0.4796
  713MOL0     C93998   3.693   5.378   6.015  0.2363  0.3385 -0.4613
  713MOL0     C93999   3.572   5.417   5.928 -1.1133  1.1951  0.0294
  713MOL0     C94000   3.489   5.533   5.978 -0.7612 -0.0087  0.4106
  713MOL0     N94001   3.446   5.511   6.122 -0.0591  0.5401  0.1078
  713MOL0     C94002   3.344   5.422   6.159  0.1528 -0.1967  0.8601
  713MOL0     C94003   3.344   5.424   6.293 -0.1623  0.0491  0.0884
  713MOL0     C94004   3.253   5.354   6.389 -0.5065  0.3797 -0.4082
  713MOL0     C94005   3.325   5.286   6.507 -0.7992 -0.0810 -0.3881
  713MOL0     C94006   3.225   5.235   6.602  0.0421  0.1133 -0.1443
  713MOL0     C94007   3.138   5.120   6.551 -0.6540  0.3414 -0.0242
  713MOL0     O94008   3.042   5.111   6.658 -0.0294  0.5047  0.2846
  713MOL0     C94009   2.919   5.042   6.640  0.4498 -0.9112  0.2369
  713MOL0     C94010   2.823   5.042   6.741 -1.0970  0.1049 -0.4181
  713MOL0     C94011   2.698   4.991   6.719 -0.2686  0.6955 -0.2953
  713MOL0     C94012   2.656   4.924   6.609 -0.5250 -1.0387  0.2666
  713MOL0     C94013   2.537   4.855   6.605 -0.4747 -0.2851  0.9347
  713MOL0     O94014   2.437   4.917   6.671  0.0790  0.6123 -0.3909
  713MOL0     C94015   2.318   4.859   6.694 -0.3007  0.0878 -0.6535
  713MOL0     C94016   2.208   4.940   6.670  0.6342 -0.8218  0.2004
  713MOL0     C94017   2.072   4.908   6.695  0.2579 -0.4693 -0.5082
  713MOL0     C94018   2.048   4.776   6.737  0.9030  0.7373  0.1807
  713MOL0     O94019   1.930   4.713   6.780  0.1817  0.4946  0.5343
  713MOL0     C94020   1.810   4.757   6.709  0.7489  0.6650 -0.1190
  713MOL0     C94021   1.752   4.868   6.800  0.1887  0.9413  1.0607
  713MOL0     C94022   1.619   4.928   6.739 -0.3143 -0.2797 -0.0111
  713MOL0     C94023   1.632   4.982   6.596 -0.2400 -0.0405  0.5892
  713MOL0     C94024   1.505   5.050   6.544 -0.4694 -0.2609  0.3450
  713MOL0     C94025   1.379   4.962   6.544 -0.7908  0.1635  0.3439
  713MOL0     C94026   1.274   5.013   6.439 -0.2524 -0.0019  0.3292
  713MOL0     C94027   1.137   4.939   6.440  0.7365 -0.4044 -0.2395
  713MOL0    Cl94028   1.042   4.987   6.586 -0.0087  0.0754  0.0048
  713MOL0     C94029   2.162   4.697   6.763  0.0628 -0.1281  0.2443
  713MOL0     C94030   2.293   4.737   6.748 -0.2520 -0.0096 -0.8177
  713MOL0     O94031   2.526   4.757   6.533 -0.2526 -0.7427 -0.5969
  713MOL0     C94032   2.755   4.907   6.504 -0.4491  0.4834 -0.9164
  713MOL0     C94033   2.880   4.971   6.525 -0.1433 -0.2968  0.4033
  713MOL0     N94034   3.444   5.508   6.331  0.1500  0.9347  0.5332
  713MOL0     N94035   3.498   5.561   6.237 -0.3803 -0.6735  0.7208
  713MOL0     C94036   4.586   5.678   6.223 -0.0308 -0.0266  0.0402
  713MOL0     C94037   4.702   5.756   6.207 -0.0378  0.0619 -0.9091
  713MOL0     C94038   5.085   5.926   6.100 -0.5809  0.4329 -0.8169
  713MOL0     C94039   5.073   6.012   5.988  0.3149 -0.2401  0.7084
  713MOL0     C94040   5.174   6.099   5.954 -1.6209  0.1136  0.4417
  713MOL0     C94041   5.300   6.101   6.024  1.0097 -0.1215  0.1617
  713MOL0     O94042   5.412   6.171   5.991  1.1762  0.0329  0.3129
  713MOL0     C94043   5.421   6.251   5.871 -0.2982  0.4763 -0.1976
  713MOL0     C94044   5.429   6.159   5.744  0.1507  0.1044  0.2708
  713MOL0     C94045   5.362   6.231   5.617 -0.3427  0.1984  0.2824
  713MOL0     C94046   5.406   6.372   5.574 -0.6596  0.8564  0.3375
  713MOL0     C94047   5.548   6.384   5.557 -0.6891  1.0542 -0.7982
  713MOL0     C94048   5.672   6.372   5.543 -0.5345  0.1752 -0.0192
  713MOL0     C94049   5.313   6.019   6.136 -0.1711 -1.4300 -0.1540
  713MOL0     C94050   5.212   5.934   6.172 -0.1975 -0.5252  0.2747
  713MOL0     H94051   4.780   5.662   5.891 -1.0011  2.2361 -0.9372
  713MOL0     H94052   4.571   5.536   5.921 -1.5436  1.6985  0.3295
  713MOL0     H94053   4.323   5.543   5.954 -0.2026  0.1045  0.4943
  713MOL0     H94054   4.275   5.661   6.078 -0.0031  0.8745 -0.1953
  713MOL0     H94055   4.165   5.450   6.188 -2.6956  1.5941 -0.8085
  713MOL0     H94056   4.212   5.358   6.036 -1.0821 -1.0736  1.0799
  713MOL0     H94057   4.075   5.525   5.898  1.9518 -4.1854 -0.7085
  713MOL0     H94058   4.015   5.594   6.049  1.0910  0.6150 -1.8018
  713MOL0     H94059   3.944   5.325   5.938 -0.7101 -0.7728  0.6325
  713MOL0     H94060   3.959   5.363   6.113 -0.2843  1.7595  0.2279
  713MOL0     H94061   3.797   5.533   5.913  1.5777  0.8281  0.2682
  713MOL0     H94062   3.787   5.537   6.097  0.1776  0.1031 -0.9482
  713MOL0     H94063   3.661   5.361   6.118 -0.1359  0.2640 -0.5897
  713MOL0     H94064   3.725   5.282   5.972 -0.4598 -0.2632  0.3221
  713MOL0     H94065   3.608   5.449   5.830  0.3804 -0.1912  0.0806
  713MOL0     H94066   3.512   5.327   5.917 -0.4523  0.4444  2.0170
  713MOL0     H94067   3.397   5.550   5.921 -0.2862  0.3515 -0.2570
  713MOL0     H94068   3.548   5.625   5.975  1.8011 -1.4364  2.5954
  713MOL0     H94069   3.299   5.353   6.088  2.0793 -0.0631 -0.5890
  713MOL0     H94070   3.196   5.280   6.332  0.2733  0.2129 -0.9913
  713MOL0     H94071   3.182   5.428   6.427  3.5791  3.7339  1.4994
  713MOL0     H94072   3.386   5.357   6.564 -1.4758 -1.5051  2.3317
  713MOL0     H94073   3.397   5.207   6.485 -1.8074 -1.2625  0.4331
  713MOL0     H94074   3.263   5.191   6.694 -2.8526 -3.5247 -0.4889
  713MOL0     H94075   3.162   5.320   6.631  1.4907  0.8789  0.9517
  713MOL0     H94076   3.192   5.025   6.546 -2.0885 -0.4739 -0.8309
  713MOL0     H94077   3.094   5.160   6.459 -2.7042  0.8505  1.1049
  713MOL0     H94078   2.842   5.086   6.839 -0.0682 -1.4585  0.1298
  713MOL0     H94079   2.642   4.986   6.812 -0.3050 -0.4081 -0.3564
  713MOL0     H94080   2.228   5.039   6.629 -0.9341  0.7262  2.8847
  713MOL0     H94081   1.990   4.977   6.678  1.1973  0.5113 -1.1252
  713MOL0     H94082   1.732   4.682   6.692 -0.2246  1.4347  0.8102
  713MOL0     H94083   1.833   4.793   6.608  0.1279 -2.6109 -1.5779
  713MOL0     H94084   1.828   4.945   6.813 -0.5074  2.1401 -1.3849
  713MOL0     H94085   1.729   4.823   6.898 -0.4576 -0.6486  0.2233
  713MOL0     H94086   1.605   5.013   6.807  3.7991 -1.0391  2.1420
  713MOL0     H94087   1.542   4.852   6.744  0.1927 -0.7058  2.0394
  713MOL0     H94088   1.716   5.052   6.592  0.6516 -1.0749  0.9031
  713MOL0     H94089   1.662   4.900   6.531 -1.3130  0.3924 -0.4875
  713MOL0     H94090   1.517   5.086   6.442  1.4608  0.5257  0.8123
  713MOL0     H94091   1.488   5.147   6.591 -2.1921 -0.2039 -0.3002
  713MOL0     H94092   1.347   4.973   6.648  1.0373 -1.4382  1.1326
  713MOL0     H94093   1.393   4.854   6.535  0.3720  0.2603  0.9065
  713MOL0     H94094   1.256   5.120   6.451  0.8591  0.0556  1.7522
  713MOL0     H94095   1.319   5.009   6.339  0.6970 -1.0495  0.7783
  713MOL0     H94096   1.152   4.831   6.448 -2.2458 -0.8264  0.4238
  713MOL0     H94097   1.078   4.960   6.350 -1.3576 -1.6554  0.7975
  713MOL0     H94098   2.144   4.595   6.795  0.9813 -1.2471 -2.5085
  713MOL0     H94099   2.383   4.682   6.773 -1.7195 -3.3939 -2.3132
  713MOL0     H94100   2.730   4.851   6.415  0.4241 -2.1872  0.4161
  713MOL0     H94101   2.952   4.959   6.445  1.9990  2.4377  1.7754
  713MOL0     H94102   4.526   5.695   6.312  1.8290  0.9625  1.1822
  713MOL0     H94103   4.727   5.827   6.285  0.6092  0.3708 -1.3910
  713MOL0     H94104   4.985   6.013   5.925  0.1906  1.4649  0.8414
  713MOL0     H94105   5.172   6.152   5.859  2.4800 -2.6736 -1.4807
  713MOL0     H94106   5.515   6.306   5.867 -0.2133  0.4020  0.6891
  713MOL0     H94107   5.339   6.324   5.865 -1.5696 -0.9724 -1.8510
  713MOL0     H94108   5.535   6.138   5.731 -0.2963 -0.7483 -2.9028
  713MOL0     H94109   5.381   6.061   5.744  3.2363 -1.5396  0.7338
  713MOL0     H94110   5.256   6.246   5.636 -0.1459 -0.5192  2.1939
  713MOL0     H94111   5.378   6.160   5.535  2.4901  0.6718  0.3113
  713MOL0     H94112   5.354   6.402   5.482 -3.2129 -0.4291  1.2697
  713MOL0     H94113   5.384   6.443   5.654 -0.5732  0.8124  0.4000
  713MOL0     H94114   5.779   6.368   5.543 -0.5208 -0.1616  1.5415
  713MOL0     H94115   5.401   6.022   6.199 -0.5638  1.3450  0.3827
  713MOL0     H94116   5.234   5.863   6.251 -0.0170  0.4924  1.1814
  714MOL0     O94117  10.636   3.238   1.256  0.4996  0.7219 -0.4886
  714MOL0     C94118  10.604   3.289   1.363  0.0083 -0.5251 -0.5607
  714MOL0     O94119  10.684   3.304   1.475 -0.6094  0.9631  0.4120
  714MOL0     C94120  10.818   3.262   1.491 -0.3747  1.0486  0.0441
  714MOL0     C94121  10.907   3.226   1.388 -0.3832  0.2002 -0.8603
  714MOL0     C94122  11.037   3.186   1.422 -0.2237  0.1756  0.4705
  714MOL0     C94123  11.081   3.174   1.554  0.1899  0.2841 -0.0149
  714MOL0     O94124  11.213   3.139   1.581  0.7148  0.3090  0.5669
  714MOL0     C94125  11.255   3.144   1.719 -0.0771  0.2532 -0.4569
  714MOL0     C94126  11.401   3.137   1.720 -0.0399  0.3459 -0.2450
  714MOL0     C94127  11.469   3.251   1.634  0.6057 -0.5928  0.1855
  714MOL0     C94128  11.417   3.390   1.670 -0.8837  0.1809 -0.2785
  714MOL0     C94129  11.489   3.506   1.612 -0.6855  0.3789 -0.5216
  714MOL0     C94130  11.512   3.506   1.464  0.2913  0.3664  1.2550
  714MOL0     C94131  11.373   3.495   1.393 -0.8735 -0.1460  1.3505
  714MOL0     C94132  11.291   3.621   1.426 -0.6181 -0.0756 -0.4587
  714MOL0     N94133  11.176   3.625   1.336 -0.2204  0.0840  0.2898
  714MOL0     C94134  11.074   3.540   1.338 -0.4614  0.0588  1.0018
  714MOL0     C94135  10.997   3.568   1.225 -0.4200 -0.6175  0.0381
  714MOL0     C94136  10.874   3.501   1.171 -0.5008  0.0807  0.3953
  714MOL0     C94137  10.769   3.595   1.113  0.6182 -0.2266 -0.0623
  714MOL0     C94138  10.656   3.514   1.037  0.5872 -0.2234 -0.5486
  714MOL0     C94139  10.563   3.598   0.951  0.0529 -0.8120  0.1783
  714MOL0     O94140  10.494   3.665   1.062  0.1682  0.2778  0.7994
  714MOL0     C94141  10.364   3.709   1.034  0.1486 -1.1019 -0.7593
  714MOL0     C94142  10.321   3.750   0.909 -0.3526 -0.5924  0.6288
  714MOL0     C94143  10.186   3.793   0.878 -0.4926 -0.7267 -0.3209
  714MOL0     C94144  10.090   3.788   0.974  1.0261  0.1805 -0.7507
  714MOL0     C94145   9.952   3.822   0.952  0.9129  0.0729 -0.1465
  714MOL0     O94146   9.856   3.804   1.062 -0.3265  0.0565  0.0183
  714MOL0     C94147   9.734   3.858   1.047 -0.4073  0.4108 -0.0975
  714MOL0     C94148   9.659   3.847   0.924 -1.0722  0.4730 -0.0195
  714MOL0     C94149   9.557   3.925   0.886 -0.1721 -0.4294  0.1650
  714MOL0     C94150   9.516   4.024   0.976  0.9809 -0.5711 -0.6417
  714MOL0     O94151   9.409   4.099   0.939  1.1556 -0.3477  0.3065
  714MOL0     C94152   9.331   4.170   1.041  0.7166 -0.3516 -0.3169
  714MOL0     C94153   9.180   4.170   0.996 -0.8655  0.4834  0.2577
  714MOL0     C94154   9.133   4.246   0.870  0.2579 -0.4418  0.1887
  714MOL0     C94155   8.985   4.221   0.850  0.7111  0.0433 -0.3702
  714MOL0     C94156   8.941   4.309   0.740 -0.6236 -1.3852 -0.4673
  714MOL0     C94157   8.792   4.288   0.707  1.0440 -0.3735 -0.9118
  714MOL0     C94158   8.752   4.374   0.585  0.2121  0.4269  1.2971
  714MOL0     C94159   8.795   4.315   0.450  0.2096 -0.7443  0.5357
  714MOL0    Cl94160   8.721   4.416   0.319 -0.1155 -0.2596 -0.1283
  714MOL0     C94161   9.592   4.047   1.096 -0.0753  0.1051 -0.1801
  714MOL0     C94162   9.700   3.958   1.128 -0.5450 -0.6027 -0.2849
  714MOL0     O94163   9.927   3.856   0.836 -0.1218  0.4856 -0.0134
  714MOL0     C94164  10.129   3.752   1.105 -0.2997 -0.1535 -0.3175
  714MOL0     C94165  10.260   3.710   1.128 -0.2251  0.3474  0.4002
  714MOL0     N94166  11.064   3.669   1.153  0.4620  0.2775  0.1972
  714MOL0     N94167  11.171   3.700   1.220 -0.3974 -0.8190  0.0569
  714MOL0     C94168  10.985   3.192   1.658  0.0054 -0.9237 -0.1652
  714MOL0     C94169  10.855   3.237   1.630 -0.8360  0.9311  0.2606
  714MOL0     C94170  10.468   3.350   1.375  0.6246 -0.3687 -0.1595
  714MOL0     C94171  10.440   3.424   1.496  0.3166  0.1292 -0.7273
  714MOL0     C94172  10.312   3.475   1.508  0.2547  0.3155 -1.0287
  714MOL0     C94173  10.214   3.451   1.422  0.1812  0.9122  0.1195
  714MOL0     O94174  10.088   3.503   1.434 -0.6041 -0.0020 -1.4194
  714MOL0     C94175  10.057   3.605   1.534 -0.2653  1.2373  0.3052
  714MOL0     C94176   9.911   3.647   1.517 -0.1228 -0.0991  0.0415
  714MOL0     C94177   9.897   3.785   1.587  0.7841  1.0223  0.6423
  714MOL0     C94178   9.753   3.854   1.551  0.3198 -0.7031  0.8390
  714MOL0     C94179   9.637   3.778   1.598 -0.0319 -0.4041 -0.4885
  714MOL0     C94180   9.539   3.715   1.626 -0.2252  0.3552 -0.2800
  714MOL0     C94181  10.245   3.390   1.303 -0.5025  1.0812 -0.3903
  714MOL0     C94182  10.374   3.338   1.278 -0.8135  0.9044 -0.0507
  714MOL0     H94183  10.883   3.217   1.283  0.0529  1.2797 -1.0688
  714MOL0     H94184  11.101   3.165   1.337  0.3917  0.6327  0.8172
  714MOL0     H94185  11.210   3.051   1.754  2.6456 -0.6074  1.0595
  714MOL0     H94186  11.213   3.231   1.772  0.7814 -0.9622  2.4312
  714MOL0     H94187  11.432   3.038   1.685 -1.5846  0.4564 -2.0481
  714MOL0     H94188  11.445   3.143   1.820  1.6624 -2.7272 -0.6895
  714MOL0     H94189  11.455   3.242   1.526 -0.3194 -0.2202  0.2708
  714MOL0     H94190  11.578   3.246   1.644  0.6301 -0.2111  0.1174
  714MOL0     H94191  11.313   3.390   1.638 -0.3932  2.3795 -2.0912
  714MOL0     H94192  11.422   3.393   1.780 -1.1401 -1.7855 -0.1771
  714MOL0     H94193  11.584   3.495   1.664 -0.8474 -1.4964 -0.5359
  714MOL0     H94194  11.440   3.596   1.651  0.9280  0.6999  0.8590
  714MOL0     H94195  11.576   3.423   1.432 -1.6778 -0.4854 -0.7053
  714MOL0     H94196  11.561   3.600   1.437  0.7631 -0.0238  0.7254
  714MOL0     H94197  11.376   3.482   1.285 -1.8583  1.9578  1.0074
  714MOL0     H94198  11.313   3.410   1.426 -0.0747 -1.4088 -0.3092
  714MOL0     H94199  11.356   3.707   1.413  1.9200 -1.0414  3.8326
  714MOL0     H94200  11.259   3.621   1.531 -2.1705  2.1158 -0.8644
  714MOL0     H94201  11.052   3.464   1.413 -1.0416 -0.0156  0.7606
  714MOL0     H94202  10.827   3.440   1.248 -1.9622  1.4148  0.6190
  714MOL0     H94203  10.897   3.435   1.087  0.8223 -1.5207  1.9468
  714MOL0     H94204  10.808   3.665   1.039 -1.0345  0.5038 -0.2954
  714MOL0     H94205  10.717   3.640   1.198 -1.1539 -1.5750 -0.3746
  714MOL0     H94206  10.695   3.429   0.980 -0.0889 -1.4402  0.7291
  714MOL0     H94207  10.587   3.466   1.107 -1.5613  0.3124 -2.2102
  714MOL0     H94208  10.495   3.528   0.903  0.1469 -1.0440  0.3767
  714MOL0     H94209  10.617   3.661   0.880 -0.5015 -0.6418 -0.0963
  714MOL0     H94210  10.399   3.753   0.833  2.1537  0.7839  3.0872
  714MOL0     H94211  10.157   3.832   0.781  2.4928  0.8450 -0.7160
  714MOL0     H94212   9.692   3.786   0.840 -2.2855 -3.1519  1.9080
  714MOL0     H94213   9.506   3.919   0.791 -1.5333 -0.2419  0.8558
  714MOL0     H94214   9.365   4.269   1.073 -2.8610  0.2457  2.1969
  714MOL0     H94215   9.337   4.102   1.126  1.5367  2.2251  1.8145
  714MOL0     H94216   9.116   4.201   1.079 -0.3698  1.9487  0.1183
  714MOL0     H94217   9.157   4.064   0.982  0.3357  0.0167  1.5757
  714MOL0     H94218   9.179   4.205   0.780 -0.8241  0.0513 -0.6036
  714MOL0     H94219   9.148   4.355   0.863  0.3435 -0.5773 -2.4186
  714MOL0     H94220   8.971   4.114   0.831  2.7172 -0.1128 -1.1677
  714MOL0     H94221   8.931   4.250   0.941 -0.3057  3.6896 -1.9378
  714MOL0     H94222   8.998   4.283   0.650  0.0878  4.0443 -1.9673
  714MOL0     H94223   8.964   4.415   0.755  1.8742 -1.6890 -1.6964
  714MOL0     H94224   8.729   4.314   0.793  2.4576 -1.1550  0.3980
  714MOL0     H94225   8.769   4.182   0.693 -2.4120 -0.4705  3.2430
  714MOL0     H94226   8.643   4.387   0.581  0.1622 -0.1719 -0.6103
  714MOL0     H94227   8.791   4.476   0.591  0.2437  0.6453 -1.2750
  714MOL0     H94228   8.764   4.211   0.439 -0.2987 -0.7859  2.0572
  714MOL0     H94229   8.903   4.325   0.433  0.5022  0.0316  2.5929
  714MOL0     H94230   9.578   4.143   1.146  0.6228  2.5175 -4.1966
  714MOL0     H94231   9.777   3.988   1.198  1.5045 -2.1336 -1.7742
  714MOL0     H94232  10.056   3.731   1.183  0.2260 -0.2612  0.1549
  714MOL0     H94233  10.300   3.676   1.224  0.5735  2.2261  0.7639
  714MOL0     H94234  11.003   3.186   1.765  0.6366  0.7156 -0.1573
  714MOL0     H94235  10.778   3.242   1.707 -0.2689 -3.6005  1.4496
  714MOL0     H94236  10.519   3.448   1.567 -0.2289  0.9583 -0.3755
  714MOL0     H94237  10.298   3.520   1.606  0.0390  3.1491 -2.2613
  714MOL0     H94238  10.129   3.683   1.508 -0.4396  1.1959 -0.3184
  714MOL0     H94239  10.073   3.563   1.634  0.7586 -0.6228 -0.5963
  714MOL0     H94240   9.875   3.662   1.415 -1.3369 -0.4919  0.3937
  714MOL0     H94241   9.853   3.568   1.565 -0.3883  0.1279  0.0912
  714MOL0     H94242   9.985   3.844   1.560  1.2343  0.1255  0.1381
  714MOL0     H94243   9.892   3.768   1.695 -0.6272  0.2190  0.4720
  714MOL0     H94244   9.742   3.954   1.592 -4.0324 -0.0160 -1.4213
  714MOL0     H94245   9.750   3.853   1.442 -1.3385  0.8668  0.8370
  714MOL0     H94246   9.456   3.647   1.626 -1.0185  1.2729  0.7234
  714MOL0     H94247  10.164   3.368   1.235  0.2529 -5.4572  0.1875
  714MOL0     H94248  10.384   3.280   1.187 -1.2933  2.0279 -0.8513
  715MOL0     O94249   9.719   4.889   2.604 -0.1068  0.6650  0.8159
  715MOL0     C94250   9.797   4.885   2.515 -0.6500  0.9075  0.3265
  715MOL0     O94251   9.775   4.855   2.386 -0.3745 -0.0275  0.5077
  715MOL0     C94252   9.654   4.817   2.348 -0.1712  0.0415  0.6195
  715MOL0     C94253   9.596   4.711   2.404  0.1666 -0.0661  0.8687
  715MOL0     C94254   9.458   4.677   2.385  0.4020 -0.2456  0.4718
  715MOL0     C94255   9.387   4.758   2.292  0.2150 -0.8062 -0.3661
  715MOL0     O94256   9.269   4.726   2.232 -0.8227  0.3226 -0.1902
  715MOL0     C94257   9.219   4.588   2.226  1.4904  0.4143  0.1908
  715MOL0     C94258   9.074   4.569   2.168  0.1016 -0.0113 -0.2281
  715MOL0     C94259   9.068   4.644   2.036  0.8506 -0.1303  0.5193
  715MOL0     C94260   8.948   4.613   1.953  0.4175  0.5142 -0.1600
  715MOL0     C94261   8.816   4.667   2.004 -0.2618  0.0393 -0.0842
  715MOL0     C94262   8.806   4.822   1.974 -0.2469  0.8530  0.5064
  715MOL0     C94263   8.661   4.862   1.944  0.2910  0.2895  0.8055
  715MOL0     C94264   8.612   4.809   1.805  0.0305 -0.5794  0.3853
  715MOL0     N94265   8.463   4.805   1.812 -0.9783  0.6613 -0.3450
  715MOL0     C94266   8.370   4.909   1.792 -0.2482  0.4231  0.1513
  715MOL0     C94267   8.255   4.835   1.771  0.0260  0.7179  0.2465
  715MOL0     C94268   8.112   4.886   1.745 -0.8427  0.1658 -0.2402
  715MOL0     C94269   8.021   4.783   1.816  0.4145 -0.7622  0.0748
  715MOL0     C94270   7.879   4.835   1.809  0.7465 -0.1373 -0.1513
  715MOL0     C94271   7.766   4.747   1.852 -0.2322  0.4226  0.2477
  715MOL0     O94272   7.794   4.690   1.985  0.3541 -0.1868  0.3383
  715MOL0     C94273   7.693   4.619   2.051  0.0554 -0.7105 -0.0427
  715MOL0     C94274   7.727   4.522   2.154 -1.0664  0.3999 -0.6449
  715MOL0     C94275   7.630   4.458   2.228 -0.1650  0.1313  0.5829
  715MOL0     C94276   7.495   4.508   2.225 -0.8917 -0.0049 -0.5389
  715MOL0     C94277   7.379   4.453   2.307 -0.0207  0.3482  0.1467
  715MOL0     O94278   7.259   4.462   2.258 -0.3250 -0.0028  0.2953
  715MOL0     C94279   7.141   4.421   2.315  0.4968 -0.3850  0.3317
  715MOL0     C94280   7.125   4.402   2.457  0.0295 -0.4921  0.3602
  715MOL0     C94281   6.992   4.375   2.511  0.1474 -0.1948  0.0911
  715MOL0     C94282   6.879   4.372   2.429 -0.9535  0.9270  0.3657
  715MOL0     O94283   6.756   4.338   2.486  0.4804 -0.4161 -0.6103
  715MOL0     C94284   6.633   4.390   2.431 -0.4744  0.2152  0.1402
  715MOL0     C94285   6.518   4.350   2.527  0.7819  0.5850  0.9746
  715MOL0     C94286   6.377   4.381   2.477 -0.3920 -0.0557  0.4869
  715MOL0     C94287   6.273   4.379   2.595 -0.8023  0.5129 -0.3469
  715MOL0     C94288   6.125   4.384   2.540  0.0124 -0.5072  0.3760
  715MOL0     C94289   6.019   4.339   2.652 -0.1996 -0.6889  1.0402
  715MOL0     C94290   5.878   4.361   2.604 -1.4251  0.1367  0.2286
  715MOL0     C94291   5.789   4.257   2.677  0.5905 -0.6453  0.1513
  715MOL0    Cl94292   5.622   4.280   2.619  0.3018  0.1317  0.2144
  715MOL0     C94293   6.895   4.378   2.291 -0.3242 -0.8084 -1.2272
  715MOL0     C94294   7.025   4.405   2.234  0.3785  0.5878 -0.2156
  715MOL0     O94295   7.413   4.388   2.403 -0.4602 -0.1278  0.9271
  715MOL0     C94296   7.467   4.598   2.133 -0.2418  0.5649 -0.4750
  715MOL0     C94297   7.555   4.649   2.041 -0.8427 -0.0725  0.6244
  715MOL0     N94298   8.281   4.699   1.774 -0.2584  0.8176  0.0967
  715MOL0     N94299   8.401   4.682   1.806 -0.4341  0.0264 -0.5605
  715MOL0     C94300   9.452   4.867   2.235 -0.1938 -0.6280 -0.0883
  715MOL0     C94301   9.586   4.904   2.264 -0.5800 -0.3999 -0.2140
  715MOL0     C94302   9.945   4.890   2.556  0.0826 -0.1193 -0.0013
  715MOL0     C94303   9.987   4.897   2.689 -0.3822  0.3779 -0.2784
  715MOL0     C94304  10.121   4.913   2.722  0.9318 -0.4654 -0.6143
  715MOL0     C94305  10.215   4.923   2.615 -1.1077 -0.2351 -0.7709
  715MOL0     O94306  10.352   4.918   2.634  0.4030 -0.4371  0.5453
  715MOL0     C94307  10.399   4.874   2.762  0.1845 -0.3739  0.1142
  715MOL0     C94308  10.545   4.825   2.763  0.0316  0.2920  0.0388
  715MOL0     C94309  10.640   4.942   2.729  1.0372  0.2721 -0.1148
  715MOL0     C94310  10.778   4.914   2.795 -0.2267  1.3253  0.2022
  715MOL0     C94311  10.887   4.998   2.743  0.7360 -0.3217  0.6167
  715MOL0     C94312  10.968   5.069   2.690  0.6154 -0.0783 -0.0300
  715MOL0     C94313  10.176   4.910   2.486  0.7670 -0.3232 -0.8704
  715MOL0     C94314  10.044   4.898   2.453  0.0063 -0.8076 -0.9019
  715MOL0     H94315   9.653   4.650   2.473 -0.4354 -1.3390  0.2700
  715MOL0     H94316   9.401   4.597   2.430 -3.8081  1.5076 -1.2532
  715MOL0     H94317   9.211   4.559   2.331  1.3982  1.7086  0.5561
  715MOL0     H94318   9.293   4.523   2.177  4.6365  4.1685 -0.4758
  715MOL0     H94319   8.999   4.588   2.245  2.5846  0.0545  2.3302
  715MOL0     H94320   9.071   4.461   2.147  0.0027 -0.3769  1.4929
  715MOL0     H94321   9.151   4.613   1.972 -2.0314 -1.2939 -2.9660
  715MOL0     H94322   9.065   4.753   2.045 -4.8619  0.0097  0.3032
  715MOL0     H94323   8.976   4.647   1.852  1.3264  1.1294  0.2858
  715MOL0     H94324   8.942   4.505   1.938 -0.5036  0.4861  0.3668
  715MOL0     H94325   8.799   4.638   2.108  0.9965 -3.4202 -0.7138
  715MOL0     H94326   8.733   4.611   1.960  0.8619 -0.1392 -2.1211
  715MOL0     H94327   8.879   4.839   1.894  1.0765  0.8716  1.6725
  715MOL0     H94328   8.843   4.880   2.060  1.2731  2.1848 -0.9666
  715MOL0     H94329   8.601   4.830   2.030  0.0663  1.1332  0.9687
  715MOL0     H94330   8.644   4.970   1.939  1.0374  0.5353  2.6326
  715MOL0     H94331   8.653   4.708   1.792 -2.1763 -1.3310 -1.4054
  715MOL0     H94332   8.655   4.863   1.720  1.9449 -2.2025  0.2483
  715MOL0     H94333   8.388   5.014   1.772  0.9179  0.2962  0.4512
  715MOL0     H94334   8.089   4.884   1.638 -2.4051  1.0596  0.0594
  715MOL0     H94335   8.111   4.986   1.790  0.6096 -0.3551  1.0167
  715MOL0     H94336   8.041   4.776   1.923 -1.4377  1.5452  0.6486
  715MOL0     H94337   8.032   4.683   1.772  1.6715 -0.6162  0.0112
  715MOL0     H94338   7.871   4.929   1.864 -0.4558  0.4338 -1.2624
  715MOL0     H94339   7.855   4.863   1.706 -1.5308  2.1843  0.9179
  715MOL0     H94340   7.766   4.669   1.774  1.9327  0.2414  0.3607
  715MOL0     H94341   7.683   4.818   1.845  0.5952  1.3152 -0.9578
  715MOL0     H94342   7.827   4.504   2.190 -1.2952 -0.5493 -0.4551
  715MOL0     H94343   7.655   4.378   2.297  1.0201  1.6620  2.0126
  715MOL0     H94344   7.207   4.398   2.528  1.1743 -0.9309 -0.9440
  715MOL0     H94345   6.992   4.345   2.615  2.2212 -1.3516 -0.1814
  715MOL0     H94346   6.610   4.331   2.342  0.8629 -0.1645  0.0218
  715MOL0     H94347   6.641   4.494   2.400 -5.8181  0.6105 -0.8308
  715MOL0     H94348   6.541   4.403   2.619  0.3674  1.4312  0.5983
  715MOL0     H94349   6.528   4.242   2.546  1.6073  0.6812  1.1530
  715MOL0     H94350   6.351   4.310   2.397 -3.8840  0.7013  0.8010
  715MOL0     H94351   6.378   4.482   2.436  0.5135 -0.5036 -0.6386
  715MOL0     H94352   6.277   4.293   2.663 -0.1669  1.0515  0.3205
  715MOL0     H94353   6.296   4.464   2.660 -0.1727  0.1959 -0.1404
  715MOL0     H94354   6.124   4.314   2.456  1.2690 -1.9003  1.4722
  715MOL0     H94355   6.099   4.484   2.503 -0.5485 -1.0539 -0.7579
  715MOL0     H94356   6.042   4.404   2.737  0.7421 -1.9347  1.7617
  715MOL0     H94357   6.035   4.234   2.676 -0.5159 -0.6833  1.2705
  715MOL0     H94358   5.848   4.466   2.611 -0.9213  0.4493 -1.7251
  715MOL0     H94359   5.876   4.335   2.498  3.4354 -1.6013  0.3254
  715MOL0     H94360   5.804   4.267   2.785  1.3101 -0.7653  0.0718
  715MOL0     H94361   5.823   4.157   2.650  1.7242 -0.6603  1.5005
  715MOL0     H94362   6.808   4.356   2.231 -0.8976 -0.5026 -0.5150
  715MOL0     H94363   7.039   4.408   2.126  2.1154 -2.8490 -0.2322
  715MOL0     H94364   7.366   4.640   2.126 -0.7068 -0.4652 -0.1046
  715MOL0     H94365   7.529   4.731   1.975  3.5358  0.8732 -0.2299
  715MOL0     H94366   9.395   4.921   2.161  2.3598 -0.7755 -2.3199
  715MOL0     H94367   9.641   4.991   2.231 -1.2001  0.2040  0.3214
  715MOL0     H94368   9.913   4.886   2.768  1.0485  0.6955  1.1510
  715MOL0     H94369  10.148   4.911   2.827 -1.0414  1.4968  0.0257
  715MOL0     H94370  10.332   4.793   2.790 -0.6143  0.0989 -0.3774
  715MOL0     H94371  10.388   4.961   2.828 -0.5931 -0.2361 -0.1854
  715MOL0     H94372  10.568   4.776   2.858 -0.3421 -2.8372 -1.3656
  715MOL0     H94373  10.554   4.746   2.688  1.7306 -0.5738  1.1008
  715MOL0     H94374  10.588   5.032   2.762 -0.2028 -1.1092  1.9773
  715MOL0     H94375  10.653   4.950   2.620 -0.1138 -1.7023 -0.4393
  715MOL0     H94376  10.770   4.922   2.904  0.0346 -1.2333  0.4895
  715MOL0     H94377  10.806   4.809   2.782 -3.6165  0.6636 -3.7365
  715MOL0     H94378  11.026   5.135   2.630 -0.4479 -0.6736 -1.8232
  715MOL0     H94379  10.244   4.925   2.402  0.8885 -1.7033 -1.0479
  715MOL0     H94380  10.029   4.921   2.348 -0.5593 -0.3697 -0.7330
  716MOL0     O94381   8.000  10.126   7.432 -0.0299  0.4064 -0.4865
  716MOL0     C94382   7.961  10.073   7.332  0.2993  0.3822  0.2927
  716MOL0     O94383   7.852  10.114   7.264 -0.3107 -0.4365 -0.1269
  716MOL0     C94384   7.744  10.174   7.325 -0.5435 -0.1637 -0.4611
  716MOL0     C94385   7.722  10.172   7.462 -0.1790 -0.3384  0.4162
  716MOL0     C94386   7.610  10.231   7.512 -0.0228  1.2575  0.0475
  716MOL0     C94387   7.515  10.295   7.437 -0.3763 -0.1954  0.1833
  716MOL0     O94388   7.416  10.364   7.486 -0.2992 -0.0615 -0.7115
  716MOL0     C94389   7.390  10.346   7.633  0.2602  0.2634 -0.6950
  716MOL0     C94390   7.257  10.418   7.650  0.2216  0.2286 -1.0688
  716MOL0     C94391   7.271  10.564   7.666 -0.1660  0.1086 -0.4563
  716MOL0     C94392   7.147  10.632   7.712  0.1844 -0.7462  0.0036
  716MOL0     C94393   7.130  10.636   7.861 -0.1332  0.5223 -0.6875
  716MOL0     C94394   7.040  10.742   7.914 -0.5470  0.0810 -1.0271
  716MOL0     C94395   6.888  10.712   7.894 -0.0457 -0.6953  0.1555
  716MOL0     C94396   6.805  10.811   7.965 -0.0697 -1.1972 -0.5885
  716MOL0     N94397   6.658  10.800   7.950  0.3146 -0.0065 -0.0947
  716MOL0     C94398   6.559  10.754   8.035 -0.0207 -0.5353 -0.3106
  716MOL0     C94399   6.439  10.761   7.978  0.2450  0.5614  0.0642
  716MOL0     C94400   6.301  10.739   8.026  0.3835  1.3727  0.2812
  716MOL0     C94401   6.229  10.874   8.046  0.2735  0.5808 -0.4272
  716MOL0     C94402   6.089  10.841   8.108  0.3728  0.5764 -0.4355
  716MOL0     C94403   6.015  10.716   8.066  0.1329 -0.8849  0.4705
  716MOL0     O94404   5.987  10.718   7.923  0.2548 -0.3864 -0.1152
  716MOL0     C94405   5.872  10.662   7.878 -0.0154  0.1631 -0.1907
  716MOL0     C94406   5.763  10.743   7.857  0.8909 -0.4681 -0.9961
  716MOL0     C94407   5.640  10.692   7.811 -0.0757  0.0719 -0.2007
  716MOL0     C94408   5.630  10.554   7.794 -1.0186 -0.6236 -0.5957
  716MOL0     C94409   5.502  10.497   7.749  0.1943 -0.4889  0.0733
  716MOL0     O94410   5.421  10.580   7.679  0.7296  0.4880  0.4143
  716MOL0     C94411   5.296  10.541   7.633 -0.4662  0.1982 -0.3481
  716MOL0     C94412   5.273  10.537   7.497  0.3232  0.3595  0.3693
  716MOL0     C94413   5.143  10.496   7.453 -0.4743 -0.2511  0.3333
  716MOL0     C94414   5.040  10.457   7.537 -0.1775  0.5443  0.1145
  716MOL0     O94415   4.915  10.427   7.487 -0.5329 -0.2210  0.8469
  716MOL0     C94416   4.800  10.397   7.574  0.0499  0.5488  0.2973
  716MOL0     C94417   4.678  10.380   7.488  0.1279 -0.2139 -0.0258
  716MOL0     C94418   4.545  10.341   7.552 -0.1071 -0.5827 -0.5742
  716MOL0     C94419   4.430  10.302   7.452 -0.6725 -0.9626 -0.4418
  716MOL0     C94420   4.299  10.272   7.527  0.5418  0.3622  0.3210
  716MOL0     C94421   4.240  10.402   7.587  0.1356  0.0230 -0.0683
  716MOL0     C94422   4.132  10.380   7.702  0.3138 -0.1672 -0.2405
  716MOL0     C94423   4.002  10.309   7.654  0.2796  0.3516  0.5042
  716MOL0    Cl94424   3.906  10.409   7.537  0.1986 -0.0538  0.0229
  716MOL0     C94425   5.077  10.453   7.677  0.4600  0.4085  0.0874
  716MOL0     C94426   5.201  10.495   7.719  0.0999  0.7497 -0.1008
  716MOL0     O94427   5.469  10.386   7.790 -0.3000  0.3067 -0.8062
  716MOL0     C94428   5.745  10.475   7.818  0.2018 -0.4524  0.9664
  716MOL0     C94429   5.874  10.527   7.853 -0.1857 -0.6402  0.6454
  716MOL0     N94430   6.472  10.798   7.846  0.7035 -0.4730  0.7364
  716MOL0     N94431   6.596  10.808   7.829  0.0537 -0.5366 -0.4612
  716MOL0     C94432   7.536  10.304   7.302  0.7897  0.6533  0.2672
  716MOL0     C94433   7.646  10.245   7.245 -0.1749 -1.0072 -0.0080
  716MOL0     C94434   8.052   9.965   7.281  0.4909 -0.0622  0.7223
  716MOL0     C94435   8.043   9.911   7.151  0.4079 -0.2384  0.7964
  716MOL0     C94436   8.125   9.809   7.119 -0.0667  1.0424  0.9262
  716MOL0     C94437   8.225   9.766   7.200 -0.0142 -0.2141  0.1319
  716MOL0     O94438   8.300   9.664   7.146 -0.4386  0.2166 -0.0935
  716MOL0     C94439   8.340   9.559   7.238  0.2208  0.2971 -0.8867
  716MOL0     C94440   8.483   9.582   7.288  0.1334 -1.5694  0.2875
  716MOL0     C94441   8.527   9.454   7.369  0.0146 -0.5576 -0.2091
  716MOL0     C94442   8.671   9.465   7.422  0.4932 -0.6837  0.8571
  716MOL0     C94443   8.658   9.528   7.557  0.0605  0.4273  0.5713
  716MOL0     C94444   8.664   9.577   7.666  0.3244  0.0987  0.6097
  716MOL0     C94445   8.242   9.822   7.325  0.5160 -1.4485 -0.5378
  716MOL0     C94446   8.157   9.921   7.366  0.4741  0.6055  0.0066
  716MOL0     H94447   7.791  10.124   7.531 -0.1901 -0.5444  0.2818
  716MOL0     H94448   7.605  10.227   7.621 -0.3221  0.5501  0.0155
  716MOL0     H94449   7.451  10.399   7.707 -1.6640 -1.1656  2.0611
  716MOL0     H94450   7.380  10.240   7.655 -3.0378  0.4858 -0.6197
  716MOL0     H94451   7.195  10.369   7.725 -0.1603 -1.3257 -2.3464
  716MOL0     H94452   7.199  10.400   7.560  0.8110 -0.3415 -1.3434
  716MOL0     H94453   7.300  10.606   7.569 -2.3331  0.1065 -1.1652
  716MOL0     H94454   7.361  10.593   7.720  0.0954  1.1483 -1.3920
  716MOL0     H94455   7.145  10.733   7.671 -1.2687  0.8757  3.6475
  716MOL0     H94456   7.057  10.598   7.659  0.0517  1.5105 -1.3382
  716MOL0     H94457   7.228  10.646   7.909 -0.4581  1.4017 -0.1781
  716MOL0     H94458   7.096  10.535   7.885 -0.7975  0.9181  0.0730
  716MOL0     H94459   7.072  10.842   7.882 -3.3060  1.6813  0.7020
  716MOL0     H94460   7.059  10.742   8.022 -0.0505 -1.5716 -1.0953
  716MOL0     H94461   6.863  10.712   7.787  3.6490  1.6883 -0.9105
  716MOL0     H94462   6.861  10.626   7.954 -1.4383  0.4350  1.2131
  716MOL0     H94463   6.830  10.909   7.924 -1.2906 -0.9450 -0.7873
  716MOL0     H94464   6.819  10.816   8.073  1.2490  0.9421 -0.8074
  716MOL0     H94465   6.567  10.729   8.140 -2.6575  1.3731  0.4565
  716MOL0     H94466   6.302  10.689   8.123  0.6896 -2.5249 -1.5497
  716MOL0     H94467   6.259  10.676   7.947  0.8912 -0.4525  1.4062
  716MOL0     H94468   6.212  10.921   7.949 -1.0432  0.3514 -0.3399
  716MOL0     H94469   6.285  10.946   8.106 -2.0042  2.0329  0.0892
  716MOL0     H94470   6.107  10.839   8.216  2.4422 -1.7403 -0.7425
  716MOL0     H94471   6.024  10.928   8.090  0.7985  1.1487  0.6804
  716MOL0     H94472   5.923  10.714   8.125  0.3430  2.7950  1.1931
  716MOL0     H94473   6.079  10.628   8.076  1.1621 -0.3374 -0.9118
  716MOL0     H94474   5.776  10.850   7.870  0.3252 -0.5755  0.5728
  716MOL0     H94475   5.560  10.764   7.796  0.4203  0.0928 -3.2056
  716MOL0     H94476   5.356  10.565   7.434 -0.0335 -1.6508 -1.0789
  716MOL0     H94477   5.121  10.499   7.347  3.1199  1.9764 -0.5364
  716MOL0     H94478   4.777  10.473   7.649 -0.7000 -0.5772  1.2601
  716MOL0     H94479   4.836  10.305   7.622  1.0601  1.0945  0.6302
  716MOL0     H94480   4.700  10.322   7.397  0.0474  0.6529 -0.6087
  716MOL0     H94481   4.660  10.484   7.460 -0.7172 -0.7443 -1.5389
  716MOL0     H94482   4.510  10.423   7.615  0.1869 -1.0311  0.1863
  716MOL0     H94483   4.554  10.261   7.626 -3.7302  1.4097  2.3739
  716MOL0     H94484   4.398  10.384   7.386 -2.7940  0.9540  2.7205
  716MOL0     H94485   4.463  10.211   7.402  1.0897 -1.5716  1.6678
  716MOL0     H94486   4.332  10.200   7.603  2.0480 -1.1607 -1.6459
  716MOL0     H94487   4.231  10.228   7.454  0.2729 -2.6127  2.1837
  716MOL0     H94488   4.187  10.448   7.504 -1.0741  1.3072  1.3404
  716MOL0     H94489   4.305  10.471   7.643  0.6841 -1.1843  0.8334
  716MOL0     H94490   4.176  10.321   7.783 -0.0770  1.4762  1.2562
  716MOL0     H94491   4.110  10.482   7.738  0.5163 -0.0284 -0.5071
  716MOL0     H94492   3.948  10.281   7.745  0.2959  0.0160  0.4135
  716MOL0     H94493   4.025  10.216   7.601 -0.8477  0.1676  0.3060
  716MOL0     H94494   4.999  10.426   7.748  0.1743 -0.5153 -0.5606
  716MOL0     H94495   5.218  10.484   7.826 -0.2825  4.5138  0.5009
  716MOL0     H94496   5.712  10.371   7.820  0.1658 -0.5948 -1.9447
  716MOL0     H94497   5.959  10.465   7.879  1.5073  0.8374 -1.0814
  716MOL0     H94498   7.461  10.347   7.237 -0.2145  0.7565  1.4668
  716MOL0     H94499   7.663  10.247   7.138  0.9940  1.0489  0.1656
  716MOL0     H94500   7.966   9.938   7.079  1.9712  2.4194 -0.0035
  716MOL0     H94501   8.125   9.762   7.021 -1.4090  3.0885 -0.1306
  716MOL0     H94502   8.332   9.464   7.185  1.1301  1.0671 -2.4757
  716MOL0     H94503   8.265   9.555   7.318 -1.2251  1.7201 -2.0769
  716MOL0     H94504   8.547   9.595   7.200  1.1563 -0.2328  1.1829
  716MOL0     H94505   8.488   9.674   7.346  0.6062  0.6292 -2.9381
  716MOL0     H94506   8.531   9.370   7.299 -2.9118 -0.6795 -0.3807
  716MOL0     H94507   8.448   9.432   7.442 -1.5211 -0.6018 -1.8098
  716MOL0     H94508   8.710   9.363   7.432 -0.0035 -0.9655  0.0347
  716MOL0     H94509   8.737   9.518   7.353 -0.4674  0.8458  1.0599
  716MOL0     H94510   8.656   9.627   7.761  4.2824  0.7920  0.7487
  716MOL0     H94511   8.310   9.772   7.393 -2.4108 -2.7147  1.6832
  716MOL0     H94512   8.175   9.977   7.458 -1.0176  0.9729  0.1026
  717MOL0     O94513   8.781   5.772   4.532  0.7012 -0.0036 -0.5141
  717MOL0     C94514   8.778   5.712   4.643  0.1846  0.2573 -0.2012
  717MOL0     O94515   8.663   5.712   4.731  0.3170  0.4794  0.9419
  717MOL0     C94516   8.538   5.704   4.672  0.8863 -0.5001 -0.5357
  717MOL0     C94517   8.423   5.728   4.755 -1.1667 -0.0092 -0.1422
  717MOL0     C94518   8.293   5.704   4.717 -0.0595  0.2715  0.4796
  717MOL0     C94519   8.273   5.651   4.584  0.3965  0.0085 -1.2007
  717MOL0     O94520   8.137   5.631   4.559  0.5017  0.1181 -0.1116
  717MOL0     C94521   8.108   5.581   4.427  0.6032 -0.1533  0.6736
  717MOL0     C94522   7.956   5.549   4.428  0.4032 -0.3383  0.9402
  717MOL0     C94523   7.876   5.676   4.451  0.2913  0.0354  0.1798
  717MOL0     C94524   7.728   5.622   4.465 -0.5528  0.3012 -0.1942
  717MOL0     C94525   7.630   5.734   4.432 -0.2197  0.2592 -0.1356
  717MOL0     C94526   7.614   5.833   4.544  0.1136 -0.0304  0.2580
  717MOL0     C94527   7.506   5.945   4.525  0.0851 -0.6054  0.2917
  717MOL0     C94528   7.549   6.082   4.471  0.5446 -0.6561  0.5317
  717MOL0     N94529   7.427   6.178   4.454 -0.0029  0.7906 -0.5344
  717MOL0     C94530   7.394   6.273   4.545  0.3237 -0.2320 -1.1393
  717MOL0     C94531   7.331   6.375   4.479 -0.2213  0.1421  0.1269
  717MOL0     C94532   7.274   6.493   4.562 -0.1925 -0.7053 -0.2840
  717MOL0     C94533   7.146   6.461   4.640 -0.7717  0.2271  0.4047
  717MOL0     C94534   7.096   6.588   4.709 -0.3642  0.3350 -0.4574
  717MOL0     C94535   6.957   6.560   4.778 -0.4906 -0.1078  0.1890
  717MOL0     O94536   6.909   6.679   4.843 -0.1355  0.0832 -0.1908
  717MOL0     C94537   6.780   6.695   4.902 -0.4775 -0.5216  0.0105
  717MOL0     C94538   6.680   6.590   4.912 -0.1880 -0.0948 -0.1637
  717MOL0     C94539   6.556   6.615   4.975 -1.0955 -0.8465  0.2936
  717MOL0     C94540   6.528   6.744   5.027 -0.2728  0.0937  0.5892
  717MOL0     C94541   6.395   6.757   5.091 -0.8507 -0.6945 -0.3209
  717MOL0     O94542   6.328   6.647   5.130  0.4000 -0.3593 -0.0525
  717MOL0     C94543   6.215   6.668   5.211  0.3894 -0.1602  0.7266
  717MOL0     C94544   6.221   6.752   5.323  0.4766  0.5818 -0.3038
  717MOL0     C94545   6.108   6.775   5.396  0.2690  0.5878 -0.2887
  717MOL0     C94546   5.981   6.716   5.352 -0.0031 -0.5649 -1.3074
  717MOL0     O94547   5.878   6.760   5.434  0.5490  0.8716 -0.2209
  717MOL0     C94548   5.746   6.704   5.414 -0.1352  0.3982 -0.7900
  717MOL0     C94549   5.652   6.764   5.521 -0.5611 -0.3093  0.0280
  717MOL0     C94550   5.619   6.910   5.499  0.7809  0.4873  0.1372
  717MOL0     C94551   5.518   6.936   5.622  0.0615 -0.0178 -0.6609
  717MOL0     C94552   5.501   7.079   5.664 -0.7590  1.2610  0.1529
  717MOL0     C94553   5.441   7.155   5.543  0.3804 -0.1486 -0.3071
  717MOL0     C94554   5.379   7.282   5.580  0.1043  0.0202  0.0634
  717MOL0     C94555   5.341   7.371   5.462  0.0443  0.0315 -0.0233
  717MOL0    Cl94556   5.190   7.311   5.389 -0.4330  0.2157  0.4997
  717MOL0     C94557   5.970   6.635   5.234  0.8489  0.4184 -1.1071
  717MOL0     C94558   6.094   6.606   5.168 -0.4194 -0.7656 -0.6220
  717MOL0     O94559   6.346   6.869   5.085 -0.1887 -0.7852 -0.4131
  717MOL0     C94560   6.617   6.851   5.002 -0.8419  0.5774 -0.8098
  717MOL0     C94561   6.742   6.819   4.955 -0.4354 -0.2627 -0.1026
  717MOL0     N94562   7.318   6.325   4.351  0.5537 -0.2436 -0.5282
  717MOL0     N94563   7.371   6.209   4.339  0.5189  0.0925 -0.0072
  717MOL0     C94564   8.376   5.635   4.493 -0.2415 -0.5241  0.2583
  717MOL0     C94565   8.508   5.664   4.539  0.7177  0.6234 -0.3843
  717MOL0     C94566   8.905   5.668   4.699  0.9088  0.1307  0.7687
  717MOL0     C94567   8.915   5.620   4.831 -0.1904 -1.1923  0.5280
  717MOL0     C94568   9.035   5.584   4.882 -0.0765 -0.0227  0.6386
  717MOL0     C94569   9.153   5.595   4.810  0.5500  0.1220 -0.2559
  717MOL0     O94570   9.277   5.560   4.872  0.1339  0.0091 -0.5988
  717MOL0     C94571   9.406   5.549   4.797  0.2923  0.9901 -0.0290
  717MOL0     C94572   9.515   5.470   4.882 -0.3675 -0.2149  0.7304
  717MOL0     C94573   9.657   5.487   4.827 -0.3885  0.3593  0.1923
  717MOL0     C94574   9.769   5.456   4.927 -0.1243 -0.2073 -1.0424
  717MOL0     C94575   9.893   5.446   4.846  0.7764 -0.4984  0.2298
  717MOL0     C94576   9.991   5.451   4.776  0.7918  0.1057 -0.1361
  717MOL0     C94577   9.147   5.646   4.685  0.2446 -0.1441 -0.2254
  717MOL0     C94578   9.022   5.675   4.629 -0.5370 -0.0536  0.0210
  717MOL0     H94579   8.439   5.769   4.854 -1.1593 -0.4194  0.0256
  717MOL0     H94580   8.206   5.723   4.778  0.7161  1.9889  1.0930
  717MOL0     H94581   8.165   5.492   4.398  2.0103  0.3942  1.6513
  717MOL0     H94582   8.119   5.654   4.346 -2.2865 -3.6108 -3.2392
  717MOL0     H94583   7.939   5.479   4.511 -2.8610  0.5798  1.2004
  717MOL0     H94584   7.925   5.491   4.341  1.2334 -0.6511  0.8479
  717MOL0     H94585   7.884   5.748   4.369 -0.4199 -0.1670 -0.0712
  717MOL0     H94586   7.917   5.725   4.540 -0.3635  0.2165  0.3874
  717MOL0     H94587   7.709   5.547   4.388 -0.9822 -1.2419  1.3546
  717MOL0     H94588   7.703   5.574   4.560  0.1565 -0.1202 -0.2186
  717MOL0     H94589   7.535   5.684   4.414 -0.7389  0.4527  1.8158
  717MOL0     H94590   7.662   5.785   4.340 -0.1140 -0.2358 -0.3795
  717MOL0     H94591   7.715   5.871   4.563 -0.2712  1.3281 -0.2500
  717MOL0     H94592   7.581   5.788   4.638  1.8930 -0.7785  0.5672
  717MOL0     H94593   7.422   5.908   4.465  1.1977 -1.4219 -0.8125
  717MOL0     H94594   7.455   5.957   4.621  2.3276 -3.1015  1.9313
  717MOL0     H94595   7.600   6.067   4.376  0.6167  2.1710  0.0403
  717MOL0     H94596   7.619   6.131   4.540 -0.8034  0.9430  0.8331
  717MOL0     H94597   7.426   6.277   4.649 -2.0781 -1.1195 -0.2915
  717MOL0     H94598   7.251   6.572   4.490  2.7079 -1.9885 -2.8405
  717MOL0     H94599   7.342   6.541   4.633 -1.1559  1.7567 -0.9147
  717MOL0     H94600   7.168   6.383   4.714 -0.8387 -0.9733 -0.7898
  717MOL0     H94601   7.065   6.420   4.578 -0.1369 -1.9674  0.9229
  717MOL0     H94602   7.171   6.634   4.774 -0.1284 -0.1990 -0.3435
  717MOL0     H94603   7.072   6.661   4.631 -0.6604  0.8498  0.1121
  717MOL0     H94604   6.959   6.484   4.856  1.3116  0.2606  0.5680
  717MOL0     H94605   6.884   6.519   4.708  1.0974 -0.1676 -1.5116
  717MOL0     H94606   6.710   6.497   4.864 -0.0760 -0.9063  1.4293
  717MOL0     H94607   6.481   6.536   4.972 -2.4535  0.4275 -0.7735
  717MOL0     H94608   6.307   6.809   5.355  2.0667 -2.8750  2.2441
  717MOL0     H94609   6.130   6.849   5.472  1.3367  0.9182 -0.8997
  717MOL0     H94610   5.744   6.595   5.428 -3.1202  0.6210  1.3963
  717MOL0     H94611   5.707   6.725   5.314  0.9866  0.6703 -1.1889
  717MOL0     H94612   5.704   6.757   5.616  1.3230 -0.2382 -0.9525
  717MOL0     H94613   5.562   6.702   5.527 -1.9292  1.4043 -1.5731
  717MOL0     H94614   5.584   6.913   5.396 -1.1213 -0.1018  0.7083
  717MOL0     H94615   5.705   6.977   5.502  0.7623  0.7061 -2.4157
  717MOL0     H94616   5.418   6.891   5.615  1.0785 -3.0626  1.8047
  717MOL0     H94617   5.556   6.888   5.713 -0.3760 -1.2747 -1.1179
  717MOL0     H94618   5.593   7.123   5.704  2.0574 -2.6902 -1.4121
  717MOL0     H94619   5.429   7.078   5.746  0.3600  0.5788  1.1719
  717MOL0     H94620   5.355   7.093   5.514 -1.4476  1.5756  1.0939
  717MOL0     H94621   5.515   7.166   5.463 -1.3034 -1.6448 -2.1891
  717MOL0     H94622   5.294   7.266   5.648  0.3886 -0.6628  0.2621
  717MOL0     H94623   5.454   7.338   5.636  1.6837  0.0010 -1.9534
  717MOL0     H94624   5.416   7.372   5.383  0.6516  2.0656  0.5357
  717MOL0     H94625   5.330   7.477   5.486 -1.9071  0.2978 -1.8217
  717MOL0     H94626   5.881   6.588   5.194  0.0518  0.5530  0.4333
  717MOL0     H94627   6.097   6.544   5.078 -1.5222 -1.0903 -0.4590
  717MOL0     H94628   6.599   6.955   5.025  0.9950  1.1837 -1.8777
  717MOL0     H94629   6.803   6.904   4.927 -0.2252  0.5743  2.5883
  717MOL0     H94630   8.369   5.599   4.391  0.9301 -0.8708  0.2755
  717MOL0     H94631   8.584   5.663   4.462  0.6420  0.6759 -0.4609
  717MOL0     H94632   8.827   5.608   4.894  0.1782 -3.6972  0.6602
  717MOL0     H94633   9.039   5.538   4.980  2.6662 -1.7808 -0.1674
  717MOL0     H94634   9.452   5.645   4.775  1.0333  0.4019 -1.1322
  717MOL0     H94635   9.391   5.486   4.709 -0.5569  1.7870 -0.4629
  717MOL0     H94636   9.519   5.505   4.986 -0.5793 -1.5126  1.1901
  717MOL0     H94637   9.495   5.363   4.881 -1.4723 -0.1627  4.4775
  717MOL0     H94638   9.676   5.587   4.788  0.0026  0.1156 -0.2616
  717MOL0     H94639   9.659   5.427   4.735  0.8432  2.8714 -1.5587
  717MOL0     H94640   9.791   5.539   4.994  2.2702  0.0216 -1.9991
  717MOL0     H94641   9.753   5.357   4.971  0.9983 -0.4432 -1.1271
  717MOL0     H94642  10.076   5.455   4.711  0.5707 -2.3550 -0.7050
  717MOL0     H94643   9.240   5.662   4.633  1.3017 -1.2875  1.2414
  717MOL0     H94644   9.034   5.715   4.529  0.6760  1.4508  0.7294
  718MOL0     O94645  10.006   4.624   0.217  0.0976 -0.4806  1.2578
  718MOL0     C94646  10.052   4.576   0.110  0.2752  0.2096  0.5929
  718MOL0     O94647   9.994   4.568  -0.017  0.3755  0.0284 -0.3715
  718MOL0     C94648   9.882   4.630  -0.058  0.2285  0.5103 -0.4834
  718MOL0     C94649   9.870   4.768  -0.022 -0.0503  0.8368 -0.2296
  718MOL0     C94650   9.747   4.833  -0.050 -0.8491 -0.1690 -0.4730
  718MOL0     C94651   9.648   4.783  -0.130 -0.4527  0.1092 -0.0380
  718MOL0     O94652   9.529   4.848  -0.159 -0.7300 -0.3527  0.0512
  718MOL0     C94653   9.552   4.959  -0.255 -0.0021 -0.3429  0.2615
  718MOL0     C94654   9.417   4.986  -0.331 -0.2390  0.6734  0.5527
  718MOL0     C94655   9.290   5.025  -0.246  0.1600  0.1642  0.4129
  718MOL0     C94656   9.177   5.083  -0.335 -0.0706  0.2192  0.5080
  718MOL0     C94657   9.045   5.092  -0.252 -0.2449  0.2832 -1.1254
  718MOL0     C94658   8.922   5.142  -0.321 -0.3420 -0.1192  0.3924
  718MOL0     C94659   8.952   5.245  -0.431  0.2595 -0.6379  0.1299
  718MOL0     C94660   8.823   5.319  -0.457  0.4792 -0.3319  0.8136
  718MOL0     N94661   8.730   5.235  -0.531 -0.1022  0.0877  0.3308
  718MOL0     C94662   8.646   5.152  -0.473  0.9392 -0.0305 -0.4213
  718MOL0     C94663   8.560   5.111  -0.570 -0.1706 -0.1726  0.9896
  718MOL0     C94664   8.444   5.009  -0.550  0.0290 -0.6993  0.2751
  718MOL0     C94665   8.317   5.075  -0.507  0.2469 -0.2069  0.4264
  718MOL0     C94666   8.189   4.986  -0.536  0.2891 -0.0088  0.5572
  718MOL0     C94667   8.068   5.067  -0.492  0.9200 -0.1898  0.4257
  718MOL0     O94668   7.955   4.983  -0.456  0.0442 -0.3114  0.3561
  718MOL0     C94669   7.839   5.040  -0.416  0.3666 -0.0412  0.2728
  718MOL0     C94670   7.804   5.173  -0.434 -0.3916 -0.6749  0.4892
  718MOL0     C94671   7.683   5.218  -0.385  0.2324 -0.3875 -0.3437
  718MOL0     C94672   7.593   5.138  -0.316  0.3713  0.3035 -1.1016
  718MOL0     C94673   7.469   5.196  -0.265 -0.8273  1.2656 -0.9278
  718MOL0     O94674   7.460   5.320  -0.214  0.3007  0.8314 -0.2498
  718MOL0     C94675   7.342   5.363  -0.173  0.5022  0.8496 -0.6538
  718MOL0     C94676   7.299   5.480  -0.232  0.2295 -0.1915 -0.3942
  718MOL0     C94677   7.180   5.541  -0.195 -0.8990 -0.0696  0.5053
  718MOL0     C94678   7.093   5.478  -0.099  0.1440 -0.8247 -0.1501
  718MOL0     O94679   6.989   5.560  -0.056  0.1779  0.4465  0.1831
  718MOL0     C94680   6.856   5.503  -0.046 -0.1433  0.3581 -0.1672
  718MOL0     C94681   6.769   5.610   0.016 -0.2089 -0.1007 -0.0078
  718MOL0     C94682   6.632   5.555   0.054 -0.1819  0.9824  0.0821
  718MOL0     C94683   6.571   5.655   0.153  1.5427 -0.2271  0.4153
  718MOL0     C94684   6.424   5.621   0.183  0.5145 -0.8993 -0.0852
  718MOL0     C94685   6.359   5.703   0.302  0.0316 -0.5806 -0.4897
  718MOL0     C94686   6.210   5.673   0.309  0.4326  0.1433 -0.2029
  718MOL0     C94687   6.135   5.765   0.411 -0.1273 -0.4434  0.0120
  718MOL0    Cl94688   5.962   5.700   0.431 -0.2998 -0.7435 -0.5043
  718MOL0     C94689   7.136   5.360  -0.044  0.5284 -0.3893  0.4358
  718MOL0     C94690   7.256   5.300  -0.080 -0.6832 -0.7939  0.4556
  718MOL0     O94691   7.377   5.119  -0.277 -0.5953  0.3779 -0.3906
  718MOL0     C94692   7.622   5.002  -0.305  0.0733 -0.4531 -0.6736
  718MOL0     C94693   7.743   4.956  -0.354 -0.8171  0.2946 -0.0625
  718MOL0     N94694   8.589   5.180  -0.685 -0.0036 -0.3517  0.3575
  718MOL0     N94695   8.696   5.251  -0.661  0.0963 -0.5368 -0.0027
  718MOL0     C94696   9.657   4.644  -0.177 -1.1432 -1.2723 -0.0413
  718MOL0     C94697   9.771   4.567  -0.130 -0.2978 -0.0475  0.0904
  718MOL0     C94698  10.169   4.489   0.116 -0.5681  1.2630  0.1942
  718MOL0     C94699  10.215   4.400   0.012 -0.3310 -0.3342  1.4633
  718MOL0     C94700  10.342   4.339   0.016  0.8555  0.0274 -0.5976
  718MOL0     C94701  10.418   4.349   0.133 -0.1864 -0.4596 -0.1810
  718MOL0     O94702  10.540   4.286   0.134  0.0536 -0.3258 -0.0271
  718MOL0     C94703  10.533   4.143   0.136 -0.4363 -0.2093 -0.0933
  718MOL0     C94704  10.632   4.092   0.241 -0.2241 -0.4230  0.2609
  718MOL0     C94705  10.786   4.116   0.220  0.0558  0.2794 -0.4824
  718MOL0     C94706  10.863   4.089   0.344  0.5079 -0.1028 -0.1958
  718MOL0     C94707  11.005   4.127   0.316 -0.0953 -1.0843 -0.5148
  718MOL0     C94708  11.113   4.146   0.266 -0.3767  0.3750  0.1554
  718MOL0     C94709  10.376   4.434   0.237  0.1624  0.1737 -0.7578
  718MOL0     C94710  10.250   4.504   0.231 -0.0724  0.4962 -0.1668
  718MOL0     H94711   9.943   4.813   0.044  0.4824  0.3021 -0.4512
  718MOL0     H94712   9.731   4.930  -0.006  0.6070 -1.0057  2.1434
  718MOL0     H94713   9.632   4.929  -0.324 -0.1748 -0.2910  0.0400
  718MOL0     H94714   9.583   5.051  -0.204  0.1516 -0.7271  0.8744
  718MOL0     H94715   9.386   4.897  -0.387  2.0104  1.2923 -1.8880
  718MOL0     H94716   9.421   5.070  -0.402 -4.0834  1.5690  1.1624
  718MOL0     H94717   9.320   5.094  -0.166  0.6864 -1.8034  1.9992
  718MOL0     H94718   9.261   4.935  -0.191  1.3202 -2.4935 -2.9905
  718MOL0     H94719   9.214   5.181  -0.368  2.3823 -1.3453 -1.7463
  718MOL0     H94720   9.164   5.026  -0.427 -0.3662 -0.1787  0.7967
  718MOL0     H94721   9.076   5.150  -0.164 -1.7927 -1.4241  0.6476
  718MOL0     H94722   9.021   4.999  -0.199  2.6641 -0.3817 -0.7866
  718MOL0     H94723   8.855   5.179  -0.243  0.3745  3.3785 -0.4454
  718MOL0     H94724   8.881   5.056  -0.374  4.0369 -1.3611 -1.5096
  718MOL0     H94725   9.021   5.320  -0.392 -0.0424 -0.1950 -0.1818
  718MOL0     H94726   8.996   5.205  -0.523 -0.9576 -1.5863 -0.0572
  718MOL0     H94727   8.842   5.410  -0.515  1.1145 -1.1945 -0.3662
  718MOL0     H94728   8.780   5.343  -0.360 -1.5555  0.6889 -0.2610
  718MOL0     H94729   8.634   5.118  -0.371 -0.6817  2.4094  0.3095
  718MOL0     H94730   8.482   4.934  -0.479  0.9450  1.5141  2.2501
  718MOL0     H94731   8.429   4.959  -0.647  0.2664 -1.4516  0.6143
  718MOL0     H94732   8.308   5.170  -0.560 -1.1923 -0.7152 -0.3079
  718MOL0     H94733   8.330   5.111  -0.404 -0.9185  0.0775  0.4944
  718MOL0     H94734   8.189   4.973  -0.645  1.4620  0.8173  0.4259
  718MOL0     H94735   8.194   4.895  -0.476 -0.0117 -0.3097  0.1338
  718MOL0     H94736   8.033   5.142  -0.563 -2.2567 -2.0650 -0.1556
  718MOL0     H94737   8.098   5.115  -0.398  0.1358 -0.9485  1.0830
  718MOL0     H94738   7.856   5.249  -0.492  1.8864 -2.3288  0.2190
  718MOL0     H94739   7.659   5.319  -0.415  3.3413  1.3516  2.4687
  718MOL0     H94740   7.367   5.527  -0.302  2.0895 -0.0990  1.3970
  718MOL0     H94741   7.153   5.632  -0.247 -0.5859 -1.4398 -2.1866
  718MOL0     H94742   6.840   5.406   0.001 -2.0645  2.2126  3.4106
  718MOL0     H94743   6.832   5.489  -0.152  1.4153  3.4172 -1.0373
  718MOL0     H94744   6.767   5.701  -0.046  2.1365 -0.6351 -0.9574
  718MOL0     H94745   6.818   5.640   0.109 -0.9387 -2.6206  1.2749
  718MOL0     H94746   6.643   5.459   0.104 -0.2615  1.0483  0.2270
  718MOL0     H94747   6.582   5.527  -0.039  1.2700 -2.9394  0.2848
  718MOL0     H94748   6.633   5.660   0.243 -1.4731 -0.2948  2.6718
  718MOL0     H94749   6.567   5.750   0.099  0.7744 -0.7296 -0.4486
  718MOL0     H94750   6.406   5.516   0.206 -0.3150 -0.5772  0.8393
  718MOL0     H94751   6.371   5.645   0.090 -0.3860  2.1540  1.0674
  718MOL0     H94752   6.379   5.811   0.295  1.4353 -0.7102  0.9755
  718MOL0     H94753   6.397   5.665   0.397 -1.7559 -0.8060  0.1634
  718MOL0     H94754   6.166   5.704   0.214  0.0976  1.1087  0.2625
  718MOL0     H94755   6.191   5.567   0.330 -1.4166  0.6878  1.0556
  718MOL0     H94756   6.120   5.866   0.372 -1.1448 -0.6711 -0.2107
  718MOL0     H94757   6.172   5.759   0.514 -1.0644  1.3904  0.4941
  718MOL0     H94758   7.066   5.315   0.026  1.6174  0.1309  1.9140
  718MOL0     H94759   7.294   5.209  -0.035  1.7540  0.1289  0.4376
  718MOL0     H94760   7.547   4.943  -0.254 -0.3075 -0.0481 -0.7541
  718MOL0     H94761   7.757   4.849  -0.349  2.3402  0.6196 -0.1452
  718MOL0     H94762   9.578   4.604  -0.241 -1.9574  0.2757 -0.0596
  718MOL0     H94763   9.789   4.464  -0.158  1.0636  0.9265 -3.1553
  718MOL0     H94764  10.164   4.401  -0.084  1.5812  1.3122  0.3961
  718MOL0     H94765  10.385   4.275  -0.061  4.0557 -0.5521  1.4513
  718MOL0     H94766  10.551   4.103   0.035  0.1665  1.7495 -0.8054
  718MOL0     H94767  10.433   4.105   0.160  0.6260 -1.4765  2.7582
  718MOL0     H94768  10.606   4.139   0.336 -2.3943 -1.1432  0.0816
  718MOL0     H94769  10.602   3.987   0.242 -1.9841  0.0251  2.9459
  718MOL0     H94770  10.807   4.220   0.196  2.3233  0.1520  0.7163
  718MOL0     H94771  10.828   4.061   0.134  1.8897  1.6360 -0.5090
  718MOL0     H94772  10.823   4.142   0.431 -1.5073  2.5242 -2.5231
  718MOL0     H94773  10.875   3.981   0.359  1.4879 -0.0562 -0.6150
  718MOL0     H94774  11.214   4.145   0.229  0.1164  0.6467  1.4636
  718MOL0     H94775  10.430   4.440   0.331  0.4147 -1.9386 -0.7315
  718MOL0     H94776  10.228   4.572   0.312  1.7776 -0.9149  1.6164
  719MOL0     O94777   1.681   7.484   6.206  0.3836 -0.8002  0.1492
  719MOL0     C94778   1.748   7.407   6.261 -1.2004  0.7997 -0.5381
  719MOL0     O94779   1.711   7.318   6.355  0.7974 -0.2168  0.3987
  719MOL0     C94780   1.577   7.318   6.403 -0.7607  0.3968  0.5867
  719MOL0     C94781   1.533   7.198   6.470  0.9883 -0.7607  0.2629
  719MOL0     C94782   1.403   7.187   6.523  0.1911  0.0802 -1.0492
  719MOL0     C94783   1.304   7.293   6.517  0.1738  0.1157 -0.9888
  719MOL0     O94784   1.175   7.291   6.575  0.2414  0.1311  0.3473
  719MOL0     C94785   1.128   7.157   6.592  0.0686  0.3921 -0.2118
  719MOL0     C94786   0.978   7.145   6.565 -0.5079 -0.1819  0.2604
  719MOL0     C94787   0.920   7.243   6.457  0.5426  0.0612  0.4454
  719MOL0     C94788   0.777   7.201   6.415  0.0370 -0.9246  0.9193
  719MOL0     C94789   0.716   7.301   6.316  0.3835 -0.1576  0.6396
  719MOL0     C94790   0.571   7.267   6.309 -0.0287  0.0905  0.0238
  719MOL0     C94791   0.512   7.368   6.206  0.1884  0.2015  0.0135
  719MOL0     C94792   0.363   7.320   6.170  0.5131 -0.4166 -0.3607
  719MOL0     N94793   0.267   7.366   6.269 -0.5756 -0.4707  0.0753
  719MOL0     C94794   0.207   7.486   6.279  0.0261 -1.1034  0.4292
  719MOL0     C94795   0.112   7.483   6.372  0.5351  0.5421 -0.0136
  719MOL0     C94796   0.026   7.592   6.416 -0.0901  0.0099 -0.2565
  719MOL0     C94797  -0.111   7.581   6.373  0.8060  0.2462 -0.4374
  719MOL0     C94798  -0.124   7.579   6.221  0.1455  0.5752  0.6056
  719MOL0     C94799  -0.266   7.609   6.174  0.4625 -0.3411  0.0833
  719MOL0     O94800  -0.286   7.748   6.204 -0.0992  0.2804 -0.0083
  719MOL0     C94801  -0.378   7.817   6.132 -0.0553  0.1584 -0.1153
  719MOL0     C94802  -0.351   7.953   6.113  0.0802 -0.2208  0.5944
  719MOL0     C94803  -0.449   8.040   6.060  0.5665  0.1656 -0.0209
  719MOL0     C94804  -0.568   7.988   6.012 -0.3815  0.1242 -0.7168
  719MOL0     C94805  -0.681   8.076   5.969  0.1039 -0.8443 -0.6464
  719MOL0     O94806  -0.707   8.198   6.031 -0.1437 -0.4415  1.0519
  719MOL0     C94807  -0.816   8.276   5.992  0.5014  0.3753 -0.1481
  719MOL0     C94808  -0.799   8.410   6.029  0.7068  0.2179 -0.4229
  719MOL0     C94809  -0.911   8.498   6.014  0.5971 -0.7975 -0.3784
  719MOL0     C94810  -1.038   8.459   5.969 -0.4327  0.6236  0.4879
  719MOL0     O94811  -1.137   8.552   5.956 -0.6446  0.4784 -0.2900
  719MOL0     C94812  -1.255   8.528   5.876 -0.4650  0.8476 -0.5138
  719MOL0     C94813  -1.341   8.647   5.856  0.0579 -0.0146 -0.9131
  719MOL0     C94814  -1.349   8.719   5.997 -0.0782 -0.3978  0.4388
  719MOL0     C94815  -1.461   8.821   5.986  0.7361 -0.0513  0.5887
  719MOL0     C94816  -1.465   8.926   6.089  0.4342 -0.7063 -0.6091
  719MOL0     C94817  -1.465   8.871   6.234 -0.6162 -0.3669 -0.5532
  719MOL0     C94818  -1.594   8.796   6.275 -0.8303 -0.0628  0.4445
  719MOL0     C94819  -1.724   8.876   6.248 -0.2655 -0.9264 -0.4189
  719MOL0    Cl94820  -1.855   8.812   6.355  0.0346  0.1779  0.0920
  719MOL0     C94821  -1.056   8.320   5.949 -0.6040 -0.3344 -0.3068
  719MOL0     C94822  -0.951   8.236   5.966 -0.4132 -0.3007  0.4039
  719MOL0     O94823  -0.745   8.032   5.878 -0.2506  1.0665 -0.3031
  719MOL0     C94824  -0.589   7.846   6.031 -0.7239 -0.2091  0.2903
  719MOL0     C94825  -0.497   7.756   6.090 -1.3725 -0.0304  0.6793
  719MOL0     N94826   0.103   7.352   6.413 -0.4195 -0.0795  0.1695
  719MOL0     N94827   0.207   7.290   6.359 -0.3250 -0.0036  1.3045
  719MOL0     C94828   1.354   7.407   6.463  0.1089 -0.6308  0.2731
  719MOL0     C94829   1.487   7.425   6.415  0.3633  0.0188  0.5021
  719MOL0     C94830   1.897   7.425   6.238 -0.2210 -0.1334  1.0061
  719MOL0     C94831   1.993   7.340   6.296 -0.4476 -0.5269  0.8386
  719MOL0     C94832   2.131   7.360   6.270  0.6668 -0.1527 -0.4960
  719MOL0     C94833   2.174   7.463   6.185  0.0226  0.1052  0.0001
  719MOL0     O94834   2.309   7.480   6.165  0.8852  0.0302  0.1737
  719MOL0     C94835   2.366   7.597   6.118 -0.2911 -0.4120 -1.0048
  719MOL0     C94836   2.501   7.623   6.179  0.0275  0.0058  0.0062
  719MOL0     C94837   2.497   7.674   6.320 -0.7349 -0.0895 -0.9850
  719MOL0     C94838   2.472   7.834   6.314 -0.4385  0.6716 -0.3194
  719MOL0     C94839   2.487   7.895   6.449  0.8762  0.6838 -0.1711
  719MOL0     C94840   2.516   7.949   6.554 -0.3744 -0.0367 -0.7316
  719MOL0     C94841   2.082   7.552   6.137 -0.1313  1.2440 -0.4066
  719MOL0     C94842   1.947   7.532   6.167 -0.2048  0.3341 -0.7032
  719MOL0     H94843   1.597   7.111   6.464 -0.4040 -1.9083  1.2835
  719MOL0     H94844   1.394   7.098   6.584  1.9443 -0.2275 -1.2000
  719MOL0     H94845   1.145   7.106   6.687 -1.7209 -0.8576 -0.5037
  719MOL0     H94846   1.175   7.088   6.522 -0.6514  0.0068 -0.3351
  719MOL0     H94847   0.922   7.145   6.659 -0.4165  1.2376  0.3398
  719MOL0     H94848   0.956   7.044   6.527  1.0189 -0.0819 -0.9870
  719MOL0     H94849   0.988   7.230   6.371  0.3198 -0.3831  0.3368
  719MOL0     H94850   0.918   7.348   6.486  1.7718  1.3862 -3.4887
  719MOL0     H94851   0.773   7.101   6.372  0.5761  0.0292 -1.5236
  719MOL0     H94852   0.712   7.210   6.503 -1.0156 -4.4843  0.6744
  719MOL0     H94853   0.763   7.280   6.219 -1.7024  1.5154 -0.8157
  719MOL0     H94854   0.737   7.402   6.351  1.8242 -0.4766  0.7868
  719MOL0     H94855   0.524   7.287   6.406  1.0760 -0.9665  0.7952
  719MOL0     H94856   0.546   7.164   6.284  4.7851 -1.1501 -0.6504
  719MOL0     H94857   0.517   7.472   6.239 -1.1496  0.8867 -1.7658
  719MOL0     H94858   0.560   7.359   6.108  1.2930  2.1514  0.3360
  719MOL0     H94859   0.370   7.212   6.156  0.8147 -0.5438  0.7609
  719MOL0     H94860   0.337   7.365   6.073 -2.3652 -0.3653  0.3352
  719MOL0     H94861   0.245   7.575   6.231 -1.6206 -0.9870 -0.7332
  719MOL0     H94862   0.079   7.679   6.376 -0.2765  0.7953  1.1412
  719MOL0     H94863   0.034   7.611   6.523 -0.0705 -1.5596  0.0436
  719MOL0     H94864  -0.172   7.662   6.414 -0.5393 -0.0179 -1.8554
  719MOL0     H94865  -0.157   7.489   6.409  1.6719  0.4429  1.2567
  719MOL0     H94866  -0.057   7.653   6.176  0.4490  1.7509  2.8216
  719MOL0     H94867  -0.089   7.483   6.182  1.7895  0.5678  1.9739
  719MOL0     H94868  -0.348   7.555   6.222 -0.7669  1.5845  0.2432
  719MOL0     H94869  -0.261   7.583   6.068 -0.6683  1.0835 -0.3459
  719MOL0     H94870  -0.256   7.998   6.140 -0.3719  1.8061 -0.9600
  719MOL0     H94871  -0.421   8.143   6.043  1.0769 -0.2817 -2.2291
  719MOL0     H94872  -0.703   8.446   6.065  0.0627  1.5956 -0.0118
  719MOL0     H94873  -0.907   8.604   6.038 -1.6808 -0.4142 -1.4410
  719MOL0     H94874  -1.308   8.446   5.924  1.9816 -1.1280 -0.9984
  719MOL0     H94875  -1.222   8.484   5.782 -0.3428  0.2037 -0.1725
  719MOL0     H94876  -1.435   8.612   5.812 -0.2598 -0.0415 -0.2302
  719MOL0     H94877  -1.287   8.712   5.787 -0.5424 -1.1408 -2.5179
  719MOL0     H94878  -1.253   8.769   6.011 -0.4574  0.6892 -0.6452
  719MOL0     H94879  -1.367   8.643   6.074 -1.5970 -0.1113  0.4065
  719MOL0     H94880  -1.442   8.875   5.893  2.3527 -1.4758  0.0216
  719MOL0     H94881  -1.558   8.771   5.989  0.3467  0.7343  1.4633
  719MOL0     H94882  -1.546   8.998   6.077  0.0535 -1.1171 -0.5090
  719MOL0     H94883  -1.384   8.997   6.072 -1.7773  1.9243 -0.7727
  719MOL0     H94884  -1.463   8.958   6.300 -1.2621 -2.1295  1.9316
  719MOL0     H94885  -1.373   8.812   6.244 -1.4412 -2.6383 -4.3603
  719MOL0     H94886  -1.596   8.693   6.239  1.3772 -0.8672  2.3361
  719MOL0     H94887  -1.591   8.796   6.385  3.1417 -1.2969  0.4705
  719MOL0     H94888  -1.743   8.864   6.141 -2.0948 -3.0567  0.0686
  719MOL0     H94889  -1.719   8.979   6.282  1.0291 -1.9250  2.8168
  719MOL0     H94890  -1.157   8.285   5.933 -0.4245 -2.1055  1.9623
  719MOL0     H94891  -0.978   8.133   5.943  0.6845 -0.9684  1.9219
  719MOL0     H94892  -0.693   7.816   6.016 -1.5197  1.7182  1.5617
  719MOL0     H94893  -0.520   7.651   6.107  4.7810 -1.5504  2.3379
  719MOL0     H94894   1.286   7.492   6.468  0.7789 -0.0908  0.2901
  719MOL0     H94895   1.525   7.518   6.376  0.5124 -0.5921 -0.8761
  719MOL0     H94896   1.956   7.263   6.363 -1.4991 -1.0174 -0.2648
  719MOL0     H94897   2.207   7.298   6.316  0.4456  0.3839  0.6376
  719MOL0     H94898   2.303   7.683   6.142  1.1586 -0.0030  1.8129
  719MOL0     H94899   2.374   7.585   6.010  0.7705  1.0332 -1.1130
  719MOL0     H94900   2.569   7.539   6.166 -0.8207 -0.7311  0.2817
  719MOL0     H94901   2.532   7.698   6.105 -1.2625 -1.4393 -2.1157
  719MOL0     H94902   2.589   7.649   6.374  0.2965 -0.3831 -2.7861
  719MOL0     H94903   2.415   7.628   6.376 -2.1593  3.4326  0.0609
  719MOL0     H94904   2.525   7.896   6.241 -0.6731  2.4719  0.9737
  719MOL0     H94905   2.365   7.838   6.294 -1.6543 -3.6280  3.5029
  719MOL0     H94906   2.550   7.991   6.646  3.0371  1.9039 -2.6692
  719MOL0     H94907   2.104   7.628   6.063  1.7645  1.9675  0.8258
  719MOL0     H94908   1.882   7.604   6.119  0.9555  0.6671 -1.8172
  720MOL0     O94909   9.945   1.936   5.425 -0.3116 -0.3830  0.2535
  720MOL0     C94910   9.997   2.044   5.383  0.2429 -0.1456  1.7228
  720MOL0     O94911   9.929   2.148   5.321  0.0419  0.0517 -0.0601
  720MOL0     C94912   9.789   2.137   5.313 -0.1697  0.0125  1.5902
  720MOL0     C94913   9.706   2.239   5.367 -0.6477  0.8230  1.0648
  720MOL0     C94914   9.568   2.215   5.353  0.1332 -0.4429 -0.0665
  720MOL0     C94915   9.516   2.103   5.293 -0.0058  0.0282 -0.0915
  720MOL0     O94916   9.378   2.091   5.298  0.0695 -0.0761 -0.1436
  720MOL0     C94917   9.324   1.955   5.323 -0.5304  0.4882 -0.5615
  720MOL0     C94918   9.223   1.972   5.437 -0.5386 -0.8412  0.5094
  720MOL0     C94919   9.112   1.874   5.451  0.8000  0.0604 -0.2643
  720MOL0     C94920   9.010   1.924   5.556  0.3937  0.4338  0.4332
  720MOL0     C94921   8.868   1.857   5.544 -0.0631  0.7399  0.5275
  720MOL0     C94922   8.785   1.842   5.674 -0.5794  0.5444  0.6742
  720MOL0     C94923   8.719   1.976   5.715 -0.1120 -0.0585  0.6165
  720MOL0     C94924   8.683   1.964   5.860 -0.4191 -0.5790 -0.8573
  720MOL0     N94925   8.593   2.076   5.894  0.2174 -0.2760 -0.8774
  720MOL0     C94926   8.609   2.206   5.862 -0.2790  0.0279  0.4387
  720MOL0     C94927   8.500   2.271   5.907  0.3034  0.5547  1.0647
  720MOL0     C94928   8.458   2.408   5.889 -0.3264 -0.1694 -0.0372
  720MOL0     C94929   8.350   2.412   5.782  0.1441  0.3455 -0.1514
  720MOL0     C94930   8.249   2.523   5.807  0.8070 -0.6841 -1.2207
  720MOL0     C94931   8.111   2.464   5.778  0.2056 -0.6755 -0.4253
  720MOL0     O94932   8.027   2.576   5.756 -0.4243  0.3872  0.1747
  720MOL0     C94933   7.911   2.560   5.687 -0.4547  0.8370 -0.3356
  720MOL0     C94934   7.855   2.672   5.631  0.8529  0.1625 -0.7333
  720MOL0     C94935   7.739   2.674   5.544 -0.1003 -0.2785 -0.6078
  720MOL0     C94936   7.668   2.552   5.525 -0.9747 -0.9923  0.3218
  720MOL0     C94937   7.534   2.549   5.457  0.6076  0.7464  0.0125
  720MOL0     O94938   7.500   2.664   5.399 -0.4406 -0.3037  0.6563
  720MOL0     C94939   7.392   2.673   5.312 -0.1776  0.6563 -0.0392
  720MOL0     C94940   7.423   2.665   5.178 -0.3064  0.0443 -0.1811
  720MOL0     C94941   7.330   2.694   5.079  0.2949  0.2230 -0.1959
  720MOL0     C94942   7.202   2.728   5.122 -0.1109 -0.9695  0.3155
  720MOL0     O94943   7.103   2.757   5.035  0.3779  1.0240  1.0279
  720MOL0     C94944   7.141   2.826   4.914  0.4494  0.0730  0.7201
  720MOL0     C94945   7.010   2.895   4.857  0.1331  0.3473 -0.0262
  720MOL0     C94946   6.994   3.032   4.925 -0.2291  0.1850  0.3850
  720MOL0     C94947   6.879   3.106   4.865 -0.5152 -0.5624  0.5281
  720MOL0     C94948   6.895   3.261   4.881  0.6947 -0.9585 -0.4897
  720MOL0     C94949   6.898   3.315   5.024 -0.5122  0.1306  0.1330
  720MOL0     C94950   6.769   3.266   5.113 -0.4681  0.0787 -0.2186
  720MOL0     C94951   6.779   3.341   5.249 -0.2326  0.9347 -0.4287
  720MOL0    Cl94952   6.628   3.331   5.353  0.0448  0.0182  0.1386
  720MOL0     C94953   7.165   2.721   5.260 -0.4358  0.2641  0.4586
  720MOL0     C94954   7.264   2.694   5.353 -0.5255  0.0655 -0.2533
  720MOL0     O94955   7.470   2.443   5.452  0.1596 -0.0841  0.5934
  720MOL0     C94956   7.724   2.431   5.583  0.5153 -0.7925 -0.2585
  720MOL0     C94957   7.849   2.437   5.652 -1.2275 -1.1806  0.7320
  720MOL0     N94958   8.415   2.169   5.962  0.0596 -0.3615 -0.4647
  720MOL0     N94959   8.472   2.052   5.946  0.3811 -0.1511  0.3013
  720MOL0     C94960   9.606   2.013   5.230  0.9104 -0.4236 -0.3656
  720MOL0     C94961   9.741   2.019   5.245 -0.3563 -0.1205  0.7726
  720MOL0     C94962  10.141   2.062   5.405  0.1769  0.6609 -0.3346
  720MOL0     C94963  10.213   2.174   5.343  0.1478  0.7880 -0.3342
  720MOL0     C94964  10.346   2.192   5.364 -0.0561  0.4815  0.4386
  720MOL0     C94965  10.420   2.106   5.449 -0.2563  0.2326 -0.6054
  720MOL0     O94966  10.550   2.120   5.483 -0.3576 -0.2070  0.1540
  720MOL0     C94967  10.612   2.222   5.408  0.0679 -0.1186  0.6516
  720MOL0     C94968  10.763   2.213   5.421  0.5518  0.1145  0.1212
  720MOL0     C94969  10.809   2.243   5.562 -0.0715 -0.2142 -0.1517
  720MOL0     C94970  10.955   2.279   5.557  0.4217 -0.5017 -0.2935
  720MOL0     C94971  11.050   2.171   5.513 -0.2370 -0.0624 -0.3415
  720MOL0     C94972  11.128   2.087   5.468  0.2324 -0.5872  0.3926
  720MOL0     C94973  10.351   1.992   5.496  0.2432  0.9270  0.1696
  720MOL0     C94974  10.217   1.968   5.469  0.4083 -0.2152  0.5162
  720MOL0     H94975   9.736   2.334   5.410 -1.4622  1.6110 -0.0434
  720MOL0     H94976   9.500   2.291   5.390 -0.3976 -1.2571  0.6741
  720MOL0     H94977   9.399   1.883   5.358 -1.1506  0.1543  0.0940
  720MOL0     H94978   9.280   1.916   5.231  0.3867  0.1518 -0.8706
  720MOL0     H94979   9.169   2.064   5.412 -1.5140 -1.1966  1.2227
  720MOL0     H94980   9.273   1.983   5.533 -0.8925  1.1515  0.4996
  720MOL0     H94981   9.134   1.772   5.482 -2.8230 -1.0421 -0.8340
  720MOL0     H94982   9.072   1.866   5.349  0.9163 -1.5216 -0.2060
  720MOL0     H94983   9.053   1.910   5.656 -2.4935  4.4928  2.5565
  720MOL0     H94984   8.995   2.033   5.556  0.5744  0.4684 -0.7876
  720MOL0     H94985   8.881   1.756   5.505 -0.6758  0.8164  0.1110
  720MOL0     H94986   8.809   1.913   5.472  0.0128  0.2940  0.1169
  720MOL0     H94987   8.847   1.811   5.759  0.2104  0.2205  0.0019
  720MOL0     H94988   8.707   1.766   5.669  1.2555 -1.6585  2.6361
  720MOL0     H94989   8.789   2.059   5.703  1.3515 -1.4750 -1.2510
  720MOL0     H94990   8.627   1.990   5.656  1.2972  1.7164 -1.3293
  720MOL0     H94991   8.780   1.974   5.912 -0.1486 -1.2559 -1.2212
  720MOL0     H94992   8.640   1.866   5.885 -0.7898 -0.5084 -1.2267
  720MOL0     H94993   8.677   2.260   5.798  0.7862 -0.9684  0.6877
  720MOL0     H94994   8.534   2.482   5.860 -0.7510 -0.7724 -2.9709
  720MOL0     H94995   8.416   2.442   5.984  1.8322  1.9345  0.2756
  720MOL0     H94996   8.300   2.315   5.791  1.3214 -0.2349  0.5367
  720MOL0     H94997   8.391   2.411   5.681 -0.3888 -2.2168 -0.4046
  720MOL0     H94998   8.243   2.561   5.909 -0.3251 -2.0506 -0.7546
  720MOL0     H94999   8.272   2.604   5.737  2.6386  0.8832  1.0309
  720MOL0     H95000   8.086   2.403   5.866  0.6903 -0.0229  0.1778
  720MOL0     H95001   8.121   2.393   5.695 -0.6891  0.1651 -1.2730
  720MOL0     H95002   7.904   2.767   5.652 -0.0554  0.2008  1.4381
  720MOL0     H95003   7.697   2.767   5.507  1.8234  1.1682  0.6155
  720MOL0     H95004   7.526   2.633   5.160  0.7970  2.7261  0.8189
  720MOL0     H95005   7.359   2.679   4.976  0.2028  2.3831 -0.5834
  720MOL0     H95006   7.174   2.747   4.845 -2.3900 -0.7865  0.1994
  720MOL0     H95007   7.223   2.897   4.922 -1.5522  2.7118 -0.5819
  720MOL0     H95008   6.926   2.830   4.884  0.6605 -0.3172  0.0324
  720MOL0     H95009   7.016   2.907   4.748 -1.9220  1.1349 -0.0929
  720MOL0     H95010   7.087   3.084   4.900  0.6273 -1.0619  0.8594
  720MOL0     H95011   6.964   3.025   5.031  0.0295  0.9317  0.5077
  720MOL0     H95012   6.881   3.090   4.757 -0.1785  0.4647  0.3672
  720MOL0     H95013   6.786   3.066   4.907 -2.2954  2.7718  0.1482
  720MOL0     H95014   6.807   3.305   4.834  1.4767 -0.6884 -1.7417
  720MOL0     H95015   6.983   3.291   4.824  2.4608 -1.4800  1.7858
  720MOL0     H95016   6.906   3.424   5.020  0.7851  0.0303 -0.5547
  720MOL0     H95017   6.992   3.292   5.074 -0.5079 -0.2145 -0.0287
  720MOL0     H95018   6.679   3.296   5.059 -0.3259 -1.4246 -1.3723
  720MOL0     H95019   6.768   3.157   5.123  1.0152  0.1967  1.8281
  720MOL0     H95020   6.784   3.449   5.228  0.7003  0.9242 -0.3010
  720MOL0     H95021   6.861   3.302   5.310  0.0019  0.3668 -1.0821
  720MOL0     H95022   7.061   2.741   5.280 -0.5071 -0.5093  0.8947
  720MOL0     H95023   7.252   2.691   5.460  3.3300  5.2073  0.7121
  720MOL0     H95024   7.675   2.335   5.579 -0.6488 -0.1612 -2.2360
  720MOL0     H95025   7.893   2.348   5.696  1.2913 -0.8647 -0.9130
  720MOL0     H95026   9.557   1.934   5.174 -4.1325  2.5627 -0.8196
  720MOL0     H95027   9.802   1.941   5.201 -0.0567  1.0581 -1.0439
  720MOL0     H95028  10.157   2.253   5.294 -0.2634  0.8651  0.2485
  720MOL0     H95029  10.388   2.278   5.312 -0.3503  0.0463 -0.5316
  720MOL0     H95030  10.572   2.321   5.432 -0.6067 -0.3969  0.7006
  720MOL0     H95031  10.596   2.206   5.301  0.2355  2.9699  0.0673
  720MOL0     H95032  10.792   2.110   5.398  1.7180 -0.0292  2.0524
  720MOL0     H95033  10.807   2.285   5.352  1.8448 -0.2202  0.5753
  720MOL0     H95034  10.795   2.151   5.621  1.0856  0.6651  1.5839
  720MOL0     H95035  10.759   2.330   5.606 -0.5326 -1.5976  2.2540
  720MOL0     H95036  10.969   2.362   5.487  1.5711 -1.1085 -0.8164
  720MOL0     H95037  10.993   2.310   5.654  1.9681 -1.2823 -0.6077
  720MOL0     H95038  11.188   2.002   5.442 -1.8255 -2.2119  0.6921
  720MOL0     H95039  10.398   1.909   5.548  2.1034  1.7939 -0.0657
  720MOL0     H95040  10.169   1.888   5.525  1.5888 -1.0785  0.3544
  721MOL0     O95041  10.237   2.316   8.314  0.7147  0.1157 -0.6929
  721MOL0     C95042  10.221   2.440   8.310  0.0620 -0.0201  0.8155
  721MOL0     O95043  10.108   2.511   8.325 -0.4496 -0.1442 -0.3612
  721MOL0     C95044   9.988   2.452   8.318  0.0394  0.1183  0.1085
  721MOL0     C95045   9.941   2.370   8.419  0.4073 -0.0208 -0.0411
  721MOL0     C95046   9.818   2.301   8.406 -0.4378 -0.2039  0.8783
  721MOL0     C95047   9.738   2.327   8.294  0.0268  0.4822  0.2954
  721MOL0     O95048   9.625   2.242   8.291  0.1448 -0.1122  0.1860
  721MOL0     C95049   9.529   2.245   8.182 -0.5080  0.4056  0.3208
  721MOL0     C95050   9.434   2.133   8.215  0.2461 -0.0928  1.0390
  721MOL0     C95051   9.330   2.117   8.101  0.4777  0.1828  0.3097
  721MOL0     C95052   9.213   2.038   8.156  0.2409  0.5386 -0.1653
  721MOL0     C95053   9.100   2.009   8.058 -0.3075  0.6722 -0.1282
  721MOL0     C95054   8.986   1.922   8.112 -0.2160  0.0596  0.4785
  721MOL0     C95055   8.878   1.905   8.005 -0.1580 -0.1607 -0.1882
  721MOL0     C95056   8.839   1.752   8.005 -0.4380  0.0964 -0.0143
  721MOL0     N95057   8.717   1.720   7.931 -0.5752 -0.2694  0.2749
  721MOL0     C95058   8.603   1.655   7.981  0.5518  0.1209  0.1430
  721MOL0     C95059   8.506   1.687   7.891 -0.0600  0.4124 -0.7255
  721MOL0     C95060   8.361   1.653   7.916 -0.0454 -0.8756 -0.9780
  721MOL0     C95061   8.342   1.518   7.852  0.8568  0.2369  0.4311
  721MOL0     C95062   8.201   1.464   7.881 -0.7725 -0.7561 -0.0572
  721MOL0     C95063   8.191   1.441   8.024  0.0655 -0.9264 -0.5547
  721MOL0     O95064   8.193   1.300   8.045  0.4080  0.7975  0.7725
  721MOL0     C95065   8.061   1.267   8.074 -0.4069  0.3419  0.4125
  721MOL0     C95066   7.973   1.239   7.971 -0.6022 -0.2597 -0.0287
  721MOL0     C95067   7.848   1.202   7.988  0.4360 -0.0878 -0.9838
  721MOL0     C95068   7.791   1.187   8.117  0.0279  0.5905 -0.3454
  721MOL0     C95069   7.656   1.131   8.128 -1.2247  0.3402  0.0850
  721MOL0     O95070   7.584   1.087   8.024  0.2194 -0.4074 -0.2451
  721MOL0     C95071   7.461   1.049   8.038 -0.7308 -0.7563 -0.4974
  721MOL0     C95072   7.368   1.138   8.087  0.5116 -0.0462  0.1827
  721MOL0     C95073   7.233   1.094   8.114  0.0155  0.5128 -0.1678
  721MOL0     C95074   7.195   0.965   8.079 -0.3236 -0.0976  0.6974
  721MOL0     O95075   7.062   0.927   8.102  0.1621 -0.9615  0.1218
  721MOL0     C95076   7.034   0.804   8.165  0.1562  0.4265 -0.1367
  721MOL0     C95077   7.098   0.788   8.304 -0.2461  0.1713  0.1167
  721MOL0     C95078   7.078   0.898   8.399 -0.4383  1.0536 -0.4350
  721MOL0     C95079   6.922   0.914   8.431  0.3515 -0.6270 -0.4307
  721MOL0     C95080   6.892   1.004   8.551 -0.5880 -0.0148  0.8583
  721MOL0     C95081   6.753   1.067   8.543  1.3381 -0.4136 -0.7501
  721MOL0     C95082   6.650   0.952   8.562 -0.6594  0.5172 -0.2605
  721MOL0     C95083   6.515   1.013   8.604  0.1607  0.4651 -0.0162
  721MOL0    Cl95084   6.416   0.863   8.638  0.0268  0.2098 -0.1977
  721MOL0     C95085   7.288   0.886   8.016  0.8842 -0.2405  0.4791
  721MOL0     C95086   7.417   0.924   8.003 -1.1802 -0.2715 -0.2451
  721MOL0     O95087   7.627   1.121   8.246 -0.7682 -0.8733 -0.8254
  721MOL0     C95088   7.874   1.208   8.228  0.0443 -0.5363 -0.0891
  721MOL0     C95089   8.011   1.244   8.207  0.2549 -0.0810 -0.8001
  721MOL0     N95090   8.561   1.759   7.786 -0.5614  0.5339  0.2041
  721MOL0     N95091   8.689   1.784   7.806  0.4980  0.5771 -0.7293
  721MOL0     C95092   9.790   2.416   8.186  0.0874  0.0984  0.2032
  721MOL0     C95093   9.912   2.482   8.203 -0.1089 -0.6097  0.7721
  721MOL0     C95094  10.348   2.514   8.272  0.7718 -0.8719  0.1194
  721MOL0     C95095  10.476   2.491   8.333  0.0898 -0.4258  0.8933
  721MOL0     C95096  10.590   2.566   8.297  0.7394 -0.0428  0.0768
  721MOL0     C95097  10.589   2.645   8.185 -0.4182 -0.1808  0.1080
  721MOL0     O95098  10.707   2.714   8.170 -0.4958  0.6999 -0.4537
  721MOL0     C95099  10.711   2.816   8.075  0.1280  0.0400  0.4088
  721MOL0     C95100  10.859   2.852   8.049  0.8699 -0.2107  0.2841
  721MOL0     C95101  10.928   2.907   8.168  0.3420 -0.2176 -0.8685
  721MOL0     C95102  11.078   2.950   8.141  0.5491 -0.5836 -0.3679
  721MOL0     C95103  11.142   2.975   8.265 -0.1237  0.3981 -0.3402
  721MOL0     C95104  11.179   3.017   8.376 -0.1971  0.2005  0.0952
  721MOL0     C95105  10.467   2.661   8.114 -0.1826 -0.9624 -0.6876
  721MOL0     C95106  10.349   2.599   8.157 -0.5098  0.6902  0.0297
  721MOL0     H95107  10.010   2.367   8.502  4.3247  1.0502 -2.9680
  721MOL0     H95108   9.774   2.231   8.476 -0.0844 -1.4028 -0.0642
  721MOL0     H95109   9.585   2.225   8.091  0.0640  0.4365  0.6644
  721MOL0     H95110   9.478   2.342   8.183  1.6840  1.6200  1.8480
  721MOL0     H95111   9.374   2.156   8.304 -1.4603  1.4412 -0.4066
  721MOL0     H95112   9.492   2.041   8.221  0.9815  0.3098  0.2451
  721MOL0     H95113   9.377   2.069   8.015  0.4274 -2.3024  1.5696
  721MOL0     H95114   9.294   2.216   8.071 -2.9087 -0.8734  0.4622
  721MOL0     H95115   9.246   1.938   8.187  0.0775 -0.2017 -2.2551
  721MOL0     H95116   9.169   2.096   8.238 -1.6020 -4.0781  2.4974
  721MOL0     H95117   9.137   1.979   7.960  0.2419 -1.8598  0.7682
  721MOL0     H95118   9.048   2.104   8.046 -0.6894  0.5199  0.2641
  721MOL0     H95119   8.941   1.977   8.195  0.4181  0.9617  0.2346
  721MOL0     H95120   9.033   1.827   8.140 -0.2832  0.4350  1.9143
  721MOL0     H95121   8.797   1.972   8.034  0.6453 -0.1207  2.1500
  721MOL0     H95122   8.913   1.922   7.902 -0.6996 -0.0351 -0.3530
  721MOL0     H95123   8.815   1.732   8.110 -3.8887  0.3142 -0.6484
  721MOL0     H95124   8.926   1.692   7.978 -0.2359 -0.0442  0.9070
  721MOL0     H95125   8.587   1.602   8.074  1.3291  0.4713  0.4783
  721MOL0     H95126   8.297   1.732   7.874  0.8113 -0.3218 -1.2688
  721MOL0     H95127   8.345   1.660   8.023  1.3555  0.5219 -0.8295
  721MOL0     H95128   8.422   1.452   7.886  2.0807  1.6425  0.4311
  721MOL0     H95129   8.344   1.539   7.745 -0.5217 -0.0949  0.3300
  721MOL0     H95130   8.134   1.543   7.846  1.3324  1.6339  1.0198
  721MOL0     H95131   8.186   1.374   7.820  0.8897  0.0264 -1.7068
  721MOL0     H95132   8.110   1.500   8.068 -0.6046  0.6318 -3.5960
  721MOL0     H95133   8.276   1.472   8.085 -1.5833  2.7600  0.1721
  721MOL0     H95134   8.009   1.248   7.869 -1.7440  0.9434 -0.3656
  721MOL0     H95135   7.786   1.165   7.907 -1.4826 -1.0411  0.8021
  721MOL0     H95136   7.406   1.235   8.119 -0.5621  0.6448 -0.5752
  721MOL0     H95137   7.171   1.159   8.174  2.0509  1.3168  1.2096
  721MOL0     H95138   7.051   0.715   8.103  1.4128  1.6558 -1.6388
  721MOL0     H95139   6.924   0.806   8.172  0.1978  2.7545  0.5608
  721MOL0     H95140   7.206   0.777   8.298 -0.0937  0.6715  1.5150
  721MOL0     H95141   7.052   0.697   8.344 -0.1193 -0.5531 -1.3238
  721MOL0     H95142   7.114   0.997   8.369 -1.4126  2.2552  2.0065
  721MOL0     H95143   7.130   0.881   8.494  2.8642  2.6840 -1.8113
  721MOL0     H95144   6.861   0.954   8.349 -3.1519 -1.2484  1.6254
  721MOL0     H95145   6.877   0.817   8.452 -1.8815 -0.0330 -2.0110
  721MOL0     H95146   6.965   1.085   8.561  1.6574 -1.5425 -1.6723
  721MOL0     H95147   6.906   0.935   8.634  1.4973 -0.5606  0.1216
  721MOL0     H95148   6.728   1.127   8.456 -0.2439  0.7883  0.4884
  721MOL0     H95149   6.749   1.137   8.627 -1.0375 -0.8593 -0.4337
  721MOL0     H95150   6.649   0.893   8.470  1.1317  0.1366 -0.0720
  721MOL0     H95151   6.688   0.891   8.644  2.2864  1.4355 -0.8437
  721MOL0     H95152   6.478   1.058   8.512  1.1431 -1.3595 -1.3594
  721MOL0     H95153   6.506   1.082   8.689 -0.1104 -2.1654  2.2611
  721MOL0     H95154   7.267   0.788   7.975  2.4634 -0.3005 -0.2672
  721MOL0     H95155   7.490   0.858   7.957 -0.9749  0.2086 -0.6113
  721MOL0     H95156   7.852   1.183   8.331  2.8304  0.6114  0.8727
  721MOL0     H95157   8.076   1.264   8.292 -1.1347  1.6409 -0.0647
  721MOL0     H95158   9.718   2.426   8.105 -2.0185 -3.1421  1.4555
  721MOL0     H95159   9.956   2.547   8.129  0.7038 -1.8471  0.1400
  721MOL0     H95160  10.500   2.413   8.404  2.2442 -0.8158 -0.1873
  721MOL0     H95161  10.678   2.546   8.357 -0.9632 -1.2767  2.3040
  721MOL0     H95162  10.661   2.908   8.108  2.6213  1.1533  1.3020
  721MOL0     H95163  10.668   2.791   7.977  1.1995  0.2481 -0.1347
  721MOL0     H95164  10.907   2.765   8.005 -1.6635 -0.0959 -3.1427
  721MOL0     H95165  10.869   2.933   7.976  0.7292 -1.1744 -0.8158
  721MOL0     H95166  10.933   2.827   8.243 -3.5005 -0.7550 -1.0187
  721MOL0     H95167  10.876   2.996   8.203  1.6697  1.0805 -2.0296
  721MOL0     H95168  11.137   2.868   8.099 -0.2869 -2.1052  1.2465
  721MOL0     H95169  11.073   3.036   8.074 -3.7936  0.1852  0.6317
  721MOL0     H95170  11.208   3.061   8.469  1.9327 -0.9518  0.0418
  721MOL0     H95171  10.464   2.718   8.022  1.5187 -3.1002 -2.1662
  721MOL0     H95172  10.256   2.615   8.105 -1.3260 -0.8609  0.9408
  722MOL0     O95173  10.578   9.185   6.788 -0.4910 -1.0400  0.1970
  722MOL0     C95174  10.642   9.289   6.805  0.5278 -0.1344  0.8930
  722MOL0     O95175  10.586   9.421   6.795 -0.9708 -0.1688 -0.0535
  722MOL0     C95176  10.453   9.426   6.759 -0.5065  1.0607  0.5857
  722MOL0     C95177  10.353   9.401   6.851 -0.1279  0.1993 -0.4953
  722MOL0     C95178  10.225   9.431   6.812  0.4902  0.2713  0.2452
  722MOL0     C95179  10.198   9.476   6.680  0.1621 -0.1243  0.3780
  722MOL0     O95180  10.073   9.497   6.639 -0.1372 -0.3129 -0.2593
  722MOL0     C95181   9.964   9.507   6.723  0.1441 -0.0885 -0.1969
  722MOL0     C95182   9.834   9.535   6.647  0.0069  0.0543 -0.9198
  722MOL0     C95183   9.723   9.602   6.736 -0.7500 -0.0418 -0.2636
  722MOL0     C95184   9.592   9.592   6.662  0.2608 -0.4733  0.5859
  722MOL0     C95185   9.500   9.666   6.753  0.9113  0.5686 -0.7042
  722MOL0     C95186   9.358   9.681   6.679  0.1905 -0.0003 -0.1281
  722MOL0     C95187   9.244   9.728   6.767  0.5880 -0.8213  1.7158
  722MOL0     C95188   9.105   9.719   6.706 -0.2847  0.2414  0.3487
  722MOL0     N95189   9.062   9.809   6.597 -0.9998  0.5887  0.6233
  722MOL0     C95190   8.940   9.878   6.582  0.3185 -0.3954 -0.4498
  722MOL0     C95191   8.955   9.943   6.466  0.5486 -0.1407  1.5691
  722MOL0     C95192   8.845  10.030   6.405  0.9156 -0.7804  0.3693
  722MOL0     C95193   8.748   9.934   6.322  0.6362  0.0520 -0.9290
  722MOL0     C95194   8.650  10.019   6.240 -0.6138 -0.2860  0.4540
  722MOL0     C95195   8.543   9.927   6.169 -0.5019  0.0469 -0.1467
  722MOL0     O95196   8.445   9.908   6.265 -0.4236 -0.2006 -0.2167
  722MOL0     C95197   8.333   9.834   6.235 -0.4632  0.4905 -0.4075
  722MOL0     C95198   8.235   9.817   6.321  0.2359 -0.5475 -0.6275
  722MOL0     C95199   8.121   9.728   6.313  0.3586 -0.9494  0.4127
  722MOL0     C95200   8.088   9.677   6.184 -0.7821  0.8441 -0.1166
  722MOL0     C95201   7.968   9.592   6.157 -0.3202 -0.8471  0.1247
  722MOL0     O95202   7.866   9.597   6.248 -0.6477  0.1598 -0.0563
  722MOL0     C95203   7.749   9.519   6.228  0.6226  0.3442  0.1957
  722MOL0     C95204   7.737   9.346   6.101  0.6737 -0.1850 -0.5098
  722MOL0     C95205   7.549   9.260   6.063 -0.0128 -0.6623 -0.1651
  722MOL0     C95206   7.372   9.349   6.141 -0.2973  0.8067 -1.0608
  722MOL0     O95207   7.245   9.292   6.129 -0.2496  0.0457 -0.2944
  722MOL0     C95208   7.143   9.374   6.191  0.7313  0.7010  0.6070
  722MOL0     C95209   7.007   9.346   6.128 -0.5119  0.4902  0.1174
  722MOL0     C95210   7.001   9.383   5.984  0.2098  0.1439  0.5131
  722MOL0     C95211   6.858   9.355   5.922  0.4105 -0.0694 -0.6492
  722MOL0     C95212   6.837   9.434   5.803  0.5804  0.5446  0.0956
  722MOL0     C95213   6.690   9.440   5.766  0.0265  0.3201 -0.1840
  722MOL0     C95214   6.661   9.538   5.649  0.3950  0.1109  0.3019
  722MOL0     C95215   6.656   9.470   5.508 -0.0360 -0.4393  0.2777
  722MOL0    Cl95216   6.817   9.390   5.462 -0.3193  0.2710 -0.0727
  722MOL0     C95217   7.386   9.516   6.270  0.1157 -0.4604 -0.0294
  722MOL0     C95218   7.572   9.596   6.307  0.0737 -1.4412  0.2902
  722MOL0     O95219   7.974   9.536   6.042  0.5978  0.3413 -0.1349
  722MOL0     C95220   8.192   9.707   6.081  0.1826 -0.2112  0.2874
  722MOL0     C95221   8.307   9.776   6.117 -0.6135  0.3375  0.0826
  722MOL0     N95222   9.065   9.902   6.405 -0.0259  0.6044 -0.9588
  722MOL0     N95223   9.129   9.819   6.477  0.2344 -0.8474  0.5517
  722MOL0     C95224  10.295   9.476   6.583 -0.1112  0.2300  0.2671
  722MOL0     C95225  10.427   9.451   6.613  0.6414 -0.2679 -0.6363
  722MOL0     C95226  10.774   9.288   6.858  0.6725 -0.4193 -0.6484
  722MOL0     C95227  10.842   9.406   6.882 -0.2425 -0.7558 -0.5100
  722MOL0     C95228  10.966   9.407   6.935  0.7080  0.2628 -0.4422
  722MOL0     C95229  11.037   9.290   6.957  0.2771 -0.5297 -0.1601
  722MOL0     O95230  11.170   9.313   6.994  0.0828  0.3148 -0.0753
  722MOL0     C95231  11.246   9.196   7.027 -0.1025 -0.2078 -0.5665
  722MOL0     C95232  11.210   9.132   7.161  0.5099 -0.4963  0.4216
  722MOL0     C95233  11.302   9.021   7.195 -0.1253  0.5765  1.3310
  722MOL0     C95234  11.259   8.943   7.320  0.5789  0.5661  0.3649
  722MOL0     C95235  11.282   9.010   7.447 -0.1662  0.3875 -1.0457
  722MOL0     C95236  11.305   9.075   7.546 -0.4206  1.1509 -0.0089
  722MOL0     C95237  10.970   9.169   6.937 -0.1875  0.4885 -0.2148
  722MOL0     C95238  10.837   9.164   6.889  0.1022 -0.0315  0.4055
  722MOL0     H95239  10.363   9.376   6.956 -1.1343 -0.6125 -0.5808
  722MOL0     H95240  10.149   9.422   6.889  1.7888 -0.1560  1.5071
  722MOL0     H95241   9.974   9.596   6.786 -1.5914  0.5307 -0.7200
  722MOL0     H95242   9.969   9.417   6.786  3.1301 -2.3220 -3.2473
  722MOL0     H95243   9.806   9.437   6.607 -1.0830  0.8081 -2.0787
  722MOL0     H95244   9.857   9.601   6.563 -0.2950  0.9339 -0.3194
  722MOL0     H95245   9.745   9.708   6.753 -0.8561 -0.0606 -0.0194
  722MOL0     H95246   9.721   9.550   6.832 -0.9683 -1.8511 -1.1946
  722MOL0     H95247   9.603   9.639   6.564  3.0613  3.5174  2.5332
  722MOL0     H95248   9.553   9.490   6.652 -0.7347 -0.0167 -0.4094
  722MOL0     H95249   9.527   9.764   6.792  0.7120 -0.3752  2.0751
  722MOL0     H95250   9.481   9.613   6.847  1.8330  3.1828  1.0763
  722MOL0     H95251   9.332   9.581   6.642 -2.0359 -0.1000  1.5121
  722MOL0     H95252   9.373   9.750   6.596  0.3844  0.8774  0.6219
  722MOL0     H95253   9.252   9.673   6.861  0.6872 -0.4941  1.9037
  722MOL0     H95254   9.257   9.832   6.801  0.1891 -0.8151  1.8586
  722MOL0     H95255   9.027   9.740   6.781 -1.8925 -3.2198 -0.1449
  722MOL0     H95256   9.091   9.616   6.672  0.8638  0.6869 -1.5966
  722MOL0     H95257   8.869   9.884   6.664  0.7290 -0.5439 -0.0758
  722MOL0     H95258   8.897  10.107   6.347 -0.1623 -0.3822 -0.0856
  722MOL0     H95259   8.789  10.092   6.476  1.9743  0.0493  0.5142
  722MOL0     H95260   8.689   9.882   6.397  1.1378  0.7953  0.0054
  722MOL0     H95261   8.811   9.861   6.269  0.9990  0.7148 -1.4360
  722MOL0     H95262   8.601  10.099   6.296  1.6475  1.1537  0.5090
  722MOL0     H95263   8.701  10.078   6.163 -1.4514  0.7748  0.6767
  722MOL0     H95264   8.602   9.842   6.131 -0.0623 -0.1082  0.8423
  722MOL0     H95265   8.502   9.987   6.088  0.6612  1.8341  0.5252
  722MOL0     H95266   8.254   9.867   6.416  0.1431 -0.2250 -0.7786
  722MOL0     H95267   8.060   9.721   6.402  0.5403  1.4231  0.7951
  722MOL0     H95268   7.828   9.296   6.068  0.6679  0.3298 -1.3254
  722MOL0     H95269   7.538   9.171   6.001  0.2626 -0.9864  0.2520
  722MOL0     H95270   7.161   9.481   6.174  0.1747  0.5572 -1.0356
  722MOL0     H95271   7.136   9.361   6.299 -3.3350  1.4693  0.5896
  722MOL0     H95272   6.929   9.399   6.184 -0.3343  0.2793  0.5673
  722MOL0     H95273   6.994   9.238   6.136  2.8399 -0.1335 -1.3959
  722MOL0     H95274   7.070   9.327   5.920  0.4855 -0.4966  1.3461
  722MOL0     H95275   7.028   9.486   5.960 -0.0619  0.0599 -0.1789
  722MOL0     H95276   6.846   9.250   5.898  0.5188  0.5023 -3.5894
  722MOL0     H95277   6.786   9.399   5.992  0.1821  1.8410 -1.9992
  722MOL0     H95278   6.896   9.395   5.719 -3.5615 -0.2488 -2.7940
  722MOL0     H95279   6.878   9.533   5.823  1.8340 -0.1814  1.2742
  722MOL0     H95280   6.634   9.471   5.855 -0.6952  0.9099 -0.8340
  722MOL0     H95281   6.652   9.340   5.743 -0.3975  0.4085  0.1238
  722MOL0     H95282   6.564   9.583   5.672  0.9439  1.6109 -0.1261
  722MOL0     H95283   6.734   9.619   5.647 -0.6362  1.1582  2.1327
  722MOL0     H95284   6.631   9.545   5.433 -1.1941 -1.3532 -0.2750
  722MOL0     H95285   6.567   9.406   5.509 -1.0146  0.8383  2.3541
  722MOL0     H95286   7.305   9.553   6.332  0.3318 -0.4902  0.2737
  722MOL0     H95287   7.590   9.683   6.369 -3.0153  0.1521 -0.8241
  722MOL0     H95288   8.174   9.677   5.978  0.2157 -0.1725  0.2697
  722MOL0     H95289   8.379   9.781   6.035 -1.6560 -0.5448 -0.9161
  722MOL0     H95290  10.256   9.503   6.485  0.2973 -0.0032  0.0384
  722MOL0     H95291  10.504   9.474   6.540 -0.5704  2.6997 -1.1360
  722MOL0     H95292  10.804   9.502   6.848  0.6620  0.4042  1.5531
  722MOL0     H95293  11.027   9.497   6.933  0.3928  0.4952 -2.3809
  722MOL0     H95294  11.349   9.232   7.030  0.2622 -1.1394 -1.3199
  722MOL0     H95295  11.239   9.123   6.946  0.2532 -1.2797  0.3504
  722MOL0     H95296  11.214   9.207   7.242  0.8321  0.0628 -0.1042
  722MOL0     H95297  11.109   9.094   7.177  0.0958  1.1668  2.3499
  722MOL0     H95298  11.402   9.061   7.210 -0.8232  2.6239  0.8382
  722MOL0     H95299  11.313   8.954   7.110  4.0688  2.9603 -0.2604
  722MOL0     H95300  11.155   8.909   7.312 -0.0359  1.6841  2.5821
  722MOL0     H95301  11.316   8.850   7.321 -2.2440 -1.2989  0.0232
  722MOL0     H95302  11.341   9.139   7.625 -1.9044  0.7370  1.0497
  722MOL0     H95303  11.020   9.074   6.955 -0.7881 -0.0483 -1.2652
  722MOL0     H95304  10.787   9.074   6.853 -1.4341  0.4577  1.2225
  723MOL0     O95305  11.089   8.386   7.334  0.1664 -0.2991 -0.2836
  723MOL0     C95306  11.095   8.280   7.393 -0.8863  0.4492 -0.6468
  723MOL0     O95307  11.026   8.172   7.352  0.4734  0.2818  0.3561
  723MOL0     C95308  10.934   8.180   7.249  1.0548  1.1394 -0.4963
  723MOL0     C95309  10.824   8.266   7.266 -0.7563 -0.3922  0.5938
  723MOL0     C95310  10.737   8.270   7.158 -1.1686 -0.1096  0.5021
  723MOL0     C95311  10.753   8.196   7.041  0.1525 -0.5096 -0.5960
  723MOL0     O95312  10.652   8.214   6.946  0.4535  1.1149 -0.3609
  723MOL0     C95313  10.589   8.090   6.903  0.1297  1.1603 -0.5475
  723MOL0     C95314  10.476   8.122   6.802 -0.2835 -0.3598 -0.5903
  723MOL0     C95315  10.347   8.177   6.874 -0.7893 -0.0810  0.4268
  723MOL0     C95316  10.245   8.233   6.781 -0.8564 -0.4813  0.5229
  723MOL0     C95317  10.134   8.303   6.868 -1.4415 -0.5027  0.5560
  723MOL0     C95318  10.032   8.204   6.889 -0.2905  0.6645 -0.0919
  723MOL0     C95319   9.903   8.268   6.935  0.0878 -0.3000 -0.4633
  723MOL0     C95320   9.818   8.314   6.810  0.5231 -0.0814  0.4818
  723MOL0     N95321   9.687   8.371   6.839 -0.0700  0.3041 -0.2081
  723MOL0     C95322   9.661   8.490   6.908 -0.6555  0.8152  0.2736
  723MOL0     C95323   9.540   8.465   6.960  0.1885 -0.9440  0.2759
  723MOL0     C95324   9.473   8.559   7.063 -0.9593 -0.6344  0.1049
  723MOL0     C95325   9.498   8.487   7.200 -1.1477  0.0468  0.4534
  723MOL0     C95326   9.448   8.570   7.314  0.3532  0.1231 -0.2547
  723MOL0     C95327   9.301   8.615   7.295 -0.4280 -0.4003 -0.0175
  723MOL0     O95328   9.303   8.745   7.228  0.2316  0.5073 -1.1958
  723MOL0     C95329   9.187   8.815   7.235 -0.9072 -0.5335  0.0824
  723MOL0     C95330   9.064   8.760   7.260  0.3889 -0.5866  0.2940
  723MOL0     C95331   8.949   8.840   7.265 -0.4428 -0.1878  0.1987
  723MOL0     C95332   8.948   8.984   7.231  0.2542  0.7424 -0.4693
  723MOL0     C95333   8.827   9.058   7.239  0.7150 -0.0700 -0.4949
  723MOL0     O95334   8.718   9.012   7.320  0.4321 -0.5200  0.4395
  723MOL0     C95335   8.590   9.062   7.287 -0.2764  0.0589  0.6024
  723MOL0     C95336   8.486   9.101   7.380 -0.3631  0.5497  0.4147
  723MOL0     C95337   8.368   9.141   7.335  0.2327 -0.4949  1.0132
  723MOL0     C95338   8.339   9.171   7.202 -0.4381 -0.0403 -0.3522
  723MOL0     O95339   8.211   9.214   7.176 -0.2157  0.7142 -0.2658
  723MOL0     C95340   8.179   9.261   7.043  0.1347  0.2668 -0.3049
  723MOL0     C95341   8.030   9.307   7.065 -0.6873 -0.3364  0.2352
  723MOL0     C95342   8.023   9.436   7.151  0.0569  0.4232  0.7427
  723MOL0     C95343   7.885   9.452   7.211 -0.4853  0.3889  0.1697
  723MOL0     C95344   7.870   9.573   7.283 -0.7899  0.1975 -0.8660
  723MOL0     C95345   7.726   9.625   7.279  0.3604 -0.5741  0.2152
  723MOL0     C95346   7.712   9.760   7.348 -0.5220 -0.7696 -0.1266
  723MOL0     C95347   7.566   9.815   7.331 -0.1072 -0.2051  0.3558
  723MOL0    Cl95348   7.465   9.729   7.447  0.0284 -0.1826  0.2648
  723MOL0     C95349   8.440   9.135   7.107  0.9830  0.1130 -0.5816
  723MOL0     C95350   8.556   9.073   7.149 -1.1276 -0.0564 -0.1810
  723MOL0     O95351   8.819   9.164   7.172 -0.6353  0.1538 -0.5423
  723MOL0     C95352   9.078   9.040   7.214  0.8104 -1.1753  1.1604
  723MOL0     C95353   9.193   8.955   7.211 -0.0317  0.4203  0.0122
  723MOL0     N95354   9.496   8.345   6.918 -0.0122  0.1709  0.2897
  723MOL0     N95355   9.580   8.288   6.844  0.7959  0.4719 -0.1595
  723MOL0     C95356  10.854   8.097   7.035 -0.6432 -0.1311  0.0685
  723MOL0     C95357  10.944   8.092   7.139  0.3280  0.6415 -0.4314
  723MOL0     C95358  11.200   8.259   7.495  0.0847 -0.4120  0.5215
  723MOL0     C95359  11.249   8.131   7.521 -0.3588  0.2967  0.0157
  723MOL0     C95360  11.329   8.098   7.629  0.1372  0.2357  0.5740
  723MOL0     C95361  11.390   8.192   7.707 -0.0074  0.7096 -0.4706
  723MOL0     O95362  11.481   8.145   7.799  0.2184  0.5514 -0.3144
  723MOL0     C95363  11.544   8.223   7.907  0.8005 -0.3131  0.0102
  723MOL0     C95364  11.694   8.229   7.894 -0.3082 -0.4054 -0.3922
  723MOL0     C95365  11.757   8.086   7.904  0.5919 -0.8259 -0.9154
  723MOL0     C95366  11.910   8.091   7.900 -0.2692 -0.9692  0.0012
  723MOL0     C95367  11.962   8.119   8.035 -0.0781  0.3758 -0.0971
  723MOL0     C95368  12.032   8.121   8.135 -0.2754  0.0012  0.1718
  723MOL0     C95369  11.357   8.322   7.685  0.0062  0.0884 -0.1555
  723MOL0     C95370  11.259   8.361   7.581  0.6071  0.1427  0.1658
  723MOL0     H95371  10.815   8.322   7.358  0.5813  1.2304 -0.2307
  723MOL0     H95372  10.650   8.334   7.166  0.7670  2.5502  1.4937
  723MOL0     H95373  10.539   8.038   6.985 -0.0901  2.0407 -0.1110
  723MOL0     H95374  10.659   8.030   6.844  0.9254 -1.1386  2.5104
  723MOL0     H95375  10.454   8.032   6.743 -1.8086 -0.4940  0.1447
  723MOL0     H95376  10.525   8.193   6.735  0.0256 -1.3145 -1.4214
  723MOL0     H95377  10.380   8.260   6.938  2.5030  1.0355 -2.4469
  723MOL0     H95378  10.307   8.092   6.930 -0.6060 -2.1500 -2.3921
  723MOL0     H95379  10.287   8.313   6.719 -2.1110 -1.4259 -1.6544
  723MOL0     H95380  10.202   8.155   6.718 -2.2856 -1.3667  2.4780
  723MOL0     H95381  10.095   8.383   6.804 -1.1974  0.2273  1.3018
  723MOL0     H95382  10.172   8.341   6.963 -2.5801 -0.0205  0.8373
  723MOL0     H95383  10.073   8.131   6.959  2.7726 -0.4082 -2.7651
  723MOL0     H95384  10.025   8.144   6.798 -0.5159 -1.8335  1.4720
  723MOL0     H95385   9.849   8.196   6.998  2.1426 -0.9096  0.6835
  723MOL0     H95386   9.922   8.355   6.998 -1.0856 -0.1174 -0.3319
  723MOL0     H95387   9.804   8.235   6.735  0.0996  2.8557 -2.8060
  723MOL0     H95388   9.880   8.393   6.768  2.0533 -2.7256 -2.7475
  723MOL0     H95389   9.730   8.575   6.910 -0.3926  0.6213  2.9458
  723MOL0     H95390   9.367   8.569   7.037 -0.8577  2.9793  0.6555
  723MOL0     H95391   9.518   8.658   7.074 -2.1841 -0.2015  1.6984
  723MOL0     H95392   9.607   8.473   7.207 -0.8753  0.9289 -1.3945
  723MOL0     H95393   9.454   8.387   7.199  0.5781 -0.8280  2.5108
  723MOL0     H95394   9.458   8.512   7.407  2.6687 -0.3524 -0.7407
  723MOL0     H95395   9.496   8.667   7.330 -1.8922  1.2350  0.1008
  723MOL0     H95396   9.255   8.623   7.394  0.9141 -0.7269  0.6631
  723MOL0     H95397   9.240   8.541   7.242 -2.3734  0.3521  1.0651
  723MOL0     H95398   9.055   8.657   7.292  2.2959 -0.5616  1.0608
  723MOL0     H95399   8.857   8.791   7.295  2.3869 -3.9390  3.9693
  723MOL0     H95400   8.503   9.086   7.486  1.3016  1.3522  0.2858
  723MOL0     H95401   8.282   9.158   7.399 -0.6852  2.2286 -0.7618
  723MOL0     H95402   8.179   9.181   6.967 -2.9875  0.2456 -0.4330
  723MOL0     H95403   8.248   9.342   7.019  1.9144 -1.1681 -0.3202
  723MOL0     H95404   7.971   9.229   7.114 -0.5012 -1.0930 -0.7219
  723MOL0     H95405   7.988   9.327   6.966 -1.7274  1.0987  0.9218
  723MOL0     H95406   8.036   9.524   7.087 -0.4647  1.4898  2.0719
  723MOL0     H95407   8.099   9.428   7.229  0.5182 -0.1489  0.2458
  723MOL0     H95408   7.812   9.441   7.129  1.1101  0.7576 -1.3666
  723MOL0     H95409   7.848   9.363   7.263 -4.2951  0.9243 -1.2839
  723MOL0     H95410   7.909   9.656   7.224 -2.9808  0.8457 -1.5008
  723MOL0     H95411   7.906   9.550   7.384 -1.4872  0.5036 -0.5453
  723MOL0     H95412   7.669   9.554   7.339 -0.1717  1.1220  1.8114
  723MOL0     H95413   7.681   9.634   7.180 -1.9063  0.3765  1.2799
  723MOL0     H95414   7.744   9.760   7.453  1.3566 -1.2880 -0.6691
  723MOL0     H95415   7.780   9.832   7.303  0.2524 -0.4753  1.4460
  723MOL0     H95416   7.529   9.800   7.230  1.7750  1.8272 -0.7167
  723MOL0     H95417   7.559   9.923   7.351  0.9425 -0.3266  1.5204
  723MOL0     H95418   8.425   9.156   7.002  0.0215  0.6522 -0.3566
  723MOL0     H95419   8.614   9.031   7.068 -0.1626 -0.7999  0.8536
  723MOL0     H95420   9.085   9.145   7.187  1.3719 -1.5198 -0.1135
  723MOL0     H95421   9.285   9.003   7.180  0.5878 -1.1981 -0.7746
  723MOL0     H95422  10.870   8.029   6.951  0.8668 -0.7869  0.8502
  723MOL0     H95423  11.029   8.026   7.131 -0.3604  0.0171 -4.5507
  723MOL0     H95424  11.216   8.055   7.451  0.0695  1.5373 -1.5958
  723MOL0     H95425  11.361   7.994   7.634  1.7867  0.5067 -2.0388
  723MOL0     H95426  11.518   8.179   8.003  1.7585  0.6713  0.7359
  723MOL0     H95427  11.503   8.324   7.907 -0.6206 -0.8393 -0.8637
  723MOL0     H95428  11.724   8.279   7.801 -1.3084  0.3033 -0.3444
  723MOL0     H95429  11.733   8.294   7.974 -1.7892 -1.3481  1.1596
  723MOL0     H95430  11.726   8.032   7.815  3.3810 -2.3786 -1.0320
  723MOL0     H95431  11.723   8.040   7.998 -2.2763 -0.0874 -1.4984
  723MOL0     H95432  11.945   7.990   7.876  0.4546 -1.9173  4.2714
  723MOL0     H95433  11.938   8.169   7.829 -0.7579 -0.4737  0.3441
  723MOL0     H95434  12.087   8.111   8.226 -0.4916 -1.0359  0.1989
  723MOL0     H95435  11.398   8.401   7.748  0.5234  0.2312 -0.6618
  723MOL0     H95436  11.229   8.465   7.566 -3.7000 -0.8973  0.2450
  724MOL0     O95437   0.623   1.507   3.752  0.4937 -0.0056  0.6509
  724MOL0     C95438   0.647   1.472   3.865 -0.0256  0.2966 -0.2403
  724MOL0     O95439   0.560   1.415   3.956 -0.0931  0.2337  0.1948
  724MOL0     C95440   0.436   1.379   3.918 -0.3718  0.5276  0.4142
  724MOL0     C95441   0.322   1.452   3.931  0.8545  0.3729  0.2372
  724MOL0     C95442   0.202   1.408   3.874 -0.3179 -1.0710  0.4779
  724MOL0     C95443   0.209   1.288   3.809  0.5672 -0.1868 -0.3757
  724MOL0     O95444   0.094   1.239   3.748 -0.8782 -0.5816  0.0233
  724MOL0     C95445   0.028   1.121   3.790  0.3292 -0.3407 -0.0343
  724MOL0     C95446  -0.060   1.079   3.679  0.4218 -0.2626  0.3833
  724MOL0     C95447  -0.148   0.956   3.729 -0.0211 -1.1309  0.2544
  724MOL0     C95448  -0.236   0.921   3.608 -0.9463  0.0970 -0.2258
  724MOL0     C95449  -0.366   0.864   3.651  0.2075 -0.2488  0.3551
  724MOL0     C95450  -0.434   0.777   3.540  0.3483 -0.5090  0.0465
  724MOL0     C95451  -0.498   0.647   3.599  0.1175 -0.2824  0.2498
  724MOL0     C95452  -0.602   0.664   3.710 -0.0699 -0.5165 -0.0236
  724MOL0     N95453  -0.716   0.746   3.671 -0.5929 -0.5104 -0.3591
  724MOL0     C95454  -0.761   0.852   3.752  0.2744  0.1679  0.0995
  724MOL0     C95455  -0.888   0.860   3.712 -0.1787 -0.0640 -0.5592
  724MOL0     C95456  -0.973   0.967   3.760  0.1102  0.0979  0.0097
  724MOL0     C95457  -1.081   1.020   3.660 -0.0846 -0.4584 -0.8166
  724MOL0     C95458  -1.161   1.142   3.723 -0.2948  0.2830 -0.8525
  724MOL0     C95459  -1.251   1.199   3.616  0.1382 -0.3718  0.5260
  724MOL0     O95460  -1.376   1.140   3.607 -0.0174  0.1409  0.0574
  724MOL0     C95461  -1.460   1.152   3.499  0.0760 -1.1991 -0.0136
  724MOL0     C95462  -1.601   1.122   3.518 -0.2229 -0.9953  0.7265
  724MOL0     C95463  -1.706   1.152   3.427 -0.5684 -0.0350  1.3202
  724MOL0     C95464  -1.670   1.203   3.302  0.5811 -0.0561  0.0408
  724MOL0     C95465  -1.779   1.253   3.206  0.1239 -0.0012 -0.5834
  724MOL0     O95466  -1.753   1.364   3.130  0.1586 -0.7285 -0.7373
  724MOL0     C95467  -1.855   1.420   3.056 -0.9413  0.4318 -0.1014
  724MOL0     C95468  -1.965   1.347   3.003 -0.7643  0.1010  0.6233
  724MOL0     C95469  -2.065   1.403   2.917 -0.1718  0.4893 -0.5917
  724MOL0     C95470  -2.064   1.543   2.900  1.1466 -0.4435 -0.2609
  724MOL0     O95471  -2.152   1.617   2.824 -0.1565 -0.9466 -0.7996
  724MOL0     C95472  -2.224   1.536   2.729 -0.1410 -0.6527 -0.2733
  724MOL0     C95473  -2.258   1.634   2.629  0.3815 -0.0242 -0.1656
  724MOL0     C95474  -2.332   1.568   2.510 -0.2346  0.2659  0.0890
  724MOL0     C95475  -2.373   1.661   2.400  0.3563 -0.4574 -0.0180
  724MOL0     C95476  -2.255   1.715   2.317 -0.8504  0.3556  0.1983
  724MOL0     C95477  -2.283   1.723   2.168 -0.7292 -0.5762 -0.2437
  724MOL0     C95478  -2.406   1.808   2.130 -0.1274 -0.5431 -0.5160
  724MOL0     C95479  -2.412   1.867   1.992 -0.8836 -0.7035 -0.3719
  724MOL0    Cl95480  -2.558   1.972   1.986 -0.1479 -0.1457  0.5205
  724MOL0     C95481  -1.969   1.622   2.964  0.8581  1.4850 -0.3589
  724MOL0     C95482  -1.861   1.563   3.045  0.0735 -0.2286 -0.3831
  724MOL0     O95483  -1.887   1.194   3.229 -0.0571 -0.8737  0.2403
  724MOL0     C95484  -1.536   1.230   3.272  0.7205 -0.2721  0.4403
  724MOL0     C95485  -1.442   1.201   3.368  0.2298 -0.7194 -0.3882
  724MOL0     N95486  -0.912   0.780   3.600 -0.2438 -0.3864  0.1278
  724MOL0     N95487  -0.806   0.713   3.576  0.7856  0.4434  0.5373
  724MOL0     C95488   0.322   1.205   3.803 -0.4573  0.0715 -0.7088
  724MOL0     C95489   0.441   1.251   3.855  0.1216 -0.0645  0.0691
  724MOL0     C95490   0.793   1.474   3.906 -0.6560 -0.1612  0.0432
  724MOL0     C95491   0.891   1.504   3.815 -0.1075 -0.9118 -0.5690
  724MOL0     C95492   1.029   1.492   3.849  0.5085 -0.3725  0.1996
  724MOL0     C95493   1.075   1.439   3.966  0.3509  0.2489  0.1238
  724MOL0     O95494   1.212   1.415   3.977  0.1080  0.4312 -0.1329
  724MOL0     C95495   1.266   1.379   4.104 -0.1843 -0.6921  0.0784
  724MOL0     C95496   1.410   1.392   4.097 -1.1509  0.8022 -0.1388
  724MOL0     C95497   1.479   1.307   3.986 -0.0010  0.4572 -0.2544
  724MOL0     C95498   1.490   1.376   3.849 -0.8662 -0.3406 -0.6809
  724MOL0     C95499   1.548   1.297   3.740 -0.7425  0.5417  0.5399
  724MOL0     C95500   1.601   1.223   3.657 -0.0565  0.3056  0.5744
  724MOL0     C95501   0.978   1.408   4.061 -0.9176  0.3754  0.0035
  724MOL0     C95502   0.839   1.426   4.032 -0.2228 -0.5697  0.6543
  724MOL0     H95503   0.339   1.534   4.001  0.8471  1.2591 -0.7688
  724MOL0     H95504   0.110   1.454   3.909  0.1103 -0.4181  0.7577
  724MOL0     H95505  -0.018   1.143   3.887  0.1518 -0.5757 -0.0626
  724MOL0     H95506   0.088   1.031   3.807 -0.7516 -0.9915  0.4734
  724MOL0     H95507   0.003   1.058   3.592 -0.6636 -0.4947 -0.3641
  724MOL0     H95508  -0.113   1.171   3.656  0.0744 -0.0234  2.0498
  724MOL0     H95509  -0.211   0.988   3.812 -1.0923 -1.4210 -0.4328
  724MOL0     H95510  -0.083   0.877   3.766  0.2554 -0.2637  1.7158
  724MOL0     H95511  -0.262   1.005   3.543 -0.2406 -0.9530 -1.9360
  724MOL0     H95512  -0.179   0.862   3.535  2.9691 -0.3398  2.8221
  724MOL0     H95513  -0.438   0.936   3.690 -0.4497 -1.1055  0.7455
  724MOL0     H95514  -0.346   0.797   3.735 -2.5319  0.1549  1.4126
  724MOL0     H95515  -0.361   0.745   3.465  1.2274 -2.2678  1.5709
  724MOL0     H95516  -0.504   0.841   3.485  3.2066  0.7327 -2.4301
  724MOL0     H95517  -0.545   0.594   3.516 -2.8213  0.8598  1.0465
  724MOL0     H95518  -0.408   0.596   3.633  2.2579  1.8859 -1.7407
  724MOL0     H95519  -0.553   0.709   3.797 -0.3059  1.9478 -1.0893
  724MOL0     H95520  -0.634   0.565   3.745 -0.7799  0.5327  2.4922
  724MOL0     H95521  -0.716   0.909   3.833  0.5425 -1.2651  0.9855
  724MOL0     H95522  -0.907   1.052   3.778 -2.6911  1.8112  3.3335
  724MOL0     H95523  -1.027   0.947   3.853 -1.8162  0.2914 -1.0208
  724MOL0     H95524  -1.148   0.934   3.646  0.5330 -1.7947  3.2915
  724MOL0     H95525  -1.037   1.061   3.569  0.0231 -0.1460 -0.6250
  724MOL0     H95526  -1.219   1.112   3.810  0.2957  0.1708 -0.4948
  724MOL0     H95527  -1.090   1.215   3.762  2.2406 -2.3563 -0.1543
  724MOL0     H95528  -1.194   1.198   3.522 -1.5954  0.7628 -0.5812
  724MOL0     H95529  -1.272   1.303   3.640 -1.8294 -0.9164  1.3576
  724MOL0     H95530  -1.627   1.098   3.621 -1.6339  1.4997  1.0403
  724MOL0     H95531  -1.813   1.142   3.446 -0.6026  1.1492  1.8575
  724MOL0     H95532  -1.968   1.239   3.017  3.2486 -0.0283  1.4902
  724MOL0     H95533  -2.137   1.344   2.861 -2.6004  0.7254  2.0589
  724MOL0     H95534  -2.312   1.492   2.777  0.4811 -0.4668  1.0757
  724MOL0     H95535  -2.152   1.467   2.683  1.7523  0.8540  0.3000
  724MOL0     H95536  -2.164   1.684   2.605  0.3010 -0.1644 -0.7677
  724MOL0     H95537  -2.328   1.705   2.674  0.2682  0.2029 -0.6970
  724MOL0     H95538  -2.417   1.513   2.550  1.3709 -2.9924 -0.6323
  724MOL0     H95539  -2.270   1.490   2.465 -3.9199 -3.4200  0.7874
  724MOL0     H95540  -2.435   1.595   2.338  0.8414 -0.2175 -0.7807
  724MOL0     H95541  -2.443   1.738   2.434 -0.2625 -0.0916 -1.9700
  724MOL0     H95542  -2.176   1.640   2.325 -0.0924  0.9048 -1.5734
  724MOL0     H95543  -2.223   1.816   2.343  0.4749 -0.3021  1.2439
  724MOL0     H95544  -2.298   1.624   2.125 -2.0585 -1.4575  2.0992
  724MOL0     H95545  -2.196   1.772   2.122 -1.7478  0.3435 -1.2537
  724MOL0     H95546  -2.493   1.742   2.137 -0.4739 -0.0046  0.5533
  724MOL0     H95547  -2.415   1.885   2.207 -1.3102 -0.2398 -0.9433
  724MOL0     H95548  -2.423   1.788   1.917 -0.5992 -0.2855 -0.8627
  724MOL0     H95549  -2.316   1.918   1.977 -2.8706  2.9689 -2.1778
  724MOL0     H95550  -1.971   1.728   2.938 -2.8102  1.2604 -1.5230
  724MOL0     H95551  -1.786   1.631   3.084  0.1399 -0.6938  0.2964
  724MOL0     H95552  -1.504   1.270   3.177  0.1374  0.7034  0.6300
  724MOL0     H95553  -1.344   1.228   3.329 -0.2802  2.7140  0.4229
  724MOL0     H95554   0.325   1.120   3.736 -1.0139 -0.0446 -0.5934
  724MOL0     H95555   0.528   1.188   3.861  0.2457  0.1428  0.4625
  724MOL0     H95556   0.860   1.549   3.721  2.6776  1.0390 -0.6968
  724MOL0     H95557   1.108   1.511   3.777  2.5349  1.2109  2.6703
  724MOL0     H95558   1.231   1.279   4.133 -3.4917  0.4030  0.2924
  724MOL0     H95559   1.246   1.448   4.187  4.4594 -1.2556  1.9462
  724MOL0     H95560   1.433   1.499   4.102  1.0555  0.3009  1.6805
  724MOL0     H95561   1.446   1.346   4.189 -0.2823  0.6680 -0.5395
  724MOL0     H95562   1.419   1.216   3.979  0.0909  0.3982 -0.2821
  724MOL0     H95563   1.580   1.283   4.021  0.5816  1.1839 -1.4014
  724MOL0     H95564   1.396   1.418   3.812  0.3725  2.9750 -0.3830
  724MOL0     H95565   1.547   1.468   3.862 -0.4353 -0.7092  0.1181
  724MOL0     H95566   1.662   1.165   3.591 -0.3879 -1.9373  2.1030
  724MOL0     H95567   1.009   1.380   4.161 -2.8755  0.5340  0.7022
  724MOL0     H95568   0.757   1.413   4.101  0.7211  0.4943  2.0197
  725MOL0     O95569   0.263   0.969   8.600 -0.2421  0.0087 -0.3643
  725MOL0     C95570   0.247   1.045   8.697 -0.6353  0.3002  0.6385
  725MOL0     O95571   0.159   1.034   8.802  0.0686  1.0049  0.2152
  725MOL0     C95572   0.073   0.920   8.789  0.1385  0.2566  0.6946
  725MOL0     C95573   0.096   0.799   8.852 -0.2453 -1.2215  0.8364
  725MOL0     C95574   0.015   0.690   8.824  0.3910 -0.6700 -0.2553
  725MOL0     C95575  -0.103   0.692   8.747  0.1282 -0.7358 -0.2764
  725MOL0     O95576  -0.171   0.573   8.734 -0.3863 -0.4391  0.0106
  725MOL0     C95577  -0.314   0.579   8.722 -0.0362 -0.2140  0.1935
  725MOL0     C95578  -0.375   0.459   8.786  0.4714  0.0819  0.8166
  725MOL0     C95579  -0.513   0.504   8.843  0.1640  0.1263  0.1547
  725MOL0     C95580  -0.611   0.563   8.734  0.1097  0.9924 -0.3132
  725MOL0     C95581  -0.764   0.553   8.762  0.0609 -0.3083 -0.5268
  725MOL0     C95582  -0.798   0.648   8.881  0.1393 -0.0344  0.6185
  725MOL0     C95583  -0.937   0.623   8.944  1.4275 -0.7629 -0.5038
  725MOL0     C95584  -1.057   0.685   8.867 -0.0639 -0.6744  0.3049
  725MOL0     N95585  -1.181   0.653   8.945  0.3179 -0.6687  0.0989
  725MOL0     C95586  -1.222   0.720   9.062  0.3949 -0.0223  0.5419
  725MOL0     C95587  -1.339   0.656   9.086 -0.2205  0.8915  0.1776
  725MOL0     C95588  -1.430   0.681   9.193  0.1320 -0.2286  0.0936
  725MOL0     C95589  -1.573   0.628   9.161 -0.5078 -0.3915  0.8518
  725MOL0     C95590  -1.665   0.702   9.252  0.5503 -1.0271  0.3333
  725MOL0     C95591  -1.799   0.716   9.188 -0.0205  0.0125  1.0362
  725MOL0     O95592  -1.855   0.589   9.183 -0.0155  0.4929 -0.0746
  725MOL0     C95593  -1.994   0.580   9.169  0.4940  0.1008 -0.1630
  725MOL0     C95594  -2.038   0.449   9.209  0.0385 -1.0099 -0.2795
  725MOL0     C95595  -2.173   0.427   9.221  0.4363 -1.1465 -0.5439
  725MOL0     C95596  -2.264   0.522   9.171  0.5741  0.3871 -0.5719
  725MOL0     C95597  -2.406   0.491   9.174 -1.0424 -0.3182 -0.1013
  725MOL0     O95598  -2.484   0.553   9.072  0.7821 -0.0993 -0.4789
  725MOL0     C95599  -2.619   0.521   9.048  0.2093  0.8596  0.0900
  725MOL0     C95600  -2.712   0.611   8.996  0.2441 -0.3426 -0.4700
  725MOL0     C95601  -2.853   0.574   8.975  0.5730 -0.7006  0.3038
  725MOL0     C95602  -2.899   0.451   9.023 -0.8105 -0.2629  0.5297
  725MOL0     O95603  -3.029   0.427   9.004  0.2910  0.3574  1.0116
  725MOL0     C95604  -3.083   0.384   9.125  0.2872  0.7145 -0.9387
  725MOL0     C95605  -3.233   0.387   9.133  0.6670 -0.5038  0.5797
  725MOL0     C95606  -3.303   0.279   9.050 -0.4327  0.1752 -0.1122
  725MOL0     C95607  -3.453   0.313   9.052  0.5950  0.0741  0.3551
  725MOL0     C95608  -3.549   0.211   9.009 -0.4351  0.1781  0.3554
  725MOL0     C95609  -3.694   0.245   9.036  0.0766 -0.7631 -0.1345
  725MOL0     C95610  -3.771   0.119   9.045  0.0333  0.1747 -0.7687
  725MOL0     C95611  -3.928   0.153   9.049 -0.1212 -0.8926 -0.8242
  725MOL0    Cl95612  -3.987   0.265   8.914 -0.2050 -0.3453 -0.6874
  725MOL0     C95613  -2.812   0.352   9.057  0.3493 -0.5609 -0.3676
  725MOL0     C95614  -2.679   0.395   9.077 -0.5057  0.9224 -0.2079
  725MOL0     O95615  -2.453   0.422   9.264 -0.2464  0.7392 -0.5343
  725MOL0     C95616  -2.223   0.647   9.118  0.4167 -0.3057  0.0211
  725MOL0     C95617  -2.085   0.680   9.120 -1.0836  0.3842 -0.4241
  725MOL0     N95618  -1.355   0.551   8.999  0.1161  0.4241 -0.5116
  725MOL0     N95619  -1.259   0.541   8.918  0.0153  0.0561  0.5922
  725MOL0     C95620  -0.132   0.820   8.692 -0.5611  0.3906 -0.4051
  725MOL0     C95621  -0.040   0.932   8.713  0.2506 -0.9610  1.4037
  725MOL0     C95622   0.352   1.147   8.718  0.3574  0.3877  0.4915
  725MOL0     C95623   0.330   1.231   8.824  0.3494 -0.0758  0.0651
  725MOL0     C95624   0.426   1.323   8.858 -1.0518  0.1933  0.6580
  725MOL0     C95625   0.554   1.321   8.799  0.4137  0.1440 -0.0992
  725MOL0     O95626   0.656   1.406   8.853  0.2504 -0.3522 -0.0586
  725MOL0     C95627   0.791   1.403   8.805  0.1974  0.2227  0.1824
  725MOL0     C95628   0.817   1.547   8.756 -0.1586  0.1105  0.1994
  725MOL0     C95629   0.950   1.549   8.692  0.6671  0.1450 -0.1595
  725MOL0     C95630   1.031   1.674   8.725 -0.0426 -0.9312  0.0189
  725MOL0     C95631   1.083   1.655   8.860 -1.6436 -0.1746  0.1481
  725MOL0     C95632   1.128   1.629   8.971 -0.1119 -0.7830 -0.1238
  725MOL0     C95633   0.574   1.230   8.687  0.3717 -0.7879  0.5971
  725MOL0     C95634   0.471   1.151   8.645  0.8716 -0.6008  0.4470
  725MOL0     H95635   0.184   0.801   8.915 -1.5024  1.6526  2.7173
  725MOL0     H95636   0.053   0.596   8.863 -2.5462 -2.0723 -0.4591
  725MOL0     H95637  -0.346   0.596   8.618 -1.0210  3.6791  0.9759
  725MOL0     H95638  -0.348   0.659   8.788  0.7073 -1.8851  2.7486
  725MOL0     H95639  -0.321   0.418   8.872  0.3812 -1.3938  0.1973
  725MOL0     H95640  -0.384   0.377   8.714  1.3242 -1.7789  2.7326
  725MOL0     H95641  -0.502   0.573   8.926 -0.8370 -0.2404  0.6122
  725MOL0     H95642  -0.561   0.413   8.881  1.1157 -1.2737 -1.7902
  725MOL0     H95643  -0.581   0.667   8.720  1.7515  0.9662  2.2406
  725MOL0     H95644  -0.594   0.513   8.639 -0.1955 -0.6649  0.4679
  725MOL0     H95645  -0.790   0.448   8.778 -0.3081 -0.3856 -1.5797
  725MOL0     H95646  -0.826   0.578   8.675 -2.0822  1.0254  1.2969
  725MOL0     H95647  -0.791   0.750   8.843 -2.8307  1.0817  2.6851
  725MOL0     H95648  -0.729   0.628   8.964 -0.4955 -1.8091  0.7684
  725MOL0     H95649  -0.958   0.515   8.944 -1.0681 -0.4428  2.9227
  725MOL0     H95650  -0.929   0.659   9.047  2.3849  2.1094 -1.4851
  725MOL0     H95651  -1.059   0.635   8.770  0.8806  2.2072 -1.3094
  725MOL0     H95652  -1.045   0.788   8.832 -0.2555 -0.8340 -0.2405
  725MOL0     H95653  -1.178   0.795   9.126 -2.0095 -0.3658  2.7586
  725MOL0     H95654  -1.422   0.786   9.223 -1.4036 -0.3462  1.0139
  725MOL0     H95655  -1.393   0.631   9.283  1.6280  1.3921  0.4304
  725MOL0     H95656  -1.580   0.520   9.176  0.4933 -0.9181 -1.8105
  725MOL0     H95657  -1.593   0.663   9.059 -0.0429  0.2767  0.9848
  725MOL0     H95658  -1.686   0.647   9.345  1.9199  0.1640  1.3935
  725MOL0     H95659  -1.627   0.801   9.278 -1.6620  0.1104 -0.4417
  725MOL0     H95660  -1.788   0.766   9.091  1.3470 -0.8129  0.7440
  725MOL0     H95661  -1.861   0.780   9.252  1.0004  0.4348  1.6173
  725MOL0     H95662  -1.954   0.386   9.237  1.7024  1.2122  0.0010
  725MOL0     H95663  -2.210   0.331   9.257 -2.5747 -0.4344 -1.4909
  725MOL0     H95664  -2.687   0.717   8.989 -1.1817  0.0096 -0.6041
  725MOL0     H95665  -2.921   0.649   8.937 -0.3365 -1.1149  1.0407
  725MOL0     H95666  -3.060   0.457   9.203 -0.8438  2.7930 -2.4638
  725MOL0     H95667  -3.045   0.288   9.162 -2.1611  0.5432  1.3991
  725MOL0     H95668  -3.261   0.486   9.093  0.4117 -1.0752 -0.7099
  725MOL0     H95669  -3.255   0.370   9.238  2.1019  1.4819  1.2738
  725MOL0     H95670  -3.281   0.178   9.086  0.7917 -0.7630 -3.2243
  725MOL0     H95671  -3.272   0.286   8.946 -0.3164  0.7998 -0.0415
  725MOL0     H95672  -3.489   0.343   9.150 -0.9495  0.6289 -0.3529
  725MOL0     H95673  -3.467   0.403   8.990  1.4742 -0.4308 -0.6184
  725MOL0     H95674  -3.518   0.117   9.056 -0.1484  0.1271  0.0693
  725MOL0     H95675  -3.548   0.205   8.900 -1.3575  2.1976  0.1912
  725MOL0     H95676  -3.730   0.318   8.963 -0.1858  0.2860  1.0120
  725MOL0     H95677  -3.694   0.299   9.131 -0.7696  0.5584 -0.8411
  725MOL0     H95678  -3.756   0.057   8.955  1.6820 -0.2408 -0.2348
  725MOL0     H95679  -3.733   0.065   9.132  0.3720 -0.4940 -1.3219
  725MOL0     H95680  -3.962   0.205   9.139  0.1706 -2.4863  0.2701
  725MOL0     H95681  -3.982   0.058   9.050  2.4489 -2.4606  0.4993
  725MOL0     H95682  -2.847   0.254   9.088  2.1272 -1.0464  0.2224
  725MOL0     H95683  -2.615   0.311   9.104  2.6477  3.0353 -0.5292
  725MOL0     H95684  -2.300   0.714   9.080  0.2545 -1.0504 -1.0100
  725MOL0     H95685  -2.056   0.779   9.085  2.2113  0.5848  2.3081
  725MOL0     H95686  -0.213   0.830   8.620  0.0776 -0.5207 -1.2817
  725MOL0     H95687  -0.058   1.035   8.686  0.8721 -0.2038  3.6846
  725MOL0     H95688   0.239   1.244   8.882  0.1988  3.4761 -0.7649
  725MOL0     H95689   0.403   1.396   8.935  2.6566  2.0615  0.2330
  725MOL0     H95690   0.805   1.339   8.717 -2.1317  0.5945 -0.5320
  725MOL0     H95691   0.863   1.371   8.881  1.0765  1.9870  0.1440
  725MOL0     H95692   0.735   1.582   8.692  0.0591  3.9228  1.7614
  725MOL0     H95693   0.818   1.612   8.843 -0.2822  0.2921  0.0665
  725MOL0     H95694   0.930   1.558   8.585 -0.5417  1.2348  0.1250
  725MOL0     H95695   1.009   1.460   8.714  1.9969  1.2406  0.8308
  725MOL0     H95696   1.113   1.693   8.654  0.6896  0.2069  1.1093
  725MOL0     H95697   0.974   1.767   8.722 -0.0881 -0.9584  0.0427
  725MOL0     H95698   1.162   1.623   9.072 -2.0589  0.0162  0.6173
  725MOL0     H95699   0.666   1.220   8.630  0.2552  1.6328 -0.1372
  725MOL0     H95700   0.483   1.078   8.565  1.3286 -0.3503  0.2831
  726MOL0     O95701   2.980   6.551   8.554 -0.2782 -0.1500 -0.7539
  726MOL0     C95702   3.023   6.433   8.547 -0.4666  0.9630 -0.2359
  726MOL0     O95703   2.950   6.316   8.502  0.1554 -0.4597 -0.2132
  726MOL0     C95704   2.823   6.347   8.482 -0.0272 -0.4107  0.5702
  726MOL0     C95705   2.725   6.328   8.579  0.6306 -0.3142 -0.3498
  726MOL0     C95706   2.595   6.354   8.544 -1.2123  0.0528 -0.4041
  726MOL0     C95707   2.561   6.399   8.413  0.3025 -0.3008 -0.9967
  726MOL0     O95708   2.427   6.410   8.384 -0.4331 -0.3325 -0.1965
  726MOL0     C95709   2.385   6.389   8.254 -0.1856 -0.8075  0.5156
  726MOL0     C95710   2.393   6.228   8.220 -0.1765  0.3428 -0.2195
  726MOL0     C95711   2.331   6.199   8.082 -0.1265  0.4158 -0.0612
  726MOL0     C95712   2.194   6.131   8.089 -0.3306  0.6231 -0.5824
  726MOL0     C95713   2.199   5.990   8.159  0.0963 -0.1615  0.4216
  726MOL0     C95714   2.059   5.932   8.146  0.7066 -0.7557  0.0459
  726MOL0     C95715   2.048   5.800   8.073 -0.3913 -0.2132 -0.7930
  726MOL0     C95716   1.909   5.723   8.107 -0.6708 -0.3185  0.0957
  726MOL0     N95717   1.796   5.791   8.040  0.3115  0.4386 -1.4399
  726MOL0     C95718   1.730   5.907   8.083  0.7773 -0.5814 -0.7114
  726MOL0     C95719   1.648   5.931   7.975 -0.5220  0.2589 -0.5611
  726MOL0     C95720   1.564   6.053   7.957 -0.1540 -0.4496 -0.0725
  726MOL0     C95721   1.414   6.026   7.972  0.4382  0.4905 -0.2783
  726MOL0     C95722   1.348   6.169   7.973 -0.0121  0.2860  0.1362
  726MOL0     C95723   1.195   6.151   7.959 -0.8125 -0.1979 -0.7410
  726MOL0     O95724   1.157   6.107   7.831 -0.0339  0.6481 -0.6779
  726MOL0     C95725   1.021   6.094   7.793 -0.1562 -0.8275 -0.1317
  726MOL0     C95726   0.912   6.131   7.869  0.7595 -0.4284  0.4682
  726MOL0     C95727   0.777   6.114   7.827 -0.8726 -0.5521 -0.8656
  726MOL0     C95728   0.753   6.052   7.708 -1.1475 -1.0731  0.0553
  726MOL0     C95729   0.616   6.039   7.664 -0.8464 -0.0518 -0.8249
  726MOL0     O95730   0.516   6.087   7.744 -0.8896  0.0639  0.2580
  726MOL0     C95731   0.392   6.076   7.690  0.6104 -0.0656  0.9753
  726MOL0     C95732   0.307   5.966   7.717  0.5168 -0.4231 -0.0234
  726MOL0     C95733   0.173   5.971   7.674  0.0303  0.4252  0.8263
  726MOL0     C95734   0.117   6.086   7.608 -0.6634 -0.0177 -0.0888
  726MOL0     O95735  -0.016   6.086   7.595  0.1826  0.3480  0.1267
  726MOL0     C95736  -0.075   6.202   7.521  0.0197 -0.1011 -0.3281
  726MOL0     C95737  -0.225   6.189   7.509 -0.4297 -0.2002  0.6750
  726MOL0     C95738  -0.286   6.314   7.441 -0.5991  0.4134  0.3771
  726MOL0     C95739  -0.433   6.292   7.436 -0.3869  0.3963  0.5841
  726MOL0     C95740  -0.495   6.367   7.312 -0.5924 -0.7528  0.3130
  726MOL0     C95741  -0.636   6.323   7.268  0.1715 -0.6408 -0.7649
  726MOL0     C95742  -0.677   6.399   7.144  0.4419  0.7358  0.1968
  726MOL0     C95743  -0.818   6.366   7.106 -0.2678 -0.3989  0.5463
  726MOL0    Cl95744  -0.850   6.199   7.078 -0.1421  0.5186 -0.2446
  726MOL0     C95745   0.203   6.194   7.585 -0.7115 -0.6157  0.7023
  726MOL0     C95746   0.343   6.187   7.618  0.7445  0.2105 -0.1892
  726MOL0     O95747   0.601   5.989   7.553  0.1438 -0.0361  0.0769
  726MOL0     C95748   0.860   6.015   7.626  0.4962  0.4513  0.1920
  726MOL0     C95749   0.995   6.037   7.670  0.6471  0.2613 -0.2582
  726MOL0     N95750   1.670   5.835   7.883  0.4740  0.1866  0.5369
  726MOL0     N95751   1.762   5.750   7.923 -0.1517 -0.0571  0.1431
  726MOL0     C95752   2.660   6.435   8.323  0.2118 -0.2378  0.6791
  726MOL0     C95753   2.796   6.408   8.361  0.4563  0.5460  0.0690
  726MOL0     C95754   3.164   6.405   8.575 -0.3783  0.9151  0.0737
  726MOL0     C95755   3.270   6.496   8.577  0.4959 -0.1044  0.0394
  726MOL0     C95756   3.403   6.459   8.616  0.2092 -0.1660 -0.1885
  726MOL0     C95757   3.436   6.324   8.643  0.6545 -0.1513 -0.2020
  726MOL0     O95758   3.561   6.275   8.676  0.0550 -0.0950 -0.5550
  726MOL0     C95759   3.674   6.371   8.699 -0.1729  0.1832  0.1520
  726MOL0     C95760   3.742   6.406   8.567  0.1964 -0.6607  0.2051
  726MOL0     C95761   3.771   6.553   8.534  0.2062 -0.6072 -0.7215
  726MOL0     C95762   3.858   6.590   8.421 -0.6584 -0.2604 -0.2836
  726MOL0     C95763   3.797   6.579   8.284  0.2346  0.5117  0.5170
  726MOL0     C95764   3.747   6.590   8.169  0.4444 -0.6918  0.4101
  726MOL0     C95765   3.323   6.235   8.631 -0.4137 -0.5194 -0.0557
  726MOL0     C95766   3.192   6.274   8.606 -1.3022  0.0178  0.5926
  726MOL0     H95767   2.755   6.283   8.674 -0.4872  0.0595  0.1959
  726MOL0     H95768   2.522   6.327   8.619  2.2876  1.1126  3.7593
  726MOL0     H95769   2.442   6.446   8.180  1.5779 -0.6510  1.9279
  726MOL0     H95770   2.281   6.423   8.242  1.3086  3.4604 -3.0931
  726MOL0     H95771   2.331   6.169   8.289  0.5903  0.9881  1.0566
  726MOL0     H95772   2.495   6.187   8.214 -0.2755 -0.3608  2.0258
  726MOL0     H95773   2.401   6.134   8.030  1.6545  2.8995 -0.9705
  726MOL0     H95774   2.331   6.293   8.026  0.7970  2.6905  3.4244
  726MOL0     H95775   2.126   6.198   8.143 -0.7092  1.1993 -1.7602
  726MOL0     H95776   2.163   6.117   7.986  0.2264  1.9213 -0.9443
  726MOL0     H95777   2.220   5.989   8.267 -1.8573 -0.1439  0.8430
  726MOL0     H95778   2.275   5.930   8.109  0.0634 -0.4160  0.6732
  726MOL0     H95779   1.995   5.998   8.086  0.2337 -1.7316 -0.5394
  726MOL0     H95780   2.014   5.928   8.246 -1.1545  1.2703 -0.6326
  726MOL0     H95781   2.062   5.820   7.966  0.9892  3.1036 -0.1168
  726MOL0     H95782   2.126   5.728   8.100 -1.8020 -0.7558  2.2150
  726MOL0     H95783   1.895   5.728   8.215 -1.1989 -0.9961  0.0619
  726MOL0     H95784   1.905   5.619   8.073 -1.7888 -0.3185  0.2029
  726MOL0     H95785   1.736   5.961   8.177 -0.8553  1.2493 -1.5962
  726MOL0     H95786   1.585   6.094   7.858  0.4371 -0.6605 -0.0412
  726MOL0     H95787   1.597   6.129   8.029  3.4216 -0.9253 -1.0225
  726MOL0     H95788   1.393   5.969   8.063 -1.7741 -1.0691 -1.6624
  726MOL0     H95789   1.380   5.963   7.889 -1.0074 -0.8730  1.2698
  726MOL0     H95790   1.379   6.224   8.062  2.7109  0.0812 -0.5701
  726MOL0     H95791   1.385   6.234   7.893 -1.3595  0.1760 -0.5921
  726MOL0     H95792   1.156   6.248   7.992  1.5101  0.8314 -0.8501
  726MOL0     H95793   1.163   6.077   8.033 -0.4967 -0.2405 -0.6474
  726MOL0     H95794   0.943   6.173   7.964  2.4921  0.0375 -0.2723
  726MOL0     H95795   0.699   6.170   7.877 -0.9951 -1.0783 -0.4530
  726MOL0     H95796   0.343   5.877   7.768 -0.7547 -1.2188 -0.4562
  726MOL0     H95797   0.105   5.891   7.698  0.6034 -0.6794 -0.9928
  726MOL0     H95798  -0.021   6.214   7.427  0.3932  0.8232 -0.0106
  726MOL0     H95799  -0.043   6.288   7.581  3.1715 -1.3255 -0.0849
  726MOL0     H95800  -0.276   6.147   7.597 -1.6690 -0.9292 -0.3484
  726MOL0     H95801  -0.238   6.101   7.445  0.3349 -0.2759  0.6134
  726MOL0     H95802  -0.244   6.317   7.340 -0.8879  1.5495  0.2820
  726MOL0     H95803  -0.263   6.412   7.483 -2.8679  2.6422 -2.9943
  726MOL0     H95804  -0.448   6.184   7.427 -0.8748  0.4110  1.2154
  726MOL0     H95805  -0.484   6.320   7.528 -1.6798 -0.0454  0.0243
  726MOL0     H95806  -0.423   6.371   7.230 -0.4041 -3.6852  0.2110
  726MOL0     H95807  -0.502   6.470   7.346  2.9527 -0.0464 -0.6742
  726MOL0     H95808  -0.707   6.334   7.351  0.1734 -2.5297 -0.4569
  726MOL0     H95809  -0.632   6.216   7.243  3.2661 -0.1542 -2.9089
  726MOL0     H95810  -0.676   6.506   7.164 -1.3796  0.6649  0.8395
  726MOL0     H95811  -0.618   6.384   7.053  0.7113  0.7637  0.3646
  726MOL0     H95812  -0.843   6.419   7.014  0.5504  1.6364  1.4167
  726MOL0     H95813  -0.889   6.397   7.183  0.9322  1.2451  1.0746
  726MOL0     H95814   0.176   6.284   7.532 -2.5337 -1.4591  0.1187
  726MOL0     H95815   0.408   6.273   7.604  2.9888 -0.8601  2.6406
  726MOL0     H95816   0.854   5.972   7.527 -2.4898  1.1697 -0.0285
  726MOL0     H95817   1.078   6.001   7.610  0.2840 -0.5327 -0.3003
  726MOL0     H95818   2.630   6.482   8.230 -1.7851 -3.0072 -0.1868
  726MOL0     H95819   2.876   6.432   8.292  1.8552 -0.4189  1.3026
  726MOL0     H95820   3.238   6.599   8.562 -1.6144 -0.0474  3.6549
  726MOL0     H95821   3.484   6.531   8.617  1.9746 -1.9174 -2.6388
  726MOL0     H95822   3.727   6.325   8.782  1.2971 -1.2344 -1.4923
  726MOL0     H95823   3.641   6.464   8.746 -1.0781 -0.0082 -0.0790
  726MOL0     H95824   3.836   6.350   8.564 -0.3309 -1.5440 -0.1607
  726MOL0     H95825   3.673   6.377   8.487 -2.2394 -1.8711  2.5400
  726MOL0     H95826   3.817   6.597   8.623  1.1201  1.0022 -1.9407
  726MOL0     H95827   3.674   6.603   8.527 -1.1851 -3.2906 -2.1265
  726MOL0     H95828   3.894   6.693   8.426 -0.7009 -0.2622  0.0632
  726MOL0     H95829   3.946   6.527   8.441  0.0668  1.2974  1.7331
  726MOL0     H95830   3.721   6.610   8.067  1.8805  1.0133  0.3315
  726MOL0     H95831   3.347   6.129   8.633 -0.6504 -0.5758  2.0844
  726MOL0     H95832   3.119   6.193   8.605 -0.3091 -0.9419 -1.3903
  727MOL0     O95833   8.954   3.839  10.251 -0.2649 -0.2195 -0.2649
  727MOL0     C95834   8.950   3.796  10.367 -0.0626 -0.7225  0.2764
  727MOL0     O95835   9.052   3.737  10.430 -0.2310  0.1083 -0.2602
  727MOL0     C95836   9.178   3.719  10.373  0.8911  0.1965  0.0848
  727MOL0     C95837   9.205   3.698  10.233  0.0470 -0.4999 -0.6431
  727MOL0     C95838   9.338   3.660  10.187 -0.2822  0.2175 -0.4111
  727MOL0     C95839   9.438   3.633  10.281  0.2941 -0.1252 -0.6783
  727MOL0     O95840   9.562   3.573  10.253 -0.8458 -0.6546  0.2080
  727MOL0     C95841   9.614   3.625  10.122 -0.2232 -0.1529 -0.5340
  727MOL0     C95842   9.766   3.638  10.123  0.9424  0.2913  0.8707
  727MOL0     C95843   9.838   3.512  10.148 -0.3021  0.2672  0.4521
  727MOL0     C95844   9.987   3.531  10.117  0.3301  0.5954 -0.0609
  727MOL0     C95845  10.063   3.403  10.133 -0.2439 -0.1570 -0.4445
  727MOL0     C95846  10.200   3.416  10.071 -0.4918 -0.3572 -0.0849
  727MOL0     C95847  10.302   3.507  10.134 -0.6868 -0.2435  0.0904
  727MOL0     C95848  10.370   3.449  10.263 -0.4960 -0.2487  0.4822
  727MOL0     N95849  10.272   3.458  10.375 -0.6816 -0.0420 -0.1554
  727MOL0     C95850  10.218   3.573  10.417  0.2652  0.0424 -1.0655
  727MOL0     C95851  10.128   3.538  10.512 -0.2095  0.8605 -0.5997
  727MOL0     C95852  10.054   3.644  10.591  0.5667 -0.3285 -0.6592
  727MOL0     C95853   9.963   3.595  10.714 -0.3136 -0.5975 -0.2128
  727MOL0     C95854   9.836   3.523  10.667  1.0018  0.5083 -0.2587
  727MOL0     C95855   9.739   3.615  10.590 -0.2895 -0.1243 -0.3638
  727MOL0     O95856   9.706   3.734  10.667 -0.0288  0.0151  0.4019
  727MOL0     C95857   9.589   3.747  10.739  0.1499  0.2692  0.5727
  727MOL0     C95858   9.497   3.642  10.746  1.1835 -0.3198  0.4821
  727MOL0     C95859   9.381   3.670  10.825 -0.8124 -0.2646  0.0460
  727MOL0     C95860   9.354   3.796  10.892 -0.2532  0.5574 -0.1709
  727MOL0     C95861   9.218   3.805  10.942  0.3696 -0.4675  0.2071
  727MOL0     O95862   9.120   3.710  10.937 -0.4885 -0.0932 -0.4571
  727MOL0     C95863   9.010   3.718  11.022  0.5086 -0.8845 -0.5077
  727MOL0     C95864   9.015   3.669  11.147  0.2595 -0.1170 -0.7990
  727MOL0     C95865   8.916   3.685  11.242  0.1900 -0.5970  0.7909
  727MOL0     C95866   8.802   3.760  11.215  0.2710  1.0689 -0.1606
  727MOL0     O95867   8.703   3.780  11.308 -0.3352 -0.7877 -0.5439
  727MOL0     C95868   8.733   3.769  11.450 -0.1094 -0.7260 -1.1753
  727MOL0     C95869   8.626   3.837  11.526 -0.2254  0.8420  0.3436
  727MOL0     C95870   8.480   3.768  11.500  0.0285  0.0772 -0.4502
  727MOL0     C95871   8.376   3.850  11.577  2.0119 -0.4137  0.1116
  727MOL0     C95872   8.248   3.765  11.598  0.0608 -0.3718 -0.3229
  727MOL0     C95873   8.178   3.703  11.472  0.0745 -0.7446  0.2193
  727MOL0     C95874   8.046   3.656  11.509 -0.0396 -0.0271  0.2769
  727MOL0     C95875   7.934   3.743  11.475  0.5633  0.1607  0.2963
  727MOL0    Cl95876   7.804   3.638  11.533  0.0768  0.3581  0.6352
  727MOL0     C95877   8.797   3.819  11.087  0.4143 -0.1480 -0.1899
  727MOL0     C95878   8.900   3.803  10.998 -0.6201  0.5378  0.2922
  727MOL0     O95879   9.201   3.923  10.970 -0.0202 -0.0498  0.2953
  727MOL0     C95880   9.458   3.889  10.893 -0.8378 -0.8368  0.2254
  727MOL0     C95881   9.571   3.867  10.817  0.3801 -0.0460  0.2143
  727MOL0     N95882  10.143   3.399  10.529 -0.6279  0.3801 -0.0465
  727MOL0     N95883  10.236   3.350  10.441 -0.0244  0.1699 -0.9913
  727MOL0     C95884   9.403   3.655  10.414 -0.5601  0.3112  0.2439
  727MOL0     C95885   9.285   3.692  10.466 -0.2362  0.0872 -0.2571
  727MOL0     C95886   8.833   3.825  10.447  0.3114  0.2467  0.1837
  727MOL0     C95887   8.831   3.823  10.590 -0.8590  0.1294  0.2962
  727MOL0     C95888   8.712   3.841  10.660  0.0011  0.8366 -0.3359
  727MOL0     C95889   8.593   3.878  10.595  0.4280  0.1769  0.6966
  727MOL0     O95890   8.475   3.882  10.662  0.0021  0.4296 -0.0668
  727MOL0     C95891   8.442   4.003  10.730  0.7945  0.2426 -1.3359
  727MOL0     C95892   8.397   4.116  10.633  0.0050  0.1849 -0.1393
  727MOL0     C95893   8.269   4.070  10.552 -0.6740  0.6096 -0.3484
  727MOL0     C95894   8.219   4.162  10.449 -0.2073 -0.3729  0.0483
  727MOL0     C95895   8.315   4.211  10.350 -0.4468  0.3236  0.1089
  727MOL0     C95896   8.382   4.264  10.260  0.1254  0.6124  0.2128
  727MOL0     C95897   8.596   3.867  10.454  0.1273 -0.7696  0.3896
  727MOL0     C95898   8.715   3.853  10.376  0.8665 -0.3601 -0.0603
  727MOL0     H95899   9.128   3.696  10.156  0.7723 -2.3606 -1.3616
  727MOL0     H95900   9.340   3.651  10.079 -0.0571  2.0533 -0.6069
  727MOL0     H95901   9.577   3.727  10.111  3.5112  1.9981  3.4867
  727MOL0     H95902   9.581   3.559  10.041  0.5276 -1.7045  0.3668
  727MOL0     H95903   9.809   3.725  10.173  2.4385 -0.1195  0.3558
  727MOL0     H95904   9.771   3.654  10.015 -1.7256 -1.3563  0.4003
  727MOL0     H95905   9.800   3.432  10.084 -0.4922  0.6285  0.0992
  727MOL0     H95906   9.824   3.481  10.252 -4.1181  3.7535  1.2683
  727MOL0     H95907   9.995   3.560  10.012  1.7891 -0.5922 -0.3054
  727MOL0     H95908  10.036   3.609  10.176 -0.7420  2.3168 -1.3638
  727MOL0     H95909  10.005   3.318  10.095 -1.8727  0.0159  1.4546
  727MOL0     H95910  10.076   3.368  10.236 -1.8018 -1.9885 -0.8111
  727MOL0     H95911  10.186   3.450   9.968  0.7018 -3.6211 -1.4736
  727MOL0     H95912  10.242   3.315  10.074  1.5790  0.4308  2.8978
  727MOL0     H95913  10.378   3.519  10.056 -0.2921 -0.9068  0.3605
  727MOL0     H95914  10.263   3.605  10.162  0.9721  0.5403 -0.2120
  727MOL0     H95915  10.460   3.501  10.295  0.6466 -1.2355 -0.9555
  727MOL0     H95916  10.420   3.352  10.255  2.3063  1.2004 -1.3202
  727MOL0     H95917  10.241   3.675  10.389 -0.6632  0.5714  0.0566
  727MOL0     H95918  10.011   3.711  10.517  2.0699  0.1042 -1.1740
  727MOL0     H95919  10.130   3.696  10.650 -1.5189  0.5374  1.4061
  727MOL0     H95920   9.924   3.675  10.777  1.4224  1.6049 -1.7689
  727MOL0     H95921  10.023   3.533  10.782  0.0028 -0.0126  0.0512
  727MOL0     H95922   9.851   3.443  10.594  0.9636  0.4499 -0.2028
  727MOL0     H95923   9.792   3.486  10.760  1.0481  1.4412  0.1440
  727MOL0     H95924   9.659   3.546  10.563  0.7539 -1.0576 -1.1609
  727MOL0     H95925   9.790   3.652  10.500  0.1017  0.6080  0.1452
  727MOL0     H95926   9.511   3.547  10.697  0.4319  0.8512 -2.1828
  727MOL0     H95927   9.311   3.587  10.831  0.3243 -1.2920 -0.4480
  727MOL0     H95928   9.096   3.604  11.180 -2.1281 -3.2666 -0.7249
  727MOL0     H95929   8.935   3.645  11.341  2.2845 -0.5301  0.4660
  727MOL0     H95930   8.820   3.832  11.466 -2.0755  2.6368 -2.7584
  727MOL0     H95931   8.751   3.669  11.492 -1.1001 -0.1022  0.8883
  727MOL0     H95932   8.626   3.944  11.504 -0.4822  0.4614 -1.7985
  727MOL0     H95933   8.641   3.840  11.634 -1.9360  1.5397  0.5990
  727MOL0     H95934   8.487   3.667  11.540 -2.6814 -0.5660 -1.3932
  727MOL0     H95935   8.458   3.754  11.394 -0.8066 -1.5426 -0.0938
  727MOL0     H95936   8.396   3.886  11.679  0.0934  0.3267  0.2722
  727MOL0     H95937   8.357   3.937  11.513  2.4463  0.5296  1.2210
  727MOL0     H95938   8.179   3.835  11.646  0.4607 -0.4216  0.3272
  727MOL0     H95939   8.285   3.685  11.664 -1.4009 -1.9346 -1.2939
  727MOL0     H95940   8.246   3.620  11.451  3.8403  1.2546  3.2315
  727MOL0     H95941   8.179   3.765  11.382  1.3582 -0.3658  0.4839
  727MOL0     H95942   8.033   3.557  11.465 -1.8687 -0.5161  1.8106
  727MOL0     H95943   8.045   3.637  11.617 -2.0325  1.0605  0.4851
  727MOL0     H95944   7.927   3.752  11.366  3.0914 -3.6858 -0.3438
  727MOL0     H95945   7.933   3.841  11.525  0.0827  2.0487 -3.1133
  727MOL0     H95946   8.718   3.882  11.049  0.3097 -1.6298 -2.6481
  727MOL0     H95947   8.886   3.856  10.904 -0.6006  0.3019  0.1579
  727MOL0     H95948   9.448   3.984  10.945 -0.3250 -0.4970 -0.2819
  727MOL0     H95949   9.646   3.945  10.811 -0.5427  0.7266 -3.0180
  727MOL0     H95950   9.490   3.650  10.477 -0.7333  0.3896  0.4891
  727MOL0     H95951   9.261   3.690  10.572  2.3091 -1.0183  0.3502
  727MOL0     H95952   8.928   3.794  10.629 -0.7978 -0.7204 -0.4398
  727MOL0     H95953   8.707   3.822  10.767  0.7921  0.0182 -0.4392
  727MOL0     H95954   8.524   4.032  10.796 -0.5984  0.6167  0.3108
  727MOL0     H95955   8.358   3.970  10.792  1.0853  1.9851  0.0550
  727MOL0     H95956   8.378   4.209  10.688  1.2454  1.4396 -1.7055
  727MOL0     H95957   8.477   4.129  10.558 -0.4778 -3.0174 -1.3405
  727MOL0     H95958   8.179   4.049  10.611 -2.8709  2.7114 -2.6886
  727MOL0     H95959   8.300   3.976  10.505  1.0474 -0.7150  3.0289
  727MOL0     H95960   8.134   4.108  10.406 -0.5881  0.2554  0.0028
  727MOL0     H95961   8.188   4.250  10.505 -0.4343  0.3884 -1.2513
  727MOL0     H95962   8.439   4.322  10.191 -1.3068  0.9288 -0.7301
  727MOL0     H95963   8.500   3.869  10.402  0.1929  0.8088  0.2755
  727MOL0     H95964   8.737   3.870  10.271 -0.9009  1.2480 -0.2156
  728MOL0     O95965   7.832   8.146   9.505  0.0825 -0.0808 -0.2504
  728MOL0     C95966   7.832   8.064   9.599  0.2754 -0.2265 -0.2173
  728MOL0     O95967   7.714   8.035   9.670 -0.3829 -0.0483 -0.8326
  728MOL0     C95968   7.598   8.076   9.610 -0.6660 -0.7549  0.0961
  728MOL0     C95969   7.534   8.188   9.660  0.0039  1.0532  0.1885
  728MOL0     C95970   7.426   8.243   9.590 -0.9914 -0.6545 -0.1053
  728MOL0     C95971   7.360   8.174   9.486 -0.6277 -0.2575 -0.6726
  728MOL0     O95972   7.256   8.216   9.406  0.3198 -0.2504 -0.1132
  728MOL0     C95973   7.185   8.336   9.432  0.3378 -0.1319  0.7207
  728MOL0     C95974   7.071   8.319   9.540  0.3242 -0.4255  0.5393
  728MOL0     C95975   6.971   8.194   9.524 -0.2113  0.2157 -0.6363
  728MOL0     C95976   6.877   8.188   9.404 -0.0579 -0.4155  0.7492
  728MOL0     C95977   6.751   8.107   9.429 -0.3315  0.0032  0.4214
  728MOL0     C95978   6.623   8.198   9.414 -0.0007 -0.2253 -0.7535
  728MOL0     C95979   6.492   8.142   9.475  0.5721  0.8923 -0.5680
  728MOL0     C95980   6.427   8.029   9.390 -0.5126  0.0095 -0.1786
  728MOL0     N95981   6.298   7.994   9.453  0.4787 -0.1090  0.8782
  728MOL0     C95982   6.277   7.946   9.578 -0.2976 -0.7544 -0.3318
  728MOL0     C95983   6.143   7.929   9.594 -0.1663 -0.4371  0.0884
  728MOL0     C95984   6.067   7.884   9.707 -0.8006 -0.7494  0.1176
  728MOL0     C95985   5.955   7.771   9.683 -0.3119 -0.0163 -0.2952
  728MOL0     C95986   5.836   7.778   9.780  0.3065 -0.0336 -0.2236
  728MOL0     C95987   5.728   7.678   9.733 -0.5399 -0.0456 -0.4598
  728MOL0     O95988   5.630   7.691   9.838  0.1689 -0.1174  0.1514
  728MOL0     C95989   5.529   7.600   9.843  0.8747 -0.2688  0.4826
  728MOL0     C95990   5.441   7.620   9.953 -0.6064 -0.2825 -0.0108
  728MOL0     C95991   5.337   7.535   9.974 -0.0579 -1.0539  0.0104
  728MOL0     C95992   5.318   7.423   9.900  0.0557  0.8441 -1.0981
  728MOL0     C95993   5.198   7.331   9.919 -0.4658 -0.2305 -0.0882
  728MOL0     O95994   5.097   7.356  10.008  0.4843  0.0207 -0.2890
  728MOL0     C95995   4.976   7.295  10.001 -1.1670 -0.2385  0.6179
  728MOL0     C95996   4.894   7.332  10.109 -1.1533 -0.4771  0.0203
  728MOL0     C95997   4.763   7.282  10.121 -0.4059  0.6105 -0.0802
  728MOL0     C95998   4.699   7.200  10.022 -0.8282 -0.1523  1.7822
  728MOL0     O95999   4.575   7.163  10.023  0.9111 -0.5381  0.0159
  728MOL0     C96000   4.498   7.167  10.150  0.1986 -0.5153 -0.0179
  728MOL0     C96001   4.351   7.115  10.112 -0.2523  0.6444 -0.2078
  728MOL0     C96002   4.271   7.231  10.048 -0.8033 -0.0459  0.0269
  728MOL0     C96003   4.124   7.208  10.017  0.4848  0.6741  0.5434
  728MOL0     C96004   4.091   7.089   9.915 -0.0508  0.4539 -0.6625
  728MOL0     C96005   3.968   7.126   9.830  0.1328  0.1390 -0.2704
  728MOL0     C96006   3.845   7.153   9.909  0.5247 -0.5789  0.2896
  728MOL0     C96007   3.743   7.204   9.815  0.7558 -0.8046 -0.5419
  728MOL0    Cl96008   3.670   7.062   9.747  0.3085 -0.0410 -0.0875
  728MOL0     C96009   4.780   7.165   9.912 -0.9263  0.9060 -0.8460
  728MOL0     C96010   4.918   7.217   9.905  1.0357 -0.1147 -0.0161
  728MOL0     O96011   5.207   7.231   9.853 -0.3068  0.0060  0.0365
  728MOL0     C96012   5.410   7.400   9.794 -0.0073 -0.4294 -0.2786
  728MOL0     C96013   5.506   7.497   9.753 -0.0245  0.1674 -0.7761
  728MOL0     N96014   6.080   7.972   9.476 -0.2855 -0.2059  0.0231
  728MOL0     N96015   6.177   8.000   9.386 -0.4045  1.0047  0.2083
  728MOL0     C96016   7.421   8.065   9.441 -0.3138  0.6437  0.7003
  728MOL0     C96017   7.542   8.015   9.491  0.4648  1.0994  0.1609
  728MOL0     C96018   7.948   7.977   9.616  0.3971  0.4363  1.0898
  728MOL0     C96019   8.084   8.027   9.588 -0.1787  0.4029 -0.6855
  728MOL0     C96020   8.196   7.937   9.611 -0.5985 -0.2429 -0.0234
  728MOL0     C96021   8.171   7.803   9.650  0.0194  0.1489  1.1698
  728MOL0     O96022   8.271   7.707   9.671  0.4618 -0.3667  0.5123
  728MOL0     C96023   8.410   7.736   9.686 -0.2520 -1.0719 -0.5937
  728MOL0     C96024   8.464   7.688   9.824  0.3937  0.3630 -0.8980
  728MOL0     C96025   8.613   7.726   9.853 -0.3051 -0.1844  0.4925
  728MOL0     C96026   8.628   7.877   9.873  0.4967  0.1095 -0.1613
  728MOL0     C96027   8.749   7.915   9.940  0.5172  0.8273 -0.4847
  728MOL0     C96028   8.848   7.951  10.001 -0.3494 -0.1937 -0.0173
  728MOL0     C96029   8.034   7.759   9.666 -0.8206 -0.4776 -0.5651
  728MOL0     C96030   7.922   7.839   9.647 -0.1498 -0.7122 -0.6359
  728MOL0     H96031   7.560   8.236   9.754 -0.1357  0.3982  0.5608
  728MOL0     H96032   7.391   8.335   9.635  0.7927  0.7911 -1.4960
  728MOL0     H96033   7.139   8.362   9.336  1.0562 -3.4561 -0.6528
  728MOL0     H96034   7.252   8.415   9.466 -0.3895  0.3296  1.1135
  728MOL0     H96035   7.022   8.416   9.528  1.5582 -0.0836 -2.5355
  728MOL0     H96036   7.123   8.311   9.636  0.5819 -1.9593  0.2856
  728MOL0     H96037   6.917   8.179   9.618  0.3608 -0.7201 -0.4505
  728MOL0     H96038   7.025   8.100   9.527  0.6689  0.7136 -0.4986
  728MOL0     H96039   6.847   8.289   9.373 -0.1699 -1.5403 -3.4814
  728MOL0     H96040   6.933   8.140   9.323 -0.8905  1.1218 -0.7937
  728MOL0     H96041   6.765   8.060   9.527 -3.9565 -0.7826  0.7001
  728MOL0     H96042   6.738   8.026   9.357 -1.6475  2.4876 -2.3577
  728MOL0     H96043   6.619   8.230   9.310  2.9132  2.9161 -0.0608
  728MOL0     H96044   6.639   8.290   9.471 -2.0608  1.0431 -2.0919
  728MOL0     H96045   6.504   8.102   9.576 -1.5392  1.5193 -0.0262
  728MOL0     H96046   6.417   8.221   9.475 -0.7722 -0.2626 -3.3098
  728MOL0     H96047   6.497   7.944   9.390 -1.3005 -0.6551  0.0885
  728MOL0     H96048   6.415   8.066   9.288  0.9893 -0.4377 -0.5530
  728MOL0     H96049   6.348   7.919   9.655  2.2643  2.5645 -1.2951
  728MOL0     H96050   6.029   7.965   9.770 -4.6799 -2.7275  0.6082
  728MOL0     H96051   6.135   7.837   9.779  1.0859  2.3282  0.5376
  728MOL0     H96052   6.013   7.679   9.694  3.6564  2.3770  0.7399
  728MOL0     H96053   5.918   7.772   9.580 -1.2727  0.0307  0.0388
  728MOL0     H96054   5.870   7.771   9.883  0.6717  1.7134 -0.1944
  728MOL0     H96055   5.802   7.881   9.766  2.0323  1.0983  2.9467
  728MOL0     H96056   5.764   7.576   9.725 -1.9490 -0.4601 -2.3058
  728MOL0     H96057   5.685   7.714   9.639 -2.4057 -0.1974  0.2817
  728MOL0     H96058   5.458   7.704  10.020  0.4838  0.8959 -1.6833
  728MOL0     H96059   5.274   7.553  10.060  0.0516  1.2580 -0.3176
  728MOL0     H96060   4.931   7.392  10.192 -0.0343 -2.0891  0.7418
  728MOL0     H96061   4.715   7.316  10.212  1.6528 -0.0625  1.3362
  728MOL0     H96062   4.488   7.269  10.190 -0.7453 -0.9698  0.9552
  728MOL0     H96063   4.550   7.116  10.231  1.9972  0.7585 -0.3124
  728MOL0     H96064   4.292   7.082  10.198  1.7145 -0.2505  0.8663
  728MOL0     H96065   4.361   7.019  10.060  2.1665 -1.1157  3.0770
  728MOL0     H96066   4.310   7.256   9.949  1.2514  0.2385  0.8620
  728MOL0     H96067   4.277   7.313  10.120  0.3017 -2.0938  2.4698
  728MOL0     H96068   4.085   7.177  10.114 -0.1451  2.2437  0.8196
  728MOL0     H96069   4.085   7.298   9.970 -0.0385  0.1825  0.0174
  728MOL0     H96070   4.086   6.990   9.963  0.2271  1.2200  1.0136
  728MOL0     H96071   4.178   7.085   9.850 -0.2597  0.4056 -0.9394
  728MOL0     H96072   3.946   7.042   9.763 -1.7146  1.1146 -0.9777
  728MOL0     H96073   3.990   7.213   9.767 -0.2527 -0.9699 -2.0086
  728MOL0     H96074   3.809   7.062   9.957 -1.3137 -0.4820 -0.8164
  728MOL0     H96075   3.861   7.238   9.977  4.1458  0.1672 -1.2492
  728MOL0     H96076   3.787   7.264   9.735  0.4497  1.7266  1.0776
  728MOL0     H96077   3.674   7.273   9.864  1.3428 -1.4822  1.3075
  728MOL0     H96078   4.738   7.103   9.833 -4.1063  1.8935 -0.0716
  728MOL0     H96079   4.963   7.183   9.813 -2.2407 -0.9584 -1.4583
  728MOL0     H96080   5.387   7.316   9.729  0.5801 -0.3662 -0.5728
  728MOL0     H96081   5.571   7.478   9.668 -0.1352 -0.8826 -0.6371
  728MOL0     H96082   7.384   8.023   9.348  0.3576  1.6211 -0.0273
  728MOL0     H96083   7.582   7.924   9.447 -1.6857  0.2079 -0.0917
  728MOL0     H96084   8.106   8.129   9.558  1.8058  0.2289 -0.0012
  728MOL0     H96085   8.298   7.973   9.610  0.3088 -2.4867 -3.2666
  728MOL0     H96086   8.435   7.841   9.670  0.8713 -0.4697  3.9666
  728MOL0     H96087   8.473   7.687   9.611  1.7382  3.6589 -2.4213
  728MOL0     H96088   8.405   7.722   9.910  1.3143 -2.5465  1.0373
  728MOL0     H96089   8.462   7.579   9.833  0.8254  0.3471 -0.9711
  728MOL0     H96090   8.674   7.680   9.775  2.0756 -0.2716  2.2978
  728MOL0     H96091   8.637   7.678   9.948 -3.6624 -1.5095  0.8016
  728MOL0     H96092   8.618   7.922   9.774  1.0513  1.3883  0.3516
  728MOL0     H96093   8.545   7.920   9.930 -1.6719 -2.9496 -0.7058
  728MOL0     H96094   8.940   7.975  10.050 -0.6859 -0.6778  0.8772
  728MOL0     H96095   8.016   7.661   9.708  1.8742 -1.5201 -1.5722
  728MOL0     H96096   7.826   7.791   9.663  0.7918 -1.7066  2.7506
  729MOL0     O96097   7.990   4.611   6.511  0.8970 -0.3676 -0.2175
  729MOL0     C96098   8.072   4.615   6.427 -0.0054 -0.4138 -0.2089
  729MOL0     O96099   8.060   4.651   6.295 -0.9236  1.1765 -0.4331
  729MOL0     C96100   7.935   4.685   6.235 -0.1390 -0.0497  0.2893
  729MOL0     C96101   7.955   4.724   6.107  0.0993 -0.3257 -0.2765
  729MOL0     C96102   7.840   4.759   6.030 -0.2201  0.2397 -0.2661
  729MOL0     C96103   7.710   4.756   6.081 -0.5316 -0.6802 -0.6514
  729MOL0     O96104   7.613   4.798   5.993  0.0182  0.3082 -0.2353
  729MOL0     C96105   7.476   4.827   6.035  0.0505 -0.6948 -0.8616
  729MOL0     C96106   7.385   4.866   5.921 -0.3443  0.2062  0.5703
  729MOL0     C96107   7.243   4.915   5.968  0.2461  0.1888 -0.3184
  729MOL0     C96108   7.175   4.973   5.842  0.1769 -0.2931 -1.0944
  729MOL0     C96109   7.103   5.103   5.883  0.4602 -0.1237  0.3212
  729MOL0     C96110   7.043   5.168   5.754  0.1342 -0.0387 -0.2327
  729MOL0     C96111   6.969   5.300   5.793  0.1286 -0.1008 -0.4269
  729MOL0     C96112   6.942   5.385   5.663  0.6960 -0.0404  0.3229
  729MOL0     N96113   6.829   5.336   5.584  0.0708 -0.5226  0.0555
  729MOL0     C96114   6.701   5.379   5.609 -0.3323  0.2937  0.0743
  729MOL0     C96115   6.628   5.340   5.501 -0.4710 -0.5592 -0.7819
  729MOL0     C96116   6.480   5.368   5.505  0.3879 -0.5603  0.1478
  729MOL0     C96117   6.398   5.240   5.570 -1.2556 -1.0631  0.4390
  729MOL0     C96118   6.256   5.249   5.527 -0.2807  0.2589  0.0002
  729MOL0     C96119   6.200   5.110   5.535 -0.4310 -0.4779 -0.3379
  729MOL0     O96120   6.230   5.054   5.666  0.1834  0.4133  0.1578
  729MOL0     C96121   6.267   4.919   5.668 -0.4346 -0.4234  0.6379
  729MOL0     C96122   6.207   4.814   5.600 -0.2063  0.5875 -0.0547
  729MOL0     C96123   6.244   4.678   5.606  0.2811 -0.4048  0.7884
  729MOL0     C96124   6.356   4.644   5.681  0.3018 -0.6929  0.0925
  729MOL0     C96125   6.413   4.512   5.676  0.1405 -0.1961 -0.3176
  729MOL0     O96126   6.348   4.411   5.615 -0.0439 -0.1305 -0.1488
  729MOL0     C96127   6.404   4.286   5.603  0.2541  0.3053 -0.8172
  729MOL0     C96128   6.452   4.241   5.471  0.0892 -0.0160 -0.4687
  729MOL0     C96129   6.515   4.114   5.463 -0.7422 -0.1196  0.5951
  729MOL0     C96130   6.548   4.042   5.578  0.5695 -0.3271  0.5684
  729MOL0     O96131   6.612   3.922   5.570 -0.1957 -0.7641  0.1365
  729MOL0     C96132   6.646   3.846   5.686 -0.5393  0.5046  0.0118
  729MOL0     C96133   6.733   3.725   5.644  0.6596 -0.0799  0.0051
  729MOL0     C96134   6.855   3.776   5.561  0.5679 -0.2761  0.1350
  729MOL0     C96135   6.943   3.666   5.500  0.3716  0.0050 -0.7011
  729MOL0     C96136   7.056   3.738   5.427  0.1025  0.0198 -0.2540
  729MOL0     C96137   7.167   3.645   5.377  0.3203  0.5023 -1.6259
  729MOL0     C96138   7.269   3.725   5.292  0.0079  0.8180 -0.1519
  729MOL0     C96139   7.388   3.638   5.264  0.3379  0.3119 -0.2740
  729MOL0    Cl96140   7.352   3.524   5.133  0.5356  0.0260  0.3822
  729MOL0     C96141   6.513   4.101   5.700 -0.2310 -0.0228 -0.0812
  729MOL0     C96142   6.436   4.211   5.713  1.0789 -0.0459  0.6765
  729MOL0     O96143   6.518   4.502   5.724  0.5448 -1.0581 -0.6788
  729MOL0     C96144   6.420   4.749   5.756  0.1976  0.9388 -0.6523
  729MOL0     C96145   6.377   4.883   5.741  0.8938 -0.2851 -0.0549
  729MOL0     N96146   6.713   5.286   5.414  0.1440 -0.2450 -0.1224
  729MOL0     N96147   6.836   5.287   5.457 -0.5032 -0.9832 -0.8463
  729MOL0     C96148   7.695   4.712   6.209 -0.6730 -0.0758 -0.7950
  729MOL0     C96149   7.803   4.669   6.285  0.2535  0.6688 -0.7911
  729MOL0     C96150   8.207   4.580   6.480  0.5648  0.8830  0.9340
  729MOL0     C96151   8.230   4.571   6.612  0.3552  0.5445 -0.1154
  729MOL0     C96152   8.349   4.515   6.668 -0.3549  0.7573  0.9721
  729MOL0     C96153   8.457   4.486   6.588  0.0915  0.4013 -0.1061
  729MOL0     O96154   8.569   4.465   6.661  0.8088 -0.0289  0.1144
  729MOL0     C96155   8.687   4.432   6.588 -0.2358 -0.2211  0.6321
  729MOL0     C96156   8.787   4.352   6.674  0.4038  0.0528 -0.0609
  729MOL0     C96157   8.786   4.203   6.657  0.3641 -0.3218  0.2561
  729MOL0     C96158   8.871   4.118   6.743 -0.5048  0.5348 -0.7509
  729MOL0     C96159   8.796   4.092   6.863  0.0924  0.0977  0.6867
  729MOL0     C96160   8.728   4.087   6.961  0.1266 -0.8001 -0.3676
  729MOL0     C96161   8.434   4.503   6.450  0.5438  0.6028 -0.4452
  729MOL0     C96162   8.313   4.545   6.398  0.3790 -0.6430 -0.2424
  729MOL0     H96163   8.062   4.725   6.087  0.5078  1.1438  1.6062
  729MOL0     H96164   7.848   4.783   5.925  0.2855  2.9402  0.3144
  729MOL0     H96165   7.473   4.916   6.100  0.7938  0.0058 -1.7581
  729MOL0     H96166   7.433   4.741   6.085  2.0857 -1.3088 -0.0457
  729MOL0     H96167   7.391   4.784   5.849  2.2136  0.4400  0.4256
  729MOL0     H96168   7.426   4.962   5.886 -0.4056  0.1233  0.2695
  729MOL0     H96169   7.250   4.993   6.045 -0.4693  1.7863 -1.7998
  729MOL0     H96170   7.182   4.831   6.003  0.9126 -0.3232 -0.3607
  729MOL0     H96171   7.236   4.986   5.751 -2.4905  1.9562 -2.7181
  729MOL0     H96172   7.111   4.891   5.807 -1.5749  1.1736 -1.4565
  729MOL0     H96173   7.179   5.175   5.916 -1.7067  2.3608  0.2511
  729MOL0     H96174   7.031   5.094   5.965 -0.9529  1.4732 -0.6820
  729MOL0     H96175   6.991   5.085   5.705  1.4430 -0.3628 -1.1336
  729MOL0     H96176   7.125   5.201   5.689  0.8393 -0.8546  0.2204
  729MOL0     H96177   6.882   5.268   5.851 -0.3708 -0.3029 -1.2708
  729MOL0     H96178   7.028   5.354   5.867 -1.6610  0.8642  0.3634
  729MOL0     H96179   7.037   5.387   5.609 -0.7597 -1.2012 -2.4287
  729MOL0     H96180   6.922   5.487   5.698 -1.6478 -0.3076 -0.0828
  729MOL0     H96181   6.658   5.420   5.699  1.4077 -1.6044  1.8721
  729MOL0     H96182   6.453   5.372   5.399 -1.2924 -1.5478  0.4954
  729MOL0     H96183   6.442   5.463   5.543  0.2305 -0.5824  0.0472
  729MOL0     H96184   6.409   5.247   5.678 -1.1447  0.4546  0.3502
  729MOL0     H96185   6.447   5.152   5.527 -1.3634 -0.7337 -0.3835
  729MOL0     H96186   6.205   5.327   5.585 -3.3317 -2.7033  1.7103
  729MOL0     H96187   6.256   5.278   5.422  1.6408 -1.1992 -0.4561
  729MOL0     H96188   6.247   5.055   5.453 -1.4961  0.9632 -1.9674
  729MOL0     H96189   6.093   5.101   5.514  0.0576 -1.9033 -2.5683
  729MOL0     H96190   6.121   4.841   5.538  0.4596 -0.5129 -1.5200
  729MOL0     H96191   6.192   4.594   5.561 -0.9086  0.5568  0.3109
  729MOL0     H96192   6.438   4.301   5.381  0.8565  3.3448  1.4677
  729MOL0     H96193   6.560   4.085   5.369 -3.5070  0.4063 -1.0030
  729MOL0     H96194   6.556   3.811   5.737  0.5906  1.4252  2.8707
  729MOL0     H96195   6.697   3.905   5.764  0.7747 -1.9228  1.1113
  729MOL0     H96196   6.671   3.653   5.591  0.8578 -0.8849  0.8277
  729MOL0     H96197   6.779   3.673   5.729 -0.9055 -0.0333  0.9082
  729MOL0     H96198   6.920   3.837   5.625  0.3326  1.7944 -1.5235
  729MOL0     H96199   6.824   3.836   5.476 -0.2655 -1.4274 -0.3943
  729MOL0     H96200   6.979   3.606   5.584  0.7777  0.0527 -0.8385
  729MOL0     H96201   6.884   3.605   5.431  1.1169 -0.7134 -0.7215
  729MOL0     H96202   7.096   3.822   5.485 -0.4284  0.7505 -0.9326
  729MOL0     H96203   7.003   3.773   5.338  0.5784 -0.6924 -0.8245
  729MOL0     H96204   7.137   3.560   5.315  2.3961 -3.1017  1.8923
  729MOL0     H96205   7.220   3.607   5.464  1.1928  3.1817 -0.9062
  729MOL0     H96206   7.215   3.742   5.199 -1.3596 -0.5904  0.3376
  729MOL0     H96207   7.290   3.820   5.342  2.2682  1.6806 -2.5325
  729MOL0     H96208   7.424   3.587   5.354  0.7258  0.9268 -0.0768
  729MOL0     H96209   7.471   3.695   5.223  0.7806  0.7759  1.1935
  729MOL0     H96210   6.544   4.041   5.784  0.2163  0.3437  0.0155
  729MOL0     H96211   6.420   4.241   5.816  2.1331 -1.3594  1.2494
  729MOL0     H96212   6.506   4.739   5.821  1.8273  2.0099 -2.5109
  729MOL0     H96213   6.433   4.963   5.787 -1.1101  1.2368 -0.1339
  729MOL0     H96214   7.609   4.723   6.274  0.2347 -3.6866  1.3267
  729MOL0     H96215   7.785   4.625   6.383  0.7167 -1.2132 -1.5136
  729MOL0     H96216   8.161   4.601   6.691  0.7010  2.0647 -0.3632
  729MOL0     H96217   8.362   4.511   6.775  0.3441  0.8355  0.8904
  729MOL0     H96218   8.728   4.527   6.554 -1.4198  0.0826 -0.0231
  729MOL0     H96219   8.666   4.377   6.496 -1.7658 -0.8103  1.2771
  729MOL0     H96220   8.890   4.386   6.662  0.5307  0.9772  2.7878
  729MOL0     H96221   8.773   4.357   6.783  0.0550 -2.0226  0.0396
  729MOL0     H96222   8.827   4.192   6.556 -1.6792  1.0324 -0.8013
  729MOL0     H96223   8.681   4.173   6.652  0.2184 -0.2818  2.2700
  729MOL0     H96224   8.913   4.032   6.692  0.6081 -0.6448  1.9324
  729MOL0     H96225   8.955   4.180   6.778 -2.0619  0.7800  3.0234
  729MOL0     H96226   8.678   4.073   7.055 -0.1825  2.0558 -0.0171
  729MOL0     H96227   8.509   4.495   6.371  0.9482  0.2710 -0.0275
  729MOL0     H96228   8.309   4.547   6.290  2.6562  0.1353 -0.3666
  730MOL0     O96229   1.587   7.059   7.654  0.3975 -0.0328  0.1697
  730MOL0     C96230   1.489   7.058   7.576 -0.9074 -0.6363  0.3127
  730MOL0     O96231   1.494   7.018   7.441 -0.3419  0.7925 -0.2855
  730MOL0     C96232   1.609   6.970   7.393 -0.1936  0.0648  0.1990
  730MOL0     C96233   1.655   6.846   7.441 -0.1579  0.1157  0.1408
  730MOL0     C96234   1.769   6.786   7.383  0.4608  0.4262  1.0171
  730MOL0     C96235   1.832   6.855   7.273  0.3296  0.0019 -0.7554
  730MOL0     O96236   1.940   6.793   7.216  0.3154  0.4188  1.0222
  730MOL0     C96237   1.992   6.833   7.081 -0.3555  0.0387 -0.2479
  730MOL0     C96238   2.105   6.935   7.119 -0.0404  0.4104  0.4296
  730MOL0     C96239   2.182   6.982   6.994 -0.2351 -0.7942 -0.0931
  730MOL0     C96240   2.293   7.092   7.030 -0.4020  0.3728 -0.3653
  730MOL0     C96241   2.373   7.096   6.899  0.1661  0.1490 -0.0446
  730MOL0     C96242   2.473   7.210   6.897  0.1067 -0.1684 -0.4648
  730MOL0     C96243   2.574   7.203   7.006  0.3420  0.2441  0.8139
  730MOL0     C96244   2.672   7.090   6.985  0.8946 -0.4493 -0.6296
  730MOL0     N96245   2.807   7.129   7.033  0.3252 -0.1047 -0.2988
  730MOL0     C96246   2.905   7.173   6.952  0.3612  0.1208 -0.1524
  730MOL0     C96247   3.013   7.194   7.032  0.6276 -0.7604 -0.1993
  730MOL0     C96248   3.152   7.219   6.981  0.0084 -0.0893 -0.6663
  730MOL0     C96249   3.187   7.372   6.991  1.0197  0.5453  0.4721
  730MOL0     C96250   3.235   7.431   7.122 -0.0590  0.2700  0.2599
  730MOL0     C96251   3.379   7.406   7.175 -0.1816  0.8479 -0.2300
  730MOL0     O96252   3.477   7.467   7.090 -0.2391 -0.5424  0.5300
  730MOL0     C96253   3.607   7.414   7.095  0.0810  0.3645 -0.6199
  730MOL0     C96254   3.703   7.463   7.182 -0.0098  0.0757 -0.8371
  730MOL0     C96255   3.839   7.425   7.168  0.7302 -0.2314 -0.3426
  730MOL0     C96256   3.869   7.330   7.073 -1.0056 -0.4245 -0.5238
  730MOL0     C96257   4.018   7.301   7.044 -0.2861 -0.6820 -0.5283
  730MOL0     O96258   4.112   7.370   7.122 -0.4708 -0.0672 -0.1658
  730MOL0     C96259   4.247   7.356   7.110 -0.4425 -0.0455 -0.1465
  730MOL0     C96260   4.320   7.318   6.995 -0.2265  0.7990  0.9233
  730MOL0     C96261   4.460   7.337   6.996 -0.8631  0.1124  0.4346
  730MOL0     C96262   4.526   7.389   7.104  0.5593 -0.5161  0.3260
  730MOL0     O96263   4.662   7.399   7.126  0.0342 -0.3132  0.6693
  730MOL0     C96264   4.739   7.410   7.010 -0.2848 -0.1060 -0.4864
  730MOL0     C96265   4.872   7.474   7.041 -0.5127 -0.2699  0.4710
  730MOL0     C96266   4.957   7.373   7.119  0.6933 -0.4727 -0.7541
  730MOL0     C96267   5.097   7.425   7.107  0.0690 -0.7840  0.2063
  730MOL0     C96268   5.188   7.312   7.168 -0.8005  0.2687  0.0154
  730MOL0     C96269   5.329   7.331   7.110  0.9853  0.0164 -0.7608
  730MOL0     C96270   5.424   7.222   7.152 -0.2163  0.0185 -0.5508
  730MOL0     C96271   5.548   7.232   7.061 -0.6044 -0.3610 -0.1965
  730MOL0    Cl96272   5.661   7.362   7.127 -0.3443  0.1984  0.0185
  730MOL0     C96273   4.455   7.415   7.227  0.2591  0.3833 -0.6206
  730MOL0     C96274   4.316   7.396   7.227  0.7210 -0.1395  0.2446
  730MOL0     O96275   4.037   7.223   6.951 -0.0903 -0.1511 -0.3350
  730MOL0     C96276   3.769   7.270   6.998  0.1290  0.1938 -0.6768
  730MOL0     C96277   3.637   7.306   7.010  0.9027  0.2529 -0.4551
  730MOL0     N96278   2.978   7.174   7.164 -0.3198  0.3651  0.2762
  730MOL0     N96279   2.849   7.143   7.162  0.2197 -0.9260 -0.3077
  730MOL0     C96280   1.787   6.980   7.237  0.2318  0.0951  0.1498
  730MOL0     C96281   1.670   7.031   7.282  0.1241 -0.0990  0.6278
  730MOL0     C96282   1.362   7.109   7.613 -0.5017  0.1655 -0.7185
  730MOL0     C96283   1.317   7.116   7.747 -0.3383 -0.8681  0.6965
  730MOL0     C96284   1.194   7.159   7.780  0.0692 -0.3756 -0.1292
  730MOL0     C96285   1.098   7.185   7.681  0.1786  0.7942  0.8642
  730MOL0     O96286   0.972   7.226   7.706  1.1284  0.2285 -0.4977
  730MOL0     C96287   0.870   7.198   7.616  0.3047 -0.4395 -0.4311
  730MOL0     C96288   0.729   7.210   7.682  0.4884  0.6653 -0.5529
  730MOL0     C96289   0.598   7.209   7.600 -0.6677  0.3660  0.0517
  730MOL0     C96290   0.607   7.293   7.474  0.4559  0.0313  0.9092
  730MOL0     C96291   0.474   7.307   7.410 -0.4236 -0.5143 -0.0082
  730MOL0     C96292   0.355   7.327   7.385 -0.6425  0.7324  0.6178
  730MOL0     C96293   1.140   7.173   7.549  0.2703 -0.1682  0.5132
  730MOL0     C96294   1.267   7.138   7.520  0.2193  0.4538 -0.7056
  730MOL0     H96295   1.600   6.798   7.521 -1.2306  2.0620  0.6352
  730MOL0     H96296   1.809   6.691   7.420 -1.1883 -0.6244  0.2069
  730MOL0     H96297   1.911   6.861   7.012  0.8574 -1.1188 -2.2502
  730MOL0     H96298   2.050   6.750   7.041  0.9490  0.6338  0.3291
  730MOL0     H96299   2.171   6.884   7.189 -0.2400 -1.5416 -0.7367
  730MOL0     H96300   2.062   7.013   7.183  1.7697  0.9298  1.0658
  730MOL0     H96301   2.106   7.025   6.927 -1.1308 -1.3979  0.5249
  730MOL0     H96302   2.238   6.899   6.949  0.2278 -1.1943  1.1835
  730MOL0     H96303   2.245   7.188   7.053 -0.3627  0.2256  0.3672
  730MOL0     H96304   2.349   7.067   7.120 -0.4323  3.0443  0.4964
  730MOL0     H96305   2.299   7.104   6.819 -2.7039 -1.7811  2.2333
  730MOL0     H96306   2.421   6.998   6.887 -1.1593 -0.7532  1.6973
  730MOL0     H96307   2.413   7.300   6.905  0.8374  0.2988 -0.1021
  730MOL0     H96308   2.513   7.217   6.796 -1.7925 -3.4083 -1.6096
  730MOL0     H96309   2.623   7.301   7.005 -0.6780  0.7745  0.3296
  730MOL0     H96310   2.536   7.187   7.107  0.7118  1.7438  1.2189
  730MOL0     H96311   2.670   7.063   6.880 -1.8348 -0.2168 -0.6898
  730MOL0     H96312   2.635   7.004   7.041 -0.1735  0.4921  0.1533
  730MOL0     H96313   2.908   7.182   6.844  0.2255 -2.3859 -0.4190
  730MOL0     H96314   3.180   7.179   6.883  2.3370 -0.5528  0.1094
  730MOL0     H96315   3.222   7.168   7.047  1.8716  1.1715 -1.5692
  730MOL0     H96316   3.110   7.441   6.954 -3.8008 -3.6330  1.6575
  730MOL0     H96317   3.272   7.390   6.923 -0.0354  2.6892 -0.3839
  730MOL0     H96318   3.241   7.538   7.101 -0.3234  0.0784 -0.8378
  730MOL0     H96319   3.161   7.414   7.201  0.0428  3.4969  1.1680
  730MOL0     H96320   3.406   7.300   7.169  0.1908  0.9987 -1.8955
  730MOL0     H96321   3.385   7.452   7.273 -4.6743  1.4353 -0.0000
  730MOL0     H96322   3.663   7.538   7.249 -0.1194 -0.9817  0.3103
  730MOL0     H96323   3.910   7.477   7.232  0.6158 -1.5673  0.9343
  730MOL0     H96324   4.271   7.270   6.911  0.2719 -0.2749  1.2282
  730MOL0     H96325   4.513   7.312   6.905  0.5518 -1.4093  1.6212
  730MOL0     H96326   4.691   7.477   6.938 -1.2135 -0.1022  0.1271
  730MOL0     H96327   4.754   7.311   6.966  1.2448  0.2199 -0.7550
  730MOL0     H96328   4.856   7.568   7.096  2.6043  0.0311  1.0201
  730MOL0     H96329   4.915   7.497   6.943 -2.1891 -1.1527 -0.5197
  730MOL0     H96330   4.949   7.276   7.069  2.2727 -0.9014 -0.2314
  730MOL0     H96331   4.928   7.364   7.224  2.7612 -2.9492 -0.2831
  730MOL0     H96332   5.127   7.428   7.002 -1.5290 -0.4621 -0.2700
  730MOL0     H96333   5.114   7.519   7.160 -0.4109  0.1941 -1.3007
  730MOL0     H96334   5.157   7.208   7.155 -0.8650  0.2668  0.1832
  730MOL0     H96335   5.192   7.337   7.274 -0.3926 -0.5960  0.2070
  730MOL0     H96336   5.362   7.434   7.122 -1.7789  1.2892 -2.9771
  730MOL0     H96337   5.330   7.313   7.002 -1.5286 -1.9446 -0.5616
  730MOL0     H96338   5.461   7.243   7.253  1.4450  2.0536 -1.5081
  730MOL0     H96339   5.390   7.118   7.154 -1.4480  0.3997 -0.5980
  730MOL0     H96340   5.534   7.237   6.952 -2.7120 -1.8649 -0.0603
  730MOL0     H96341   5.603   7.138   7.073 -0.5980 -0.3172  0.1316
  730MOL0     H96342   4.512   7.456   7.309 -2.2355 -1.1787  2.0898
  730MOL0     H96343   4.262   7.426   7.317 -0.2654 -0.8207 -0.1032
  730MOL0     H96344   3.798   7.194   6.926 -1.6617 -1.0609 -0.1450
  730MOL0     H96345   3.554   7.259   6.957  0.0166  1.4090 -0.1423
  730MOL0     H96346   1.841   7.039   7.164  0.3293  0.9145  0.8692
  730MOL0     H96347   1.633   7.118   7.230 -1.3131 -1.6025 -1.0098
  730MOL0     H96348   1.393   7.101   7.823 -1.3710 -0.9760  1.7385
  730MOL0     H96349   1.178   7.172   7.887 -0.4097  1.9809 -0.4297
  730MOL0     H96350   0.880   7.095   7.579  2.6406 -0.2443 -0.4606
  730MOL0     H96351   0.869   7.264   7.529 -0.5929 -1.1939 -1.0072
  730MOL0     H96352   0.719   7.130   7.756 -0.6146  0.5461 -0.8137
  730MOL0     H96353   0.725   7.302   7.741 -1.2540  1.2057 -1.4612
  730MOL0     H96354   0.517   7.254   7.659 -0.8944 -1.8863  1.6234
  730MOL0     H96355   0.570   7.104   7.581  0.4411  0.2573 -1.0761
  730MOL0     H96356   0.633   7.398   7.492  0.7731 -0.1703  1.6351
  730MOL0     H96357   0.674   7.258   7.395  0.1021  1.0015  0.1562
  730MOL0     H96358   0.253   7.356   7.374 -0.3167  1.2331 -1.3676
  730MOL0     H96359   1.067   7.198   7.473 -0.6994 -2.9085  0.4442
  730MOL0     H96360   1.286   7.140   7.413  2.8743  0.7516 -0.2945
  731MOL0     O96361   4.014   9.488   0.387  0.4538 -0.2749  0.1162
  731MOL0     C96362   4.056   9.372   0.402  0.2015 -0.0045  0.1343
  731MOL0     O96363   3.979   9.269   0.444 -0.2779 -0.4597 -0.0413
  731MOL0     C96364   3.843   9.279   0.447 -0.0667 -0.1680 -0.4037
  731MOL0     C96365   3.772   9.272   0.566 -0.0472 -0.0630  0.1384
  731MOL0     C96366   3.633   9.280   0.571  0.2251  0.1520 -0.0998
  731MOL0     C96367   3.560   9.299   0.452 -1.4345 -0.4486 -0.8424
  731MOL0     O96368   3.425   9.301   0.444 -0.6505 -0.2472 -0.4008
  731MOL0     C96369   3.354   9.180   0.462 -1.2857 -0.3785  0.2550
  731MOL0     C96370   3.235   9.204   0.549 -0.0506 -0.6787 -0.3422
  731MOL0     C96371   3.134   9.084   0.539  0.3581 -0.3844 -0.1472
  731MOL0     C96372   3.001   9.135   0.621 -0.4961 -0.1027 -0.0176
  731MOL0     C96373   2.880   9.101   0.528  0.9804  0.3492 -0.2939
  731MOL0     C96374   2.748   9.150   0.591  0.5604 -0.3410 -0.2079
  731MOL0     C96375   2.626   9.091   0.516  0.1977  0.6947 -0.3304
  731MOL0     C96376   2.639   9.048   0.368 -0.1305 -0.5031  0.4385
  731MOL0     N96377   2.505   8.997   0.323 -0.4799 -0.4423 -0.3967
  731MOL0     C96378   2.477   8.866   0.284  0.2225  0.0875  0.4224
  731MOL0     C96379   2.347   8.879   0.235 -0.0964  1.0253  0.4279
  731MOL0     C96380   2.263   8.773   0.180 -0.3384  0.6143 -0.8234
  731MOL0     C96381   2.272   8.643   0.264  0.0432 -0.7117 -0.5915
  731MOL0     C96382   2.192   8.541   0.189  0.6173  0.2675 -0.8437
  731MOL0     C96383   2.190   8.396   0.246  0.0125 -0.2438 -0.3510
  731MOL0     O96384   2.067   8.394   0.316 -0.7189 -0.3332 -0.2612
  731MOL0     C96385   1.962   8.332   0.256  0.4475 -0.2678  1.0804
  731MOL0     C96386   1.871   8.274   0.336  0.5856 -0.2452  0.2181
  731MOL0     C96387   1.750   8.227   0.282  0.0795 -0.5267  1.0340
  731MOL0     C96388   1.720   8.241   0.144  0.4561  0.0577 -0.5008
  731MOL0     C96389   1.596   8.190   0.075  1.0736 -0.0200  0.6397
  731MOL0     O96390   1.587   8.201  -0.065 -0.1102 -0.1074 -0.2101
  731MOL0     C96391   1.485   8.141  -0.123  0.3897 -0.3264  0.8442
  731MOL0     C96392   1.459   7.999  -0.112  0.9875 -0.4920 -0.2479
  731MOL0     C96393   1.360   7.951  -0.201 -0.4616  0.7504 -0.3826
  731MOL0     C96394   1.292   8.025  -0.297 -0.6042  0.0224  0.7540
  731MOL0     O96395   1.206   7.970  -0.387  0.0901  1.0667  0.4528
  731MOL0     C96396   1.080   7.946  -0.333 -0.0628 -0.6774  0.0503
  731MOL0     C96397   0.991   7.856  -0.420 -0.7485  0.2539  1.0926
  731MOL0     C96398   1.059   7.729  -0.471  0.3175 -0.1176  1.0512
  731MOL0     C96399   0.958   7.630  -0.553 -0.1373  0.7929 -0.1945
  731MOL0     C96400   0.876   7.690  -0.665  0.5438 -0.0339  0.0859
  731MOL0     C96401   0.816   7.591  -0.760 -0.7032  1.0512 -0.0997
  731MOL0     C96402   0.740   7.660  -0.860 -0.2904 -0.3593 -0.7808
  731MOL0     C96403   0.646   7.559  -0.921  0.0473 -0.4843 -0.1197
  731MOL0    Cl96404   0.568   7.645  -1.050 -0.4025  0.0000 -0.4214
  731MOL0     C96405   1.323   8.160  -0.306 -0.2215 -0.0403 -0.5258
  731MOL0     C96406   1.419   8.217  -0.221 -0.2953  0.2867  1.2401
  731MOL0     O96407   1.498   8.152   0.145 -0.3235  0.0628  0.0933
  731MOL0     C96408   1.822   8.299   0.071 -0.8921 -1.2497  0.4604
  731MOL0     C96409   1.939   8.349   0.122 -0.4283  0.3194  0.8417
  731MOL0     N96410   2.320   9.010   0.219 -0.4751 -0.2177  0.6820
  731MOL0     N96411   2.412   9.081   0.277  0.0125 -0.8512  0.0054
  731MOL0     C96412   3.631   9.304   0.334  0.1848  0.1866  0.0170
  731MOL0     C96413   3.771   9.284   0.329 -0.3338 -0.2982 -0.1263
  731MOL0     C96414   4.192   9.345   0.367  0.2451  0.4635  0.2478
  731MOL0     C96415   4.261   9.228   0.412  0.0169 -0.0317 -0.3340
  731MOL0     C96416   4.393   9.210   0.373  0.1547  0.0255 -0.8974
  731MOL0     C96417   4.464   9.301   0.279  0.0366 -0.0756  0.1120
  731MOL0     O96418   4.586   9.283   0.214 -0.1374  0.0189  0.3747
  731MOL0     C96419   4.646   9.151   0.224 -0.3254 -0.5330  0.8779
  731MOL0     C96420   4.801   9.159   0.199  0.6297 -0.0098  0.7240
  731MOL0     C96421   4.848   9.226   0.063  0.5980  0.6258  0.4291
  731MOL0     C96422   4.861   9.121  -0.049 -0.3676 -0.1596  0.0551
  731MOL0     C96423   4.724   9.088  -0.105  0.0063 -0.1374  0.5577
  731MOL0     C96424   4.618   9.064  -0.152  0.5338 -0.4525 -0.1946
  731MOL0     C96425   4.387   9.410   0.238 -0.3738  0.2628  0.4106
  731MOL0     C96426   4.258   9.438   0.278  0.6795  0.2235  0.5007
  731MOL0     H96427   3.827   9.250   0.657 -0.2110 -0.6073  0.1058
  731MOL0     H96428   3.572   9.253   0.657 -1.1774  0.0667 -1.0812
  731MOL0     H96429   3.425   9.114   0.513  0.5252  0.5480 -0.9786
  731MOL0     H96430   3.324   9.136   0.367 -2.7523 -2.3681  1.5706
  731MOL0     H96431   3.191   9.300   0.523 -0.3873 -1.3319 -2.3621
  731MOL0     H96432   3.263   9.211   0.655 -0.8724 -3.1397  0.1048
  731MOL0     H96433   3.171   8.994   0.588 -0.7132  0.2496  1.9727
  731MOL0     H96434   3.116   9.064   0.433  3.3964 -1.6213 -0.5362
  731MOL0     H96435   3.001   9.081   0.716  2.4797  0.0590  0.1774
  731MOL0     H96436   3.019   9.240   0.649 -3.7961  0.2537  1.2263
  731MOL0     H96437   2.870   8.992   0.518  1.2446  0.4500 -2.0152
  731MOL0     H96438   2.892   9.133   0.424  0.1922 -1.2877 -0.9279
  731MOL0     H96439   2.724   9.256   0.584 -1.3346 -0.6829  0.3557
  731MOL0     H96440   2.740   9.123   0.696 -0.4761  2.3170  0.4890
  731MOL0     H96441   2.607   8.995   0.564  1.3647 -0.3684 -1.8999
  731MOL0     H96442   2.530   9.142   0.528  0.6474  1.7639 -1.1095
  731MOL0     H96443   2.720   8.977   0.346  2.2129  2.0921  0.1906
  731MOL0     H96444   2.657   9.137   0.307 -2.1197 -0.3385  0.0056
  731MOL0     H96445   2.528   8.771   0.289  2.4467  1.0688 -1.4495
  731MOL0     H96446   2.290   8.747   0.077 -0.2219 -2.0379 -0.1955
  731MOL0     H96447   2.161   8.813   0.181 -0.6570 -0.1919  0.4213
  731MOL0     H96448   2.231   8.663   0.364  1.7161 -0.6374  0.1224
  731MOL0     H96449   2.376   8.615   0.285 -0.1950 -0.5007  1.0228
  731MOL0     H96450   2.087   8.568   0.177  0.1534 -0.8494  0.4150
  731MOL0     H96451   2.221   8.537   0.084 -3.6274 -0.1169 -2.1718
  731MOL0     H96452   2.268   8.381   0.322  1.7493  1.5199 -1.6885
  731MOL0     H96453   2.204   8.318   0.170 -1.5798 -0.5658 -0.3392
  731MOL0     H96454   1.897   8.267   0.441  1.7524  0.2990 -0.0204
  731MOL0     H96455   1.676   8.179   0.345 -3.8803  1.6029 -1.5833
  731MOL0     H96456   1.530   7.950  -0.046  1.5508 -0.1159 -0.5611
  731MOL0     H96457   1.340   7.845  -0.199 -2.0006  0.8783  4.6428
  731MOL0     H96458   1.024   8.038  -0.317 -1.3901 -1.3772 -0.4792
  731MOL0     H96459   1.099   7.896  -0.237 -0.4997 -1.5992 -0.3319
  731MOL0     H96460   0.952   7.911  -0.506 -1.1974 -2.3401 -0.4957
  731MOL0     H96461   0.904   7.826  -0.361  0.1249 -2.4405  1.1598
  731MOL0     H96462   1.104   7.677  -0.386  1.2562 -0.4316  0.3652
  731MOL0     H96463   1.148   7.754  -0.529  0.8243 -2.8440  0.5381
  731MOL0     H96464   1.014   7.545  -0.592 -1.3083  0.2981 -0.8685
  731MOL0     H96465   0.887   7.591  -0.480  1.9232 -0.3295  1.3068
  731MOL0     H96466   0.943   7.767  -0.703  0.7810  0.8414  2.1631
  731MOL0     H96467   0.795   7.740  -0.611 -1.1063 -2.2606 -0.1780
  731MOL0     H96468   0.760   7.516  -0.705 -0.5012 -1.0219 -2.5495
  731MOL0     H96469   0.895   7.535  -0.811  0.5871  1.6465  1.1553
  731MOL0     H96470   0.688   7.750  -0.826  0.1534 -0.6557  0.7474
  731MOL0     H96471   0.808   7.688  -0.942  1.2945 -1.2790  0.1645
  731MOL0     H96472   0.574   7.530  -0.844  1.5677 -1.9508  0.8118
  731MOL0     H96473   0.702   7.471  -0.955  3.0368 -0.2321  3.5032
  731MOL0     H96474   1.275   8.216  -0.386 -1.5470 -2.1330 -1.2524
  731MOL0     H96475   1.439   8.322  -0.238  1.2008 -0.2935 -1.1779
  731MOL0     H96476   1.802   8.315  -0.034  0.6598 -2.6171 -0.0866
  731MOL0     H96477   2.013   8.387   0.052 -1.7736  0.3498 -0.5982
  731MOL0     H96478   3.592   9.315   0.233  1.9864 -0.2230 -0.7563
  731MOL0     H96479   3.817   9.289   0.231  3.2610  0.2631  1.4286
  731MOL0     H96480   4.218   9.153   0.478  2.0673 -1.8645 -0.9567
  731MOL0     H96481   4.447   9.123   0.410  2.0985  2.2360  1.9773
  731MOL0     H96482   4.600   9.077   0.158  0.1473  0.2093 -0.3134
  731MOL0     H96483   4.637   9.112   0.326 -0.3068 -2.7726  0.0784
  731MOL0     H96484   4.841   9.225   0.276 -1.2588  0.1332  1.6450
  731MOL0     H96485   4.838   9.056   0.207  0.1559 -0.3410 -0.9735
  731MOL0     H96486   4.953   9.256   0.066  1.2542 -1.3116 -1.2040
  731MOL0     H96487   4.769   9.302   0.052 -3.2487 -3.0819  0.0125
  731MOL0     H96488   4.925   9.165  -0.126 -0.4905  0.1730  0.1428
  731MOL0     H96489   4.906   9.031  -0.006 -1.4639 -0.3660  0.8341
  731MOL0     H96490   4.522   9.045  -0.196  0.3328 -2.2436  0.9210
  731MOL0     H96491   4.433   9.476   0.165 -0.1564 -1.4244 -1.0299
  731MOL0     H96492   4.222   9.539   0.263 -0.9080 -0.0077  2.3913
  732MOL0     O96493  10.173   6.971   6.965 -0.6736  0.2227  0.4259
  732MOL0     C96494  10.238   6.869   6.957  0.0264  0.1421  0.3269
  732MOL0     O96495  10.199   6.754   6.893  0.3650 -0.3912  0.0538
  732MOL0     C96496  10.069   6.750   6.836  0.0873  0.0182  0.7686
  732MOL0     C96497   9.954   6.795   6.898  0.1271 -0.5123 -0.5368
  732MOL0     C96498   9.826   6.782   6.841  0.1929 -0.4603  0.8137
  732MOL0     C96499   9.811   6.719   6.715 -0.2633  0.3605  0.3501
  732MOL0     O96500   9.690   6.684   6.662 -0.3222 -0.3200  0.4233
  732MOL0     C96501   9.563   6.728   6.725  0.3704  0.3454  0.5597
  732MOL0     C96502   9.453   6.708   6.612 -0.7100 -0.4910  1.0274
  732MOL0     C96503   9.337   6.807   6.629  0.8870 -0.1631 -0.0254
  732MOL0     C96504   9.217   6.772   6.542  0.1096  0.1037  0.5424
  732MOL0     C96505   9.130   6.888   6.492  0.7790 -0.5896  0.2430
  732MOL0     C96506   9.030   6.940   6.597 -1.0037  0.4350 -0.0097
  732MOL0     C96507   8.932   6.843   6.649 -0.3445  0.7172  0.3024
  732MOL0     C96508   8.854   6.755   6.551  0.0624 -0.1153 -0.2890
  732MOL0     N96509   8.761   6.829   6.474 -0.0306 -0.2890  0.2674
  732MOL0     C96510   8.679   6.917   6.536  0.1052  0.8821 -0.1058
  732MOL0     C96511   8.636   6.994   6.438  0.8667  0.7897  0.1830
  732MOL0     C96512   8.535   7.106   6.466 -0.9074  0.5594  0.0826
  732MOL0     C96513   8.391   7.056   6.500 -0.8264  0.2545  0.0348
  732MOL0     C96514   8.296   7.163   6.543  0.0181  0.1345 -0.2520
  732MOL0     C96515   8.149   7.123   6.535  0.4521  0.5875  0.1438
  732MOL0     O96516   8.117   7.002   6.602  0.5939 -0.5284  0.3492
  732MOL0     C96517   8.002   6.932   6.568 -0.1016  0.2791  0.3357
  732MOL0     C96518   7.912   6.973   6.466  0.0769 -0.7803 -0.4982
  732MOL0     C96519   7.784   6.919   6.464 -0.1485 -0.7068  0.1077
  732MOL0     C96520   7.751   6.813   6.548  0.0127 -0.2520  0.3173
  732MOL0     C96521   7.617   6.769   6.559 -0.4083 -0.2841 -0.7185
  732MOL0     O96522   7.520   6.847   6.504  0.3056  0.1179 -0.4774
  732MOL0     C96523   7.388   6.809   6.496 -0.3945 -0.2889  0.1541
  732MOL0     C96524   7.338   6.794   6.366 -0.7680  0.0469 -0.0423
  732MOL0     C96525   7.197   6.777   6.353 -1.0696  0.2542  0.3975
  732MOL0     C96526   7.119   6.766   6.470  0.4728  1.0360  0.4707
  732MOL0     O96527   6.979   6.741   6.474  0.5427  0.2129 -0.5669
  732MOL0     C96528   6.907   6.799   6.357 -0.1856 -0.8539 -0.3240
  732MOL0     C96529   6.762   6.751   6.378  0.0912 -0.0814 -0.4922
  732MOL0     C96530   6.657   6.805   6.281  0.5796 -0.7768 -0.1818
  732MOL0     C96531   6.521   6.767   6.343 -0.1189 -0.3132  0.5606
  732MOL0     C96532   6.412   6.814   6.249 -0.5705  0.2203  0.2256
  732MOL0     C96533   6.279   6.758   6.313  0.1771  0.0018  0.6968
  732MOL0     C96534   6.156   6.797   6.217 -0.7888  0.6686 -0.2733
  732MOL0     C96535   6.020   6.768   6.286 -0.6650 -0.4471  0.2007
  732MOL0    Cl96536   6.016   6.595   6.342  0.2039 -0.0262 -0.3681
  732MOL0     C96537   7.176   6.761   6.596 -0.4293 -0.9532  0.7713
  732MOL0     C96538   7.311   6.783   6.610 -0.0825  0.5795  0.1664
  732MOL0     O96539   7.592   6.661   6.610  0.3233 -0.2780  0.2922
  732MOL0     C96540   7.849   6.755   6.627  0.0852 -0.3161  0.3360
  732MOL0     C96541   7.978   6.817   6.639  0.6267  0.4785  0.7460
  732MOL0     N96542   8.694   6.953   6.317 -0.4869  0.4279  0.0819
  732MOL0     N96543   8.772   6.851   6.342 -0.3770  0.4790  0.2386
  732MOL0     C96544   9.926   6.667   6.664  0.6403  0.5274  0.4868
  732MOL0     C96545  10.054   6.680   6.715  0.1380  0.1382  0.9688
  732MOL0     C96546  10.372   6.869   7.011 -1.1141  0.3731  0.0349
  732MOL0     C96547  10.463   6.761   6.981 -0.3059 -0.1828 -0.0805
  732MOL0     C96548  10.597   6.768   7.024  0.1347  0.1762  0.2455
  732MOL0     C96549  10.638   6.872   7.111 -0.9738  0.8221  0.3578
  732MOL0     O96550  10.775   6.870   7.153 -0.7104  0.5750  0.2424
  732MOL0     C96551  10.836   6.975   7.229  0.4792  0.3012  0.2050
  732MOL0     C96552  10.984   6.956   7.265 -0.1036 -0.1675  0.3745
  732MOL0     C96553  11.009   6.838   7.367  0.4325  0.4156  0.1582
  732MOL0     C96554  11.164   6.800   7.380  0.3161 -0.1646  0.5852
  732MOL0     C96555  11.196   6.702   7.481 -0.0133  0.9610 -0.0860
  732MOL0     C96556  11.233   6.632   7.575 -0.1885  1.2645 -0.1103
  732MOL0     C96557  10.547   6.971   7.148 -0.5084  0.5431 -0.5036
  732MOL0     C96558  10.415   6.969   7.101 -0.0748  0.5694 -0.4058
  732MOL0     H96559   9.949   6.840   6.997 -2.1766 -2.2790  0.2366
  732MOL0     H96560   9.747   6.843   6.886  0.5155 -1.4431  2.8380
  732MOL0     H96561   9.572   6.833   6.756 -0.4245  0.1805  1.3911
  732MOL0     H96562   9.528   6.674   6.814  2.0536 -1.6904  0.0584
  732MOL0     H96563   9.420   6.606   6.592  0.3151 -0.6392 -0.0049
  732MOL0     H96564   9.496   6.738   6.516 -0.6310 -2.4782  0.3994
  732MOL0     H96565   9.376   6.905   6.600 -1.7328  0.3904 -1.9664
  732MOL0     H96566   9.329   6.805   6.738  0.2328 -3.9420 -0.0180
  732MOL0     H96567   9.258   6.742   6.445  2.1895  3.8597  0.0825
  732MOL0     H96568   9.165   6.689   6.591 -2.2446  1.2029  0.0793
  732MOL0     H96569   9.078   6.855   6.402  0.0938  1.4834 -0.1797
  732MOL0     H96570   9.191   6.971   6.457 -2.8255  2.7714  1.1625
  732MOL0     H96571   8.967   7.017   6.550  1.4801  2.8601  0.4059
  732MOL0     H96572   9.085   6.986   6.680  2.2157 -1.8119 -0.7155
  732MOL0     H96573   8.993   6.779   6.713 -1.5699  0.0931  0.8616
  732MOL0     H96574   8.868   6.882   6.728 -2.3930 -2.2056  0.2279
  732MOL0     H96575   8.798   6.678   6.605 -0.5501 -0.3771 -1.2824
  732MOL0     H96576   8.921   6.701   6.484 -0.9016 -0.4025 -1.0341
  732MOL0     H96577   8.658   6.922   6.642 -0.8421  0.7328 -0.2808
  732MOL0     H96578   8.524   7.164   6.374 -0.2684  1.3867  0.5168
  732MOL0     H96579   8.572   7.161   6.552  0.4535  0.2753 -0.3011
  732MOL0     H96580   8.403   6.985   6.582 -1.7539  1.6438  1.4259
  732MOL0     H96581   8.348   7.007   6.412  0.0637  2.8957 -1.9847
  732MOL0     H96582   8.310   7.195   6.647 -1.4231  1.5344 -0.4542
  732MOL0     H96583   8.309   7.254   6.484 -1.5662  1.6047  1.5269
  732MOL0     H96584   8.135   7.115   6.427 -0.1384 -0.7650  0.2965
  732MOL0     H96585   8.089   7.201   6.583 -2.3184  0.5591 -2.9097
  732MOL0     H96586   7.926   7.064   6.409 -2.1545 -0.5156 -0.7302
  732MOL0     H96587   7.711   6.973   6.404  0.8868 -1.2136 -1.6978
  732MOL0     H96588   7.403   6.816   6.282 -1.5862 -1.1147 -1.0069
  732MOL0     H96589   7.162   6.780   6.250  1.9050  1.3507 -0.7270
  732MOL0     H96590   6.937   6.756   6.262 -0.7902 -2.4983  0.1983
  732MOL0     H96591   6.929   6.906   6.353  1.4990 -0.9945  2.2119
  732MOL0     H96592   6.733   6.750   6.483  1.0610  0.8049 -0.1955
  732MOL0     H96593   6.762   6.643   6.361 -0.4767 -0.7816  3.1309
  732MOL0     H96594   6.655   6.775   6.176  0.6338  3.7145 -1.6818
  732MOL0     H96595   6.668   6.914   6.274 -1.4124 -0.3991  1.5941
  732MOL0     H96596   6.528   6.660   6.365  1.2283 -0.2956  0.3403
  732MOL0     H96597   6.505   6.826   6.433  1.2040  1.3043 -0.1978
  732MOL0     H96598   6.424   6.765   6.151  1.2535 -0.6209  0.8109
  732MOL0     H96599   6.419   6.923   6.239  3.7820  0.3002  1.9310
  732MOL0     H96600   6.271   6.798   6.414 -0.5744 -0.8773  0.9978
  732MOL0     H96601   6.291   6.650   6.323  1.1007 -0.0401 -0.6402
  732MOL0     H96602   6.160   6.906   6.204  0.3897  1.3934  4.4695
  732MOL0     H96603   6.162   6.743   6.122 -3.3296  2.0452 -1.3345
  732MOL0     H96604   5.951   6.794   6.205  0.4738 -3.1225 -1.7585
  732MOL0     H96605   6.005   6.845   6.363  1.2334  1.2078 -0.9698
  732MOL0     H96606   7.112   6.755   6.684 -0.1888 -1.3756  0.9205
  732MOL0     H96607   7.354   6.773   6.709  2.3215 -0.5672 -0.9190
  732MOL0     H96608   7.827   6.673   6.695  0.0120 -0.2525  0.3895
  732MOL0     H96609   8.050   6.773   6.707  0.9644 -0.6777 -0.3144
  732MOL0     H96610   9.918   6.619   6.568  1.1113 -0.7554  1.0663
  732MOL0     H96611  10.147   6.645   6.671  0.8464  1.3385  1.4733
  732MOL0     H96612  10.431   6.667   6.937  0.6174  1.1040 -3.8971
  732MOL0     H96613  10.656   6.680   7.000 -2.3010 -0.8793 -2.4874
  732MOL0     H96614  10.789   6.978   7.328 -0.3729  0.6934 -0.2072
  732MOL0     H96615  10.814   7.074   7.188  1.4577  0.3171 -0.3306
  732MOL0     H96616  11.038   6.928   7.174  2.2120  4.0325  0.2240
  732MOL0     H96617  11.022   7.052   7.301  2.6032 -0.1780 -2.0920
  732MOL0     H96618  10.961   6.742   7.346  4.0026 -1.7099  0.7760
  732MOL0     H96619  10.973   6.860   7.468  1.3057 -2.0678  1.0960
  732MOL0     H96620  11.192   6.759   7.283 -1.4087 -3.0858  1.2045
  732MOL0     H96621  11.220   6.891   7.406 -1.1890  1.4009 -1.3772
  732MOL0     H96622  11.259   6.573   7.661 -3.9040  0.9081  0.9417
  732MOL0     H96623  10.592   7.050   7.207 -0.5925  0.0622  0.2183
  732MOL0     H96624  10.354   7.055   7.126 -0.1780 -0.3036  2.7244
  733MOL0     O96625   4.112  10.693   5.979  0.0777  0.1638 -0.3106
  733MOL0     C96626   4.156  10.809   5.989  0.2390  0.2311 -0.0197
  733MOL0     O96627   4.101  10.922   5.938 -0.6667 -0.6204  0.1691
  733MOL0     C96628   3.991  10.930   5.859 -1.1512 -0.1430 -0.0567
  733MOL0     C96629   3.934  11.058   5.842 -0.3195 -0.7861 -0.5154
  733MOL0     C96630   3.813  11.080   5.767  0.5627 -0.2397 -0.4321
  733MOL0     C96631   3.756  10.968   5.701 -0.1586 -0.1980 -0.5358
  733MOL0     O96632   3.642  10.996   5.621  0.4253 -1.1419 -0.7567
  733MOL0     C96633   3.568  10.879   5.572  0.0181  0.3548  0.2912
  733MOL0     C96634   3.458  10.926   5.475  0.1567 -0.4732  0.8675
  733MOL0     C96635   3.377  10.803   5.436 -0.1039 -0.6581  1.1821
  733MOL0     C96636   3.271  10.848   5.329 -0.5407 -0.4304 -0.0734
  733MOL0     C96637   3.319  10.832   5.189 -0.1140 -0.5574  0.4732
  733MOL0     C96638   3.205  10.845   5.083 -0.2036 -0.1114 -0.4486
  733MOL0     C96639   3.119  10.970   5.107 -0.0394 -0.4179 -0.1534
  733MOL0     C96640   3.031  11.013   4.986  0.0612 -0.2472 -0.2829
  733MOL0     N96641   2.946  10.898   4.946  0.1516  0.2764 -0.5546
  733MOL0     C96642   2.846  10.857   5.030  0.4146 -0.1898 -0.4599
  733MOL0     C96643   2.778  10.767   4.949 -0.4614  0.4242 -0.1620
  733MOL0     C96644   2.638  10.715   4.990  1.0799  0.2979 -1.1618
  733MOL0     C96645   2.530  10.712   4.887 -0.5748 -0.5085  0.0865
  733MOL0     C96646   2.396  10.670   4.942 -0.1316  0.4316 -0.6100
  733MOL0     C96647   2.292  10.654   4.834 -0.1536  0.8070 -0.4105
  733MOL0     O96648   2.273  10.779   4.762 -0.3824  0.7844 -0.7554
  733MOL0     C96649   2.149  10.833   4.788 -0.6615  0.9783  0.2189
  733MOL0     C96650   2.131  10.921   4.899 -0.3830  0.8412  0.3769
  733MOL0     C96651   2.001  10.949   4.945 -0.9729 -0.2577  0.8485
  733MOL0     C96652   1.886  10.907   4.872 -0.3920  0.1653 -0.0048
  733MOL0     C96653   1.747  10.934   4.917 -0.4720 -0.6470 -0.2449
  733MOL0     O96654   1.730  10.952   5.051  0.9318  0.9154 -0.2005
  733MOL0     C96655   1.609  10.975   5.098 -0.6563 -0.7584 -0.6126
  733MOL0     C96656   1.600  11.087   5.192  0.2960 -0.2330  0.1261
  733MOL0     C96657   1.482  11.118   5.266 -0.3760 -0.0642 -0.4371
  733MOL0     C96658   1.369  11.050   5.242  0.2330  0.8430  0.4432
  733MOL0     O96659   1.254  11.090   5.312  0.6943 -0.0427 -0.5220
  733MOL0     C96660   1.135  11.013   5.335 -1.0620  0.1417  0.3842
  733MOL0     C96661   1.057  11.099   5.433  0.2128 -0.4011  0.0560
  733MOL0     C96662   0.907  11.063   5.440 -0.1888 -0.0371 -0.3002
  733MOL0     C96663   0.847  11.133   5.560 -0.6308 -0.6164 -0.0042
  733MOL0     C96664   0.700  11.116   5.542  0.4125 -0.2267  0.6573
  733MOL0     C96665   0.614  11.171   5.653  0.0520 -0.8392 -0.1423
  733MOL0     C96666   0.463  11.177   5.621 -0.9994  1.3904 -0.7125
  733MOL0     C96667   0.371  11.201   5.745 -0.0816 -0.2122  0.2766
  733MOL0    Cl96668   0.205  11.212   5.694  0.0218  0.5076 -0.1544
  733MOL0     C96669   1.372  10.950   5.146  0.2162  0.0109  0.0374
  733MOL0     C96670   1.481  10.910   5.070  0.0807  0.3567 -0.2665
  733MOL0     O96671   1.662  10.945   4.825  0.1755 -0.5910  0.3835
  733MOL0     C96672   1.909  10.828   4.756 -0.9799  0.6351  0.0446
  733MOL0     C96673   2.038  10.793   4.707  0.1702 -0.3712 -0.4521
  733MOL0     N96674   2.836  10.753   4.830  0.4933 -0.2823  0.0087
  733MOL0     N96675   2.937  10.837   4.822  0.7142  0.6593  0.0276
  733MOL0     C96676   3.816  10.844   5.715  0.1364  0.3113  0.1483
  733MOL0     C96677   3.931  10.820   5.787 -0.6534 -0.1824 -0.5277
  733MOL0     C96678   4.285  10.821   6.060  0.9532  0.4620 -0.1130
  733MOL0     C96679   4.365  10.939   6.055  0.5718 -0.3458 -0.4009
  733MOL0     C96680   4.490  10.940   6.126  0.0174 -0.1253  0.3965
  733MOL0     C96681   4.533  10.828   6.199  0.1720 -0.0308  0.1502
  733MOL0     O96682   4.647  10.856   6.261  0.0180  0.2561 -0.2192
  733MOL0     C96683   4.679  10.773   6.376  0.6185 -0.1039 -0.0314
  733MOL0     C96684   4.784  10.844   6.467  0.9119 -0.5692 -0.6609
  733MOL0     C96685   4.926  10.824   6.414  0.2911 -0.4984 -0.3726
  733MOL0     C96686   4.952  10.905   6.293  0.0047 -0.8506  0.2688
  733MOL0     C96687   5.092  10.953   6.310 -1.1449  0.5069 -0.2919
  733MOL0     C96688   5.208  10.982   6.335  0.2824 -0.3793 -0.1834
  733MOL0     C96689   4.452  10.714   6.200  0.7755 -0.1293 -0.0286
  733MOL0     C96690   4.321  10.708   6.144 -0.2826 -0.4212  0.5633
  733MOL0     H96691   3.979  11.152   5.872 -1.7228  0.1019 -1.0784
  733MOL0     H96692   3.759  11.171   5.744  1.9267  0.5298 -0.7417
  733MOL0     H96693   3.520  10.816   5.648  1.4938 -1.8738 -0.5005
  733MOL0     H96694   3.636  10.827   5.503  1.2850  1.2755  0.8127
  733MOL0     H96695   3.503  10.991   5.399 -0.3796 -0.6203  0.4184
  733MOL0     H96696   3.388  10.989   5.531 -1.7190 -0.0728 -1.7179
  733MOL0     H96697   3.325  10.757   5.521  0.8974 -1.3986  1.4154
  733MOL0     H96698   3.440  10.724   5.393  1.8662  0.8391  1.1486
  733MOL0     H96699   3.183  10.784   5.335 -0.1144 -1.0446 -0.3290
  733MOL0     H96700   3.237  10.950   5.349 -0.0494  0.2476 -2.3493
  733MOL0     H96701   3.378  10.742   5.170  3.5557  1.8717 -0.7399
  733MOL0     H96702   3.391  10.910   5.160 -0.6694 -0.3304 -0.3185
  733MOL0     H96703   3.135  10.761   5.078 -0.5284  0.2063 -2.6112
  733MOL0     H96704   3.252  10.839   4.984 -0.1098 -0.1374 -0.4018
  733MOL0     H96705   3.057  10.947   5.194 -1.4499 -0.1616 -1.0724
  733MOL0     H96706   3.193  11.048   5.128  0.3878 -0.8996  0.1658
  733MOL0     H96707   3.087  11.052   4.901 -1.0984  1.0312 -0.4943
  733MOL0     H96708   2.964  11.094   5.016  1.9592  1.6110 -0.8983
  733MOL0     H96709   2.816  10.889   5.129  2.5660  3.0688 -0.6884
  733MOL0     H96710   2.604  10.781   5.070 -2.2450 -1.2354 -1.1819
  733MOL0     H96711   2.646  10.617   5.039  0.1564 -0.4613 -2.4798
  733MOL0     H96712   2.555  10.655   4.797 -2.5443 -0.2068 -0.7098
  733MOL0     H96713   2.522  10.817   4.858  0.2354 -0.7801 -1.2271
  733MOL0     H96714   2.416  10.577   4.998 -2.1327  0.5255  0.3601
  733MOL0     H96715   2.351  10.725   5.025 -1.2269  0.2395 -1.0580
  733MOL0     H96716   2.194  10.632   4.878  0.6410  2.3475  2.4236
  733MOL0     H96717   2.326  10.570   4.774  0.7755  1.6997 -1.1807
  733MOL0     H96718   2.216  10.955   4.958  0.3103 -2.0524  1.1917
  733MOL0     H96719   2.008  11.006   5.037  1.7109 -1.3840  1.4455
  733MOL0     H96720   1.683  11.156   5.206 -0.1330  0.1233  0.9692
  733MOL0     H96721   1.472  11.190   5.346 -0.5909 -0.2842 -0.2603
  733MOL0     H96722   1.155  10.914   5.376  0.9783  1.5703  3.1678
  733MOL0     H96723   1.083  10.994   5.241 -0.7349 -1.9183  0.5853
  733MOL0     H96724   1.073  11.206   5.413  1.2946 -0.6474 -0.4368
  733MOL0     H96725   1.101  11.077   5.531 -1.3652  0.0548  0.9096
  733MOL0     H96726   0.901  10.958   5.470 -0.8364 -0.0405 -0.4210
  733MOL0     H96727   0.860  11.081   5.342  1.8987  1.2921 -1.1302
  733MOL0     H96728   0.879  11.084   5.653 -2.5146 -2.5115 -0.2618
  733MOL0     H96729   0.863  11.241   5.558  1.1108 -0.8581 -2.5172
  733MOL0     H96730   0.665  11.013   5.535 -2.2990  0.7065 -1.7183
  733MOL0     H96731   0.668  11.162   5.448  1.3457  1.0627  0.9329
  733MOL0     H96732   0.635  11.277   5.670  2.0369  0.1008 -6.0121
  733MOL0     H96733   0.629  11.108   5.741  0.3103  2.2051  2.1318
  733MOL0     H96734   0.456  11.256   5.545 -0.0642  2.3092  0.1250
  733MOL0     H96735   0.432  11.084   5.572 -0.6248  0.8041  0.1535
  733MOL0     H96736   0.400  11.298   5.787 -0.4074  0.1027 -0.2113
  733MOL0     H96737   0.374  11.123   5.821 -1.5180  0.1118  0.6951
  733MOL0     H96738   1.278  10.895   5.140  1.8430 -2.8859 -0.4191
  733MOL0     H96739   1.484  10.812   5.023  1.3029 -0.1472  0.7922
  733MOL0     H96740   1.823  10.808   4.694 -0.6102 -0.6591 -0.0759
  733MOL0     H96741   2.042  10.728   4.621 -1.1205  1.7513 -2.2171
  733MOL0     H96742   3.763  10.755   5.682  1.0084 -0.1679  0.0170
  733MOL0     H96743   3.957  10.715   5.799  1.6048  0.4171  0.4343
  733MOL0     H96744   4.331  11.015   5.985 -0.0171  0.1373  0.3945
  733MOL0     H96745   4.544  11.034   6.119  1.5501 -1.1215 -3.4108
  733MOL0     H96746   4.719  10.676   6.343 -2.3211 -2.0745  1.7311
  733MOL0     H96747   4.590  10.746   6.433  0.6686 -1.3599 -0.5063
  733MOL0     H96748   4.752  10.947   6.484 -1.1123 -1.2855  0.1388
  733MOL0     H96749   4.773  10.801   6.567  0.1293  1.9941  0.4180
  733MOL0     H96750   4.952  10.720   6.390 -1.2559 -0.9189 -0.3288
  733MOL0     H96751   4.994  10.848   6.496  0.1116 -0.9520 -0.0825
  733MOL0     H96752   4.935  10.845   6.203 -0.9996 -0.4860  0.1947
  733MOL0     H96753   4.889  10.994   6.286 -0.7711 -1.2523  1.7576
  733MOL0     H96754   5.305  11.019   6.364 -0.8485  1.5650  1.3872
  733MOL0     H96755   4.493  10.626   6.248 -1.1071 -0.6328  0.7298
  733MOL0     H96756   4.277  10.609   6.144  1.8977 -1.4855 -0.9273
  734MOL0     O96757   5.312   6.644   6.574  0.0477 -0.4366  0.1155
  734MOL0     C96758   5.295   6.735   6.493  0.1517 -0.1022  0.0793
  734MOL0     O96759   5.182   6.771   6.441 -0.0630 -0.1040 -0.1014
  734MOL0     C96760   5.061   6.709   6.480  0.2031  0.5645 -1.0027
  734MOL0     C96761   4.959   6.672   6.384 -0.1264  0.4969  0.3985
  734MOL0     C96762   4.845   6.603   6.430  0.2230 -0.2715  0.5001
  734MOL0     C96763   4.815   6.592   6.565 -0.4315 -0.9475 -0.4556
  734MOL0     O96764   4.702   6.536   6.601 -0.1432  0.6256 -0.7264
  734MOL0     C96765   4.714   6.443   6.709 -0.2378  0.3641 -0.0492
  734MOL0     C96766   4.629   6.316   6.686  0.5750 -0.3739 -0.5323
  734MOL0     C96767   4.635   6.224   6.812 -0.4873 -0.2105  0.3567
  734MOL0     C96768   4.757   6.136   6.816  0.3071 -0.3707 -0.0775
  734MOL0     C96769   4.743   6.024   6.924  0.3134 -0.1409 -0.8317
  734MOL0     C96770   4.717   6.075   7.066 -0.5640 -1.1946 -0.0584
  734MOL0     C96771   4.686   5.967   7.161 -0.2983  0.5613 -0.1304
  734MOL0     C96772   4.730   6.022   7.300  1.6429 -0.5339 -0.4941
  734MOL0     N96773   4.741   5.916   7.403  0.2209 -0.4399  0.0814
  734MOL0     C96774   4.640   5.818   7.422 -0.2194 -0.6957  1.2945
  734MOL0     C96775   4.689   5.748   7.531 -0.7693 -0.4333  1.2275
  734MOL0     C96776   4.624   5.617   7.563 -0.2957 -0.3144  0.5717
  734MOL0     C96777   4.676   5.504   7.466 -0.0099  0.0614 -0.3126
  734MOL0     C96778   4.608   5.492   7.332 -0.3594 -0.2383  0.6749
  734MOL0     C96779   4.670   5.379   7.250  0.3863  0.1248 -0.5148
  734MOL0     O96780   4.631   5.246   7.292 -0.1862 -0.5475  0.0066
  734MOL0     C96781   4.524   5.185   7.229  0.2824  0.1944 -0.2003
  734MOL0     C96782   4.515   5.047   7.240 -0.4327 -0.4865  0.5795
  734MOL0     C96783   4.408   4.982   7.173  0.0987  0.5031 -0.3621
  734MOL0     C96784   4.303   5.045   7.106 -0.0919  0.3908  0.6277
  734MOL0     C96785   4.189   4.975   7.044  0.0070 -0.6234  0.5551
  734MOL0     O96786   4.098   5.064   6.996 -0.4507 -0.2984  0.3128
  734MOL0     C96787   3.982   5.028   6.941  0.5023 -0.0851  0.1505
  734MOL0     C96788   3.931   5.099   6.832 -0.4313 -0.3122  0.0984
  734MOL0     C96789   3.801   5.082   6.786  0.6588  0.9801 -0.1755
  734MOL0     C96790   3.706   4.991   6.841 -0.3835 -0.4987  0.1221
  734MOL0     O96791   3.573   4.990   6.802 -0.5447 -0.4666 -0.2384
  734MOL0     C96792   3.493   4.875   6.834  0.3778 -0.4512  0.3684
  734MOL0     C96793   3.346   4.895   6.815 -0.6423 -0.2390  0.1816
  734MOL0     C96794   3.269   4.767   6.832  0.2617  0.0120  0.2447
  734MOL0     C96795   3.117   4.785   6.792  0.6826 -0.4404 -0.2962
  734MOL0     C96796   3.032   4.661   6.837  0.6037  0.7573  0.0877
  734MOL0     C96797   2.888   4.677   6.807  0.5589 -0.0274 -0.8906
  734MOL0     C96798   2.818   4.555   6.853  0.2942  0.9277 -0.1459
  734MOL0     C96799   2.664   4.567   6.825 -0.0521  0.3234  0.0071
  734MOL0    Cl96800   2.552   4.497   6.946 -0.2105 -0.5564  0.6886
  734MOL0     C96801   3.760   4.924   6.954  0.5645  0.2081  0.6305
  734MOL0     C96802   3.892   4.937   6.998  0.4642 -0.1032  0.0680
  734MOL0     O96803   4.178   4.852   7.043 -0.1984 -0.0447 -0.6116
  734MOL0     C96804   4.310   5.187   7.095  0.1376  0.1231 -0.0437
  734MOL0     C96805   4.415   5.255   7.164 -0.2171  0.2918  0.3967
  734MOL0     N96806   4.804   5.812   7.570 -0.2385 -0.1479  0.4519
  734MOL0     N96807   4.840   5.905   7.494  0.0904 -0.1471  0.0476
  734MOL0     C96808   4.910   6.645   6.663  0.0140 -0.3392 -0.6520
  734MOL0     C96809   5.034   6.700   6.620  0.4754  0.5904  0.6749
  734MOL0     C96810   5.417   6.797   6.441 -0.1216 -0.3008 -0.8615
  734MOL0     C96811   5.409   6.923   6.373  0.8918 -0.9049  0.9553
  734MOL0     C96812   5.519   6.969   6.297 -0.1689 -0.5308 -0.4131
  734MOL0     C96813   5.639   6.896   6.280  0.7257  0.2609 -0.2779
  734MOL0     O96814   5.738   6.927   6.196 -0.6450 -0.0208  0.1915
  734MOL0     C96815   5.754   7.063   6.152 -0.2098 -0.8372 -1.4158
  734MOL0     C96816   5.886   7.073   6.070 -0.1935  0.9130  0.2373
  734MOL0     C96817   5.887   6.984   5.939 -0.8338  0.3888  0.7859
  734MOL0     C96818   6.000   7.041   5.842  0.1914  0.1128 -1.4781
  734MOL0     C96819   6.126   6.980   5.885  0.3945 -0.7245  1.0396
  734MOL0     C96820   6.236   6.939   5.913 -0.3120 -0.6343 -0.1627
  734MOL0     C96821   5.644   6.789   6.366 -0.1002  0.9200  0.2117
  734MOL0     C96822   5.540   6.739   6.453  0.4999  0.0045  0.1354
  734MOL0     H96823   4.980   6.692   6.279 -4.3399 -2.1034 -1.2381
  734MOL0     H96824   4.775   6.579   6.351  1.7104  1.3510 -1.4139
  734MOL0     H96825   4.675   6.481   6.804 -0.2218 -3.5490  1.7547
  734MOL0     H96826   4.818   6.412   6.719  0.4688  2.9993  1.9981
  734MOL0     H96827   4.686   6.277   6.600  2.5863  2.9030 -0.8314
  734MOL0     H96828   4.528   6.353   6.666  0.0930 -0.1869  1.9542
  734MOL0     H96829   4.548   6.160   6.796  0.3227 -2.0567  2.7055
  734MOL0     H96830   4.616   6.287   6.900  0.8929 -0.5089  0.8953
  734MOL0     H96831   4.793   6.110   6.716  1.1412  3.1412 -0.8283
  734MOL0     H96832   4.834   6.201   6.859  1.5459 -3.3174  2.6308
  734MOL0     H96833   4.833   5.962   6.909  0.7695  0.8849 -2.7229
  734MOL0     H96834   4.663   5.955   6.897 -0.9768  0.4138  1.3563
  734MOL0     H96835   4.639   6.151   7.068  0.6576  0.2086  3.6976
  734MOL0     H96836   4.806   6.129   7.101 -1.1228  2.0216 -3.0803
  734MOL0     H96837   4.578   5.959   7.147  0.1024 -0.3497 -3.9787
  734MOL0     H96838   4.740   5.876   7.131  0.6498  0.7643  0.8884
  734MOL0     H96839   4.662   6.102   7.330  1.5171 -0.9608  0.3823
  734MOL0     H96840   4.834   6.058   7.298  1.2574  0.7943  1.0008
  734MOL0     H96841   4.553   5.797   7.361  1.7269 -0.7306 -1.7056
  734MOL0     H96842   4.515   5.633   7.565 -0.1842  0.4700  0.6165
  734MOL0     H96843   4.671   5.592   7.658  3.4998 -1.8093 -1.4938
  734MOL0     H96844   4.665   5.408   7.517 -2.0597  0.7028  0.5308
  734MOL0     H96845   4.782   5.528   7.453 -0.2076  0.0065 -2.3301
  734MOL0     H96846   4.499   5.481   7.336 -0.4213  0.1429  0.1434
  734MOL0     H96847   4.632   5.583   7.276  0.5889 -0.6340  0.4235
  734MOL0     H96848   4.777   5.400   7.250  0.6445 -1.0741  0.0297
  734MOL0     H96849   4.649   5.390   7.144  0.6808  0.3618 -0.5489
  734MOL0     H96850   4.588   4.990   7.298 -0.3207 -0.1375  0.7846
  734MOL0     H96851   4.410   4.875   7.192 -0.3741  0.6491  0.5470
  734MOL0     H96852   3.992   5.167   6.773 -0.2261 -1.6159 -1.2594
  734MOL0     H96853   3.760   5.130   6.698 -1.5919 -4.1222 -2.3473
  734MOL0     H96854   3.504   4.842   6.938  1.0159 -2.3990 -0.2674
  734MOL0     H96855   3.530   4.786   6.782 -1.9581 -2.1129  1.3677
  734MOL0     H96856   3.326   4.949   6.722  2.3935  0.2112 -0.3268
  734MOL0     H96857   3.310   4.963   6.892 -1.3275 -0.9441  0.4973
  734MOL0     H96858   3.263   4.749   6.939 -1.3037  5.9457  1.5185
  734MOL0     H96859   3.311   4.684   6.775 -1.1092 -1.2047  0.9519
  734MOL0     H96860   3.080   4.877   6.838  0.7839 -0.0570 -0.9814
  734MOL0     H96861   3.101   4.797   6.685  0.4832 -0.5362 -0.2784
  734MOL0     H96862   3.039   4.644   6.945  2.2612 -0.7829 -0.2008
  734MOL0     H96863   3.065   4.570   6.786 -2.2486  0.0712 -0.7238
  734MOL0     H96864   2.863   4.685   6.701 -0.3383 -3.6866 -1.0817
  734MOL0     H96865   2.859   4.767   6.862  0.0862 -1.7427  1.8721
  734MOL0     H96866   2.862   4.464   6.813  1.8431  0.9620  1.3383
  734MOL0     H96867   2.839   4.556   6.961  0.3753  0.4407 -0.1539
  734MOL0     H96868   2.648   4.521   6.727 -0.5686 -0.6121  0.5263
  734MOL0     H96869   2.647   4.675   6.815  0.2290  0.4792  1.1273
  734MOL0     H96870   3.695   4.856   7.007  0.1780 -1.1201 -1.4226
  734MOL0     H96871   3.918   4.875   7.083  0.0321  0.3305  0.5143
  734MOL0     H96872   4.220   5.233   7.056 -1.5843 -2.2035  0.9605
  734MOL0     H96873   4.409   5.363   7.156 -1.7300  0.1304 -1.3027
  734MOL0     H96874   4.899   6.628   6.770  1.9207  4.4631  0.5811
  734MOL0     H96875   5.102   6.735   6.697  2.1448 -1.6367  0.3134
  734MOL0     H96876   5.317   6.979   6.389  1.0436 -0.6784  1.0462
  734MOL0     H96877   5.493   7.059   6.243 -0.6917 -0.7451 -0.5223
  734MOL0     H96878   5.758   7.133   6.236 -2.0962 -1.0474 -1.1114
  734MOL0     H96879   5.667   7.080   6.089 -0.3820  1.4621 -0.6419
  734MOL0     H96880   5.916   7.176   6.047 -0.7159  1.0345  0.0821
  734MOL0     H96881   5.957   7.032   6.143 -0.4696 -0.6123 -0.3250
  734MOL0     H96882   5.794   7.014   5.891 -1.1119 -0.9500  0.4296
  734MOL0     H96883   5.902   6.875   5.943 -2.4186  0.1497  0.7720
  734MOL0     H96884   5.994   7.013   5.736  0.9962 -0.2856 -1.4285
  734MOL0     H96885   6.016   7.149   5.849  2.5011 -0.2707  0.4896
  734MOL0     H96886   6.329   6.890   5.932 -0.7566 -2.2432 -1.9361
  734MOL0     H96887   5.738   6.735   6.366  1.3038  3.2226 -0.7603
  734MOL0     H96888   5.562   6.648   6.508 -2.5760 -0.3797  0.9372
  735MOL0     O96889   4.249   0.057  10.564  0.0818  0.3441  0.6980
  735MOL0     C96890   4.262   0.151  10.648 -0.6231 -0.4979  0.9511
  735MOL0     O96891   4.160   0.218  10.703 -0.2705 -0.1449  0.0055
  735MOL0     C96892   4.036   0.217  10.639  1.1805  0.8747  0.3822
  735MOL0     C96893   3.952   0.098  10.637 -0.0755  0.9310 -0.1762
  735MOL0     C96894   3.822   0.104  10.581 -0.2609 -0.0941 -0.1633
  735MOL0     C96895   3.767   0.232  10.545 -0.3777  0.1316  0.2535
  735MOL0     O96896   3.641   0.260  10.505  0.8356  0.1083  0.8225
  735MOL0     C96897   3.537   0.160  10.525  0.5488 -0.0779 -0.0810
  735MOL0     C96898   3.414   0.247  10.565  0.0297 -0.2179 -0.0495
  735MOL0     C96899   3.440   0.320  10.698  0.6656  0.7512  1.1490
  735MOL0     C96900   3.298   0.360  10.754 -1.0921 -0.2087 -0.5396
  735MOL0     C96901   3.322   0.418  10.892  1.2616 -0.4509 -0.8783
  735MOL0     C96902   3.195   0.487  10.953  0.5947 -0.5717  0.3582
  735MOL0     C96903   3.211   0.568  11.086  0.1336 -0.2016  0.4063
  735MOL0     C96904   3.078   0.630  11.119  0.0075  0.6250 -0.1330
  735MOL0     N96905   3.050   0.644  11.262  0.1252  0.1047  0.0140
  735MOL0     C96906   3.124   0.723  11.335 -0.3433  0.0446 -0.5792
  735MOL0     C96907   3.075   0.711  11.464 -0.2536 -0.4118  0.2410
  735MOL0     C96908   3.135   0.785  11.582  0.9399 -0.0959 -0.7059
  735MOL0     C96909   3.273   0.847  11.571 -0.0057  0.2499 -0.1221
  735MOL0     C96910   3.281   0.975  11.490  0.4849  0.5163  0.0925
  735MOL0     C96911   3.435   1.008  11.471  0.0229 -0.9073  0.0301
  735MOL0     O96912   3.425   1.136  11.404  1.0143 -0.4344  0.0715
  735MOL0     C96913   3.478   1.260  11.453  0.6195 -0.1380 -0.3215
  735MOL0     C96914   3.395   1.365  11.429  0.2545 -0.5092 -0.3402
  735MOL0     C96915   3.435   1.492  11.475  0.1648  0.2071  0.3506
  735MOL0     C96916   3.561   1.514  11.535 -0.8815  0.8925  0.2727
  735MOL0     C96917   3.602   1.653  11.572  0.0532  0.5774 -0.4002
  735MOL0     O96918   3.516   1.759  11.534  0.1166 -0.0183 -0.0373
  735MOL0     C96919   3.536   1.880  11.584 -0.1154 -0.9850 -0.3933
  735MOL0     C96920   3.572   1.905  11.718  1.1901  0.8563  0.1349
  735MOL0     C96921   3.613   2.027  11.749 -0.6925 -0.6226 -0.1598
  735MOL0     C96922   3.616   2.133  11.657 -0.1339  0.1112 -0.3430
  735MOL0     O96923   3.665   2.253  11.710 -0.6587  0.7777  0.2607
  735MOL0     C96924   3.595   2.369  11.671 -0.4815  1.1325 -0.3021
  735MOL0     C96925   3.643   2.494  11.759 -0.6493 -0.2489  0.0431
  735MOL0     C96926   3.792   2.484  11.771  0.3831 -0.9087 -0.0022
  735MOL0     C96927   3.843   2.611  11.817 -0.6921 -1.3972 -1.1262
  735MOL0     C96928   3.855   2.725  11.716  0.0629  0.4065  0.6003
  735MOL0     C96929   3.909   2.862  11.762  0.5514 -0.8556 -0.2306
  735MOL0     C96930   4.047   2.851  11.835 -0.1441  1.0233  0.8202
  735MOL0     C96931   4.124   2.973  11.838  0.2878 -0.1358  0.5869
  735MOL0    Cl96932   4.168   3.045  11.673 -0.0595 -0.2928 -0.0025
  735MOL0     C96933   3.571   2.112  11.525  0.6676  0.1154  0.0318
  735MOL0     C96934   3.531   1.984  11.494  0.0311  0.4143 -0.0472
  735MOL0     O96935   3.715   1.665  11.623  0.2794  0.7613  0.2038
  735MOL0     C96936   3.641   1.406  11.563  0.1853  0.8670 -0.1721
  735MOL0     C96937   3.604   1.279  11.511  0.2125  0.3922  0.5206
  735MOL0     N96938   2.969   0.624  11.461  0.2655 -0.3493 -0.5974
  735MOL0     N96939   2.955   0.586  11.339  0.4927 -0.2478  0.1327
  735MOL0     C96940   3.849   0.337  10.549 -0.0264  0.2884 -0.5488
  735MOL0     C96941   3.981   0.332  10.586  0.1484 -0.5631 -0.0774
  735MOL0     C96942   4.390   0.189  10.706  0.0829 -0.2636  0.0298
  735MOL0     C96943   4.402   0.281  10.815 -0.8190 -0.4116  0.1957
  735MOL0     C96944   4.523   0.303  10.892 -0.1121  0.7752 -0.2113
  735MOL0     C96945   4.633   0.239  10.840 -0.8139 -0.3941  0.3509
  735MOL0     O96946   4.752   0.243  10.900 -0.2446 -0.1944 -0.0261
  735MOL0     C96947   4.779   0.316  11.023 -0.1028 -0.6391  0.0736
  735MOL0     C96948   4.704   0.276  11.151 -0.0395  1.0073 -0.0242
  735MOL0     C96949   4.680   0.404  11.234 -0.1855  0.3262 -0.0769
  735MOL0     C96950   4.682   0.372  11.381  1.0715 -0.2835  1.3591
  735MOL0     C96951   4.813   0.340  11.418  0.1660 -0.6492 -0.5534
  735MOL0     C96952   4.929   0.327  11.451 -0.2438 -0.3847 -0.7601
  735MOL0     C96953   4.625   0.155  10.735  0.1602  0.2384 -0.1336
  735MOL0     C96954   4.507   0.122  10.669  1.0361 -0.9187  0.0534
  735MOL0     H96955   3.986   0.007  10.684  0.9568  0.7034 -1.3145
  735MOL0     H96956   3.761   0.015  10.570 -0.3961 -0.2514  1.5481
  735MOL0     H96957   3.565   0.098  10.611  2.9623  2.0875  0.8461
  735MOL0     H96958   3.517   0.109  10.431 -0.7997  0.3834 -0.0657
  735MOL0     H96959   3.324   0.186  10.563  0.9035 -1.7113  1.7762
  735MOL0     H96960   3.399   0.324  10.489 -0.3341  0.8142  1.0421
  735MOL0     H96961   3.499   0.411  10.685  2.0388 -0.1081  1.1925
  735MOL0     H96962   3.482   0.242  10.762  2.0445  0.1558 -0.4067
  735MOL0     H96963   3.246   0.421  10.679  1.2661  0.4631 -1.7559
  735MOL0     H96964   3.236   0.271  10.762 -0.1371 -0.7577  1.0989
  735MOL0     H96965   3.403   0.492  10.886  1.3478 -0.1077  2.6215
  735MOL0     H96966   3.362   0.348  10.965  0.9907 -0.3202 -0.6024
  735MOL0     H96967   3.116   0.412  10.965  0.3686 -0.8712 -2.3030
  735MOL0     H96968   3.168   0.563  10.879  0.0284  1.9057  2.9280
  735MOL0     H96969   3.240   0.498  11.165  0.2586  2.3266  2.7276
  735MOL0     H96970   3.288   0.646  11.082 -0.4262  0.3519  0.2270
  735MOL0     H96971   2.996   0.569  11.079 -1.1908  1.9604  0.1851
  735MOL0     H96972   3.060   0.725  11.069 -2.1003  0.4947  0.2803
  735MOL0     H96973   3.209   0.783  11.302 -1.6819  1.3746 -1.7345
  735MOL0     H96974   3.140   0.713  11.664  0.3022 -1.3790 -1.7690
  735MOL0     H96975   3.058   0.852  11.619  0.1006 -1.3073 -0.2095
  735MOL0     H96976   3.337   0.777  11.516  0.0140  0.5642 -0.5041
  735MOL0     H96977   3.306   0.856  11.675 -3.1408 -0.5837  1.0649
  735MOL0     H96978   3.218   0.979  11.401 -2.2875 -1.0236  1.8378
  735MOL0     H96979   3.236   1.058  11.545 -0.2026 -0.5252  1.1635
  735MOL0     H96980   3.487   0.941  11.401  0.4127  0.9831 -1.5628
  735MOL0     H96981   3.491   1.009  11.565 -1.4445  1.7457  0.9490
  735MOL0     H96982   3.290   1.364  11.401 -0.0313 -0.5277  0.7082
  735MOL0     H96983   3.365   1.575  11.469 -0.6155 -0.2709  2.1208
  735MOL0     H96984   3.582   1.821  11.785 -3.0123 -0.8587 -1.0981
  735MOL0     H96985   3.658   2.048  11.845  2.0780  1.7934 -1.8273
  735MOL0     H96986   3.493   2.341  11.697  0.1750 -0.4864  0.7374
  735MOL0     H96987   3.597   2.392  11.564  0.3663 -1.5045 -0.9242
  735MOL0     H96988   3.607   2.482  11.861  1.6443  0.3332  0.9717
  735MOL0     H96989   3.617   2.588  11.710  1.0634  0.0037 -0.4450
  735MOL0     H96990   3.834   2.454  11.674 -2.1607  0.3624 -1.5868
  735MOL0     H96991   3.818   2.414  11.851 -0.8340  0.6628  1.8380
  735MOL0     H96992   3.787   2.641  11.906 -0.3976 -0.5783 -1.2082
  735MOL0     H96993   3.945   2.589  11.850 -0.5136 -0.0106 -0.7032
  735MOL0     H96994   3.760   2.727  11.663 -0.2309 -1.5716  0.9592
  735MOL0     H96995   3.927   2.703  11.636  1.0905  0.9056  1.3597
  735MOL0     H96996   3.837   2.913  11.827  0.2102 -0.8428 -0.6184
  735MOL0     H96997   3.927   2.918  11.670  2.1171 -0.0064  0.5474
  735MOL0     H96998   4.026   2.817  11.937 -2.5336 -0.9724 -0.2297
  735MOL0     H96999   4.106   2.773  11.787 -1.1803 -0.4530  1.8480
  735MOL0     H97000   4.218   2.954  11.891  1.0795  1.5403 -0.1315
  735MOL0     H97001   4.074   3.045  11.904 -0.4079 -0.3648  0.3151
  735MOL0     H97002   3.556   2.191  11.452 -0.6375 -1.5283 -1.5988
  735MOL0     H97003   3.493   1.967  11.394  0.0654 -1.8783  0.2734
  735MOL0     H97004   3.739   1.418  11.609  0.7021 -2.3730 -0.2283
  735MOL0     H97005   3.669   1.192  11.521  0.8494  0.6870 -0.8787
  735MOL0     H97006   3.816   0.436  10.517 -1.3052  0.0611 -0.0235
  735MOL0     H97007   4.035   0.426  10.576 -3.2681  1.6290  0.3792
  735MOL0     H97008   4.313   0.332  10.849 -1.0419  0.1693 -1.1657
  735MOL0     H97009   4.518   0.359  10.984 -1.2611 -0.5374  0.5714
  735MOL0     H97010   4.764   0.419  10.990  2.6169  0.6164  2.2593
  735MOL0     H97011   4.888   0.311  11.031 -0.1858 -1.0720  1.0871
  735MOL0     H97012   4.617   0.212  11.134  2.1491 -1.9821 -0.7461
  735MOL0     H97013   4.768   0.212  11.212 -1.1842 -1.5541 -1.3366
  735MOL0     H97014   4.581   0.438  11.203  0.6751  1.1892 -2.0560
  735MOL0     H97015   4.747   0.487  11.212  2.6718 -1.3618  1.6264
  735MOL0     H97016   4.648   0.461  11.435  1.0989  1.5194 -1.4077
  735MOL0     H97017   4.614   0.288  11.400 -0.6313  1.3978  3.0907
  735MOL0     H97018   5.026   0.321  11.497 -1.1758 -0.1562  1.3522
  735MOL0     H97019   4.719   0.101  10.720  1.4710  1.5070  2.8076
  735MOL0     H97020   4.505   0.055  10.584 -0.2698 -1.8846  0.7873
  736MOL0     O97021   3.870   8.746   6.824  0.1217 -0.5132  0.0954
  736MOL0     C97022   3.879   8.687   6.926  0.4161 -0.8128 -1.0677
  736MOL0     O97023   3.834   8.561   6.940  0.4331 -0.4193  0.6918
  736MOL0     C97024   3.769   8.501   6.835  0.3985 -0.0170  0.6315
  736MOL0     C97025   3.830   8.470   6.718 -0.1112  0.6404 -0.9631
  736MOL0     C97026   3.766   8.421   6.602  0.9490 -0.3723  0.2510
  736MOL0     C97027   3.624   8.398   6.612 -0.2267 -0.7183 -0.7036
  736MOL0     O97028   3.552   8.360   6.505  0.4870  0.4392  0.2270
  736MOL0     C97029   3.608   8.253   6.418  0.9469  0.5967 -0.2207
  736MOL0     C97030   3.513   8.196   6.307  0.1596 -0.4635 -0.2603
  736MOL0     C97031   3.382   8.148   6.373  0.0070 -0.0084 -0.3360
  736MOL0     C97032   3.389   8.045   6.495 -0.1315 -0.3881  0.5328
  736MOL0     C97033   3.277   7.947   6.532 -0.2296 -0.2086  0.1291
  736MOL0     C97034   3.132   8.000   6.504  0.1287 -0.4885 -0.0766
  736MOL0     C97035   3.022   7.896   6.530 -0.0279  0.2552 -0.0347
  736MOL0     C97036   3.022   7.846   6.683 -0.3836  0.0886  0.1919
  736MOL0     N97037   2.923   7.729   6.692 -0.4692 -0.7073 -0.6055
  736MOL0     C97038   2.885   7.667   6.808  0.3330  0.7196 -0.3386
  736MOL0     C97039   2.783   7.589   6.771  1.1091 -0.8572  0.5621
  736MOL0     C97040   2.696   7.508   6.858  0.1299  0.1012  0.4911
  736MOL0     C97041   2.591   7.592   6.935  0.1321  1.1307 -1.0154
  736MOL0     C97042   2.491   7.672   6.838  0.1534 -0.1723 -0.4208
  736MOL0     C97043   2.396   7.586   6.752 -0.5815 -0.7446 -0.2847
  736MOL0     O97044   2.277   7.562   6.831 -0.2451  0.2701 -0.6497
  736MOL0     C97045   2.193   7.461   6.798  0.2300 -0.0979 -0.3963
  736MOL0     C97046   2.189   7.402   6.670 -0.3052  0.6075  0.8897
  736MOL0     C97047   2.098   7.292   6.646 -0.9192  0.7708  0.5526
  736MOL0     C97048   2.015   7.248   6.743 -0.2492  0.1062  0.2734
  736MOL0     C97049   1.912   7.142   6.713  0.5039  0.3591 -0.0595
  736MOL0     O97050   1.847   7.089   6.822  0.5591  0.6117  0.2753
  736MOL0     C97051   1.726   7.026   6.804 -0.3857 -0.0729 -0.0917
  736MOL0     C97052   1.685   6.946   6.693  0.8744  0.0649  0.4817
  736MOL0     C97053   1.559   6.886   6.691  0.1348 -0.0546  0.7532
  736MOL0     C97054   1.464   6.904   6.793 -0.4572 -0.7813  0.1825
  736MOL0     O97055   1.342   6.837   6.810 -0.0106 -0.0855 -0.7780
  736MOL0     C97056   1.319   6.727   6.723 -0.3777 -0.2665 -0.3797
  736MOL0     C97057   1.187   6.672   6.751 -0.4612 -0.1665  0.5231
  736MOL0     C97058   1.089   6.789   6.741  0.1651  0.8307 -0.7058
  736MOL0     C97059   0.943   6.740   6.742 -0.7583 -0.2096  0.5609
  736MOL0     C97060   0.850   6.858   6.779  0.0470 -0.8457  0.2431
  736MOL0     C97061   0.739   6.797   6.861  0.3847 -0.0715  0.4493
  736MOL0     C97062   0.667   6.672   6.803  0.6884 -0.5358 -0.1428
  736MOL0     C97063   0.551   6.626   6.891  0.8185  0.2617 -0.1545
  736MOL0    Cl97064   0.618   6.552   7.036  0.2443 -0.3560  0.1736
  736MOL0     C97065   1.499   6.989   6.900  0.0287  1.0597 -0.4405
  736MOL0     C97066   1.629   7.044   6.900 -0.3951  0.5167  0.0376
  736MOL0     O97067   1.909   7.106   6.597 -0.3977 -0.4295 -0.0279
  736MOL0     C97068   2.012   7.315   6.868 -0.0086  0.6037  0.2473
  736MOL0     C97069   2.093   7.425   6.889  0.4923  0.1467  0.0982
  736MOL0     N97070   2.760   7.608   6.633  0.0076  0.3063 -0.5422
  736MOL0     N97071   2.844   7.686   6.590  0.6648  0.2394 -0.1487
  736MOL0     C97072   3.554   8.417   6.731 -0.4482 -0.2609 -0.1599
  736MOL0     C97073   3.625   8.475   6.838 -0.3551 -0.5793 -1.2680
  736MOL0     C97074   3.950   8.747   7.045 -1.0816  0.1189  0.9846
  736MOL0     C97075   3.979   8.672   7.163  1.0849 -0.5114  0.6317
  736MOL0     C97076   4.038   8.732   7.269 -0.2387  1.1305 -0.3431
  736MOL0     C97077   4.090   8.865   7.261 -0.3371 -0.4686 -0.3101
  736MOL0     O97078   4.149   8.937   7.359 -0.4843  0.6033  0.0265
  736MOL0     C97079   4.218   8.853   7.460  0.2458 -0.1513 -0.1009
  736MOL0     C97080   4.347   8.916   7.512  0.5464  0.5547  0.8372
  736MOL0     C97081   4.350   9.068   7.475 -0.2395 -0.2209  0.5361
  736MOL0     C97082   4.470   9.141   7.528 -0.6555 -0.0568  0.0397
  736MOL0     C97083   4.598   9.121   7.444  1.3981 -0.5220  0.9361
  736MOL0     C97084   4.688   9.116   7.356 -0.0247 -0.1149 -0.3523
  736MOL0     C97085   4.065   8.941   7.140  0.4450  0.6590 -0.4052
  736MOL0     C97086   3.990   8.880   7.034 -0.9776  0.0535 -1.1411
  736MOL0     H97087   3.937   8.479   6.703  0.2838  0.0109  1.1270
  736MOL0     H97088   3.819   8.413   6.507  0.6672  1.8379 -0.1445
  736MOL0     H97089   3.638   8.163   6.473 -0.5372 -1.0376 -1.8934
  736MOL0     H97090   3.691   8.301   6.366  2.5397 -1.8125 -0.1014
  736MOL0     H97091   3.553   8.106   6.261  0.0008 -0.7699  0.1919
  736MOL0     H97092   3.494   8.268   6.227 -2.6095 -0.9616 -0.1291
  736MOL0     H97093   3.333   8.109   6.284 -0.0427  0.9688 -0.7466
  736MOL0     H97094   3.325   8.235   6.408  1.0190  0.5807 -0.0925
  736MOL0     H97095   3.471   7.975   6.476  0.1798  0.1222 -0.0601
  736MOL0     H97096   3.412   8.108   6.581  0.8193  0.9686 -0.6606
  736MOL0     H97097   3.282   7.912   6.635  0.4834  1.0962  0.5671
  736MOL0     H97098   3.283   7.857   6.470 -4.3272 -0.7743  0.2768
  736MOL0     H97099   3.111   8.055   6.412  2.1648  1.0441  0.3064
  736MOL0     H97100   3.112   8.081   6.575  0.4845 -1.4812  1.2016
  736MOL0     H97101   2.922   7.934   6.509 -0.6200 -1.2017 -0.0020
  736MOL0     H97102   3.037   7.805   6.470 -0.7043 -0.3644  0.7091
  736MOL0     H97103   2.985   7.912   6.762  0.5860 -1.0391  1.6369
  736MOL0     H97104   3.123   7.815   6.710 -1.1115 -0.5597  2.4042
  736MOL0     H97105   2.923   7.682   6.908  2.2351 -0.3514 -0.8603
  736MOL0     H97106   2.772   7.459   6.919 -0.0935  1.3934  1.8667
  736MOL0     H97107   2.643   7.432   6.800 -2.2291  0.5352  1.9553
  736MOL0     H97108   2.645   7.666   6.994 -2.5008  3.7848 -1.6792
  736MOL0     H97109   2.528   7.536   7.004  2.4729  0.6107  0.8106
  736MOL0     H97110   2.434   7.749   6.891  0.0322 -1.5666  1.6069
  736MOL0     H97111   2.550   7.735   6.770 -1.6994  1.1491 -0.8632
  736MOL0     H97112   2.442   7.495   6.714 -0.1863 -0.1178 -1.3317
  736MOL0     H97113   2.369   7.629   6.655  2.1907 -2.7747 -2.0932
  736MOL0     H97114   2.248   7.440   6.587  1.7857 -1.2734  1.3961
  736MOL0     H97115   2.094   7.249   6.547 -2.5527  1.7768  0.1390
  736MOL0     H97116   1.747   6.923   6.607 -1.0912  0.9152 -1.2573
  736MOL0     H97117   1.559   6.821   6.605  0.9399 -0.2282  0.8787
  736MOL0     H97118   1.391   6.645   6.736 -1.0426 -0.4334  3.3725
  736MOL0     H97119   1.332   6.761   6.620 -1.4341 -1.8313 -1.0712
  736MOL0     H97120   1.191   6.623   6.849  2.3430 -0.0200  0.5436
  736MOL0     H97121   1.159   6.604   6.670 -0.2810  1.8397 -1.3311
  736MOL0     H97122   1.097   6.850   6.651  0.8072  4.7394  1.7372
  736MOL0     H97123   1.110   6.848   6.831  0.4188 -0.0887 -0.1462
  736MOL0     H97124   0.921   6.696   6.644  2.0309 -0.8601  0.1336
  736MOL0     H97125   0.933   6.660   6.816 -1.8241 -1.4594 -0.8649
  736MOL0     H97126   0.816   6.898   6.682  2.7300 -1.1884 -0.9368
  736MOL0     H97127   0.897   6.938   6.836  0.6672 -0.7350 -0.4073
  736MOL0     H97128   0.656   6.868   6.871 -0.1401 -0.0695 -2.8332
  736MOL0     H97129   0.780   6.785   6.962 -1.3188 -3.6339  0.8513
  736MOL0     H97130   0.635   6.699   6.702 -0.1659  0.1046  0.2848
  736MOL0     H97131   0.733   6.587   6.786  2.4632  0.4871  1.2903
  736MOL0     H97132   0.503   6.549   6.831 -2.2703  0.5136  1.7980
  736MOL0     H97133   0.475   6.701   6.915 -0.2069 -0.6641 -0.4254
  736MOL0     H97134   1.428   7.006   6.980  0.8876 -2.8097  1.4203
  736MOL0     H97135   1.657   7.098   6.990  0.5855 -0.8030  0.5589
  736MOL0     H97136   1.934   7.286   6.938 -0.1161  0.0022 -0.1145
  736MOL0     H97137   2.086   7.474   6.985 -1.0652 -2.5654  1.4909
  736MOL0     H97138   3.448   8.396   6.742 -0.2399 -0.4473  2.1175
  736MOL0     H97139   3.578   8.520   6.924  3.9940  3.0877 -0.4136
  736MOL0     H97140   3.940   8.571   7.173 -2.9573  0.9746  2.3071
  736MOL0     H97141   4.048   8.673   7.360 -0.0058 -0.2594 -1.2490
  736MOL0     H97142   4.234   8.747   7.434 -0.8155 -0.4560  0.4348
  736MOL0     H97143   4.144   8.847   7.540 -0.1713  2.1415 -0.2724
  736MOL0     H97144   4.351   8.915   7.621  0.6640 -3.3295  0.9358
  736MOL0     H97145   4.432   8.856   7.480  1.7109  1.8776  1.3398
  736MOL0     H97146   4.259   9.115   7.515 -0.7677 -0.2150 -0.6389
  736MOL0     H97147   4.357   9.074   7.366  4.0335  1.0977  0.6792
  736MOL0     H97148   4.446   9.247   7.515  1.5286  0.2870 -1.9129
  736MOL0     H97149   4.488   9.129   7.635 -3.6428 -1.4966  0.4783
  736MOL0     H97150   4.776   9.117   7.295  0.4872  3.3510  0.2537
  736MOL0     H97151   4.102   9.042   7.127  2.0882  0.0539 -0.7077
  736MOL0     H97152   3.974   8.940   6.945 -1.3989  1.2445 -0.2886
  737MOL0     O97153   8.006   0.367   7.655  1.1229  0.0730 -0.5464
  737MOL0     C97154   8.019   0.311   7.546  0.5864 -0.0072 -0.4538
  737MOL0     O97155   8.138   0.287   7.485  1.3257  0.0637  0.2711
  737MOL0     C97156   8.249   0.325   7.555  0.2993 -0.6744 -1.1495
  737MOL0     C97157   8.310   0.444   7.533 -0.2134 -0.5185  0.5963
  737MOL0     C97158   8.424   0.488   7.601  0.3040 -0.3226  1.0063
  737MOL0     C97159   8.475   0.406   7.703 -0.1950  0.1185 -0.3842
  737MOL0     O97160   8.586   0.450   7.762 -0.0273 -0.4616 -0.6155
  737MOL0     C97161   8.709   0.418   7.685 -0.5404  0.0073  0.4217
  737MOL0     C97162   8.825   0.472   7.764  0.0034  0.2924 -0.2979
  737MOL0     C97163   8.950   0.493   7.676  0.8034  0.0939 -1.1730
  737MOL0     C97164   9.078   0.512   7.768 -0.9467 -0.3636 -0.1570
  737MOL0     C97165   9.197   0.534   7.681 -0.1382 -0.5731  0.0558
  737MOL0     C97166   9.317   0.535   7.762  0.8164  0.5305  0.5564
  737MOL0     C97167   9.440   0.541   7.683 -0.6443  0.2514  0.5512
  737MOL0     C97168   9.564   0.518   7.768  0.9408  0.3426 -0.0540
  737MOL0     N97169   9.610   0.637   7.848  0.0377  0.5766  0.0302
  737MOL0     C97170   9.534   0.726   7.938 -0.3427 -0.0492  0.4009
  737MOL0     C97171   9.621   0.820   7.964 -0.2528  0.5472 -0.4506
  737MOL0     C97172   9.618   0.948   8.053  0.6648  0.1545 -0.6105
  737MOL0     C97173   9.497   0.936   8.147 -0.4072 -0.4410 -0.1705
  737MOL0     C97174   9.516   0.848   8.276 -0.0904 -0.7802  0.1562
  737MOL0     C97175   9.379   0.811   8.329  0.5608  0.0721 -0.3069
  737MOL0     O97176   9.350   0.693   8.264 -0.3472  0.3350 -0.1346
  737MOL0     C97177   9.217   0.641   8.256  0.3181 -0.0349 -0.1997
  737MOL0     C97178   9.095   0.716   8.277 -0.0912  0.1280 -1.3506
  737MOL0     C97179   8.971   0.651   8.247  0.0251  0.2542  0.4583
  737MOL0     C97180   8.966   0.517   8.191  0.4294  0.2364  0.3121
  737MOL0     C97181   8.837   0.448   8.175  0.3154 -0.0463 -0.7380
  737MOL0     O97182   8.725   0.522   8.174  1.0481  0.1540 -0.7575
  737MOL0     C97183   8.600   0.464   8.177  0.0642  0.0412  0.2778
  737MOL0     C97184   8.496   0.542   8.237 -0.4546  0.1642  0.2518
  737MOL0     C97185   8.365   0.492   8.233 -0.5575 -0.2989  0.3135
  737MOL0     C97186   8.337   0.367   8.192 -0.1384 -0.5831  0.4139
  737MOL0     O97187   8.212   0.318   8.208  0.0852  0.7587 -0.1302
  737MOL0     C97188   8.125   0.336   8.100  0.0119 -0.0294 -0.4759
  737MOL0     C97189   7.988   0.260   8.136  0.5429 -0.2480  0.0358
  737MOL0     C97190   7.889   0.284   8.019 -0.8626 -0.0963  0.0985
  737MOL0     C97191   7.754   0.215   8.064 -0.5501  0.3545  0.0029
  737MOL0     C97192   7.635   0.260   7.989  0.0828  0.0738 -0.0011
  737MOL0     C97193   7.508   0.198   8.040  0.3286  0.5644  0.5716
  737MOL0     C97194   7.384   0.249   7.970 -0.4864 -0.9112  0.2426
  737MOL0     C97195   7.277   0.141   7.953  0.9116  0.2356 -0.5986
  737MOL0    Cl97196   7.122   0.223   7.932  0.2283 -0.4388  0.1904
  737MOL0     C97197   8.429   0.299   8.128  0.2274  0.2447  0.4940
  737MOL0     C97198   8.561   0.339   8.117 -0.0556  0.2179  0.2553
  737MOL0     O97199   8.841   0.328   8.148 -0.5984 -0.4693 -0.3695
  737MOL0     C97200   9.085   0.460   8.158 -0.5832  0.5690 -0.4822
  737MOL0     C97201   9.209   0.518   8.200 -0.1065 -0.3543  0.1911
  737MOL0     N97202   9.737   0.797   7.901  0.0245  0.0072  0.0135
  737MOL0     N97203   9.734   0.690   7.835  0.4576  0.4491  0.0781
  737MOL0     C97204   8.402   0.296   7.748 -0.2187  0.0528  0.0058
  737MOL0     C97205   8.294   0.258   7.670 -1.0969  0.1659 -0.0494
  737MOL0     C97206   7.888   0.268   7.483 -0.8849 -0.5949 -0.4181
  737MOL0     C97207   7.886   0.173   7.378 -0.1259  0.0710  0.6289
  737MOL0     C97208   7.765   0.138   7.317 -0.2011 -0.1556 -0.0712
  737MOL0     C97209   7.648   0.206   7.353 -0.2208 -0.6384 -0.7160
  737MOL0     O97210   7.526   0.186   7.280  0.0137 -0.4919 -0.3599
  737MOL0     C97211   7.524   0.102   7.172  1.0314 -0.1985  0.0906
  737MOL0     C97212   7.379   0.085   7.126  0.3520 -0.2235  0.2268
  737MOL0     C97213   7.282   0.062   7.245  0.0839  0.6325  0.3687
  737MOL0     C97214   7.139   0.043   7.203  0.4027 -0.1843  0.3015
  737MOL0     C97215   7.090   0.159   7.130  0.3689 -0.5794 -0.1143
  737MOL0     C97216   7.066   0.261   7.064 -0.6205  0.0447 -0.1490
  737MOL0     C97217   7.646   0.293   7.466 -0.0806 -0.2497  0.3772
  737MOL0     C97218   7.764   0.329   7.533  0.6856  0.4877 -0.4094
  737MOL0     H97219   8.266   0.510   7.459 -1.0576  0.9383  2.3270
  737MOL0     H97220   8.482   0.576   7.572 -3.3585  2.9252  2.6508
  737MOL0     H97221   8.708   0.470   7.589  4.1111  3.3695  1.8149
  737MOL0     H97222   8.722   0.310   7.688 -0.6928 -0.0215  0.0098
  737MOL0     H97223   8.850   0.409   7.850  1.7938  0.6981 -0.4925
  737MOL0     H97224   8.805   0.577   7.792  1.6746  0.7696 -0.8036
  737MOL0     H97225   8.933   0.583   7.617 -0.6800 -0.8597 -2.2718
  737MOL0     H97226   8.972   0.401   7.620 -1.4528 -2.3193  1.5673
  737MOL0     H97227   9.057   0.600   7.830 -1.2217  0.3452 -1.2207
  737MOL0     H97228   9.109   0.430   7.834  1.4046 -0.9619 -1.8670
  737MOL0     H97229   9.192   0.624   7.620 -1.3761  0.9617  2.2657
  737MOL0     H97230   9.204   0.447   7.615 -1.1510 -0.2105 -0.5545
  737MOL0     H97231   9.318   0.443   7.821 -2.1360 -0.0240 -0.1075
  737MOL0     H97232   9.318   0.622   7.829 -0.2995  1.0211 -0.0428
  737MOL0     H97233   9.435   0.453   7.618  1.0261  0.6099 -0.1357
  737MOL0     H97234   9.443   0.641   7.639  0.8685  0.6093  1.3997
  737MOL0     H97235   9.645   0.472   7.711 -0.0479 -1.2265 -0.2625
  737MOL0     H97236   9.544   0.455   7.856  0.7155  0.4487 -0.0298
  737MOL0     H97237   9.440   0.707   7.988  0.8387  0.6330  3.1176
  737MOL0     H97238   9.598   1.034   7.988 -2.8278  0.7584  1.0423
  737MOL0     H97239   9.707   0.967   8.115 -1.5519 -2.0002  3.6872
  737MOL0     H97240   9.422   0.906   8.073 -0.6339 -0.4480  0.0628
  737MOL0     H97241   9.470   1.035   8.184 -2.8420 -0.4226 -1.7177
  737MOL0     H97242   9.561   0.753   8.244 -1.9136 -1.4855 -0.4114
  737MOL0     H97243   9.574   0.881   8.364 -1.1783 -1.2038  1.0578
  737MOL0     H97244   9.302   0.888   8.321 -1.1570 -1.5785 -0.3558
  737MOL0     H97245   9.385   0.780   8.434 -2.3984 -0.9656 -0.3550
  737MOL0     H97246   9.087   0.810   8.329 -2.6371 -0.5274 -0.4064
  737MOL0     H97247   8.887   0.718   8.255 -0.7478 -0.4628 -1.2176
  737MOL0     H97248   8.527   0.638   8.276 -0.8003  0.5234 -0.3496
  737MOL0     H97249   8.297   0.558   8.286  0.1233 -0.2032  1.0790
  737MOL0     H97250   8.163   0.302   8.003 -2.9014 -0.0510 -1.7074
  737MOL0     H97251   8.102   0.442   8.091  0.0826  0.0665  0.4458
  737MOL0     H97252   7.958   0.311   8.228  3.5934  1.2777  0.3058
  737MOL0     H97253   8.006   0.154   8.152 -0.2920 -0.9833 -3.1592
  737MOL0     H97254   7.920   0.243   7.922  0.4514 -3.8397  1.9339
  737MOL0     H97255   7.868   0.391   8.013 -0.3928  0.0131  0.3764
  737MOL0     H97256   7.765   0.107   8.048 -4.9219  0.2240 -4.3539
  737MOL0     H97257   7.727   0.221   8.170 -1.0193  1.4123 -0.1704
  737MOL0     H97258   7.641   0.229   7.884 -1.5157 -3.0478  0.6974
  737MOL0     H97259   7.626   0.368   8.001  1.5262  0.2003  0.0390
  737MOL0     H97260   7.506   0.208   8.149 -0.5049 -0.9900  0.7275
  737MOL0     H97261   7.522   0.094   8.010  2.3039  1.5832 -2.5433
  737MOL0     H97262   7.350   0.335   8.029 -0.4589 -1.2778  0.7993
  737MOL0     H97263   7.406   0.277   7.867 -2.2191  0.7876  0.2646
  737MOL0     H97264   7.280   0.072   8.038 -2.3671 -1.2643 -1.5102
  737MOL0     H97265   7.304   0.086   7.862 -1.3709  0.1355 -1.2813
  737MOL0     H97266   8.402   0.207   8.076 -0.1553  0.9105 -0.4983
  737MOL0     H97267   8.634   0.275   8.069 -1.9236 -2.4192  0.7548
  737MOL0     H97268   9.092   0.364   8.107 -1.8704  0.4985 -0.5696
  737MOL0     H97269   9.307   0.475   8.180 -0.2749 -0.4871 -0.3423
  737MOL0     H97270   8.440   0.235   7.830 -1.4376 -0.7325  0.0121
  737MOL0     H97271   8.232   0.176   7.706 -0.4970 -0.1096  0.3819
  737MOL0     H97272   7.973   0.123   7.337 -0.5456  0.7293 -1.1630
  737MOL0     H97273   7.771   0.065   7.236  2.1455  0.9593 -1.0138
  737MOL0     H97274   7.554  -0.000   7.198  0.1725 -1.5510 -3.5679
  737MOL0     H97275   7.584   0.142   7.089 -1.0076  0.7339 -1.0097
  737MOL0     H97276   7.344   0.179   7.082 -1.9220 -1.3321 -0.4869
  737MOL0     H97277   7.370   0.010   7.047  2.5119 -0.6060  0.2922
  737MOL0     H97278   7.290   0.145   7.316 -2.4348  0.0834  1.3810
  737MOL0     H97279   7.307  -0.033   7.293  1.4582 -0.1414 -1.7477
  737MOL0     H97280   7.136  -0.042   7.135  3.7913  3.4466 -5.1136
  737MOL0     H97281   7.071   0.025   7.287 -1.2098  0.7215 -0.7501
  737MOL0     H97282   7.066   0.355   7.012 -0.5544  1.0828  1.6279
  737MOL0     H97283   7.549   0.332   7.494 -0.7665 -1.3700 -0.3572
  737MOL0     H97284   7.763   0.402   7.613 -0.5252  2.0657 -1.7819
  738MOL0     O97285  10.353   8.105  10.897 -0.2661 -0.3616  0.3823
  738MOL0     C97286  10.428   8.168  10.976  0.2703 -0.1354  0.1043
  738MOL0     O97287  10.391   8.240  11.088 -0.8053 -0.0252 -0.2974
  738MOL0     C97288  10.271   8.242  11.151 -0.9621  0.0354  1.3720
  738MOL0     C97289  10.250   8.350  11.238 -0.4441 -0.4220  0.4376
  738MOL0     C97290  10.128   8.368  11.298 -0.1968  0.7104 -1.0681
  738MOL0     C97291  10.024   8.275  11.279 -0.0073 -0.8187  0.0437
  738MOL0     O97292   9.906   8.304  11.351 -0.7033  0.4323 -0.4984
  738MOL0     C97293   9.780   8.248  11.289 -0.8559  0.1474 -0.3885
  738MOL0     C97294   9.659   8.318  11.368 -0.3419 -0.5275 -0.1284
  738MOL0     C97295   9.522   8.269  11.327  0.1417 -0.3280 -1.1510
  738MOL0     C97296   9.406   8.306  11.425 -0.1807 -0.0505 -0.3495
  738MOL0     C97297   9.270   8.264  11.373 -0.1961  0.0627  0.8254
  738MOL0     C97298   9.167   8.251  11.483 -0.2220  0.2854 -0.5826
  738MOL0     C97299   9.201   8.159  11.612  0.4668  0.0732  0.0004
  738MOL0     C97300   9.077   8.101  11.685 -0.3450  0.2536 -1.0463
  738MOL0     N97301   9.002   8.200  11.759  0.2236 -0.5768  0.6122
  738MOL0     C97302   8.886   8.262  11.726 -0.6934  0.4231  0.6919
  738MOL0     C97303   8.870   8.362  11.821  0.3840 -0.1824  0.2376
  738MOL0     C97304   8.764   8.469  11.821  0.1340  0.4020 -0.1636
  738MOL0     C97305   8.638   8.447  11.905  0.8937  0.5888  0.8852
  738MOL0     C97306   8.552   8.320  11.872  0.3133 -1.2451 -0.7796
  738MOL0     C97307   8.455   8.348  11.753  0.4136 -0.2133  0.4577
  738MOL0     O97308   8.322   8.360  11.806 -0.2589  0.8141  0.7187
  738MOL0     C97309   8.227   8.416  11.718 -0.2187 -0.2411  0.1742
  738MOL0     C97310   8.100   8.435  11.776  0.3282 -0.6443 -0.5117
  738MOL0     C97311   7.998   8.497  11.705 -0.3341  0.2726 -0.3214
  738MOL0     C97312   8.020   8.557  11.576  0.0009 -0.3697 -0.3134
  738MOL0     C97313   7.908   8.621  11.504  0.1828 -0.6974  0.2322
  738MOL0     O97314   7.791   8.631  11.572  0.1023  0.1884 -0.4199
  738MOL0     C97315   7.684   8.686  11.500  0.0577  0.3584 -0.3318
  738MOL0     C97316   7.673   8.820  11.488 -0.4038  0.4633 -1.2161
  738MOL0     C97317   7.569   8.878  11.423  0.4651 -0.5642  0.8137
  738MOL0     C97318   7.471   8.805  11.365  0.2049 -1.0257  0.1596
  738MOL0     O97319   7.368   8.875  11.299 -0.8134 -0.6862 -0.1109
  738MOL0     C97320   7.254   8.802  11.255 -0.4736 -1.4902  0.8283
  738MOL0     C97321   7.154   8.818  11.370 -0.9960  0.2118 -0.3358
  738MOL0     C97322   7.025   8.762  11.312  0.0429  0.4892 -0.0430
  738MOL0     C97323   6.955   8.857  11.210  0.1043  0.6727 -0.1331
  738MOL0     C97324   6.829   8.795  11.145 -0.2438  0.1977 -0.3370
  738MOL0     C97325   6.717   8.758  11.259 -0.9947 -0.5344  0.4267
  738MOL0     C97326   6.577   8.722  11.197  0.3644 -0.5120  0.2456
  738MOL0     C97327   6.477   8.737  11.308  0.3571  0.7209 -0.1732
  738MOL0    Cl97328   6.321   8.700  11.221  0.0540 -0.5759 -0.1133
  738MOL0     C97329   7.483   8.665  11.384  0.5519  0.0352  0.1054
  738MOL0     C97330   7.582   8.600  11.454 -0.0469  0.5355  1.0975
  738MOL0     O97331   7.926   8.648  11.384  0.5261 -0.8160  0.5629
  738MOL0     C97332   8.148   8.549  11.529 -0.0099  0.3285 -0.3154
  738MOL0     C97333   8.253   8.478  11.590 -1.4289 -0.2884 -0.2371
  738MOL0     N97334   8.980   8.365  11.901 -0.1898 -0.1160 -0.1582
  738MOL0     N97335   9.059   8.269  11.866  0.1738  0.7456 -0.3070
  738MOL0     C97336  10.041   8.162  11.198 -0.1450 -0.4191  0.7563
  738MOL0     C97337  10.165   8.148  11.128  0.8945 -0.3379  0.7040
  738MOL0     C97338  10.576   8.150  10.943  0.6467  0.7561 -0.2413
  738MOL0     C97339  10.617   8.053  10.844 -0.2374 -0.0397  0.9272
  738MOL0     C97340  10.754   8.057  10.801  0.1311  0.2536 -0.3198
  738MOL0     C97341  10.849   8.132  10.873  0.6863  0.0889  0.0020
  738MOL0     O97342  10.982   8.134  10.832  0.1782  0.4714 -0.7391
  738MOL0     C97343  11.027   8.045  10.737 -0.5124  0.2345  0.2160
  738MOL0     C97344  11.177   8.018  10.746 -0.5893  0.6756  0.1146
  738MOL0     C97345  11.263   8.145  10.749 -0.1393 -0.5780 -0.4304
  738MOL0     C97346  11.418   8.101  10.746  0.3228  0.5164 -0.3421
  738MOL0     C97347  11.483   8.165  10.862  0.0997 -0.3224 -0.2979
  738MOL0     C97348  11.522   8.233  10.956 -0.2349  0.3344  0.7639
  738MOL0     C97349  10.807   8.207  10.980  0.2043 -0.5284  1.1650
  738MOL0     C97350  10.670   8.219  11.016 -0.3132  0.5281 -0.1146
  738MOL0     H97351  10.328   8.424  11.254  1.1243 -1.5101 -1.6790
  738MOL0     H97352  10.115   8.456  11.360 -0.7343  0.4914 -0.8648
  738MOL0     H97353   9.772   8.141  11.308 -0.3452 -0.0942 -1.4757
  738MOL0     H97354   9.771   8.280  11.185 -0.5004  3.7962  0.5668
  738MOL0     H97355   9.657   8.426  11.347 -0.7471  0.0465  2.4940
  738MOL0     H97356   9.679   8.298  11.473  3.4759  0.4491 -0.5228
  738MOL0     H97357   9.525   8.159  11.329  1.5837 -0.3271  1.9320
  738MOL0     H97358   9.496   8.292  11.224 -0.1460 -1.5618 -1.3713
  738MOL0     H97359   9.420   8.253  11.520 -1.5910  2.3699  1.3090
  738MOL0     H97360   9.403   8.410  11.460 -1.1206  0.7269 -2.5622
  738MOL0     H97361   9.277   8.170  11.318  0.9067 -1.1622  2.9279
  738MOL0     H97362   9.234   8.349  11.313 -0.8136  1.2754  2.8310
  738MOL0     H97363   9.078   8.206  11.439  0.2406 -0.5960 -0.6276
  738MOL0     H97364   9.152   8.353  11.522 -3.1486  0.4781 -1.9117
  738MOL0     H97365   9.261   8.076  11.573  0.2757  0.0384 -0.2251
  738MOL0     H97366   9.267   8.208  11.684 -0.9643  0.6095  0.9999
  738MOL0     H97367   9.125   8.040  11.762  1.9915  3.9891  0.7413
  738MOL0     H97368   9.006   8.052  11.618  0.0460  0.2935 -1.4931
  738MOL0     H97369   8.825   8.243  11.638  1.0942  2.5503 -1.1376
  738MOL0     H97370   8.719   8.479  11.721 -2.0455  0.0214  0.7258
  738MOL0     H97371   8.821   8.561  11.841 -1.7540  1.4488  0.6120
  738MOL0     H97372   8.572   8.534  11.903 -1.4458 -1.0936  0.0459
  738MOL0     H97373   8.675   8.437  12.008  1.4329 -1.6255  0.5348
  738MOL0     H97374   8.617   8.238  11.839  2.7325 -1.1542  3.1375
  738MOL0     H97375   8.502   8.294  11.966  1.2335  0.3661  0.1936
  738MOL0     H97376   8.460   8.262  11.686 -1.0729 -1.4464  1.8600
  738MOL0     H97377   8.485   8.441  11.704 -0.5429  0.0425  0.3505
  738MOL0     H97378   8.089   8.398  11.878  0.9918  0.3206 -0.0732
  738MOL0     H97379   7.902   8.509  11.754 -0.9389  1.5640 -1.7099
  738MOL0     H97380   7.752   8.882  11.530 -0.7365 -1.3855  2.6236
  738MOL0     H97381   7.568   8.986  11.413 -0.0583 -0.7142 -1.0940
  738MOL0     H97382   7.278   8.696  11.241 -1.2466 -1.5709  0.0020
  738MOL0     H97383   7.222   8.846  11.160 -2.2301 -1.8441  1.2192
  738MOL0     H97384   7.137   8.920  11.405 -0.7632 -0.1262  0.7913
  738MOL0     H97385   7.188   8.752  11.450  1.5579 -1.2911 -2.4942
  738MOL0     H97386   6.956   8.737  11.393  0.1677  0.7938  0.1585
  738MOL0     H97387   7.050   8.665  11.269  0.8577  0.6299  0.0961
  738MOL0     H97388   6.923   8.952  11.255  0.8958 -0.3483  2.7999
  738MOL0     H97389   7.022   8.880  11.127 -0.1186 -1.9555 -1.1425
  738MOL0     H97390   6.881   8.718  11.087  2.2954  1.6464 -0.1583
  738MOL0     H97391   6.777   8.857  11.072 -0.7014  2.3920  1.7488
  738MOL0     H97392   6.700   8.851  11.313 -0.7114  0.2539 -0.7916
  738MOL0     H97393   6.752   8.677  11.324 -1.7948 -1.2099  0.0340
  738MOL0     H97394   6.549   8.784  11.111  0.8477  0.8440  1.0351
  738MOL0     H97395   6.575   8.620  11.157  2.8086 -0.3133 -0.5310
  738MOL0     H97396   6.463   8.838  11.347 -2.7354 -0.1638  1.2996
  738MOL0     H97397   6.508   8.667  11.387 -0.3141 -0.5626 -1.0042
  738MOL0     H97398   7.405   8.595  11.353 -0.0254 -0.5087  2.6057
  738MOL0     H97399   7.593   8.492  11.465  3.3097  0.5363 -0.7577
  738MOL0     H97400   8.175   8.589  11.432  3.0041  1.3906  0.8265
  738MOL0     H97401   8.350   8.486  11.543 -0.7844  2.0091  1.3291
  738MOL0     H97402   9.961   8.089  11.189  0.5779 -0.9767 -2.2072
  738MOL0     H97403  10.181   8.067  11.058  2.8712  0.6328 -0.0676
  738MOL0     H97404  10.549   7.996  10.781 -1.9177  1.9818  0.7812
  738MOL0     H97405  10.773   8.013  10.704  0.5438 -0.3010  0.0051
  738MOL0     H97406  11.002   8.092  10.641 -0.7361  0.3862  0.3482
  738MOL0     H97407  10.977   7.949  10.752  1.0354 -0.7683 -0.6764
  738MOL0     H97408  11.205   7.962  10.836  2.9323 -0.0501 -1.2740
  738MOL0     H97409  11.211   7.953  10.665  1.5140  1.0146  0.6654
  738MOL0     H97410  11.250   8.208  10.837  0.6399 -0.1336 -0.6218
  738MOL0     H97411  11.238   8.211  10.665 -1.4452  3.2313  2.6774
  738MOL0     H97412  11.425   7.992  10.755  3.1146  0.5269 -1.2704
  738MOL0     H97413  11.473   8.128  10.655  3.8115  0.3172  1.5019
  738MOL0     H97414  11.533   8.300  11.040 -0.8656  2.4378 -0.7498
  738MOL0     H97415  10.883   8.264  11.032  2.6159 -0.6145 -1.9988
  738MOL0     H97416  10.645   8.267  11.110 -2.0393 -2.2816  1.0008
  739MOL0     O97417   3.713  10.582   2.079  0.5261 -0.2183 -0.3052
  739MOL0     C97418   3.825  10.619   2.110  0.3422 -0.0492 -1.1373
  739MOL0     O97419   3.853  10.687   2.229 -0.4052 -0.0975  0.0200
  739MOL0     C97420   3.761  10.699   2.328 -0.2024 -0.3750 -0.1052
  739MOL0     C97421   3.814  10.678   2.452 -0.0676 -0.2007  0.3360
  739MOL0     C97422   3.737  10.688   2.571 -0.2556  0.5823  0.1766
  739MOL0     C97423   3.601  10.732   2.565 -1.1425 -0.1233  0.2959
  739MOL0     O97424   3.514  10.737   2.673  0.6566  0.1789 -0.4539
  739MOL0     C97425   3.556  10.682   2.803  1.0167 -0.5575 -0.6857
  739MOL0     C97426   3.440  10.696   2.903 -0.3414 -0.4579 -0.5718
  739MOL0     C97427   3.467  10.602   3.026  0.4982  0.7504 -0.4983
  739MOL0     C97428   3.339  10.581   3.107 -0.5277  0.5886  0.0703
  739MOL0     C97429   3.340  10.452   3.184  0.1091 -0.1761 -0.6064
  739MOL0     C97430   3.198  10.422   3.249  0.6294 -0.4711 -0.0528
  739MOL0     C97431   3.193  10.282   3.316  0.4855  0.6691 -0.0687
  739MOL0     C97432   3.073  10.201   3.272 -0.0057  0.7483  0.2082
  739MOL0     N97433   2.947  10.279   3.303  0.0828  0.1693 -0.4204
  739MOL0     C97434   2.914  10.340   3.419  0.3090  0.8537 -0.4362
  739MOL0     C97435   2.783  10.385   3.392 -0.3009  0.1798 -0.4058
  739MOL0     C97436   2.695  10.469   3.482 -0.0401 -0.6568 -0.8514
  739MOL0     C97437   2.749  10.615   3.477 -0.2350  0.2157 -0.2154
  739MOL0     C97438   2.698  10.698   3.596 -0.5481  0.2537 -0.1970
  739MOL0     C97439   2.756  10.843   3.602  0.8161 -0.6273  0.6931
  739MOL0     O97440   2.730  10.910   3.477  0.9674 -0.2558 -1.0418
  739MOL0     C97441   2.775  11.039   3.452 -0.5958  0.1602 -0.4825
  739MOL0     C97442   2.766  11.083   3.320  1.7868 -0.2839  0.0974
  739MOL0     C97443   2.811  11.213   3.296  0.5399 -0.2395 -0.3745
  739MOL0     C97444   2.867  11.300   3.397  0.1525  0.0196  0.4151
  739MOL0     C97445   2.916  11.437   3.379 -0.1493  0.9569  0.0739
  739MOL0     O97446   2.932  11.468   3.251  0.3064  0.3721 -0.0828
  739MOL0     C97447   2.975  11.597   3.217  0.1544  0.5436  0.2959
  739MOL0     C97448   3.115  11.630   3.222 -0.4936 -0.0851  0.0640
  739MOL0     C97449   3.168  11.751   3.183  0.7210 -0.2990  0.4830
  739MOL0     C97450   3.072  11.849   3.142 -0.0137 -0.3664 -0.4350
  739MOL0     O97451   3.104  11.982   3.118 -0.0649 -0.3770 -0.1997
  739MOL0     C97452   3.238  12.019   3.134  1.4331 -0.3588  0.3033
  739MOL0     C97453   3.277  12.167   3.115 -0.8552 -0.6315  0.2462
  739MOL0     C97454   3.262  12.206   2.970 -0.2028 -0.1411 -0.5686
  739MOL0     C97455   3.315  12.345   2.946  0.3385 -0.1532 -0.6292
  739MOL0     C97456   3.309  12.394   2.807  0.7817  0.0275 -0.2309
  739MOL0     C97457   3.361  12.542   2.803  0.7681 -0.1312  0.7883
  739MOL0     C97458   3.512  12.550   2.788 -0.1632  0.5853  0.1152
  739MOL0     C97459   3.556  12.697   2.756 -0.3881  0.8113  0.7320
  739MOL0    Cl97460   3.728  12.718   2.782 -0.0663  0.1514 -0.3205
  739MOL0     C97461   2.938  11.828   3.131  0.3016  0.3479 -1.0897
  739MOL0     C97462   2.890  11.698   3.171 -0.4614 -0.2092 -0.4039
  739MOL0     O97463   2.956  11.504   3.479  0.2769 -0.2291 -0.8914
  739MOL0     C97464   2.881  11.244   3.531 -0.6013 -0.1333  0.6722
  739MOL0     C97465   2.826  11.119   3.550 -0.4673  0.2298 -0.3944
  739MOL0     N97466   2.753  10.353   3.260 -0.3900  0.3049  0.3101
  739MOL0     N97467   2.855  10.296   3.209  0.5318  0.0461 -0.3459
  739MOL0     C97468   3.543  10.742   2.437  0.2792 -0.2411 -0.1470
  739MOL0     C97469   3.615  10.724   2.328 -0.0076  0.1825 -0.0526
  739MOL0     C97470   3.944  10.594   2.026 -0.1719  1.0257  0.1197
  739MOL0     C97471   4.061  10.663   2.046  0.4260  0.2819  0.0895
  739MOL0     C97472   4.181  10.619   1.983  0.1335  0.1038  0.3133
  739MOL0     C97473   4.182  10.514   1.891 -0.3605 -1.1127  0.5847
  739MOL0     O97474   4.304  10.484   1.838  0.1270  0.0509 -0.4898
  739MOL0     C97475   4.325  10.360   1.772  0.0393 -0.7347  1.3110
  739MOL0     C97476   4.473  10.340   1.732 -0.2138 -0.1577  0.2646
  739MOL0     C97477   4.523  10.418   1.610 -0.2554  0.7046  0.0290
  739MOL0     C97478   4.485  10.364   1.471 -0.5641  0.0360 -0.7973
  739MOL0     C97479   4.569  10.245   1.443  0.6112  0.0783 -0.5399
  739MOL0     C97480   4.649  10.156   1.424 -0.0317 -0.2699  0.6266
  739MOL0     C97481   4.063  10.459   1.853  0.5012  0.0791  0.0430
  739MOL0     C97482   3.940  10.488   1.928 -0.6686  0.4698  1.2940
  739MOL0     H97483   3.920  10.651   2.449 -0.0932 -0.3963 -3.0383
  739MOL0     H97484   3.780  10.677   2.670  0.9096 -0.3557 -0.4079
  739MOL0     H97485   3.645  10.731   2.845 -0.8002  0.4274  2.3351
  739MOL0     H97486   3.569  10.575   2.788 -0.6724 -0.5777 -2.3651
  739MOL0     H97487   3.344  10.670   2.858 -0.2708 -2.3463  0.2499
  739MOL0     H97488   3.426  10.796   2.944 -0.4238  0.3997 -2.6041
  739MOL0     H97489   3.554  10.641   3.080  0.6605  2.0512 -1.6479
  739MOL0     H97490   3.499  10.507   2.982 -0.4269  1.4566 -2.8701
  739MOL0     H97491   3.309  10.669   3.165  2.9799  0.2121  2.7499
  739MOL0     H97492   3.253  10.575   3.039 -0.4627 -0.2912  0.0573
  739MOL0     H97493   3.418  10.461   3.260 -0.1475 -2.1574 -0.0626
  739MOL0     H97494   3.363  10.370   3.116  0.5993 -0.7688  0.2603
  739MOL0     H97495   3.112  10.436   3.182  1.4840  0.3169 -1.0127
  739MOL0     H97496   3.185  10.503   3.322 -0.1310 -0.6757  0.0557
  739MOL0     H97497   3.282  10.223   3.291 -0.1391 -0.0093 -0.7312
  739MOL0     H97498   3.196  10.301   3.424  2.2469 -0.4894  0.1278
  739MOL0     H97499   3.070  10.104   3.322  3.1431  1.3371  1.8658
  739MOL0     H97500   3.087  10.174   3.167  0.3213 -0.9661  0.6661
  739MOL0     H97501   2.967  10.341   3.513 -1.6534 -0.5111  0.7627
  739MOL0     H97502   2.695  10.435   3.586 -1.0919  1.2552 -0.1712
  739MOL0     H97503   2.594  10.461   3.439 -1.7499 -0.5417  2.7814
  739MOL0     H97504   2.712  10.660   3.384  0.8168 -3.2668 -2.4843
  739MOL0     H97505   2.857  10.613   3.464 -0.1703  1.7870 -0.1784
  739MOL0     H97506   2.588  10.695   3.595 -0.5747  1.1699 -0.7389
  739MOL0     H97507   2.713  10.641   3.688 -0.3249 -2.5290 -1.8435
  739MOL0     H97508   2.864  10.841   3.621  1.3814  1.5905 -1.6531
  739MOL0     H97509   2.711  10.902   3.682  0.0649 -1.5277  0.9504
  739MOL0     H97510   2.720  11.028   3.239 -1.6377  1.5690  0.5879
  739MOL0     H97511   2.791  11.248   3.195  0.5443  0.8448 -0.0166
  739MOL0     H97512   3.182  11.550   3.254 -0.4919 -0.5326 -1.0023
  739MOL0     H97513   3.275  11.768   3.192  0.5962 -0.2078  2.4169
  739MOL0     H97514   3.297  11.955   3.067  1.3952 -0.9469  0.8186
  739MOL0     H97515   3.269  11.987   3.234  2.6499 -1.1947 -0.3120
  739MOL0     H97516   3.383  12.163   3.140 -1.0245 -1.7415  0.8642
  739MOL0     H97517   3.224  12.238   3.180 -0.6311 -1.7069  1.6504
  739MOL0     H97518   3.156  12.215   2.944 -1.1599  1.5265  3.1618
  739MOL0     H97519   3.312  12.130   2.910 -0.8665 -1.6992  0.7921
  739MOL0     H97520   3.259  12.413   3.011  0.4395 -1.3205  0.7191
  739MOL0     H97521   3.420  12.343   2.975  0.4183 -0.2371 -0.9256
  739MOL0     H97522   3.203  12.400   2.781  0.0084  2.4499  2.7760
  739MOL0     H97523   3.352  12.320   2.739 -1.6070 -2.0900  0.4246
  739MOL0     H97524   3.339  12.606   2.890 -0.5524 -0.1983  0.5125
  739MOL0     H97525   3.315  12.591   2.717 -4.1474 -2.4728  1.7152
  739MOL0     H97526   3.562  12.517   2.880  0.2913  0.1758 -0.2785
  739MOL0     H97527   3.540  12.483   2.707  1.8458  0.8202  0.5648
  739MOL0     H97528   3.505  12.760   2.830 -1.7289 -1.7552  2.1307
  739MOL0     H97529   3.535  12.720   2.651  2.3380 -0.3121 -0.1326
  739MOL0     H97530   2.868  11.906   3.104  0.0762  0.1183 -1.1742
  739MOL0     H97531   2.782  11.684   3.175 -0.3079 -1.2582  0.4793
  739MOL0     H97532   2.933  11.293   3.612  1.4093 -0.7431 -0.1975
  739MOL0     H97533   2.854  11.084   3.649 -0.7078  2.3041  0.4538
  739MOL0     H97534   3.437  10.768   2.440  0.4533  0.7194 -1.6265
  739MOL0     H97535   3.564  10.735   2.233  0.4277 -0.3766 -0.3547
  739MOL0     H97536   4.050  10.749   2.112 -1.1887  0.1039  0.0923
  739MOL0     H97537   4.264  10.687   2.000 -2.0650  3.0574  0.1563
  739MOL0     H97538   4.263  10.344   1.682 -0.1241 -0.1835  1.3203
  739MOL0     H97539   4.294  10.282   1.842  0.0027 -2.5308 -0.5993
  739MOL0     H97540   4.532  10.373   1.817  3.3970 -2.2318 -1.2265
  739MOL0     H97541   4.511  10.238   1.726  0.6291  0.2259 -2.8738
  739MOL0     H97542   4.631  10.434   1.621  0.1760 -1.5640 -0.3411
  739MOL0     H97543   4.471  10.513   1.617  0.7568  1.1983  1.3304
  739MOL0     H97544   4.377  10.348   1.462 -0.4915 -1.6664  0.8192
  739MOL0     H97545   4.509  10.451   1.408 -1.4518  1.0855  0.2735
  739MOL0     H97546   4.724  10.082   1.407 -1.8892 -1.8162 -1.3447
  739MOL0     H97547   4.054  10.377   1.783 -0.4482  1.9665 -2.1473
  739MOL0     H97548   3.853  10.425   1.914  0.2435 -0.4665 -0.6283
  740MOL0     O97549   3.591   9.560   4.457  0.4684 -0.5017 -0.1415
  740MOL0     C97550   3.618   9.620   4.560 -0.4080 -0.4249 -0.0793
  740MOL0     O97551   3.546   9.625   4.669 -0.4186 -0.5987 -0.1888
  740MOL0     C97552   3.414   9.577   4.680 -0.3512 -0.0636  0.5792
  740MOL0     C97553   3.367   9.535   4.802  0.1094  0.3613 -0.5549
  740MOL0     C97554   3.229   9.499   4.807  1.0163 -0.2450 -0.1954
  740MOL0     C97555   3.142   9.505   4.702 -0.1710  0.4359 -0.0786
  740MOL0     O97556   3.006   9.494   4.712 -0.6421  0.0981 -0.1376
  740MOL0     C97557   2.956   9.377   4.779  0.1800  0.4475  0.6096
  740MOL0     C97558   2.820   9.335   4.730  0.1500  0.1840  0.2232
  740MOL0     C97559   2.715   9.436   4.772  0.2210 -0.0593 -0.5201
  740MOL0     C97560   2.582   9.353   4.764 -0.8913  0.0853  0.0704
  740MOL0     C97561   2.489   9.441   4.837 -0.3190 -0.3289  0.2316
  740MOL0     C97562   2.344   9.389   4.837 -0.3486  0.3134  0.5655
  740MOL0     C97563   2.304   9.336   4.975 -0.0894 -0.3350 -0.0521
  740MOL0     C97564   2.167   9.400   5.013  0.4177  0.3239  0.0128
  740MOL0     N97565   2.055   9.324   4.952  0.5436  0.1773 -0.7860
  740MOL0     C97566   1.972   9.373   4.857  0.4134  0.3913 -0.5585
  740MOL0     C97567   1.859   9.295   4.869 -0.8491  0.3980 -0.4861
  740MOL0     C97568   1.737   9.302   4.776 -0.3891 -1.0203 -0.3650
  740MOL0     C97569   1.617   9.315   4.878  0.2917  0.6348 -0.1125
  740MOL0     C97570   1.494   9.333   4.794  1.2436 -0.2155  0.0804
  740MOL0     C97571   1.355   9.351   4.869 -0.3538 -1.2304  0.0067
  740MOL0     O97572   1.246   9.356   4.767 -0.3703 -0.0421 -0.7586
  740MOL0     C97573   1.115   9.388   4.810  0.3923  0.5844  1.2425
  740MOL0     C97574   1.059   9.394   4.944 -0.5794  0.0097  0.2141
  740MOL0     C97575   0.928   9.432   4.973 -0.4772 -0.0626  0.0205
  740MOL0     C97576   0.837   9.446   4.867  0.3808 -0.1598 -0.0237
  740MOL0     C97577   0.691   9.463   4.894 -0.8344 -0.3260  0.3363
  740MOL0     O97578   0.620   9.475   4.776  1.0083  0.3570  0.1355
  740MOL0     C97579   0.483   9.485   4.763 -0.8774  0.1119  0.6963
  740MOL0     C97580   0.389   9.467   4.873  0.6086  0.0715  0.1594
  740MOL0     C97581   0.257   9.453   4.852  0.0144  0.1059  0.1432
  740MOL0     C97582   0.202   9.463   4.723  0.7214 -0.4641  0.1226
  740MOL0     O97583   0.065   9.446   4.717 -0.0321 -0.3350 -0.3188
  740MOL0     C97584   0.003   9.454   4.581 -0.1754  0.2129  0.2245
  740MOL0     C97585   0.046   9.333   4.503 -0.4353 -0.7985  0.6116
  740MOL0     C97586  -0.039   9.313   4.381 -0.5545 -0.2526 -0.0661
  740MOL0     C97587  -0.035   9.162   4.343 -0.2720  0.0206  0.3886
  740MOL0     C97588  -0.085   9.149   4.190 -0.3501 -0.0542  0.2851
  740MOL0     C97589  -0.230   9.175   4.158 -0.7956 -0.4772  0.2575
  740MOL0     C97590  -0.328   9.082   4.244  0.3144  0.9126 -0.2285
  740MOL0     C97591  -0.472   9.084   4.190 -0.0395  0.4996  0.0656
  740MOL0    Cl97592  -0.562   8.957   4.281  0.0587 -0.6600  0.4389
  740MOL0     C97593   0.291   9.503   4.619  0.6302 -0.1336  0.5518
  740MOL0     C97594   0.427   9.504   4.634 -0.0266 -0.6903  0.8492
  740MOL0     O97595   0.648   9.483   5.008  0.2261  0.3418 -0.1345
  740MOL0     C97596   0.890   9.435   4.735 -0.0654  0.7174 -0.6589
  740MOL0     C97597   1.022   9.408   4.707  0.6675  0.2466 -0.4288
  740MOL0     N97598   1.874   9.196   4.970  0.5106 -0.2575 -0.3487
  740MOL0     N97599   1.992   9.231   5.025  0.0080  0.0296  0.7235
  740MOL0     C97600   3.186   9.547   4.579  0.4988  0.3974  0.1923
  740MOL0     C97601   3.322   9.595   4.570 -0.5387 -0.0104  0.1552
  740MOL0     C97602   3.758   9.683   4.573 -0.1808  0.5596  0.2130
  740MOL0     C97603   3.850   9.669   4.465  0.0925 -0.6234 -0.1988
  740MOL0     C97604   3.975   9.735   4.480  0.2619  0.6432 -0.4393
  740MOL0     C97605   4.003   9.824   4.579  0.0885 -0.3059  0.0941
  740MOL0     O97606   4.119   9.896   4.604  0.0660 -0.7106 -0.1535
  740MOL0     C97607   4.236   9.877   4.527 -0.2281  0.5689  0.2367
  740MOL0     C97608   4.359   9.932   4.598  0.0198  0.3888 -0.2729
  740MOL0     C97609   4.381  10.082   4.584  0.9780 -0.1062  0.9212
  740MOL0     C97610   4.528  10.132   4.592  0.3606  0.1352 -0.6891
  740MOL0     C97611   4.613  10.071   4.697  0.7245  0.6117 -1.1383
  740MOL0     C97612   4.665  10.003   4.782 -0.0757  0.0820  0.0208
  740MOL0     C97613   3.906   9.837   4.679 -0.3849 -0.2025  0.3014
  740MOL0     C97614   3.784   9.773   4.674 -0.0698  0.7826  0.3845
  740MOL0     H97615   3.424   9.511   4.891 -1.6014 -4.3153 -0.4469
  740MOL0     H97616   3.195   9.467   4.905  1.1697 -1.4763 -0.5267
  740MOL0     H97617   2.953   9.396   4.886 -1.0214 -1.0109  0.8563
  740MOL0     H97618   3.017   9.289   4.759 -0.6176 -0.8583  3.5213
  740MOL0     H97619   2.797   9.232   4.761 -0.0107  0.4694  1.1030
  740MOL0     H97620   2.810   9.335   4.621 -2.2332 -0.5666  0.3868
  740MOL0     H97621   2.713   9.526   4.709 -0.7605  2.9939  3.4255
  740MOL0     H97622   2.733   9.461   4.877 -1.8102 -1.2151  0.1434
  740MOL0     H97623   2.551   9.323   4.663 -0.2539  0.0944 -0.1322
  740MOL0     H97624   2.588   9.259   4.820  0.1230  0.1164  0.0242
  740MOL0     H97625   2.487   9.540   4.791  2.2200  0.5415  1.7578
  740MOL0     H97626   2.519   9.460   4.940 -1.6555  0.5294  0.4846
  740MOL0     H97627   2.349   9.297   4.778 -0.6072 -1.8693  3.6939
  740MOL0     H97628   2.276   9.460   4.791 -0.2985 -0.7291 -1.2652
  740MOL0     H97629   2.304   9.227   4.982 -3.2281 -0.3193  1.9997
  740MOL0     H97630   2.375   9.366   5.053  2.0992  0.7110 -2.2755
  740MOL0     H97631   2.166   9.500   4.969 -0.6648  0.4837  0.3684
  740MOL0     H97632   2.158   9.404   5.122  1.3209  0.9280  0.0774
  740MOL0     H97633   1.976   9.462   4.794  1.1536  0.0652 -0.9859
  740MOL0     H97634   1.736   9.208   4.720  3.3031 -1.7887  0.5528
  740MOL0     H97635   1.757   9.392   4.716  0.6518  1.5210  3.4378
  740MOL0     H97636   1.644   9.403   4.937  1.3168  0.2307  0.0463
  740MOL0     H97637   1.609   9.229   4.945  0.6929  0.4242 -0.3282
  740MOL0     H97638   1.507   9.414   4.722  0.4269 -1.3185 -1.3592
  740MOL0     H97639   1.484   9.241   4.736 -0.3008  0.3861 -0.6630
  740MOL0     H97640   1.359   9.438   4.936 -1.5953  0.0957 -1.5440
  740MOL0     H97641   1.338   9.265   4.935  3.5481 -2.1338  0.1258
  740MOL0     H97642   1.122   9.370   5.029 -1.2671 -2.9307  0.0000
  740MOL0     H97643   0.903   9.433   5.078  1.9093 -0.6647  0.6466
  740MOL0     H97644   0.426   9.457   4.975  0.3753  0.4410  0.2811
  740MOL0     H97645   0.190   9.435   4.935  1.1265  1.6524  1.4220
  740MOL0     H97646   0.011   9.553   4.535 -1.7736  0.9019  1.3450
  740MOL0     H97647  -0.103   9.446   4.603 -0.3057 -2.5915 -1.0133
  740MOL0     H97648   0.053   9.248   4.572  1.1506 -2.1911 -1.1575
  740MOL0     H97649   0.150   9.345   4.470 -0.1545 -0.5628  1.5302
  740MOL0     H97650   0.003   9.372   4.299 -0.2935  0.5738  0.6573
  740MOL0     H97651  -0.146   9.324   4.402 -0.6608 -1.5817  0.1970
  740MOL0     H97652   0.059   9.109   4.360  0.1454  1.7267  4.4625
  740MOL0     H97653  -0.110   9.106   4.399  0.6363  0.9177  2.6096
  740MOL0     H97654  -0.061   9.045   4.167  0.4133 -0.6598  3.3728
  740MOL0     H97655  -0.023   9.221   4.136  0.9191 -0.9417  0.5261
  740MOL0     H97656  -0.241   9.139   4.055 -0.1360  2.1552 -0.8040
  740MOL0     H97657  -0.247   9.282   4.172  0.2691 -0.4116  1.2065
  740MOL0     H97658  -0.290   8.980   4.241 -1.0761  0.3912 -1.7307
  740MOL0     H97659  -0.330   9.115   4.348 -2.4014  2.6669 -0.7324
  740MOL0     H97660  -0.480   9.057   4.084  0.4424 -0.9815  0.3804
  740MOL0     H97661  -0.525   9.177   4.210 -0.5243  0.6086 -1.5627
  740MOL0     H97662   0.241   9.522   4.524 -2.4748 -3.0027  1.4087
  740MOL0     H97663   0.499   9.504   4.552  3.0815  0.0723  3.3564
  740MOL0     H97664   0.825   9.455   4.650 -1.0603 -0.0594 -0.1035
  740MOL0     H97665   1.050   9.399   4.603  3.6427  2.0945  0.1070
  740MOL0     H97666   3.129   9.569   4.489  0.6582  0.7882  0.1815
  740MOL0     H97667   3.361   9.638   4.478 -1.4807  0.3264 -0.0977
  740MOL0     H97668   3.844   9.600   4.382 -0.0082 -3.9287  2.3304
  740MOL0     H97669   4.048   9.727   4.400 -0.9187 -5.4854 -1.4291
  740MOL0     H97670   4.216   9.926   4.431  1.1824  0.6515 -0.0327
  740MOL0     H97671   4.245   9.768   4.515  0.8894  0.8249 -1.7574
  740MOL0     H97672   4.362   9.913   4.706  3.2302 -0.5810 -0.4041
  740MOL0     H97673   4.440   9.865   4.567  0.1186 -0.2293  1.2198
  740MOL0     H97674   4.319  10.124   4.664 -0.6183  2.1429 -1.3280
  740MOL0     H97675   4.350  10.115   4.484 -1.9721  0.1126  1.8320
  740MOL0     H97676   4.569  10.115   4.493  0.4869 -0.2391 -0.5714
  740MOL0     H97677   4.518  10.236   4.626 -2.5413 -0.5502  0.8576
  740MOL0     H97678   4.729   9.944   4.844  0.4810 -2.8082 -3.0432
  740MOL0     H97679   3.931   9.908   4.757  0.0359 -1.5703  1.4491
  740MOL0     H97680   3.707   9.790   4.748  0.0061  1.5905  0.2853
  741MOL0     O97681   1.817   0.453   9.121 -0.0952  0.1516  0.4744
  741MOL0     C97682   1.869   0.548   9.174 -0.2805  0.1442 -0.3481
  741MOL0     O97683   1.823   0.605   9.291 -0.3562 -0.9311 -0.3159
  741MOL0     C97684   1.730   0.540   9.368  0.0026 -0.6114  0.2756
  741MOL0     C97685   1.776   0.465   9.470  0.4315  0.5058 -0.5033
  741MOL0     C97686   1.688   0.379   9.542 -0.0580 -0.0720 -0.0544
  741MOL0     C97687   1.545   0.393   9.514 -0.4425  0.8000  0.9210
  741MOL0     O97688   1.461   0.315   9.586 -0.5590  0.1803  0.7044
  741MOL0     C97689   1.332   0.364   9.628  0.3410 -0.2160  0.0813
  741MOL0     C97690   1.227   0.290   9.539 -0.5654  0.3525  0.2536
  741MOL0     C97691   1.192   0.155   9.601 -0.0260 -0.2322  0.5360
  741MOL0     C97692   1.310   0.060   9.636 -0.0326  0.4488  0.9904
  741MOL0     C97693   1.372  -0.003   9.496  1.0063  0.1980  0.2881
  741MOL0     C97694   1.499  -0.066   9.519 -0.1684 -0.3855 -0.5615
  741MOL0     C97695   1.604   0.038   9.558 -0.5880 -0.4136 -0.3161
  741MOL0     C97696   1.739  -0.038   9.568 -0.6039 -0.3966  1.2595
  741MOL0     N97697   1.849   0.050   9.586 -1.0275 -0.0004 -0.3482
  741MOL0     C97698   1.880   0.119   9.705  0.7208 -0.0804  0.0990
  741MOL0     C97699   1.999   0.182   9.688  0.0487  0.2860  0.3674
  741MOL0     C97700   2.069   0.259   9.790 -0.4999 -0.2625  0.6841
  741MOL0     C97701   1.968   0.334   9.882 -1.4462  0.6352  0.0316
  741MOL0     C97702   2.026   0.464   9.951  0.2477  0.0824  0.0895
  741MOL0     C97703   1.914   0.527  10.039 -0.2517 -0.5534  0.3800
  741MOL0     O97704   1.798   0.578   9.962  0.6698  0.3743 -0.8025
  741MOL0     C97705   1.676   0.526  10.002  0.3170  0.4665 -0.0170
  741MOL0     C97706   1.620   0.577  10.117  0.2578  0.5847  1.0910
  741MOL0     C97707   1.513   0.511  10.182  0.1592  0.6190  0.1930
  741MOL0     C97708   1.449   0.404  10.115  0.3843 -0.2918  0.6455
  741MOL0     C97709   1.322   0.343  10.154  0.2806 -0.3805  0.0854
  741MOL0     O97710   1.285   0.357  10.287 -0.0935  0.4480 -0.0074
  741MOL0     C97711   1.155   0.331  10.331 -0.2929  0.4179  1.1556
  741MOL0     C97712   1.128   0.273  10.451 -0.0256  0.2971  0.2265
  741MOL0     C97713   0.994   0.255  10.497 -0.3105 -0.3175  0.5844
  741MOL0     C97714   0.884   0.290  10.419 -0.2678  0.2596  0.2275
  741MOL0     O97715   0.760   0.255  10.467  0.2350 -0.2398 -0.1627
  741MOL0     C97716   0.727   0.333  10.587  0.1983  0.0043  0.8320
  741MOL0     C97717   0.578   0.328  10.599 -1.0179 -0.4075 -0.2722
  741MOL0     C97718   0.527   0.235  10.703 -0.2626 -0.5519 -0.0020
  741MOL0     C97719   0.369   0.252  10.709 -0.4960 -0.0310  0.3645
  741MOL0     C97720   0.313   0.152  10.818 -0.2479 -0.3682  0.8139
  741MOL0     C97721   0.353   0.171  10.962 -0.0339 -0.1154 -0.0913
  741MOL0     C97722   0.305   0.055  11.051 -0.1814 -0.1720  1.1070
  741MOL0     C97723   0.297   0.081  11.193  0.0420  0.1535 -0.5611
  741MOL0    Cl97724   0.444   0.152  11.253  0.1434  0.2011 -0.2284
  741MOL0     C97725   0.917   0.340  10.292  0.9304  0.5655  0.2404
  741MOL0     C97726   1.047   0.363  10.250  0.1624  0.0927  0.4794
  741MOL0     O97727   1.253   0.288  10.068  0.3403 -0.4164  0.6511
  741MOL0     C97728   1.504   0.355   9.993  0.1407  0.9623  0.4307
  741MOL0     C97729   1.619   0.419   9.935  0.2582 -0.0338  0.4603
  741MOL0     N97730   2.034   0.158   9.558  0.0954  0.5908  0.6194
  741MOL0     N97731   1.951   0.076   9.503 -0.2059 -0.4342 -0.1142
  741MOL0     C97732   1.504   0.467   9.406  0.0554  0.1477  0.0504
  741MOL0     C97733   1.593   0.548   9.338  0.4629  0.8476  0.8161
  741MOL0     C97734   1.987   0.609   9.104 -0.6556 -0.1413 -0.3320
  741MOL0     C97735   2.072   0.704   9.175  0.9054 -0.4587 -0.2125
  741MOL0     C97736   2.179   0.759   9.109 -0.5591  0.9033  0.6280
  741MOL0     C97737   2.200   0.730   8.973 -0.4397  0.2369  0.5769
  741MOL0     O97738   2.295   0.803   8.900  0.2184  0.0316 -0.2370
  741MOL0     C97739   2.237   0.925   8.844 -0.2945 -0.9892 -0.1898
  741MOL0     C97740   2.355   0.999   8.757  0.0136 -0.2046 -1.0124
  741MOL0     C97741   2.463   1.067   8.856 -0.0926 -0.6603  0.2514
  741MOL0     C97742   2.598   1.089   8.782 -0.2656  0.2981  0.5523
  741MOL0     C97743   2.569   1.165   8.656 -0.7617  0.7674 -0.8303
  741MOL0     C97744   2.559   1.232   8.553  0.1635  0.5530  0.1080
  741MOL0     C97745   2.118   0.639   8.907  0.5044 -0.4791  0.6502
  741MOL0     C97746   2.017   0.572   8.970  0.0772 -0.0241 -0.2854
  741MOL0     H97747   1.880   0.467   9.502  0.6680  2.5978 -1.1946
  741MOL0     H97748   1.710   0.308   9.622 -3.1996 -0.5445  0.5194
  741MOL0     H97749   1.336   0.470   9.600  1.7242 -0.0048  0.9582
  741MOL0     H97750   1.310   0.361   9.736 -0.5670  2.0634  0.0148
  741MOL0     H97751   1.258   0.276   9.435  1.7802 -0.3761  0.9949
  741MOL0     H97752   1.131   0.343   9.537 -0.0604  1.2965 -1.7269
  741MOL0     H97753   1.126   0.107   9.528  2.7160  0.5276 -2.7032
  741MOL0     H97754   1.137   0.166   9.695 -2.3188 -1.1524 -0.6158
  741MOL0     H97755   1.377   0.109   9.707  0.9768 -0.4112  0.6626
  741MOL0     H97756   1.275  -0.028   9.690  0.8952 -0.3055  0.3882
  741MOL0     H97757   1.379   0.075   9.420 -1.3916  0.5263  0.3128
  741MOL0     H97758   1.306  -0.075   9.446  3.3669 -1.5671 -0.4692
  741MOL0     H97759   1.543  -0.120   9.435  4.1586  3.8236 -1.4387
  741MOL0     H97760   1.480  -0.137   9.600  1.8175 -2.0358 -1.4260
  741MOL0     H97761   1.626   0.104   9.474 -0.5330  0.2580  0.2178
  741MOL0     H97762   1.591   0.094   9.652  2.2301 -2.8077  1.7074
  741MOL0     H97763   1.740  -0.085   9.469 -1.0396  1.1601  0.4735
  741MOL0     H97764   1.739  -0.112   9.648 -0.6385 -2.5515 -0.6490
  741MOL0     H97765   1.830   0.097   9.798 -0.3195  0.2050 -0.3854
  741MOL0     H97766   2.132   0.333   9.740 -0.7332 -1.3161 -1.2476
  741MOL0     H97767   2.112   0.175   9.844 -4.3602 -3.3463 -0.5779
  741MOL0     H97768   1.935   0.266   9.961 -1.8845  2.4244  1.4799
  741MOL0     H97769   1.880   0.358   9.822 -1.3047 -0.3211 -0.5682
  741MOL0     H97770   2.115   0.446  10.013  2.1157  3.6349 -1.2753
  741MOL0     H97771   2.069   0.533   9.878  2.5297 -1.1244  0.1924
  741MOL0     H97772   1.955   0.617  10.085 -2.0424 -1.2228  3.6148
  741MOL0     H97773   1.887   0.460  10.122  1.4324 -2.6680 -0.6667
  741MOL0     H97774   1.671   0.650  10.180  2.3321  1.9864 -1.9576
  741MOL0     H97775   1.486   0.526  10.285  0.0387 -3.3684  0.9330
  741MOL0     H97776   1.202   0.247  10.526 -1.1276  0.9784  1.5929
  741MOL0     H97777   0.977   0.199  10.588 -0.3465  0.1538  0.8726
  741MOL0     H97778   0.760   0.435  10.565  0.6859 -1.0428 -4.4833
  741MOL0     H97779   0.774   0.310  10.683 -0.7942 -0.2328  1.2685
  741MOL0     H97780   0.531   0.310  10.501 -0.7430 -3.8340  0.0793
  741MOL0     H97781   0.553   0.430  10.628 -0.0069 -0.1228 -0.3461
  741MOL0     H97782   0.577   0.264  10.796  0.6498 -0.3868 -0.5287
  741MOL0     H97783   0.561   0.132  10.699  0.2700 -0.5326  2.5038
  741MOL0     H97784   0.345   0.353  10.743  1.1695  0.8622 -0.9480
  741MOL0     H97785   0.321   0.223  10.615  0.0218 -1.1571  0.4275
  741MOL0     H97786   0.332   0.049  10.788 -1.1023  0.5246 -3.4324
  741MOL0     H97787   0.205   0.174  10.812 -0.5760 -2.1592 -0.7181
  741MOL0     H97788   0.320   0.269  10.998  1.9123  1.4293 -2.2082
  741MOL0     H97789   0.462   0.168  10.971 -0.2008 -1.1602  2.7360
  741MOL0     H97790   0.209   0.023  11.012 -0.5787  2.0213  0.1729
  741MOL0     H97791   0.381  -0.024  11.053  1.5204  1.4022  1.7546
  741MOL0     H97792   0.284  -0.014  11.246  1.4209 -0.1127 -0.6373
  741MOL0     H97793   0.206   0.137  11.215 -0.8399 -1.5619  0.3870
  741MOL0     H97794   0.838   0.375  10.225 -1.5284 -1.1117  2.0898
  741MOL0     H97795   1.055   0.407  10.151 -0.9864  1.1181  0.8178
  741MOL0     H97796   1.460   0.266   9.950  0.2906  1.5444 -0.9851
  741MOL0     H97797   1.659   0.380   9.843  1.2219  2.5666 -0.3304
  741MOL0     H97798   1.397   0.479   9.389 -0.3331 -1.5791  1.0389
  741MOL0     H97799   1.551   0.614   9.263  0.6854  0.8315  0.6795
  741MOL0     H97800   2.054   0.720   9.281 -1.0655  0.0855 -0.5832
  741MOL0     H97801   2.257   0.816   9.159 -0.2692  0.2244  0.9743
  741MOL0     H97802   2.209   0.989   8.929  0.5495 -3.4448  2.0813
  741MOL0     H97803   2.149   0.900   8.785  0.0333 -0.5416 -0.8800
  741MOL0     H97804   2.389   0.918   8.692 -0.9736 -0.7618 -0.8466
  741MOL0     H97805   2.324   1.085   8.696  2.0974  2.0798  0.9056
  741MOL0     H97806   2.474   1.018   8.953  1.3022 -1.8152 -0.4626
  741MOL0     H97807   2.429   1.167   8.885 -1.4828 -1.0530  0.0322
  741MOL0     H97808   2.673   1.145   8.838  0.9089 -0.3391 -0.3264
  741MOL0     H97809   2.639   0.989   8.763 -2.9775 -0.7980 -0.0188
  741MOL0     H97810   2.547   1.296   8.467  0.7208  2.2007  1.2081
  741MOL0     H97811   2.145   0.630   8.802  0.5743  1.8910  0.3973
  741MOL0     H97812   1.949   0.509   8.912  0.2006 -0.5896  0.1813
  742MOL0     O97813   8.200   0.343   6.746 -0.3643 -0.2171  0.5720
  742MOL0     C97814   8.192   0.310   6.628 -1.1519 -0.2859 -0.1098
  742MOL0     O97815   8.281   0.230   6.565 -0.3562  0.0089  0.3400
  742MOL0     C97816   8.380   0.174   6.643 -0.3256 -0.9639  0.0730
  742MOL0     C97817   8.370   0.044   6.693  0.1226 -0.5971  0.3717
  742MOL0     C97818   8.475  -0.012   6.761  0.4374  0.1906 -0.3886
  742MOL0     C97819   8.589   0.061   6.792 -0.8301 -0.3700 -0.2091
  742MOL0     O97820   8.692   0.003   6.866  0.1676 -0.5715 -0.3514
  742MOL0     C97821   8.709   0.059   6.997 -0.6428  1.0125 -0.6262
  742MOL0     C97822   8.626  -0.002   7.111  0.3412 -0.7736 -0.5749
  742MOL0     C97823   8.635  -0.157   7.113  0.8698  0.3037 -0.1785
  742MOL0     C97824   8.769  -0.212   7.161  0.7496 -1.1176 -0.0826
  742MOL0     C97825   8.778  -0.359   7.141 -0.3851  0.3276 -0.2299
  742MOL0     C97826   8.661  -0.451   7.199  0.0094  0.0018  1.2702
  742MOL0     C97827   8.659  -0.445   7.345 -0.2841 -0.4409 -0.2186
  742MOL0     C97828   8.518  -0.472   7.408 -0.0145  0.9053  0.0347
  742MOL0     N97829   8.478  -0.610   7.390 -0.4560  0.3252  0.0039
  742MOL0     C97830   8.344  -0.645   7.371  0.1586 -1.0304 -0.6373
  742MOL0     C97831   8.351  -0.784   7.367 -0.5690  0.3335 -0.1345
  742MOL0     C97832   8.234  -0.892   7.344  0.3409 -1.0843  0.6875
  742MOL0     C97833   8.102  -0.824   7.303  0.7771 -0.5025 -0.1532
  742MOL0     C97834   8.030  -0.788   7.431 -0.0347 -0.4405  0.9220
  742MOL0     C97835   7.880  -0.752   7.407  0.0924  0.0598 -0.0249
  742MOL0     O97836   7.872  -0.646   7.316  0.1102  0.0523  0.8239
  742MOL0     C97837   7.766  -0.563   7.311  0.6374  0.1235  0.2653
  742MOL0     C97838   7.764  -0.455   7.220  0.5209 -0.4983  0.1333
  742MOL0     C97839   7.642  -0.387   7.191  0.4828  1.2719  0.4373
  742MOL0     C97840   7.531  -0.411   7.269  0.2910  0.1158 -0.1914
  742MOL0     C97841   7.405  -0.338   7.237 -1.2564 -0.2297 -0.0329
  742MOL0     O97842   7.303  -0.365   7.315  0.2804 -0.1571  0.2582
  742MOL0     C97843   7.177  -0.367   7.259  0.2612  0.7778  0.6231
  742MOL0     C97844   7.069  -0.309   7.323 -0.0548 -0.1637  0.4648
  742MOL0     C97845   6.940  -0.328   7.276 -0.0194 -0.7447 -0.4164
  742MOL0     C97846   6.911  -0.402   7.166 -0.3521 -1.0002  0.3314
  742MOL0     O97847   6.783  -0.416   7.115  0.6798  0.1243  0.1686
  742MOL0     C97848   6.680  -0.324   7.138  0.0489  0.3616  0.0749
  742MOL0     C97849   6.680  -0.211   7.044  0.9960 -0.8175 -0.3418
  742MOL0     C97850   6.612  -0.245   6.913  0.8788  0.2189 -0.8464
  742MOL0     C97851   6.555  -0.116   6.847  0.0482 -0.5785  0.4872
  742MOL0     C97852   6.654  -0.016   6.793 -0.4729  0.3346  0.2856
  742MOL0     C97853   6.587   0.080   6.695 -0.1265  0.4854 -0.0796
  742MOL0     C97854   6.680   0.159   6.604 -0.6218  0.3112 -0.3227
  742MOL0     C97855   6.599   0.274   6.541 -0.4940  0.2788 -0.6442
  742MOL0    Cl97856   6.711   0.378   6.458  0.1972  0.2801  0.1489
  742MOL0     C97857   7.018  -0.463   7.110 -0.0740  0.3196  0.1829
  742MOL0     C97858   7.151  -0.452   7.153  0.4067 -0.8427 -0.3511
  742MOL0     O97859   7.393  -0.269   7.133  0.2349 -0.3337 -0.4745
  742MOL0     C97860   7.537  -0.511   7.361 -1.0160 -0.6600 -0.5289
  742MOL0     C97861   7.656  -0.585   7.380  0.7764 -0.5957  0.0774
  742MOL0     N97862   8.489  -0.818   7.380 -0.2715  0.1839 -0.0297
  742MOL0     N97863   8.562  -0.718   7.388  0.3238  0.2408 -0.5833
  742MOL0     C97864   8.600   0.195   6.763 -0.2734  0.2397  0.2000
  742MOL0     C97865   8.497   0.252   6.683 -0.1791 -0.5727  0.1321
  742MOL0     C97866   8.065   0.347   6.555  0.0832 -0.1402 -0.1391
  742MOL0     C97867   8.017   0.308   6.432 -0.2760  0.5706  1.0678
  742MOL0     C97868   7.909   0.369   6.360 -0.0921  0.1082 -0.4318
  742MOL0     C97869   7.838   0.466   6.422 -0.2587  0.0953 -0.3349
  742MOL0     O97870   7.732   0.509   6.345  0.4658 -0.2888 -0.1756
  742MOL0     C97871   7.620   0.573   6.407  0.4346  0.3123  0.1522
  742MOL0     C97872   7.614   0.719   6.354  0.1519 -0.3565  0.1811
  742MOL0     C97873   7.728   0.819   6.394  0.1631 -0.3387  1.1337
  742MOL0     C97874   7.681   0.966   6.377 -0.1584 -0.5141 -0.0306
  742MOL0     C97875   7.601   1.028   6.486  0.6223 -0.1849 -0.2023
  742MOL0     C97876   7.525   1.088   6.565  1.0164  0.4724  0.8692
  742MOL0     C97877   7.873   0.500   6.552  0.4233  0.3387  0.3089
  742MOL0     C97878   7.978   0.441   6.620  0.1001  0.1335 -0.6231
  742MOL0     H97879   8.289  -0.022   6.664  0.2761 -0.7249  0.2303
  742MOL0     H97880   8.480  -0.107   6.812 -2.3327 -0.0180 -0.3737
  742MOL0     H97881   8.681   0.164   7.009 -5.0443  0.0418 -0.5315
  742MOL0     H97882   8.807   0.049   7.043 -1.4838  0.0656  1.0790
  742MOL0     H97883   8.520   0.019   7.099  0.7605  1.5206 -0.7369
  742MOL0     H97884   8.647   0.044   7.208 -3.0920  0.4237 -0.2714
  742MOL0     H97885   8.624  -0.200   7.013  2.3002  1.0692 -0.6884
  742MOL0     H97886   8.564  -0.201   7.184  1.0203  1.3888  0.6717
  742MOL0     H97887   8.854  -0.163   7.114  1.9572 -2.4806  0.5861
  742MOL0     H97888   8.787  -0.198   7.268 -0.3329  1.2407 -0.1502
  742MOL0     H97889   8.876  -0.391   7.180 -1.2938 -3.5488 -0.7109
  742MOL0     H97890   8.783  -0.364   7.032 -1.9992 -1.3072 -0.2679
  742MOL0     H97891   8.660  -0.556   7.168 -2.7304 -0.1172  1.5134
  742MOL0     H97892   8.561  -0.417   7.175  0.2811  1.6500  2.3380
  742MOL0     H97893   8.739  -0.509   7.385 -1.4795 -3.6074 -2.4066
  742MOL0     H97894   8.679  -0.341   7.370 -2.6695 -0.1599  0.7295
  742MOL0     H97895   8.443  -0.404   7.367 -2.3217  0.2741  2.9041
  742MOL0     H97896   8.515  -0.438   7.512 -1.3994 -0.7808  0.5992
  742MOL0     H97897   8.255  -0.583   7.362  2.1898  2.3148  0.5312
  742MOL0     H97898   8.220  -0.957   7.431 -1.1136 -1.1840  0.4045
  742MOL0     H97899   8.256  -0.966   7.266  0.8363  0.1693 -0.4050
  742MOL0     H97900   8.051  -0.904   7.248  0.0242 -0.3010  0.2315
  742MOL0     H97901   8.102  -0.726   7.254  1.4149  0.7880  2.2306
  742MOL0     H97902   8.034  -0.870   7.504 -0.8697 -2.3991 -1.1154
  742MOL0     H97903   8.090  -0.705   7.471  0.1997 -0.8325  1.3971
  742MOL0     H97904   7.850  -0.717   7.506 -0.1180 -0.3770  0.0697
  742MOL0     H97905   7.838  -0.847   7.372 -0.5733  0.8141 -1.3315
  742MOL0     H97906   7.850  -0.435   7.158  1.7543  1.1911  2.2347
  742MOL0     H97907   7.645  -0.320   7.106  1.8038  0.7460  0.0428
  742MOL0     H97908   7.081  -0.232   7.398 -0.3888  0.0588  0.2943
  742MOL0     H97909   6.853  -0.280   7.321  0.6990  1.6519 -1.4017
  742MOL0     H97910   6.679  -0.299   7.244  0.8946 -2.0983  0.7403
  742MOL0     H97911   6.582  -0.373   7.130  0.7838 -1.1866  0.0751
  742MOL0     H97912   6.784  -0.181   7.026  0.5074 -0.8499 -3.8921
  742MOL0     H97913   6.636  -0.121   7.088  0.4544 -0.9079 -0.6956
  742MOL0     H97914   6.528  -0.311   6.936 -1.0460  2.5521 -0.7696
  742MOL0     H97915   6.682  -0.281   6.837 -0.0678  0.7646 -2.0000
  742MOL0     H97916   6.474  -0.141   6.778 -0.7766 -0.6661  1.4532
  742MOL0     H97917   6.488  -0.072   6.922 -0.7141 -0.6983 -0.1026
  742MOL0     H97918   6.732  -0.071   6.739  0.2954  1.4649  0.2223
  742MOL0     H97919   6.700   0.044   6.871  5.5912  0.9682 -3.1581
  742MOL0     H97920   6.544   0.161   6.755  1.2619  0.9319  0.3547
  742MOL0     H97921   6.503   0.035   6.642  0.3588 -1.2752  0.5969
  742MOL0     H97922   6.771   0.192   6.656 -0.0512 -0.1955 -0.9782
  742MOL0     H97923   6.709   0.083   6.531  1.6710 -0.4566  1.2854
  742MOL0     H97924   6.546   0.336   6.614  3.2284  2.0899  0.8006
  742MOL0     H97925   6.523   0.231   6.475 -0.8554 -0.3006  0.1269
  742MOL0     H97926   6.989  -0.527   7.027  1.6806  1.3204 -1.2853
  742MOL0     H97927   7.233  -0.496   7.097  2.4827  0.9568  1.0754
  742MOL0     H97928   7.456  -0.537   7.430 -3.5323  2.0342 -2.2502
  742MOL0     H97929   7.642  -0.672   7.444 -3.0907 -1.2116 -1.3020
  742MOL0     H97930   8.688   0.251   6.794 -1.5035  2.0261  0.6413
  742MOL0     H97931   8.494   0.355   6.651  0.7909 -0.6380 -0.1893
  742MOL0     H97932   8.077   0.240   6.372  0.8289  1.3694  1.2259
  742MOL0     H97933   7.888   0.337   6.258  2.7579 -0.4133 -0.9342
  742MOL0     H97934   7.618   0.567   6.516 -0.5883 -0.7792  0.0905
  742MOL0     H97935   7.536   0.522   6.359  0.3999  1.2797 -0.8522
  742MOL0     H97936   7.591   0.723   6.247  0.3466  1.3823  0.1719
  742MOL0     H97937   7.527   0.769   6.400 -0.3886  0.6041 -1.7820
  742MOL0     H97938   7.822   0.792   6.345  0.6315 -0.1717  1.9265
  742MOL0     H97939   7.746   0.803   6.501  0.8588 -1.3128  0.8783
  742MOL0     H97940   7.773   1.018   6.350 -1.1579  1.3036 -0.1174
  742MOL0     H97941   7.612   0.970   6.292 -1.4435 -4.5410  0.5686
  742MOL0     H97942   7.456   1.146   6.622 -0.0736  2.1154 -1.9262
  742MOL0     H97943   7.808   0.574   6.599  0.6268 -0.7718  2.4507
  742MOL0     H97944   7.991   0.488   6.717 -0.3832  1.4295 -1.1542
  743MOL0     O97945   0.913   6.924   1.294 -0.5085 -0.0165  0.0090
  743MOL0     C97946   0.949   6.867   1.196 -0.0428  0.4095 -0.0685
  743MOL0     O97947   0.956   6.732   1.178  0.5501  0.1992 -0.5237
  743MOL0     C97948   0.909   6.653   1.273 -0.2119 -0.1245 -0.2505
  743MOL0     C97949   0.991   6.611   1.383  0.5656 -0.3559 -0.5676
  743MOL0     C97950   0.931   6.536   1.479 -0.1255  0.2397  0.2554
  743MOL0     C97951   0.797   6.488   1.478  0.4585 -0.0221  0.9657
  743MOL0     O97952   0.747   6.420   1.592 -0.9084  0.6555 -0.4614
  743MOL0     C97953   0.606   6.390   1.597  0.8595 -0.1575 -0.1314
  743MOL0     C97954   0.557   6.258   1.525 -0.5880  0.5262  0.0224
  743MOL0     C97955   0.408   6.253   1.496  0.3685  0.0487  1.0064
  743MOL0     C97956   0.363   6.131   1.418 -0.1241  0.1291 -0.5847
  743MOL0     C97957   0.228   6.136   1.357  0.3114 -0.0361 -0.1745
  743MOL0     C97958   0.203   6.009   1.292  0.3251  0.4898 -0.3838
  743MOL0     C97959   0.062   6.003   1.221 -0.3196  0.0742  0.6345
  743MOL0     C97960   0.051   6.096   1.103  0.3745  0.6344  0.3746
  743MOL0     N97961  -0.076   6.066   1.052  0.0847  0.2143  0.0001
  743MOL0     C97962  -0.102   5.971   0.963  0.5488  0.7169  0.4717
  743MOL0     C97963  -0.235   5.975   0.937  0.2573  0.4526  0.1022
  743MOL0     C97964  -0.329   5.873   0.867  0.1599 -0.1509 -0.7091
  743MOL0     C97965  -0.472   5.935   0.833  0.1871 -0.0379  0.3017
  743MOL0     C97966  -0.566   5.844   0.753 -0.2466  0.1924 -0.8142
  743MOL0     C97967  -0.675   5.910   0.700 -0.2145 -0.3281  0.3257
  743MOL0     O97968  -0.759   5.947   0.807  0.0773  0.1043  0.1305
  743MOL0     C97969  -0.886   5.977   0.784 -1.0323  0.3331  0.9822
  743MOL0     C97970  -0.949   6.005   0.659 -0.3024 -0.3545  0.8826
  743MOL0     C97971  -1.085   6.027   0.645  0.5330 -0.4951 -0.0860
  743MOL0     C97972  -1.158   6.043   0.760  0.1418 -0.5191  1.4958
  743MOL0     C97973  -1.300   6.091   0.758  0.2678 -0.0634  0.1461
  743MOL0     O97974  -1.374   6.049   0.852  0.2517  0.2932 -0.4160
  743MOL0     C97975  -1.500   6.097   0.879 -0.3871 -0.4861 -0.2095
  743MOL0     C97976  -1.511   6.231   0.918 -0.0847  0.0821 -0.2747
  743MOL0     C97977  -1.633   6.282   0.946  0.2867 -0.0675 -0.6542
  743MOL0     C97978  -1.747   6.197   0.925 -0.1288 -0.2199  0.2782
  743MOL0     O97979  -1.872   6.248   0.946 -0.3284 -0.2003  0.0148
  743MOL0     C97980  -1.969   6.232   0.844 -1.3814 -0.7454 -0.0724
  743MOL0     C97981  -2.117   6.220   0.895  0.0056 -0.3909  0.5408
  743MOL0     C97982  -2.130   6.094   0.981  0.7343 -0.4267 -0.6033
  743MOL0     C97983  -2.276   6.058   1.023 -0.1412 -0.0091 -0.3082
  743MOL0     C97984  -2.283   5.913   1.069 -0.1228 -0.0012  0.3820
  743MOL0     C97985  -2.399   5.835   1.056  0.2704  0.0928 -0.3563
  743MOL0     C97986  -2.368   5.697   1.106 -0.1641  0.4153  0.5355
  743MOL0     C97987  -2.472   5.596   1.092  0.2867  0.3092  0.3158
  743MOL0    Cl97988  -2.501   5.553   0.922 -0.0337 -0.3377 -0.0339
  743MOL0     C97989  -1.733   6.061   0.894  0.4764 -0.1378  0.2690
  743MOL0     C97990  -1.610   6.013   0.856  0.7627 -1.1143  0.1027
  743MOL0     O97991  -1.330   6.167   0.660  0.0310 -0.3884  0.5506
  743MOL0     C97992  -1.092   6.024   0.880  0.1916 -0.0828 -0.3403
  743MOL0     C97993  -0.966   5.985   0.893  0.3116 -0.0884 -0.2675
  743MOL0     N97994  -0.282   6.088   1.004 -0.7348 -0.2443 -0.0342
  743MOL0     N97995  -0.187   6.139   1.071  0.1117  0.0890 -0.0922
  743MOL0     C97996   0.724   6.523   1.373  0.0426 -0.9835  0.8706
  743MOL0     C97997   0.776   6.612   1.273 -0.7828 -0.9553  0.2247
  743MOL0     C97998   0.999   6.944   1.082 -0.6972  0.3868  1.0622
  743MOL0     C97999   1.067   6.878   0.975 -0.3303  0.0270 -0.2364
  743MOL0     C98000   1.135   6.941   0.875  0.9687 -0.1121  0.2442
  743MOL0     C98001   1.129   7.081   0.873 -0.2861 -0.0561 -0.8998
  743MOL0     O98002   1.196   7.139   0.774 -1.1426  0.2323 -0.0727
  743MOL0     C98003   1.163   7.266   0.709  0.1581 -0.2840 -0.3967
  743MOL0     C98004   1.232   7.290   0.573 -0.3203  0.3050 -0.8770
  743MOL0     C98005   1.181   7.416   0.512  0.2191 -0.8771  0.2396
  743MOL0     C98006   1.208   7.548   0.600  0.0305 -0.1098 -0.3356
  743MOL0     C98007   1.349   7.567   0.615  0.2909 -0.9232 -0.2295
  743MOL0     C98008   1.468   7.563   0.619  0.0438 -0.1097 -0.1017
  743MOL0     C98009   1.054   7.155   0.971  0.0302  0.5523 -0.1647
  743MOL0     C98010   0.990   7.081   1.076 -0.1153  0.4677  0.3592
  743MOL0     H98011   1.088   6.659   1.384  0.3957 -0.0093  0.8144
  743MOL0     H98012   1.004   6.518   1.558  1.5075 -1.3515 -1.4968
  743MOL0     H98013   0.554   6.484   1.576  0.7447 -0.3083 -0.5491
  743MOL0     H98014   0.583   6.362   1.700 -3.2348  0.1140 -0.7759
  743MOL0     H98015   0.597   6.171   1.579  0.8075 -0.6414 -2.6883
  743MOL0     H98016   0.614   6.260   1.432  1.1039 -0.8626  0.9560
  743MOL0     H98017   0.388   6.342   1.436  1.9840 -1.5143 -2.0790
  743MOL0     H98018   0.362   6.247   1.595 -1.0568  0.9321  0.4222
  743MOL0     H98019   0.445   6.106   1.350  0.0339  0.3822 -0.4910
  743MOL0     H98020   0.357   6.047   1.489  2.9357  1.5963  1.6578
  743MOL0     H98021   0.219   6.215   1.283 -0.1355 -1.3027 -1.5128
  743MOL0     H98022   0.156   6.150   1.439 -1.8493  1.2271 -2.1795
  743MOL0     H98023   0.214   5.932   1.369 -0.8940  1.4380  0.7978
  743MOL0     H98024   0.271   5.999   1.208 -0.9365  3.7025 -1.9612
  743MOL0     H98025   0.056   5.899   1.187 -0.4215  1.0786 -2.8604
  743MOL0     H98026  -0.014   6.030   1.295 -1.0829 -2.4723  0.8641
  743MOL0     H98027   0.131   6.081   1.030  0.2535  1.9665 -0.0574
  743MOL0     H98028   0.059   6.203   1.128  2.0535  0.3584  1.1673
  743MOL0     H98029  -0.046   5.887   0.924  0.0569  0.7807 -0.4038
  743MOL0     H98030  -0.333   5.781   0.925  0.9077  0.0484 -0.3388
  743MOL0     H98031  -0.270   5.846   0.779 -1.8492 -0.4220 -2.0493
  743MOL0     H98032  -0.456   6.030   0.780 -1.7162  0.1076 -0.0838
  743MOL0     H98033  -0.524   5.962   0.926  0.8341  1.2903  0.3042
  743MOL0     H98034  -0.505   5.786   0.682  0.6933  0.6228 -0.3843
  743MOL0     H98035  -0.600   5.769   0.825  2.5372 -0.6241 -0.2291
  743MOL0     H98036  -0.725   5.836   0.637 -0.0462  0.6770 -1.0068
  743MOL0     H98037  -0.652   5.998   0.640 -1.2661  1.3877  2.2838
  743MOL0     H98038  -0.889   6.005   0.568  0.3605 -1.0359  1.3055
  743MOL0     H98039  -1.120   6.048   0.544  1.9807  5.4948  0.3257
  743MOL0     H98040  -1.418   6.288   0.919  0.0360 -0.0909 -0.9941
  743MOL0     H98041  -1.648   6.380   0.991  0.8520 -0.8017  1.2745
  743MOL0     H98042  -1.959   6.148   0.776 -3.0025 -1.9282  1.0637
  743MOL0     H98043  -1.980   6.322   0.782 -0.3457  0.5742  1.5759
  743MOL0     H98044  -2.180   6.226   0.806  0.9252  0.7036 -0.0596
  743MOL0     H98045  -2.145   6.303   0.960 -1.2214 -0.9312  0.7326
  743MOL0     H98046  -2.065   6.113   1.067 -0.9107 -2.1466  1.1105
  743MOL0     H98047  -2.092   6.012   0.920 -0.3863 -2.2933  1.0993
  743MOL0     H98048  -2.302   6.124   1.107 -0.0797  0.3284 -0.5524
  743MOL0     H98049  -2.343   6.076   0.938  2.9699  0.9169 -2.7379
  743MOL0     H98050  -2.250   5.899   1.173 -1.1513 -2.9717  0.3857
  743MOL0     H98051  -2.208   5.864   1.006 -0.8710 -1.7181  0.7849
  743MOL0     H98052  -2.418   5.830   0.948  0.8271  1.7936 -0.5650
  743MOL0     H98053  -2.488   5.878   1.103  1.3707  3.1488 -0.8339
  743MOL0     H98054  -2.277   5.664   1.055 -0.8507  0.1276 -0.5276
  743MOL0     H98055  -2.340   5.702   1.212  0.9729 -1.3485  0.3590
  743MOL0     H98056  -2.569   5.628   1.130 -0.1751 -1.9881  1.2147
  743MOL0     H98057  -2.441   5.515   1.158  0.4613  2.1568  2.6350
  743MOL0     H98058  -1.812   5.987   0.891  0.4232 -0.0681 -0.0305
  743MOL0     H98059  -1.592   5.913   0.816  2.7033 -0.8308  0.1555
  743MOL0     H98060  -1.139   6.040   0.977  3.3761  1.2628  1.1216
  743MOL0     H98061  -0.921   5.972   0.991  0.2948  0.0937 -0.2348
  743MOL0     H98062   0.622   6.487   1.364  0.0735 -0.9807  0.4575
  743MOL0     H98063   0.706   6.651   1.199  0.0210 -0.0186 -0.0739
  743MOL0     H98064   1.084   6.771   0.976  0.3871  0.1064  1.7588
  743MOL0     H98065   1.201   6.895   0.803  0.9692 -1.6108  1.1550
  743MOL0     H98066   1.172   7.354   0.773 -0.6380 -1.3309  1.2318
  743MOL0     H98067   1.058   7.248   0.684  0.6879 -1.2397 -2.0443
  743MOL0     H98068   1.341   7.298   0.581 -0.5620  2.0531  1.8683
  743MOL0     H98069   1.204   7.213   0.500 -2.5389 -1.6961  1.8835
  743MOL0     H98070   1.076   7.410   0.481 -0.6232  3.1976  1.6724
  743MOL0     H98071   1.239   7.416   0.420  0.5832 -2.1817  0.4469
  743MOL0     H98072   1.160   7.627   0.542  1.3985  0.6657 -0.4707
  743MOL0     H98073   1.155   7.550   0.695  2.5071  2.4082  1.1312
  743MOL0     H98074   1.575   7.574   0.616 -0.0701  1.9209  1.1297
  743MOL0     H98075   1.052   7.263   0.980  0.6485  0.5398  0.1760
  743MOL0     H98076   0.937   7.136   1.153 -0.0623  0.3941  0.4480
  744MOL0     O98077   9.873   9.511   1.026  0.2182  0.7374 -0.6260
  744MOL0     C98078   9.906   9.631   1.045  0.2264  0.4205 -0.0770
  744MOL0     O98079   9.814   9.737   1.060  0.0151  0.2469 -0.2932
  744MOL0     C98080   9.677   9.711   1.059  0.4232 -0.0156  0.2659
  744MOL0     C98081   9.617   9.648   0.946  0.6416  0.1138 -0.0654
  744MOL0     C98082   9.481   9.617   0.944 -1.1721 -0.5118  0.0802
  744MOL0     C98083   9.393   9.647   1.050  0.7313 -0.4314 -0.1897
  744MOL0     O98084   9.255   9.640   1.051  0.0372 -0.2250  0.4606
  744MOL0     C98085   9.197   9.544   0.976  0.1843  0.1253  0.5960
  744MOL0     C98086   9.063   9.510   1.042  0.3600 -0.5516 -0.3100
  744MOL0     C98087   8.948   9.577   0.972  0.0388 -0.2505 -0.0889
  744MOL0     C98088   8.822   9.536   1.050  0.0865 -0.4881 -0.5838
  744MOL0     C98089   8.692   9.571   0.974  0.1632  0.2987 -0.9675
  744MOL0     C98090   8.568   9.507   1.028  0.0544  0.3883 -0.4830
  744MOL0     C98091   8.438   9.559   0.959 -0.6382 -0.5012  0.1379
  744MOL0     C98092   8.327   9.495   1.045  0.2059  1.0198 -0.6193
  744MOL0     N98093   8.199   9.517   0.976 -0.4235  0.1425  0.0296
  744MOL0     C98094   8.111   9.618   1.019  0.3051 -0.9706  0.0433
  744MOL0     C98095   7.999   9.595   0.950  0.1499 -0.2593  0.7691
  744MOL0     C98096   7.883   9.690   0.957  0.4125  0.5690 -0.3798
  744MOL0     C98097   7.755   9.612   0.952  0.2302 -0.1004 -0.6668
  744MOL0     C98098   7.742   9.531   1.082  0.5036  0.0676  0.8783
  744MOL0     C98099   7.602   9.461   1.093  0.2483  0.1860  0.5829
  744MOL0     O98100   7.500   9.559   1.073 -0.6166 -0.2001  0.2611
  744MOL0     C98101   7.369   9.519   1.063 -0.4306 -0.7499  0.0434
  744MOL0     C98102   7.286   9.626   1.030  0.3893  0.1507  0.0293
  744MOL0     C98103   7.148   9.596   1.043 -0.0992 -0.2205 -0.4865
  744MOL0     C98104   7.101   9.461   1.066 -0.1664 -0.3457  0.0753
  744MOL0     C98105   6.955   9.435   1.070  1.1754 -0.0313  0.1828
  744MOL0     O98106   6.895   9.484   0.959 -0.5414  0.1675 -0.0490
  744MOL0     C98107   6.761   9.467   0.950  0.1346 -0.7592  0.2511
  744MOL0     C98108   6.689   9.584   0.973 -0.6997  0.4502 -0.2985
  744MOL0     C98109   6.551   9.581   0.974  0.3799  0.3012  0.2222
  744MOL0     C98110   6.482   9.462   0.955  0.1176  0.1254 -1.0103
  744MOL0     O98111   6.342   9.462   0.944  0.8102 -0.3179 -0.2230
  744MOL0     C98112   6.279   9.338   0.908  0.5762 -0.4027 -0.1795
  744MOL0     C98113   6.124   9.331   0.950  1.3247 -0.2906  0.6743
  744MOL0     C98114   6.027   9.426   0.876  0.0958  0.2717 -0.2108
  744MOL0     C98115   5.887   9.394   0.940  0.3167  0.1328 -0.2543
  744MOL0     C98116   5.767   9.440   0.854 -0.0608  0.4257 -0.0204
  744MOL0     C98117   5.770   9.382   0.717 -1.0843 -0.7104  0.3444
  744MOL0     C98118   5.721   9.479   0.607 -0.5605  0.6356  0.3599
  744MOL0     C98119   5.577   9.544   0.627 -0.3710  0.8000  0.2538
  744MOL0    Cl98120   5.450   9.422   0.606  0.2183  0.4510  0.3915
  744MOL0     C98121   6.559   9.341   0.931 -0.7178 -0.7572  0.1284
  744MOL0     C98122   6.703   9.349   0.929  0.5981 -0.4696 -0.6545
  744MOL0     O98123   6.905   9.357   1.152  0.1349  0.1866 -0.1405
  744MOL0     C98124   7.192   9.359   1.082 -0.3967  0.5008  0.2563
  744MOL0     C98125   7.327   9.385   1.090  0.0297 -0.0917  0.3480
  744MOL0     N98126   8.024   9.494   0.863 -1.1230  0.2405 -0.7460
  744MOL0     N98127   8.141   9.440   0.883 -0.1083 -0.2133 -0.0250
  744MOL0     C98128   9.456   9.720   1.158 -0.5997  0.5050  0.2711
  744MOL0     C98129   9.589   9.748   1.164 -0.1553  0.7299  0.4051
  744MOL0     C98130  10.053   9.661   1.053 -0.2521 -0.1303  0.7389
  744MOL0     C98131  10.095   9.794   1.052 -0.7480 -0.8526  0.4019
  744MOL0     C98132  10.238   9.825   1.067 -0.5523 -0.4268  0.5369
  744MOL0     C98133  10.335   9.721   1.080 -0.7706  0.7437 -1.3862
  744MOL0     O98134  10.466   9.764   1.070  0.3950  0.9525  0.3768
  744MOL0     C98135  10.567   9.661   1.078  0.1837  0.5155 -0.2919
  744MOL0     C98136  10.696   9.739   1.088 -0.0301  0.3354 -0.3478
  744MOL0     C98137  10.736   9.818   0.958  0.2043  0.1360  0.2504
  744MOL0     C98138  10.860   9.914   0.977  0.2567 -0.9548  0.3086
  744MOL0     C98139  10.882   9.983   0.853  0.6943  0.2768 -0.2056
  744MOL0     C98140  10.890  10.021   0.733 -0.2826 -0.5894 -0.0659
  744MOL0     C98141  10.290   9.590   1.089  0.0547 -0.3833 -0.5022
  744MOL0     C98142  10.153   9.558   1.069 -0.4908  0.6917 -0.2066
  744MOL0     H98143   9.688   9.609   0.873 -0.3911  2.1249 -2.2767
  744MOL0     H98144   9.451   9.554   0.861  2.2000  0.3189 -1.9949
  744MOL0     H98145   9.254   9.451   0.970  0.9019  0.6206 -0.6231
  744MOL0     H98146   9.186   9.582   0.874 -0.2359  1.1909  1.0192
  744MOL0     H98147   9.054   9.550   1.144 -2.5267  0.5931 -0.9182
  744MOL0     H98148   9.058   9.401   1.044  0.2368 -0.5382  0.6433
  744MOL0     H98149   8.935   9.541   0.870 -0.3544  3.8774 -1.6816
  744MOL0     H98150   8.961   9.686   0.966 -1.2880 -0.1213 -5.4917
  744MOL0     H98151   8.826   9.427   1.044 -0.5677 -0.5358 -0.2548
  744MOL0     H98152   8.822   9.556   1.158 -0.1852  0.8512 -0.8161
  744MOL0     H98153   8.693   9.549   0.867  0.7569 -0.4193 -0.8174
  744MOL0     H98154   8.683   9.680   0.974  0.4219  0.3200 -1.0218
  744MOL0     H98155   8.560   9.538   1.133  0.5249 -0.7505 -0.0933
  744MOL0     H98156   8.576   9.398   1.018 -3.0316  0.0306 -0.0285
  744MOL0     H98157   8.435   9.668   0.951  1.4947 -0.4845 -1.1779
  744MOL0     H98158   8.440   9.518   0.858  0.9778 -0.8037  0.2715
  744MOL0     H98159   8.330   9.536   1.147  2.4272 -1.3531  0.3636
  744MOL0     H98160   8.350   9.390   1.061 -2.2086  0.4185 -0.6833
  744MOL0     H98161   8.130   9.694   1.094 -2.9977 -0.7440  0.7712
  744MOL0     H98162   7.888   9.763   0.876  0.8293  0.1105 -0.7756
  744MOL0     H98163   7.882   9.751   1.048  1.2685  0.7659 -0.4999
  744MOL0     H98164   7.742   9.547   0.865 -0.3297 -1.2219  0.2226
  744MOL0     H98165   7.671   9.683   0.945  0.0009  0.0529  2.2910
  744MOL0     H98166   7.819   9.454   1.077  0.6107  0.2576 -1.0984
  744MOL0     H98167   7.760   9.593   1.170 -0.9736  1.3280  0.3452
  744MOL0     H98168   7.598   9.411   1.190  0.2463 -1.6691 -0.3355
  744MOL0     H98169   7.582   9.395   1.008  1.6207 -0.0764  0.4517
  744MOL0     H98170   7.332   9.724   1.021  0.6366  0.2033  1.5600
  744MOL0     H98171   7.081   9.682   1.049  2.5434  2.1007 -1.8960
  744MOL0     H98172   6.751   9.672   0.985  0.5257 -0.6018  1.4761
  744MOL0     H98173   6.491   9.671   0.983 -0.5885 -0.3923  0.9721
  744MOL0     H98174   6.314   9.255   0.969 -0.8044 -0.1481  1.0294
  744MOL0     H98175   6.288   9.318   0.801 -0.5731  1.2514 -0.6253
  744MOL0     H98176   6.119   9.347   1.058 -1.7948 -2.4835  0.9506
  744MOL0     H98177   6.088   9.229   0.937 -0.4153  0.5422 -1.9325
  744MOL0     H98178   6.038   9.401   0.770  1.6130 -1.6901  0.3592
  744MOL0     H98179   6.050   9.531   0.898  0.9416 -0.3010  1.8806
  744MOL0     H98180   5.888   9.285   0.945  3.3311  0.1132  0.6451
  744MOL0     H98181   5.872   9.433   1.041 -2.9407 -0.6760 -0.3334
  744MOL0     H98182   5.771   9.549   0.864 -1.4191  0.3045  2.6831
  744MOL0     H98183   5.676   9.404   0.902  0.8431 -1.9931  0.0174
  744MOL0     H98184   5.702   9.296   0.707 -1.5980 -0.2124 -0.6751
  744MOL0     H98185   5.866   9.354   0.674 -1.7974 -0.9080 -1.2067
  744MOL0     H98186   5.797   9.558   0.600  2.6314 -2.2590 -0.2541
  744MOL0     H98187   5.737   9.424   0.514  0.9590  0.3640  0.7474
  744MOL0     H98188   5.566   9.629   0.560 -0.8454  0.7486  0.2633
  744MOL0     H98189   5.571   9.589   0.727  1.7746  1.0570  0.3064
  744MOL0     H98190   6.509   9.245   0.916 -1.7059 -0.0952 -0.9856
  744MOL0     H98191   6.755   9.254   0.929  1.6635  0.0839  0.9131
  744MOL0     H98192   7.145   9.265   1.107 -0.0334  0.6653  1.6626
  744MOL0     H98193   7.395   9.305   1.119  1.5153  1.3387  0.9473
  744MOL0     H98194   9.398   9.735   1.249 -1.1203 -3.6765  0.8331
  744MOL0     H98195   9.638   9.802   1.245  2.7709 -0.5997 -0.3551
  744MOL0     H98196  10.022   9.873   1.039 -2.3521 -2.2775  0.4482
  744MOL0     H98197  10.271   9.927   1.049  1.2431 -1.2982 -1.4981
  744MOL0     H98198  10.551   9.589   0.997 -3.1343  0.0568  0.6189
  744MOL0     H98199  10.560   9.598   1.166  2.8992  1.0491  0.3924
  744MOL0     H98200  10.684   9.816   1.165 -0.5833  0.6869 -0.7857
  744MOL0     H98201  10.781   9.674   1.113 -0.8316 -0.8856 -0.7006
  744MOL0     H98202  10.647   9.867   0.917 -0.9739 -1.4881  0.7493
  744MOL0     H98203  10.764   9.750   0.877 -0.2697 -0.2707  0.4176
  744MOL0     H98204  10.842   9.987   1.057  1.9503  0.2424 -0.3611
  744MOL0     H98205  10.953   9.859   0.993  0.1292 -2.1525 -2.4790
  744MOL0     H98206  10.895  10.059   0.633  2.3903  0.7926  0.4987
  744MOL0     H98207  10.362   9.511   1.109  1.7673  1.7863  2.9094
  744MOL0     H98208  10.109   9.459   1.062 -3.1703  1.6358  1.5073
  745MOL0     O98209   7.095  10.038  10.308 -0.3821 -0.2550 -0.3971
  745MOL0     C98210   7.174  10.083  10.393 -0.2103  0.4661 -0.9153
  745MOL0     O98211   7.140  10.128  10.520  0.2378  0.3139 -0.1867
  745MOL0     C98212   7.006  10.138  10.566  0.0057 -0.1749 -0.1138
  745MOL0     C98213   6.910  10.039  10.551 -0.2266  0.9675 -0.6072
  745MOL0     C98214   6.782  10.063  10.610  0.4685  0.7341  0.3393
  745MOL0     C98215   6.744  10.181  10.674  0.1041 -0.6945  1.1765
  745MOL0     O98216   6.627  10.212  10.739 -0.1776  0.8564 -0.0972
  745MOL0     C98217   6.524  10.116  10.736  0.6658 -0.7613  0.5295
  745MOL0     C98218   6.396  10.197  10.790  0.1722  0.5534  0.0544
  745MOL0     C98219   6.268  10.116  10.804 -0.0938 -0.0743  0.6381
  745MOL0     C98220   6.269   9.974  10.865  0.3934  0.4616  0.6172
  745MOL0     C98221   6.120   9.913  10.892  0.4186 -0.0950  0.2149
  745MOL0     C98222   6.036   9.993  10.989 -0.0073 -0.1506 -0.5757
  745MOL0     C98223   5.899   9.928  11.004  0.0682  0.0796 -0.0883
  745MOL0     C98224   5.824   9.995  11.123 -0.2216 -0.1058  0.0358
  745MOL0     N98225   5.681   9.947  11.136 -0.2362  0.2898  0.5871
  745MOL0     C98226   5.636   9.823  11.178  1.3362  0.5451 -0.1267
  745MOL0     C98227   5.499   9.836  11.161 -0.0389  0.4009  0.1417
  745MOL0     C98228   5.401   9.725  11.169 -0.6330 -0.2220  0.4926
  745MOL0     C98229   5.262   9.756  11.125 -0.0292  0.6312 -1.1964
  745MOL0     C98230   5.188   9.839  11.227  0.6503 -0.0294  0.0602
  745MOL0     C98231   5.044   9.793  11.239 -0.1121 -0.1439  0.1531
  745MOL0     O98232   4.990   9.895  11.324 -1.0977  0.7272  0.2758
  745MOL0     C98233   4.879   9.868  11.401 -0.2472 -0.9353  0.4472
  745MOL0     C98234   4.800   9.752  11.388  0.1519 -0.3311  0.6091
  745MOL0     C98235   4.672   9.741  11.439 -0.4686  0.3992  0.0429
  745MOL0     C98236   4.609   9.852  11.499 -0.7307 -0.0281  0.1478
  745MOL0     C98237   4.470   9.843  11.543  0.2379  0.2631  0.3631
  745MOL0     O98238   4.402   9.961  11.564  1.6047  0.5478  0.8602
  745MOL0     C98239   4.266   9.976  11.566 -0.2075 -0.5349 -0.7939
  745MOL0     C98240   4.212  10.100  11.601  0.0361  0.1549  0.0794
  745MOL0     C98241   4.075  10.129  11.595 -0.3918 -0.9895 -0.4230
  745MOL0     C98242   3.981  10.028  11.574  0.3509  0.0802  0.2477
  745MOL0     O98243   3.851  10.072  11.590 -0.3538 -0.0472  0.1641
  745MOL0     C98244   3.765   9.978  11.643  1.0396 -0.5038 -0.4295
  745MOL0     C98245   3.649  10.064  11.708 -0.4287 -0.2950  0.0704
  745MOL0     C98246   3.701  10.130  11.838  0.8762  0.3066 -0.0237
  745MOL0     C98247   3.737  10.017  11.939  0.0449 -0.3094  0.7815
  745MOL0     C98248   3.624   9.917  11.973 -0.4923 -0.0971 -0.6303
  745MOL0     C98249   3.498   9.981  12.028  0.6068  0.1370  0.5736
  745MOL0     C98250   3.391   9.875  12.060 -0.0862 -0.0720 -0.0137
  745MOL0     C98251   3.263   9.925  12.116 -0.8443  0.3786 -0.4889
  745MOL0    Cl98252   3.179  10.059  12.034  0.3003  0.1137 -0.3061
  745MOL0     C98253   4.026   9.895  11.547  0.2293  0.1358 -0.0753
  745MOL0     C98254   4.168   9.875  11.536 -0.1291 -0.7379  0.3819
  745MOL0     O98255   4.430   9.728  11.567 -0.1170 -0.0576 -0.0764
  745MOL0     C98256   4.692   9.970  11.515 -0.0223  1.2996 -0.2802
  745MOL0     C98257   4.817   9.981  11.458 -0.2210 -0.0354  0.6769
  745MOL0     N98258   5.469   9.956  11.108  0.2675  0.1502 -0.2988
  745MOL0     N98259   5.576  10.021  11.086 -0.5486 -0.0608  0.5223
  745MOL0     C98260   6.842  10.281  10.670 -0.7294 -0.3508 -0.8480
  745MOL0     C98261   6.972  10.257  10.629 -0.0723 -0.8386 -0.8384
  745MOL0     C98262   7.321  10.086  10.364 -0.7516  0.1873 -0.4991
  745MOL0     C98263   7.366  10.062  10.236  0.0321 -0.3035 -0.3462
  745MOL0     C98264   7.512  10.064  10.210 -0.6352 -0.2480  0.1652
  745MOL0     C98265   7.604  10.084  10.309  0.4167 -0.5962 -0.5263
  745MOL0     O98266   7.735  10.077  10.284 -0.1898 -0.2350  0.3992
  745MOL0     C98267   7.795   9.993  10.183  0.0399  0.2589 -0.3115
  745MOL0     C98268   7.944  10.001  10.196  0.2969 -0.0041  0.1436
  745MOL0     C98269   7.986  10.132  10.136  0.5836 -0.1750 -0.2889
  745MOL0     C98270   8.139  10.142  10.150 -0.1522  0.1817 -0.1024
  745MOL0     C98271   8.206  10.044  10.061  0.1131 -0.2566  0.3035
  745MOL0     C98272   8.240   9.946   9.997 -0.2793  0.7348  0.0142
  745MOL0     C98273   7.551  10.115  10.439  0.1662  0.1166 -0.1619
  745MOL0     C98274   7.413  10.112  10.466  0.3308  0.6995  0.4198
  745MOL0     H98275   6.935   9.942  10.510 -1.8943 -0.0174  0.5562
  745MOL0     H98276   6.712   9.980  10.615  0.2518  0.9818  1.9009
  745MOL0     H98277   6.544  10.026  10.795  0.1581 -0.5834  0.9828
  745MOL0     H98278   6.499  10.079  10.636 -3.0122 -0.2032  1.1049
  745MOL0     H98279   6.377  10.283  10.726 -1.0466  0.5812  0.4266
  745MOL0     H98280   6.425  10.234  10.889  1.7339 -0.0389 -0.1488
  745MOL0     H98281   6.221  10.117  10.705  0.9955 -0.0706  0.1037
  745MOL0     H98282   6.198  10.183  10.855 -0.9380  0.3778 -1.0317
  745MOL0     H98283   6.322   9.906  10.798  1.0556 -0.2069  1.7914
  745MOL0     H98284   6.337   9.981  10.950 -0.3806  0.8971  1.2230
  745MOL0     H98285   6.128   9.805  10.907  1.1731 -0.0204  0.3769
  745MOL0     H98286   6.069   9.930  10.797  0.1345  0.1081  0.4000
  745MOL0     H98287   6.033  10.101  10.967  1.0480 -0.1191 -0.6622
  745MOL0     H98288   6.095   9.990  11.081  1.3116 -1.5924 -1.4261
  745MOL0     H98289   5.842   9.952  10.914 -4.3733  4.0406  3.3064
  745MOL0     H98290   5.915   9.820  11.017 -0.5598  0.2081  2.2580
  745MOL0     H98291   5.810  10.103  11.116 -0.1985 -0.1494 -0.8296
  745MOL0     H98292   5.874   9.978  11.219  0.2277  4.6716  0.8823
  745MOL0     H98293   5.696   9.738  11.211  0.1387 -0.4333 -0.3626
  745MOL0     H98294   5.408   9.684  11.269  0.7877  0.0528  0.5256
  745MOL0     H98295   5.439   9.652  11.097 -1.9606  0.8426 -1.3875
  745MOL0     H98296   5.207   9.663  11.108 -0.6264  0.4528  1.3060
  745MOL0     H98297   5.271   9.807  11.029 -0.9858 -1.4369 -2.4643
  745MOL0     H98298   5.235   9.848  11.325  1.0899  0.5634 -0.1964
  745MOL0     H98299   5.188   9.938  11.180 -1.7211  0.3008  0.6169
  745MOL0     H98300   5.039   9.700  11.296  0.2451  0.2915  0.9105
  745MOL0     H98301   4.991   9.795  11.144  1.0243  2.3114 -0.5047
  745MOL0     H98302   4.844   9.666  11.339  1.9349  1.5299 -1.1847
  745MOL0     H98303   4.614   9.650  11.427 -0.9736  0.7789 -0.4117
  745MOL0     H98304   4.282  10.181  11.621 -0.5006  0.7108 -0.2486
  745MOL0     H98305   4.041  10.225  11.631  0.1070 -1.7288  2.2286
  745MOL0     H98306   3.819   9.914  11.714  2.7418 -0.6060 -1.7466
  745MOL0     H98307   3.715   9.915  11.570 -1.9243  2.7199 -1.4885
  745MOL0     H98308   3.553  10.013  11.724 -0.5634 -0.2413 -0.5242
  745MOL0     H98309   3.625  10.135  11.629 -1.7197  0.2006  0.8742
  745MOL0     H98310   3.612  10.181  11.876 -1.3425 -1.8663 -1.9759
  745MOL0     H98311   3.782  10.204  11.831 -0.1041  1.5641  1.3333
  745MOL0     H98312   3.826   9.960  11.912  0.5533  1.3072 -1.1515
  745MOL0     H98313   3.774  10.069  12.028  0.9069 -0.5142  0.5552
  745MOL0     H98314   3.657   9.841  12.044  2.9377  1.9085  0.1850
  745MOL0     H98315   3.599   9.868  11.879 -3.3031  0.9495 -0.5037
  745MOL0     H98316   3.458  10.048  11.951 -3.2327 -1.0667  1.2944
  745MOL0     H98317   3.522  10.038  12.118 -2.3351  1.1079  0.8605
  745MOL0     H98318   3.363   9.825  11.966 -0.4013  0.6229 -0.2999
  745MOL0     H98319   3.445   9.812  12.130  1.0671  1.1267  0.2229
  745MOL0     H98320   3.280   9.948  12.221 -2.8055 -1.8468  0.3994
  745MOL0     H98321   3.191   9.843  12.121 -0.1909 -0.1320  2.6206
  745MOL0     H98322   3.954   9.815  11.538  1.5106 -1.3608  2.0603
  745MOL0     H98323   4.206   9.778  11.505  0.9870 -0.3067  0.3433
  745MOL0     H98324   4.651  10.055  11.569 -0.0767  0.8146  0.4629
  745MOL0     H98325   4.874  10.073  11.459  3.4812 -2.1683  1.2198
  745MOL0     H98326   6.821  10.378  10.714  1.1791 -0.5395  0.5552
  745MOL0     H98327   7.034  10.345  10.645  0.4185 -1.1657 -0.9227
  745MOL0     H98328   7.287  10.054  10.162 -2.3545  1.8329  1.7813
  745MOL0     H98329   7.543  10.054  10.106  1.0007  2.5129  0.3150
  745MOL0     H98330   7.764  10.027  10.083  0.1326 -2.2337 -1.2647
  745MOL0     H98331   7.749   9.895  10.193 -1.8134  1.0234 -1.0021
  745MOL0     H98332   7.974   9.991  10.301  1.8132 -0.4319 -0.3077
  745MOL0     H98333   8.009   9.926  10.151 -0.0517  0.4341 -1.1152
  745MOL0     H98334   7.939  10.219  10.183  0.1923  0.5740 -1.9893
  745MOL0     H98335   7.963  10.141  10.030  1.1729 -1.0365 -0.4978
  745MOL0     H98336   8.170  10.244  10.125 -1.2764  0.0200 -2.4730
  745MOL0     H98337   8.169  10.126  10.254  0.6381  1.4558 -0.1093
  745MOL0     H98338   8.259   9.862   9.933  1.4615  1.5131 -0.5440
  745MOL0     H98339   7.621  10.130  10.520 -0.9428 -2.7403  1.5013
  745MOL0     H98340   7.369  10.136  10.563  2.0921 -1.9317  1.9908
  746MOL0     O98341   5.184   5.496   6.369  1.0512 -0.2118 -0.5798
  746MOL0     C98342   5.162   5.514   6.247 -0.4152 -0.4915  0.4923
  746MOL0     O98343   5.055   5.462   6.184 -0.2100 -0.1623 -1.2730
  746MOL0     C98344   4.944   5.394   6.237  1.0309  0.2555 -0.3993
  746MOL0     C98345   4.893   5.412   6.366 -1.1052 -0.6657  0.3780
  746MOL0     C98346   4.791   5.346   6.409 -0.0658 -0.9788  0.4637
  746MOL0     C98347   4.715   5.256   6.330  0.2878 -0.3402  0.4372
  746MOL0     O98348   4.600   5.190   6.358  0.6870  0.1446  0.0706
  746MOL0     C98349   4.506   5.236   6.459 -0.0881 -0.3750 -0.7741
  746MOL0     C98350   4.526   5.199   6.607 -0.0250  0.9518  0.1352
  746MOL0     C98351   4.509   5.052   6.628  0.5434 -0.0778  0.2707
  746MOL0     C98352   4.586   4.996   6.751  0.0068 -0.0968 -0.4797
  746MOL0     C98353   4.512   4.864   6.795 -1.2297  0.4925 -0.5897
  746MOL0     C98354   4.581   4.784   6.912 -0.2862  0.2021  0.1963
  746MOL0     C98355   4.512   4.653   6.937 -0.0311 -0.2297 -0.1205
  746MOL0     C98356   4.594   4.569   7.049 -0.1930  0.2229  0.0552
  746MOL0     N98357   4.608   4.640   7.181 -0.6549  0.4169  0.1732
  746MOL0     C98358   4.557   4.593   7.297 -0.2586 -0.4876 -0.1861
  746MOL0     C98359   4.628   4.667   7.394  0.2266  1.3810 -0.4187
  746MOL0     C98360   4.629   4.638   7.541  0.5656 -0.5803  0.7486
  746MOL0     C98361   4.720   4.522   7.575  0.1637  0.5335 -0.2551
  746MOL0     C98362   4.658   4.383   7.563  0.3737  0.8918 -0.0768
  746MOL0     C98363   4.544   4.355   7.664  0.0532  0.5145 -0.4762
  746MOL0     O98364   4.420   4.394   7.607  0.2157  0.3835 -0.3927
  746MOL0     C98365   4.309   4.396   7.693  0.3201 -0.3177  0.3551
  746MOL0     C98366   4.310   4.334   7.820  0.4638  0.0658  0.0159
  746MOL0     C98367   4.186   4.305   7.890 -0.2713  0.5457 -0.4534
  746MOL0     C98368   4.062   4.348   7.836  0.3342 -1.1570 -0.6599
  746MOL0     C98369   3.934   4.326   7.909  0.4042 -0.4972  0.5635
  746MOL0     O98370   3.944   4.294   8.037 -0.6587  0.2311  0.0957
  746MOL0     C98371   3.841   4.274   8.123 -0.2985 -1.1753  0.3878
  746MOL0     C98372   3.853   4.323   8.257 -0.5671  0.1332 -0.0874
  746MOL0     C98373   3.763   4.285   8.358 -0.8017  0.5909  0.4105
  746MOL0     C98374   3.650   4.219   8.323  0.2761 -0.7794  0.2152
  746MOL0     O98375   3.554   4.181   8.413 -0.3810  0.2526 -0.3899
  746MOL0     C98376   3.494   4.269   8.510  0.3024  0.5909 -0.3721
  746MOL0     C98377   3.337   4.271   8.490 -0.2299  1.0754  0.3768
  746MOL0     C98378   3.261   4.392   8.564 -0.2307 -0.1105 -0.0977
  746MOL0     C98379   3.111   4.376   8.554  0.2441 -0.0081  0.1186
  746MOL0     C98380   3.041   4.468   8.649  0.6702  0.2493  0.0745
  746MOL0     C98381   2.892   4.429   8.641 -0.3677 -0.1023  0.2632
  746MOL0     C98382   2.806   4.492   8.752 -1.0331  0.2837 -0.0705
  746MOL0     C98383   2.657   4.453   8.764  0.2384 -0.8404 -0.8389
  746MOL0    Cl98384   2.628   4.288   8.804  0.4379 -0.0675  0.2224
  746MOL0     C98385   3.630   4.186   8.187  0.5627 -0.3722 -0.3645
  746MOL0     C98386   3.723   4.216   8.090  0.1678  0.5425 -0.2374
  746MOL0     O98387   3.829   4.358   7.850  0.7806 -0.5977 -0.0951
  746MOL0     C98388   4.066   4.411   7.705 -0.1162  0.0125  0.4779
  746MOL0     C98389   4.187   4.429   7.637 -0.6747  0.7942  0.0673
  746MOL0     N98390   4.692   4.768   7.328  0.7673  0.2231  0.1896
  746MOL0     N98391   4.693   4.743   7.200  0.2924  0.0765 -0.0309
  746MOL0     C98392   4.765   5.225   6.204  0.2420 -0.4385  0.1925
  746MOL0     C98393   4.876   5.297   6.155 -0.4162  0.4011  0.1388
  746MOL0     C98394   5.265   5.580   6.163  1.0407  1.0330 -0.2924
  746MOL0     C98395   5.239   5.646   6.048  0.5194 -0.4366  0.4855
  746MOL0     C98396   5.339   5.711   5.976 -0.1960  0.3609 -0.7964
  746MOL0     C98397   5.473   5.716   6.021  0.0456  0.1254  0.2263
  746MOL0     O98398   5.557   5.804   5.962  0.1731 -0.3339 -0.4016
  746MOL0     C98399   5.673   5.845   6.037 -0.4982  1.1796  0.3460
  746MOL0     C98400   5.729   5.983   5.998  0.7415  0.2222  0.1517
  746MOL0     C98401   5.773   5.994   5.850  0.2674  0.8083  0.2992
  746MOL0     C98402   5.809   6.130   5.802  0.3259 -0.3430  0.4782
  746MOL0     C98403   5.940   6.159   5.841  0.0880 -0.1942 -0.0627
  746MOL0     C98404   6.046   6.191   5.884 -0.6949 -0.3622  0.3951
  746MOL0     C98405   5.501   5.629   6.125 -0.3317 -0.3608 -0.5484
  746MOL0     C98406   5.396   5.562   6.200  0.1167  0.4066 -0.0015
  746MOL0     H98407   4.939   5.485   6.433 -0.4630  3.4270 -3.9606
  746MOL0     H98408   4.749   5.363   6.507  1.1438 -0.0006  0.8346
  746MOL0     H98409   4.408   5.195   6.433 -0.1710 -0.1595 -0.8044
  746MOL0     H98410   4.490   5.343   6.444  1.5996 -0.1066 -0.8277
  746MOL0     H98411   4.449   5.242   6.671 -1.2509 -0.0705 -0.6126
  746MOL0     H98412   4.627   5.223   6.644 -0.2840 -0.9027  2.2394
  746MOL0     H98413   4.550   5.002   6.540 -1.4126 -3.9152  1.3353
  746MOL0     H98414   4.401   5.040   6.629  0.3403  0.5027 -3.1896
  746MOL0     H98415   4.691   4.975   6.729 -0.0948 -3.5663  1.6676
  746MOL0     H98416   4.595   5.071   6.831  0.7365 -0.2237 -0.4393
  746MOL0     H98417   4.520   4.802   6.705 -0.0597 -0.3747  0.0800
  746MOL0     H98418   4.407   4.883   6.818 -0.6174  2.8768  0.5783
  746MOL0     H98419   4.572   4.854   6.996  1.4138  3.6081 -2.2242
  746MOL0     H98420   4.687   4.769   6.891 -0.5753  0.1792 -1.4093
  746MOL0     H98421   4.407   4.656   6.971 -0.9710 -2.3751 -2.5299
  746MOL0     H98422   4.520   4.590   6.848  3.3160 -0.6505  0.3476
  746MOL0     H98423   4.697   4.556   7.016  0.4053  1.9223  1.1271
  746MOL0     H98424   4.541   4.473   7.059 -0.6311  0.5638  1.2508
  746MOL0     H98425   4.492   4.508   7.315 -1.6422  0.6627  0.5034
  746MOL0     H98426   4.522   4.619   7.551  0.2063 -0.1855 -1.7173
  746MOL0     H98427   4.651   4.730   7.596 -3.1741 -1.1871  3.6916
  746MOL0     H98428   4.766   4.544   7.672  0.8693 -1.7303 -0.0320
  746MOL0     H98429   4.798   4.511   7.498 -0.5261  0.4279 -0.9538
  746MOL0     H98430   4.628   4.372   7.459  1.0738  0.0515 -0.2025
  746MOL0     H98431   4.736   4.313   7.594 -1.7392 -1.8113 -0.5804
  746MOL0     H98432   4.560   4.403   7.761  0.0299 -2.5495  1.1511
  746MOL0     H98433   4.542   4.247   7.677 -0.2324  0.7649  2.2046
  746MOL0     H98434   4.400   4.305   7.874 -0.0787  0.2100  1.0378
  746MOL0     H98435   4.186   4.252   7.984 -3.0416 -1.1764 -1.3274
  746MOL0     H98436   3.947   4.373   8.281  0.2744 -1.1222 -0.6594
  746MOL0     H98437   3.786   4.315   8.460  0.3184 -0.7862  0.5916
  746MOL0     H98438   3.519   4.375   8.504  0.5128  0.4706 -2.1982
  746MOL0     H98439   3.507   4.236   8.613 -0.8498  2.4870  0.4406
  746MOL0     H98440   3.300   4.175   8.526 -0.7809  1.2610  0.3255
  746MOL0     H98441   3.321   4.266   8.382  0.0867 -0.3567  0.3863
  746MOL0     H98442   3.285   4.496   8.539  0.3305 -0.2706 -0.2444
  746MOL0     H98443   3.279   4.385   8.671 -2.5412 -0.2222  0.3288
  746MOL0     H98444   3.085   4.406   8.452  0.7799 -1.0747 -0.3499
  746MOL0     H98445   3.085   4.273   8.581 -0.4516 -0.3352 -1.6747
  746MOL0     H98446   3.067   4.572   8.630  0.4742  0.7260  2.1651
  746MOL0     H98447   3.079   4.439   8.747 -0.5350  2.7918  1.3743
  746MOL0     H98448   2.888   4.323   8.667  0.4469 -0.3897 -0.7321
  746MOL0     H98449   2.844   4.448   8.545  1.2438 -1.5664 -0.8878
  746MOL0     H98450   2.851   4.474   8.850 -0.0051  0.8330 -0.4134
  746MOL0     H98451   2.818   4.599   8.729  0.0803 -0.1304 -1.5751
  746MOL0     H98452   2.619   4.484   8.666 -0.0276  0.1570 -0.4249
  746MOL0     H98453   2.612   4.512   8.844  1.1393 -0.3018 -0.7132
  746MOL0     H98454   3.535   4.139   8.161  0.8068 -0.8326 -0.4318
  746MOL0     H98455   3.713   4.189   7.986  0.6608 -1.8199  0.2804
  746MOL0     H98456   3.976   4.449   7.658 -0.2432  0.0363  0.7379
  746MOL0     H98457   4.183   4.481   7.541  0.5030 -1.0618 -1.0534
  746MOL0     H98458   4.722   5.150   6.139 -0.9938  0.9313 -0.6472
  746MOL0     H98459   4.917   5.271   6.058  0.2605 -0.0530  0.5347
  746MOL0     H98460   5.136   5.662   6.018  0.6998  0.5365  0.3288
  746MOL0     H98461   5.311   5.778   5.896 -0.3399 -1.8310 -2.6637
  746MOL0     H98462   5.751   5.769   6.023  0.1144  2.0043 -0.8721
  746MOL0     H98463   5.650   5.854   6.143 -0.3064 -4.5902  1.2291
  746MOL0     H98464   5.640   6.044   6.012  0.5463 -0.3514  1.6118
  746MOL0     H98465   5.805   6.018   6.069  1.3480 -2.0235  0.6972
  746MOL0     H98466   5.696   5.947   5.788  0.4751  0.7131  0.1165
  746MOL0     H98467   5.859   5.929   5.838 -0.6707 -0.2962 -0.6457
  746MOL0     H98468   5.790   6.143   5.695  2.3195  0.1538  0.1466
  746MOL0     H98469   5.741   6.204   5.846 -1.4729 -1.9650  0.5891
  746MOL0     H98470   6.140   6.206   5.933  1.2083 -0.3424 -2.9674
  746MOL0     H98471   5.598   5.603   6.167 -0.2439 -0.3717 -0.7587
  746MOL0     H98472   5.418   5.489   6.276  0.2911 -0.6017 -0.9924
  747MOL0     O98473   9.118   2.180   8.535  0.4009  0.2276 -0.3652
  747MOL0     C98474   9.141   2.178   8.660 -0.1434 -0.5510  0.2316
  747MOL0     O98475   9.060   2.135   8.759 -0.5457 -0.6692  0.7347
  747MOL0     C98476   8.925   2.135   8.737 -0.3590 -1.0966  0.2267
  747MOL0     C98477   8.847   2.023   8.779 -0.1034 -0.1706  0.5306
  747MOL0     C98478   8.712   2.021   8.751 -0.7907 -0.3649  0.1920
  747MOL0     C98479   8.651   2.129   8.687 -0.2795 -0.2675  0.3067
  747MOL0     O98480   8.516   2.113   8.679 -0.6116  0.4606  0.0898
  747MOL0     C98481   8.441   2.219   8.622 -0.5499 -0.0308  0.2899
  747MOL0     C98482   8.295   2.178   8.585 -0.1282  0.3526  0.8046
  747MOL0     C98483   8.255   2.168   8.440 -0.0096  0.2881  0.9205
  747MOL0     C98484   8.233   2.300   8.373  0.3267 -0.2647  0.2191
  747MOL0     C98485   8.112   2.370   8.419  0.2572 -0.0771 -0.4361
  747MOL0     C98486   8.068   2.476   8.319 -0.6681 -0.5981 -0.3358
  747MOL0     C98487   7.957   2.576   8.376 -0.5458  0.5230 -0.0831
  747MOL0     C98488   8.008   2.671   8.482 -0.5300  0.7155 -0.3862
  747MOL0     N98489   7.916   2.785   8.487  0.1586  0.0714  0.0845
  747MOL0     C98490   7.779   2.787   8.506 -0.2250  0.4746  0.2434
  747MOL0     C98491   7.750   2.922   8.525  0.8631  0.3328  0.2963
  747MOL0     C98492   7.612   2.978   8.540 -0.2153 -0.5286  0.1245
  747MOL0     C98493   7.501   2.868   8.539  0.0826 -0.1631  0.5433
  747MOL0     C98494   7.368   2.921   8.587 -0.5916 -0.1480 -0.3067
  747MOL0     C98495   7.250   2.835   8.553  0.8510  0.2745  0.5930
  747MOL0     O98496   7.233   2.827   8.407 -0.0873 -0.0364  0.5984
  747MOL0     C98497   7.113   2.788   8.353 -0.4606  0.1988  0.4771
  747MOL0     C98498   6.986   2.784   8.423  0.0857 -0.0289 -0.5459
  747MOL0     C98499   6.864   2.743   8.363  0.3854 -0.3025 -0.2857
  747MOL0     C98500   6.860   2.724   8.227 -0.1756 -0.2186  0.0953
  747MOL0     C98501   6.741   2.681   8.153  0.1625  0.0671 -0.2165
  747MOL0     O98502   6.630   2.667   8.228 -0.0050 -0.5034 -0.3728
  747MOL0     C98503   6.522   2.610   8.156 -0.0853 -0.1383  0.1131
  747MOL0     C98504   6.479   2.483   8.191  0.9176  0.4460 -0.0260
  747MOL0     C98505   6.359   2.439   8.127  0.0204 -0.0625 -0.0087
  747MOL0     C98506   6.291   2.507   8.025 -0.5685 -0.0389 -0.0579
  747MOL0     O98507   6.177   2.441   7.984  0.2692 -0.2290 -0.2700
  747MOL0     C98508   6.062   2.515   8.000  0.5057  0.1636 -0.9339
  747MOL0     C98509   5.948   2.420   7.997  0.3383 -0.5422 -0.1718
  747MOL0     C98510   5.918   2.368   7.857 -0.1549  0.4242  0.5523
  747MOL0     C98511   5.842   2.237   7.870 -0.4738 -0.3722  0.2704
  747MOL0     C98512   5.795   2.181   7.734  0.1243 -0.0423 -0.0164
  747MOL0     C98513   5.918   2.127   7.658  0.2818 -0.1619  1.4035
  747MOL0     C98514   5.868   2.093   7.512 -0.5563 -0.0518 -0.3655
  747MOL0     C98515   5.998   2.065   7.432 -0.1799 -0.3660 -1.0919
  747MOL0    Cl98516   5.950   1.989   7.275  0.1873  0.2719  0.2093
  747MOL0     C98517   6.337   2.630   7.987  0.2250 -0.0572  0.3932
  747MOL0     C98518   6.453   2.680   8.054 -0.5149  0.2438 -0.0905
  747MOL0     O98519   6.755   2.652   8.030  0.3536  0.5132 -0.0679
  747MOL0     C98520   6.992   2.720   8.159 -0.0892 -0.8496  0.7188
  747MOL0     C98521   7.114   2.755   8.224  1.0402 -0.3311  0.3638
  747MOL0     N98522   7.862   2.994   8.480  0.3544  0.0455  0.1633
  747MOL0     N98523   7.965   2.912   8.464  0.5625  0.6100  0.9904
  747MOL0     C98524   8.725   2.245   8.651 -0.3888  1.0188  0.5132
  747MOL0     C98525   8.860   2.240   8.673 -0.2437 -0.0760 -0.9032
  747MOL0     C98526   9.277   2.210   8.700  0.3544  0.4430  0.0312
  747MOL0     C98527   9.348   2.144   8.805 -0.0050 -0.6115  0.2385
  747MOL0     C98528   9.483   2.165   8.829  0.6589  0.5841 -0.2575
  747MOL0     C98529   9.553   2.263   8.750  0.6631 -0.1664 -0.1712
  747MOL0     O98530   9.686   2.302   8.769 -0.0139  0.6605 -0.0187
  747MOL0     C98531   9.765   2.257   8.878  0.3205 -0.1383  0.1414
  747MOL0     C98532   9.731   2.348   9.002  0.9833 -0.4357 -0.3086
  747MOL0     C98533   9.776   2.304   9.136 -0.7238 -0.0737  0.5643
  747MOL0     C98534   9.709   2.175   9.195 -0.8444  0.6850 -0.5754
  747MOL0     C98535   9.562   2.194   9.207  0.1287 -0.4868 -0.2196
  747MOL0     C98536   9.439   2.215   9.222  1.2291  0.5248  0.1022
  747MOL0     C98537   9.481   2.332   8.655 -0.0781 -0.4725 -0.3519
  747MOL0     C98538   9.352   2.301   8.623 -0.2478  0.7295  0.1627
  747MOL0     H98539   8.898   1.938   8.822 -0.8135 -1.7743 -1.5745
  747MOL0     H98540   8.644   1.946   8.788 -0.5332  0.6905  3.0902
  747MOL0     H98541   8.490   2.243   8.528 -0.0786  0.6985  0.7030
  747MOL0     H98542   8.443   2.305   8.691 -1.9378  0.0807  0.2265
  747MOL0     H98543   8.222   2.244   8.633 -0.1957  2.1639 -1.6025
  747MOL0     H98544   8.269   2.081   8.628  1.2257 -0.7782 -0.7776
  747MOL0     H98545   8.160   2.113   8.434  0.1954 -0.1393  1.5619
  747MOL0     H98546   8.333   2.105   8.398  0.8089  1.7100  0.2281
  747MOL0     H98547   8.320   2.367   8.383 -2.2985  3.4299  0.5289
  747MOL0     H98548   8.232   2.270   8.268  0.1687  0.0006  0.1412
  747MOL0     H98549   8.142   2.420   8.512  4.1314 -0.0931 -1.4933
  747MOL0     H98550   8.031   2.302   8.444  1.4065 -0.9903  0.9545
  747MOL0     H98551   8.026   2.425   8.232 -0.5456 -1.0027 -0.1577
  747MOL0     H98552   8.151   2.536   8.281 -0.8901  0.3330  0.6136
  747MOL0     H98553   7.936   2.639   8.288 -1.0741 -1.4323 -1.4301
  747MOL0     H98554   7.875   2.517   8.416  0.9712 -0.6824  1.4168
  747MOL0     H98555   8.111   2.700   8.458  0.9677 -3.4745  0.0681
  747MOL0     H98556   8.017   2.618   8.577 -1.1100  2.4385  0.6732
  747MOL0     H98557   7.712   2.703   8.516 -0.2953  0.5784  0.6720
  747MOL0     H98558   7.597   3.061   8.470 -0.8467 -0.0680  0.7917
  747MOL0     H98559   7.622   3.024   8.639  3.2811 -1.9340  0.5751
  747MOL0     H98560   7.525   2.787   8.609  1.6261  0.7585  1.1404
  747MOL0     H98561   7.479   2.831   8.438  0.0584  1.2968 -0.0101
  747MOL0     H98562   7.374   2.930   8.695  0.5698  2.2005 -0.5030
  747MOL0     H98563   7.356   3.021   8.544  0.1948  0.1067  0.0539
  747MOL0     H98564   7.160   2.885   8.589  3.8944  4.1340  3.6564
  747MOL0     H98565   7.253   2.739   8.606 -2.0799  0.4577  1.2815
  747MOL0     H98566   6.984   2.808   8.529 -0.6197  0.0112 -0.5631
  747MOL0     H98567   6.776   2.724   8.424 -1.0806 -1.0843 -2.5326
  747MOL0     H98568   6.527   2.430   8.272 -0.7069  0.6841  1.1481
  747MOL0     H98569   6.317   2.344   8.159  1.3230 -1.0346 -1.0745
  747MOL0     H98570   6.058   2.596   7.927 -0.0181  1.4286  0.4352
  747MOL0     H98571   6.053   2.561   8.099 -1.8891 -2.9913  0.4988
  747MOL0     H98572   5.859   2.477   8.027 -0.4589 -1.7128 -0.2549
  747MOL0     H98573   5.970   2.344   8.073 -0.8121 -1.6323 -0.8783
  747MOL0     H98574   6.016   2.342   7.818 -0.4411  0.4328 -0.1808
  747MOL0     H98575   5.873   2.443   7.791 -1.5150 -1.7409 -1.1351
  747MOL0     H98576   5.895   2.156   7.921  0.8812 -0.3025 -0.9458
  747MOL0     H98577   5.750   2.267   7.920  1.8318  2.2180  3.4454
  747MOL0     H98578   5.739   2.251   7.672 -1.7466 -1.2200  0.2528
  747MOL0     H98579   5.715   2.109   7.754 -1.2255  0.7352 -2.3488
  747MOL0     H98580   5.965   2.038   7.701  0.7752  0.2909  1.8220
  747MOL0     H98581   5.997   2.201   7.644 -1.3977  1.5293  0.4825
  747MOL0     H98582   5.798   2.009   7.518 -1.7946  1.0662  1.8576
  747MOL0     H98583   5.807   2.175   7.474 -2.0472 -0.7686  0.4031
  747MOL0     H98584   6.065   2.001   7.491 -1.2327  0.9423  1.7545
  747MOL0     H98585   6.055   2.155   7.411 -0.5720 -0.1300 -1.1542
  747MOL0     H98586   6.285   2.684   7.908  0.8273  1.3677  0.9447
  747MOL0     H98587   6.482   2.783   8.035  0.1882  0.2096  0.7389
  747MOL0     H98588   6.987   2.691   8.055 -0.7951 -0.1472  0.5440
  747MOL0     H98589   7.207   2.735   8.172  0.8276 -0.0027 -0.1556
  747MOL0     H98590   8.683   2.330   8.598  0.7849  0.1579 -1.8938
  747MOL0     H98591   8.916   2.324   8.633  0.6254  0.6378  1.5826
  747MOL0     H98592   9.289   2.067   8.854 -1.1622 -0.3100 -0.6159
  747MOL0     H98593   9.521   2.125   8.922  2.0978  0.8570 -0.7035
  747MOL0     H98594   9.872   2.262   8.860 -0.0162  1.9346 -1.7305
  747MOL0     H98595   9.736   2.158   8.916 -2.4634  1.0388  1.4090
  747MOL0     H98596   9.753   2.453   8.981  0.2527 -0.6846 -2.7323
  747MOL0     H98597   9.622   2.361   9.008  0.9371 -0.6377 -0.6110
  747MOL0     H98598   9.754   2.387   9.205 -2.1367 -0.1171  0.1921
  747MOL0     H98599   9.885   2.291   9.133 -0.8230 -0.7776 -2.1372
  747MOL0     H98600   9.743   2.086   9.142  1.1581 -0.2463  2.0998
  747MOL0     H98601   9.741   2.144   9.295  0.4252  0.7033 -0.9547
  747MOL0     H98602   9.336   2.234   9.244  0.7068 -3.0144  1.4302
  747MOL0     H98603   9.543   2.406   8.607  0.4968 -0.0688  0.9744
  747MOL0     H98604   9.309   2.342   8.532 -1.1077  1.4271  0.8624
  748MOL0     O98605  10.605   0.141  10.670 -0.2051 -0.8272  0.4876
  748MOL0     C98606  10.620   0.234  10.585 -0.0865  0.3934 -0.2561
  748MOL0     O98607  10.516   0.296  10.519 -0.0860 -0.1803 -0.1587
  748MOL0     C98608  10.397   0.233  10.519 -0.3465  0.2015  0.5405
  748MOL0     C98609  10.300   0.274  10.610  0.3401 -0.2872 -0.1157
  748MOL0     C98610  10.175   0.213  10.605  0.3721  0.3329  0.0145
  748MOL0     C98611  10.148   0.108  10.523  0.4861 -0.0094  0.1779
  748MOL0     O98612  10.035   0.031  10.517 -0.3273  0.0022  0.6638
  748MOL0     C98613   9.969   0.006  10.645  0.6429 -0.5305  0.0633
  748MOL0     C98614   9.818   0.064  10.642 -0.3415  0.0221 -0.2943
  748MOL0     C98615   9.756   0.068  10.783  0.1730  0.4849  0.0224
  748MOL0     C98616   9.609   0.076  10.775  0.2204  0.2888 -0.0409
  748MOL0     C98617   9.530   0.056  10.904 -0.2066 -0.8147 -0.2307
  748MOL0     C98618   9.382   0.070  10.895  0.8781 -0.0507 -0.2580
  748MOL0     C98619   9.312  -0.066  10.860  0.5624 -0.5753  0.4206
  748MOL0     C98620   9.158  -0.045  10.849  0.5020 -0.9996 -1.0253
  748MOL0     N98621   9.086  -0.177  10.857  0.6121  0.0773  0.2205
  748MOL0     C98622   9.029  -0.230  10.971 -0.2549  0.7756 -0.3251
  748MOL0     C98623   9.001  -0.355  10.943  0.2149  0.6261 -0.1756
  748MOL0     C98624   8.936  -0.456  11.040 -0.2106  0.9756  0.2855
  748MOL0     C98625   9.015  -0.495  11.169 -1.1338 -0.2408  0.1453
  748MOL0     C98626   9.158  -0.551  11.138 -0.3064 -0.7934 -0.1181
  748MOL0     C98627   9.245  -0.575  11.260  0.2521 -0.1809 -0.4550
  748MOL0     O98628   9.339  -0.679  11.240 -0.1711  0.0246  0.5702
  748MOL0     C98629   9.471  -0.646  11.211  0.6733  0.4434 -0.4338
  748MOL0     C98630   9.529  -0.516  11.215  0.4649 -0.5412 -0.1764
  748MOL0     C98631   9.666  -0.501  11.196  0.6254 -1.0672 -0.0768
  748MOL0     C98632   9.751  -0.612  11.173  0.1471 -0.2901 -0.3877
  748MOL0     C98633   9.888  -0.600  11.129 -0.0556  0.0411  0.1494
  748MOL0     O98634   9.933  -0.710  11.058  0.0010 -0.2809 -0.2578
  748MOL0     C98635  10.066  -0.717  11.027  1.0912 -0.4590  0.5007
  748MOL0     C98636  10.152  -0.777  11.116 -0.4819 -0.4223 -0.6044
  748MOL0     C98637  10.291  -0.781  11.091 -0.0345  0.0190 -0.5806
  748MOL0     C98638  10.336  -0.745  10.965 -0.5213 -0.3159  0.1536
  748MOL0     O98639  10.468  -0.766  10.932 -0.3819 -0.0228  0.2571
  748MOL0     C98640  10.502  -0.876  10.844 -0.5902 -0.0681  0.0042
  748MOL0     C98641  10.648  -0.866  10.792  0.7579 -0.1659  0.8681
  748MOL0     C98642  10.741  -0.940  10.886 -0.4038  0.5794 -0.2804
  748MOL0     C98643  10.737  -0.894  11.029 -0.2058 -0.2033  0.2626
  748MOL0     C98644  10.844  -0.967  11.120  1.1756 -0.0471 -0.0094
  748MOL0     C98645  10.988  -0.938  11.098 -0.0493 -0.2940  0.2945
  748MOL0     C98646  11.092  -0.999  11.190 -0.2321  0.6393  0.0522
  748MOL0     C98647  11.076  -1.148  11.215 -0.9310  0.2378 -0.6913
  748MOL0    Cl98648  11.107  -1.234  11.054  0.3747 -0.2394 -0.4941
  748MOL0     C98649  10.243  -0.693  10.873 -0.5415  0.2465 -1.3177
  748MOL0     C98650  10.110  -0.680  10.901  0.0963  0.2246 -0.6987
  748MOL0     O98651   9.959  -0.501  11.161 -0.0933  0.5965 -0.2841
  748MOL0     C98652   9.690  -0.739  11.189 -0.4870 -0.5866 -0.2673
  748MOL0     C98653   9.560  -0.755  11.213 -0.4335 -0.2178 -0.0883
  748MOL0     N98654   9.029  -0.374  10.808  0.2474 -0.1864 -0.0703
  748MOL0     N98655   9.084  -0.270  10.760  0.2782  0.1280  0.1127
  748MOL0     C98656  10.242   0.072  10.424  0.4548 -0.1058 -0.8059
  748MOL0     C98657  10.369   0.132  10.429  0.0570  0.0718  0.7785
  748MOL0     C98658  10.756   0.278  10.569 -0.5138 -0.4344  0.8990
  748MOL0     C98659  10.864   0.249  10.654 -0.7094 -0.1237  0.3163
  748MOL0     C98660  10.995   0.298  10.622  0.2639 -0.7169  0.3172
  748MOL0     C98661  11.016   0.396  10.527 -0.0699 -0.2858  0.6819
  748MOL0     O98662  11.139   0.445  10.529 -0.6443 -0.0025 -0.1356
  748MOL0     C98663  11.175   0.574  10.465  1.0229  0.2046  0.1721
  748MOL0     C98664  11.323   0.615  10.475  0.0476  0.0101 -0.4799
  748MOL0     C98665  11.354   0.605  10.623 -0.1226 -0.3445 -0.4247
  748MOL0     C98666  11.489   0.684  10.659 -0.9185  0.4398  1.2821
  748MOL0     C98667  11.605   0.658  10.568  0.7026  0.1333 -0.2807
  748MOL0     C98668  11.689   0.628  10.493 -0.5271  0.4385  0.0822
  748MOL0     C98669  10.911   0.445  10.449  0.5947  0.2117 -0.7223
  748MOL0     C98670  10.783   0.384  10.470 -0.0998  0.1087  0.7049
  748MOL0     H98671  10.330   0.349  10.681  1.5149  0.5486 -1.4396
  748MOL0     H98672  10.103   0.240  10.682 -0.1309 -0.9791  0.0230
  748MOL0     H98673  10.029   0.048  10.727  1.3818  1.0386 -1.2249
  748MOL0     H98674   9.965  -0.099  10.675 -0.1672  0.0321  2.1020
  748MOL0     H98675   9.756  -0.003  10.582 -1.0672 -1.1082  1.6274
  748MOL0     H98676   9.823   0.167  10.605 -1.8654  0.4313  0.5550
  748MOL0     H98677   9.789   0.154  10.842  3.4192 -2.3200  2.7185
  748MOL0     H98678   9.788  -0.026  10.828  1.6297 -0.1416 -2.1895
  748MOL0     H98679   9.589   0.176  10.737  0.0466 -0.1989 -1.2762
  748MOL0     H98680   9.578   0.003  10.699  0.0940 -1.2509  1.4415
  748MOL0     H98681   9.579   0.131  10.966  0.8804  0.1898 -2.2231
  748MOL0     H98682   9.548  -0.042  10.949 -0.9595 -1.6986 -1.7587
  748MOL0     H98683   9.356   0.144  10.819 -1.8890  0.1960  0.7980
  748MOL0     H98684   9.345   0.107  10.991 -2.4310  0.9695 -1.7649
  748MOL0     H98685   9.345  -0.086  10.757  0.2346 -0.6953  0.3364
  748MOL0     H98686   9.338  -0.152  10.921 -3.5467 -0.9014  1.9830
  748MOL0     H98687   9.137   0.013  10.759  0.6490 -1.5497 -1.4195
  748MOL0     H98688   9.123   0.018  10.930  0.4956  1.4018 -2.7922
  748MOL0     H98689   9.011  -0.187  11.069 -2.4872  1.2802 -0.9010
  748MOL0     H98690   8.938  -0.552  10.987  1.2553  0.9199  0.3960
  748MOL0     H98691   8.838  -0.433  11.083 -0.8793 -1.5477  0.2892
  748MOL0     H98692   8.956  -0.567  11.226 -1.8922  0.1345 -0.1583
  748MOL0     H98693   9.023  -0.402  11.226  0.9715  0.3830 -1.0340
  748MOL0     H98694   9.136  -0.650  11.097 -3.0006 -1.3696  2.3871
  748MOL0     H98695   9.210  -0.486  11.068 -0.0864 -0.5196  0.2949
  748MOL0     H98696   9.176  -0.597  11.342 -2.2912  1.8064 -1.9073
  748MOL0     H98697   9.290  -0.477  11.280 -0.7912  0.1457  0.4326
  748MOL0     H98698   9.468  -0.430  11.241  0.3197 -0.9290  0.8224
  748MOL0     H98699   9.707  -0.401  11.188 -0.2676 -0.6157  0.8215
  748MOL0     H98700  10.115  -0.803  11.215 -1.6774  0.6690 -0.7346
  748MOL0     H98701  10.359  -0.828  11.161  0.6290  1.0376 -0.5158
  748MOL0     H98702  10.446  -0.866  10.750  2.4494 -1.9141 -2.1899
  748MOL0     H98703  10.494  -0.977  10.887  4.3741 -0.3455  0.7910
  748MOL0     H98704  10.673  -0.761  10.771  1.0501 -0.3214  0.4319
  748MOL0     H98705  10.643  -0.928  10.702 -0.8842 -1.1963  1.6304
  748MOL0     H98706  10.844  -0.938  10.849 -0.1621 -0.1639  0.3088
  748MOL0     H98707  10.712  -1.046  10.881 -1.1961  0.7093  1.0114
  748MOL0     H98708  10.768  -0.790  11.021  0.8908 -0.5034  0.3970
  748MOL0     H98709  10.633  -0.913  11.057  0.6666 -3.3565  1.8465
  748MOL0     H98710  10.838  -1.073  11.093  2.6656 -0.1303 -0.1297
  748MOL0     H98711  10.816  -0.952  11.225  1.2882  0.0419  0.0095
  748MOL0     H98712  10.999  -0.829  11.097 -0.8584 -0.2070 -0.4846
  748MOL0     H98713  11.014  -0.973  10.998  0.3380  0.0337  0.2769
  748MOL0     H98714  11.180  -0.981  11.127 -1.9318  1.0244 -2.3433
  748MOL0     H98715  11.102  -0.956  11.290  0.7738 -2.5838  1.4813
  748MOL0     H98716  10.974  -1.170  11.247 -0.4333 -0.7983  0.2332
  748MOL0     H98717  11.155  -1.174  11.286 -2.2666  0.6860  1.0222
  748MOL0     H98718  10.287  -0.659  10.780 -0.6748 -1.6340 -2.1097
  748MOL0     H98719  10.035  -0.637  10.835 -0.4058 -0.5951 -0.6705
  748MOL0     H98720   9.745  -0.830  11.168 -0.5663 -0.5191 -0.7761
  748MOL0     H98721   9.511  -0.852  11.215 -2.5817  0.8036  1.8810
  748MOL0     H98722  10.232  -0.014  10.359  0.0292  0.3729 -1.3818
  748MOL0     H98723  10.452   0.093  10.370  2.0903 -1.4548  4.3592
  748MOL0     H98724  10.844   0.181  10.736  2.0306 -0.7014  0.5944
  748MOL0     H98725  11.078   0.261  10.683  1.6615 -1.2097 -1.7654
  748MOL0     H98726  11.110   0.649  10.510 -1.5564 -2.7653  1.7825
  748MOL0     H98727  11.148   0.576  10.358  0.0546  0.3099  0.4100
  748MOL0     H98728  11.387   0.550  10.414 -0.3822 -0.0606 -0.8627
  748MOL0     H98729  11.338   0.717  10.440  1.5908 -0.0533 -0.0636
  748MOL0     H98730  11.391   0.503  10.638 -1.1016 -0.5983  0.3784
  748MOL0     H98731  11.266   0.621  10.686 -0.3112  1.8527 -1.1714
  748MOL0     H98732  11.474   0.791  10.640  0.1353  0.4471  0.3876
  748MOL0     H98733  11.530   0.666  10.759  0.8738  0.8028  0.6510
  748MOL0     H98734  11.745   0.584  10.413 -0.6652 -0.9988  0.7426
  748MOL0     H98735  10.917   0.520  10.370 -0.1511  1.2656  0.1827
  748MOL0     H98736  10.701   0.406  10.402 -0.3362 -1.2938  0.4867
  749MOL0     O98737   7.237  10.446   9.420  0.5619 -0.4901  0.0774
  749MOL0     C98738   7.270  10.538   9.491  0.2239 -0.1067  0.1337
  749MOL0     O98739   7.193  10.637   9.545 -1.1754 -0.7282  0.3447
  749MOL0     C98740   7.055  10.618   9.556 -0.5978 -0.6413  0.8323
  749MOL0     C98741   7.004  10.538   9.659  0.3220  0.2062 -0.3742
  749MOL0     C98742   6.865  10.525   9.670 -0.8117 -0.1963  0.4737
  749MOL0     C98743   6.781  10.588   9.584 -0.3649 -0.2371 -0.9298
  749MOL0     O98744   6.654  10.552   9.592  0.5595 -0.1093 -0.6416
  749MOL0     C98745   6.554  10.649   9.567 -0.7554  0.2943 -0.1963
  749MOL0     C98746   6.411  10.586   9.573 -0.0974  0.4366 -0.1214
  749MOL0     C98747   6.299  10.681   9.598 -0.2848  0.1477  0.0078
  749MOL0     C98748   6.168  10.614   9.580 -1.4791 -0.5664  0.3799
  749MOL0     C98749   6.055  10.707   9.594  0.7888 -0.7665 -0.0030
  749MOL0     C98750   5.928  10.637   9.553 -0.1141  0.4461 -0.0834
  749MOL0     C98751   5.815  10.737   9.531  0.1320  0.1164 -0.3087
  749MOL0     C98752   5.680  10.679   9.513  0.6005 -0.1869 -0.2625
  749MOL0     N98753   5.637  10.570   9.601 -0.3664  0.3280  0.3971
  749MOL0     C98754   5.585  10.583   9.729 -0.6744  0.1204 -0.2973
  749MOL0     C98755   5.561  10.456   9.775  0.2477  0.2339 -0.1452
  749MOL0     C98756   5.478  10.421   9.904  0.6451 -0.4801 -0.2156
  749MOL0     C98757   5.324  10.424   9.877  0.4432 -0.1122 -0.5598
  749MOL0     C98758   5.258  10.363  10.007  0.0504 -0.5189  0.4467
  749MOL0     C98759   5.114  10.333   9.988  1.1258  0.7439  0.5955
  749MOL0     O98760   5.056  10.237  10.079 -0.9857  0.0982  0.1636
  749MOL0     C98761   4.917  10.217  10.074  0.6450  0.0119 -0.1426
  749MOL0     C98762   4.851  10.178  10.194 -0.5735 -0.0065 -0.0287
  749MOL0     C98763   4.710  10.159  10.200 -0.3079  0.0707 -0.1499
  749MOL0     C98764   4.631  10.163  10.082  0.1313  0.2935  0.1246
  749MOL0     C98765   4.486  10.133  10.088 -0.4139  0.0071  0.5217
  749MOL0     O98766   4.444  10.077  10.202 -1.1557 -0.0351  0.5602
  749MOL0     C98767   4.312  10.044  10.220  0.4449 -0.2370 -0.3661
  749MOL0     C98768   4.278   9.932  10.298  0.3735 -0.7012  0.1806
  749MOL0     C98769   4.150   9.880  10.301  0.6163  0.8359  0.7525
  749MOL0     C98770   4.043   9.950  10.252 -0.1981 -1.6409  0.1177
  749MOL0     O98771   3.921   9.907  10.283  0.8173  0.1556 -0.1980
  749MOL0     C98772   3.813   9.999  10.303 -0.1965  0.3547 -0.5773
  749MOL0     C98773   3.710   9.919  10.378 -0.6145  0.1985 -0.4994
  749MOL0     C98774   3.625  10.021  10.454 -0.0821 -0.0331  0.9217
  749MOL0     C98775   3.562  10.117  10.354  0.7467 -0.6008  0.4008
  749MOL0     C98776   3.464  10.217  10.427 -1.0716  0.0175  0.3314
  749MOL0     C98777   3.324  10.161  10.447 -0.2696  0.1442  0.9098
  749MOL0     C98778   3.234  10.262  10.522 -0.2141  0.4615  0.1869
  749MOL0     C98779   3.086  10.239  10.481  0.2932  0.6887  0.3453
  749MOL0    Cl98780   3.014  10.101  10.562  0.1724 -0.2137 -0.0887
  749MOL0     C98781   4.072  10.080  10.198  0.6242  0.4677  0.8077
  749MOL0     C98782   4.206  10.124  10.170  0.7041 -0.4799  0.5973
  749MOL0     O98783   4.422  10.149   9.982  0.6042  0.2852  0.2390
  749MOL0     C98784   4.698  10.197   9.955 -0.2509  1.0394 -0.2233
  749MOL0     C98785   4.836  10.226   9.959 -0.5507 -0.5687  0.0998
  749MOL0     N98786   5.608  10.363   9.683  0.4010  0.7277 -0.2987
  749MOL0     N98787   5.651  10.434   9.581  0.2035  0.4705 -0.3160
  749MOL0     C98788   6.832  10.669   9.483 -0.4139  0.1773 -0.0335
  749MOL0     C98789   6.972  10.683   9.468  0.5481 -0.8613 -1.7278
  749MOL0     C98790   7.417  10.547   9.519  0.4735  0.5094 -0.9457
  749MOL0     C98791   7.464  10.644   9.606  0.0747 -0.8095  0.0435
  749MOL0     C98792   7.597  10.651   9.637 -0.4387  0.5039 -0.2525
  749MOL0     C98793   7.694  10.559   9.589  0.3575  0.3661  0.5219
  749MOL0     O98794   7.820  10.548   9.646  0.4283 -0.1128  0.0654
  749MOL0     C98795   7.884  10.667   9.708  0.8916  0.8261 -0.1098
  749MOL0     C98796   8.011  10.618   9.773 -0.2382 -0.5581 -0.0498
  749MOL0     C98797   8.135  10.593   9.685 -0.0847 -0.2394  1.1029
  749MOL0     C98798   8.232  10.520   9.774  0.6201 -0.1817  0.2127
  749MOL0     C98799   8.344  10.482   9.687  0.6538 -0.0929 -0.7019
  749MOL0     C98800   8.437  10.455   9.602  0.6952 -0.6556 -0.5219
  749MOL0     C98801   7.647  10.457   9.507 -0.1017 -0.6799 -0.0807
  749MOL0     C98802   7.510  10.451   9.467 -0.8443  0.3786  0.2310
  749MOL0     H98803   7.073  10.486   9.724 -0.2203  2.4941  2.2171
  749MOL0     H98804   6.828  10.451   9.740 -1.8251 -1.5397 -1.3960
  749MOL0     H98805   6.564  10.682   9.463  1.5907  4.3499  1.1387
  749MOL0     H98806   6.573  10.731   9.636  1.4222 -0.6963  0.4501
  749MOL0     H98807   6.416  10.524   9.663 -0.8427 -0.6677 -0.8099
  749MOL0     H98808   6.394  10.523   9.485 -2.5427 -1.1401  1.3475
  749MOL0     H98809   6.301  10.764   9.526 -1.0840 -1.2558 -1.7111
  749MOL0     H98810   6.316  10.717   9.700  1.5082 -2.5964  0.8005
  749MOL0     H98811   6.162  10.563   9.484  2.8957 -1.0486  0.1551
  749MOL0     H98812   6.162  10.540   9.660  1.5592  1.2562  2.5155
  749MOL0     H98813   6.068  10.785   9.518 -0.9401  0.8633  1.2593
  749MOL0     H98814   6.053  10.743   9.697  0.7874  2.0961 -0.9014
  749MOL0     H98815   5.901  10.562   9.629  0.7187 -0.5428 -0.7464
  749MOL0     H98816   5.939  10.588   9.456 -0.2353  0.6050 -0.1769
  749MOL0     H98817   5.814  10.811   9.611 -0.0090  0.0218 -0.2236
  749MOL0     H98818   5.832  10.798   9.442 -0.4992 -1.0421 -1.2527
  749MOL0     H98819   5.665  10.640   9.412 -0.8102 -2.1973  0.6539
  749MOL0     H98820   5.621  10.770   9.531  2.8962  1.1366  1.1438
  749MOL0     H98821   5.547  10.668   9.785  1.8831  0.3985  1.1883
  749MOL0     H98822   5.497  10.490   9.986  0.5438  1.5231 -1.8158
  749MOL0     H98823   5.499  10.320   9.940  1.0110 -0.1902  0.3847
  749MOL0     H98824   5.292  10.386   9.780 -0.3085  0.7228 -0.6523
  749MOL0     H98825   5.297  10.530   9.870  0.2537 -0.0588  0.7602
  749MOL0     H98826   5.307  10.266  10.016  2.9934  0.9795  1.6033
  749MOL0     H98827   5.272  10.434  10.089  0.9472  0.7839 -0.7963
  749MOL0     H98828   5.114  10.276   9.894 -1.8798 -1.0658  1.5814
  749MOL0     H98829   5.058  10.426   9.978 -0.2686 -0.2150 -1.1847
  749MOL0     H98830   4.908  10.156  10.284  2.2674  1.3837 -1.3597
  749MOL0     H98831   4.653  10.140  10.290  0.0280 -0.1392  0.0183
  749MOL0     H98832   4.354   9.877  10.352 -1.4535 -1.8045  1.7419
  749MOL0     H98833   4.135   9.796  10.368  0.3743 -0.7407 -1.1919
  749MOL0     H98834   3.783  10.049  10.211  0.8149  2.5816  0.2115
  749MOL0     H98835   3.846  10.080  10.369  1.4957 -0.2269 -0.6517
  749MOL0     H98836   3.757   9.856  10.454 -1.2790 -0.8897 -0.9682
  749MOL0     H98837   3.656   9.858  10.306 -0.5279 -0.2685 -0.1724
  749MOL0     H98838   3.681  10.075  10.531 -1.1991  1.5216  0.6661
  749MOL0     H98839   3.541   9.970  10.501  0.2347  0.3710  1.9388
  749MOL0     H98840   3.638  10.186  10.316 -2.0592  3.4663  1.4060
  749MOL0     H98841   3.512  10.063  10.273 -2.9826  1.2645  1.2274
  749MOL0     H98842   3.458  10.308  10.367  3.6218  0.1427 -0.3341
  749MOL0     H98843   3.506  10.247  10.524  1.0209 -0.0148 -0.4987
  749MOL0     H98844   3.321  10.064  10.498  0.3464 -0.7961 -0.7520
  749MOL0     H98845   3.286  10.157  10.344  0.1413  1.7037  0.6688
  749MOL0     H98846   3.238  10.238  10.628  0.2035 -2.8687 -0.4811
  749MOL0     H98847   3.259  10.368  10.507 -3.0713  1.4031  1.3989
  749MOL0     H98848   3.067  10.224  10.374 -0.0821 -0.0489  0.5125
  749MOL0     H98849   3.038  10.333  10.510  0.1192  0.4432  0.8560
  749MOL0     H98850   3.987  10.138  10.162  1.6567  0.9318 -1.0010
  749MOL0     H98851   4.214  10.215  10.112 -0.5490 -0.7644 -0.0589
  749MOL0     H98852   4.638  10.209   9.865  1.0631 -2.7454 -1.7816
  749MOL0     H98853   4.892  10.233   9.866  0.2928 -1.6434  0.5014
  749MOL0     H98854   6.778  10.728   9.409  1.8472  2.2046 -0.2097
  749MOL0     H98855   7.021  10.738   9.388  2.3410  0.3847  0.1452
  749MOL0     H98856   7.393  10.713   9.651  1.2796 -0.2284  1.0868
  749MOL0     H98857   7.614  10.730   9.709  0.9703  0.1348 -0.1488
  749MOL0     H98858   7.811  10.703   9.781  3.1968  0.6240  2.4962
  749MOL0     H98859   7.919  10.745   9.640  0.4422 -1.4650 -3.2018
  749MOL0     H98860   8.039  10.694   9.847  0.9884  0.2341 -1.2672
  749MOL0     H98861   7.994  10.525   9.828  0.6366  0.3136  1.7849
  749MOL0     H98862   8.181  10.686   9.651  1.2174 -1.8269 -1.8765
  749MOL0     H98863   8.112  10.534   9.596 -0.8227  0.2745  0.9380
  749MOL0     H98864   8.277  10.577   9.856  1.7878  0.1119 -0.5952
  749MOL0     H98865   8.192  10.434   9.828  0.5168 -0.3163 -0.0734
  749MOL0     H98866   8.517  10.436   9.534 -0.0583  1.9667 -2.3117
  749MOL0     H98867   7.730  10.397   9.473 -0.9962 -0.4316 -3.0318
  749MOL0     H98868   7.487  10.377   9.390  1.3205 -1.4706  1.2622
  750MOL0     O98869  11.051   4.189   6.289 -0.1018 -0.3532  0.3503
  750MOL0     C98870  11.021   4.256   6.386 -0.1618 -0.2706 -0.6967
  750MOL0     O98871  10.896   4.316   6.403 -0.8867 -0.4543  1.1897
  750MOL0     C98872  10.800   4.279   6.310  0.5379 -0.1899  0.2135
  750MOL0     C98873  10.768   4.371   6.198 -0.5160  0.0827 -0.3443
  750MOL0     C98874  10.667   4.333   6.108 -0.2532 -0.4217  0.4326
  750MOL0     C98875  10.583   4.228   6.131 -0.0088 -0.2085 -0.1965
  750MOL0     O98876  10.478   4.201   6.035 -0.0723 -0.2019 -0.6326
  750MOL0     C98877  10.427   4.065   6.021 -0.1416  0.4955  0.0369
  750MOL0     C98878  10.328   4.070   5.896  0.2189  0.2157  0.0656
  750MOL0     C98879  10.199   4.146   5.934 -0.0420  0.7372  0.5398
  750MOL0     C98880  10.197   4.300   5.912  0.2229 -0.6609 -0.0525
  750MOL0     C98881  10.060   4.365   5.876 -0.3327 -0.4440 -0.1263
  750MOL0     C98882   9.978   4.297   5.767  0.6326 -0.0556  0.3912
  750MOL0     C98883   9.864   4.388   5.718  0.0039 -0.0190 -0.0414
  750MOL0     C98884   9.730   4.313   5.714 -0.0991 -0.2718 -0.5931
  750MOL0     N98885   9.712   4.250   5.582 -0.0704 -0.0491  1.3299
  750MOL0     C98886   9.598   4.261   5.509  0.6572 -0.4859 -1.0944
  750MOL0     C98887   9.608   4.168   5.407 -0.3824 -0.7550  0.3931
  750MOL0     C98888   9.512   4.150   5.294 -0.4218  0.2713 -0.1611
  750MOL0     C98889   9.403   4.060   5.342 -0.0436  0.1339  0.1562
  750MOL0     C98890   9.328   4.007   5.228  0.2602  0.1651 -0.8338
  750MOL0     C98891   9.195   3.957   5.270  0.2261  0.2381 -0.7533
  750MOL0     O98892   9.146   3.901   5.150 -0.3395  0.2078  0.0375
  750MOL0     C98893   9.039   3.817   5.148  0.5096  0.3883 -0.1947
  750MOL0     C98894   8.994   3.726   5.253  0.6170  1.1737 -0.0323
  750MOL0     C98895   8.880   3.645   5.239 -0.5342 -0.4750  0.5942
  750MOL0     C98896   8.808   3.650   5.120  0.0297  0.1638  0.6601
  750MOL0     C98897   8.679   3.587   5.120  0.0921 -0.6252 -0.2677
  750MOL0     O98898   8.653   3.496   5.216  0.0073 -0.9647 -0.5330
  750MOL0     C98899   8.525   3.448   5.253 -0.7265 -0.5461  1.4854
  750MOL0     C98900   8.535   3.360   5.357 -0.1332  0.2029  0.6272
  750MOL0     C98901   8.426   3.285   5.397 -0.2727  0.4535  0.3891
  750MOL0     C98902   8.301   3.311   5.344  0.4203  0.5037  0.5072
  750MOL0     O98903   8.195   3.241   5.397 -0.4292 -0.8120  0.7440
  750MOL0     C98904   8.060   3.306   5.389 -0.4840  0.2020 -0.3753
  750MOL0     C98905   7.949   3.209   5.450  0.6152  1.0261 -0.5377
  750MOL0     C98906   7.799   3.254   5.426  0.2893  0.1959 -0.0812
  750MOL0     C98907   7.710   3.139   5.469 -0.2487 -0.1961  1.1298
  750MOL0     C98908   7.559   3.158   5.440  0.1101 -0.4380  0.1214
  750MOL0     C98909   7.523   3.192   5.293 -0.0291  0.9578 -0.3070
  750MOL0     C98910   7.369   3.205   5.275 -0.5872  0.1036  0.5477
  750MOL0     C98911   7.312   3.069   5.305 -0.1588  0.1259 -0.0672
  750MOL0    Cl98912   7.164   3.060   5.209 -0.0157 -0.2982  0.3430
  750MOL0     C98913   8.290   3.413   5.240  0.0298  0.2162  0.1785
  750MOL0     C98914   8.397   3.480   5.195 -0.8545  0.3083 -0.8236
  750MOL0     O98915   8.603   3.613   5.031  0.3144  0.5457  0.2441
  750MOL0     C98916   8.847   3.741   5.019  0.4411 -0.0221 -0.3051
  750MOL0     C98917   8.956   3.821   5.034 -0.5487  0.3865  0.0328
  750MOL0     N98918   9.712   4.090   5.437  0.2427 -0.1069  0.4697
  750MOL0     N98919   9.786   4.143   5.526  0.1438 -0.2332 -1.1425
  750MOL0     C98920  10.618   4.138   6.231  0.4360 -0.7529  0.2827
  750MOL0     C98921  10.719   4.164   6.322 -0.6335 -0.4696 -0.2008
  750MOL0     C98922  11.119   4.270   6.501 -1.1964 -0.9616  0.7900
  750MOL0     C98923  11.095   4.329   6.624  0.8182  0.2431 -1.4008
  750MOL0     C98924  11.195   4.334   6.725  0.1924  1.3388  0.5530
  750MOL0     C98925  11.326   4.276   6.701  0.3830 -0.3831 -0.4543
  750MOL0     O98926  11.425   4.263   6.795  0.4806 -0.2818 -0.2347
  750MOL0     C98927  11.425   4.367   6.904  0.1425  1.5978 -0.4364
  750MOL0     C98928  11.561   4.436   6.923  0.4358  0.1272 -0.3461
  750MOL0     C98929  11.610   4.493   6.791  0.3917 -0.5556 -1.0725
  750MOL0     C98930  11.724   4.602   6.822  0.5287  0.0714  0.4569
  750MOL0     C98931  11.844   4.540   6.879 -0.2627 -0.1717 -0.0234
  750MOL0     C98932  11.938   4.471   6.919 -0.6127 -0.0942  0.0357
  750MOL0     C98933  11.349   4.221   6.568 -0.6825 -0.0267 -0.5348
  750MOL0     C98934  11.247   4.220   6.479 -0.2767  0.6252 -0.1774
  750MOL0     H98935  10.834   4.457   6.190  1.6470 -1.3755  0.7525
  750MOL0     H98936  10.631   4.392   6.025  0.6284  0.3788  0.5954
  750MOL0     H98937  10.371   4.039   6.111  1.0063 -2.6183 -0.0356
  750MOL0     H98938  10.514   4.002   6.002 -0.3762  0.4622 -0.9786
  750MOL0     H98939  10.319   3.964   5.870  1.4292 -0.0024  0.4460
  750MOL0     H98940  10.374   4.123   5.812 -2.2350  3.2695  0.4700
  750MOL0     H98941  10.180   4.120   6.039  2.4691 -1.3965  0.5824
  750MOL0     H98942  10.119   4.101   5.874  0.7098  1.1540 -0.8096
  750MOL0     H98943  10.238   4.344   6.003 -0.0809 -0.8120  0.1581
  750MOL0     H98944  10.262   4.319   5.826 -0.6625 -1.2811 -0.8819
  750MOL0     H98945  10.085   4.467   5.845 -1.4270 -0.0745  0.1692
  750MOL0     H98946   9.994   4.361   5.963 -0.8735 -1.8838 -0.5653
  750MOL0     H98947   9.934   4.198   5.783 -2.6645  1.0087 -1.2098
  750MOL0     H98948  10.050   4.283   5.685 -0.5709  0.1173 -0.7287
  750MOL0     H98949   9.850   4.478   5.779 -2.9025  0.4503 -1.2445
  750MOL0     H98950   9.873   4.423   5.615 -2.3564  0.5716 -0.0953
  750MOL0     H98951   9.650   4.387   5.724 -0.8149 -0.9892 -0.8516
  750MOL0     H98952   9.726   4.253   5.805  0.7393 -0.7220 -0.8398
  750MOL0     H98953   9.516   4.332   5.518  2.1056  1.1560 -0.2879
  750MOL0     H98954   9.557   4.102   5.206  0.8861  0.9531  0.1165
  750MOL0     H98955   9.473   4.250   5.273  1.7565  1.6524  1.8572
  750MOL0     H98956   9.342   4.103   5.423  0.7373 -0.3890  1.0413
  750MOL0     H98957   9.441   3.969   5.390 -0.1487  0.4475  0.8438
  750MOL0     H98958   9.313   4.088   5.156 -0.9022  1.4899  0.8153
  750MOL0     H98959   9.387   3.930   5.179  0.7995 -0.8962  1.3685
  750MOL0     H98960   9.133   4.032   5.319 -1.1640 -1.3150 -0.0667
  750MOL0     H98961   9.210   3.875   5.340 -1.1257 -0.1028 -0.8457
  750MOL0     H98962   9.035   3.726   5.353  1.8822  0.7300 -0.5278
  750MOL0     H98963   8.863   3.585   5.328 -1.1782 -1.3922 -0.1331
  750MOL0     H98964   8.629   3.334   5.405 -1.0569 -2.2705  1.2665
  750MOL0     H98965   8.435   3.193   5.454 -2.5884 -0.3477 -0.4394
  750MOL0     H98966   8.043   3.317   5.281 -1.8812  0.7722 -0.1131
  750MOL0     H98967   8.054   3.399   5.445 -0.0843  0.1457 -0.2403
  750MOL0     H98968   7.964   3.213   5.558  1.1899  0.3895 -0.5911
  750MOL0     H98969   7.974   3.110   5.413 -1.9193  0.2380 -0.3571
  750MOL0     H98970   7.780   3.277   5.320 -1.2957  0.2521  0.1937
  750MOL0     H98971   7.774   3.348   5.476 -0.4059  1.5292 -2.7107
  750MOL0     H98972   7.733   3.049   5.412  2.2971 -0.2555  2.1133
  750MOL0     H98973   7.734   3.123   5.574  2.2909 -2.6713  0.2983
  750MOL0     H98974   7.534   3.250   5.494  1.4908  0.5369 -0.8274
  750MOL0     H98975   7.495   3.075   5.471 -0.8587  0.7403  1.4013
  750MOL0     H98976   7.572   3.125   5.222 -0.7344  0.4533 -0.3321
  750MOL0     H98977   7.571   3.288   5.272  0.8168  0.7623  0.6916
  750MOL0     H98978   7.330   3.279   5.345  0.2700  0.6067  0.5076
  750MOL0     H98979   7.338   3.236   5.174 -2.1827  1.0001  1.2732
  750MOL0     H98980   7.282   3.063   5.409 -1.3381  1.9275 -0.2663
  750MOL0     H98981   7.384   2.991   5.278 -1.2685 -0.3795 -1.7467
  750MOL0     H98982   8.195   3.443   5.197 -1.5387 -1.3345  2.3339
  750MOL0     H98983   8.375   3.556   5.120  0.3204  1.0131 -0.4836
  750MOL0     H98984   8.792   3.759   4.927 -1.6146  3.0436  1.3335
  750MOL0     H98985   8.980   3.898   4.961 -0.3603 -0.1732 -0.5089
  750MOL0     H98986  10.563   4.045   6.237 -0.3278 -0.3065  0.4011
  750MOL0     H98987  10.748   4.084   6.391 -0.1434  0.5244  0.7737
  750MOL0     H98988  10.995   4.363   6.648  1.0764 -1.3990  2.7498
  750MOL0     H98989  11.160   4.366   6.823 -3.1887 -0.2885  0.0011
  750MOL0     H98990  11.391   4.316   6.995  2.0353  0.1753 -0.4633
  750MOL0     H98991  11.353   4.445   6.879 -0.7006  1.2452  0.7982
  750MOL0     H98992  11.562   4.504   7.009  1.5019  0.7261 -0.8122
  750MOL0     H98993  11.628   4.354   6.949  1.4898  0.3399 -2.2487
  750MOL0     H98994  11.526   4.537   6.737  1.0944  0.8441 -1.0868
  750MOL0     H98995  11.652   4.416   6.726 -0.8871  0.1896 -2.8542
  750MOL0     H98996  11.738   4.650   6.725 -1.9283 -2.5693 -1.4137
  750MOL0     H98997  11.686   4.677   6.892  0.4020  0.1513  0.3040
  750MOL0     H98998  12.018   4.417   6.965  0.0738  0.0953 -0.8934
  750MOL0     H98999  11.446   4.179   6.542  0.2897  2.1669 -0.7263
  750MOL0     H99000  11.266   4.159   6.392  0.5263 -0.0041  0.4283
  751MOL0     O99001   7.492   4.204   9.608 -0.2295  0.0491 -0.0264
  751MOL0     C99002   7.522   4.141   9.505  0.6584  0.4490 -1.0256
  751MOL0     O99003   7.439   4.042   9.453  0.0550  0.6987 -0.2870
  751MOL0     C99004   7.322   4.007   9.514 -1.0334  0.3307 -0.1132
  751MOL0     C99005   7.201   4.071   9.482 -0.5436 -0.1940  0.9820
  751MOL0     C99006   7.087   4.024   9.544 -0.1973  0.5216  0.2228
  751MOL0     C99007   7.095   3.923   9.639  0.7006  0.3975 -0.6955
  751MOL0     O99008   6.984   3.884   9.711  0.1998 -1.0061 -0.4058
  751MOL0     C99009   6.852   3.909   9.665  0.5939  0.2285 -0.5407
  751MOL0     C99010   6.758   3.806   9.729  0.3423 -0.2892  0.7806
  751MOL0     C99011   6.623   3.796   9.647 -0.1458  0.6280  0.8414
  751MOL0     C99012   6.523   3.700   9.703  0.9784 -0.1000 -0.3379
  751MOL0     C99013   6.383   3.742   9.645 -0.1567  0.1812 -0.0400
  751MOL0     C99014   6.275   3.644   9.673 -0.4216  0.1603 -0.2234
  751MOL0     C99015   6.146   3.670   9.600  0.4371 -0.7362 -0.1635
  751MOL0     C99016   6.080   3.793   9.673  0.5022 -0.0308  0.5827
  751MOL0     N99017   5.933   3.781   9.660  1.0995 -0.5263  0.0002
  751MOL0     C99018   5.861   3.837   9.561  0.3498  0.2796  0.2303
  751MOL0     C99019   5.731   3.801   9.587 -0.0544 -0.1277 -0.5065
  751MOL0     C99020   5.605   3.843   9.506  0.5757  0.6299 -0.0985
  751MOL0     C99021   5.566   3.739   9.397 -0.1775 -0.0058 -1.0664
  751MOL0     C99022   5.681   3.709   9.304  0.3469 -0.0150 -0.4762
  751MOL0     C99023   5.711   3.830   9.210  0.8866  0.5414 -0.2506
  751MOL0     O99024   5.804   3.786   9.113 -0.6548  0.3929 -0.5210
  751MOL0     C99025   5.928   3.757   9.160 -0.4843  0.5274 -0.7261
  751MOL0     C99026   6.010   3.856   9.220  0.3615  0.5309  0.2810
  751MOL0     C99027   6.151   3.836   9.238 -0.0965  0.4407  0.1532
  751MOL0     C99028   6.201   3.702   9.214  0.1055  0.3326  0.5474
  751MOL0     C99029   6.348   3.682   9.239  0.3904  0.5335  0.2328
  751MOL0     O99030   6.402   3.563   9.229 -0.0080 -0.1459  0.0036
  751MOL0     C99031   6.521   3.558   9.302  0.1964 -0.5981 -0.4930
  751MOL0     C99032   6.525   3.479   9.421 -0.9365 -0.4166  0.7668
  751MOL0     C99033   6.647   3.454   9.485  0.1071 -0.1386 -0.2437
  751MOL0     C99034   6.763   3.517   9.432 -1.0715  0.2848  0.0870
  751MOL0     O99035   6.886   3.499   9.483 -0.4118 -0.6403 -0.1488
  751MOL0     C99036   6.912   3.399   9.585  0.0237 -0.2501 -0.4415
  751MOL0     C99037   7.065   3.418   9.632  0.3899 -0.4186  0.9120
  751MOL0     C99038   7.158   3.424   9.510 -0.0317  0.5137  0.0172
  751MOL0     C99039   7.309   3.427   9.547 -0.0070 -0.3418  0.4340
  751MOL0     C99040   7.389   3.481   9.426 -0.3497  0.4980  0.6170
  751MOL0     C99041   7.542   3.469   9.451 -0.1951  0.3413 -0.4101
  751MOL0     C99042   7.631   3.537   9.344  0.7864 -0.7296  0.8177
  751MOL0     C99043   7.763   3.474   9.331  0.2538 -0.1198 -0.2769
  751MOL0    Cl99044   7.725   3.325   9.244 -0.4034  0.5061 -0.4326
  751MOL0     C99045   6.761   3.599   9.325 -0.7181 -0.4962 -0.4829
  751MOL0     C99046   6.639   3.619   9.260 -0.7979 -0.7657 -0.5307
  751MOL0     O99047   6.403   3.785   9.285 -0.6721  0.0271  0.1606
  751MOL0     C99048   6.112   3.602   9.169 -0.6482 -0.7033  0.2994
  751MOL0     C99049   5.973   3.626   9.141 -0.6703  0.6667  0.0341
  751MOL0     N99050   5.717   3.727   9.700 -0.4762  0.1926 -0.2150
  751MOL0     N99051   5.846   3.723   9.745  0.5766 -0.0906 -0.1696
  751MOL0     C99052   7.214   3.846   9.661 -0.7747  0.4364  0.2208
  751MOL0     C99053   7.331   3.890   9.598  0.1577 -0.9672 -0.6464
  751MOL0     C99054   7.651   4.164   9.440 -0.0546  0.3359 -0.2515
  751MOL0     C99055   7.689   4.095   9.324  0.9333  0.3203 -0.4989
  751MOL0     C99056   7.810   4.117   9.265 -0.4244  0.9808 -0.3389
  751MOL0     C99057   7.901   4.217   9.319 -0.8097  0.2377  0.2522
  751MOL0     O99058   8.035   4.236   9.286  0.2448  0.0414  0.3082
  751MOL0     C99059   8.095   4.185   9.172  0.3089 -0.7357  0.7348
  751MOL0     C99060   8.241   4.217   9.189  0.6722 -0.4130 -0.0090
  751MOL0     C99061   8.315   4.175   9.052 -0.6405  0.8067 -0.4795
  751MOL0     C99062   8.466   4.157   9.079 -0.7155  0.2934 -0.9426
  751MOL0     C99063   8.540   4.106   8.960  0.5001 -0.3230 -0.2060
  751MOL0     C99064   8.595   4.063   8.868 -0.3118  0.1793  0.5152
  751MOL0     C99065   7.861   4.288   9.433  0.4849  1.4734  0.6049
  751MOL0     C99066   7.737   4.267   9.489  0.2427  0.1987 -0.6734
  751MOL0     H99067   7.201   4.163   9.425  0.1328 -0.2833  0.8286
  751MOL0     H99068   7.001   4.090   9.549 -0.6174  0.0605 -0.6979
  751MOL0     H99069   6.843   3.904   9.556 -0.8703  1.5701 -0.5120
  751MOL0     H99070   6.810   4.006   9.693  0.6956  1.5549 -4.3718
  751MOL0     H99071   6.741   3.822   9.836  0.1007 -1.6704  0.9644
  751MOL0     H99072   6.807   3.708   9.728  0.7773 -0.1285 -1.6766
  751MOL0     H99073   6.643   3.754   9.549  0.5864  2.0783  0.3439
  751MOL0     H99074   6.572   3.892   9.639 -0.7717  0.3244  1.1181
  751MOL0     H99075   6.540   3.594   9.683 -0.1698 -1.0067  2.8130
  751MOL0     H99076   6.516   3.704   9.812  1.2437 -0.3656 -0.3091
  751MOL0     H99077   6.382   3.745   9.536 -0.9325 -3.1468 -0.2418
  751MOL0     H99078   6.341   3.836   9.683 -2.4274 -0.5757 -0.5111
  751MOL0     H99079   6.250   3.643   9.779  1.4205 -1.5824  0.2722
  751MOL0     H99080   6.293   3.539   9.648 -3.9819  0.0823 -3.3336
  751MOL0     H99081   6.158   3.695   9.494 -1.9205 -2.9246 -1.0553
  751MOL0     H99082   6.090   3.576   9.606  0.2130 -0.4981  3.2214
  751MOL0     H99083   6.118   3.885   9.628  0.1402 -1.0296 -1.8987
  751MOL0     H99084   6.099   3.797   9.781 -0.4558 -0.5066  0.7804
  751MOL0     H99085   5.889   3.892   9.471 -0.8988 -0.5947 -0.7294
  751MOL0     H99086   5.603   3.943   9.461 -0.4836  0.8521  0.4105
  751MOL0     H99087   5.518   3.833   9.571  1.0395 -3.2265  0.1811
  751MOL0     H99088   5.475   3.772   9.346 -1.2495 -2.0088 -0.5632
  751MOL0     H99089   5.537   3.653   9.458  1.5542 -2.0845 -2.9781
  751MOL0     H99090   5.767   3.676   9.364  1.2609  0.4202 -1.5090
  751MOL0     H99091   5.651   3.624   9.243 -1.2953  0.7978 -0.8589
  751MOL0     H99092   5.746   3.913   9.272  1.3778  0.5024 -0.4631
  751MOL0     H99093   5.621   3.860   9.156 -0.9973 -1.4267  1.6005
  751MOL0     H99094   5.964   3.954   9.227 -0.9258 -0.0692  0.6974
  751MOL0     H99095   6.210   3.924   9.264 -2.4777  2.1616  0.0748
  751MOL0     H99096   6.435   3.438   9.465 -1.0874 -2.0541 -0.9578
  751MOL0     H99097   6.650   3.383   9.567  1.6719 -2.1374 -1.9379
  751MOL0     H99098   6.903   3.295   9.554  2.7737 -0.6658 -0.1294
  751MOL0     H99099   6.863   3.423   9.680 -0.6212  0.6966 -0.9980
  751MOL0     H99100   7.099   3.339   9.699  0.1110 -1.2669  0.0826
  751MOL0     H99101   7.074   3.509   9.692 -0.0169  1.0414 -1.1369
  751MOL0     H99102   7.136   3.515   9.454 -1.1618  0.8364  0.9676
  751MOL0     H99103   7.139   3.335   9.449 -0.4561  1.2081 -0.8808
  751MOL0     H99104   7.317   3.487   9.638 -0.7940 -3.2953  2.5993
  751MOL0     H99105   7.341   3.326   9.574 -0.7101 -0.2724  1.5473
  751MOL0     H99106   7.355   3.582   9.400 -0.7106  0.2123 -0.0153
  751MOL0     H99107   7.354   3.417   9.345 -2.9090 -0.8181  2.5959
  751MOL0     H99108   7.560   3.361   9.451  0.7951  0.4937  0.1833
  751MOL0     H99109   7.563   3.505   9.553 -4.1480  0.9772  0.3397
  751MOL0     H99110   7.590   3.530   9.243  2.7427 -0.6126 -0.0199
  751MOL0     H99111   7.646   3.641   9.372  3.6751 -1.2212  1.3271
  751MOL0     H99112   7.797   3.463   9.435  0.2752 -1.0143 -0.3704
  751MOL0     H99113   7.833   3.532   9.271  0.2924  2.3439  1.9555
  751MOL0     H99114   6.850   3.656   9.298  1.0524 -2.3353  1.1344
  751MOL0     H99115   6.627   3.691   9.180 -2.9647  0.2508  0.6104
  751MOL0     H99116   6.157   3.503   9.162  2.4880  0.5560  1.0056
  751MOL0     H99117   5.898   3.556   9.108 -0.0933  1.0079 -2.1915
  751MOL0     H99118   7.204   3.760   9.725  0.4850 -0.2382 -0.4398
  751MOL0     H99119   7.425   3.841   9.620  0.4597 -0.5397 -0.9547
  751MOL0     H99120   7.618   4.031   9.273  0.6426  1.5231 -1.6926
  751MOL0     H99121   7.838   4.063   9.175  0.7902  1.1725 -0.0974
  751MOL0     H99122   8.053   4.234   9.083  0.4346  1.9438  2.0484
  751MOL0     H99123   8.073   4.079   9.156 -2.1759 -0.1242 -0.4617
  751MOL0     H99124   8.262   4.320   9.218  0.0387 -0.4503  0.5976
  751MOL0     H99125   8.273   4.148   9.268 -0.4320 -0.0191  0.8056
  751MOL0     H99126   8.294   4.252   8.977 -0.1587  2.0915  0.6464
  751MOL0     H99127   8.275   4.086   9.003 -0.6537  0.3263  0.3849
  751MOL0     H99128   8.513   4.249   9.115 -2.2279  0.6838  0.1553
  751MOL0     H99129   8.472   4.079   9.156  1.3125  1.2421 -0.0804
  751MOL0     H99130   8.651   4.027   8.784  1.7809  2.3835  0.8357
  751MOL0     H99131   7.920   4.366   9.481 -2.4987  2.5406  2.8084
  751MOL0     H99132   7.710   4.335   9.570  3.5071  0.5872  0.2466
  752MOL0     O99133   1.652   3.622   9.581 -0.1667  0.4609 -0.4680
  752MOL0     C99134   1.629   3.636   9.702 -0.7485  0.8805  0.3096
  752MOL0     O99135   1.693   3.717   9.786  0.0896 -0.1124  0.5332
  752MOL0     C99136   1.792   3.802   9.732 -0.6451  0.2195 -0.1491
  752MOL0     C99137   1.770   3.914   9.641 -0.0050  0.6005 -0.9000
  752MOL0     C99138   1.881   3.989   9.602 -0.3284  0.3522 -0.1747
  752MOL0     C99139   2.012   3.971   9.654 -0.4316  0.0606  0.7259
  752MOL0     O99140   2.107   4.064   9.619  0.5985 -0.0267  0.2486
  752MOL0     C99141   2.241   4.021   9.653  0.5246  0.9369  0.1671
  752MOL0     C99142   2.328   4.124   9.595 -0.6936  0.1321 -0.1235
  752MOL0     C99143   2.471   4.108   9.652  0.6809  0.7180  0.4455
  752MOL0     C99144   2.572   4.212   9.606 -0.4519  0.6377 -0.1320
  752MOL0     C99145   2.708   4.180   9.668  0.5253  0.6396  0.4103
  752MOL0     C99146   2.812   4.286   9.641 -0.4152  0.8073  0.2711
  752MOL0     C99147   2.945   4.271   9.720  0.6142  0.3981  0.2147
  752MOL0     C99148   3.029   4.394   9.715 -0.1226 -0.2127 -0.0718
  752MOL0     N99149   3.113   4.431   9.595 -0.0149  0.4771 -0.8834
  752MOL0     C99150   3.202   4.359   9.519 -0.6462 -0.2389 -0.3105
  752MOL0     C99151   3.210   4.434   9.401 -0.7697  0.3396  0.9214
  752MOL0     C99152   3.273   4.399   9.269  0.1483  0.1825  0.2875
  752MOL0     C99153   3.427   4.405   9.278 -0.9184  0.2522  0.3337
  752MOL0     C99154   3.489   4.547   9.273  0.4720  0.2156 -0.2237
  752MOL0     C99155   3.632   4.540   9.320 -1.2357 -0.5428 -0.1687
  752MOL0     O99156   3.692   4.666   9.312 -0.4686  0.1494  0.0549
  752MOL0     C99157   3.791   4.678   9.216 -0.1712  0.0165 -0.4772
  752MOL0     C99158   3.764   4.686   9.078 -0.2789 -0.1647  0.4886
  752MOL0     C99159   3.872   4.703   8.997 -1.0024 -0.0666 -0.6951
  752MOL0     C99160   4.009   4.705   9.041 -0.5563  0.1451  0.0889
  752MOL0     C99161   4.126   4.730   8.954 -0.7073  1.0563 -0.9363
  752MOL0     O99162   4.106   4.780   8.828 -0.3665  0.2522 -0.4889
  752MOL0     C99163   4.217   4.808   8.742  0.5579  0.2485 -0.7787
  752MOL0     C99164   4.190   4.893   8.632 -0.7199 -0.1863 -0.4655
  752MOL0     C99165   4.287   4.942   8.544 -0.2981 -0.9695 -0.1897
  752MOL0     C99166   4.425   4.892   8.565  0.3499  0.0278  0.1248
  752MOL0     O99167   4.516   4.952   8.480  0.0509  0.7369 -0.6572
  752MOL0     C99168   4.653   4.894   8.475 -0.4522  0.4602  0.9993
  752MOL0     C99169   4.727   4.960   8.360  0.3531  0.1066  0.3083
  752MOL0     C99170   4.879   4.929   8.362 -0.0920 -0.0653  1.0801
  752MOL0     C99171   4.950   4.983   8.240 -0.6722 -0.6209 -0.2615
  752MOL0     C99172   4.953   4.888   8.119  0.0438  0.0310  0.1688
  752MOL0     C99173   5.052   4.775   8.139 -0.1840 -0.6015  0.5911
  752MOL0     C99174   5.049   4.679   8.018 -0.1942 -0.4486  0.1830
  752MOL0     C99175   5.173   4.597   8.005  0.3976 -1.0885  0.8368
  752MOL0    Cl99176   5.158   4.478   8.137 -0.6300 -0.2155  0.1292
  752MOL0     C99177   4.447   4.796   8.664 -0.8684 -0.3861  0.7995
  752MOL0     C99178   4.347   4.747   8.747  0.2840 -1.0628  0.1790
  752MOL0     O99179   4.238   4.720   9.005 -0.4152 -0.8203  0.1139
  752MOL0     C99180   4.030   4.686   9.177  0.9798 -0.8317 -0.2781
  752MOL0     C99181   3.919   4.675   9.264  0.0730 -0.5032  0.8022
  752MOL0     N99182   3.145   4.551   9.420 -0.2455 -0.5011 -0.7854
  752MOL0     N99183   3.091   4.546   9.531  0.6173 -0.1574 -0.0781
  752MOL0     C99184   2.027   3.850   9.723 -0.8769 -0.1569  0.2355
  752MOL0     C99185   1.922   3.777   9.768 -0.1728 -0.2683 -0.2764
  752MOL0     C99186   1.538   3.542   9.767 -0.3238  0.2731  0.2540
  752MOL0     C99187   1.516   3.555   9.902  0.0919  1.1525  0.2924
  752MOL0     C99188   1.433   3.471   9.980 -0.2926  0.0209 -0.3864
  752MOL0     C99189   1.362   3.371   9.913 -0.5692  0.5930  0.3787
  752MOL0     O99190   1.298   3.289   9.993 -0.1832  0.1705  0.0036
  752MOL0     C99191   1.209   3.194   9.943  0.9639  0.0668  0.1883
  752MOL0     C99192   1.116   3.149  10.054  0.4211  0.7149 -1.5500
  752MOL0     C99193   0.983   3.115   9.994  0.3481 -0.0472 -0.3199
  752MOL0     C99194   0.989   2.985   9.907  0.0030 -0.6902  0.0169
  752MOL0     C99195   0.856   2.954   9.856  0.9410  0.3324 -1.1044
  752MOL0     C99196   0.749   2.916   9.806  0.5491 -0.4225 -0.3941
  752MOL0     C99197   1.400   3.340   9.779  0.1459 -0.3067  0.7301
  752MOL0     C99198   1.484   3.428   9.704  0.4693  0.0285 -0.7028
  752MOL0     H99199   1.676   3.943   9.595 -0.5544  1.1633  0.5417
  752MOL0     H99200   1.862   4.079   9.546  0.3125 -1.8123 -4.2375
  752MOL0     H99201   2.274   3.925   9.613  0.6353  0.5737  1.1072
  752MOL0     H99202   2.250   4.030   9.762 -3.4485  1.1433  0.6531
  752MOL0     H99203   2.288   4.220   9.628 -0.9061 -0.1888  0.5652
  752MOL0     H99204   2.329   4.124   9.485  0.0227  2.7696 -0.1818
  752MOL0     H99205   2.509   4.008   9.627 -2.4402 -0.3852 -0.3996
  752MOL0     H99206   2.444   4.107   9.758 -0.0668 -0.9971  0.2791
  752MOL0     H99207   2.572   4.218   9.497 -1.2125 -1.4434 -0.2971
  752MOL0     H99208   2.545   4.312   9.640  0.1454  0.1736  1.8659
  752MOL0     H99209   2.742   4.086   9.624  1.8865  1.9057 -1.4055
  752MOL0     H99210   2.700   4.184   9.777  3.7412  0.7645  0.7418
  752MOL0     H99211   2.774   4.382   9.678 -1.1689  0.0472  1.5612
  752MOL0     H99212   2.829   4.280   9.533 -2.3020 -3.1132  0.0292
  752MOL0     H99213   2.930   4.256   9.828 -1.7764  1.6954  0.1366
  752MOL0     H99214   2.990   4.185   9.670 -0.4238  1.5936 -3.0229
  752MOL0     H99215   3.096   4.387   9.801  2.1043  1.5367 -1.5348
  752MOL0     H99216   2.956   4.472   9.739  1.2735  0.4306  2.4271
  752MOL0     H99217   3.241   4.260   9.538  3.2995  1.0955 -0.2911
  752MOL0     H99218   3.233   4.456   9.185  3.4793 -1.3221 -2.5750
  752MOL0     H99219   3.243   4.301   9.230 -0.7043  1.4915 -2.6364
  752MOL0     H99220   3.455   4.351   9.187  3.0818  0.7967  1.0234
  752MOL0     H99221   3.465   4.346   9.362 -0.5221 -0.0774 -0.0660
  752MOL0     H99222   3.499   4.593   9.174  3.2532 -1.1935 -0.7192
  752MOL0     H99223   3.429   4.606   9.342  0.9284 -1.9658  2.1986
  752MOL0     H99224   3.683   4.457   9.272 -0.1100  0.9824 -1.7230
  752MOL0     H99225   3.620   4.510   9.425 -0.2548 -2.3451 -0.5421
  752MOL0     H99226   3.665   4.679   9.033  0.0787 -1.3406 -0.1455
  752MOL0     H99227   3.847   4.728   8.895  3.7786 -1.7573 -2.5618
  752MOL0     H99228   4.084   4.914   8.623 -1.4483 -2.2428  2.0320
  752MOL0     H99229   4.262   5.009   8.463  1.5131  0.1344  0.0869
  752MOL0     H99230   4.660   4.786   8.460 -0.8656  0.5222  0.3172
  752MOL0     H99231   4.712   4.919   8.564  1.9395 -0.7199 -0.1759
  752MOL0     H99232   4.719   5.069   8.370 -2.9980 -0.0302  0.2259
  752MOL0     H99233   4.679   4.933   8.266  2.0851  1.0566 -0.9043
  752MOL0     H99234   4.879   4.819   8.354 -1.2937 -0.1096  1.5407
  752MOL0     H99235   4.926   4.967   8.453  0.9762  0.9611  0.1291
  752MOL0     H99236   4.899   5.074   8.210 -0.2210 -0.2094  0.1856
  752MOL0     H99237   5.053   5.012   8.266 -1.5890  2.6600  0.1106
  752MOL0     H99238   4.997   4.955   8.045  1.4490  2.2121  2.7520
  752MOL0     H99239   4.852   4.858   8.092  0.1828 -0.4674  0.1969
  752MOL0     H99240   5.029   4.720   8.231 -0.4844  0.3076  1.0663
  752MOL0     H99241   5.153   4.816   8.142 -0.7931  1.0877 -0.5655
  752MOL0     H99242   4.973   4.600   8.016  3.1328 -3.9694 -1.2696
  752MOL0     H99243   5.035   4.743   7.930  3.2103  1.2762  0.7089
  752MOL0     H99244   5.266   4.655   8.016  2.4264 -4.1531  1.1602
  752MOL0     H99245   5.174   4.546   7.908 -1.5611  1.1245 -0.4625
  752MOL0     H99246   4.547   4.756   8.680  0.1598  1.9992  0.8942
  752MOL0     H99247   4.375   4.678   8.825 -1.6311  0.1095  2.0095
  752MOL0     H99248   4.133   4.675   9.210  0.4874  0.1172  1.7170
  752MOL0     H99249   3.932   4.648   9.368  1.4492 -0.1227  0.7526
  752MOL0     H99250   2.119   3.822   9.774  0.9814  1.8822 -1.7739
  752MOL0     H99251   1.943   3.692   9.832 -0.8097 -0.2256 -0.0050
  752MOL0     H99252   1.564   3.634   9.958 -0.8360  0.3833  2.3131
  752MOL0     H99253   1.414   3.497  10.083  2.3461  1.5764 -0.2020
  752MOL0     H99254   1.266   3.112   9.897  0.9604  0.2220 -0.0912
  752MOL0     H99255   1.159   3.233   9.855  1.5494 -1.2709 -0.7809
  752MOL0     H99256   1.156   3.060  10.104  1.3921  1.6023 -0.6834
  752MOL0     H99257   1.095   3.218  10.136 -1.3921 -1.2476 -0.2443
  752MOL0     H99258   0.941   3.196   9.934 -1.0972  0.9671  1.9093
  752MOL0     H99259   0.918   3.089  10.078 -0.9305 -2.5958 -1.9711
  752MOL0     H99260   1.065   2.997   9.829  0.6353 -3.2890  0.1276
  752MOL0     H99261   1.016   2.901   9.971 -1.1663 -1.1710 -0.1001
  752MOL0     H99262   0.655   2.883   9.768 -0.5994  1.2180  0.8628
  752MOL0     H99263   1.372   3.247   9.730 -2.0526  0.3023  0.7181
  752MOL0     H99264   1.504   3.418   9.598 -1.4792  1.3953 -1.2421
  753MOL0     O99265  10.545  11.108  10.200  0.6603 -0.4652  0.1551
  753MOL0     C99266  10.552  11.020  10.122  0.5442  0.2236  0.4235
  753MOL0     O99267  10.444  10.967  10.052 -0.6635 -0.0142  0.2213
  753MOL0     C99268  10.331  11.033  10.072  1.0701 -1.0743  0.3509
  753MOL0     C99269  10.320  11.175  10.041  0.2478 -0.3289  0.2469
  753MOL0     C99270  10.198  11.249  10.046  0.9897 -0.6845  0.6719
  753MOL0     C99271  10.081  11.174  10.080 -0.1539  0.8959  0.2976
  753MOL0     O99272   9.970  11.255  10.077 -0.7233 -0.0046  0.4556
  753MOL0     C99273   9.870  11.228  10.175  0.8140 -1.1747 -0.4505
  753MOL0     C99274   9.761  11.341  10.185 -0.1187 -0.3633 -0.2212
  753MOL0     C99275   9.675  11.324  10.313 -0.6523  0.3999 -0.2876
  753MOL0     C99276   9.533  11.365  10.288  0.0329  0.2426 -0.1957
  753MOL0     C99277   9.445  11.327  10.406  0.1512 -0.6452  0.5036
  753MOL0     C99278   9.306  11.377  10.379  0.2374  0.3982 -0.0084
  753MOL0     C99279   9.203  11.347  10.493  0.1302 -0.1236 -0.4853
  753MOL0     C99280   9.081  11.433  10.484  0.4880  0.1958 -0.2505
  753MOL0     N99281   8.986  11.402  10.590 -0.4037  0.4633  0.6845
  753MOL0     C99282   8.876  11.327  10.580  0.0112  0.0933  0.2158
  753MOL0     C99283   8.801  11.335  10.689  0.1247 -0.3397 -0.8428
  753MOL0     C99284   8.672  11.263  10.725  0.3793 -0.2523  0.9001
  753MOL0     C99285   8.702  11.113  10.749  0.8594  0.9124  0.2274
  753MOL0     C99286   8.584  11.030  10.802 -0.3788 -0.5723 -0.4509
  753MOL0     C99287   8.630  10.887  10.803 -0.2902  0.8200 -0.3165
  753MOL0     O99288   8.539  10.809  10.890  0.1280 -0.0439 -0.6267
  753MOL0     C99289   8.554  10.675  10.915 -0.0203 -0.1236 -0.6010
  753MOL0     C99290   8.456  10.611  10.986 -1.2868  0.3095 -0.1345
  753MOL0     C99291   8.472  10.475  11.024 -0.3695  0.6948  0.4352
  753MOL0     C99292   8.573  10.401  10.967  0.3465 -0.4631  0.0701
  753MOL0     C99293   8.580  10.258  10.979  0.9223  0.4738 -0.4180
  753MOL0     O99294   8.693  10.196  10.935  0.5208 -0.1430  0.8827
  753MOL0     C99295   8.736  10.069  10.963  0.0073 -0.4612 -0.2272
  753MOL0     C99296   8.673   9.981  11.055 -0.3840  0.2114  0.3373
  753MOL0     C99297   8.722   9.851  11.076 -0.3539  0.2091 -0.0563
  753MOL0     C99298   8.828   9.799  11.002 -0.1479 -0.3738 -0.0640
  753MOL0     O99299   8.849   9.667  11.025 -0.0973  0.8895 -0.2022
  753MOL0     C99300   8.962   9.603  10.956  0.1678 -0.7370  0.0227
  753MOL0     C99301   9.102   9.642  11.001 -0.5447 -0.4480  1.2445
  753MOL0     C99302   9.191   9.627  10.884 -0.3755  0.1156 -0.1176
  753MOL0     C99303   9.339   9.674  10.913  0.7814  0.4588  0.6743
  753MOL0     C99304   9.429   9.655  10.793  0.2951  0.3949  0.1165
  753MOL0     C99305   9.557   9.744  10.785  0.8419 -0.5890  0.5179
  753MOL0     C99306   9.646   9.732  10.907 -0.4502  0.4648 -0.5620
  753MOL0     C99307   9.764   9.844  10.917  0.7235  0.3487  0.0175
  753MOL0    Cl99308   9.688  10.007  10.924  0.0572 -0.2383  0.1508
  753MOL0     C99309   8.881   9.885  10.903  0.1501  0.6313  0.6332
  753MOL0     C99310   8.848  10.016  10.894  0.1898 -0.5227  0.2340
  753MOL0     O99311   8.486  10.203  11.026  0.4063 -0.2220 -0.2131
  753MOL0     C99312   8.658  10.463  10.881 -0.5762 -0.2995  0.1511
  753MOL0     C99313   8.659  10.603  10.866 -0.7029 -0.3546 -0.0327
  753MOL0     N99314   8.873  11.430  10.770  0.0730  1.8333  0.2814
  753MOL0     N99315   8.977  11.464  10.707  0.4110 -1.2931 -0.3111
  753MOL0     C99316  10.083  11.033  10.095 -0.5502 -0.2825  0.9629
  753MOL0     C99317  10.209  10.960  10.088 -0.5716 -0.5786  0.4222
  753MOL0     C99318  10.693  10.960  10.104  0.3271  0.2582 -0.1343
  753MOL0     C99319  10.797  10.974  10.199  0.5526 -1.0930  0.4278
  753MOL0     C99320  10.928  10.928  10.171 -0.4111 -0.5151  1.0560
  753MOL0     C99321  10.951  10.851  10.055 -0.8162 -0.6629 -0.2068
  753MOL0     O99322  11.074  10.794  10.052 -0.5740  0.7418  0.0261
  753MOL0     C99323  11.094  10.701   9.940  0.6632 -0.4974  0.1410
  753MOL0     C99324  11.242  10.663   9.934  0.1494  0.3480 -0.0914
  753MOL0     C99325  11.334  10.776   9.887  0.7794 -0.0109 -0.2489
  753MOL0     C99326  11.478  10.726   9.890 -0.8727  0.1500 -0.7273
  753MOL0     C99327  11.583  10.827   9.915 -0.5201  0.5307  0.1628
  753MOL0     C99328  11.660  10.911   9.969 -0.5312 -0.1685  0.5260
  753MOL0     C99329  10.849  10.839   9.964  0.5094  0.9219  0.3015
  753MOL0     C99330  10.718  10.885   9.986  0.5555 -0.0281 -0.3469
  753MOL0     H99331  10.415  11.209  10.000 -0.2364 -1.7000 -2.2161
  753MOL0     H99332  10.183  11.353  10.021  1.5211 -0.7119  0.2211
  753MOL0     H99333   9.922  11.219  10.270  0.9140  0.6544 -0.3034
  753MOL0     H99334   9.817  11.134  10.154  1.3282 -1.1620 -1.9632
  753MOL0     H99335   9.699  11.351  10.095 -0.9457 -0.0449  0.3675
  753MOL0     H99336   9.813  11.437  10.194  1.3834 -1.3003  2.5058
  753MOL0     H99337   9.726  11.374  10.395  1.2438 -0.3107 -0.9869
  753MOL0     H99338   9.669  11.219  10.342 -0.4702  0.9421  1.8633
  753MOL0     H99339   9.518  11.471  10.265  1.6163  0.6117  0.3301
  753MOL0     H99340   9.496  11.298  10.210 -1.1889  1.0406 -0.3364
  753MOL0     H99341   9.485  11.385  10.489 -2.5342  1.7116  0.2805
  753MOL0     H99342   9.455  11.220  10.427  2.9801 -0.5692 -0.0043
  753MOL0     H99343   9.268  11.329  10.288  1.1277 -0.2667 -0.0429
  753MOL0     H99344   9.310  11.485  10.366  3.0164  0.4844  0.8750
  753MOL0     H99345   9.178  11.241  10.481 -0.8332  0.2260 -1.7608
  753MOL0     H99346   9.240  11.371  10.593 -0.7901  2.3415 -0.6849
  753MOL0     H99347   9.032  11.406  10.390 -0.0787 -0.0232  0.1034
  753MOL0     H99348   9.117  11.536  10.486  2.1163 -0.3572  1.0350
  753MOL0     H99349   8.857  11.267  10.491  0.2136 -1.5450  1.2279
  753MOL0     H99350   8.593  11.275  10.651  0.1023 -1.3921  0.9992
  753MOL0     H99351   8.632  11.308  10.816 -0.0363  2.5448 -0.5657
  753MOL0     H99352   8.795  11.107  10.807  1.4979 -1.0250 -0.9023
  753MOL0     H99353   8.739  11.076  10.653  2.1269  1.2293  0.5726
  753MOL0     H99354   8.563  11.075  10.899 -0.1942  2.1985 -1.6009
  753MOL0     H99355   8.495  11.050  10.741  0.1205 -0.9424 -1.3227
  753MOL0     H99356   8.726  10.890  10.855 -0.1079 -0.1166 -0.5687
  753MOL0     H99357   8.626  10.842  10.703 -0.5689  0.4428 -0.1404
  753MOL0     H99358   8.368  10.664  11.021 -1.4251 -0.4844  0.7724
  753MOL0     H99359   8.394  10.438  11.091 -0.9500  0.4768 -0.3528
  753MOL0     H99360   8.593  10.027  11.113  1.2533  4.9194 -0.6241
  753MOL0     H99361   8.677   9.799  11.159  3.1155 -0.1149  1.8248
  753MOL0     H99362   8.948   9.631  10.851  1.1745 -0.2599  0.0074
  753MOL0     H99363   8.960   9.495  10.975  1.3981 -0.8763 -0.5463
  753MOL0     H99364   9.125   9.569  11.078  1.1011 -3.0022 -1.4746
  753MOL0     H99365   9.098   9.741  11.048  3.1747 -1.2516  3.6546
  753MOL0     H99366   9.147   9.679  10.799  0.0246 -1.2021 -1.1489
  753MOL0     H99367   9.201   9.520  10.864  2.0941  0.5774 -1.8757
  753MOL0     H99368   9.359   9.776  10.948  3.9417  0.0529  0.3709
  753MOL0     H99369   9.375   9.613  10.996  1.2994  1.0415  0.8936
  753MOL0     H99370   9.371   9.684  10.705  0.6947  0.6956 -0.0483
  753MOL0     H99371   9.446   9.547  10.787 -2.1314 -0.1451  1.5274
  753MOL0     H99372   9.530   9.849  10.770  0.1684 -0.9606 -1.1045
  753MOL0     H99373   9.605   9.712  10.692 -1.5803  0.2700 -1.1369
  753MOL0     H99374   9.585   9.739  10.997  1.5414 -2.1140  1.1446
  753MOL0     H99375   9.686   9.630  10.901 -0.7383  0.3516 -0.5719
  753MOL0     H99376   9.844   9.844  10.843  0.6109  0.1299 -0.1042
  753MOL0     H99377   9.819   9.817  11.008  0.4168 -1.3380 -0.2607
  753MOL0     H99378   8.964   9.852  10.842 -0.2995 -0.1181  0.4094
  753MOL0     H99379   8.900  10.085  10.829 -1.9487  4.3735  3.1842
  753MOL0     H99380   8.746  10.419  10.835 -0.8060 -1.6506  0.9698
  753MOL0     H99381   8.734  10.665  10.818 -0.6104  2.0550  2.9375
  753MOL0     H99382   9.990  10.980  10.115 -0.4979 -0.1253  1.6507
  753MOL0     H99383  10.218  10.853  10.099  1.6646 -0.6040 -0.9731
  753MOL0     H99384  10.782  11.026  10.293 -4.1740  0.2997 -0.8466
  753MOL0     H99385  11.006  10.939  10.245 -0.4177 -0.5521  1.0680
  753MOL0     H99386  11.070  10.747   9.844 -0.8097  2.8536  1.9225
  753MOL0     H99387  11.030  10.617   9.968  0.8388 -0.7898 -0.3335
  753MOL0     H99388  11.278  10.609  10.022  2.3056 -2.9232 -2.7148
  753MOL0     H99389  11.239  10.588   9.854 -2.2767  1.7573 -1.4522
  753MOL0     H99390  11.312  10.866   9.945 -1.7561  0.5727 -1.9532
  753MOL0     H99391  11.316  10.806   9.784  0.7941  0.7515 -0.0319
  753MOL0     H99392  11.491  10.656   9.973 -2.3471  1.1635  0.4301
  753MOL0     H99393  11.503  10.667   9.802 -1.9288  0.0601 -0.9821
  753MOL0     H99394  11.725  10.989  10.001  0.1706 -0.5239 -0.0051
  753MOL0     H99395  10.847  10.796   9.864 -0.1500  3.7533 -1.0043
  753MOL0     H99396  10.636  10.864   9.919 -1.4653 -0.0900  1.9859
  754MOL0     O99397   0.361   7.926   8.903  0.2577 -0.0161 -0.5444
  754MOL0     C99398   0.401   7.935   9.018 -0.2244  1.2923 -0.3937
  754MOL0     O99399   0.328   7.986   9.119 -0.0132  0.6056  0.9986
  754MOL0     C99400   0.209   8.045   9.079  1.0478  0.3692 -0.4398
  754MOL0     C99401   0.192   8.177   9.119 -0.1125 -0.2080  0.0787
  754MOL0     C99402   0.072   8.251   9.085 -0.3903  0.4109  0.7473
  754MOL0     C99403  -0.027   8.182   9.016  0.1773 -0.8657 -0.0086
  754MOL0     O99404  -0.144   8.249   8.973  1.2252  0.2884 -0.0959
  754MOL0     C99405  -0.160   8.383   9.014  0.6742 -0.4287 -0.1022
  754MOL0     C99406  -0.297   8.429   8.971 -0.5485 -0.2807 -0.3448
  754MOL0     C99407  -0.401   8.322   8.958 -0.2735 -0.0660  0.2389
  754MOL0     C99408  -0.537   8.391   8.941 -0.0642  0.0852 -0.3323
  754MOL0     C99409  -0.635   8.298   8.875 -0.2399 -0.5458  0.7483
  754MOL0     C99410  -0.779   8.341   8.896 -0.5201  0.4283  0.8354
  754MOL0     C99411  -0.872   8.233   8.833  0.4042  0.5582 -0.4799
  754MOL0     C99412  -1.014   8.276   8.826  0.2620  1.1496 -0.3326
  754MOL0     N99413  -1.113   8.158   8.796  0.5310 -0.3920  0.1899
  754MOL0     C99414  -1.183   8.082   8.889 -0.0737 -0.2231 -0.0040
  754MOL0     C99415  -1.251   7.994   8.811  1.0309  0.3401 -0.1633
  754MOL0     C99416  -1.357   7.900   8.860  0.1170 -0.0048 -0.0642
  754MOL0     C99417  -1.506   7.937   8.850  0.3735 -0.2646 -0.1781
  754MOL0     C99418  -1.570   7.981   8.713  0.0677 -0.8135 -0.3326
  754MOL0     C99419  -1.722   7.985   8.718 -0.2988  0.1008  0.7532
  754MOL0     O99420  -1.759   7.959   8.586 -0.2261  0.4036  0.1158
  754MOL0     C99421  -1.893   7.983   8.559  0.3186 -0.9194  0.1298
  754MOL0     C99422  -1.995   7.893   8.556 -0.3507  0.0703 -0.2865
  754MOL0     C99423  -2.130   7.925   8.530 -0.2419  0.3892 -0.1693
  754MOL0     C99424  -2.165   8.059   8.503  0.0873  0.0742  0.1883
  754MOL0     C99425  -2.310   8.100   8.484 -0.5024 -0.9428 -0.2999
  754MOL0     O99426  -2.387   7.999   8.441  0.2882  0.9677 -0.3866
  754MOL0     C99427  -2.522   8.014   8.441 -1.4192  0.3734 -0.0937
  754MOL0     C99428  -2.595   8.045   8.561 -1.3907  0.5916 -0.2579
  754MOL0     C99429  -2.731   8.031   8.574  1.3177  0.1806 -0.3175
  754MOL0     C99430  -2.799   7.985   8.457  0.1581 -0.1375 -0.4472
  754MOL0     O99431  -2.936   7.960   8.452  0.0737 -0.3355 -0.2229
  754MOL0     C99432  -3.002   7.939   8.571  0.2718  0.1996 -0.1180
  754MOL0     C99433  -3.149   7.930   8.543  0.3286  0.0732 -0.8245
  754MOL0     C99434  -3.186   7.800   8.475 -0.1581  0.5452  0.3037
  754MOL0     C99435  -3.339   7.780   8.487  0.4178 -0.0855 -0.4611
  754MOL0     C99436  -3.404   7.659   8.410  0.8029 -0.3478  0.6759
  754MOL0     C99437  -3.401   7.700   8.258  0.5449  0.1980  0.3099
  754MOL0     C99438  -3.503   7.632   8.171 -0.1243  1.4170  0.8638
  754MOL0     C99439  -3.442   7.520   8.090 -0.8446 -0.0948 -0.5979
  754MOL0    Cl99440  -3.314   7.588   7.970 -0.2521 -0.6158  0.3607
  754MOL0     C99441  -2.726   7.970   8.337 -0.4840  0.3216  0.5982
  754MOL0     C99442  -2.590   7.974   8.327  0.5357  0.0055  0.6754
  754MOL0     O99443  -2.342   8.221   8.496 -0.2352  0.0292  0.2333
  754MOL0     C99444  -2.067   8.151   8.498 -0.5935 -0.4661  0.0618
  754MOL0     C99445  -1.934   8.113   8.514 -0.2014  0.3283  0.1568
  754MOL0     N99446  -1.235   8.022   8.680  0.0900  0.2695 -0.0584
  754MOL0     N99447  -1.157   8.129   8.675  0.3400  0.0882  1.0774
  754MOL0     C99448  -0.015   8.042   8.980  0.4236 -0.4617 -0.8663
  754MOL0     C99449   0.104   7.971   9.014  0.6472 -0.0616  1.1970
  754MOL0     C99450   0.538   7.900   9.062  0.0000  0.5572  0.2470
  754MOL0     C99451   0.618   7.850   8.963  0.3273  0.1911  1.3125
  754MOL0     C99452   0.735   7.787   8.995 -0.0015 -0.1302 -0.8957
  754MOL0     C99453   0.781   7.778   9.127  0.0798  0.1840 -0.1434
  754MOL0     O99454   0.896   7.719   9.151 -0.1956  0.0168  0.0801
  754MOL0     C99455   0.879   7.614   9.243 -0.3140 -0.3318 -0.7296
  754MOL0     C99456   1.006   7.542   9.268 -0.0216  0.3016  0.6882
  754MOL0     C99457   1.101   7.512   9.150  0.3859 -0.3344  0.6430
  754MOL0     C99458   1.018   7.435   9.052  0.1573 -0.0918 -0.1833
  754MOL0     C99459   1.105   7.387   8.951 -1.2847  0.2767 -0.0886
  754MOL0     C99460   1.164   7.328   8.859  0.5522 -0.0560 -0.4359
  754MOL0     C99461   0.700   7.835   9.230 -0.1367 -0.3318  0.2769
  754MOL0     C99462   0.580   7.901   9.190 -0.8630  0.5315 -0.6804
  754MOL0     H99463   0.274   8.219   9.177  0.3426 -0.2759 -0.5110
  754MOL0     H99464   0.063   8.357   9.108  0.1379  1.4223 -3.1237
  754MOL0     H99465  -0.088   8.454   8.971 -1.1822 -0.2047 -3.1538
  754MOL0     H99466  -0.149   8.387   9.122  0.3694  1.5836 -0.1001
  754MOL0     H99467  -0.288   8.471   8.871 -1.9087  2.7380  0.6762
  754MOL0     H99468  -0.342   8.499   9.042  0.4258 -0.1439  0.1507
  754MOL0     H99469  -0.399   8.269   9.054  0.9130 -0.9404 -0.2493
  754MOL0     H99470  -0.377   8.255   8.875 -0.3187  0.3641 -0.1257
  754MOL0     H99471  -0.575   8.422   9.039 -1.4651 -0.5714 -0.6452
  754MOL0     H99472  -0.536   8.483   8.882 -1.9100  2.4699  2.9860
  754MOL0     H99473  -0.618   8.193   8.903  1.3136 -0.2887  0.8439
  754MOL0     H99474  -0.617   8.304   8.768  2.9456  1.7540  1.2360
  754MOL0     H99475  -0.787   8.436   8.844 -0.2755 -1.1980 -2.4811
  754MOL0     H99476  -0.815   8.365   8.996 -2.2588  2.1096 -0.1425
  754MOL0     H99477  -0.844   8.228   8.727  0.8457  0.2225 -0.3475
  754MOL0     H99478  -0.862   8.138   8.886  0.2375  0.8424  0.0661
  754MOL0     H99479  -1.019   8.359   8.755 -1.7520  2.2023  0.9478
  754MOL0     H99480  -1.043   8.315   8.924  0.6660  1.9883 -0.5422
  754MOL0     H99481  -1.203   8.091   8.996 -0.8896  0.5608 -0.2162
  754MOL0     H99482  -1.341   7.871   8.964 -0.9657  0.6013  0.2838
  754MOL0     H99483  -1.350   7.809   8.799  0.7203  0.7744 -1.2011
  754MOL0     H99484  -1.518   8.018   8.922  2.5370 -1.1476  1.2764
  754MOL0     H99485  -1.546   7.846   8.895  1.9246  0.1445  2.1937
  754MOL0     H99486  -1.535   8.081   8.687  0.4494 -0.8482  0.0334
  754MOL0     H99487  -1.539   7.906   8.640 -2.5861 -2.3377 -0.0356
  754MOL0     H99488  -1.761   8.082   8.751 -3.2449 -0.5676 -0.3945
  754MOL0     H99489  -1.770   7.906   8.775 -0.9842  0.0499  0.1339
  754MOL0     H99490  -1.963   7.791   8.578  1.9267  0.7641 -0.0949
  754MOL0     H99491  -2.204   7.846   8.536 -1.4188  1.4600 -0.1876
  754MOL0     H99492  -2.547   8.064   8.656 -2.0058  3.6792 -0.4388
  754MOL0     H99493  -2.783   8.033   8.670  2.0025 -1.3275  0.1143
  754MOL0     H99494  -2.982   8.016   8.646 -1.8604 -0.4708  1.2352
  754MOL0     H99495  -2.966   7.849   8.622  0.4758  2.1717  3.5620
  754MOL0     H99496  -3.180   8.015   8.481  2.4723  0.3418 -1.6162
  754MOL0     H99497  -3.204   7.928   8.638 -2.0109  3.4209 -1.9410
  754MOL0     H99498  -3.125   7.714   8.506  1.1495  1.2747 -0.1616
  754MOL0     H99499  -3.161   7.817   8.370  2.6196 -0.7482  0.6498
  754MOL0     H99500  -3.366   7.785   8.593  0.0545  4.8424 -0.5783
  754MOL0     H99501  -3.389   7.869   8.448  1.0975  0.7563  0.5499
  754MOL0     H99502  -3.509   7.641   8.436  0.5931 -0.5082 -0.2679
  754MOL0     H99503  -3.360   7.561   8.431 -0.6847 -0.6601  2.6499
  754MOL0     H99504  -3.296   7.694   8.225  0.3072 -1.9012 -0.1863
  754MOL0     H99505  -3.433   7.805   8.252 -0.1853 -0.0963 -2.0424
  754MOL0     H99506  -3.585   7.590   8.231  1.5045 -0.9671  1.5867
  754MOL0     H99507  -3.549   7.701   8.100 -0.7303 -0.6529 -0.8840
  754MOL0     H99508  -3.521   7.471   8.033 -1.5252  1.0430 -0.6591
  754MOL0     H99509  -3.398   7.450   8.162 -1.8281 -0.2067 -0.0929
  754MOL0     H99510  -2.778   7.936   8.247  1.7032  3.4579 -2.0944
  754MOL0     H99511  -2.535   7.942   8.239 -0.5264 -0.6584  0.2413
  754MOL0     H99512  -2.096   8.254   8.480 -0.0935 -0.5689 -1.4406
  754MOL0     H99513  -1.865   8.195   8.497  2.4984 -0.8805  3.9091
  754MOL0     H99514  -0.087   7.987   8.920  1.3967  0.0016 -2.5207
  754MOL0     H99515   0.133   7.872   8.982  1.0387  0.9475 -2.0270
  754MOL0     H99516   0.597   7.872   8.859  4.4322 -1.3271 -0.0702
  754MOL0     H99517   0.791   7.739   8.915 -1.3164 -0.2934 -1.7433
  754MOL0     H99518   0.803   7.540   9.216 -0.8654  0.5478 -1.6815
  754MOL0     H99519   0.843   7.650   9.339  0.7003  0.1056 -0.5033
  754MOL0     H99520   1.066   7.595   9.342  0.3357  0.9405 -0.0384
  754MOL0     H99521   0.979   7.448   9.316 -0.3156  0.0783  0.0927
  754MOL0     H99522   1.190   7.455   9.179  4.1382  2.4925 -3.9232
  754MOL0     H99523   1.130   7.613   9.120  0.9125 -0.1878  1.5940
  754MOL0     H99524   0.988   7.344   9.105 -0.4232  1.6628  2.6623
  754MOL0     H99525   0.934   7.492   9.011  0.1021  0.5248  0.7833
  754MOL0     H99526   1.217   7.281   8.779 -2.6636 -2.5776 -1.2852
  754MOL0     H99527   0.735   7.829   9.332  2.7685 -4.2937 -0.7003
  754MOL0     H99528   0.524   7.949   9.270  2.2538  2.1024  0.7468
  755MOL0     O99529   0.813   1.285  10.249 -0.7311 -0.5400  0.3062
  755MOL0     C99530   0.889   1.380  10.218  0.4976 -0.1800  0.5128
  755MOL0     O99531   0.846   1.485  10.138 -0.0722  0.2912 -0.0187
  755MOL0     C99532   0.710   1.492  10.105 -0.6404  0.4243 -0.2010
  755MOL0     C99533   0.647   1.617  10.103  0.7606  0.6622 -0.4625
  755MOL0     C99534   0.519   1.630  10.052  0.5728  0.5623  0.5113
  755MOL0     C99535   0.453   1.521   9.996 -0.1425  0.8401  0.5678
  755MOL0     O99536   0.319   1.539   9.949  0.2504 -0.5354  0.3396
  755MOL0     C99537   0.240   1.417   9.921 -0.1665  0.5098  0.2004
  755MOL0     C99538   0.102   1.446   9.939 -0.2096  0.9391  0.0895
  755MOL0     C99539  -0.003   1.335   9.882 -0.4927 -0.7648  0.2892
  755MOL0     C99540  -0.154   1.380   9.880 -1.1727  0.1213 -0.1646
  755MOL0     C99541  -0.256   1.283   9.826 -0.1063  0.6421 -1.0481
  755MOL0     C99542  -0.389   1.363   9.811  0.8198  0.5805  0.6746
  755MOL0     C99543  -0.497   1.260   9.766 -0.6704  0.9991 -0.5258
  755MOL0     C99544  -0.648   1.290   9.772 -1.0203 -0.3863  0.0189
  755MOL0     N99545  -0.697   1.316   9.633  0.0194 -0.0363 -0.2807
  755MOL0     C99546  -0.767   1.226   9.554  0.0512  0.6437 -0.0979
  755MOL0     C99547  -0.796   1.293   9.435  0.6777  0.1867 -0.3541
  755MOL0     C99548  -0.868   1.230   9.315  0.6195 -0.1135 -0.4220
  755MOL0     C99549  -0.991   1.312   9.273 -0.1655 -0.6804 -0.6319
  755MOL0     C99550  -1.118   1.276   9.348  0.3811  1.0103 -1.2132
  755MOL0     C99551  -1.230   1.376   9.322 -0.0940  0.0019 -0.4239
  755MOL0     O99552  -1.259   1.354   9.183 -1.5420  0.5497  0.4672
  755MOL0     C99553  -1.393   1.329   9.151 -1.1479 -0.6540 -0.1712
  755MOL0     C99554  -1.472   1.442   9.121 -0.5417 -0.3908  1.2115
  755MOL0     C99555  -1.603   1.429   9.068 -0.7392  0.2771 -0.0862
  755MOL0     C99556  -1.659   1.296   9.064 -1.2608  0.3648  0.1036
  755MOL0     C99557  -1.792   1.271   9.022  0.4225 -0.6931 -0.5560
  755MOL0     O99558  -1.852   1.148   9.061  0.5485 -0.4359  0.1455
  755MOL0     C99559  -1.987   1.128   9.051 -0.8726 -1.0159  0.8397
  755MOL0     C99560  -2.055   1.164   8.936 -0.3858 -0.0208 -0.0987
  755MOL0     C99561  -2.191   1.140   8.935 -0.0992  0.3613 -0.3282
  755MOL0     C99562  -2.254   1.096   9.050  0.7631  0.1449 -1.1160
  755MOL0     O99563  -2.389   1.073   9.059 -0.1202  0.0262 -0.4038
  755MOL0     C99564  -2.466   1.110   8.947  1.2169  0.1797 -0.8198
  755MOL0     C99565  -2.624   1.098   8.968 -0.4432 -0.0135  0.3415
  755MOL0     C99566  -2.685   1.109   8.830 -0.2106 -0.0500 -0.9949
  755MOL0     C99567  -2.835   1.053   8.830  0.0946 -0.2623 -0.4477
  755MOL0     C99568  -2.891   1.055   8.690  0.5652  0.3201 -0.3850
  755MOL0     C99569  -2.991   1.173   8.661  0.1963  0.1858 -0.2325
  755MOL0     C99570  -2.927   1.313   8.649 -0.7339  0.4844  0.1101
  755MOL0     C99571  -2.830   1.325   8.531 -0.6079  0.5983  0.8365
  755MOL0    Cl99572  -2.915   1.286   8.372  0.1496 -0.1644  0.4017
  755MOL0     C99573  -2.173   1.049   9.163  0.2232 -0.5718  0.4892
  755MOL0     C99574  -2.036   1.051   9.151  0.1769 -0.5584 -0.5651
  755MOL0     O99575  -1.854   1.358   8.961 -0.6470 -0.4513 -0.4351
  755MOL0     C99576  -1.580   1.191   9.100  0.6227  0.4715  0.4004
  755MOL0     C99577  -1.446   1.202   9.145 -0.5194 -0.0088  0.6866
  755MOL0     N99578  -0.755   1.422   9.455 -0.6280  0.3637 -0.2194
  755MOL0     N99579  -0.682   1.436   9.566 -0.0672  0.1734  0.5932
  755MOL0     C99580   0.513   1.393   9.994 -0.9830  0.9313 -0.3755
  755MOL0     C99581   0.643   1.381  10.049 -0.3593  0.2455 -0.2176
  755MOL0     C99582   1.036   1.367  10.237 -0.5427 -0.2830 -0.2617
  755MOL0     C99583   1.117   1.481  10.222 -0.2767  0.8494  0.1986
  755MOL0     C99584   1.252   1.481  10.246 -0.4461 -0.6307  0.3984
  755MOL0     C99585   1.311   1.358  10.269  0.8908  0.0407 -0.2848
  755MOL0     O99586   1.453   1.358  10.277  0.2359  0.1724  0.0386
  755MOL0     C99587   1.532   1.241  10.299  0.3429  0.1224  0.5672
  755MOL0     C99588   1.652   1.286  10.369 -0.0665 -0.1428 -0.1882
  755MOL0     C99589   1.640   1.290  10.519  0.2389  0.6029 -0.4441
  755MOL0     C99590   1.535   1.382  10.583 -0.6901  0.2089 -0.1719
  755MOL0     C99591   1.551   1.358  10.728  0.4614  0.3193  0.3671
  755MOL0     C99592   1.563   1.343  10.852 -0.0575 -0.1239  0.1902
  755MOL0     C99593   1.234   1.238  10.275  0.4173  0.2808 -1.5286
  755MOL0     C99594   1.099   1.244  10.264  1.0242 -0.3252 -0.5714
  755MOL0     H99595   0.696   1.705  10.143 -0.3045  1.6403 -1.2543
  755MOL0     H99596   0.468   1.726  10.044  0.4207  0.3108 -2.1992
  755MOL0     H99597   0.262   1.321   9.969 -0.1166  1.1301  1.4565
  755MOL0     H99598   0.251   1.402   9.813  1.3523  3.0987 -0.0901
  755MOL0     H99599   0.081   1.539   9.885 -3.2801 -0.8886 -2.2072
  755MOL0     H99600   0.082   1.476  10.042 -0.4362 -0.0834  0.3472
  755MOL0     H99601   0.014   1.238   9.930  0.2210 -1.2804 -0.9549
  755MOL0     H99602   0.033   1.314   9.781  1.1478  0.3695  0.6152
  755MOL0     H99603  -0.174   1.407   9.984  2.6992  0.2885  0.6899
  755MOL0     H99604  -0.147   1.468   9.815  2.5777  0.4714  0.5336
  755MOL0     H99605  -0.281   1.209   9.903  2.7103  1.8823  1.2641
  755MOL0     H99606  -0.225   1.231   9.735 -0.1626 -0.6428 -0.3710
  755MOL0     H99607  -0.379   1.442   9.736  3.0728  1.4822  1.8209
  755MOL0     H99608  -0.422   1.410   9.904 -0.3333  0.4394  0.3519
  755MOL0     H99609  -0.468   1.229   9.666 -3.1738 -2.0799 -0.4629
  755MOL0     H99610  -0.495   1.170   9.828 -1.0367  0.4410 -1.3100
  755MOL0     H99611  -0.672   1.373   9.838  1.5398  1.2101 -0.9002
  755MOL0     H99612  -0.697   1.197   9.801 -2.2834  0.1424 -0.3908
  755MOL0     H99613  -0.786   1.121   9.576  2.9547  0.5259  2.7392
  755MOL0     H99614  -0.899   1.130   9.344 -3.8159  1.4513  1.0549
  755MOL0     H99615  -0.804   1.215   9.227 -0.6531 -1.8155 -1.1047
  755MOL0     H99616  -0.999   1.305   9.164  3.0626 -1.1589 -0.9477
  755MOL0     H99617  -0.968   1.416   9.297  2.4057 -1.5894  1.5273
  755MOL0     H99618  -1.149   1.176   9.317 -2.8494  2.1568 -2.0206
  755MOL0     H99619  -1.104   1.274   9.457 -1.3867  0.7545 -0.9634
  755MOL0     H99620  -1.211   1.482   9.339 -0.1353  0.3400 -2.2597
  755MOL0     H99621  -1.316   1.348   9.384  0.9224 -2.2842  0.0852
  755MOL0     H99622  -1.430   1.542   9.122 -1.1250 -0.1147  0.0081
  755MOL0     H99623  -1.659   1.517   9.041 -1.1345  0.6906  1.8995
  755MOL0     H99624  -1.992   1.190   8.851 -1.7028 -1.3839 -1.5637
  755MOL0     H99625  -2.234   1.148   8.835  1.1053 -1.3022 -1.0314
  755MOL0     H99626  -2.437   1.045   8.864 -1.2899  2.0471 -3.3559
  755MOL0     H99627  -2.456   1.208   8.900 -0.2440  0.5858 -0.3473
  755MOL0     H99628  -2.654   1.176   9.038  3.2031  0.6778  1.3354
  755MOL0     H99629  -2.642   0.999   9.011  2.0538 -0.6016  0.1818
  755MOL0     H99630  -2.622   1.057   8.758 -1.5965 -0.6927 -1.7796
  755MOL0     H99631  -2.684   1.214   8.798 -0.7436  0.6929  1.2565
  755MOL0     H99632  -2.828   0.948   8.860 -0.0887  0.5334  2.8553
  755MOL0     H99633  -2.897   1.112   8.898  0.6305  0.6692 -0.7571
  755MOL0     H99634  -2.946   0.961   8.692  0.8488  0.1593  0.8162
  755MOL0     H99635  -2.809   1.050   8.618  1.8747  0.7856  1.0042
  755MOL0     H99636  -3.081   1.168   8.724  0.4982 -2.1855  0.0899
  755MOL0     H99637  -3.036   1.141   8.567 -2.4967  3.7450 -0.3766
  755MOL0     H99638  -3.009   1.385   8.639 -0.4737  0.8466  0.5572
  755MOL0     H99639  -2.874   1.341   8.740  0.5604 -1.1863 -0.0844
  755MOL0     H99640  -2.746   1.256   8.540 -0.2389  1.0063  0.5973
  755MOL0     H99641  -2.792   1.428   8.529 -3.5189  1.7498 -0.4071
  755MOL0     H99642  -2.225   1.005   9.247  2.6472 -1.6624  1.5016
  755MOL0     H99643  -1.982   1.026   9.242 -0.7421  2.4669  0.9658
  755MOL0     H99644  -1.620   1.091   9.086 -0.5371  1.0515 -0.7524
  755MOL0     H99645  -1.391   1.111   9.167  0.4490  0.3409 -0.2450
  755MOL0     H99646   0.477   1.297   9.959 -2.2999  0.7637  1.3108
  755MOL0     H99647   0.699   1.288  10.048 -0.3644  0.2096  0.9993
  755MOL0     H99648   1.073   1.578  10.203 -0.1483  0.9100  0.2090
  755MOL0     H99649   1.319   1.567  10.244  1.9598 -2.3990 -0.9482
  755MOL0     H99650   1.551   1.206  10.197 -2.7047  1.8700 -0.7348
  755MOL0     H99651   1.472   1.165  10.350  2.0288 -0.4341  1.7864
  755MOL0     H99652   1.734   1.219  10.342 -1.3415 -1.7034 -0.2797
  755MOL0     H99653   1.675   1.389  10.338 -4.0291  1.5762  1.7969
  755MOL0     H99654   1.739   1.327  10.546 -0.5631  2.3425  0.2733
  755MOL0     H99655   1.621   1.189  10.557  1.8063  1.5252  3.1823
  755MOL0     H99656   1.562   1.483  10.550 -4.0065  0.7368 -1.7741
  755MOL0     H99657   1.436   1.346  10.552 -0.4847 -0.2020 -0.3572
  755MOL0     H99658   1.594   1.320  10.952  2.6249  0.5224 -0.4205
  755MOL0     H99659   1.265   1.134  10.288 -1.4074 -0.5153 -2.9515
  755MOL0     H99660   1.043   1.151  10.261  0.1557  0.1737 -3.5491
  756MOL0     O99661   3.224   1.974   5.471 -0.8778  0.4509 -0.0687
  756MOL0     C99662   3.309   2.018   5.546  0.5940 -0.7942 -0.3484
  756MOL0     O99663   3.289   2.044   5.678  0.1614  0.1957  0.1759
  756MOL0     C99664   3.177   2.009   5.743 -0.1061  0.0929 -0.5520
  756MOL0     C99665   3.189   1.968   5.880  0.3900 -0.4814 -0.9042
  756MOL0     C99666   3.076   1.939   5.965 -0.2669  0.7209  0.5137
  756MOL0     C99667   2.951   1.943   5.903 -0.6667 -1.6041 -0.2540
  756MOL0     O99668   2.838   1.919   5.981  0.7470 -0.1885  0.3407
  756MOL0     C99669   2.713   1.901   5.912 -0.4499 -0.0936  0.2826
  756MOL0     C99670   2.605   1.827   6.003  0.1281 -0.0325 -0.3969
  756MOL0     C99671   2.559   1.924   6.110  0.4501  0.5935  0.8023
  756MOL0     C99672   2.447   1.858   6.189 -0.1646 -0.4882 -0.0603
  756MOL0     C99673   2.394   1.960   6.285 -0.2626 -0.1870  0.3899
  756MOL0     C99674   2.270   1.900   6.355  0.8755  0.1281  0.4027
  756MOL0     C99675   2.201   2.003   6.439  0.1090 -0.2742  0.1902
  756MOL0     C99676   2.077   1.944   6.505  0.0168  0.0491  0.5415
  756MOL0     N99677   2.065   1.980   6.650  0.5457 -0.1196 -0.6715
  756MOL0     C99678   1.951   2.000   6.722 -0.0436 -0.0771  0.0019
  756MOL0     C99679   1.987   2.055   6.846  0.3153  0.2249  0.8758
  756MOL0     C99680   1.900   2.094   6.968  0.1333  0.7542 -0.3494
  756MOL0     C99681   1.854   1.976   7.054 -0.8248  0.3071 -0.1104
  756MOL0     C99682   1.701   1.949   7.024 -0.3950 -0.2116 -0.4500
  756MOL0     C99683   1.643   1.835   7.102  0.2479  0.8656 -0.6954
  756MOL0     O99684   1.499   1.830   7.076 -0.0287  0.9013  0.2613
  756MOL0     C99685   1.439   1.706   7.105  0.4255 -0.7890  0.9862
  756MOL0     C99686   1.313   1.699   7.057 -0.1978  1.6044 -0.1659
  756MOL0     C99687   1.243   1.580   7.077 -0.5752 -0.3181  0.7869
  756MOL0     C99688   1.293   1.470   7.149 -0.0799  0.0063 -0.4519
  756MOL0     C99689   1.210   1.353   7.179  0.2772  0.2489  0.6371
  756MOL0     O99690   1.096   1.344   7.103 -0.6928  0.3647 -0.2352
  756MOL0     C99691   1.010   1.238   7.134 -0.2941 -0.4766  0.2677
  756MOL0     C99692   0.943   1.169   7.034 -0.1497 -0.4381  0.2754
  756MOL0     C99693   0.834   1.093   7.067  0.5918  0.1850 -0.3007
  756MOL0     C99694   0.788   1.076   7.198 -0.5329 -0.6815  0.2806
  756MOL0     O99695   0.679   1.000   7.218 -0.1253  0.0802  0.0609
  756MOL0     C99696   0.609   0.994   7.344 -0.2677 -0.4689  0.1137
  756MOL0     C99697   0.537   1.125   7.367 -1.2540 -0.5223  0.0515
  756MOL0     C99698   0.449   1.178   7.254  0.2460 -0.1602  0.5513
  756MOL0     C99699   0.362   1.294   7.315 -0.0627 -0.5523  0.0634
  756MOL0     C99700   0.277   1.372   7.210 -0.2812  0.3016  0.1524
  756MOL0     C99701   0.141   1.292   7.174 -1.4161 -0.9893 -0.7639
  756MOL0     C99702   0.042   1.377   7.095 -0.0354  0.1346 -0.6555
  756MOL0     C99703  -0.066   1.292   7.041  0.3366  0.7675  0.1300
  756MOL0    Cl99704  -0.205   1.394   6.987 -0.2740 -0.3278  0.3808
  756MOL0     C99705   0.862   1.138   7.301 -0.5520  0.2586 -0.5454
  756MOL0     C99706   0.975   1.218   7.270 -0.2647  0.8961 -0.0197
  756MOL0     O99707   1.257   1.259   7.248 -0.0875 -0.2996 -0.1785
  756MOL0     C99708   1.426   1.479   7.194  0.5180 -0.3202  0.0398
  756MOL0     C99709   1.503   1.599   7.166  0.5922  0.4278  0.2801
  756MOL0     N99710   2.125   2.038   6.856  0.2714  0.1405 -0.6221
  756MOL0     N99711   2.168   2.005   6.739  0.1098 -0.8479  0.5078
  756MOL0     C99712   2.949   1.966   5.766 -0.1648  0.3199 -0.1667
  756MOL0     C99713   3.051   2.005   5.687 -0.1340 -0.2962 -0.2993
  756MOL0     C99714   3.450   2.022   5.491  1.5080  0.0357 -0.3353
  756MOL0     C99715   3.548   2.098   5.554 -0.3234  0.0649  0.1199
  756MOL0     C99716   3.674   2.109   5.502  0.6365  0.3904  0.1842
  756MOL0     C99717   3.719   2.031   5.393  0.1777  0.0611 -0.2465
  756MOL0     O99718   3.854   2.021   5.367 -0.0992 -0.5132 -0.0155
  756MOL0     C99719   3.906   1.924   5.282  0.0622 -0.1270  0.4507
  756MOL0     C99720   4.044   1.956   5.247 -0.4309  0.0912 -0.2036
  756MOL0     C99721   4.116   1.831   5.195 -0.5612  0.4519  0.3226
  756MOL0     C99722   4.268   1.851   5.244  0.0104  1.4461  0.7417
  756MOL0     C99723   4.354   1.734   5.206  0.0336 -0.3558 -0.0668
  756MOL0     C99724   4.416   1.640   5.166 -0.2105  0.3104 -0.1511
  756MOL0     C99725   3.621   1.945   5.331 -0.6207  0.0836 -0.2562
  756MOL0     C99726   3.484   1.953   5.375  0.3330 -0.5932 -0.6600
  756MOL0     H99727   3.291   1.965   5.917  0.3638  4.2161  0.1134
  756MOL0     H99728   3.076   1.896   6.064 -1.4944 -1.5404 -0.3903
  756MOL0     H99729   2.721   1.839   5.822  0.8189 -0.7100  0.7956
  756MOL0     H99730   2.673   1.997   5.877 -0.7128 -0.4786 -0.4801
  756MOL0     H99731   2.635   1.736   6.055 -2.5190  0.4699  2.3351
  756MOL0     H99732   2.521   1.791   5.943 -2.2808  2.1425  1.3888
  756MOL0     H99733   2.526   2.020   6.069 -0.5774 -0.1695 -0.1950
  756MOL0     H99734   2.646   1.937   6.175  1.1793 -0.1797  0.0054
  756MOL0     H99735   2.376   1.824   6.112 -0.4559  1.0752 -0.5109
  756MOL0     H99736   2.490   1.772   6.241  1.0669  0.2431  0.1645
  756MOL0     H99737   2.364   2.047   6.226 -0.9987 -0.1076  0.8657
  756MOL0     H99738   2.471   1.996   6.353  1.0529  0.9151 -1.5968
  756MOL0     H99739   2.302   1.811   6.411  0.6242 -1.8856 -2.4420
  756MOL0     H99740   2.200   1.862   6.280 -0.3611  1.1170  1.0267
  756MOL0     H99741   2.271   2.023   6.521 -0.4362 -2.4566  1.2452
  756MOL0     H99742   2.177   2.093   6.382 -0.4454 -0.0137  0.8287
  756MOL0     H99743   2.095   1.836   6.503  1.6862  0.2781  1.4385
  756MOL0     H99744   1.988   1.965   6.446 -1.5689  1.8209  3.3282
  756MOL0     H99745   1.850   1.998   6.681  0.7425  0.1921 -2.0609
  756MOL0     H99746   1.821   2.146   6.912  1.4529  2.6751 -0.5218
  756MOL0     H99747   1.969   2.161   7.021  1.6248  0.3562 -1.6864
  756MOL0     H99748   1.849   2.002   7.160 -4.1700  0.2574 -0.1361
  756MOL0     H99749   1.912   1.885   7.033 -1.2514 -0.4501  1.7434
  756MOL0     H99750   1.650   2.039   7.059 -0.1519 -0.3506  0.2779
  756MOL0     H99751   1.683   1.942   6.916 -4.5333  1.0979 -0.0200
  756MOL0     H99752   1.658   1.845   7.209  0.2865  1.4928 -0.7562
  756MOL0     H99753   1.687   1.741   7.066  0.6055  0.2997  1.1304
  756MOL0     H99754   1.261   1.786   7.018 -0.0375  1.8078  0.0720
  756MOL0     H99755   1.136   1.582   7.057 -0.2373 -1.8850 -1.4497
  756MOL0     H99756   0.973   1.189   6.932  0.6170 -2.6327  0.0107
  756MOL0     H99757   0.780   1.041   6.988 -2.1981 -0.3192  1.7748
  756MOL0     H99758   0.681   0.977   7.425 -0.9225 -0.4919  0.7083
  756MOL0     H99759   0.540   0.909   7.347  1.7258 -2.2108  4.0342
  756MOL0     H99760   0.616   1.201   7.374  0.6417 -2.0419 -2.6376
  756MOL0     H99761   0.479   1.115   7.459 -1.4164  2.7230  0.4298
  756MOL0     H99762   0.389   1.096   7.215  1.1345 -0.1081 -1.0215
  756MOL0     H99763   0.498   1.212   7.162 -0.9586  1.6621  0.5309
  756MOL0     H99764   0.300   1.247   7.392  1.2012 -1.8203  0.3566
  756MOL0     H99765   0.433   1.362   7.364  2.0102 -3.4891  1.4614
  756MOL0     H99766   0.344   1.386   7.126  1.5663 -3.3093  0.8209
  756MOL0     H99767   0.252   1.468   7.255  0.0157  0.0526  0.8674
  756MOL0     H99768   0.112   1.260   7.274  1.5571  1.1441  0.9411
  756MOL0     H99769   0.174   1.204   7.117 -0.6487 -2.2462  1.5131
  756MOL0     H99770   0.010   1.464   7.152  1.8098  0.3267  0.1662
  756MOL0     H99771   0.097   1.408   7.006  0.8154  0.8603  0.1099
  756MOL0     H99772  -0.087   1.217   7.118  1.3830 -1.4842 -1.6560
  756MOL0     H99773  -0.026   1.247   6.950 -1.4188  2.3740 -1.5118
  756MOL0     H99774   0.843   1.122   7.407  1.7326 -3.3071 -0.4863
  756MOL0     H99775   1.020   1.261   7.359 -0.1584 -0.0326  0.3841
  756MOL0     H99776   1.466   1.390   7.241 -0.5858 -2.8168 -3.3227
  756MOL0     H99777   1.606   1.600   7.201  1.3118 -1.6346 -1.5667
  756MOL0     H99778   2.858   1.964   5.708  0.7957  3.8796 -2.1068
  756MOL0     H99779   3.032   2.040   5.586  1.2692  4.8115  0.8892
  756MOL0     H99780   3.515   2.155   5.641  2.0656 -1.5570  2.2542
  756MOL0     H99781   3.747   2.172   5.552  1.4607 -1.2129  1.0684
  756MOL0     H99782   3.857   1.923   5.184 -2.0642 -2.5204  1.4024
  756MOL0     H99783   3.896   1.824   5.326  1.3244 -0.3090  0.3599
  756MOL0     H99784   4.059   2.042   5.180  0.0021  2.0268  2.2469
  756MOL0     H99785   4.089   1.983   5.343 -0.1466  1.5396 -0.7190
  756MOL0     H99786   4.112   1.839   5.086  4.6169 -2.0730 -0.3198
  756MOL0     H99787   4.073   1.739   5.235  1.7464 -0.7464  0.1971
  756MOL0     H99788   4.307   1.941   5.195 -0.6232 -0.2228 -3.2129
  756MOL0     H99789   4.276   1.871   5.351  1.2731 -1.4099  1.2444
  756MOL0     H99790   4.483   1.559   5.145  1.0327  1.0886  0.6782
  756MOL0     H99791   3.640   1.883   5.244 -1.0254  0.8949 -0.9542
  756MOL0     H99792   3.406   1.912   5.312  2.0061  0.7855 -3.8805
  757MOL0     O99793   7.710   4.327   0.725 -0.4176  0.5433 -0.8936
  757MOL0     C99794   7.700   4.209   0.689 -0.8525 -0.2868 -0.8862
  757MOL0     O99795   7.586   4.133   0.676 -0.1625 -1.1921 -0.5538
  757MOL0     C99796   7.460   4.191   0.698 -0.0706 -0.8640 -0.4653
  757MOL0     C99797   7.429   4.326   0.668 -0.0943 -0.0462  0.7122
  757MOL0     C99798   7.316   4.392   0.711 -0.2719 -0.5058  0.4747
  757MOL0     C99799   7.210   4.324   0.763  0.0676 -0.4580 -0.1806
  757MOL0     O99800   7.095   4.391   0.787  0.1481 -0.5346 -0.9602
  757MOL0     C99801   6.975   4.306   0.789  0.0616 -0.7530  0.1164
  757MOL0     C99802   6.851   4.396   0.780 -0.3944  0.2232 -0.4849
  757MOL0     C99803   6.720   4.310   0.775 -0.6397 -0.3156  0.9480
  757MOL0     C99804   6.608   4.404   0.804 -0.0946  0.0052  0.3916
  757MOL0     C99805   6.481   4.327   0.827  0.5107 -1.6856  0.2092
  757MOL0     C99806   6.382   4.424   0.899 -0.6065  0.4051  0.5769
  757MOL0     C99807   6.251   4.349   0.940 -0.3031  0.0823 -0.2093
  757MOL0     C99808   6.146   4.458   0.990 -0.3397  0.8277 -0.4491
  757MOL0     N99809   6.006   4.399   0.987  0.3551 -0.7716 -0.1824
  757MOL0     C99810   5.954   4.331   1.097 -0.3493 -0.4926 -0.2582
  757MOL0     C99811   5.821   4.309   1.060  0.1369 -0.0704  0.5043
  757MOL0     C99812   5.725   4.253   1.164 -0.5465 -0.2805 -0.4601
  757MOL0     C99813   5.577   4.300   1.142  0.2684 -0.9214 -0.0944
  757MOL0     C99814   5.471   4.214   1.198  0.2667  0.0951 -0.1015
  757MOL0     C99815   5.369   4.303   1.274 -0.0351  0.1244 -0.4346
  757MOL0     O99816   5.258   4.228   1.317 -0.0417  0.6452 -0.7248
  757MOL0     C99817   5.178   4.152   1.236  0.1586 -0.7002 -0.6800
  757MOL0     C99818   5.171   4.155   1.098 -0.5101 -0.4170 -0.6391
  757MOL0     C99819   5.062   4.101   1.027 -0.3722 -0.0776  0.6321
  757MOL0     C99820   4.963   4.026   1.086  0.4691 -0.2528 -0.8146
  757MOL0     C99821   4.847   3.973   1.010 -0.0943  0.3684 -0.1149
  757MOL0     O99822   4.868   3.931   0.882  0.4721  0.1164 -0.2594
  757MOL0     C99823   4.753   3.906   0.803 -0.5482 -0.2792  0.5669
  757MOL0     C99824   4.753   3.796   0.711  0.5423  0.3123  0.3992
  757MOL0     C99825   4.642   3.758   0.639  0.0247 -0.0537 -0.0675
  757MOL0     C99826   4.532   3.846   0.639  0.1798 -1.1369  0.4246
  757MOL0     O99827   4.412   3.797   0.593  0.1407  0.2529  0.3886
  757MOL0     C99828   4.317   3.892   0.537  0.0158 -0.1332 -0.0321
  757MOL0     C99829   4.283   3.857   0.396  0.1244  1.0090 -0.4677
  757MOL0     C99830   4.402   3.849   0.304 -0.0346  0.4090  0.0885
  757MOL0     C99831   4.368   3.858   0.156 -0.2138  1.0468  0.6158
  757MOL0     C99832   4.489   3.858   0.054 -0.0694  0.0115 -0.1673
  757MOL0     C99833   4.440   3.807  -0.079 -0.5216 -1.1058  0.8506
  757MOL0     C99834   4.349   3.924  -0.134 -0.5124  0.2984 -0.0892
  757MOL0     C99835   4.305   3.899  -0.277  0.4656 -0.1361 -0.8266
  757MOL0    Cl99836   4.169   3.787  -0.264  0.0433 -0.3075  0.4293
  757MOL0     C99837   4.533   3.964   0.715 -0.9065  1.0632 -0.1909
  757MOL0     C99838   4.644   3.988   0.802  0.0861  0.5681  0.8251
  757MOL0     O99839   4.737   3.972   1.070  0.0378 -0.5903 -0.4008
  757MOL0     C99840   4.972   4.012   1.228  0.1511 -0.0594 -0.1989
  757MOL0     C99841   5.081   4.076   1.298  0.4653  0.2429  0.1923
  757MOL0     N99842   5.791   4.378   0.941 -0.3616  0.4767 -0.0213
  757MOL0     N99843   5.907   4.431   0.894  0.0978 -0.8220  0.1740
  757MOL0     C99844   7.228   4.182   0.783 -0.0088  0.0810  0.6418
  757MOL0     C99845   7.357   4.120   0.757  0.5838  0.1008 -0.2492
  757MOL0     C99846   7.826   4.139   0.667  0.4302 -0.3364  0.1511
  757MOL0     C99847   7.820   3.992   0.663  0.1526  0.3246 -0.1233
  757MOL0     C99848   7.945   3.923   0.652  0.5050  0.4325  1.3969
  757MOL0     C99849   8.068   3.992   0.646 -0.1021  0.1341  0.1054
  757MOL0     O99850   8.182   3.921   0.648  0.2729 -0.5149  0.3946
  757MOL0     C99851   8.306   3.983   0.685 -0.2000  0.0739  0.0867
  757MOL0     C99852   8.413   3.882   0.727  0.3095  0.1153  0.8771
  757MOL0     C99853   8.394   3.826   0.876 -0.3635  0.1886  0.3973
  757MOL0     C99854   8.524   3.748   0.916 -0.1830 -0.0215 -0.7548
  757MOL0     C99855   8.651   3.833   0.908 -0.0819  0.6523 -0.2952
  757MOL0     C99856   8.752   3.893   0.888  0.5674  0.4106 -0.9225
  757MOL0     C99857   8.061   4.131   0.642 -0.1372 -0.1559 -0.5344
  757MOL0     C99858   7.942   4.207   0.648 -1.0549 -0.5468 -0.1649
  757MOL0     H99859   7.498   4.378   0.602 -0.0867 -2.1060 -1.0280
  757MOL0     H99860   7.291   4.495   0.686 -0.1743 -0.2454  1.4010
  757MOL0     H99861   6.973   4.248   0.882  2.4746 -0.0278  0.6839
  757MOL0     H99862   6.988   4.251   0.695 -0.3609  3.4391 -2.6706
  757MOL0     H99863   6.854   4.453   0.686  0.2889  0.5934 -0.2465
  757MOL0     H99864   6.862   4.461   0.868  1.0048 -0.3982 -0.1804
  757MOL0     H99865   6.729   4.230   0.850  1.4915 -1.0791 -0.0529
  757MOL0     H99866   6.715   4.259   0.679 -0.2315  0.1449  0.6816
  757MOL0     H99867   6.633   4.476   0.882 -0.5380  0.9717 -0.3436
  757MOL0     H99868   6.587   4.455   0.710  2.5064  1.7824  0.6829
  757MOL0     H99869   6.507   4.242   0.892  2.0889  0.1579  2.1357
  757MOL0     H99870   6.434   4.289   0.736  2.0192  2.5940 -2.6692
  757MOL0     H99871   6.364   4.499   0.821 -1.6379 -1.6794 -1.2711
  757MOL0     H99872   6.437   4.476   0.978 -0.7629 -1.5384  2.0346
  757MOL0     H99873   6.218   4.303   0.846 -2.4494  0.6160  0.2164
  757MOL0     H99874   6.276   4.268   1.009  2.3359  1.1910  0.2278
  757MOL0     H99875   6.144   4.552   0.935  1.1456  3.0449  2.9433
  757MOL0     H99876   6.171   4.476   1.095  1.0870  0.9500 -0.7932
  757MOL0     H99877   5.996   4.294   1.190 -0.6965 -2.5835 -0.8860
  757MOL0     H99878   5.752   4.285   1.265 -2.7879  1.2581 -0.2800
  757MOL0     H99879   5.733   4.144   1.154  1.4015 -0.0787 -1.6281
  757MOL0     H99880   5.556   4.311   1.036  1.5198 -1.2716 -0.3909
  757MOL0     H99881   5.564   4.398   1.191 -0.4052  0.4604 -2.8220
  757MOL0     H99882   5.416   4.155   1.124 -0.6319 -0.8850  1.2888
  757MOL0     H99883   5.527   4.150   1.267  3.2880  1.1228 -1.4428
  757MOL0     H99884   5.341   4.385   1.206  2.2516 -0.8068 -2.6844
  757MOL0     H99885   5.418   4.353   1.358 -2.0952 -1.3869  1.7816
  757MOL0     H99886   5.233   4.222   1.041  0.1635  0.8532  1.4537
  757MOL0     H99887   5.055   4.114   0.920  1.2431 -0.0532  0.5044
  757MOL0     H99888   4.842   3.735   0.724  0.9098 -0.0797 -3.0208
  757MOL0     H99889   4.636   3.662   0.589 -0.5873  0.5665 -1.2231
  757MOL0     H99890   4.366   3.990   0.541 -0.7013  0.3037 -1.2410
  757MOL0     H99891   4.228   3.904   0.599  1.8166  3.2649  2.2209
  757MOL0     H99892   4.224   3.942   0.360  0.0058  1.2707  0.3346
  757MOL0     H99893   4.219   3.770   0.384 -0.5992  1.5055 -0.2702
  757MOL0     H99894   4.460   3.757   0.317 -5.5428 -3.4659  0.6343
  757MOL0     H99895   4.466   3.934   0.329  0.9187  0.4091 -2.1371
  757MOL0     H99896   4.311   3.765   0.141  0.6030  0.6439 -0.0929
  757MOL0     H99897   4.290   3.930   0.129 -0.3296  0.1285 -1.7855
  757MOL0     H99898   4.561   3.781   0.081 -1.0246  0.1699  3.2811
  757MOL0     H99899   4.537   3.956   0.047  2.2049 -1.1261 -1.6029
  757MOL0     H99900   4.378   3.717  -0.075  0.5999 -1.8460  2.5517
  757MOL0     H99901   4.525   3.786  -0.144 -0.7368 -1.4862  0.6901
  757MOL0     H99902   4.255   3.940  -0.079 -1.4326 -1.5052 -1.0394
  757MOL0     H99903   4.400   4.020  -0.146 -0.6662  0.2262 -1.5736
  757MOL0     H99904   4.380   3.841  -0.331  0.1420 -1.3794  0.0044
  757MOL0     H99905   4.285   3.991  -0.332  0.9125  1.0228  0.8764
  757MOL0     H99906   4.442   4.021   0.731 -1.3697  0.2106  0.2350
  757MOL0     H99907   4.642   4.062   0.880 -2.0500 -1.2499  2.6433
  757MOL0     H99908   4.901   3.951   1.284 -0.1857  0.1844 -0.3583
  757MOL0     H99909   5.091   4.062   1.405  1.2651 -1.1380 -0.0441
  757MOL0     H99910   7.156   4.114   0.828 -2.4828  0.3098 -2.6135
  757MOL0     H99911   7.370   4.015   0.782  1.3504  0.2369 -0.0481
  757MOL0     H99912   7.729   3.933   0.664  0.4564 -0.3861 -3.1474
  757MOL0     H99913   7.940   3.815   0.652 -1.0973  0.4692  2.4195
  757MOL0     H99914   8.289   4.050   0.770  3.9131  0.5071  0.7537
  757MOL0     H99915   8.356   4.043   0.609  1.5592 -0.2097  0.9702
  757MOL0     H99916   8.422   3.800   0.656 -0.8514 -0.8275  1.7669
  757MOL0     H99917   8.513   3.923   0.713  1.0013 -0.9854  2.3529
  757MOL0     H99918   8.311   3.755   0.882  0.8324 -1.2066  0.8748
  757MOL0     H99919   8.381   3.905   0.950 -0.4927 -0.9329  1.6169
  757MOL0     H99920   8.517   3.717   1.021 -0.5181  0.0287 -0.7612
  757MOL0     H99921   8.535   3.666   0.845 -0.0051  2.3013 -3.5786
  757MOL0     H99922   8.850   3.935   0.880  1.1695  0.2678  3.3807
  757MOL0     H99923   8.151   4.191   0.646 -1.1944  1.4999 -0.6508
  757MOL0     H99924   7.949   4.316   0.654 -0.5929 -0.5489 -0.6371
  758MOL0     O99925   9.262   2.880  11.162 -1.5099 -0.1092  0.2619
  758MOL0     C99926   9.244   2.883  11.038  0.2269 -0.1779 -0.2264
  758MOL0     O99927   9.123   2.893  10.976 -0.0351 -0.2099 -0.0349
  758MOL0     C99928   9.019   2.928  11.056 -0.4172  0.0883  0.6119
  758MOL0     C99929   8.990   3.068  11.056 -0.2662  0.5744  1.0114
  758MOL0     C99930   8.907   3.121  11.157  0.5286  0.2089  0.4939
  758MOL0     C99931   8.850   3.044  11.261 -0.0340  0.3452  0.1775
  758MOL0     O99932   8.761   3.088  11.348  0.0660  0.4429 -1.2098
  758MOL0     C99933   8.684   3.200  11.309 -1.0131  0.4778  0.0341
  758MOL0     C99934   8.580   3.242  11.407  1.1656  0.2290  0.9521
  758MOL0     C99935   8.500   3.117  11.461 -0.0538  0.2859 -0.3002
  758MOL0     C99936   8.400   3.155  11.581 -0.1052  0.7146 -0.0437
  758MOL0     C99937   8.325   3.039  11.651 -0.2301 -0.1702  0.8301
  758MOL0     C99938   8.245   3.084  11.766 -0.0812 -0.0024  0.6094
  758MOL0     C99939   8.231   2.965  11.859 -0.7799  0.6376 -0.5507
  758MOL0     C99940   8.226   3.024  12.002  0.0416 -0.0828  1.0321
  758MOL0     N99941   8.204   2.919  12.088 -0.4478  0.2524 -0.0121
  758MOL0     C99942   8.089   2.890  12.168 -0.3864  0.2774  0.2314
  758MOL0     C99943   8.134   2.789  12.251  1.0487  0.5993 -0.4369
  758MOL0     C99944   8.051   2.707  12.352  0.4029 -0.6736  0.5120
  758MOL0     C99945   8.060   2.752  12.497 -0.8936  0.1399  0.3108
  758MOL0     C99946   8.043   2.898  12.527  0.0621 -0.3526 -0.4966
  758MOL0     C99947   7.906   2.960  12.498 -0.1662  0.1681  0.2381
  758MOL0     O99948   7.815   2.872  12.565  0.4189  0.7342  0.6742
  758MOL0     C99949   7.686   2.873  12.528  0.4580  0.3935  0.6209
  758MOL0     C99950   7.621   2.748  12.537  0.0912  0.1778  0.2204
  758MOL0     C99951   7.487   2.732  12.505  0.1405 -0.5483  0.5458
  758MOL0     C99952   7.417   2.854  12.480  0.0054 -0.4755  0.1261
  758MOL0     C99953   7.266   2.849  12.470  0.3260 -0.5631  0.7187
  758MOL0     O99954   7.201   2.959  12.495 -0.0474  0.0841  0.0780
  758MOL0     C99955   7.086   2.964  12.415 -0.2888  0.0061 -0.5368
  758MOL0     C99956   6.964   2.912  12.444 -0.5057  0.0574  0.4535
  758MOL0     C99957   6.858   2.926  12.353 -0.2453 -0.0764 -0.0214
  758MOL0     C99958   6.869   2.989  12.222  0.0601 -0.0738  0.7940
  758MOL0     O99959   6.770   3.012  12.125  0.8003  0.1971 -0.6660
  758MOL0     C99960   6.669   2.912  12.123  0.5031  1.3727  0.0717
  758MOL0     C99961   6.562   2.939  12.014 -0.7583 -0.6351  0.0567
  758MOL0     C99962   6.616   2.953  11.860  0.3670  0.4461 -0.5057
  758MOL0     C99963   6.499   2.994  11.762 -0.5101 -0.7139  0.5230
  758MOL0     C99964   6.533   3.064  11.622  0.5251  0.1207  0.1432
  758MOL0     C99965   6.398   3.049  11.541 -0.4577 -0.1663 -0.2831
  758MOL0     C99966   6.282   3.121  11.608 -0.0094 -0.2878  0.3713
  758MOL0     C99967   6.152   3.107  11.528  0.9256 -0.0906  0.0404
  758MOL0    Cl99968   6.005   3.164  11.611 -0.4463  0.3261  0.0875
  758MOL0     C99969   6.997   3.036  12.203  0.1859  0.9400  0.8604
  758MOL0     C99970   7.097   3.040  12.303  0.4634  0.5871  0.5563
  758MOL0     O99971   7.217   2.745  12.430  0.1298 -0.3847  0.2992
  758MOL0     C99972   7.483   2.978  12.464 -0.4187  0.6204 -0.3023
  758MOL0     C99973   7.620   2.988  12.485  0.5448 -0.5543  0.0217
  758MOL0     N99974   8.264   2.752  12.216 -0.4471 -0.5528  0.5433
  758MOL0     N99975   8.311   2.830  12.115 -0.0904 -0.3990 -0.5265
  758MOL0     C99976   8.879   2.907  11.256  0.3216 -0.7243 -0.1350
  758MOL0     C99977   8.961   2.851  11.164  0.3146 -0.5123 -0.1231
  758MOL0     C99978   9.358   2.873  10.952 -0.1212 -0.1738 -0.4267
  758MOL0     C99979   9.490   2.833  10.997  0.0615 -0.4663 -0.4044
  758MOL0     C99980   9.595   2.845  10.911 -0.3198 -0.2201 -0.1387
  758MOL0     C99981   9.589   2.901  10.779 -0.0774 -0.5773  0.5703
  758MOL0     O99982   9.693   2.925  10.693  0.4075 -0.0181 -0.3465
  758MOL0     C99983   9.823   2.898  10.748  1.0804  0.5271 -0.0997
  758MOL0     C99984   9.930   2.946  10.651  0.2923  0.0962 -0.6131
  758MOL0     C99985  10.072   2.906  10.692 -0.6423 -0.0173  0.0804
  758MOL0     C99986  10.180   3.015  10.648  0.3017 -0.0524 -0.4696
  758MOL0     C99987  10.314   2.977  10.599  0.8856  0.6567 -0.4523
  758MOL0     C99988  10.415   2.917  10.569  0.3504  0.2344 -0.1356
  758MOL0     C99989   9.460   2.935  10.740  0.1646  0.5538  0.3841
  758MOL0     C99990   9.341   2.921  10.817  0.2303  0.9023 -0.2968
  758MOL0     H99991   9.030   3.128  10.974 -0.7475 -1.7728 -1.0802
  758MOL0     H99992   8.894   3.229  11.149 -2.9713 -0.2075 -1.6838
  758MOL0     H99993   8.647   3.187  11.207  1.7198  2.5175 -1.3705
  758MOL0     H99994   8.744   3.291  11.311 -0.2911  0.1121 -2.1159
  758MOL0     H99995   8.516   3.314  11.355 -0.5285 -1.8505  0.0111
  758MOL0     H99996   8.634   3.286  11.492  0.1256  1.7688  0.8589
  758MOL0     H99997   8.569   3.041  11.501  0.2550  0.3112 -0.7710
  758MOL0     H99998   8.441   3.067  11.384 -0.5280  2.0593 -1.1379
  758MOL0     H99999   8.459   3.205  11.658  0.2142 -0.3416  0.4139
  758MOL0     H    0   8.328   3.221  11.532  2.0794  1.0500 -3.0529
  758MOL0     H    1   8.399   2.964  11.682 -0.6927 -0.3872  1.4176
  758MOL0     H    2   8.258   2.988  11.581 -0.6061 -2.8275  2.9564
  758MOL0     H    3   8.150   3.137  11.752 -0.8577 -0.5690  3.1538
  758MOL0     H    4   8.308   3.158  11.815 -0.4129  0.9574 -0.3832
  758MOL0     H    5   8.142   2.901  11.855 -1.2374  1.2026  0.1811
  758MOL0     H    6   8.303   2.883  11.857 -2.0307 -0.5110 -0.1102
  758MOL0     H    7   8.153   3.106  12.008  0.0426  0.0388 -0.4089
  758MOL0     H    8   8.319   3.072  12.036 -0.5674  0.2735  2.2801
  758MOL0     H    9   7.989   2.929  12.151 -0.5382  0.4294  1.4271
  758MOL0     H   10   8.076   2.601  12.340  0.3093 -0.7676  1.1215
  758MOL0     H   11   7.950   2.698  12.313  1.1826 -0.1740 -1.7923
  758MOL0     H   12   8.161   2.723  12.527 -0.4586 -0.7884 -1.8540
  758MOL0     H   13   7.997   2.686  12.558  0.1218 -1.5858 -0.4416
  758MOL0     H   14   8.066   2.914  12.633  1.5220 -2.9974 -0.3270
  758MOL0     H   15   8.121   2.955  12.476  0.9385 -0.1923  0.9531
  758MOL0     H   16   7.897   2.969  12.390  0.2606  1.2416  0.2806
  758MOL0     H   17   7.908   3.059  12.545  1.3758  0.2029  0.1535
  758MOL0     H   18   7.689   2.670  12.569  1.3956  0.9076 -0.6699
  758MOL0     H   19   7.449   2.633  12.483 -1.4729  0.7072 -3.1214
  758MOL0     H   20   6.943   2.866  12.540  1.3485 -1.3245  0.2515
  758MOL0     H   21   6.758   2.899  12.385 -0.1539  1.4993  1.7567
  758MOL0     H   22   6.622   2.906  12.222  0.0306 -1.1049 -0.2390
  758MOL0     H   23   6.718   2.816  12.106 -0.2609  1.1570 -1.0213
  758MOL0     H   24   6.509   3.033  12.033 -0.3663 -0.6086  1.0530
  758MOL0     H   25   6.485   2.861  12.015  0.8754 -2.3232  0.5285
  758MOL0     H   26   6.651   2.854  11.829 -2.6372 -1.4418  1.5125
  758MOL0     H   27   6.695   3.028  11.853  1.1399 -0.1919  0.9714
  758MOL0     H   28   6.446   2.900  11.745 -2.2506  0.4017 -0.5662
  758MOL0     H   29   6.436   3.066  11.815 -1.6340 -0.3347 -1.2547
  758MOL0     H   30   6.620   3.025  11.569  1.5529  1.3046  0.9210
  758MOL0     H   31   6.569   3.165  11.643  2.7961 -0.9981  2.1307
  758MOL0     H   32   6.379   2.942  11.526  1.1190 -0.5172 -0.0530
  758MOL0     H   33   6.404   3.091  11.441 -0.1408  2.2687  0.6992
  758MOL0     H   34   6.261   3.070  11.703 -0.4553 -0.2475  0.2998
  758MOL0     H   35   6.311   3.225  11.628 -0.5686  0.1154 -0.7952
  758MOL0     H   36   6.143   3.002  11.498 -0.8727  0.7368 -2.7781
  758MOL0     H   37   6.163   3.154  11.430  0.4882  2.4985  1.1486
  758MOL0     H   38   7.012   3.085  12.107  0.9578  0.1666  0.5771
  758MOL0     H   39   7.191   3.091  12.284 -0.1737  1.2887 -0.8700
  758MOL0     H   40   7.428   3.070  12.447  0.2995  1.3265  1.0478
  758MOL0     H   41   7.663   3.087  12.483 -0.1967 -0.1272  2.1306
  758MOL0     H   42   8.835   2.852  11.338 -0.1740  1.6014  1.2529
  758MOL0     H   43   8.989   2.747  11.168  1.4420 -0.1912  0.5929
  758MOL0     H   44   9.502   2.795  11.098  0.4479 -2.1405 -1.0375
  758MOL0     H   45   9.677   2.792  10.957 -0.5642 -1.8406 -1.4727
  758MOL0     H   46   9.837   2.792  10.772 -2.9532 -0.5198 -1.5735
  758MOL0     H   47   9.818   2.960  10.838  0.3926  2.1114 -1.1834
  758MOL0     H   48   9.907   2.895  10.557 -1.3625 -2.4224  1.0313
  758MOL0     H   49   9.911   3.054  10.642 -0.4525 -0.0587 -0.9444
  758MOL0     H   50  10.101   2.818  10.634 -2.0842 -0.3062 -0.2458
  758MOL0     H   51  10.070   2.887  10.799  2.0045  1.6589  0.5236
  758MOL0     H   52  10.139   3.085  10.574  2.2482  2.0750  0.3080
  758MOL0     H   53  10.202   3.062  10.745 -2.3228 -0.7859  0.5620
  758MOL0     H   54  10.508   2.871  10.542 -0.2921 -1.0769 -0.1893
  758MOL0     H   55   9.452   2.961  10.635  2.2074 -0.6442 -0.1125
  758MOL0     H   56   9.241   2.950  10.786 -1.8098 -3.3117  1.4660
  759MOL0     O   57   9.431   8.583   9.796 -0.2021 -0.4306 -1.0022
  759MOL0     C   58   9.452   8.695   9.767 -0.4541 -0.7496  0.5185
  759MOL0     O   59   9.356   8.789   9.724 -0.6322  0.0901 -0.6598
  759MOL0     C   60   9.233   8.748   9.706  0.7008  0.3148  0.8035
  759MOL0     C   61   9.122   8.808   9.766 -0.5575 -0.0486 -0.2571
  759MOL0     C   62   8.992   8.767   9.732 -0.0786 -0.0066 -0.2206
  759MOL0     C   63   8.964   8.659   9.644 -0.9671  0.1647  0.4677
  759MOL0     O   64   8.842   8.598   9.612 -0.4270 -0.2202  1.1080
  759MOL0     C   65   8.746   8.703   9.571  0.2165 -0.5772  0.6509
  759MOL0     C   66   8.618   8.639   9.514 -0.1351  0.5610  0.1952
  759MOL0     C   67   8.516   8.741   9.462 -0.2060 -0.6954  0.5899
  759MOL0     C   68   8.375   8.684   9.429 -0.5667  0.6606 -0.7168
  759MOL0     C   69   8.296   8.672   9.561 -0.0966  0.0330  1.3258
  759MOL0     C   70   8.178   8.567   9.546 -0.1661 -0.7116  0.5466
  759MOL0     C   71   8.073   8.600   9.436  0.2831 -0.0444  0.2848
  759MOL0     C   72   8.003   8.468   9.391  0.3728  0.6317  0.0519
  759MOL0     N   73   7.866   8.489   9.332  0.3859  0.4471  0.1746
  759MOL0     C   74   7.775   8.397   9.299  0.0939  0.2972  1.0525
  759MOL0     C   75   7.660   8.462   9.270  0.0749  0.1712  0.5723
  759MOL0     C   76   7.530   8.400   9.215  0.5298  0.1321 -0.5431
  759MOL0     C   77   7.522   8.405   9.060 -0.0176 -0.1042 -0.2375
  759MOL0     C   78   7.461   8.283   8.993 -0.0828 -0.5165  0.0271
  759MOL0     C   79   7.330   8.241   9.050  0.2756  0.1836 -0.3533
  759MOL0     O   80   7.273   8.119   8.984  0.0917 -0.0592 -0.1237
  759MOL0     C   81   7.137   8.092   8.981 -0.2809  0.5972 -0.0100
  759MOL0     C   82   7.111   7.984   8.897 -0.5865 -0.6942  0.3610
  759MOL0     C   83   6.980   7.957   8.871 -0.4836 -0.3711  0.4074
  759MOL0     C   84   6.868   8.014   8.935 -0.1681  0.3351  0.2840
  759MOL0     C   85   6.731   7.973   8.898 -0.1918  0.0866 -0.7759
  759MOL0     O   86   6.626   8.048   8.949 -0.2977  0.0414 -0.4505
  759MOL0     C   87   6.499   7.997   8.951  0.4815 -0.3245 -0.0216
  759MOL0     C   88   6.398   8.063   8.885  0.2843 -0.8471  0.3558
  759MOL0     C   89   6.275   8.009   8.868  0.5270 -0.1258 -0.7665
  759MOL0     C   90   6.251   7.875   8.921  0.1316  0.3871 -0.1225
  759MOL0     O   91   6.138   7.803   8.901 -0.3195  0.3707 -0.2864
  759MOL0     C   92   6.019   7.870   8.946  0.1559 -0.1173  0.6340
  759MOL0     C   93   5.924   7.769   9.003  0.1293 -0.1318  0.1088
  759MOL0     C   94   5.780   7.818   9.017  0.0893 -0.7752  0.1739
  759MOL0     C   95   5.676   7.714   9.078  0.3754 -0.2222  0.2786
  759MOL0     C   96   5.530   7.775   9.082 -0.8388 -0.7207 -0.2755
  759MOL0     C   97   5.426   7.680   9.134 -0.3277  0.7809 -0.5659
  759MOL0     C   98   5.309   7.760   9.198  0.8165 -0.4492 -0.5719
  759MOL0     C   99   5.197   7.668   9.258  0.4802 -0.1991 -0.4685
  759MOL0    Cl  100   5.254   7.604   9.422 -0.5646  0.5114 -0.0955
  759MOL0     C  101   6.347   7.809   8.998 -0.5183 -0.7258  0.0224
  759MOL0     C  102   6.475   7.869   9.008  0.0471 -0.0587 -0.7832
  759MOL0     O  103   6.727   7.878   8.827 -0.3834  0.2289  0.1352
  759MOL0     C  104   6.894   8.117   9.027 -0.6467 -0.0916 -1.3145
  759MOL0     C  105   7.031   8.155   9.051 -0.0728  0.4884  0.5490
  759MOL0     N  106   7.679   8.600   9.291  0.2112 -0.2358  0.6611
  759MOL0     N  107   7.805   8.614   9.327  0.3133  0.8814  0.0664
  759MOL0     C  108   9.073   8.589   9.595  0.0108 -0.3197 -0.8088
  759MOL0     C  109   9.207   8.638   9.622 -0.4036  0.6341  0.0243
  759MOL0     C  110   9.587   8.752   9.783  0.2295  0.0511 -0.0122
  759MOL0     C  111   9.701   8.671   9.767 -0.7262 -0.7654 -0.3962
  759MOL0     C  112   9.833   8.725   9.781 -0.1838  0.3473  0.3986
  759MOL0     C  113   9.855   8.858   9.797 -0.3276  1.0173 -0.1128
  759MOL0     O  114   9.978   8.914   9.791 -0.4161 -0.0767 -0.8672
  759MOL0     C  115  10.099   8.839   9.814  0.0486  0.7855  0.4062
  759MOL0     C  116  10.105   8.804   9.956 -0.4209  0.0190 -1.4014
  759MOL0     C  117  10.220   8.690   9.966  0.3260 -0.4873 -0.1305
  759MOL0     C  118  10.217   8.610  10.103  0.1441 -0.4718  0.4080
  759MOL0     C  119  10.095   8.532  10.106 -0.6938  0.3877  0.1632
  759MOL0     C  120   9.998   8.471  10.138  0.4281  0.2458  1.1158
  759MOL0     C  121   9.741   8.937   9.804  0.1015 -0.3764 -0.0415
  759MOL0     C  122   9.607   8.892   9.807 -0.4660 -1.1911  0.3570
  759MOL0     H  123   9.131   8.885   9.842  1.0294 -3.2949  3.1543
  759MOL0     H  124   8.914   8.806   9.797 -1.6626 -1.0284 -1.4301
  759MOL0     H  125   8.795   8.763   9.493  2.7875 -3.7731 -0.4470
  759MOL0     H  126   8.728   8.762   9.661 -1.5085  0.3665 -0.2763
  759MOL0     H  127   8.579   8.589   9.603  4.1081 -0.5748  1.6365
  759MOL0     H  128   8.641   8.564   9.438  1.8302  0.4576  0.8421
  759MOL0     H  129   8.560   8.786   9.373 -1.1361  1.4925  1.1535
  759MOL0     H  130   8.501   8.821   9.536  0.8754 -0.4183  0.5287
  759MOL0     H  131   8.320   8.752   9.362 -0.9456  0.0618 -1.0283
  759MOL0     H  132   8.375   8.588   9.377  0.4096  0.2154  0.0877
  759MOL0     H  133   8.256   8.771   9.587  0.4961  1.5192 -2.5963
  759MOL0     H  134   8.360   8.630   9.639 -0.1382 -1.9297  0.3568
  759MOL0     H  135   8.117   8.551   9.636 -2.0263  2.6688  0.0473
  759MOL0     H  136   8.227   8.472   9.520  2.1131  0.2748  0.9622
  759MOL0     H  137   8.002   8.676   9.469 -1.9941 -2.3956  1.1123
  759MOL0     H  138   8.115   8.637   9.342 -1.7077  0.1412 -0.5740
  759MOL0     H  139   7.984   8.415   9.485 -0.5359 -0.1657 -0.5715
  759MOL0     H  140   8.079   8.410   9.337  0.5427  0.1351  0.7972
  759MOL0     H  141   7.781   8.289   9.296 -3.4455 -0.2663 -6.0968
  759MOL0     H  142   7.445   8.443   9.268  2.0895  1.6807  0.8135
  759MOL0     H  143   7.533   8.293   9.239 -2.3648  0.3404  1.0470
  759MOL0     H  144   7.621   8.432   9.022 -0.3006  0.6904 -0.4175
  759MOL0     H  145   7.458   8.492   9.043  0.1632 -0.1154 -1.0274
  759MOL0     H  146   7.450   8.308   8.887  0.7331 -0.3413 -0.0241
  759MOL0     H  147   7.533   8.201   8.985  1.8170  1.2732 -3.3060
  759MOL0     H  148   7.265   8.329   9.039  1.5548  1.1002 -0.7661
  759MOL0     H  149   7.341   8.223   9.158 -0.3542  0.0319 -0.3083
  759MOL0     H  150   7.183   7.930   8.835 -1.8358 -2.8263  0.6411
  759MOL0     H  151   6.970   7.879   8.796  1.2814  0.9807 -1.3582
  759MOL0     H  152   6.421   8.161   8.844  0.2682 -1.7768 -2.0493
  759MOL0     H  153   6.211   8.070   8.805  0.6500 -0.1524 -0.9185
  759MOL0     H  154   5.976   7.924   8.861  2.4164 -0.8798 -1.1140
  759MOL0     H  155   6.040   7.942   9.026  2.1634  0.0716  0.0078
  759MOL0     H  156   5.967   7.734   9.096 -1.1464  1.9566  1.5883
  759MOL0     H  157   5.918   7.685   8.934 -0.7094  1.7081 -2.2100
  759MOL0     H  158   5.743   7.855   8.921  0.4918  1.5793  0.8636
  759MOL0     H  159   5.778   7.903   9.086 -1.0845  0.1865 -0.9925
  759MOL0     H  160   5.671   7.621   9.021  0.1736  0.4280 -0.7756
  759MOL0     H  161   5.695   7.699   9.185  1.0760  0.1255  0.2083
  759MOL0     H  162   5.508   7.802   8.978  0.3680 -0.9842 -0.6189
  759MOL0     H  163   5.520   7.865   9.143 -2.2202  1.1697 -3.0502
  759MOL0     H  164   5.466   7.623   9.218  0.5322  0.7984 -0.9571
  759MOL0     H  165   5.409   7.619   9.045  2.8960  0.2046 -0.9318
  759MOL0     H  166   5.346   7.822   9.280  0.2630 -0.4484 -0.3203
  759MOL0     H  167   5.259   7.818   9.120 -3.0891  0.1776  2.1812
  759MOL0     H  168   5.161   7.601   9.179 -1.7969  3.7853 -3.1518
  759MOL0     H  169   5.108   7.720   9.295 -1.6962 -2.6071 -1.9694
  759MOL0     H  170   6.338   7.722   9.063  2.5914 -0.3375  1.1553
  759MOL0     H  171   6.563   7.818   9.047  2.8985  4.6142 -0.4026
  759MOL0     H  172   6.811   8.173   9.068  0.0812  1.0486 -1.3591
  759MOL0     H  173   7.052   8.240   9.115 -2.2793  1.2291  0.3741
  759MOL0     H  174   9.050   8.499   9.539 -0.4744 -0.6652 -0.0725
  759MOL0     H  175   9.294   8.584   9.586 -1.2902 -2.2875  1.8804
  759MOL0     H  176   9.697   8.563   9.759  0.8018 -0.8475 -0.3364
  759MOL0     H  177   9.921   8.663   9.795  1.2213  2.4366  1.4454
  759MOL0     H  178  10.174   8.917   9.798  0.4502  0.5437  1.1078
  759MOL0     H  179  10.110   8.753   9.748  0.4993 -0.6972  2.3108
  759MOL0     H  180  10.138   8.882  10.025 -0.4791  1.0314 -2.4953
  759MOL0     H  181  10.012   8.763   9.998  1.8010 -0.8025  3.3020
  759MOL0     H  182  10.317   8.738   9.962  0.2768 -0.2664  1.1068
  759MOL0     H  183  10.213   8.623   9.879  3.0315  0.2006 -0.9612
  759MOL0     H  184  10.304   8.544  10.108  3.0377  3.0403  0.5106
  759MOL0     H  185  10.216   8.692  10.175  0.5456  1.1218 -1.3100
  759MOL0     H  186   9.911   8.416  10.168 -0.4728  1.3298  0.5380
  759MOL0     H  187   9.742   9.044   9.820  0.3615 -0.4428  0.4036
  759MOL0     H  188   9.537   8.971   9.831 -0.2787 -1.2690  1.1952
  760MOL0     O  189   7.152   0.936   9.254 -0.6799  0.6925 -0.1026
  760MOL0     C  190   7.178   1.054   9.273  0.7431  0.0959 -0.2480
  760MOL0     O  191   7.095   1.144   9.328  0.3561 -0.6991 -0.2646
  760MOL0     C  192   6.976   1.108   9.368 -0.0201  0.6756 -0.5567
  760MOL0     C  193   6.858   1.127   9.298 -0.5317 -0.7581 -0.1243
  760MOL0     C  194   6.738   1.094   9.351  0.7721  0.2131  0.0372
  760MOL0     C  195   6.729   1.043   9.482  0.0734  0.8377  0.9129
  760MOL0     O  196   6.620   0.998   9.543  0.4448 -1.3770  0.0916
  760MOL0     C  197   6.496   1.067   9.502 -0.5265 -0.4933 -0.3271
  760MOL0     C  198   6.390   1.022   9.617  0.2943  0.2596 -0.5683
  760MOL0     C  199   6.347   0.869   9.605 -0.8841  0.6549  0.5550
  760MOL0     C  200   6.288   0.795   9.723 -0.4499  0.1511  0.2592
  760MOL0     C  201   6.252   0.646   9.695 -0.0139  0.0439 -0.2266
  760MOL0     C  202   6.153   0.575   9.783 -0.3460  0.1221 -0.2464
  760MOL0     C  203   6.024   0.640   9.818  0.0193  0.5563 -0.1128
  760MOL0     C  204   5.928   0.666   9.701  0.1058  0.0689  0.0231
  760MOL0     N  205   5.859   0.533   9.673  0.0708 -0.0538  0.5306
  760MOL0     C  206   5.782   0.462   9.761 -0.4212 -0.8641  0.4298
  760MOL0     C  207   5.740   0.365   9.677 -0.3978 -0.0598 -0.4614
  760MOL0     C  208   5.646   0.252   9.728 -0.0677 -0.0849  0.4498
  760MOL0     C  209   5.591   0.178   9.604 -1.1824 -0.1774  0.1481
  760MOL0     C  210   5.464   0.113   9.641  0.5279  0.8855 -0.0792
  760MOL0     C  211   5.350   0.214   9.623  0.6409 -0.8227  0.4653
  760MOL0     O  212   5.308   0.217   9.485 -0.3256 -0.4308 -0.4660
  760MOL0     C  213   5.176   0.252   9.476  0.9604  0.6239 -0.2407
  760MOL0     C  214   5.130   0.364   9.545 -0.5813 -0.5100  0.5237
  760MOL0     C  215   4.996   0.398   9.533 -0.2812 -0.2669 -0.4101
  760MOL0     C  216   4.916   0.326   9.450  0.2153  0.1500  0.7452
  760MOL0     C  217   4.771   0.360   9.447  0.3553 -0.2354  0.7874
  760MOL0     O  218   4.707   0.309   9.338 -0.3016  0.4204  1.0783
  760MOL0     C  219   4.581   0.348   9.305 -0.0483 -0.2583  0.1284
  760MOL0     C  220   4.563   0.388   9.176  0.0456  0.1774  0.2070
  760MOL0     C  221   4.436   0.440   9.133 -0.4240 -0.4543 -0.6053
  760MOL0     C  222   4.327   0.417   9.216 -0.4212  0.1419  0.0700
  760MOL0     O  223   4.196   0.430   9.188 -0.0407 -0.5415  0.1439
  760MOL0     C  224   4.156   0.405   9.055 -0.0955 -0.1528  0.9004
  760MOL0     C  225   4.008   0.352   9.052 -0.6770  0.1540 -0.7592
  760MOL0     C  226   3.920   0.473   9.088  0.0861  0.4353 -0.6645
  760MOL0     C  227   3.794   0.430   9.166 -0.7252  0.1511  0.2388
  760MOL0     C  228   3.702   0.359   9.063 -0.6400  0.1493  0.0044
  760MOL0     C  229   3.565   0.333   9.124  0.8050 -0.3257 -0.9964
  760MOL0     C  230   3.468   0.269   9.019 -0.5122 -0.2068 -0.4066
  760MOL0     C  231   3.322   0.272   9.071 -0.0027  0.3379 -0.1501
  760MOL0    Cl  232   3.241   0.140   8.991  0.0834 -0.3628 -0.0676
  760MOL0     C  233   4.341   0.355   9.343 -1.3591 -0.3652 -0.4909
  760MOL0     C  234   4.471   0.330   9.388 -0.3732 -0.2834  0.4942
  760MOL0     O  235   4.723   0.451   9.518 -0.5773  0.0440  0.4884
  760MOL0     C  236   4.963   0.209   9.382  0.2849 -0.1646  0.6971
  760MOL0     C  237   5.094   0.172   9.397  0.6624  0.1146  0.2423
  760MOL0     N  238   5.789   0.376   9.552 -0.9531 -0.4361 -0.3567
  760MOL0     N  239   5.859   0.482   9.543 -0.6205  0.2807 -0.4174
  760MOL0     C  240   6.846   1.027   9.554  0.8354 -0.2834 -0.2014
  760MOL0     C  241   6.969   1.063   9.498 -0.3816  0.1791  0.5531
  760MOL0     C  242   7.309   1.105   9.218  0.4676  0.7226  0.5263
  760MOL0     C  243   7.390   1.024   9.139  0.2099 -0.1268  0.3898
  760MOL0     C  244   7.505   1.085   9.088 -0.1309  0.1956  0.3428
  760MOL0     C  245   7.544   1.215   9.113  0.5694 -0.0417 -0.6300
  760MOL0     O  246   7.652   1.273   9.058 -0.4039  0.3872  0.8731
  760MOL0     C  247   7.636   1.280   8.915  0.0570  0.1486 -0.7361
  760MOL0     C  248   7.749   1.355   8.846 -0.0054  0.5210 -0.9941
  760MOL0     C  249   7.743   1.317   8.697 -1.1382 -0.0504  0.5147
  760MOL0     C  250   7.873   1.360   8.623 -0.3179 -0.3179 -0.1226
  760MOL0     C  251   7.892   1.506   8.630  0.0511  0.5981  1.0201
  760MOL0     C  252   7.884   1.624   8.636  0.5084  0.3296 -0.6660
  760MOL0     C  253   7.462   1.286   9.204 -0.0024  0.5426 -0.5803
  760MOL0     C  254   7.345   1.232   9.249  0.8180  0.6257  0.8448
  760MOL0     H  255   6.870   1.160   9.195  0.1357 -0.4597  0.0426
  760MOL0     H  256   6.645   1.108   9.297  0.5988 -1.6852 -0.2043
  760MOL0     H  257   6.454   1.040   9.405  1.3233 -0.8875 -1.0595
  760MOL0     H  258   6.516   1.174   9.495  2.0644 -0.8641  0.3526
  760MOL0     H  259   6.304   1.088   9.605 -0.4991 -0.6056  0.2278
  760MOL0     H  260   6.430   1.038   9.718 -1.0903 -1.7532  0.3624
  760MOL0     H  261   6.431   0.806   9.576 -0.0373  1.6955  0.7060
  760MOL0     H  262   6.274   0.861   9.523 -0.5055 -2.7268  0.4157
  760MOL0     H  263   6.369   0.788   9.796 -1.9817 -1.0745  1.9255
  760MOL0     H  264   6.208   0.859   9.759  0.9277  2.1049  0.0260
  760MOL0     H  265   6.339   0.583   9.677  0.4144  0.8217 -0.9744
  760MOL0     H  266   6.214   0.639   9.592 -1.3702  0.1456  0.2543
  760MOL0     H  267   6.200   0.557   9.880  3.1729 -0.1241 -1.8446
  760MOL0     H  268   6.132   0.480   9.734  0.3077  1.1537 -2.7117
  760MOL0     H  269   5.972   0.575   9.888 -0.2121  3.7178  2.9206
  760MOL0     H  270   6.047   0.737   9.863  0.3717  1.1927 -1.5924
  760MOL0     H  271   5.979   0.703   9.612  2.5227 -0.2155  1.2220
  760MOL0     H  272   5.852   0.739   9.729 -0.6029 -1.2485  1.7236
  760MOL0     H  273   5.755   0.477   9.865 -3.8929  0.6211 -0.5634
  760MOL0     H  274   5.564   0.299   9.784  0.9107 -0.3002  2.1533
  760MOL0     H  275   5.708   0.185   9.788 -0.2121 -0.3340  0.3188
  760MOL0     H  276   5.657   0.092   9.589  0.6227  1.0746  0.5554
  760MOL0     H  277   5.576   0.236   9.512 -3.0933 -1.6421 -0.5317
  760MOL0     H  278   5.433   0.029   9.578  2.6612 -2.4799  2.9412
  760MOL0     H  279   5.476   0.087   9.746  1.2981  0.1325 -0.3400
  760MOL0     H  280   5.389   0.311   9.655 -0.8805 -0.4902  1.4251
  760MOL0     H  281   5.265   0.189   9.687 -0.7705  1.2255 -0.4831
  760MOL0     H  282   5.204   0.424   9.596  0.8037 -0.5994 -1.2793
  760MOL0     H  283   4.956   0.480   9.592  1.3509  0.5202 -0.3299
  760MOL0     H  284   4.646   0.379   9.105  2.0965  1.3161  2.3145
  760MOL0     H  285   4.417   0.489   9.037 -0.0825 -0.4846 -0.6924
  760MOL0     H  286   4.222   0.328   9.014 -0.0147 -0.7713  2.1701
  760MOL0     H  287   4.149   0.497   8.995  0.2138 -0.5373  0.2673
  760MOL0     H  288   3.998   0.275   9.129 -0.8170  0.9878  0.0778
  760MOL0     H  289   3.986   0.310   8.954 -0.7346  0.9492 -1.0995
  760MOL0     H  290   3.881   0.528   9.002 -2.5577  1.3068  0.9889
  760MOL0     H  291   3.969   0.545   9.155  1.8087 -1.4260  0.1925
  760MOL0     H  292   3.816   0.351   9.238 -3.8318 -0.7889  0.2963
  760MOL0     H  293   3.758   0.522   9.214 -0.2233  0.6189 -0.2570
  760MOL0     H  294   3.741   0.259   9.043 -0.8583 -0.6969  3.2554
  760MOL0     H  295   3.696   0.416   8.969 -0.9830  1.6448  0.9069
  760MOL0     H  296   3.522   0.422   9.171  0.7307 -1.2425  0.7800
  760MOL0     H  297   3.576   0.269   9.212 -0.0510  1.6907  0.6531
  760MOL0     H  298   3.479   0.320   8.923 -1.4341  1.2867  0.2513
  760MOL0     H  299   3.506   0.169   8.996  2.3590  0.7327 -0.2123
  760MOL0     H  300   3.275   0.367   9.044 -2.4547 -0.9783 -0.7529
  760MOL0     H  301   3.317   0.264   9.180 -0.2025  0.8730 -0.1161
  760MOL0     H  302   4.256   0.333   9.406 -2.4992  2.0034 -1.1066
  760MOL0     H  303   4.497   0.290   9.486  1.6213 -0.8290 -0.2147
  760MOL0     H  304   4.909   0.153   9.306  0.6006  2.5397 -1.6976
  760MOL0     H  305   5.134   0.094   9.333  0.6708  1.7355 -1.8257
  760MOL0     H  306   6.845   0.988   9.655 -1.3535 -2.9567 -1.1563
  760MOL0     H  307   7.062   1.048   9.551 -0.6693  0.7131  1.2210
  760MOL0     H  308   7.372   0.924   9.102  0.9212 -1.4781  3.4249
  760MOL0     H  309   7.571   1.024   9.027  0.1844  1.2649 -0.4028
  760MOL0     H  310   7.538   1.317   8.885 -1.0031 -0.3930  1.7736
  760MOL0     H  311   7.640   1.176   8.880 -1.8166 -0.6793  1.2310
  760MOL0     H  312   7.751   1.461   8.874  1.7888 -0.0553  1.4250
  760MOL0     H  313   7.842   1.309   8.880 -1.0360 -1.7634 -1.1274
  760MOL0     H  314   7.654   1.353   8.644  0.4250 -2.5552 -4.4459
  760MOL0     H  315   7.728   1.209   8.699 -0.3013 -0.1723  0.4908
  760MOL0     H  316   7.954   1.300   8.666 -0.7846 -2.1743 -1.6814
  760MOL0     H  317   7.877   1.320   8.521  0.7499 -1.2189  0.2591
  760MOL0     H  318   7.889   1.731   8.630  0.9594  0.2976 -0.9695
  760MOL0     H  319   7.486   1.389   9.231  0.2493  0.2490  0.3535
  760MOL0     H  320   7.268   1.301   9.283 -1.2070 -1.1674  0.0930
  761MOL0     O  321   6.612  10.605   2.557  0.2440 -0.3052 -0.2800
  761MOL0     C  322   6.656  10.523   2.477 -0.4225 -0.5280  0.1495
  761MOL0     O  323   6.585  10.481   2.361 -0.2346  0.1263 -0.3369
  761MOL0     C  324   6.471  10.546   2.317  0.4851  0.0364  0.7538
  761MOL0     C  325   6.371  10.590   2.404 -0.4521 -0.1648 -1.1076
  761MOL0     C  326   6.250  10.648   2.355 -0.2451  0.7163 -0.1773
  761MOL0     C  327   6.231  10.656   2.212  0.2018  0.4441  0.8375
  761MOL0     O  328   6.120  10.700   2.146  0.2751  1.2715 -0.0641
  761MOL0     C  329   6.022  10.759   2.225  0.3766 -0.2651  0.1050
  761MOL0     C  330   5.917  10.816   2.124 -0.4247 -0.8069  0.6087
  761MOL0     C  331   5.818  10.722   2.052  0.4391 -0.6058  0.7045
  761MOL0     C  332   5.738  10.802   1.940  0.1956 -0.0351  0.0375
  761MOL0     C  333   5.641  10.721   1.858  0.1938 -0.0593 -0.2565
  761MOL0     C  334   5.544  10.813   1.780 -0.5342  0.3912 -0.2303
  761MOL0     C  335   5.461  10.735   1.681 -0.0024 -0.0105 -0.0771
  761MOL0     C  336   5.399  10.829   1.574 -0.0069 -0.6989 -0.9814
  761MOL0     N  337   5.315  10.934   1.619  0.6026 -0.6192 -0.8791
  761MOL0     C  338   5.177  10.942   1.611 -0.6621  0.3429  0.7494
  761MOL0     C  339   5.148  11.062   1.658 -1.1375  1.3083 -0.4079
  761MOL0     C  340   5.013  11.117   1.668 -0.1916 -0.0706  0.2988
  761MOL0     C  341   4.927  11.079   1.786 -0.3634  0.4123 -0.1701
  761MOL0     C  342   4.799  11.164   1.779  0.9770  0.5285 -0.4069
  761MOL0     C  343   4.675  11.104   1.849 -0.1040  0.2962 -0.1252
  761MOL0     O  344   4.568  11.206   1.836 -0.1942  0.4996  0.3652
  761MOL0     C  345   4.450  11.167   1.902  0.6675  1.2115 -0.0205
  761MOL0     C  346   4.413  11.036   1.939 -0.0573 -0.6317  0.2323
  761MOL0     C  347   4.278  11.020   1.985  0.1218 -0.2280 -0.3639
  761MOL0     C  348   4.188  11.128   2.000  0.4340 -0.9764  0.7837
  761MOL0     C  349   4.052  11.106   2.050  0.0781 -0.0914  0.6906
  761MOL0     O  350   3.969  11.220   2.035  0.1850  0.1095  0.4224
  761MOL0     C  351   3.831  11.209   2.050  0.1114 -0.3469  0.5797
  761MOL0     C  352   3.772  11.142   2.159 -0.2644 -0.3493 -0.0110
  761MOL0     C  353   3.630  11.114   2.160 -0.6512  0.5087  0.7713
  761MOL0     C  354   3.552  11.166   2.054  0.7572  0.2658  0.1349
  761MOL0     O  355   3.417  11.162   2.066 -0.5126  0.6743  0.4855
  761MOL0     C  356   3.333  11.199   1.951 -0.4154 -0.1509 -0.4372
  761MOL0     C  357   3.189  11.148   1.950 -0.1711  0.4706 -1.0117
  761MOL0     C  358   3.088  11.207   2.051 -0.3195 -0.0227  0.2394
  761MOL0     C  359   2.947  11.140   2.034 -0.4076 -0.8356  0.2411
  761MOL0     C  360   2.847  11.190   2.139 -0.7187 -0.1502 -0.3442
  761MOL0     C  361   2.711  11.122   2.143  0.0041  0.3956  0.8077
  761MOL0     C  362   2.633  11.160   2.014 -0.7539 -0.4728 -0.3020
  761MOL0     C  363   2.501  11.093   2.009 -0.4693 -0.4285 -0.3852
  761MOL0    Cl  364   2.384  11.206   2.077  0.1258  0.0335 -0.2580
  761MOL0     C  365   3.610  11.242   1.949  0.3585 -1.2405  0.5042
  761MOL0     C  366   3.745  11.264   1.946  0.2761  0.0188 -0.2456
  761MOL0     O  367   4.017  10.999   2.093 -0.4288 -0.3385  0.5273
  761MOL0     C  368   4.229  11.258   1.969  0.3712 -0.3177 -0.1842
  761MOL0     C  369   4.355  11.272   1.915 -0.4585 -0.2117  0.0894
  761MOL0     N  370   5.265  11.122   1.697  0.1038  0.2969 -0.6212
  761MOL0     N  371   5.362  11.053   1.665 -0.4431 -0.7500  0.2834
  761MOL0     C  372   6.331  10.602   2.132  0.4109 -0.1114 -0.0294
  761MOL0     C  373   6.450  10.560   2.182  0.0397  0.3252  0.2189
  761MOL0     C  374   6.789  10.465   2.507 -0.8107  0.1633 -0.9186
  761MOL0     C  375   6.866  10.519   2.611 -0.4298  0.2060 -0.5174
  761MOL0     C  376   6.997  10.463   2.631  0.6467  0.1211 -0.2743
  761MOL0     C  377   7.046  10.371   2.532 -0.7036  0.8066  0.3932
  761MOL0     O  378   7.175  10.321   2.524  1.0690  0.6644  0.0235
  761MOL0     C  379   7.269  10.370   2.625 -0.7672 -0.6491  0.4574
  761MOL0     C  380   7.312  10.515   2.599  0.3685 -0.7947  0.7852
  761MOL0     C  381   7.342  10.544   2.449 -0.6118  0.0119  0.2692
  761MOL0     C  382   7.451  10.468   2.378  0.4474 -0.4409 -0.0123
  761MOL0     C  383   7.577  10.533   2.405 -0.6405 -1.1413 -0.4219
  761MOL0     C  384   7.690  10.582   2.425  0.8698 -0.2126 -0.4183
  761MOL0     C  385   6.969  10.330   2.428  0.3953  0.0742 -0.0114
  761MOL0     C  386   6.837  10.367   2.422  0.6741 -0.1941  0.0527
  761MOL0     H  387   6.384  10.575   2.511  2.2855 -1.3927 -1.5391
  761MOL0     H  388   6.182  10.671   2.437 -0.7607  2.3355 -1.0181
  761MOL0     H  389   6.052  10.851   2.276 -2.3060  0.9240 -0.2891
  761MOL0     H  390   5.971  10.690   2.294 -0.7838  2.1900  1.8698
  761MOL0     H  391   5.985  10.847   2.044  1.1525 -1.2480  1.7311
  761MOL0     H  392   5.863  10.899   2.171 -0.3122  0.6530 -1.6621
  761MOL0     H  393   5.747  10.686   2.127  2.0989  1.0003  3.2137
  761MOL0     H  394   5.871  10.642   1.999 -0.6348 -0.4825 -0.5936
  761MOL0     H  395   5.689  10.885   1.991 -0.9629 -0.1765 -0.8082
  761MOL0     H  396   5.812  10.844   1.872  1.5238 -1.3126  0.6109
  761MOL0     H  397   5.592  10.646   1.920 -2.1125  1.2284 -0.4268
  761MOL0     H  398   5.707  10.661   1.794  1.9191  2.1999 -0.7276
  761MOL0     H  399   5.602  10.897   1.740  0.2715  1.5806  3.0510
  761MOL0     H  400   5.487  10.855   1.863  0.8701 -0.5509  1.2795
  761MOL0     H  401   5.521  10.654   1.638 -0.6027 -1.8271  2.3019
  761MOL0     H  402   5.378  10.690   1.736  0.1790 -1.2197 -0.7487
  761MOL0     H  403   5.340  10.775   1.500 -3.1254  1.2644 -0.1429
  761MOL0     H  404   5.489  10.874   1.531  1.0071 -0.9491  0.7682
  761MOL0     H  405   5.109  10.867   1.572  1.3587 -2.5063  2.3800
  761MOL0     H  406   4.964  11.091   1.574 -0.2510  3.9048 -0.9314
  761MOL0     H  407   5.029  11.225   1.665 -0.5211  0.0417 -4.8912
  761MOL0     H  408   4.976  11.082   1.883 -1.0365 -2.4851  0.3719
  761MOL0     H  409   4.903  10.972   1.777  1.5547 -0.3035  2.0589
  761MOL0     H  410   4.811  11.263   1.823 -0.0778  1.3599 -1.8851
  761MOL0     H  411   4.768  11.183   1.676 -1.0542  1.3789  0.3143
  761MOL0     H  412   4.705  11.092   1.953  0.7528 -2.3545 -0.6051
  761MOL0     H  413   4.654  11.005   1.809  0.8071 -0.5641  1.4564
  761MOL0     H  414   4.474  10.946   1.942  0.9865  0.0436 -0.3925
  761MOL0     H  415   4.252  10.917   2.010 -0.5599 -0.1261 -0.6260
  761MOL0     H  416   3.828  11.099   2.241 -1.7552 -0.1235  1.1649
  761MOL0     H  417   3.572  11.055   2.229  0.8122 -1.9203  0.0585
  761MOL0     H  418   3.363  11.145   1.860 -3.7011 -0.6344 -1.3672
  761MOL0     H  419   3.333  11.307   1.933  3.2648 -0.0639 -0.6077
  761MOL0     H  420   3.197  11.040   1.965 -0.4369  0.7524  1.5673
  761MOL0     H  421   3.151  11.153   1.848  2.5228  0.4792 -2.0953
  761MOL0     H  422   3.077  11.314   2.027 -0.4736  0.1001  0.8461
  761MOL0     H  423   3.132  11.196   2.150  2.7207 -0.1436 -1.0052
  761MOL0     H  424   2.905  11.166   1.936 -1.5679 -1.1021  0.6459
  761MOL0     H  425   2.956  11.034   2.057 -0.7147 -1.0839 -0.7503
  761MOL0     H  426   2.840  11.295   2.108  0.5781  0.0599  0.0005
  761MOL0     H  427   2.891  11.190   2.240  0.9267  1.3459 -0.9912
  761MOL0     H  428   2.655  11.153   2.232 -0.8974  1.8736 -0.2403
  761MOL0     H  429   2.722  11.013   2.140  0.3587  0.4429 -2.0587
  761MOL0     H  430   2.632  11.269   2.003  2.5465 -0.4173 -1.2369
  761MOL0     H  431   2.696  11.118   1.934  0.7933  0.4014  0.4154
  761MOL0     H  432   2.503  11.006   2.075 -0.6647  1.5835  2.4825
  761MOL0     H  433   2.470  11.071   1.906  0.9453 -1.9927 -0.5120
  761MOL0     H  434   3.545  11.290   1.876 -0.3498 -0.3758  1.6746
  761MOL0     H  435   3.795  11.314   1.863  0.3210  0.6743  0.1650
  761MOL0     H  436   4.169  11.346   1.994 -0.3745 -0.8928  0.1077
  761MOL0     H  437   4.381  11.376   1.899 -0.9720 -0.3376 -1.7811
  761MOL0     H  438   6.322  10.609   2.024  1.9337  2.7815 -0.0517
  761MOL0     H  439   6.532  10.549   2.112 -1.0490  1.0179 -1.2322
  761MOL0     H  440   6.829  10.595   2.679  0.7370  0.2708  0.0719
  761MOL0     H  441   7.054  10.490   2.719 -1.6298  4.1487  0.2642
  761MOL0     H  442   7.357  10.306   2.616 -0.3234  0.2437 -2.6417
  761MOL0     H  443   7.225  10.365   2.726 -2.0262  0.3436 -0.0093
  761MOL0     H  444   7.245  10.587   2.645  1.9552  0.6986  0.8515
  761MOL0     H  445   7.406  10.532   2.652 -0.0406  1.4256  0.8783
  761MOL0     H  446   7.359  10.650   2.429 -0.4094 -0.2625 -1.1224
  761MOL0     H  447   7.247  10.518   2.401 -0.4713 -1.5833  0.8024
  761MOL0     H  448   7.459  10.363   2.410  1.1416 -0.0075  1.3056
  761MOL0     H  449   7.433  10.487   2.272  1.0061  0.7721  0.0953
  761MOL0     H  450   7.785  10.624   2.450  0.2281  0.3140  1.2652
  761MOL0     H  451   7.012  10.264   2.353  2.6620  1.7004 -0.2269
  761MOL0     H  452   6.783  10.337   2.332 -1.4326  0.6985  0.9516
  762MOL0     O  453   1.227   5.349   2.642  0.2962  0.4770 -0.6427
  762MOL0     C  454   1.220   5.459   2.583  0.3867 -0.3713 -0.3607
  762MOL0     O  455   1.110   5.492   2.512 -0.0696 -0.7587  0.2264
  762MOL0     C  456   1.001   5.416   2.531  0.4973  0.3732  0.5151
  762MOL0     C  457   0.969   5.307   2.439  0.2504  0.2683  0.6309
  762MOL0     C  458   0.869   5.216   2.472 -0.4069 -0.2929  0.6464
  762MOL0     C  459   0.787   5.240   2.584 -0.7276  0.1401  0.0901
  762MOL0     O  460   0.691   5.149   2.622  0.0597  0.2525 -0.0901
  762MOL0     C  461   0.614   5.095   2.515 -0.1114 -0.2176 -0.9358
  762MOL0     C  462   0.472   5.135   2.564 -0.1651 -0.0541 -0.5493
  762MOL0     C  463   0.355   5.084   2.483  0.4286 -0.3284 -0.3676
  762MOL0     C  464   0.223   5.151   2.538 -0.0322  0.2307  0.5091
  762MOL0     C  465   0.106   5.072   2.468  0.7098  0.4220 -0.7150
  762MOL0     C  466   0.100   5.093   2.318  0.2286 -0.1088  0.2446
  762MOL0     C  467  -0.031   5.050   2.255 -0.6148  0.4329 -0.2290
  762MOL0     C  468  -0.085   4.909   2.298  0.4523  0.6244 -0.0305
  762MOL0     N  469  -0.229   4.890   2.256 -0.7891  0.3578  0.4229
  762MOL0     C  470  -0.329   4.979   2.255 -0.4719 -0.9802 -0.4741
  762MOL0     C  471  -0.440   4.914   2.227  0.4938 -0.0357 -0.9404
  762MOL0     C  472  -0.573   4.980   2.223  0.3525 -0.5863 -0.0784
  762MOL0     C  473  -0.653   4.949   2.100  0.2421  0.1562 -0.4264
  762MOL0     C  474  -0.769   5.045   2.082 -0.1085  0.0733 -0.2916
  762MOL0     C  475  -0.859   5.007   1.965  0.4330  0.3281 -0.4715
  762MOL0     O  476  -0.935   4.902   2.010  0.6213  0.3374  0.3761
  762MOL0     C  477  -1.052   4.887   1.932  0.4480  0.1436  0.5713
  762MOL0     C  478  -1.174   4.851   1.990 -0.1447  0.3398  0.3683
  762MOL0     C  479  -1.288   4.838   1.924  0.1829  0.5498 -0.0173
  762MOL0     C  480  -1.288   4.846   1.789 -0.2246  0.2801  0.0081
  762MOL0     C  481  -1.414   4.843   1.718  1.4419 -0.3244  0.2683
  762MOL0     O  482  -1.530   4.827   1.789  0.2279 -0.2203 -0.5934
  762MOL0     C  483  -1.655   4.825   1.721  0.9499 -0.5614  0.7099
  762MOL0     C  484  -1.756   4.770   1.799  0.5772  0.1032 -0.0320
  762MOL0     C  485  -1.890   4.781   1.764 -0.5882 -0.3326  0.9096
  762MOL0     C  486  -1.934   4.845   1.642 -0.4971  0.0803 -1.1853
  762MOL0     O  487  -2.070   4.861   1.632  1.0955 -0.0560  0.3946
  762MOL0     C  488  -2.112   4.906   1.507 -0.5981  0.5078  0.1000
  762MOL0     C  489  -2.262   4.874   1.482 -0.6324 -0.5423  0.2956
  762MOL0     C  490  -2.295   4.727   1.502  0.5856  0.5675  0.0669
  762MOL0     C  491  -2.443   4.686   1.478 -0.8633  0.6245  0.0577
  762MOL0     C  492  -2.459   4.535   1.508 -0.0189 -0.1522  0.3057
  762MOL0     C  493  -2.588   4.480   1.442 -0.3139  0.0734  0.0103
  762MOL0     C  494  -2.710   4.537   1.519  0.3318 -0.9432  0.4125
  762MOL0     C  495  -2.836   4.468   1.473  0.9132 -0.3742  0.1882
  762MOL0    Cl  496  -2.860   4.529   1.308 -0.4939 -0.1234 -0.1327
  762MOL0     C  497  -1.830   4.891   1.562  0.2972 -0.2671  0.6064
  762MOL0     C  498  -1.698   4.883   1.598  0.0772  0.6692 -0.2860
  762MOL0     O  499  -1.406   4.863   1.597  0.1092  0.0501  0.6311
  762MOL0     C  500  -1.169   4.876   1.721  0.7839  0.3534 -0.1392
  762MOL0     C  501  -1.049   4.893   1.790  0.4236  0.3857  0.7972
  762MOL0     N  502  -0.415   4.788   2.203 -0.1685 -0.9259  0.3157
  762MOL0     N  503  -0.291   4.768   2.227  0.2048 -0.0252 -0.1783
  762MOL0     C  504   0.809   5.343   2.671  0.0802 -0.0898 -0.8765
  762MOL0     C  505   0.916   5.433   2.646 -0.2372 -0.3580 -0.1952
  762MOL0     C  506   1.342   5.535   2.593  0.1454 -0.3526  0.6061
  762MOL0     C  507   1.358   5.648   2.508 -0.3421 -0.8632 -0.5593
  762MOL0     C  508   1.473   5.732   2.524 -0.3351 -0.2188  0.6463
  762MOL0     C  509   1.564   5.710   2.627 -0.7025  0.5264  0.2156
  762MOL0     O  510   1.665   5.798   2.637  0.5959  0.1696  0.4393
  762MOL0     C  511   1.757   5.797   2.745  0.3632  0.6962 -0.8644
  762MOL0     C  512   1.784   5.943   2.788 -0.6167  0.0622 -0.1313
  762MOL0     C  513   1.873   6.020   2.685 -0.0887  0.3897 -0.1133
  762MOL0     C  514   2.021   5.979   2.685 -0.3729 -0.3366  0.5872
  762MOL0     C  515   2.088   6.084   2.618 -0.2717 -0.3140  0.4459
  762MOL0     C  516   2.153   6.170   2.563 -0.0260 -0.4815 -0.8750
  762MOL0     C  517   1.553   5.594   2.703 -0.1042 -0.0727 -0.3428
  762MOL0     C  518   1.450   5.501   2.684  0.2164 -0.3075 -1.0051
  762MOL0     H  519   1.012   5.291   2.341 -1.0862  0.2806  0.0218
  762MOL0     H  520   0.862   5.124   2.415  0.0130  0.6536 -0.9953
  762MOL0     H  521   0.622   4.986   2.521 -1.1657 -0.2223  1.7762
  762MOL0     H  522   0.642   5.131   2.415  1.1071 -3.5477 -1.9188
  762MOL0     H  523   0.463   5.241   2.591  1.6357 -0.2869  1.1895
  762MOL0     H  524   0.454   5.090   2.662  0.2452 -2.1801 -1.4112
  762MOL0     H  525   0.346   4.976   2.490  0.5383 -0.3984 -1.1628
  762MOL0     H  526   0.362   5.112   2.377 -1.9429  0.2273 -0.4283
  762MOL0     H  527   0.214   5.141   2.647  2.7896  1.7907  0.9954
  762MOL0     H  528   0.221   5.259   2.520  2.8666  0.5063  1.3582
  762MOL0     H  529   0.015   5.106   2.519  0.7181  1.3057 -1.2681
  762MOL0     H  530   0.124   4.966   2.487  1.0833  0.9541  2.5692
  762MOL0     H  531   0.191   5.048   2.278  0.2731  0.4026 -0.2399
  762MOL0     H  532   0.109   5.201   2.304  2.2385 -0.2705 -0.0092
  762MOL0     H  533  -0.114   5.119   2.270  0.9822  2.3036  0.3784
  762MOL0     H  534  -0.021   5.050   2.146 -0.5637  0.1589 -0.2260
  762MOL0     H  535  -0.086   4.901   2.408  0.7293  1.8545  0.0787
  762MOL0     H  536  -0.020   4.827   2.266  0.1529  2.1587 -5.5154
  762MOL0     H  537  -0.302   5.083   2.273  1.7007 -1.3890 -1.1451
  762MOL0     H  538  -0.552   5.086   2.232 -0.0626 -0.3745 -1.4144
  762MOL0     H  539  -0.628   4.943   2.311  0.9645  0.9330  0.9886
  762MOL0     H  540  -0.695   4.849   2.117  1.3916 -0.2005  0.5053
  762MOL0     H  541  -0.584   4.944   2.016 -0.4705 -4.9436 -1.0083
  762MOL0     H  542  -0.823   5.038   2.177 -1.1968 -0.2909 -0.9219
  762MOL0     H  543  -0.725   5.144   2.068  1.3431  0.0469  3.0682
  762MOL0     H  544  -0.791   4.982   1.882  0.6342 -1.5353  0.2060
  762MOL0     H  545  -0.914   5.099   1.945 -0.6004  0.2746  1.9001
  762MOL0     H  546  -1.170   4.827   2.096  0.4569 -3.0372 -0.2844
  762MOL0     H  547  -1.378   4.817   1.981  0.1044  2.7581  0.7828
  762MOL0     H  548  -1.727   4.736   1.898  0.8895 -0.7638 -0.4074
  762MOL0     H  549  -1.959   4.746   1.839 -0.5471  1.3921  1.7956
  762MOL0     H  550  -2.070   4.836   1.433 -1.2120  0.3778 -0.1335
  762MOL0     H  551  -2.083   5.010   1.491 -1.4264  0.9768  1.5176
  762MOL0     H  552  -2.287   4.905   1.380 -0.0732 -0.2959  0.2313
  762MOL0     H  553  -2.315   4.938   1.553  1.5800  0.2154  1.3453
  762MOL0     H  554  -2.269   4.692   1.602 -0.4445 -1.0776 -0.2000
  762MOL0     H  555  -2.226   4.679   1.432  1.1949  3.1008 -1.2099
  762MOL0     H  556  -2.506   4.754   1.537 -1.1812 -2.4038  3.5907
  762MOL0     H  557  -2.476   4.710   1.377 -0.6339 -0.5421 -0.3016
  762MOL0     H  558  -2.467   4.518   1.616  1.7538 -0.1152  0.4756
  762MOL0     H  559  -2.377   4.470   1.474  0.7576 -1.6090  4.4143
  762MOL0     H  560  -2.583   4.371   1.446 -0.6075  0.0750  0.4748
  762MOL0     H  561  -2.599   4.503   1.336 -0.1036  1.2948  0.2326
  762MOL0     H  562  -2.702   4.523   1.627 -2.1291 -0.9136  0.6526
  762MOL0     H  563  -2.709   4.646   1.510 -0.6463 -0.9784 -0.4065
  762MOL0     H  564  -2.920   4.504   1.532 -1.0893 -1.6257 -1.7277
  762MOL0     H  565  -2.838   4.359   1.466 -3.2042 -0.3909 -0.9696
  762MOL0     H  566  -1.855   4.937   1.467  0.7600  1.1704  1.1543
  762MOL0     H  567  -1.637   4.926   1.519  0.2912 -1.4746 -1.3483
  762MOL0     H  568  -1.172   4.881   1.613  3.5214  2.0185 -0.2394
  762MOL0     H  569  -0.954   4.899   1.739 -0.4115 -2.0538 -1.2667
  762MOL0     H  570   0.736   5.345   2.751 -1.2715 -2.3438 -1.9450
  762MOL0     H  571   0.933   5.516   2.713  0.2627  0.0797 -0.8588
  762MOL0     H  572   1.284   5.672   2.433 -0.1907  3.9257  0.5189
  762MOL0     H  573   1.494   5.813   2.454  2.4134 -0.8449  0.6471
  762MOL0     H  574   1.855   5.756   2.719  1.0424 -1.1833  3.6833
  762MOL0     H  575   1.720   5.737   2.829 -1.2298  1.0361 -1.2905
  762MOL0     H  576   1.695   6.002   2.810 -0.0814  0.4038  1.2084
  762MOL0     H  577   1.836   5.945   2.884  0.0102 -1.3597 -0.4170
  762MOL0     H  578   1.867   6.129   2.693  2.1028  0.5721 -0.3666
  762MOL0     H  579   1.821   5.999   2.591 -0.6286 -1.1369  0.5000
  762MOL0     H  580   2.052   5.975   2.790 -0.8843  0.8171  0.8012
  762MOL0     H  581   2.029   5.879   2.642  2.0206 -0.6365  1.5674
  762MOL0     H  582   2.206   6.253   2.522 -0.8723 -0.2657 -1.5464
  762MOL0     H  583   1.630   5.568   2.775 -0.2244  1.9858  0.5909
  762MOL0     H  584   1.435   5.408   2.738 -0.6846  0.1435 -0.4666
  763MOL0     O  585   4.770   8.553   9.336  0.5445 -0.3361 -0.3851
  763MOL0     C  586   4.811   8.667   9.302 -0.5145 -0.8756  0.2340
  763MOL0     O  587   4.737   8.780   9.290 -0.2132 -0.1580  0.3324
  763MOL0     C  588   4.602   8.789   9.322  0.2839 -0.5804  1.2119
  763MOL0     C  589   4.552   8.918   9.293  0.1570  0.0528  0.6075
  763MOL0     C  590   4.420   8.955   9.325 -0.3065 -1.0033  0.1872
  763MOL0     C  591   4.332   8.860   9.375  0.9918 -0.2925 -0.1373
  763MOL0     O  592   4.200   8.890   9.414  0.2578  0.3104 -0.8621
  763MOL0     C  593   4.150   9.029   9.424 -0.2454 -0.2654  0.4468
  763MOL0     C  594   4.010   9.025   9.476 -0.4517 -0.3833  0.0841
  763MOL0     C  595   3.908   8.990   9.368 -0.3826 -0.3905  0.0754
  763MOL0     C  596   3.777   8.957   9.432 -0.7466  0.2051  0.0511
  763MOL0     C  597   3.688   8.899   9.332  0.1878  0.1882 -0.2425
  763MOL0     C  598   3.546   8.884   9.389  0.5070 -0.8138 -0.6786
  763MOL0     C  599   3.461   8.828   9.268  0.5957  0.2581 -0.4621
  763MOL0     C  600   3.318   8.809   9.314  0.1587  0.7079 -0.4434
  763MOL0     N  601   3.213   8.787   9.210 -0.0524  0.3374 -0.1609
  763MOL0     C  602   3.143   8.886   9.136  0.2997 -1.0258  0.4777
  763MOL0     C  603   3.057   8.807   9.063  0.0731 -0.2911 -0.1773
  763MOL0     C  604   2.967   8.858   8.949  0.9425 -0.0419  0.5767
  763MOL0     C  605   2.830   8.781   8.941  0.7650  0.6447  0.3619
  763MOL0     C  606   2.834   8.637   8.870  0.0196  0.0254 -0.2871
  763MOL0     C  607   2.688   8.585   8.854 -0.9167 -0.7178  0.3837
  763MOL0     O  608   2.623   8.551   8.980 -0.7012  0.2481  0.2692
  763MOL0     C  609   2.490   8.523   8.975 -0.1017 -0.1735  0.4660
  763MOL0     C  610   2.405   8.523   8.862  0.3754  0.2939 -0.2207
  763MOL0     C  611   2.272   8.468   8.868  0.1762 -0.7752 -0.1929
  763MOL0     C  612   2.216   8.425   8.991 -0.2132 -0.4458  0.2199
  763MOL0     C  613   2.092   8.357   8.996  0.1581 -0.6150 -0.0195
  763MOL0     O  614   2.062   8.275   9.105 -1.0590  0.1484  0.1517
  763MOL0     C  615   1.938   8.225   9.111  0.0670 -0.1251 -1.0424
  763MOL0     C  616   1.892   8.129   9.023 -0.3805  0.9400 -0.1115
  763MOL0     C  617   1.762   8.074   9.046 -0.4273  0.6011 -0.1794
  763MOL0     C  618   1.681   8.116   9.159 -0.8299  0.4122 -0.5386
  763MOL0     O  619   1.557   8.069   9.194 -1.1942 -0.0773 -0.2979
  763MOL0     C  620   1.505   7.962   9.109 -0.6428  0.2070 -0.3584
  763MOL0     C  621   1.362   7.936   9.133 -0.6286  0.5798  0.5667
  763MOL0     C  622   1.309   7.819   9.053  0.4307  0.0981 -1.0866
  763MOL0     C  623   1.273   7.846   8.907 -0.3127  0.4108 -0.3984
  763MOL0     C  624   1.183   7.747   8.850  0.6418  0.3640 -0.6811
  763MOL0     C  625   1.139   7.800   8.714 -0.0242  0.3803  0.0819
  763MOL0     C  626   1.086   7.683   8.635  0.0532 -0.4133  0.4084
  763MOL0     C  627   1.003   7.734   8.512 -1.0228  0.2177  0.6564
  763MOL0    Cl  628   0.831   7.753   8.546 -0.2562  0.5165 -0.0204
  763MOL0     C  629   1.742   8.213   9.242  0.1326  0.0990 -0.2695
  763MOL0     C  630   1.865   8.273   9.212 -0.0645  0.0717  0.5575
  763MOL0     O  631   2.023   8.366   8.891  0.1128  0.3266 -0.0107
  763MOL0     C  632   2.293   8.437   9.106 -0.7444 -0.6277  1.1592
  763MOL0     C  633   2.430   8.481   9.103 -0.3541 -0.5907 -0.1072
  763MOL0     N  634   3.070   8.673   9.102  0.1239 -0.2145  0.0722
  763MOL0     N  635   3.159   8.659   9.192  0.4544  0.2330  0.0604
  763MOL0     C  636   4.371   8.729   9.398 -0.2944  0.1396 -0.1216
  763MOL0     C  637   4.507   8.699   9.376  1.1383  0.5318 -0.2364
  763MOL0     C  638   4.961   8.685   9.278  0.1931 -0.5485  0.1519
  763MOL0     C  639   5.018   8.816   9.274 -0.3464  0.1803 -0.7294
  763MOL0     C  640   5.157   8.820   9.267 -0.7585  0.0341  0.1494
  763MOL0     C  641   5.237   8.708   9.250  0.2301  0.5108 -0.1671
  763MOL0     O  642   5.364   8.736   9.206  0.1906  0.0509 -0.8214
  763MOL0     C  643   5.463   8.642   9.203 -0.1836  0.8634 -0.3299
  763MOL0     C  644   5.596   8.715   9.189  0.9174  1.0701  0.9039
  763MOL0     C  645   5.713   8.610   9.145  1.4362 -0.0311 -0.0174
  763MOL0     C  646   5.845   8.663   9.196  0.9403  0.3623  0.1507
  763MOL0     C  647   5.884   8.797   9.153 -0.5149  0.6146 -0.1295
  763MOL0     C  648   5.907   8.915   9.134  0.3120  0.4164 -0.3086
  763MOL0     C  649   5.178   8.584   9.252  0.4057  0.0418 -0.0798
  763MOL0     C  650   5.045   8.568   9.273  0.5552 -0.6252  0.3807
  763MOL0     H  651   4.615   8.994   9.248 -0.0672  0.1239  0.4095
  763MOL0     H  652   4.395   9.059   9.304  2.1021 -0.0167  1.7531
  763MOL0     H  653   4.154   9.073   9.324  0.2669  0.5088  0.8003
  763MOL0     H  654   4.212   9.088   9.493 -0.0044  0.3608 -0.2945
  763MOL0     H  655   3.986   9.124   9.516  0.1271 -0.0957 -0.2675
  763MOL0     H  656   4.010   8.950   9.555  3.2552 -1.1792 -0.4932
  763MOL0     H  657   3.936   8.891   9.329 -3.7527 -2.0494  1.5104
  763MOL0     H  658   3.904   9.069   9.293  0.7433 -1.5170 -1.2497
  763MOL0     H  659   3.789   8.895   9.522 -1.2322  1.5137  1.0519
  763MOL0     H  660   3.728   9.045   9.474 -0.8037 -0.4755  1.4612
  763MOL0     H  661   3.711   8.796   9.305 -0.4239  0.0283 -0.1630
  763MOL0     H  662   3.686   8.960   9.241 -3.9168  4.0761  2.0740
  763MOL0     H  663   3.515   8.980   9.431 -1.6152 -1.8340  0.2821
  763MOL0     H  664   3.557   8.808   9.468  0.1289 -1.6730 -1.4300
  763MOL0     H  665   3.463   8.901   9.187  0.7667  0.2833 -0.4349
  763MOL0     H  666   3.508   8.737   9.229  1.6625 -0.9468  3.2287
  763MOL0     H  667   3.280   8.899   9.364 -2.0621 -0.3251 -0.1501
  763MOL0     H  668   3.331   8.722   9.378 -0.5412  1.7451  1.1646
  763MOL0     H  669   3.175   8.989   9.138  2.9159 -1.7689  2.6183
  763MOL0     H  670   3.022   8.865   8.855 -0.2211 -2.2120 -0.3529
  763MOL0     H  671   2.951   8.964   8.967  1.6698  0.9141 -3.4266
  763MOL0     H  672   2.769   8.853   8.886  0.5772 -1.0080 -1.7510
  763MOL0     H  673   2.781   8.764   9.037 -0.7897 -2.2991 -0.8098
  763MOL0     H  674   2.867   8.642   8.766 -0.1770 -1.0010 -0.4122
  763MOL0     H  675   2.891   8.563   8.927 -0.9717  2.2373  4.0192
  763MOL0     H  676   2.693   8.498   8.787 -0.0989  0.5183 -1.2300
  763MOL0     H  677   2.631   8.657   8.794 -1.1775 -0.9742  0.3232
  763MOL0     H  678   2.441   8.560   8.766 -2.0208  1.5399 -0.7179
  763MOL0     H  679   2.214   8.453   8.778  0.2731 -0.1098 -0.3732
  763MOL0     H  680   1.943   8.084   8.939 -2.5298 -0.9447 -0.5084
  763MOL0     H  681   1.730   7.996   8.976 -0.2269  0.6883 -0.3684
  763MOL0     H  682   1.557   7.869   9.136 -1.7163 -0.3147 -0.0408
  763MOL0     H  683   1.523   7.985   9.003  3.2690 -2.3205 -0.4312
  763MOL0     H  684   1.299   8.020   9.103 -0.1961  0.3358 -1.0932
  763MOL0     H  685   1.355   7.907   9.238 -1.2370  1.2510  0.7197
  763MOL0     H  686   1.212   7.796   9.099 -0.3339  2.8526 -1.1354
  763MOL0     H  687   1.374   7.731   9.053 -1.2813 -1.2317 -1.8622
  763MOL0     H  688   1.245   7.950   8.890 -1.8193  0.2522  0.9061
  763MOL0     H  689   1.366   7.830   8.852  0.0148 -4.4963  1.0865
  763MOL0     H  690   1.095   7.719   8.908  2.8430 -1.1514  2.2190
  763MOL0     H  691   1.238   7.653   8.840 -0.9220 -0.6360 -0.2752
  763MOL0     H  692   1.223   7.846   8.660  0.1906 -0.4315 -0.3052
  763MOL0     H  693   1.058   7.873   8.716 -0.0673  0.4120 -1.5045
  763MOL0     H  694   1.178   7.639   8.595  2.3641  3.0359  1.5175
  763MOL0     H  695   1.032   7.611   8.698 -0.3040  1.1219  1.9186
  763MOL0     H  696   1.017   7.661   8.432 -2.1682 -0.0917  0.7352
  763MOL0     H  697   1.050   7.825   8.472 -2.7339  0.2068 -1.5888
  763MOL0     H  698   1.692   8.258   9.328  2.1023 -0.3173  1.1615
  763MOL0     H  699   1.900   8.356   9.273 -0.7162  1.1221 -0.4567
  763MOL0     H  700   2.253   8.401   9.201 -4.5789 -0.7543 -0.3406
  763MOL0     H  701   2.489   8.478   9.194 -2.1717  1.2465  1.2190
  763MOL0     H  702   4.295   8.654   9.415 -1.6552  1.5318  0.1135
  763MOL0     H  703   4.517   8.593   9.394  0.1576  0.4429 -0.1195
  763MOL0     H  704   4.966   8.911   9.284 -0.6449  0.1184 -1.6021
  763MOL0     H  705   5.214   8.911   9.259  2.8798 -2.0355  0.6403
  763MOL0     H  706   5.449   8.577   9.116  1.4860  1.1583 -0.8630
  763MOL0     H  707   5.456   8.572   9.287 -1.3109  1.8803  0.4517
  763MOL0     H  708   5.594   8.796   9.115  0.1801 -0.3163 -0.6624
  763MOL0     H  709   5.617   8.754   9.289  0.3108  0.0193  1.4615
  763MOL0     H  710   5.718   8.596   9.036 -1.7740 -0.4682 -0.2117
  763MOL0     H  711   5.691   8.509   9.182  2.1977 -0.3430 -0.3855
  763MOL0     H  712   5.838   8.655   9.305  0.8289  2.1247  0.3029
  763MOL0     H  713   5.930   8.596   9.179 -0.1793 -1.5553  1.7459
  763MOL0     H  714   5.940   9.016   9.119  0.6104  0.5297  1.0256
  763MOL0     H  715   5.245   8.505   9.219  1.8193  0.7484  1.0013
  763MOL0     H  716   4.989   8.475   9.271 -0.6451  0.0572  0.6972
  764MOL0     O  717   5.186   9.623   3.036  0.1578  0.3407  0.4654
  764MOL0     C  718   5.110   9.699   2.975 -0.4584 -2.0651 -0.4742
  764MOL0     O  719   5.140   9.784   2.867  0.1781 -0.0038 -0.1759
  764MOL0     C  720   5.257   9.767   2.802 -0.1293 -1.1537 -0.5163
  764MOL0     C  721   5.341   9.655   2.803  0.3820  1.2554  0.7517
  764MOL0     C  722   5.460   9.653   2.734  0.9501  0.2207  0.5058
  764MOL0     C  723   5.516   9.765   2.675 -0.5539 -0.0097 -0.1850
  764MOL0     O  724   5.639   9.767   2.616  0.2248  0.3876  0.2173
  764MOL0     C  725   5.743   9.702   2.688  0.3120  0.6207 -0.4096
  764MOL0     C  726   5.884   9.733   2.632  0.3672  0.8489 -0.5196
  764MOL0     C  727   5.920   9.886   2.634  0.7977 -0.2702 -0.3066
  764MOL0     C  728   6.069   9.925   2.635  0.6758 -0.3195  0.4125
  764MOL0     C  729   6.140   9.903   2.500  0.3684 -0.1485  0.5746
  764MOL0     C  730   6.288   9.939   2.501 -0.7935  0.8526 -0.0368
  764MOL0     C  731   6.378   9.834   2.572  0.1927 -0.0966 -0.2651
  764MOL0     C  732   6.466   9.748   2.490 -0.0059  0.0969  0.2021
  764MOL0     N  733   6.396   9.662   2.401  0.3076  0.7671  0.7661
  764MOL0     C  734   6.350   9.695   2.271 -0.0633 -0.5955  0.8353
  764MOL0     C  735   6.297   9.576   2.229  0.2285 -0.3909 -0.3835
  764MOL0     C  736   6.237   9.567   2.092 -0.4722 -0.5855  0.1048
  764MOL0     C  737   6.115   9.666   2.069  0.0155  0.8742  0.0400
  764MOL0     C  738   6.104   9.799   2.145  0.0145  0.2739 -0.1594
  764MOL0     C  739   5.977   9.874   2.109  0.3433 -0.6668 -0.2402
  764MOL0     O  740   5.860   9.806   2.158  0.3862  0.6448  0.1194
  764MOL0     C  741   5.737   9.869   2.150 -0.1007 -0.4817 -0.4162
  764MOL0     C  742   5.679   9.895   2.029  0.2644  0.4297 -0.0186
  764MOL0     C  743   5.557   9.963   2.024 -0.1582 -0.6397  0.1018
  764MOL0     C  744   5.482   9.987   2.138 -0.2257  0.1888  0.0162
  764MOL0     C  745   5.346  10.063   2.128 -0.2648 -0.1387  0.2716
  764MOL0     O  746   5.303  10.112   2.255  0.1924 -0.2140 -0.9803
  764MOL0     C  747   5.177  10.167   2.268 -0.7454 -0.0734 -0.8753
  764MOL0     C  748   5.172  10.275   2.362  0.1033  0.1953  0.0866
  764MOL0     C  749   5.055  10.347   2.384 -0.3570 -0.0740 -0.0989
  764MOL0     C  750   4.935  10.316   2.318 -0.8428  0.3544 -0.1359
  764MOL0     O  751   4.823  10.383   2.346 -0.1170 -0.0735  0.2406
  764MOL0     C  752   4.779  10.392   2.483 -0.5681  0.6796 -0.1169
  764MOL0     C  753   4.626  10.376   2.471  0.2057 -0.3505 -0.1033
  764MOL0     C  754   4.550  10.411   2.596 -0.1354  0.5687  0.3893
  764MOL0     C  755   4.415  10.464   2.573  0.0030 -0.2453 -0.5022
  764MOL0     C  756   4.340  10.447   2.700 -0.2898 -0.2652  0.0806
  764MOL0     C  757   4.206  10.522   2.685 -0.1559 -0.6327 -0.1109
  764MOL0     C  758   4.128  10.499   2.814  0.0028 -0.1875 -0.2894
  764MOL0     C  759   4.001  10.570   2.803 -0.1645  0.0505 -1.2216
  764MOL0    Cl  760   3.917  10.561   2.967  0.3224 -0.2985 -0.2310
  764MOL0     C  761   4.937  10.211   2.218 -0.6120  0.0613 -0.6034
  764MOL0     C  762   5.062  10.138   2.194 -0.2206  0.0198  0.1521
  764MOL0     O  763   5.296  10.093   2.021  0.7230  0.2725 -0.0653
  764MOL0     C  764   5.539   9.953   2.264  0.1298  1.1164  0.1135
  764MOL0     C  765   5.673   9.903   2.269  1.2572  1.3029  0.5992
  764MOL0     N  766   6.306   9.483   2.322 -0.3669  0.1842 -0.3053
  764MOL0     N  767   6.363   9.538   2.429  0.0449 -0.2741  0.1538
  764MOL0     C  768   5.427   9.878   2.661 -0.2814 -0.7493 -0.0450
  764MOL0     C  769   5.305   9.877   2.727  0.1927 -0.4985  0.1484
  764MOL0     C  770   4.975   9.719   3.041 -0.2775 -0.6450  0.2241
  764MOL0     C  771   4.906   9.841   3.015 -0.6165 -0.4652 -0.3614
  764MOL0     C  772   4.777   9.861   3.057 -0.3684 -0.0374 -0.3227
  764MOL0     C  773   4.717   9.768   3.146 -1.0049  0.3102 -0.3664
  764MOL0     O  774   4.593   9.772   3.196  0.2930 -0.1066  0.3382
  764MOL0     C  775   4.515   9.895   3.184  0.4449  0.4220 -0.7043
  764MOL0     C  776   4.368   9.846   3.167  0.2741 -0.5524  0.3178
  764MOL0     C  777   4.309   9.775   3.289  0.1238  0.5129  0.0292
  764MOL0     C  778   4.177   9.696   3.256 -0.1264 -0.0735  0.3942
  764MOL0     C  779   4.080   9.748   3.354  0.0427 -0.3658  0.5812
  764MOL0     C  780   4.005   9.773   3.439  0.0200  0.3895 -1.0216
  764MOL0     C  781   4.785   9.648   3.175 -0.4195  0.5910 -0.2285
  764MOL0     C  782   4.915   9.626   3.124  0.1045 -0.2163 -0.0930
  764MOL0     H  783   5.307   9.560   2.841  1.5826  0.0710 -1.0073
  764MOL0     H  784   5.510   9.557   2.727 -1.5992 -1.1057 -0.9872
  764MOL0     H  785   5.729   9.594   2.689  1.2426  0.4948 -0.0499
  764MOL0     H  786   5.735   9.743   2.789  0.4835 -1.8313  0.6623
  764MOL0     H  787   5.885   9.704   2.527  0.2182  1.1643 -0.6083
  764MOL0     H  788   5.956   9.669   2.685 -2.4303 -2.2934 -0.1466
  764MOL0     H  789   5.875   9.932   2.723 -0.6752 -1.9309 -0.1382
  764MOL0     H  790   5.865   9.932   2.550  0.7684 -0.8507 -0.6119
  764MOL0     H  791   6.078  10.027   2.675  0.8530 -0.0757 -0.2412
  764MOL0     H  792   6.118   9.864   2.711  3.6156 -0.7621 -1.6612
  764MOL0     H  793   6.091   9.961   2.420  1.8960 -0.8034 -0.9086
  764MOL0     H  794   6.134   9.800   2.464 -1.2789  0.7459 -1.9950
  764MOL0     H  795   6.296  10.031   2.559 -2.3107  1.1289 -0.2199
  764MOL0     H  796   6.314   9.962   2.397 -4.7461 -1.7727 -1.8708
  764MOL0     H  797   6.432   9.894   2.645 -2.1737  0.6509  0.9764
  764MOL0     H  798   6.312   9.786   2.644 -1.8123  2.1445 -0.4896
  764MOL0     H  799   6.530   9.684   2.552  0.5537 -0.4949 -0.9502
  764MOL0     H  800   6.533   9.809   2.429  0.1200  0.1845  0.4258
  764MOL0     H  801   6.355   9.790   2.218  1.0652 -0.3141  1.4037
  764MOL0     H  802   6.205   9.463   2.080  2.3071 -1.5919  0.7415
  764MOL0     H  803   6.307   9.595   2.013  0.1309 -1.9330  0.1360
  764MOL0     H  804   6.025   9.611   2.097  0.7291 -0.5269 -0.2839
  764MOL0     H  805   6.103   9.684   1.962 -1.2492 -0.4313 -0.0654
  764MOL0     H  806   6.106   9.794   2.254  0.4182  0.9713 -0.1271
  764MOL0     H  807   6.186   9.855   2.099  0.0107 -3.0776 -4.9632
  764MOL0     H  808   5.976   9.910   2.006  1.0367 -2.0214 -0.7382
  764MOL0     H  809   5.976   9.966   2.168  3.7109 -1.9179  2.0957
  764MOL0     H  810   5.724   9.853   1.939 -0.5325  1.9925 -1.1996
  764MOL0     H  811   5.508  10.001   1.935 -1.3883 -1.5260  0.3819
  764MOL0     H  812   5.256  10.313   2.419 -0.4420  3.4008 -1.0721
  764MOL0     H  813   5.056  10.424   2.460 -1.4548 -0.1282 -0.0155
  764MOL0     H  814   4.814  10.490   2.517  1.1136  0.0071  0.2113
  764MOL0     H  815   4.818  10.314   2.549 -1.9248 -0.5123 -0.6906
  764MOL0     H  816   4.597  10.274   2.445 -1.8900  0.5428 -1.5139
  764MOL0     H  817   4.579  10.434   2.391 -1.1907 -1.3622 -0.0512
  764MOL0     H  818   4.615  10.472   2.659  2.3640 -0.0532 -1.4450
  764MOL0     H  819   4.547  10.319   2.654  1.9953 -0.4862 -1.0631
  764MOL0     H  820   4.426  10.570   2.551  0.6421 -0.4829 -1.3952
  764MOL0     H  821   4.371  10.417   2.485 -0.6198  1.2330 -1.0036
  764MOL0     H  822   4.398  10.488   2.784 -2.8066 -0.8004  2.2069
  764MOL0     H  823   4.320  10.341   2.720 -2.6509  0.2910  1.0713
  764MOL0     H  824   4.164  10.464   2.602 -2.0734  0.8616 -0.2471
  764MOL0     H  825   4.215  10.626   2.654  2.4628 -0.4365  1.0627
  764MOL0     H  826   4.112  10.392   2.824  2.9250 -0.7154 -0.3249
  764MOL0     H  827   4.176  10.533   2.907  0.0675  2.7691 -1.2858
  764MOL0     H  828   3.932  10.533   2.727 -4.4279  3.7129  0.3850
  764MOL0     H  829   4.021  10.676   2.784 -1.1914  0.4247 -0.3314
  764MOL0     H  830   4.845  10.189   2.164 -0.1902  1.0125 -1.7536
  764MOL0     H  831   5.071  10.075   2.106 -3.3463  0.0279 -0.3079
  764MOL0     H  832   5.490   9.961   2.361 -0.6338  2.4454 -0.3407
  764MOL0     H  833   5.723   9.892   2.364 -2.5978 -1.2473  2.6202
  764MOL0     H  834   5.458   9.974   2.621  1.9092 -0.8446  1.2868
  764MOL0     H  835   5.246   9.968   2.723 -1.0631 -1.3020 -0.4373
  764MOL0     H  836   4.938   9.916   2.944 -0.4506  0.8258  1.0118
  764MOL0     H  837   4.732   9.959   3.040  0.2329  0.4479  0.7347
  764MOL0     H  838   4.540   9.962   3.102 -0.9901  3.4355  1.1661
  764MOL0     H  839   4.526   9.958   3.272 -3.5521  2.8812 -1.6863
  764MOL0     H  840   4.304   9.930   3.138  0.5849 -1.1986 -2.5588
  764MOL0     H  841   4.365   9.766   3.092 -1.2542 -2.1757  2.0105
  764MOL0     H  842   4.290   9.847   3.369 -0.2227  1.6266 -1.0148
  764MOL0     H  843   4.373   9.696   3.329 -1.1011  0.5340  2.1902
  764MOL0     H  844   4.133   9.724   3.160 -1.0967 -0.0024  0.8373
  764MOL0     H  845   4.182   9.588   3.269 -0.2370 -0.0258  0.8623
  764MOL0     H  846   3.935   9.806   3.512  2.0508  1.3327  0.6097
  764MOL0     H  847   4.726   9.584   3.239  0.3156  1.0269  0.9095
  764MOL0     H  848   4.967   9.541   3.166 -4.0312 -1.9049  2.1842
  765MOL0     O  849   1.114   0.880   9.776  0.6799  0.4625  0.0605
  765MOL0     C  850   1.182   0.780   9.770  0.6204 -0.3286 -0.0329
  765MOL0     O  851   1.139   0.652   9.764 -0.4022  0.1114 -0.1809
  765MOL0     C  852   1.022   0.618   9.823  0.4170  0.2350  0.5020
  765MOL0     C  853   1.021   0.486   9.854 -0.0419  0.1790  0.9323
  765MOL0     C  854   0.907   0.423   9.891  0.3692  0.0432 -0.0815
  765MOL0     C  855   0.795   0.498   9.917  0.0273 -0.4256  0.1127
  765MOL0     O  856   0.696   0.423   9.979  0.1424  0.0861 -0.0394
  765MOL0     C  857   0.623   0.495  10.077  0.0512  0.2442 -0.2543
  765MOL0     C  858   0.530   0.392  10.144 -0.2380  0.0746  0.0822
  765MOL0     C  859   0.416   0.359  10.056  0.7559  0.3893 -0.1017
  765MOL0     C  860   0.295   0.454  10.088  0.1225  0.2202 -0.0928
  765MOL0     C  861   0.167   0.409  10.011  0.0547  0.2727  0.1155
  765MOL0     C  862   0.052   0.517  10.004  0.1514 -0.7367  0.5710
  765MOL0     C  863  -0.064   0.465   9.916  0.1226  0.2539  0.2713
  765MOL0     C  864  -0.177   0.563   9.877  0.6962 -0.0833  0.9527
  765MOL0     N  865  -0.268   0.503   9.779  1.1257 -0.7898 -0.1042
  765MOL0     C  866  -0.350   0.389   9.802  0.9850  0.0249 -0.3904
  765MOL0     C  867  -0.416   0.375   9.681  0.2305  0.6711  0.0775
  765MOL0     C  868  -0.532   0.280   9.655 -0.5093  0.4987 -0.4723
  765MOL0     C  869  -0.660   0.361   9.674  0.6470  0.1308  0.0208
  765MOL0     C  870  -0.689   0.392   9.822  0.2560 -0.0503 -0.0431
  765MOL0     C  871  -0.817   0.474   9.836 -0.1058  0.3807  0.3459
  765MOL0     O  872  -0.922   0.388   9.786  0.3226 -0.7241 -0.3461
  765MOL0     C  873  -1.052   0.431   9.786  0.7596 -0.8698 -0.5736
  765MOL0     C  874  -1.102   0.550   9.856 -0.6830 -0.7301  0.6419
  765MOL0     C  875  -1.238   0.585   9.856 -0.3670  0.7517  0.3235
  765MOL0     C  876  -1.325   0.504   9.780  1.2053  0.4091 -0.7592
  765MOL0     C  877  -1.464   0.544   9.765  0.1107 -0.1946  0.1375
  765MOL0     O  878  -1.511   0.641   9.850 -0.8440  0.2328 -0.4426
  765MOL0     C  879  -1.650   0.680   9.852 -0.1294  0.4717 -0.1665
  765MOL0     C  880  -1.675   0.760   9.958  0.3595  1.2284 -1.1159
  765MOL0     C  881  -1.801   0.799   9.996  0.7249  0.4242  0.0527
  765MOL0     C  882  -1.911   0.759   9.914  0.1651 -0.4156 -0.2253
  765MOL0     O  883  -2.040   0.796   9.944  0.1526  0.4449  0.2236
  765MOL0     C  884  -2.061   0.925   9.898  0.4289 -0.3800 -0.3145
  765MOL0     C  885  -2.205   0.945   9.934  0.7467 -0.9308  0.2151
  765MOL0     C  886  -2.303   0.863   9.843 -0.0976  0.3673 -0.3584
  765MOL0     C  887  -2.450   0.882   9.882 -0.4682  0.1666 -0.1965
  765MOL0     C  888  -2.553   0.825   9.782 -0.0367 -0.0660  0.1188
  765MOL0     C  889  -2.673   0.919   9.781 -0.5806  0.9963  0.0183
  765MOL0     C  890  -2.741   0.931   9.917  0.8644  0.5773 -0.3489
  765MOL0     C  891  -2.888   0.899   9.897 -0.5900  0.4451  0.3512
  765MOL0    Cl  892  -2.964   1.013   9.781 -0.0555  0.2043  0.6673
  765MOL0     C  893  -1.891   0.679   9.800 -0.0717  0.3214  0.2128
  765MOL0     C  894  -1.760   0.636   9.771 -0.3099  0.5335 -0.5608
  765MOL0     O  895  -1.520   0.514   9.659  0.1461 -0.4701  0.0476
  765MOL0     C  896  -1.280   0.398   9.700 -0.2258 -0.0969  0.8224
  765MOL0     C  897  -1.145   0.367   9.702  0.0068 -0.1149 -0.2447
  765MOL0     N  898  -0.373   0.476   9.596  0.5708 -0.3491 -1.1812
  765MOL0     N  899  -0.289   0.554   9.655 -0.3489  0.0173  0.0340
  765MOL0     C  900   0.793   0.633   9.891  0.4974 -0.0858  0.3156
  765MOL0     C  901   0.906   0.690   9.841  0.4548 -1.2918 -0.1548
  765MOL0     C  902   1.323   0.806   9.736  0.6199 -0.6946 -0.9761
  765MOL0     C  903   1.364   0.927   9.675 -0.6120 -0.5085 -0.9163
  765MOL0     C  904   1.503   0.954   9.646 -0.2969 -0.7380  0.4640
  765MOL0     C  905   1.599   0.858   9.661  0.0508 -0.0801 -0.0901
  765MOL0     O  906   1.721   0.903   9.634 -0.3633 -0.0071  0.7880
  765MOL0     C  907   1.843   0.821   9.652  0.2883 -0.7551  0.2730
  765MOL0     C  908   1.950   0.930   9.692  0.2945  0.4637  0.8228
  765MOL0     C  909   1.903   1.020   9.797 -0.1518 -0.0298 -0.5370
  765MOL0     C  910   2.015   1.103   9.850  0.6848 -0.0394 -0.0884
  765MOL0     C  911   1.956   1.190   9.953 -1.4142  0.3159  0.2668
  765MOL0     C  912   1.897   1.224  10.053 -0.2895  0.6858  0.1987
  765MOL0     C  913   1.550   0.729   9.713 -0.8582  0.1461  0.7827
  765MOL0     C  914   1.419   0.702   9.747  0.4902 -0.0284  0.3607
  765MOL0     H  915   1.106   0.422   9.834 -2.0745 -3.0956  1.9564
  765MOL0     H  916   0.895   0.317   9.908 -0.1421 -0.0495 -0.9612
  765MOL0     H  917   0.564   0.569  10.022  3.1809  1.2671 -2.5490
  765MOL0     H  918   0.695   0.548  10.140 -0.6146  0.8551 -0.0013
  765MOL0     H  919   0.502   0.416  10.247  0.1221 -2.8839  0.9564
  765MOL0     H  920   0.592   0.303  10.158 -1.9196 -1.4348 -1.3988
  765MOL0     H  921   0.398   0.254  10.081  3.5581 -0.0043  0.5183
  765MOL0     H  922   0.453   0.372   9.954  2.2335 -0.5718  0.2818
  765MOL0     H  923   0.274   0.444  10.195 -1.3924 -1.3017 -0.4886
  765MOL0     H  924   0.322   0.556  10.056  2.7914 -0.1085  0.9207
  765MOL0     H  925   0.116   0.322  10.053 -2.7799  1.4943 -0.5528
  765MOL0     H  926   0.198   0.384   9.909 -1.9680 -1.2081 -0.1953
  765MOL0     H  927   0.091   0.608   9.956  0.4980 -0.8241  0.6801
  765MOL0     H  928   0.014   0.547  10.102  1.5908  1.5479  0.5156
  765MOL0     H  929  -0.026   0.445   9.815 -1.3772 -1.0268 -0.0773
  765MOL0     H  930  -0.108   0.376   9.960  1.7901 -1.7001 -1.7965
  765MOL0     H  931  -0.128   0.644   9.821  1.9413 -2.2701 -1.3201
  765MOL0     H  932  -0.227   0.612   9.960  1.1688  0.5444  0.8769
  765MOL0     H  933  -0.353   0.330   9.893 -0.2023  1.7818  0.7684
  765MOL0     H  934  -0.526   0.195   9.723 -0.1367  1.8058  1.1996
  765MOL0     H  935  -0.530   0.237   9.554 -0.4457 -4.5383  1.4306
  765MOL0     H  936  -0.751   0.316   9.634  2.1989 -1.5801 -1.7958
  765MOL0     H  937  -0.653   0.456   9.620 -0.8174  0.5470  0.5263
  765MOL0     H  938  -0.692   0.300   9.881 -3.5459  0.0510  0.1683
  765MOL0     H  939  -0.609   0.461   9.850 -1.0982  1.4130  0.4440
  765MOL0     H  940  -0.811   0.566   9.779  4.3154 -0.1128 -0.3481
  765MOL0     H  941  -0.834   0.503   9.940  0.7356 -1.0017  0.8983
  765MOL0     H  942  -1.043   0.620   9.914 -1.6288  1.5072 -0.9738
  765MOL0     H  943  -1.278   0.669   9.911 -3.6825 -0.3417 -0.2002
  765MOL0     H  944  -1.592   0.797  10.018  0.2833  0.7691 -0.7224
  765MOL0     H  945  -1.823   0.849  10.090 -1.4737 -1.9303  0.8840
  765MOL0     H  946  -2.047   0.922   9.790  1.7778 -3.0087 -0.1429
  765MOL0     H  947  -1.998   0.990   9.960  0.2348 -1.1706  0.7357
  765MOL0     H  948  -2.238   1.049   9.933  1.5108 -0.6230  2.2132
  765MOL0     H  949  -2.216   0.924  10.041  1.1882 -1.8743  0.0849
  765MOL0     H  950  -2.278   0.757   9.858 -3.8799 -0.2633  4.4940
  765MOL0     H  951  -2.299   0.880   9.735  0.0230 -0.2287 -0.4508
  765MOL0     H  952  -2.463   0.840   9.982  3.0743  0.4438  0.5072
  765MOL0     H  953  -2.473   0.987   9.901 -1.7456 -0.1440  0.0837
  765MOL0     H  954  -2.592   0.730   9.822  1.6057 -0.6472  0.4011
  765MOL0     H  955  -2.515   0.805   9.681 -2.1830 -0.3416 -0.6960
  765MOL0     H  956  -2.746   0.898   9.702 -0.9164  3.0167 -0.2589
  765MOL0     H  957  -2.638   1.020   9.759  2.0019  0.2716  0.4502
  765MOL0     H  958  -2.705   0.854   9.986 -1.8453  0.8355  1.5460
  765MOL0     H  959  -2.724   1.028   9.964  0.4125 -0.9576  3.3485
  765MOL0     H  960  -2.933   0.903   9.997  0.2228  1.2753  0.6997
  765MOL0     H  961  -2.907   0.795   9.871  2.5511  0.6094 -3.3924
  765MOL0     H  962  -1.975   0.637   9.745 -0.5832  0.5752  0.7842
  765MOL0     H  963  -1.751   0.570   9.685 -0.6306  1.0526 -0.9966
  765MOL0     H  964  -1.347   0.342   9.635  0.8312  1.5557 -1.8241
  765MOL0     H  965  -1.111   0.286   9.638 -1.6160 -3.1959  2.4522
  765MOL0     H  966   0.696   0.682   9.893 -0.1269 -1.3183  2.5225
  765MOL0     H  967   0.895   0.788   9.795  1.0773 -1.6379 -1.0727
  765MOL0     H  968   1.284   0.994   9.643 -0.8847  0.4020  1.4940
  765MOL0     H  969   1.536   1.044   9.595  1.6756 -2.1757 -0.9163
  765MOL0     H  970   1.860   0.775   9.554 -0.3936  0.3079 -0.3681
  765MOL0     H  971   1.824   0.745   9.728  0.3028  0.3234  1.3812
  765MOL0     H  972   2.040   0.872   9.719  0.3769  1.1476  2.1112
  765MOL0     H  973   1.967   0.988   9.601  1.7076  0.1035  0.8305
  765MOL0     H  974   1.860   0.964   9.881  0.4285 -0.2948 -0.4121
  765MOL0     H  975   1.825   1.088   9.760  0.1475  1.4164  1.3099
  765MOL0     H  976   2.091   1.038   9.896 -1.0625 -1.7586  0.5239
  765MOL0     H  977   2.054   1.158   9.764 -0.2221  1.8751  0.6747
  765MOL0     H  978   1.841   1.254  10.139  0.0685  3.3930 -0.3977
  765MOL0     H  979   1.631   0.657   9.723  1.4392  2.6526  1.5623
  765MOL0     H  980   1.389   0.608   9.792  1.1036 -1.0765 -1.3513
  766MOL0     O  981   9.043  10.383   0.662  0.0029  0.0825  0.9838
  766MOL0     C  982   9.071  10.407   0.778  0.0413  0.8660 -0.6850
  766MOL0     O  983   8.982  10.451   0.870  0.3603  0.2939  0.1301
  766MOL0     C  984   8.846  10.468   0.846  0.1837 -0.3265  0.8802
  766MOL0     C  985   8.766  10.420   0.737  0.0037  0.1485  0.1778
  766MOL0     C  986   8.627  10.433   0.741 -0.9417  0.4680  1.0197
  766MOL0     C  987   8.577  10.509   0.842 -0.2213  0.2918 -0.6189
  766MOL0     O  988   8.440  10.520   0.852  0.7259  0.0761  0.5733
  766MOL0     C  989   8.366  10.569   0.743  0.6079  0.5597  0.7132
  766MOL0     C  990   8.228  10.622   0.785  0.3758 -0.9735  1.0522
  766MOL0     C  991   8.153  10.690   0.662 -0.1732 -0.8041  0.5375
  766MOL0     C  992   8.016  10.743   0.714 -0.0830  0.4734  0.6535
  766MOL0     C  993   8.027  10.865   0.793  0.2542 -0.2354  0.8762
  766MOL0     C  994   7.897  10.917   0.836 -0.4328 -0.2047 -0.3591
  766MOL0     C  995   7.876  11.042   0.916 -0.6068 -0.0894 -0.5258
  766MOL0     C  996   7.968  11.156   0.882 -0.5413  0.3983 -1.0545
  766MOL0     N  997   7.908  11.215   0.769 -0.6877  0.8272 -0.1946
  766MOL0     C  998   7.795  11.285   0.778 -0.3712  0.1287  1.1505
  766MOL0     C  999   7.760  11.305   0.653 -0.4275 -0.1042  0.4947
  766MOL0     C 1000   7.667  11.416   0.603 -0.2385  0.0769 -0.5513
  766MOL0     C 1001   7.688  11.484   0.461 -0.1931  0.6835 -0.1686
  766MOL0     C 1002   7.648  11.386   0.349  0.1931 -0.3616 -0.6441
  766MOL0     C 1003   7.658  11.452   0.213 -0.2413 -0.2452 -0.3989
  766MOL0     O 1004   7.603  11.584   0.202  0.6496  0.1137  0.1561
  766MOL0     C 1005   7.464  11.601   0.192 -0.5661 -0.2277 -0.3212
  766MOL0     C 1006   7.368  11.502   0.192  0.4032 -0.1149  0.1904
  766MOL0     C 1007   7.233  11.543   0.213  0.0751 -0.7099 -0.0267
  766MOL0     C 1008   7.198  11.683   0.202  0.5773 -0.0668 -0.2142
  766MOL0     C 1009   7.058  11.729   0.192  0.3238 -0.5352 -0.1914
  766MOL0     O 1010   7.027  11.863   0.178  0.7796 -0.1888 -0.6626
  766MOL0     C 1011   6.887  11.890   0.180 -0.9048 -0.7737  1.3946
  766MOL0     C 1012   6.833  11.942   0.294  0.8674 -0.2309 -0.1179
  766MOL0     C 1013   6.697  11.968   0.305  0.0334  0.5121  0.2814
  766MOL0     C 1014   6.609  11.951   0.193 -0.6642 -0.7130  0.5059
  766MOL0     O 1015   6.478  11.979   0.185  0.6635 -0.5955  0.3957
  766MOL0     C 1016   6.399  11.975   0.309 -0.0307  0.2974  0.7389
  766MOL0     C 1017   6.246  11.963   0.272 -1.2339 -0.6078 -0.3051
  766MOL0     C 1018   6.154  12.019   0.389  0.2956 -0.1130 -0.5794
  766MOL0     C 1019   6.004  11.991   0.348  0.0760 -0.2546  0.8570
  766MOL0     C 1020   5.895  12.065   0.440  0.0972  0.5538 -0.0181
  766MOL0     C 1021   5.751  12.060   0.374 -0.4279  0.2733 -0.0399
  766MOL0     C 1022   5.648  12.126   0.471 -0.4455  0.2642 -0.2370
  766MOL0     C 1023   5.516  12.189   0.417  0.3106  1.5934  0.2850
  766MOL0    Cl 1024   5.420  12.076   0.317  0.1315 -0.2174  0.2703
  766MOL0     C 1025   6.671  11.914   0.069  0.2795  0.2966  0.8971
  766MOL0     C 1026   6.809  11.891   0.059  0.0476  0.4045 -0.3920
  766MOL0     O 1027   6.968  11.642   0.208  0.1389 -0.2936 -0.2162
  766MOL0     C 1028   7.298  11.780   0.191  1.0765 -0.6853 -0.2323
  766MOL0     C 1029   7.428  11.738   0.186  0.1663 -0.2157 -0.2194
  766MOL0     N 1030   7.843  11.229   0.567  0.0695 -0.3421 -0.2257
  766MOL0     N 1031   7.934  11.186   0.638 -0.0323  0.2248 -0.3085
  766MOL0     C 1032   8.651  10.573   0.940  0.0622  0.2332 -0.6557
  766MOL0     C 1033   8.783  10.542   0.947  0.1945  0.0304  0.1239
  766MOL0     C 1034   9.220  10.402   0.812 -0.0533  0.3894 -0.5647
  766MOL0     C 1035   9.321  10.391   0.709 -0.0571  0.3110  0.3519
  766MOL0     C 1036   9.457  10.392   0.749 -0.5963  0.4899 -0.1674
  766MOL0     C 1037   9.495  10.392   0.886 -0.5581 -0.7574  0.8413
  766MOL0     O 1038   9.621  10.371   0.939 -0.0674  0.0043  0.1255
  766MOL0     C 1039   9.731  10.379   0.848  0.2085 -0.4140  0.6340
  766MOL0     C 1040   9.855  10.387   0.934 -0.2129 -0.3948  0.6250
  766MOL0     C 1041   9.980  10.376   0.847 -0.7044 -1.0837  0.6793
  766MOL0     C 1042  10.046  10.238   0.846  0.6338  0.1788  0.7403
  766MOL0     C 1043  10.132  10.228   0.963  0.6980 -0.0871 -0.3995
  766MOL0     C 1044  10.208  10.214   1.058  1.0032 -0.4100 -0.1036
  766MOL0     C 1045   9.397  10.398   0.977  0.4347 -0.2553 -0.5339
  766MOL0     C 1046   9.257  10.395   0.944 -0.5115 -1.6160 -0.0892
  766MOL0     H 1047   8.815  10.364   0.657  1.7281 -0.2236  1.4223
  766MOL0     H 1048   8.569  10.393   0.658 -0.3998 -0.4446  1.0729
  766MOL0     H 1049   8.354  10.477   0.685  0.0930 -2.5118  5.2010
  766MOL0     H 1050   8.428  10.645   0.694  1.3357 -0.8700 -0.6875
  766MOL0     H 1051   8.245  10.695   0.865 -1.4255  0.9497 -0.1838
  766MOL0     H 1052   8.167  10.543   0.829 -0.0956 -0.6612  0.9675
  766MOL0     H 1053   8.144  10.617   0.581  2.7567 -1.7302  0.9211
  766MOL0     H 1054   8.197  10.777   0.612 -2.3617 -0.9716 -1.8742
  766MOL0     H 1055   7.957  10.776   0.628 -1.9721  2.5609  2.6111
  766MOL0     H 1056   7.962  10.668   0.773  0.5908  0.5899  1.4414
  766MOL0     H 1057   8.083  10.940   0.737  1.5732 -0.7957  1.4031
  766MOL0     H 1058   8.086  10.847   0.884 -0.3943  3.8838  2.3181
  766MOL0     H 1059   7.863  10.828   0.889  0.8721  0.8367  2.4184
  766MOL0     H 1060   7.838  10.936   0.746 -0.9887  1.8685  0.3829
  766MOL0     H 1061   7.773  11.079   0.912 -0.7156 -0.3928 -0.5466
  766MOL0     H 1062   7.904  11.027   1.020  1.2748  2.2456 -0.6138
  766MOL0     H 1063   8.070  11.124   0.856 -0.2089 -0.4876  1.1183
  766MOL0     H 1064   7.964  11.220   0.971 -1.9227 -1.1782  0.0659
  766MOL0     H 1065   7.755  11.312   0.875 -1.3555 -0.2997  0.8722
  766MOL0     H 1066   7.680  11.494   0.679 -1.3854 -1.9959  1.9330
  766MOL0     H 1067   7.562  11.387   0.612  0.1710 -1.4403 -0.3772
  766MOL0     H 1068   7.794  11.506   0.451  0.0813 -1.4714 -3.4908
  766MOL0     H 1069   7.632  11.578   0.468 -0.6977  0.3559  0.3085
  766MOL0     H 1070   7.726  11.309   0.348  0.1694 -0.4329  1.0967
  766MOL0     H 1071   7.552  11.337   0.372  0.4522 -0.4862  0.1929
  766MOL0     H 1072   7.596  11.394   0.143 -0.7512 -2.1679  1.5531
  766MOL0     H 1073   7.758  11.438   0.171  1.0101 -2.2201  2.8782
  766MOL0     H 1074   7.399  11.398   0.203  2.0571  0.5354  2.4180
  766MOL0     H 1075   7.155  11.473   0.242 -1.3287  1.8463  3.1743
  766MOL0     H 1076   6.884  11.958   0.389 -0.0133  1.6411  0.0856
  766MOL0     H 1077   6.668  12.024   0.393 -1.6736  3.1554 -1.8399
  766MOL0     H 1078   6.423  12.060   0.374  2.6232 -1.6556  2.5581
  766MOL0     H 1079   6.426  11.884   0.364  0.3553 -0.7994 -1.1783
  766MOL0     H 1080   6.214  11.861   0.253 -3.2657 -0.2645  0.9198
  766MOL0     H 1081   6.242  12.030   0.186  5.3582 -2.0463 -2.2499
  766MOL0     H 1082   6.180  12.124   0.401  1.7480 -0.5259  0.2233
  766MOL0     H 1083   6.199  11.968   0.475  0.5483  0.0508 -0.6134
  766MOL0     H 1084   5.973  12.015   0.246  0.3624 -1.1358  0.5522
  766MOL0     H 1085   5.991  11.883   0.361  1.3175 -0.7488 -1.4105
  766MOL0     H 1086   5.925  12.168   0.460 -1.3636  0.9572  0.1777
  766MOL0     H 1087   5.889  12.025   0.542  0.9190  2.8758  1.0126
  766MOL0     H 1088   5.731  11.954   0.357 -0.9420  0.0585  1.6929
  766MOL0     H 1089   5.758  12.110   0.277 -0.0738 -1.5157 -0.9854
  766MOL0     H 1090   5.618  12.054   0.547 -1.5661  2.0972  1.1567
  766MOL0     H 1091   5.699  12.199   0.534 -1.7753 -0.9707  2.4021
  766MOL0     H 1092   5.548  12.276   0.359  1.9286  0.9427  0.1699
  766MOL0     H 1093   5.459  12.225   0.504  0.2819  1.2192  0.4223
  766MOL0     H 1094   6.603  11.915  -0.016 -1.3854  3.0886  2.1096
  766MOL0     H 1095   6.860  11.864  -0.032  1.1124 -2.4727  0.9479
  766MOL0     H 1096   7.270  11.884   0.185 -1.3525 -1.3432 -1.5468
  766MOL0     H 1097   7.502  11.816   0.177 -0.4435  0.8935  3.0388
  766MOL0     H 1098   8.604  10.635   1.016  0.8895  1.7986 -1.3618
  766MOL0     H 1099   8.836  10.570   1.037 -1.5600  1.2329  0.8137
  766MOL0     H 1100   9.296  10.386   0.604 -2.2555 -1.6766  0.9011
  766MOL0     H 1101   9.528  10.378   0.669 -0.2275  0.3845  0.1771
  766MOL0     H 1102   9.725  10.467   0.784 -2.4029 -1.0942 -0.1822
  766MOL0     H 1103   9.726  10.296   0.778  0.7150 -1.7293  2.0868
  766MOL0     H 1104   9.846  10.477   0.996  0.1774  1.1641 -1.4773
  766MOL0     H 1105   9.852  10.306   1.008  1.8673  1.2155  2.6142
  766MOL0     H 1106  10.056  10.453   0.863 -1.7402  0.3841 -1.0543
  766MOL0     H 1107   9.955  10.409   0.746  2.1835 -0.8169 -0.0520
  766MOL0     H 1108   9.977  10.153   0.849 -0.3521  0.9619  0.7786
  766MOL0     H 1109  10.108  10.239   0.756 -1.5858 -0.0649 -0.8636
  766MOL0     H 1110  10.276  10.194   1.138 -0.0611 -2.0454  0.4298
  766MOL0     H 1111   9.416  10.406   1.084  0.6448  5.1465 -0.6931
  766MOL0     H 1112   9.169  10.391   1.008 -1.8311 -0.5604 -1.7421
  767MOL0     O 1113   5.545   7.864   0.807  0.2631  0.1982  0.2469
  767MOL0     C 1114   5.623   7.922   0.881  0.7542  0.6442 -0.1441
  767MOL0     O 1115   5.592   7.954   1.000  0.1926  0.4379 -0.3796
  767MOL0     C 1116   5.466   7.989   1.037 -0.3612  0.1244  0.4669
  767MOL0     C 1117   5.412   7.935   1.146  0.7984 -0.3090 -0.9458
  767MOL0     C 1118   5.287   7.968   1.192  0.0580 -1.0391  0.1146
  767MOL0     C 1119   5.211   8.062   1.125 -0.0128 -0.3738 -0.0992
  767MOL0     O 1120   5.079   8.078   1.157 -0.2832 -0.7754  0.3606
  767MOL0     C 1121   4.999   8.192   1.107  0.2369  0.1276 -0.1111
  767MOL0     C 1122   4.884   8.210   1.206  0.3312  0.0271  0.9046
  767MOL0     C 1123   4.801   8.326   1.151 -0.2358 -0.7340  1.1353
  767MOL0     C 1124   4.660   8.330   1.216 -0.0478 -0.2311  0.4867
  767MOL0     C 1125   4.572   8.220   1.149 -0.1091 -0.3808  0.3015
  767MOL0     C 1126   4.440   8.205   1.212 -0.9151  0.2907 -0.0950
  767MOL0     C 1127   4.439   8.142   1.354  0.7629 -0.4514  0.0955
  767MOL0     C 1128   4.311   8.062   1.383  0.0806  0.0642 -0.0789
  767MOL0     N 1129   4.339   7.939   1.449 -0.5493  0.1444 -0.0054
  767MOL0     C 1130   4.287   7.823   1.403  0.1430  0.8551  0.9996
  767MOL0     C 1131   4.315   7.737   1.498  0.3012  0.2447  0.2209
  767MOL0     C 1132   4.241   7.603   1.496  0.7293  0.0023 -1.1230
  767MOL0     C 1133   4.094   7.615   1.542 -0.3963  0.1883 -0.4713
  767MOL0     C 1134   3.994   7.665   1.443  0.0312 -0.4728  0.5832
  767MOL0     C 1135   3.851   7.621   1.500  0.3106 -0.0168 -0.3184
  767MOL0     O 1136   3.749   7.646   1.406  0.0918  0.1432 -1.1855
  767MOL0     C 1137   3.626   7.607   1.442  0.1871  0.7966 -0.3397
  767MOL0     C 1138   3.536   7.554   1.351 -0.4488  0.3494  0.1230
  767MOL0     C 1139   3.407   7.527   1.390 -0.3867 -0.6849  0.4135
  767MOL0     C 1140   3.354   7.564   1.512 -0.9531 -0.6233 -0.1924
  767MOL0     C 1141   3.210   7.537   1.538 -1.1017 -0.5799 -0.2475
  767MOL0     O 1142   3.161   7.426   1.469  0.2974 -0.1199 -0.3536
  767MOL0     C 1143   3.021   7.408   1.452 -0.5195 -0.0146  0.7696
  767MOL0     C 1144   2.985   7.388   1.324 -0.1619  0.0541 -0.2369
  767MOL0     C 1145   2.858   7.365   1.280  0.2158 -0.7259 -0.1018
  767MOL0     C 1146   2.751   7.378   1.374  0.0757 -0.0837  0.2459
  767MOL0     O 1147   2.621   7.368   1.336  0.1628  0.0596 -0.1045
  767MOL0     C 1148   2.516   7.406   1.425  0.5807  0.1043 -0.5834
  767MOL0     C 1149   2.391   7.375   1.356  0.2817  0.1294  0.1931
  767MOL0     C 1150   2.369   7.224   1.343 -0.2883 -0.2913 -0.5956
  767MOL0     C 1151   2.242   7.196   1.268  0.0430  0.1574 -0.2698
  767MOL0     C 1152   2.165   7.081   1.333 -0.3480  0.1098  0.4432
  767MOL0     C 1153   2.026   7.066   1.270 -0.3681 -0.8970 -0.6002
  767MOL0     C 1154   1.950   6.936   1.324 -0.1724 -0.5442  0.2092
  767MOL0     C 1155   1.828   6.897   1.244 -0.6834  0.3567  0.1325
  767MOL0    Cl 1156   1.882   6.860   1.078  0.0311 -0.1057 -0.1635
  767MOL0     C 1157   2.790   7.392   1.516 -0.6177  0.0638  0.1408
  767MOL0     C 1158   2.923   7.397   1.553  0.4970 -0.2517 -0.3790
  767MOL0     O 1159   3.148   7.605   1.616  0.3025 -0.0628  0.6404
  767MOL0     C 1160   3.447   7.621   1.600  0.5403  0.5353 -0.0526
  767MOL0     C 1161   3.581   7.635   1.570  0.4497 -0.3946  0.2923
  767MOL0     N 1162   4.362   7.803   1.608 -0.6519 -0.3333  0.8145
  767MOL0     N 1163   4.391   7.924   1.574 -1.0323 -0.3789  0.2490
  767MOL0     C 1164   5.269   8.127   1.010 -1.1996 -0.4804 -0.3869
  767MOL0     C 1165   5.402   8.095   0.976  0.5083  0.0085 -0.2812
  767MOL0     C 1166   5.758   7.937   0.835 -1.2569 -0.0650  0.0452
  767MOL0     C 1167   5.850   7.990   0.931 -0.3455 -0.5377  0.1991
  767MOL0     C 1168   5.981   8.014   0.896 -0.4817  0.2104 -0.3171
  767MOL0     C 1169   6.026   7.980   0.759  0.4708  0.5918 -0.2021
  767MOL0     O 1170   6.153   8.004   0.735 -0.7592 -0.2721 -0.1244
  767MOL0     C 1171   6.232   7.910   0.657 -0.1580 -0.5804  0.0871
  767MOL0     C 1172   6.336   7.869   0.756  0.4197  0.5452  0.1337
  767MOL0     C 1173   6.454   7.802   0.674  0.3689 -0.3929 -0.1949
  767MOL0     C 1174   6.564   7.754   0.768 -0.8173  0.1612  0.8560
  767MOL0     C 1175   6.686   7.702   0.691  0.2522  0.1768 -0.9352
  767MOL0     C 1176   6.775   7.663   0.621 -0.7103  0.5842  0.3931
  767MOL0     C 1177   5.936   7.931   0.670  0.3359 -0.0073  0.1054
  767MOL0     C 1178   5.804   7.902   0.710  0.5383  0.2027 -0.5029
  767MOL0     H 1179   5.460   7.848   1.188 -1.1660 -0.0151  2.2194
  767MOL0     H 1180   5.242   7.912   1.274  0.2264  0.2916  1.1485
  767MOL0     H 1181   4.963   8.183   1.004  0.2726  3.0241 -0.4653
  767MOL0     H 1182   5.070   8.276   1.103  0.5168 -0.1467 -2.8392
  767MOL0     H 1183   4.917   8.246   1.303  1.5815  0.4992  0.3185
  767MOL0     H 1184   4.833   8.113   1.210 -0.2478  0.2806  0.0214
  767MOL0     H 1185   4.798   8.330   1.042 -1.6834 -1.1438  1.1319
  767MOL0     H 1186   4.850   8.418   1.183  0.2777 -0.5565 -0.1175
  767MOL0     H 1187   4.664   8.317   1.325 -4.2182  1.1027  0.9792
  767MOL0     H 1188   4.622   8.431   1.198  0.6234 -0.3600 -2.0355
  767MOL0     H 1189   4.616   8.121   1.159 -1.1251 -0.6220  3.7017
  767MOL0     H 1190   4.543   8.247   1.047  1.2539  1.0060  0.2575
  767MOL0     H 1191   4.372   8.143   1.153  2.1715 -3.2381 -0.2996
  767MOL0     H 1192   4.388   8.301   1.215 -1.2667  0.1572 -1.4314
  767MOL0     H 1193   4.526   8.075   1.357 -1.1441 -3.2035 -1.5211
  767MOL0     H 1194   4.448   8.225   1.424  0.9659 -1.1678  0.9275
  767MOL0     H 1195   4.266   8.026   1.290 -0.2724 -1.6461  0.7129
  767MOL0     H 1196   4.247   8.122   1.448  1.5113 -0.1677  1.6315
  767MOL0     H 1197   4.225   7.813   1.314  0.4998  3.0475  0.4550
  767MOL0     H 1198   4.294   7.521   1.545 -0.1397  0.0257 -0.1136
  767MOL0     H 1199   4.237   7.566   1.393 -1.1034  0.0178 -1.0843
  767MOL0     H 1200   4.082   7.674   1.633 -0.7292 -1.0843  0.3280
  767MOL0     H 1201   4.066   7.513   1.568  1.4649  0.1593  1.7658
  767MOL0     H 1202   4.006   7.772   1.428 -2.3757 -0.0623  1.1324
  767MOL0     H 1203   4.017   7.612   1.351 -1.7658 -1.4891  0.6694
  767MOL0     H 1204   3.828   7.649   1.604  1.8103 -3.6721  1.1509
  767MOL0     H 1205   3.852   7.513   1.510 -3.2650 -0.1481 -0.3279
  767MOL0     H 1206   3.569   7.538   1.249  1.7932  0.4609  0.7912
  767MOL0     H 1207   3.341   7.481   1.317 -0.1498  1.3631 -1.1803
  767MOL0     H 1208   3.051   7.376   1.239 -1.1784  0.9644 -1.1832
  767MOL0     H 1209   2.842   7.353   1.173 -0.4512 -1.5322  0.0831
  767MOL0     H 1210   2.512   7.514   1.438 -1.8220 -0.2751  4.0909
  767MOL0     H 1211   2.524   7.348   1.517  0.5433 -0.0154 -0.6551
  767MOL0     H 1212   2.389   7.419   1.256 -0.8754 -1.0946 -0.3558
  767MOL0     H 1213   2.307   7.409   1.417 -0.2260 -0.9798  0.1486
  767MOL0     H 1214   2.366   7.189   1.447  2.1041  2.3253  0.4957
  767MOL0     H 1215   2.454   7.172   1.296 -0.7737 -2.6062  0.8751
  767MOL0     H 1216   2.178   7.284   1.259 -2.0782 -1.0832  1.5381
  767MOL0     H 1217   2.269   7.160   1.168 -0.1653  0.6034 -0.4905
  767MOL0     H 1218   2.138   7.114   1.434 -4.1745  0.5247 -0.5540
  767MOL0     H 1219   2.217   6.984   1.331 -0.2898  0.1381 -1.9601
  767MOL0     H 1220   2.014   7.062   1.162 -0.5940 -0.9034 -0.5763
  767MOL0     H 1221   1.967   7.149   1.309  2.2793  1.2626 -0.9395
  767MOL0     H 1222   2.011   6.845   1.328 -1.0746 -1.1754 -0.1484
  767MOL0     H 1223   1.907   6.962   1.421 -0.9225 -1.9930  0.2931
  767MOL0     H 1224   1.766   6.987   1.240  0.3981  1.1255 -3.3922
  767MOL0     H 1225   1.780   6.808   1.286  2.7639 -2.0937 -0.6944
  767MOL0     H 1226   2.718   7.378   1.596  0.3074 -1.0834  0.8102
  767MOL0     H 1227   2.947   7.405   1.659  0.3464 -0.7896 -0.3004
  767MOL0     H 1228   3.422   7.639   1.704  1.2954 -0.6058  0.3531
  767MOL0     H 1229   3.644   7.667   1.653 -0.5127 -2.9379  2.1440
  767MOL0     H 1230   5.216   8.205   0.956 -1.2774  0.8960  1.5368
  767MOL0     H 1231   5.453   8.156   0.902 -1.0089  2.5352  0.6094
  767MOL0     H 1232   5.820   7.998   1.035  0.2602 -0.6722  0.3844
  767MOL0     H 1233   6.048   8.053   0.972  0.6101 -0.5742 -0.8399
  767MOL0     H 1234   6.274   7.962   0.571 -1.7236  0.0205 -0.3535
  767MOL0     H 1235   6.177   7.820   0.626  0.5261 -1.3887  1.1428
  767MOL0     H 1236   6.367   7.960   0.808  0.2987 -0.1716  1.5267
  767MOL0     H 1237   6.307   7.805   0.840  1.8199  1.1555  1.1243
  767MOL0     H 1238   6.490   7.869   0.596  0.2755  1.7338  1.4967
  767MOL0     H 1239   6.404   7.723   0.617 -2.0680  2.0332 -1.6792
  767MOL0     H 1240   6.602   7.824   0.843  0.8491  1.5966 -1.1995
  767MOL0     H 1241   6.535   7.665   0.825 -0.4682 -0.0321  0.7392
  767MOL0     H 1242   6.862   7.646   0.561 -1.7649  1.6370 -1.5326
  767MOL0     H 1243   5.962   7.904   0.568  1.6194  0.3846  0.3103
  767MOL0     H 1244   5.733   7.874   0.632  1.7482 -0.4921 -1.3922
  768MOL0     O 1245   2.668   2.231   5.838 -0.2603 -0.5158  0.1696
  768MOL0     C 1246   2.697   2.310   5.928 -1.0849 -0.0514  0.0028
  768MOL0     O 1247   2.624   2.334   6.040 -0.3222 -0.4147  0.3448
  768MOL0     C 1248   2.489   2.313   6.052  0.5228  0.7980 -0.4770
  768MOL0     C 1249   2.401   2.284   5.952  1.0602 -0.0696 -0.4112
  768MOL0     C 1250   2.263   2.276   5.979  0.2903  0.0457 -0.4862
  768MOL0     C 1251   2.214   2.313   6.107 -0.0190 -0.6719 -0.5465
  768MOL0     O 1252   2.085   2.299   6.153 -0.1978  1.2705 -0.9200
  768MOL0     C 1253   1.991   2.290   6.053  0.5831  0.2140 -0.3376
  768MOL0     C 1254   1.855   2.338   6.098  0.3849  0.3134  0.3396
  768MOL0     C 1255   1.774   2.214   6.141 -0.5172 -1.0855 -0.1967
  768MOL0     C 1256   1.629   2.249   6.171  0.3669  0.3308  0.2213
  768MOL0     C 1257   1.540   2.166   6.077 -0.1093 -0.5209 -0.8079
  768MOL0     C 1258   1.399   2.161   6.131 -0.4568 -0.1102  0.4417
  768MOL0     C 1259   1.300   2.062   6.055  0.6451 -0.6600  1.3327
  768MOL0     C 1260   1.164   2.065   6.107  0.5495 -0.4458  0.2535
  768MOL0     N 1261   1.080   1.977   6.027  0.1975  0.0369 -0.5552
  768MOL0     C 1262   1.036   1.861   6.080  0.1292 -0.1861  0.4151
  768MOL0     C 1263   0.983   1.798   5.973  0.3469 -0.0487  0.0933
  768MOL0     C 1264   0.945   1.660   5.962  0.1347  0.2716  0.2109
  768MOL0     C 1265   0.790   1.639   5.973  0.1140 -0.3879  0.2159
  768MOL0     C 1266   0.717   1.693   5.845 -0.0242  0.3833 -0.3052
  768MOL0     C 1267   0.565   1.673   5.854  0.4273 -0.2415 -0.1553
  768MOL0     O 1268   0.504   1.726   5.734  0.1508 -0.2435  0.1363
  768MOL0     C 1269   0.376   1.675   5.718 -0.1602  0.2903 -0.2019
  768MOL0     C 1270   0.296   1.622   5.817 -0.0779  0.7998  0.1105
  768MOL0     C 1271   0.173   1.564   5.797 -1.6405 -0.3556  0.3855
  768MOL0     C 1272   0.120   1.563   5.670 -0.0004 -1.0108 -0.2504
  768MOL0     C 1273  -0.013   1.515   5.627 -0.6363  0.8191  0.7318
  768MOL0     O 1274  -0.084   1.586   5.529  0.5142  0.1511  0.0716
  768MOL0     C 1275  -0.216   1.545   5.496  0.1094 -0.5293  0.5961
  768MOL0     C 1276  -0.310   1.483   5.584  0.0039 -0.1108 -0.0202
  768MOL0     C 1277  -0.434   1.440   5.532 -0.6383  0.6006  0.4277
  768MOL0     C 1278  -0.471   1.462   5.401  0.4179 -0.8065 -0.0506
  768MOL0     O 1279  -0.598   1.426   5.360  0.4060  0.1503 -0.0202
  768MOL0     C 1280  -0.671   1.322   5.418 -0.5811  0.0173 -0.3607
  768MOL0     C 1281  -0.780   1.282   5.319 -0.0104 -1.1624  0.0387
  768MOL0     C 1282  -0.847   1.159   5.373  0.1996  0.6914 -0.1780
  768MOL0     C 1283  -0.989   1.135   5.317 -0.3971  0.0134  0.3956
  768MOL0     C 1284  -0.978   1.088   5.166  0.5780  0.4129  0.0303
  768MOL0     C 1285  -1.101   1.013   5.109 -0.4252 -0.3991  0.2667
  768MOL0     C 1286  -1.241   1.077   5.120  0.7892 -0.6747 -0.2680
  768MOL0     C 1287  -1.271   1.184   5.011  0.3183  0.6797 -0.8166
  768MOL0    Cl 1288  -1.196   1.348   5.041 -0.0493  0.0988  0.2900
  768MOL0     C 1289  -0.384   1.532   5.322 -0.0615 -0.2527 -0.0744
  768MOL0     C 1290  -0.255   1.571   5.365  0.0198 -0.8224 -0.5062
  768MOL0     O 1291  -0.052   1.412   5.688  0.0850  0.5868  0.1986
  768MOL0     C 1292   0.187   1.640   5.566 -0.3248 -0.2132 -0.6319
  768MOL0     C 1293   0.315   1.699   5.591 -0.4523 -0.2630  0.0567
  768MOL0     N 1294   0.983   1.885   5.859 -0.0853 -0.1987 -0.3614
  768MOL0     N 1295   1.046   1.989   5.902  0.5972  0.8069 -0.5031
  768MOL0     C 1296   2.306   2.346   6.207  0.3343 -0.7621 -0.3071
  768MOL0     C 1297   2.445   2.335   6.181  0.2396 -0.3581  0.1605
  768MOL0     C 1298   2.837   2.369   5.937  0.0808  0.2883 -0.0980
  768MOL0     C 1299   2.928   2.338   5.838 -0.3601 -0.0420 -0.0494
  768MOL0     C 1300   3.059   2.382   5.849  0.3222  0.5751  0.0537
  768MOL0     C 1301   3.101   2.456   5.966 -0.6856  0.3624  0.4764
  768MOL0     O 1302   3.237   2.486   5.969  0.3270 -0.7457  0.8735
  768MOL0     C 1303   3.276   2.572   6.073 -0.0304 -0.6478  0.8733
  768MOL0     C 1304   3.426   2.592   6.061  0.4942 -0.1790 -0.1051
  768MOL0     C 1305   3.515   2.474   6.116 -0.0626  0.0006  0.3491
  768MOL0     C 1306   3.518   2.367   6.010 -0.0210  0.5714 -0.2263
  768MOL0     C 1307   3.601   2.396   5.900 -0.0851  0.7119 -0.4422
  768MOL0     C 1308   3.689   2.423   5.821  0.0443  0.2563  0.2287
  768MOL0     C 1309   3.009   2.490   6.059 -0.1830 -0.2289  0.0079
  768MOL0     C 1310   2.876   2.458   6.040 -0.5101  0.7607 -0.2059
  768MOL0     H 1311   2.419   2.270   5.846 -1.0441  0.0216 -0.8361
  768MOL0     H 1312   2.205   2.253   5.890 -0.3300  0.0135 -0.0773
  768MOL0     H 1313   1.989   2.186   6.019  0.6850 -0.0612  0.4700
  768MOL0     H 1314   2.035   2.355   5.977 -0.4563  2.8952  1.1816
  768MOL0     H 1315   1.811   2.382   6.009  0.8978 -1.7929 -1.0333
  768MOL0     H 1316   1.866   2.413   6.177 -1.3149  0.2441  0.6777
  768MOL0     H 1317   1.814   2.167   6.232 -0.5027  1.0962  0.9854
  768MOL0     H 1318   1.784   2.148   6.054 -0.4015 -0.7399 -0.4465
  768MOL0     H 1319   1.611   2.218   6.275  2.3602  1.6967  1.0441
  768MOL0     H 1320   1.615   2.356   6.153 -1.7936  0.3136  1.5038
  768MOL0     H 1321   1.578   2.064   6.074  0.6821 -0.2314 -1.0220
  768MOL0     H 1322   1.540   2.214   5.978  0.8712  5.2563  1.5477
  768MOL0     H 1323   1.360   2.263   6.140  1.0709  0.4892  0.4646
  768MOL0     H 1324   1.408   2.130   6.235 -0.3955 -0.3842  0.3539
  768MOL0     H 1325   1.297   2.068   5.946  1.5089 -0.8116  1.2945
  768MOL0     H 1326   1.347   1.963   6.066  0.1658 -1.5403 -2.9494
  768MOL0     H 1327   1.124   2.167   6.110  0.2650 -0.5065 -0.8733
  768MOL0     H 1328   1.174   2.021   6.206 -2.0977 -0.3528  0.6312
  768MOL0     H 1329   1.053   1.813   6.176 -0.6188  0.6724  0.9986
  768MOL0     H 1330   1.017   1.612   6.029  2.2354  3.0339  0.1384
  768MOL0     H 1331   0.976   1.615   5.868  1.4395 -0.7652  1.0905
  768MOL0     H 1332   0.753   1.704   6.053  0.6775  0.6286 -0.3275
  768MOL0     H 1333   0.770   1.531   5.978  0.2542 -0.4277 -0.1116
  768MOL0     H 1334   0.732   1.799   5.825 -1.3276  0.3199 -1.8246
  768MOL0     H 1335   0.754   1.631   5.762  1.8977  2.4815 -1.1135
  768MOL0     H 1336   0.527   1.707   5.951 -0.4082 -3.8400  0.9512
  768MOL0     H 1337   0.545   1.565   5.859 -0.1373 -0.2068 -1.2046
  768MOL0     H 1338   0.330   1.627   5.920  1.0413 -1.1321 -0.1161
  768MOL0     H 1339   0.113   1.516   5.874  0.5414 -1.4866  1.4753
  768MOL0     H 1340  -0.283   1.465   5.688 -1.0191 -0.5549  0.1802
  768MOL0     H 1341  -0.501   1.377   5.589 -1.0376 -0.9705 -1.6510
  768MOL0     H 1342  -0.706   1.356   5.516  1.4956  3.1885 -0.5825
  768MOL0     H 1343  -0.604   1.238   5.440 -3.4517 -2.1005  0.8953
  768MOL0     H 1344  -0.734   1.263   5.221  0.4687  3.9893 -1.0555
  768MOL0     H 1345  -0.847   1.367   5.301  0.9955 -0.0694  1.2424
  768MOL0     H 1346  -0.851   1.168   5.482  1.7182  2.4552 -0.2170
  768MOL0     H 1347  -0.784   1.074   5.346 -4.2351 -3.7017  1.6454
  768MOL0     H 1348  -1.038   1.060   5.380 -0.0439 -0.6577 -0.1222
  768MOL0     H 1349  -1.043   1.230   5.321 -1.8064 -0.7107 -0.4615
  768MOL0     H 1350  -0.893   1.019   5.156  1.7772  0.4720  5.9834
  768MOL0     H 1351  -0.955   1.173   5.102  1.4570 -0.2570 -0.5751
  768MOL0     H 1352  -1.116   0.919   5.164  1.9880 -0.9070  0.1502
  768MOL0     H 1353  -1.093   0.986   5.004 -0.6716  0.5261 -0.0009
  768MOL0     H 1354  -1.320   1.002   5.108 -0.5159  0.1754  2.2631
  768MOL0     H 1355  -1.254   1.106   5.225  0.1969 -1.4919 -0.1015
  768MOL0     H 1356  -1.376   1.213   5.006  0.3269  1.0280  0.5896
  768MOL0     H 1357  -1.241   1.140   4.916  0.5713 -1.0401  0.0220
  768MOL0     H 1358  -0.437   1.559   5.231  0.4540  0.8288 -0.0669
  768MOL0     H 1359  -0.190   1.625   5.297 -1.0997  2.2218  0.6640
  768MOL0     H 1360   0.138   1.665   5.473  0.0448 -0.4585 -0.8974
  768MOL0     H 1361   0.366   1.748   5.509 -0.2055  2.1050  1.5443
  768MOL0     H 1362   2.260   2.340   6.305 -1.2488 -3.0397 -1.1158
  768MOL0     H 1363   2.514   2.363   6.260 -0.2502  1.0026  0.1304
  768MOL0     H 1364   2.907   2.279   5.749  1.7835  0.3071 -0.8450
  768MOL0     H 1365   3.129   2.359   5.770 -1.0562 -1.8811 -0.5661
  768MOL0     H 1366   3.248   2.531   6.170 -1.6107 -1.4758  0.1081
  768MOL0     H 1367   3.229   2.669   6.053 -0.1381 -0.7913  0.3956
  768MOL0     H 1368   3.458   2.615   5.958  3.1925 -1.2004  0.4387
  768MOL0     H 1369   3.442   2.690   6.107  0.0393  0.8326 -1.9567
  768MOL0     H 1370   3.466   2.425   6.200 -1.2173  1.0607  0.3076
  768MOL0     H 1371   3.615   2.507   6.146 -1.9135  2.3872  4.7950
  768MOL0     H 1372   3.561   2.282   6.064 -1.2513 -1.0998 -1.7355
  768MOL0     H 1373   3.422   2.330   5.973  0.5112 -0.3407 -0.7470
  768MOL0     H 1374   3.770   2.447   5.756  0.7646  2.9021  1.9092
  768MOL0     H 1375   3.029   2.562   6.138 -1.6853  3.5853 -2.8130
  768MOL0     H 1376   2.804   2.480   6.119 -0.2004  2.7600 -0.4282
  769MOL0     O 1377   9.551   8.898   9.004  1.1215  0.7136  0.0077
  769MOL0     C 1378   9.559   9.019   8.986  0.1204 -0.9522  0.5380
  769MOL0     O 1379   9.463   9.103   8.959 -1.0483 -0.1444 -0.0914
  769MOL0     C 1380   9.331   9.071   8.949  0.0455 -0.0126  0.3364
  769MOL0     C 1381   9.273   8.936   8.936 -0.1718  1.1033  0.2617
  769MOL0     C 1382   9.135   8.910   8.930 -0.4906 -0.1739  0.0163
  769MOL0     C 1383   9.036   9.010   8.935 -0.3013  0.5974 -0.5812
  769MOL0     O 1384   8.898   8.983   8.937 -0.4635 -0.7491  0.7845
  769MOL0     C 1385   8.847   8.899   8.829 -0.7241 -0.3755  0.5086
  769MOL0     C 1386   8.860   8.982   8.696  0.4975  0.2612 -0.6165
  769MOL0     C 1387   8.793   8.907   8.585  0.4982 -0.1126 -0.1719
  769MOL0     C 1388   8.787   8.998   8.464 -0.2599  0.9335 -0.4364
  769MOL0     C 1389   8.710   8.933   8.351  0.7869  0.1254  0.8193
  769MOL0     C 1390   8.593   8.843   8.382 -0.4971  0.3091 -0.3350
  769MOL0     C 1391   8.522   8.798   8.258 -0.2508  0.6939  0.2146
  769MOL0     C 1392   8.426   8.898   8.195  0.4683 -0.1239  0.0656
  769MOL0     N 1393   8.341   8.832   8.094 -0.6451  0.4322 -0.3688
  769MOL0     C 1394   8.215   8.780   8.119 -0.0336 -0.6961 -0.2994
  769MOL0     C 1395   8.164   8.757   7.992 -0.5025  0.2391 -0.2328
  769MOL0     C 1396   8.020   8.717   7.967  0.3038 -0.4511 -0.4682
  769MOL0     C 1397   7.983   8.787   7.838  0.0574  0.2162 -0.4112
  769MOL0     C 1398   7.824   8.748   7.811  0.1507 -0.0714 -0.5717
  769MOL0     C 1399   7.773   8.801   7.682 -0.6525  0.0258 -0.8918
  769MOL0     O 1400   7.672   8.715   7.633  0.4123 -0.5101  0.2315
  769MOL0     C 1401   7.544   8.764   7.634  0.3281 -0.7081  0.2228
  769MOL0     C 1402   7.505   8.873   7.702  0.9734 -0.1961 -0.2047
  769MOL0     C 1403   7.365   8.915   7.693  0.6584 -0.0255  1.0749
  769MOL0     C 1404   7.273   8.849   7.614 -0.1756  1.5898  0.3691
  769MOL0     C 1405   7.129   8.868   7.618 -0.1844  0.8056  0.3705
  769MOL0     O 1406   7.069   8.971   7.681 -0.1751  0.2200 -0.0257
  769MOL0     C 1407   6.930   8.956   7.700 -0.4533 -0.3238 -0.3975
  769MOL0     C 1408   6.879   8.862   7.802 -0.4243  0.3701 -0.1641
  769MOL0     C 1409   6.747   8.845   7.828  0.7577  0.3329  0.1207
  769MOL0     C 1410   6.652   8.926   7.757 -0.4963 -0.0413 -0.4344
  769MOL0     O 1411   6.522   8.934   7.779  0.2930  0.5721 -0.5568
  769MOL0     C 1412   6.462   8.858   7.886  0.4422  0.3050 -0.5919
  769MOL0     C 1413   6.329   8.927   7.930  0.8748  0.1487  0.7672
  769MOL0     C 1414   6.256   8.826   8.025 -0.0312  0.6949 -0.5021
  769MOL0     C 1415   6.132   8.882   8.081  0.4163  0.4043 -0.0769
  769MOL0     C 1416   6.065   8.777   8.167 -0.1317 -0.2170 -0.1226
  769MOL0     C 1417   5.910   8.792   8.174 -0.4275 -1.1896  0.0425
  769MOL0     C 1418   5.837   8.673   8.238 -0.6936  0.0438  0.1249
  769MOL0     C 1419   5.754   8.711   8.361 -0.3873  0.1134 -0.1150
  769MOL0    Cl 1420   5.629   8.829   8.332 -0.0248  0.0935 -0.0784
  769MOL0     C 1421   6.705   9.008   7.657  0.8524 -0.0328  0.4761
  769MOL0     C 1422   6.835   9.033   7.627  0.3905  0.5689 -0.3051
  769MOL0     O 1423   7.062   8.783   7.550  0.5348  0.1903 -0.4526
  769MOL0     C 1424   7.321   8.729   7.543 -0.2680 -0.1623  0.0736
  769MOL0     C 1425   7.457   8.693   7.550  0.0968 -0.6134  1.1036
  769MOL0     N 1426   8.258   8.783   7.898 -0.5536 -0.0507  0.0343
  769MOL0     N 1427   8.369   8.826   7.960  0.4150 -0.1219  0.2375
  769MOL0     C 1428   9.087   9.139   8.952 -0.1555 -0.5958  0.4116
  769MOL0     C 1429   9.225   9.171   8.954 -0.3632  0.2913 -0.2262
  769MOL0     C 1430   9.695   9.074   8.996 -0.1749 -0.1847  0.5687
  769MOL0     C 1431   9.715   9.215   9.015  0.3936 -0.8592 -0.5668
  769MOL0     C 1432   9.844   9.265   9.044  0.9405  0.4167 -0.2664
  769MOL0     C 1433   9.949   9.176   9.042  0.1722 -0.0568  0.1071
  769MOL0     O 1434  10.064   9.238   9.076 -0.4317 -0.0126 -0.1865
  769MOL0     C 1435  10.178   9.147   9.074 -0.2853 -0.0956 -0.7775
  769MOL0     C 1436  10.313   9.228   9.087  0.1810 -0.1627 -0.6481
  769MOL0     C 1437  10.436   9.161   9.046 -0.3306  0.3797 -0.7908
  769MOL0     C 1438  10.569   9.235   9.066 -0.0193 -0.8229  0.3290
  769MOL0     C 1439  10.559   9.370   9.014  0.5351 -0.1858 -0.1037
  769MOL0     C 1440  10.555   9.480   8.964 -0.2569 -0.3300  0.2280
  769MOL0     C 1441   9.929   9.040   8.999 -1.4033 -0.3885  0.1110
  769MOL0     C 1442   9.807   8.990   8.980  0.2842  0.9940 -0.2926
  769MOL0     H 1443   9.339   8.852   8.921  0.1613  1.7283 -2.1241
  769MOL0     H 1444   9.093   8.813   8.905 -0.7753  0.3137 -1.5508
  769MOL0     H 1445   8.741   8.883   8.850 -0.9464  1.8382  1.2966
  769MOL0     H 1446   8.887   8.797   8.821  4.0845  1.1271  1.8161
  769MOL0     H 1447   8.966   9.009   8.685 -0.3317  4.0169 -0.6012
  769MOL0     H 1448   8.815   9.081   8.706  0.8802  0.4758 -0.9893
  769MOL0     H 1449   8.697   8.868   8.621  0.7757  0.8952  1.7546
  769MOL0     H 1450   8.849   8.819   8.551  0.6348 -0.7160  1.5257
  769MOL0     H 1451   8.746   9.097   8.488  2.8656  2.3056 -0.1778
  769MOL0     H 1452   8.892   9.018   8.443  0.3073 -0.6659  0.6567
  769MOL0     H 1453   8.784   8.876   8.294 -0.0295  1.1107 -1.3676
  769MOL0     H 1454   8.686   9.013   8.280 -1.6110 -1.3664 -0.1540
  769MOL0     H 1455   8.536   8.889   8.463  2.6681  1.8058  1.2412
  769MOL0     H 1456   8.635   8.746   8.410  1.0886 -0.3883 -4.3480
  769MOL0     H 1457   8.597   8.777   8.182  0.6820  2.2566  0.6612
  769MOL0     H 1458   8.465   8.705   8.267 -3.5686  2.5638  0.2499
  769MOL0     H 1459   8.481   8.972   8.137 -0.5858 -0.8982 -2.0111
  769MOL0     H 1460   8.378   8.954   8.276 -0.8866 -0.5059 -0.4450
  769MOL0     H 1461   8.156   8.777   8.210 -1.1618  0.6679 -0.9408
  769MOL0     H 1462   7.953   8.736   8.051  0.5976 -0.7084 -0.1714
  769MOL0     H 1463   8.004   8.609   7.958 -0.1026 -0.3670 -0.7526
  769MOL0     H 1464   8.052   8.749   7.762  1.5498  1.6250  0.1779
  769MOL0     H 1465   8.002   8.894   7.844 -0.4502  0.2428  1.3781
  769MOL0     H 1466   7.807   8.640   7.811 -1.7424  0.1960 -0.9243
  769MOL0     H 1467   7.756   8.784   7.889  0.0603  1.1171 -1.1659
  769MOL0     H 1468   7.853   8.800   7.608  0.3220  1.9537  0.0395
  769MOL0     H 1469   7.749   8.907   7.698  0.3956  0.2099 -0.4305
  769MOL0     H 1470   7.560   8.947   7.760  1.1392  0.4999 -1.2231
  769MOL0     H 1471   7.319   8.992   7.754 -2.2607 -0.1369 -0.7934
  769MOL0     H 1472   6.956   8.811   7.859 -1.5706  0.7345  1.7990
  769MOL0     H 1473   6.706   8.780   7.905 -1.3708 -2.8965 -3.3234
  769MOL0     H 1474   6.525   8.842   7.974 -2.7280 -3.5971  1.2696
  769MOL0     H 1475   6.431   8.764   7.840  0.0809  1.2658 -2.3960
  769MOL0     H 1476   6.268   8.965   7.848  1.1374 -1.0439  0.0016
  769MOL0     H 1477   6.350   9.022   7.979  1.3110  1.0510 -1.1049
  769MOL0     H 1478   6.318   8.806   8.113 -0.3459  0.9513 -0.2226
  769MOL0     H 1479   6.241   8.731   7.973  2.7760  0.2803 -0.7500
  769MOL0     H 1480   6.158   8.971   8.138  1.6443  0.9286 -1.3848
  769MOL0     H 1481   6.064   8.916   8.002 -0.0017 -1.4717 -0.5990
  769MOL0     H 1482   6.102   8.777   8.270  1.6295  0.7397 -0.7223
  769MOL0     H 1483   6.094   8.681   8.123 -2.1426 -1.2484  0.6834
  769MOL0     H 1484   5.880   8.807   8.069 -0.6688 -3.7232 -0.3055
  769MOL0     H 1485   5.887   8.882   8.231  0.4794  1.1663 -3.0119
  769MOL0     H 1486   5.769   8.633   8.162  0.5132 -3.0342  0.5068
  769MOL0     H 1487   5.903   8.587   8.254 -0.8479  0.0048  0.5530
  769MOL0     H 1488   5.820   8.746   8.441 -0.3589  1.4060 -0.6735
  769MOL0     H 1489   5.709   8.618   8.395 -1.3131  0.5170 -0.2152
  769MOL0     H 1490   6.644   9.073   7.595  0.3014  2.5021  3.4460
  769MOL0     H 1491   6.851   9.101   7.544 -1.3446  2.3798  0.7618
  769MOL0     H 1492   7.260   8.665   7.480  0.6694 -0.7138 -0.2943
  769MOL0     H 1493   7.503   8.602   7.513  3.0498 -0.1540  3.2634
  769MOL0     H 1494   9.014   9.218   8.964 -0.9539 -0.4456 -4.0088
  769MOL0     H 1495   9.255   9.274   8.972  1.6681 -0.2266 -0.4070
  769MOL0     H 1496   9.632   9.284   9.009  0.8742  0.4286  3.8647
  769MOL0     H 1497   9.862   9.370   9.064  4.1353  0.4964 -2.7459
  769MOL0     H 1498  10.186   9.096   8.978 -0.7790 -3.0899  0.6582
  769MOL0     H 1499  10.168   9.074   9.155 -0.3303 -1.0061 -1.5966
  769MOL0     H 1500  10.293   9.316   9.024 -2.9688 -0.3867 -0.1321
  769MOL0     H 1501  10.328   9.251   9.193  0.0908 -0.1164 -0.6461
  769MOL0     H 1502  10.421   9.125   8.944  0.4236 -2.4624 -0.0108
  769MOL0     H 1503  10.434   9.068   9.105  1.3728  1.3703  0.9361
  769MOL0     H 1504  10.583   9.249   9.173 -3.4395  1.8954  0.5817
  769MOL0     H 1505  10.649   9.175   9.020 -0.1931  1.2482 -3.0282
  769MOL0     H 1506  10.566   9.580   8.928 -0.3264 -0.7082 -0.8924
  769MOL0     H 1507  10.006   8.964   9.000 -1.0571 -0.0419  0.9022
  769MOL0     H 1508   9.780   8.885   8.968 -1.2336  1.5678 -2.4617
  770MOL0     O 1509   5.335   0.224   2.254  0.3784  0.1720 -0.3260
  770MOL0     C 1510   5.426   0.285   2.194  0.4931 -0.4106 -0.3434
  770MOL0     O 1511   5.417   0.320   2.073  0.0356 -0.8589 -0.3005
  770MOL0     C 1512   5.295   0.293   2.020 -0.1876 -0.6558  0.4166
  770MOL0     C 1513   5.274   0.194   1.923 -0.0059 -0.7344 -0.2085
  770MOL0     C 1514   5.139   0.172   1.876  0.1871  1.0210 -0.3689
  770MOL0     C 1515   5.037   0.261   1.917 -0.1582  0.0436  0.3791
  770MOL0     O 1516   4.918   0.261   1.843  0.7455 -0.1686 -0.2211
  770MOL0     C 1517   4.819   0.359   1.833 -0.2320 -0.5324 -0.6165
  770MOL0     C 1518   4.704   0.310   1.927  0.7468 -0.4794 -0.2671
  770MOL0     C 1519   4.591   0.412   1.957  0.0660 -0.1498  1.1166
  770MOL0     C 1520   4.494   0.351   2.063 -0.3267  0.1057 -0.3681
  770MOL0     C 1521   4.348   0.400   2.040  0.1702 -1.1694 -0.3088
  770MOL0     C 1522   4.260   0.341   2.137  0.8318  0.1016 -0.3673
  770MOL0     C 1523   4.120   0.398   2.108  0.2338 -0.7410 -0.7060
  770MOL0     C 1524   4.013   0.331   2.193  0.1565 -0.0788 -0.1875
  770MOL0     N 1525   3.884   0.386   2.161 -0.1135  0.4634 -0.0960
  770MOL0     C 1526   3.784   0.311   2.108  0.2860 -0.4177  0.0593
  770MOL0     C 1527   3.673   0.385   2.106  0.3103 -0.0539  0.8096
  770MOL0     C 1528   3.535   0.340   2.061 -0.4122 -1.3804 -0.8600
  770MOL0     C 1529   3.445   0.263   2.155  0.7382  0.2383  0.0874
  770MOL0     C 1530   3.409   0.347   2.282  0.5917  0.5240  0.6985
  770MOL0     C 1531   3.324   0.269   2.377  0.5676  0.4147  0.4008
  770MOL0     O 1532   3.213   0.193   2.328 -0.1237 -0.2219 -0.6063
  770MOL0     C 1533   3.090   0.244   2.363  0.6914  0.8769  0.3182
  770MOL0     C 1534   2.994   0.166   2.424 -0.3295  0.3315 -0.1761
  770MOL0     C 1535   2.872   0.212   2.466  0.1798 -0.2323 -0.0523
  770MOL0     C 1536   2.827   0.340   2.446  0.9265 -0.0655  0.7530
  770MOL0     C 1537   2.699   0.399   2.491  0.1726 -0.0597 -0.1963
  770MOL0     O 1538   2.684   0.530   2.468  0.7812  0.2215  0.1273
  770MOL0     C 1539   2.569   0.608   2.514 -0.8067  0.3430 -0.9518
  770MOL0     C 1540   2.468   0.564   2.601 -0.4403 -0.0841  0.3144
  770MOL0     C 1541   2.353   0.637   2.627  1.2884 -0.1367  0.0471
  770MOL0     C 1542   2.340   0.767   2.582  0.4546 -0.1983  0.0919
  770MOL0     O 1543   2.236   0.844   2.627 -0.0850  0.7717  0.6130
  770MOL0     C 1544   2.204   0.957   2.537 -0.6285  0.7975 -0.1147
  770MOL0     C 1545   2.062   0.963   2.496 -0.0861 -0.0871 -0.4411
  770MOL0     C 1546   1.964   0.977   2.609  0.2268  0.6439 -0.7580
  770MOL0     C 1547   1.816   0.962   2.565  0.3596 -0.5284 -0.1497
  770MOL0     C 1548   1.711   0.956   2.684 -0.1726 -0.1507  0.3174
  770MOL0     C 1549   1.579   0.912   2.624  0.2216 -0.8656 -0.8564
  770MOL0     C 1550   1.476   0.899   2.733  0.3967 -0.5331  0.6308
  770MOL0     C 1551   1.338   0.909   2.682  0.8731 -0.3962 -0.1222
  770MOL0    Cl 1552   1.216   0.926   2.812  0.2359 -0.6947 -0.2086
  770MOL0     C 1553   2.450   0.815   2.494  0.5235 -0.2656  0.1430
  770MOL0     C 1554   2.562   0.732   2.460  0.8413 -0.9833 -0.7399
  770MOL0     O 1555   2.614   0.324   2.540 -0.1515 -0.5418 -0.8395
  770MOL0     C 1556   2.931   0.425   2.396  0.0916  0.1022 -0.0679
  770MOL0     C 1557   3.052   0.380   2.356  0.0020  0.9204 -0.2743
  770MOL0     N 1558   3.707   0.511   2.156  0.4218  0.7337  0.4517
  770MOL0     N 1559   3.833   0.511   2.188 -0.5768  0.3394 -0.0100
  770MOL0     C 1560   5.069   0.366   1.999 -0.1844 -0.2138 -0.6677
  770MOL0     C 1561   5.198   0.375   2.057  1.2471  0.3703  0.5444
  770MOL0     C 1562   5.563   0.309   2.252  0.5029  0.1221 -0.2893
  770MOL0     C 1563   5.596   0.271   2.383 -0.2640  0.6097 -0.1339
  770MOL0     C 1564   5.724   0.294   2.433 -0.0574 -0.1126 -0.0706
  770MOL0     C 1565   5.828   0.349   2.354  0.5040  0.1845  0.2185
  770MOL0     O 1566   5.957   0.365   2.407 -0.2606 -0.6148 -0.3135
  770MOL0     C 1567   6.050   0.451   2.340  0.2458 -0.2549 -0.0001
  770MOL0     C 1568   6.183   0.432   2.416  0.3740  0.0985 -1.3493
  770MOL0     C 1569   6.316   0.447   2.332  0.4461  0.1964 -0.2625
  770MOL0     C 1570   6.439   0.414   2.423  0.9508 -0.2502 -0.1754
  770MOL0     C 1571   6.489   0.518   2.519 -0.3074  0.1887  0.7613
  770MOL0     C 1572   6.525   0.591   2.609  0.1373  1.0102  0.0068
  770MOL0     C 1573   5.784   0.399   2.224 -0.1892 -0.1887 -0.4401
  770MOL0     C 1574   5.656   0.365   2.171  0.4941  0.0276  0.0498
  770MOL0     H 1575   5.355   0.129   1.893  1.3591  0.9156 -0.2526
  770MOL0     H 1576   5.111   0.095   1.805 -1.1696  0.6237  0.5577
  770MOL0     H 1577   4.779   0.361   1.731 -2.1723 -1.7613  0.0725
  770MOL0     H 1578   4.854   0.461   1.852  2.0749 -1.2142 -0.8301
  770MOL0     H 1579   4.739   0.279   2.026 -0.6688  0.8324  0.6919
  770MOL0     H 1580   4.670   0.227   1.864  2.5950 -0.7179 -1.0390
  770MOL0     H 1581   4.546   0.438   1.861  2.6867  2.1214  0.3702
  770MOL0     H 1582   4.646   0.496   2.000 -0.8358  0.5468  0.9256
  770MOL0     H 1583   4.507   0.244   2.045  1.6704  0.1079  0.7465
  770MOL0     H 1584   4.540   0.373   2.160  2.1762 -2.7334 -0.7676
  770MOL0     H 1585   4.308   0.381   1.940  0.2233 -1.3701 -0.2929
  770MOL0     H 1586   4.351   0.507   2.057  0.7227 -1.1520 -0.4831
  770MOL0     H 1587   4.302   0.380   2.230  1.7055  0.5529 -0.9351
  770MOL0     H 1588   4.266   0.232   2.142 -2.1188 -0.2991 -2.4904
  770MOL0     H 1589   4.133   0.505   2.125 -0.3277 -0.8574  0.5697
  770MOL0     H 1590   4.098   0.384   2.002 -1.3392 -0.1183 -0.4841
  770MOL0     H 1591   4.039   0.357   2.296  1.6830 -1.5091 -0.1606
  770MOL0     H 1592   4.014   0.222   2.176 -1.6426 -0.3193  0.9322
  770MOL0     H 1593   3.781   0.202   2.109  2.2477 -0.5120  1.4634
  770MOL0     H 1594   3.555   0.278   1.973 -0.5554 -0.7029 -1.3780
  770MOL0     H 1595   3.489   0.436   2.035 -0.5102 -0.5382  2.1493
  770MOL0     H 1596   3.491   0.167   2.183 -1.7451 -0.8435  0.6941
  770MOL0     H 1597   3.347   0.241   2.111 -0.6779 -0.6834  3.4190
  770MOL0     H 1598   3.503   0.377   2.329  0.4421  3.5361 -0.6406
  770MOL0     H 1599   3.355   0.433   2.241  0.8725 -0.2445 -1.4380
  770MOL0     H 1600   3.300   0.336   2.460 -0.5373  0.1381  0.3200
  770MOL0     H 1601   3.395   0.191   2.406  2.1377  1.8166  0.4431
  770MOL0     H 1602   3.010   0.059   2.439  0.6384  0.4731 -0.1361
  770MOL0     H 1603   2.809   0.134   2.508  2.8616 -2.8301 -0.4626
  770MOL0     H 1604   2.482   0.468   2.651  1.3267 -0.0230  0.0121
  770MOL0     H 1605   2.272   0.607   2.692  0.0072  3.8015  0.5106
  770MOL0     H 1606   2.261   0.941   2.445  0.4457 -2.5890  0.9889
  770MOL0     H 1607   2.240   1.048   2.585  1.3529  1.1303 -2.0695
  770MOL0     H 1608   2.035   0.871   2.444  1.4165 -0.0769 -1.2913
  770MOL0     H 1609   2.052   1.047   2.426  2.5048  1.0362  0.4196
  770MOL0     H 1610   1.972   1.070   2.666 -1.1760 -1.0462  2.4429
  770MOL0     H 1611   1.985   0.903   2.685  0.3401  0.6361 -0.7972
  770MOL0     H 1612   1.791   1.046   2.500  1.2227  2.6905  3.2669
  770MOL0     H 1613   1.800   0.867   2.513  2.4266 -1.8268  1.4337
  770MOL0     H 1614   1.699   1.054   2.730  2.1161  0.4272 -0.2326
  770MOL0     H 1615   1.749   0.892   2.764  0.5390 -1.7401 -1.2012
  770MOL0     H 1616   1.591   0.814   2.577  1.0611 -0.7845 -0.8182
  770MOL0     H 1617   1.546   0.987   2.552  1.4782  1.2837  0.6867
  770MOL0     H 1618   1.495   0.815   2.800 -0.6020 -1.3058 -0.0171
  770MOL0     H 1619   1.491   0.987   2.795 -0.4490  1.0029 -1.2421
  770MOL0     H 1620   1.311   0.819   2.627 -3.6318  1.3247 -1.2254
  770MOL0     H 1621   1.332   0.999   2.620  1.5519 -0.5090 -0.3467
  770MOL0     H 1622   2.456   0.917   2.458  2.1812 -0.8826 -1.4402
  770MOL0     H 1623   2.639   0.766   2.390  3.7995 -4.9769  0.2227
  770MOL0     H 1624   2.916   0.532   2.385 -0.0162  0.4363  2.6163
  770MOL0     H 1625   3.130   0.444   2.315 -0.7230  2.6194  0.8863
  770MOL0     H 1626   5.005   0.449   2.025 -1.4023 -0.4934 -2.5063
  770MOL0     H 1627   5.226   0.447   2.133  2.8596 -0.3661  0.6806
  770MOL0     H 1628   5.519   0.216   2.436  0.2877  2.4356  2.7714
  770MOL0     H 1629   5.739   0.254   2.532 -1.3360 -0.1645  0.1251
  770MOL0     H 1630   6.018   0.556   2.350  3.6657  0.7330  3.1702
  770MOL0     H 1631   6.060   0.437   2.233  0.7770  2.6271 -0.4188
  770MOL0     H 1632   6.198   0.506   2.496 -1.3433 -3.2103  2.3879
  770MOL0     H 1633   6.174   0.330   2.456 -2.3129  0.8057  0.1034
  770MOL0     H 1634   6.324   0.539   2.275 -1.0970 -0.2597 -1.2752
  770MOL0     H 1635   6.324   0.372   2.253 -1.9687 -0.7334  0.2675
  770MOL0     H 1636   6.414   0.325   2.483 -0.9273  0.4487  0.1611
  770MOL0     H 1637   6.527   0.403   2.360  0.8253  0.0459 -0.4075
  770MOL0     H 1638   6.573   0.672   2.660  2.7179  0.3391 -1.2321
  770MOL0     H 1639   5.861   0.450   2.167  1.5173  0.7703  2.5153
  770MOL0     H 1640   5.634   0.407   2.074  1.0819 -0.0558 -0.1224
  771MOL0     O 1641  10.992   7.174   0.047 -0.1128 -1.0552  0.1184
  771MOL0     C 1642  11.040   7.072   0.094  0.2804  0.8650 -0.1051
  771MOL0     O 1643  10.975   6.951   0.092 -0.2490 -0.7309  0.2369
  771MOL0     C 1644  10.853   6.938   0.033  0.2860 -0.4416  0.1682
  771MOL0     C 1645  10.836   6.853  -0.082 -0.3257  0.1743  0.6486
  771MOL0     C 1646  10.711   6.830  -0.128  0.3218 -0.1833  0.1387
  771MOL0     C 1647  10.597   6.896  -0.071  0.4086 -0.3593  0.3981
  771MOL0     O 1648  10.474   6.861  -0.129 -0.2079 -0.3768  0.2183
  771MOL0     C 1649  10.349   6.881  -0.061 -0.5476  0.7274  0.1385
  771MOL0     C 1650  10.223   6.865  -0.155  0.3323 -0.8376  0.7398
  771MOL0     C 1651  10.226   6.956  -0.282 -0.0275  0.6148 -0.5430
  771MOL0     C 1652  10.221   7.102  -0.254 -0.1636 -0.8447 -0.0360
  771MOL0     C 1653  10.093   7.155  -0.175 -0.0595  0.7181 -0.0640
  771MOL0     C 1654  10.094   7.306  -0.146 -0.5538 -0.3261 -0.9257
  771MOL0     C 1655  10.132   7.402  -0.265  0.9152 -0.6512 -0.4323
  771MOL0     C 1656  10.017   7.410  -0.368 -0.8465 -0.6275  0.0897
  771MOL0     N 1657   9.882   7.477  -0.329 -0.2237 -0.5574 -0.2305
  771MOL0     C 1658   9.835   7.601  -0.371  0.2943 -0.5998  0.5488
  771MOL0     C 1659   9.705   7.615  -0.338  0.6492  0.1478  0.2958
  771MOL0     C 1660   9.632   7.747  -0.367 -0.6795 -0.5520  0.1364
  771MOL0     C 1661   9.625   7.843  -0.246  0.4627  0.9064  0.2938
  771MOL0     C 1662   9.550   7.787  -0.127 -0.3839  0.0605  0.1301
  771MOL0     C 1663   9.558   7.894  -0.025 -0.3680  0.1850 -0.0685
  771MOL0     O 1664   9.494   7.836   0.095 -0.1971 -0.8372 -0.0898
  771MOL0     C 1665   9.363   7.853   0.131  0.4840 -0.0742 -0.4285
  771MOL0     C 1666   9.258   7.912   0.060 -0.4989 -1.6595  0.2126
  771MOL0     C 1667   9.125   7.919   0.092  0.3190  0.3817 -0.1729
  771MOL0     C 1668   9.079   7.849   0.212 -0.1842  0.2573 -0.1226
  771MOL0     C 1669   8.933   7.828   0.246 -0.4139 -0.6785  0.5906
  771MOL0     O 1670   8.905   7.790   0.373  0.2087  0.3588 -0.0037
  771MOL0     C 1671   8.775   7.784   0.413  0.0245  0.7426 -0.5501
  771MOL0     C 1672   8.697   7.897   0.413 -0.2959 -0.3851  0.6725
  771MOL0     C 1673   8.563   7.896   0.445 -0.2847  0.0194  0.0089
  771MOL0     C 1674   8.509   7.780   0.497  0.7707 -1.2094 -0.2168
  771MOL0     O 1675   8.375   7.779   0.533 -0.0383  0.9096 -0.5643
  771MOL0     C 1676   8.354   7.801   0.670  0.2035 -0.0386  0.1156
  771MOL0     C 1677   8.220   7.868   0.697 -0.2546  0.6464 -0.6107
  771MOL0     C 1678   8.230   8.020   0.684 -0.1495  0.0287  0.8836
  771MOL0     C 1679   8.097   8.097   0.688 -0.0832 -0.1699  0.8358
  771MOL0     C 1680   8.028   8.108   0.549 -0.8089 -0.3572  0.0256
  771MOL0     C 1681   7.880   8.143   0.542  0.3121 -0.3123 -0.1307
  771MOL0     C 1682   7.846   8.182   0.400 -0.0377 -0.3035  0.1843
  771MOL0     C 1683   7.695   8.204   0.373  0.6648  0.5192 -0.5618
  771MOL0    Cl 1684   7.636   8.357   0.449 -0.2333 -0.2147  0.2359
  771MOL0     C 1685   8.586   7.668   0.502  0.8210  0.5658 -0.3216
  771MOL0     C 1686   8.717   7.660   0.460 -0.1621  0.1659  0.6905
  771MOL0     O 1687   8.850   7.857   0.158  0.0955 -0.6155  0.6857
  771MOL0     C 1688   9.188   7.805   0.298 -0.1569  0.4324 -0.2810
  771MOL0     C 1689   9.325   7.806   0.257 -0.4597 -0.6557 -0.0041
  771MOL0     N 1690   9.667   7.493  -0.270 -1.3166 -0.1648 -0.8979
  771MOL0     N 1691   9.778   7.423  -0.261  0.6280  0.0359  0.4924
  771MOL0     C 1692  10.613   6.984   0.035 -0.1308  0.7241  0.1872
  771MOL0     C 1693  10.739   6.994   0.091 -0.3177 -0.5269 -0.1055
  771MOL0     C 1694  11.176   7.069   0.147 -0.2656 -0.8838 -0.1373
  771MOL0     C 1695  11.248   6.953   0.191  0.5312 -0.5368 -0.1555
  771MOL0     C 1696  11.375   6.963   0.244 -0.3880 -0.0456  0.1723
  771MOL0     C 1697  11.436   7.089   0.268 -0.3437 -0.0078  0.1817
  771MOL0     O 1698  11.540   7.123   0.344  0.3239 -0.4523  1.1935
  771MOL0     C 1699  11.605   7.017   0.412  0.7255 -0.1402 -0.6452
  771MOL0     C 1700  11.689   7.063   0.527  0.8259 -0.7349 -1.0422
  771MOL0     C 1701  11.612   7.164   0.615 -0.8467 -0.0448  0.1312
  771MOL0     C 1702  11.714   7.260   0.686 -0.1805 -0.0519 -0.3952
  771MOL0     C 1703  11.819   7.189   0.766  0.4517  0.4168  0.4100
  771MOL0     C 1704  11.909   7.144   0.834 -0.2005  0.0841 -0.6825
  771MOL0     C 1705  11.372   7.200   0.219  1.6331  0.4512  0.0523
  771MOL0     C 1706  11.248   7.189   0.157  0.3502  0.8198 -0.3461
  771MOL0     H 1707  10.916   6.803  -0.136  1.0720  1.9815  0.9407
  771MOL0     H 1708  10.688   6.767  -0.214 -1.0025 -2.9292  2.3691
  771MOL0     H 1709  10.358   6.977  -0.010  0.9772  0.0597  1.2165
  771MOL0     H 1710  10.339   6.809   0.021 -0.5225  0.4857 -0.0675
  771MOL0     H 1711  10.136   6.887  -0.092 -0.3050 -3.6467  0.9997
  771MOL0     H 1712  10.218   6.759  -0.182  3.9233 -1.1636  0.8897
  771MOL0     H 1713  10.136   6.929  -0.339  0.4633 -0.4472 -0.8258
  771MOL0     H 1714  10.309   6.930  -0.348 -0.4303  0.7837 -1.1268
  771MOL0     H 1715  10.305   7.130  -0.191 -0.1764 -0.0581 -0.3577
  771MOL0     H 1716  10.243   7.169  -0.338  0.5518  0.6238  1.2695
  771MOL0     H 1717  10.081   7.101  -0.081  1.1871 -1.3987 -1.0486
  771MOL0     H 1718  10.007   7.132  -0.237 -1.4652  2.1974  1.2385
  771MOL0     H 1719  10.147   7.324  -0.052  1.6156 -1.9237 -1.7688
  771MOL0     H 1720   9.990   7.322  -0.114 -0.0347 -1.0351  1.2760
  771MOL0     H 1721  10.157   7.493  -0.209  2.3206 -0.9620 -0.5059
  771MOL0     H 1722  10.225   7.383  -0.319  1.1035  1.7428 -1.0751
  771MOL0     H 1723   9.987   7.308  -0.390 -0.6621 -0.8049  0.6536
  771MOL0     H 1724  10.067   7.456  -0.454  0.9262 -0.9883  0.8854
  771MOL0     H 1725   9.893   7.680  -0.419 -0.0986 -1.2770 -1.1149
  771MOL0     H 1726   9.528   7.720  -0.389 -2.1932  1.9741  3.2961
  771MOL0     H 1727   9.682   7.801  -0.448  1.2744  0.6080  2.0220
  771MOL0     H 1728   9.569   7.933  -0.273 -0.6938 -0.3162 -1.6280
  771MOL0     H 1729   9.728   7.874  -0.225  0.0716  0.5426  3.1356
  771MOL0     H 1730   9.446   7.769  -0.156 -0.3290 -0.6656  0.3580
  771MOL0     H 1731   9.598   7.693  -0.098  1.5157  1.4913  1.8801
  771MOL0     H 1732   9.515   7.988  -0.059  1.0704 -0.0905 -2.9286
  771MOL0     H 1733   9.661   7.917   0.005 -0.4911 -1.1060  1.4952
  771MOL0     H 1734   9.294   7.954  -0.033 -1.3340  0.5102  0.8063
  771MOL0     H 1735   9.054   7.981   0.038 -0.5197  0.1127  0.5884
  771MOL0     H 1736   8.743   7.987   0.374  0.0325  1.3740  4.6214
  771MOL0     H 1737   8.504   7.984   0.423 -0.6322  0.3235  1.9723
  771MOL0     H 1738   8.430   7.867   0.712 -1.2954  2.2994 -0.6602
  771MOL0     H 1739   8.354   7.709   0.729  0.2121  0.1811  0.4593
  771MOL0     H 1740   8.182   7.829   0.792 -2.2206 -2.5777 -2.5349
  771MOL0     H 1741   8.142   7.827   0.632 -3.5769  0.4265  3.1351
  771MOL0     H 1742   8.283   8.034   0.590  0.4357 -2.2499  0.8059
  771MOL0     H 1743   8.306   8.059   0.752 -0.2276  0.7939  0.5365
  771MOL0     H 1744   8.031   8.058   0.766 -4.4971  0.6410 -2.0850
  771MOL0     H 1745   8.118   8.201   0.714  0.5896 -0.1373  0.1962
  771MOL0     H 1746   8.035   8.009   0.502 -2.6238 -1.1750  1.3596
  771MOL0     H 1747   8.084   8.185   0.496  1.6911  0.1194  3.0499
  771MOL0     H 1748   7.861   8.225   0.612  1.9231 -0.5060  0.5823
  771MOL0     H 1749   7.829   8.051   0.570 -0.9313  0.1590 -0.7530
  771MOL0     H 1750   7.904   8.273   0.378  0.0575 -0.1633  0.9779
  771MOL0     H 1751   7.889   8.101   0.342  1.5547 -0.2045  1.1604
  771MOL0     H 1752   7.648   8.118   0.420 -0.2599  0.3821 -1.7005
  771MOL0     H 1753   7.680   8.204   0.265 -2.8460 -0.1591 -0.1852
  771MOL0     H 1754   8.532   7.579   0.533  0.3021  0.6359 -0.9833
  771MOL0     H 1755   8.776   7.569   0.456  0.9360  0.7831  1.8490
  771MOL0     H 1756   9.162   7.760   0.393 -0.3766  0.4729 -0.3209
  771MOL0     H 1757   9.409   7.769   0.314 -0.7918  3.5837  3.8665
  771MOL0     H 1758  10.537   7.047   0.081 -0.3789  0.3696  0.2756
  771MOL0     H 1759  10.750   7.070   0.167  0.5434 -0.1982 -0.5423
  771MOL0     H 1760  11.195   6.858   0.190 -1.5858  0.5652 -1.0066
  771MOL0     H 1761  11.437   6.882   0.282 -1.2191 -1.0426 -0.5326
  771MOL0     H 1762  11.676   6.960   0.352  1.3544 -0.9520  0.8139
  771MOL0     H 1763  11.533   6.945   0.452 -1.3287  2.1032 -0.0680
  771MOL0     H 1764  11.729   6.979   0.585 -2.2269 -1.0119  0.9325
  771MOL0     H 1765  11.776   7.117   0.491  1.3617 -0.9901 -0.1496
  771MOL0     H 1766  11.551   7.111   0.689  0.8257  1.1828  2.5474
  771MOL0     H 1767  11.549   7.232   0.557  0.4816 -0.4180 -1.8318
  771MOL0     H 1768  11.765   7.324   0.614 -1.4437 -0.5858 -1.8164
  771MOL0     H 1769  11.661   7.322   0.759  1.4973  1.5063 -0.4301
  771MOL0     H 1770  11.983   7.099   0.898 -0.9118  1.4033  1.1810
  771MOL0     H 1771  11.416   7.297   0.239  1.4341  0.1346  2.2037
  771MOL0     H 1772  11.185   7.268   0.118 -4.7442 -2.8134 -0.3923
  772MOL0     O 1773   5.899   0.468   3.292  0.4294 -0.5127  0.2999
  772MOL0     C 1774   5.939   0.527   3.394  0.3948  0.3485  0.8448
  772MOL0     O 1775   5.871   0.617   3.462 -0.2402 -0.5576  0.1470
  772MOL0     C 1776   5.735   0.639   3.434 -0.6940 -0.4685  0.0087
  772MOL0     C 1777   5.645   0.633   3.542 -0.1740  0.1918 -0.2654
  772MOL0     C 1778   5.510   0.641   3.524 -0.2232 -0.2763 -0.8562
  772MOL0     C 1779   5.450   0.651   3.401 -0.0863  0.4591  0.1313
  772MOL0     O 1780   5.320   0.662   3.374 -0.4108  0.2246 -0.1263
  772MOL0     C 1781   5.232   0.675   3.476  0.4529  0.0714  0.1005
  772MOL0     C 1782   5.091   0.663   3.413 -0.0601 -0.8801 -1.0199
  772MOL0     C 1783   4.976   0.699   3.517  0.0573 -1.0113 -0.1830
  772MOL0     C 1784   4.831   0.651   3.469 -0.2151 -0.7465 -0.2640
  772MOL0     C 1785   4.715   0.691   3.560  0.3430  0.3610  0.1804
  772MOL0     C 1786   4.643   0.825   3.509 -0.0467  0.0185 -0.2813
  772MOL0     C 1787   4.520   0.852   3.593  0.5012  0.2306  1.4919
  772MOL0     C 1788   4.453   0.981   3.541 -0.1469 -0.7350  0.2779
  772MOL0     N 1789   4.355   1.031   3.647  0.3875 -0.4286  1.1770
  772MOL0     C 1790   4.226   1.044   3.614 -0.7561  0.5451  0.8160
  772MOL0     C 1791   4.171   1.100   3.725  0.7162 -0.3488  0.3330
  772MOL0     C 1792   4.028   1.137   3.744  0.5658 -0.7962 -0.2632
  772MOL0     C 1793   4.034   1.291   3.774  0.0990  0.2299 -0.3891
  772MOL0     C 1794   3.901   1.357   3.806  0.4792 -0.3813  0.4951
  772MOL0     C 1795   3.822   1.311   3.930 -0.1503 -0.7521  0.3280
  772MOL0     O 1796   3.709   1.398   3.942  0.1211 -0.6905  0.1381
  772MOL0     C 1797   3.591   1.333   3.940 -0.1300 -0.0314 -0.8351
  772MOL0     C 1798   3.524   1.331   3.818  0.7370  0.1599  0.1333
  772MOL0     C 1799   3.389   1.284   3.819 -0.5790  0.7316  0.5749
  772MOL0     C 1800   3.323   1.241   3.933 -0.3774 -0.1219 -0.9005
  772MOL0     C 1801   3.179   1.188   3.930 -0.4497 -0.0446 -0.2812
  772MOL0     O 1802   3.112   1.195   4.052 -0.4316 -0.3687 -0.5897
  772MOL0     C 1803   2.996   1.137   4.085 -0.2367 -0.1594 -1.0755
  772MOL0     C 1804   2.882   1.219   4.106  0.4958  1.0655 -0.6986
  772MOL0     C 1805   2.775   1.156   4.164 -0.2824  0.1766 -0.2180
  772MOL0     C 1806   2.762   1.016   4.174  0.3969 -0.4905 -0.1602
  772MOL0     O 1807   2.644   0.969   4.219 -0.2484  0.0225 -0.4847
  772MOL0     C 1808   2.620   0.828   4.199 -0.3064 -0.4369  0.2252
  772MOL0     C 1809   2.478   0.803   4.250  0.1275 -0.5387  0.2703
  772MOL0     C 1810   2.420   0.682   4.192  0.3710  0.5398  0.2542
  772MOL0     C 1811   2.267   0.682   4.205 -0.4388  0.5671 -0.0879
  772MOL0     C 1812   2.221   0.539   4.182  0.2460  0.2092  0.1418
  772MOL0     C 1813   2.069   0.524   4.206  0.1732 -0.1753  0.0554
  772MOL0     C 1814   1.985   0.589   4.096 -0.3617 -0.2999  0.4016
  772MOL0     C 1815   1.832   0.565   4.119  0.6385  0.4063 -0.0967
  772MOL0    Cl 1816   1.786   0.636   4.280 -0.4464 -0.3361  0.0644
  772MOL0     C 1817   2.867   0.935   4.137 -0.3303 -0.0957 -0.7398
  772MOL0     C 1818   2.984   0.994   4.087  0.0592 -0.3044  0.2423
  772MOL0     O 1819   3.135   1.132   3.829 -0.0718  0.3816 -0.9115
  772MOL0     C 1820   3.390   1.242   4.056  0.4931 -0.0394 -0.3451
  772MOL0     C 1821   3.522   1.287   4.059  0.5775  0.0216 -0.2628
  772MOL0     N 1822   4.269   1.127   3.814  0.2837 -0.5469 -0.5906
  772MOL0     N 1823   4.381   1.084   3.771 -0.0550 -0.3694  0.4384
  772MOL0     C 1824   5.537   0.660   3.292 -0.1172  0.3253  0.2413
  772MOL0     C 1825   5.674   0.654   3.311 -0.0472  0.6495  0.3691
  772MOL0     C 1826   6.081   0.500   3.422  0.4703  0.3208 -0.1949
  772MOL0     C 1827   6.132   0.550   3.543 -1.0982 -0.2192  0.1935
  772MOL0     C 1828   6.259   0.504   3.596 -0.2324 -0.0234  0.3677
  772MOL0     C 1829   6.343   0.421   3.512 -0.0197  0.6726  0.3296
  772MOL0     O 1830   6.469   0.374   3.538  0.2569 -0.4085 -0.5363
  772MOL0     C 1831   6.549   0.440   3.638 -0.4241  0.1523  0.4019
  772MOL0     C 1832   6.585   0.584   3.607  0.6775 -0.4585  0.3536
  772MOL0     C 1833   6.702   0.634   3.691 -0.1630  0.3807  0.2616
  772MOL0     C 1834   6.684   0.786   3.709 -0.6701  0.5612  0.5291
  772MOL0     C 1835   6.790   0.824   3.799 -0.7025  0.7476  0.1169
  772MOL0     C 1836   6.874   0.874   3.877  0.1626 -0.0666  0.5698
  772MOL0     C 1837   6.295   0.385   3.387  0.6179  0.5758 -0.6395
  772MOL0     C 1838   6.162   0.416   3.342 -0.2799  0.3472  0.0067
  772MOL0     H 1839   5.690   0.641   3.641 -1.0787 -0.4609  0.2143
  772MOL0     H 1840   5.447   0.647   3.613 -0.0022  0.5245 -0.7485
  772MOL0     H 1841   5.245   0.772   3.525  0.4024  0.2068 -0.1526
  772MOL0     H 1842   5.248   0.596   3.549 -1.7835  0.6678  1.3296
  772MOL0     H 1843   5.082   0.557   3.388  1.1542 -1.4432  0.7904
  772MOL0     H 1844   5.088   0.734   3.329  0.1946 -0.5714 -0.7727
  772MOL0     H 1845   4.977   0.802   3.553 -2.2332 -1.8821  2.7895
  772MOL0     H 1846   4.994   0.637   3.605 -0.7584  0.4228  1.0355
  772MOL0     H 1847   4.821   0.673   3.362  3.0219 -2.0353 -0.9380
  772MOL0     H 1848   4.835   0.542   3.475 -1.8279 -0.7360  2.2803
  772MOL0     H 1849   4.739   0.702   3.666 -2.4475  0.8644  0.8544
  772MOL0     H 1850   4.637   0.615   3.548  0.7980  0.1691 -1.9096
  772MOL0     H 1851   4.626   0.819   3.401  1.2110  1.2981 -0.5813
  772MOL0     H 1852   4.713   0.909   3.513 -1.3672  1.1949 -1.0923
  772MOL0     H 1853   4.458   0.762   3.594  1.4570 -0.5409 -0.7321
  772MOL0     H 1854   4.549   0.875   3.696 -0.9046 -0.8747  2.1676
  772MOL0     H 1855   4.396   0.968   3.449 -0.6320 -1.3015  0.6521
  772MOL0     H 1856   4.526   1.062   3.535 -2.2222  1.2122 -0.6083
  772MOL0     H 1857   4.179   0.995   3.529 -0.7781 -0.7119  1.5231
  772MOL0     H 1858   3.991   1.077   3.828  1.2240  0.6197  1.0882
  772MOL0     H 1859   3.960   1.123   3.660  2.3669  2.4154 -2.4418
  772MOL0     H 1860   4.069   1.345   3.685 -0.7201  0.5475 -0.5259
  772MOL0     H 1861   4.105   1.311   3.855  0.1343  0.2493 -0.4248
  772MOL0     H 1862   3.914   1.463   3.830 -2.3216 -0.6239  3.7886
  772MOL0     H 1863   3.826   1.345   3.727  1.2860  0.3274 -0.4085
  772MOL0     H 1864   3.883   1.305   4.021 -3.3804 -1.9652  2.6279
  772MOL0     H 1865   3.803   1.205   3.912  1.6744 -1.5908  2.7406
  772MOL0     H 1866   3.563   1.365   3.722 -0.0537 -2.4275 -1.2057
  772MOL0     H 1867   3.336   1.281   3.724 -2.6216 -1.8292  1.6705
  772MOL0     H 1868   2.879   1.327   4.103  0.3723  1.0483 -1.5738
  772MOL0     H 1869   2.699   1.225   4.199  1.6698  2.9684 -1.0513
  772MOL0     H 1870   2.692   0.770   4.257 -1.0261 -2.9825 -1.2692
  772MOL0     H 1871   2.624   0.798   4.094  1.1262 -3.2360  0.9888
  772MOL0     H 1872   2.419   0.891   4.222  0.0480 -0.1223  1.6745
  772MOL0     H 1873   2.476   0.796   4.359 -1.9057 -0.9138  0.2365
  772MOL0     H 1874   2.466   0.598   4.245 -1.8712  0.3969  2.1801
  772MOL0     H 1875   2.437   0.685   4.084  1.4299 -0.0704  0.3966
  772MOL0     H 1876   2.233   0.699   4.307  1.1370  2.3085  0.2070
  772MOL0     H 1877   2.217   0.754   4.140 -1.9226 -0.2066  0.1536
  772MOL0     H 1878   2.275   0.469   4.247  1.8255  0.5518 -0.7549
  772MOL0     H 1879   2.248   0.497   4.085 -0.5785 -1.9033  0.7521
  772MOL0     H 1880   2.051   0.560   4.308  0.9715 -0.4117  0.2878
  772MOL0     H 1881   2.045   0.417   4.207  0.1343 -0.1637  0.3444
  772MOL0     H 1882   1.994   0.698   4.107 -0.9779 -0.1993 -0.0246
  772MOL0     H 1883   2.023   0.552   4.000  1.7192  4.4161 -0.8895
  772MOL0     H 1884   1.815   0.458   4.106  1.4248  0.4003 -1.3334
  772MOL0     H 1885   1.775   0.628   4.050  0.8908  2.7132  1.6532
  772MOL0     H 1886   2.853   0.828   4.149 -0.0738 -0.0024  0.4855
  772MOL0     H 1887   3.066   0.931   4.054 -0.9825 -1.6219  0.0737
  772MOL0     H 1888   3.337   1.211   4.145  2.4436 -1.0031  0.5532
  772MOL0     H 1889   3.569   1.301   4.157  0.2730  0.2445 -0.1462
  772MOL0     H 1890   5.493   0.672   3.193  1.9674  1.7936 -0.6024
  772MOL0     H 1891   5.731   0.661   3.220 -0.4764  0.4243  0.0773
  772MOL0     H 1892   6.075   0.617   3.606  0.4014 -0.3900  1.8353
  772MOL0     H 1893   6.291   0.539   3.693  0.7533 -1.5223  0.6327
  772MOL0     H 1894   6.647   0.391   3.639 -0.3183  0.3298  2.0591
  772MOL0     H 1895   6.506   0.430   3.738  0.2915  0.3656  0.7367
  772MOL0     H 1896   6.613   0.604   3.504 -1.6926 -1.3165 -0.5403
  772MOL0     H 1897   6.497   0.646   3.628  0.2758 -0.9991  0.2917
  772MOL0     H 1898   6.796   0.602   3.644 -0.2082  0.2313  0.2729
  772MOL0     H 1899   6.700   0.582   3.788  0.2007 -0.5468 -0.2146
  772MOL0     H 1900   6.684   0.837   3.612 -0.5690 -0.4001  0.0160
  772MOL0     H 1901   6.591   0.811   3.760  0.1661  3.1563  0.9538
  772MOL0     H 1902   6.950   0.918   3.938  0.2218 -0.2336  0.6181
  772MOL0     H 1903   6.359   0.314   3.334  1.9417  1.8667 -0.8168
  772MOL0     H 1904   6.123   0.384   3.246  0.9451  3.4187 -1.6586
  773MOL0     O 1905   0.484   6.706   1.464 -0.3124  0.1189  0.6030
  773MOL0     C 1906   0.425   6.770   1.549  0.0033 -1.2732 -0.4376
  773MOL0     O 1907   0.298   6.839   1.535 -0.7411  0.1476 -0.2211
  773MOL0     C 1908   0.214   6.803   1.432 -0.2247 -0.1453 -0.7344
  773MOL0     C 1909   0.195   6.896   1.328 -0.5161  0.7929 -0.8892
  773MOL0     C 1910   0.105   6.857   1.223  0.1680 -0.1031 -0.7472
  773MOL0     C 1911   0.023   6.743   1.238 -0.3735  0.7502  0.2935
  773MOL0     O 1912  -0.066   6.706   1.134 -0.1543 -0.3782 -0.1076
  773MOL0     C 1913  -0.199   6.676   1.166  0.9346 -0.0644 -0.4547
  773MOL0     C 1914  -0.268   6.642   1.031 -0.5665  0.1984  0.1772
  773MOL0     C 1915  -0.402   6.567   1.056 -0.3573  0.9545  0.2044
  773MOL0     C 1916  -0.457   6.514   0.919 -0.6274 -0.3550  0.1631
  773MOL0     C 1917  -0.595   6.449   0.930  0.1812  0.3618  0.3631
  773MOL0     C 1918  -0.580   6.306   0.984  0.5429 -0.0063 -0.3329
  773MOL0     C 1919  -0.715   6.243   1.018 -1.0078  0.0337  0.6311
  773MOL0     C 1920  -0.767   6.282   1.160  0.0934 -1.3685  0.9503
  773MOL0     N 1921  -0.904   6.234   1.188  0.2261  0.5855 -0.0773
  773MOL0     C 1922  -0.946   6.126   1.260 -0.1794  0.3265  0.0056
  773MOL0     C 1923  -1.074   6.155   1.281 -0.8295 -0.6917  0.0043
  773MOL0     C 1924  -1.168   6.061   1.358 -0.5157 -0.0068 -0.2216
  773MOL0     C 1925  -1.253   5.978   1.267 -0.3500  0.5215  0.2402
  773MOL0     C 1926  -1.373   6.040   1.199  0.5216 -0.2050  1.5258
  773MOL0     C 1927  -1.474   6.127   1.272  0.5010 -0.2404 -0.7416
  773MOL0     O 1928  -1.549   6.062   1.385 -0.6017  0.2154 -0.1333
  773MOL0     C 1929  -1.661   5.986   1.353  0.1005  0.5776  0.6393
  773MOL0     C 1930  -1.729   5.997   1.233 -0.0763  0.3841 -0.2152
  773MOL0     C 1931  -1.828   5.900   1.205  0.1429  0.5965  0.9565
  773MOL0     C 1932  -1.857   5.792   1.287 -0.8310  1.2880 -0.6024
  773MOL0     C 1933  -1.959   5.699   1.252 -0.2350  1.4820  0.0030
  773MOL0     O 1934  -1.947   5.583   1.314  0.4545 -0.6077 -0.0922
  773MOL0     C 1935  -2.030   5.475   1.282 -0.5916  0.0099 -0.5939
  773MOL0     C 1936  -2.073   5.396   1.384  0.6031  0.3671 -0.3517
  773MOL0     C 1937  -2.161   5.285   1.355 -0.7824 -1.1176 -0.5054
  773MOL0     C 1938  -2.208   5.255   1.231  0.5616  0.1827 -0.3230
  773MOL0     O 1939  -2.285   5.139   1.214  0.4644  0.0641 -0.0670
  773MOL0     C 1940  -2.326   5.094   1.085  0.6504  0.2736 -0.8709
  773MOL0     C 1941  -2.439   4.995   1.081 -0.4367  0.0530 -0.5250
  773MOL0     C 1942  -2.548   5.013   1.196 -0.2169 -0.1316 -0.5314
  773MOL0     C 1943  -2.671   4.945   1.157  0.3113 -0.0806  0.6538
  773MOL0     C 1944  -2.763   4.900   1.270  1.0063  0.2264  0.1089
  773MOL0     C 1945  -2.906   4.857   1.220 -0.1795  0.2705  0.3479
  773MOL0     C 1946  -2.991   4.960   1.146  0.0656 -0.1136  0.1511
  773MOL0     C 1947  -3.138   4.934   1.173 -0.0073 -0.7828  0.1066
  773MOL0    Cl 1948  -3.161   5.002   1.334 -0.0127 -0.3622 -0.0795
  773MOL0     C 1949  -2.162   5.341   1.131 -0.5873  0.1624  0.0569
  773MOL0     C 1950  -2.079   5.451   1.151 -0.3553  0.3743 -0.0678
  773MOL0     O 1951  -2.033   5.720   1.154  0.3044 -0.3958  0.2842
  773MOL0     C 1952  -1.787   5.782   1.409  0.3845 -0.6157  0.8824
  773MOL0     C 1953  -1.693   5.879   1.441  0.4568 -0.1512 -0.1117
  773MOL0     N 1954  -1.109   6.274   1.218  0.1183 -0.2723 -0.0738
  773MOL0     N 1955  -1.007   6.321   1.159 -0.3152 -0.0210 -0.0624
  773MOL0     C 1956   0.042   6.659   1.353 -0.2852 -0.2383  0.0858
  773MOL0     C 1957   0.142   6.687   1.449  0.4547 -0.1702  0.2105
  773MOL0     C 1958   0.486   6.765   1.685  0.2702 -0.4028 -0.4957
  773MOL0     C 1959   0.627   6.730   1.692  0.4367  0.4291  0.0613
  773MOL0     C 1960   0.682   6.703   1.819 -0.3033  0.1886 -0.4791
  773MOL0     C 1961   0.606   6.718   1.943 -1.0415 -1.6190 -0.9710
  773MOL0     O 1962   0.648   6.697   2.076 -0.1358  0.3095 -0.3173
  773MOL0     C 1963   0.789   6.664   2.110 -0.7676 -0.3018 -0.0341
  773MOL0     C 1964   0.803   6.513   2.116 -0.5558  0.0771  0.6545
  773MOL0     C 1965   0.763   6.426   2.235  0.6150 -0.3947 -0.4090
  773MOL0     C 1966   0.801   6.284   2.226  0.3255  0.2501  0.4431
  773MOL0     C 1967   0.758   6.223   2.351 -0.0169  0.2809 -0.5541
  773MOL0     C 1968   0.727   6.169   2.455  0.6223  0.4253  0.2594
  773MOL0     C 1969   0.483   6.774   1.927 -0.1656  1.1552 -0.5066
  773MOL0     C 1970   0.419   6.789   1.800 -0.4962 -0.5220  0.4793
  773MOL0     H 1971   0.240   6.994   1.316 -0.0167  0.4570 -1.8838
  773MOL0     H 1972   0.071   6.922   1.143 -0.8685  0.1398 -0.1378
  773MOL0     H 1973  -0.251   6.750   1.228  2.3278 -0.1224  0.8309
  773MOL0     H 1974  -0.200   6.594   1.238 -3.7811 -0.0095 -0.1624
  773MOL0     H 1975  -0.199   6.580   0.973  0.9610  3.9662 -2.4107
  773MOL0     H 1976  -0.299   6.728   0.971 -0.7560 -0.4918 -0.7323
  773MOL0     H 1977  -0.476   6.634   1.101  2.2411  3.5100  0.9952
  773MOL0     H 1978  -0.380   6.484   1.124  2.2775  1.7847  0.4603
  773MOL0     H 1979  -0.468   6.603   0.856  2.2434 -0.2315 -0.3082
  773MOL0     H 1980  -0.387   6.445   0.870 -1.6970 -0.9439 -0.5597
  773MOL0     H 1981  -0.642   6.445   0.831  1.3667 -2.0211 -0.1728
  773MOL0     H 1982  -0.651   6.508   1.004  0.3619  0.2756  0.5693
  773MOL0     H 1983  -0.519   6.320   1.074  3.3600 -1.5206 -1.8744
  773MOL0     H 1984  -0.520   6.244   0.918  0.7249 -0.5009  0.2855
  773MOL0     H 1985  -0.783   6.265   0.935  1.4944  0.6784 -1.3948
  773MOL0     H 1986  -0.701   6.135   1.013  3.6984  0.4918 -1.3329
  773MOL0     H 1987  -0.773   6.391   1.163 -3.0135 -1.2171 -3.0729
  773MOL0     H 1988  -0.700   6.249   1.240  0.2635 -3.0830  0.1494
  773MOL0     H 1989  -0.906   6.027   1.281 -0.6957  0.3185  1.0116
  773MOL0     H 1990  -1.223   6.123   1.430 -0.4576  1.2760 -1.2605
  773MOL0     H 1991  -1.097   6.002   1.417 -1.3058  0.2009  0.9803
  773MOL0     H 1992  -1.283   5.885   1.315  0.6052  0.2917  0.4189
  773MOL0     H 1993  -1.201   5.928   1.185 -1.2532  0.8601 -0.5616
  773MOL0     H 1994  -1.332   6.100   1.117  0.0757 -3.4516 -1.2771
  773MOL0     H 1995  -1.431   5.965   1.145  0.6233  0.6666  0.1639
  773MOL0     H 1996  -1.534   6.163   1.188  0.2299  1.8839  0.3121
  773MOL0     H 1997  -1.425   6.215   1.314 -2.1603  1.1054 -0.2686
  773MOL0     H 1998  -1.713   6.082   1.168  0.5003  0.3262 -0.1563
  773MOL0     H 1999  -1.862   5.908   1.103  2.2213  1.7576  0.2896
  773MOL0     H 2000  -2.045   5.415   1.487 -3.0398  0.9435  0.7065
  773MOL0     H 2001  -2.185   5.223   1.441 -2.9935 -1.2947 -1.1819
  773MOL0     H 2002  -2.242   5.041   1.039  2.0192  1.8239 -0.2258
  773MOL0     H 2003  -2.349   5.183   1.025  0.2442  1.1730  0.5885
  773MOL0     H 2004  -2.394   4.895   1.079  1.5059  0.8218  1.2256
  773MOL0     H 2005  -2.485   5.002   0.982  0.3322  1.0480 -0.8378
  773MOL0     H 2006  -2.566   5.119   1.217  1.8788 -0.5546  4.7161
  773MOL0     H 2007  -2.519   4.957   1.285 -0.3514 -1.7032 -1.4444
  773MOL0     H 2008  -2.723   5.002   1.080 -0.1335 -1.7547 -0.3335
  773MOL0     H 2009  -2.644   4.854   1.103  2.6872  0.7044  0.3975
  773MOL0     H 2010  -2.768   4.975   1.350  0.7181 -0.7942  1.0805
  773MOL0     H 2011  -2.712   4.821   1.327  0.9323  0.5770  0.6715
  773MOL0     H 2012  -2.958   4.806   1.302  2.2332 -0.2001  1.6814
  773MOL0     H 2013  -2.879   4.775   1.153 -0.3625  0.6086 -0.1429
  773MOL0     H 2014  -2.961   5.060   1.181  0.8566 -0.0175 -0.7698
  773MOL0     H 2015  -2.971   4.946   1.040 -1.4380 -0.8370 -0.0574
  773MOL0     H 2016  -3.171   4.830   1.181 -0.1294 -0.6971  0.7319
  773MOL0     H 2017  -3.197   4.986   1.097 -1.6702  0.7670  2.3628
  773MOL0     H 2018  -2.188   5.317   1.028  1.9379 -1.4798 -0.2660
  773MOL0     H 2019  -2.036   5.506   1.067  2.3872 -0.4779  0.6745
  773MOL0     H 2020  -1.793   5.694   1.472  0.5309 -1.2967 -0.0310
  773MOL0     H 2021  -1.623   5.864   1.523  0.3123 -1.4556 -0.2038
  773MOL0     H 2022  -0.024   6.577   1.378 -1.5962  0.4673 -0.9285
  773MOL0     H 2023   0.157   6.624   1.536 -0.7031 -0.7302  0.0204
  773MOL0     H 2024   0.700   6.714   1.613  3.1330  1.5289  2.1771
  773MOL0     H 2025   0.788   6.679   1.826 -0.2255  0.8833  1.4244
  773MOL0     H 2026   0.824   6.714   2.201  0.8536  0.1613 -0.8688
  773MOL0     H 2027   0.849   6.702   2.026 -3.0176 -2.2449 -2.7237
  773MOL0     H 2028   0.748   6.482   2.027 -2.8475 -0.5887  2.2135
  773MOL0     H 2029   0.908   6.482   2.112 -0.7707 -0.5532 -1.0939
  773MOL0     H 2030   0.655   6.439   2.248  0.8052  0.4326  0.4579
  773MOL0     H 2031   0.798   6.461   2.332 -1.3346  1.8116 -0.3955
  773MOL0     H 2032   0.748   6.235   2.144  1.1905  1.1857 -0.7161
  773MOL0     H 2033   0.910   6.296   2.218  0.6638  1.5897  4.6221
  773MOL0     H 2034   0.677   6.129   2.541  0.4845 -2.3172 -0.9898
  773MOL0     H 2035   0.433   6.792   2.021 -1.5189 -0.1372 -0.9339
  773MOL0     H 2036   0.326   6.844   1.799  1.1188  2.4371 -1.5362
  774MOL0     O 2037   3.454   0.539   5.824  0.4843  0.0149 -0.1339
  774MOL0     C 2038   3.509   0.637   5.881 -0.0551  0.4780  0.0501
  774MOL0     O 2039   3.439   0.733   5.949  0.6055 -0.1138  0.5011
  774MOL0     C 2040   3.304   0.722   5.952  0.2834 -0.9787 -0.1412
  774MOL0     C 2041   3.222   0.773   5.847  0.2891 -0.3631  0.0358
  774MOL0     C 2042   3.085   0.763   5.860 -0.4199 -0.3618 -0.5234
  774MOL0     C 2043   3.024   0.699   5.974 -0.3417 -0.1930 -0.3771
  774MOL0     O 2044   2.883   0.690   5.972  0.7394  0.1408  0.1820
  774MOL0     C 2045   2.801   0.650   6.085 -0.5190 -0.8766  0.3523
  774MOL0     C 2046   2.669   0.617   6.014  0.8135  0.1561  0.0077
  774MOL0     C 2047   2.544   0.600   6.102  0.5749 -0.2415 -0.0296
  774MOL0     C 2048   2.426   0.567   6.008  0.1162  0.7751 -0.5208
  774MOL0     C 2049   2.292   0.566   6.089  0.4405 -0.1852 -0.2348
  774MOL0     C 2050   2.293   0.461   6.207 -0.0146  0.5836  0.3403
  774MOL0     C 2051   2.177   0.486   6.301 -0.1578  0.4153 -0.6168
  774MOL0     C 2052   2.205   0.427   6.446  0.3625  0.1596 -0.4038
  774MOL0     N 2053   2.081   0.403   6.525 -0.5419 -0.0937  0.7169
  774MOL0     C 2054   2.036   0.490   6.616  0.8452 -0.1509  0.3793
  774MOL0     C 2055   1.914   0.450   6.658  0.2585  1.1313  0.3203
  774MOL0     C 2056   1.813   0.517   6.752  0.0136 -0.2866  0.3250
  774MOL0     C 2057   1.666   0.524   6.692 -0.7221  0.4839 -0.5270
  774MOL0     C 2058   1.581   0.583   6.806  0.1276  0.0254  0.5702
  774MOL0     C 2059   1.441   0.605   6.770 -1.2608  0.4419  0.6282
  774MOL0     O 2060   1.434   0.669   6.643 -0.5746  0.3698 -0.4332
  774MOL0     C 2061   1.314   0.717   6.598  0.7588  0.4569 -0.6976
  774MOL0     C 2062   1.195   0.674   6.651  1.0799  0.1702 -1.0183
  774MOL0     C 2063   1.072   0.701   6.581  0.1386 -0.1128  0.5736
  774MOL0     C 2064   1.076   0.782   6.465 -0.2563 -0.4117  0.6890
  774MOL0     C 2065   0.955   0.813   6.398  0.8435 -0.1785  0.5280
  774MOL0     O 2066   0.841   0.800   6.475 -0.1660  0.8732  0.5323
  774MOL0     C 2067   0.726   0.789   6.401  0.0520 -0.3533  0.2873
  774MOL0     C 2068   0.658   0.671   6.379 -0.3327 -0.0881 -0.0775
  774MOL0     C 2069   0.542   0.666   6.303 -0.7843  1.1020 -0.7769
  774MOL0     C 2070   0.497   0.771   6.228  0.0330 -0.3021 -0.1164
  774MOL0     O 2071   0.389   0.782   6.152 -0.2448  0.0880  0.2400
  774MOL0     C 2072   0.285   0.697   6.179  1.1189  0.1514  1.1242
  774MOL0     C 2073   0.187   0.709   6.066  0.2631  0.0404  0.3239
  774MOL0     C 2074   0.067   0.627   6.091  0.5687  0.2106  0.1718
  774MOL0     C 2075  -0.041   0.646   5.984  0.0380  1.0050  0.5406
  774MOL0     C 2076   0.003   0.582   5.846  0.3003 -0.1582 -0.0175
  774MOL0     C 2077  -0.118   0.570   5.748 -0.0017 -0.7035  0.0728
  774MOL0     C 2078  -0.083   0.504   5.618 -0.5074 -0.2156  0.0276
  774MOL0     C 2079  -0.175   0.528   5.494 -0.0514 -0.7984  0.1430
  774MOL0    Cl 2080  -0.356   0.505   5.533 -0.4270  0.3486 -0.1212
  774MOL0     C 2081   0.550   0.893   6.264 -0.3345 -0.7578 -0.0831
  774MOL0     C 2082   0.663   0.905   6.348 -0.1875 -0.1738  0.0246
  774MOL0     O 2083   0.958   0.814   6.275  0.0080 -0.9152 -0.4945
  774MOL0     C 2084   1.199   0.834   6.425  0.4766  0.4174  0.1584
  774MOL0     C 2085   1.319   0.795   6.483 -0.8474 -0.7089 -0.2037
  774MOL0     N 2086   1.889   0.328   6.600 -0.1658 -0.3288  0.2698
  774MOL0     N 2087   1.987   0.304   6.514 -0.8600  0.2217  0.4040
  774MOL0     C 2088   3.104   0.644   6.080 -0.6616 -0.5099  0.0594
  774MOL0     C 2089   3.247   0.662   6.065  0.2125 -0.4167  0.0271
  774MOL0     C 2090   3.657   0.638   5.882  0.9083  0.1314 -0.0425
  774MOL0     C 2091   3.724   0.721   5.976 -0.1886  0.0409 -0.5151
  774MOL0     C 2092   3.863   0.717   5.987  0.8715 -0.2967 -0.0831
  774MOL0     C 2093   3.945   0.643   5.893 -0.0893 -0.2065 -0.7051
  774MOL0     O 2094   4.083   0.634   5.894  0.0140  0.3750  0.2512
  774MOL0     C 2095   4.149   0.748   5.948  0.5042 -0.0887  0.0456
  774MOL0     C 2096   4.295   0.770   5.907 -0.9691  0.2824  0.0633
  774MOL0     C 2097   4.308   0.862   5.783 -0.4615  0.3991  0.1691
  774MOL0     C 2098   4.453   0.879   5.748  0.0448 -0.3084  1.2755
  774MOL0     C 2099   4.520   0.977   5.827 -0.0013  0.3973  0.4390
  774MOL0     C 2100   4.571   1.068   5.892  0.3305 -0.7483  0.3472
  774MOL0     C 2101   3.869   0.576   5.796 -0.9949  0.2962 -0.7436
  774MOL0     C 2102   3.730   0.562   5.794 -0.1080 -0.8966 -0.7688
  774MOL0     H 2103   3.275   0.807   5.758  1.7002  0.4785  1.1447
  774MOL0     H 2104   3.021   0.795   5.779 -0.9451 -0.3981 -0.1299
  774MOL0     H 2105   2.788   0.732   6.156  0.2651  0.7712 -1.3501
  774MOL0     H 2106   2.836   0.563   6.143  0.3924 -0.4074  0.5258
  774MOL0     H 2107   2.681   0.527   5.952  0.8016  0.9379 -1.1657
  774MOL0     H 2108   2.646   0.694   5.940 -2.7015 -1.6990 -1.0554
  774MOL0     H 2109   2.522   0.694   6.154  0.1607 -0.0343 -0.5703
  774MOL0     H 2110   2.564   0.520   6.174  1.0962  1.9021  2.3405
  774MOL0     H 2111   2.425   0.645   5.931 -3.3865  0.7676 -0.6852
  774MOL0     H 2112   2.442   0.474   5.953  1.3399 -0.2518  1.4875
  774MOL0     H 2113   2.208   0.562   6.019  0.7228  1.8907 -0.7399
  774MOL0     H 2114   2.287   0.668   6.129  0.2614 -0.4569  0.4634
  774MOL0     H 2115   2.385   0.455   6.267  0.9051  1.3434 -0.9347
  774MOL0     H 2116   2.290   0.359   6.166 -1.8130 -0.1536  2.1763
  774MOL0     H 2117   2.159   0.593   6.310  0.5369  0.4959 -0.1092
  774MOL0     H 2118   2.088   0.428   6.278  0.0113  0.0961 -0.4706
  774MOL0     H 2119   2.272   0.495   6.500 -0.4581  0.7935 -0.1576
  774MOL0     H 2120   2.254   0.330   6.437  4.1200  1.8422 -0.1108
  774MOL0     H 2121   2.065   0.586   6.657  1.0258 -0.4846  1.0410
  774MOL0     H 2122   1.840   0.619   6.782 -3.0075  0.2147  1.6812
  774MOL0     H 2123   1.798   0.460   6.844 -0.3416 -0.9153 -0.1144
  774MOL0     H 2124   1.627   0.424   6.672 -0.3206  0.1968  0.0795
  774MOL0     H 2125   1.661   0.587   6.603 -2.0465  0.7851 -0.2639
  774MOL0     H 2126   1.578   0.528   6.900 -3.2659  0.6555  0.9359
  774MOL0     H 2127   1.622   0.682   6.826 -2.2194  1.8105 -2.4626
  774MOL0     H 2128   1.390   0.670   6.841  0.4732  1.8496  0.6600
  774MOL0     H 2129   1.393   0.507   6.770  1.2754 -0.8893  1.4281
  774MOL0     H 2130   1.188   0.603   6.733  1.7280 -0.8577 -1.8164
  774MOL0     H 2131   0.976   0.667   6.616 -0.5625  1.2555  0.0798
  774MOL0     H 2132   0.707   0.587   6.426  1.0153  1.3203  1.1303
  774MOL0     H 2133   0.501   0.566   6.294 -0.8197  1.2514 -2.7496
  774MOL0     H 2134   0.243   0.730   6.274  0.0042  0.2460  0.6139
  774MOL0     H 2135   0.320   0.594   6.192  2.0447  0.5747  2.1622
  774MOL0     H 2136   0.242   0.677   5.977  3.6589  0.0545  2.2303
  774MOL0     H 2137   0.156   0.814   6.061  0.4642  0.0907  0.1369
  774MOL0     H 2138   0.022   0.651   6.188 -1.0884  1.5396 -0.8486
  774MOL0     H 2139   0.097   0.522   6.098  0.1542  0.2025  2.9361
  774MOL0     H 2140  -0.131   0.594   6.018  0.4675  0.1215  0.3557
  774MOL0     H 2141  -0.067   0.750   5.964  2.2615  1.2259 -1.5728
  774MOL0     H 2142   0.041   0.481   5.864 -1.8484 -1.5645 -2.6790
  774MOL0     H 2143   0.072   0.656   5.804 -1.8283  2.9029  1.5341
  774MOL0     H 2144  -0.153   0.672   5.732  0.6106  0.0075  2.8598
  774MOL0     H 2145  -0.197   0.510   5.793 -0.8293  0.9302  0.8815
  774MOL0     H 2146   0.017   0.536   5.586 -2.3025  4.2841 -1.8689
  774MOL0     H 2147  -0.086   0.395   5.632  1.4602 -0.4325 -0.8097
  774MOL0     H 2148  -0.143   0.462   5.413  3.4567 -0.0519  0.7668
  774MOL0     H 2149  -0.155   0.629   5.457 -1.7868 -0.5787 -0.2645
  774MOL0     H 2150   0.490   0.976   6.228 -2.5031 -0.7922  3.0059
  774MOL0     H 2151   0.712   1.000   6.363  0.2762  0.0851 -2.6617
  774MOL0     H 2152   1.216   0.893   6.335  3.6283  1.5789  1.3583
  774MOL0     H 2153   1.412   0.831   6.440 -1.4677 -1.4344 -2.2927
  774MOL0     H 2154   3.075   0.591   6.170 -1.7857  0.8076  0.5171
  774MOL0     H 2155   3.303   0.621   6.148 -0.3671 -0.5772  0.3376
  774MOL0     H 2156   3.670   0.774   6.054  0.6561  3.4038 -2.0524
  774MOL0     H 2157   3.916   0.784   6.055  1.9499 -0.1740 -1.0197
  774MOL0     H 2158   4.162   0.737   6.056  2.9462 -1.6120 -0.3158
  774MOL0     H 2159   4.087   0.835   5.924  3.6575  1.8246 -1.9254
  774MOL0     H 2160   4.349   0.821   5.987 -1.5294  1.7079 -0.4321
  774MOL0     H 2161   4.327   0.668   5.887  1.6116  0.5519  2.1754
  774MOL0     H 2162   4.270   0.963   5.795  0.4264  0.5834  1.7309
  774MOL0     H 2163   4.255   0.814   5.701 -1.2590  2.4843 -0.5874
  774MOL0     H 2164   4.508   0.785   5.756  3.3853  1.4241  0.1271
  774MOL0     H 2165   4.468   0.909   5.644  1.7786 -1.3337  1.1989
  774MOL0     H 2166   4.634   1.136   5.945  2.1934  0.0270 -2.6210
  774MOL0     H 2167   3.918   0.516   5.720 -1.2394 -1.3675  0.3731
  774MOL0     H 2168   3.671   0.512   5.718 -1.2058 -2.9714  1.3554
  775MOL0     O 2169   2.647   3.247   7.100 -0.0826 -0.2254 -0.4887
  775MOL0     C 2170   2.675   3.243   6.979 -0.0561 -0.0728 -0.1272
  775MOL0     O 2171   2.587   3.202   6.879 -0.2289 -0.0933 -0.1655
  775MOL0     C 2172   2.455   3.157   6.911 -0.3255 -0.0016 -0.2467
  775MOL0     C 2173   2.432   3.062   7.015 -0.2362 -0.1219 -0.1106
  775MOL0     C 2174   2.303   3.023   7.045  0.0091 -0.1084  0.5500
  775MOL0     C 2175   2.194   3.075   6.971  0.1954  0.0030  0.4087
  775MOL0     O 2176   2.063   3.043   7.000 -0.4522  0.2870 -0.1809
  775MOL0     C 2177   2.035   3.033   7.140 -0.1487  0.1742 -0.3019
  775MOL0     C 2178   1.883   2.994   7.146  0.5863  0.2400 -0.5669
  775MOL0     C 2179   1.817   3.050   7.274 -0.5908 -0.5856  0.2266
  775MOL0     C 2180   1.679   2.987   7.291 -0.4344  0.1672  0.1902
  775MOL0     C 2181   1.608   3.050   7.408 -0.0782 -1.0851  0.4423
  775MOL0     C 2182   1.490   2.969   7.464  0.0404 -0.2243 -0.4173
  775MOL0     C 2183   1.433   3.047   7.586 -0.3793  1.2023 -0.3241
  775MOL0     C 2184   1.307   2.978   7.638 -0.2090 -0.0502 -0.0347
  775MOL0     N 2185   1.221   2.927   7.540 -0.0195  0.1499 -1.2257
  775MOL0     C 2186   1.137   3.006   7.463  0.1365  0.2472 -0.4595
  775MOL0     C 2187   1.062   2.920   7.396 -0.6891  0.5576 -0.2285
  775MOL0     C 2188   0.967   2.956   7.286 -0.3805 -0.1719 -0.4374
  775MOL0     C 2189   0.849   2.861   7.269 -0.3314  0.0687  0.3216
  775MOL0     C 2190   0.772   2.882   7.139 -0.4755 -0.1149  1.0731
  775MOL0     C 2191   0.642   2.796   7.138 -1.3233  0.2676  0.1920
  775MOL0     O 2192   0.580   2.780   7.005  0.5496  0.2833 -0.1686
  775MOL0     C 2193   0.469   2.695   7.006  0.6598  0.1677  0.3064
  775MOL0     C 2194   0.414   2.619   7.110 -0.8716 -0.0171  0.4972
  775MOL0     C 2195   0.300   2.551   7.091 -0.3401 -0.2296 -0.3637
  775MOL0     C 2196   0.229   2.555   6.970 -0.8270  0.1137 -0.5833
  775MOL0     C 2197   0.100   2.486   6.955 -0.4760 -0.3472  0.5919
  775MOL0     O 2198   0.029   2.503   6.839  0.4304 -0.6533 -0.3228
  775MOL0     C 2199  -0.088   2.440   6.821  0.0673 -0.0356  0.3866
  775MOL0     C 2200  -0.178   2.404   6.911  0.2831  0.3079 -0.3764
  775MOL0     C 2201  -0.304   2.354   6.876 -0.5643 -0.0533 -0.1903
  775MOL0     C 2202  -0.337   2.341   6.738  0.6011 -0.6735 -0.1111
  775MOL0     O 2203  -0.472   2.299   6.701  0.0659 -0.1579  0.0869
  775MOL0     C 2204  -0.463   2.198   6.599  0.2387  0.3153  0.5439
  775MOL0     C 2205  -0.601   2.152   6.574  0.2100  0.4406 -0.1176
  775MOL0     C 2206  -0.668   2.251   6.472  0.0412 -1.1144  0.1424
  775MOL0     C 2207  -0.798   2.198   6.410 -0.5296 -0.4866 -0.4167
  775MOL0     C 2208  -0.911   2.183   6.513  0.0947 -0.0613  0.2793
  775MOL0     C 2209  -1.042   2.134   6.457  0.0618  0.2949 -0.3517
  775MOL0     C 2210  -1.165   2.150   6.548  0.1855  0.0267 -0.5742
  775MOL0     C 2211  -1.292   2.132   6.464 -0.3435  0.3424 -0.0250
  775MOL0    Cl 2212  -1.436   2.193   6.561  0.3244 -0.1663  0.0398
  775MOL0     C 2213  -0.235   2.364   6.648 -0.0980 -0.2629  0.0731
  775MOL0     C 2214  -0.117   2.418   6.686 -0.2203 -0.4230  0.0447
  775MOL0     O 2215   0.085   2.398   7.041  0.0977 -0.0329  0.5313
  775MOL0     C 2216   0.283   2.628   6.866 -0.0392 -0.1602 -0.2905
  775MOL0     C 2217   0.406   2.687   6.878 -0.1971  0.3461 -0.2070
  775MOL0     N 2218   1.106   2.789   7.428 -0.4084  0.0879  0.0799
  775MOL0     N 2219   1.194   2.795   7.513 -0.5322  0.4875  0.1480
  775MOL0     C 2220   2.214   3.172   6.871 -0.0108 -1.0285 -0.4728
  775MOL0     C 2221   2.344   3.213   6.840 -0.2288 -0.5570 -0.1440
  775MOL0     C 2222   2.807   3.279   6.934  0.1934  0.4160 -0.0594
  775MOL0     C 2223   2.838   3.317   6.799  0.0387 -0.0301  0.1610
  775MOL0     C 2224   2.971   3.354   6.763  0.4444 -0.5571  0.0275
  775MOL0     C 2225   3.072   3.351   6.848 -0.0840  0.6990  0.0049
  775MOL0     O 2226   3.197   3.391   6.811 -0.0480  0.1329  0.6143
  775MOL0     C 2227   3.281   3.445   6.913 -0.7721  0.1518  0.1568
  775MOL0     C 2228   3.385   3.525   6.841  0.5957 -0.7156  0.6581
  775MOL0     C 2229   3.495   3.434   6.773 -0.7198 -0.7521 -0.9794
  775MOL0     C 2230   3.633   3.508   6.767 -0.2257 -0.3807 -0.4886
  775MOL0     C 2231   3.724   3.449   6.662  0.5377  1.0074 -0.0963
  775MOL0     C 2232   3.802   3.382   6.597  0.1761 -0.5281  0.4898
  775MOL0     C 2233   3.044   3.310   6.984  0.0732 -0.5540 -0.4252
  775MOL0     C 2234   2.909   3.276   7.022 -0.9024  0.0152  0.1288
  775MOL0     H 2235   2.510   3.030   7.084 -1.2484 -1.0007  0.6667
  775MOL0     H 2236   2.284   2.954   7.126 -0.3605 -2.5170 -1.4644
  775MOL0     H 2237   2.049   3.129   7.192  0.2834 -0.3806  0.6329
  775MOL0     H 2238   2.087   2.954   7.195  0.5063  0.3140 -0.6997
  775MOL0     H 2239   1.870   2.885   7.145  0.1487  0.1154  3.3550
  775MOL0     H 2240   1.824   3.026   7.059  1.3542  1.7688 -0.5425
  775MOL0     H 2241   1.803   3.157   7.259  3.1961 -0.1212 -1.0219
  775MOL0     H 2242   1.881   3.042   7.362  0.2337  2.8521  0.0891
  775MOL0     H 2243   1.622   2.996   7.198  1.5137 -1.5917 -1.2727
  775MOL0     H 2244   1.710   2.884   7.313  0.8931  0.6044  0.4534
  775MOL0     H 2245   1.558   3.144   7.381  2.1732  0.5268  1.5590
  775MOL0     H 2246   1.673   3.075   7.492  1.2070 -5.0963  0.8567
  775MOL0     H 2247   1.526   2.874   7.506  2.4353  1.5817  1.9453
  775MOL0     H 2248   1.421   2.949   7.381 -1.1487  2.0406 -0.0551
  775MOL0     H 2249   1.512   3.052   7.660  0.2935 -1.0399 -0.8265
  775MOL0     H 2250   1.416   3.152   7.557  0.6789  1.5101  0.1434
  775MOL0     H 2251   1.252   3.050   7.699  1.3453  0.3510  0.9515
  775MOL0     H 2252   1.341   2.900   7.706 -0.1822  0.1648  0.1992
  775MOL0     H 2253   1.149   3.112   7.443  1.1659  0.1454 -0.4469
  775MOL0     H 2254   1.037   2.951   7.202 -0.7205 -1.3448 -0.6696
  775MOL0     H 2255   0.930   3.059   7.298  1.6120  0.5130  0.1448
  775MOL0     H 2256   0.778   2.873   7.351 -0.9479 -0.1966 -0.1661
  775MOL0     H 2257   0.889   2.759   7.271  0.6245  0.4085  3.0769
  775MOL0     H 2258   0.747   2.986   7.118 -0.4284 -0.4223 -0.7272
  775MOL0     H 2259   0.844   2.840   7.067 -0.9519 -1.0877  1.1488
  775MOL0     H 2260   0.571   2.843   7.207 -0.5097  0.5826  0.8266
  775MOL0     H 2261   0.672   2.698   7.176  0.9777  1.5047  1.8287
  775MOL0     H 2262   0.457   2.620   7.210 -1.9755  2.4490  0.9942
  775MOL0     H 2263   0.265   2.491   7.175  1.4873  1.6836  1.8721
  775MOL0     H 2264  -0.155   2.426   7.015 -1.2249  1.0594 -0.1663
  775MOL0     H 2265  -0.387   2.340   6.945  1.1252  0.0553  1.9613
  775MOL0     H 2266  -0.395   2.116   6.627 -0.8715 -0.6080  0.6361
  775MOL0     H 2267  -0.408   2.244   6.517  0.6427  0.5896  0.9640
  775MOL0     H 2268  -0.660   2.135   6.665 -0.7944  1.5278 -0.5290
  775MOL0     H 2269  -0.584   2.060   6.518 -2.2652  0.5244 -1.1545
  775MOL0     H 2270  -0.591   2.275   6.398 -1.7174 -0.0202 -1.4298
  775MOL0     H 2271  -0.690   2.345   6.522  0.3369 -1.6157  1.2437
  775MOL0     H 2272  -0.831   2.273   6.338 -3.7485 -0.8008  0.5874
  775MOL0     H 2273  -0.779   2.102   6.360 -2.6007 -0.7220 -0.8472
  775MOL0     H 2274  -0.918   2.289   6.537  1.4981  0.7815 -2.6710
  775MOL0     H 2275  -0.885   2.124   6.602 -1.3441 -1.7932 -0.3874
  775MOL0     H 2276  -1.031   2.030   6.426 -2.4239 -0.2771  0.5057
  775MOL0     H 2277  -1.066   2.202   6.374  1.1350 -1.4593 -2.2106
  775MOL0     H 2278  -1.160   2.072   6.624  1.6466 -2.4443 -2.9911
  775MOL0     H 2279  -1.170   2.250   6.592 -2.6619  0.1152 -0.8907
  775MOL0     H 2280  -1.312   2.025   6.456  0.9230  0.1533 -1.0459
  775MOL0     H 2281  -1.278   2.181   6.367  0.9954 -0.8207 -0.4556
  775MOL0     H 2282  -0.250   2.355   6.541 -1.1203  0.1872  0.1646
  775MOL0     H 2283  -0.047   2.430   6.603  2.9860 -0.8900  2.4674
  775MOL0     H 2284   0.232   2.634   6.770 -3.6454 -2.6632  1.2168
  775MOL0     H 2285   0.453   2.732   6.791 -0.6299  0.2498 -0.4973
  775MOL0     H 2286   2.130   3.219   6.821 -0.8919 -2.0206  0.0407
  775MOL0     H 2287   2.357   3.295   6.770  1.6363  0.2248  1.0473
  775MOL0     H 2288   2.765   3.308   6.719  1.1885 -2.2247 -0.7152
  775MOL0     H 2289   2.987   3.387   6.660 -0.4686 -0.8150 -0.2113
  775MOL0     H 2290   3.331   3.363   6.966  1.5814 -0.3578 -2.6033
  775MOL0     H 2291   3.223   3.513   6.976  0.2203  0.8886  0.2905
  775MOL0     H 2292   3.329   3.589   6.772 -0.6149  1.2329  3.3024
  775MOL0     H 2293   3.433   3.585   6.918 -0.4379 -1.5747  2.0183
  775MOL0     H 2294   3.459   3.401   6.675 -4.3404  1.9415 -0.7860
  775MOL0     H 2295   3.515   3.355   6.845  0.1571  0.0377 -0.3368
  775MOL0     H 2296   3.610   3.611   6.738  0.6935 -0.2164 -0.6575
  775MOL0     H 2297   3.679   3.508   6.866 -2.4349 -0.7952  0.6132
  775MOL0     H 2298   3.871   3.321   6.543  0.6682 -1.5184  2.1767
  775MOL0     H 2299   3.124   3.306   7.058  1.1177  0.3891 -1.4766
  775MOL0     H 2300   2.893   3.240   7.123  0.5321 -1.0671  0.0138
  776MOL0     O 2301   9.805   2.275   0.720 -0.5916 -0.1398 -0.5147
  776MOL0     C 2302   9.855   2.163   0.732 -0.1055  0.7329  0.8867
  776MOL0     O 2303   9.799   2.039   0.701 -0.2094 -0.4957  0.3467
  776MOL0     C 2304   9.675   2.025   0.641  1.0211  0.0206 -0.6542
  776MOL0     C 2305   9.668   1.929   0.538  0.1294  0.4714  0.0054
  776MOL0     C 2306   9.554   1.919   0.457  0.4128  1.3516  0.0865
  776MOL0     C 2307   9.437   1.976   0.490 -0.2728 -1.2324 -0.2709
  776MOL0     O 2308   9.334   1.951   0.395 -0.6013 -0.1975 -0.1365
  776MOL0     C 2309   9.216   2.022   0.415 -0.2227  1.2700 -0.4383
  776MOL0     C 2310   9.140   1.987   0.294  0.9181  0.8291  0.2249
  776MOL0     C 2311   8.997   2.046   0.290 -0.4939 -1.0359  0.3260
  776MOL0     C 2312   8.999   2.196   0.323 -0.1428 -1.2272 -0.3948
  776MOL0     C 2313   8.861   2.259   0.313 -0.5016  0.3711 -0.9018
  776MOL0     C 2314   8.773   2.207   0.201 -0.0680 -0.5490 -0.2721
  776MOL0     C 2315   8.643   2.290   0.187  0.2089  0.1131 -0.3736
  776MOL0     C 2316   8.567   2.226   0.073  0.6347 -0.7084  0.4122
  776MOL0     N 2317   8.425   2.266   0.071  0.2691 -0.3558  0.5329
  776MOL0     C 2318   8.318   2.189   0.061  0.4159  0.4654  0.2892
  776MOL0     C 2319   8.212   2.277   0.073 -0.2846  0.7569 -0.3036
  776MOL0     C 2320   8.067   2.232   0.045  0.2544  0.3612 -0.4533
  776MOL0     C 2321   7.970   2.322   0.127 -0.5785  0.2611 -0.6609
  776MOL0     C 2322   7.872   2.392   0.041  0.0080 -0.1383  0.0808
  776MOL0     C 2323   7.765   2.466   0.139  0.4822  0.0942  1.2411
  776MOL0     O 2324   7.665   2.546   0.082 -0.9912 -0.2106  0.3797
  776MOL0     C 2325   7.549   2.487   0.029 -0.4115  0.5534 -0.2255
  776MOL0     C 2326   7.455   2.580  -0.009  0.0045  0.6415  0.7813
  776MOL0     C 2327   7.339   2.536  -0.077  0.3609  0.0425  1.6770
  776MOL0     C 2328   7.309   2.398  -0.096 -0.0462  1.2028 -0.2413
  776MOL0     C 2329   7.182   2.352  -0.162  0.6833  0.3580  0.2819
  776MOL0     O 2330   7.103   2.457  -0.202  0.1519  0.2358 -1.0886
  776MOL0     C 2331   6.974   2.462  -0.248  0.3949  0.4240  0.0944
  776MOL0     C 2332   6.887   2.357  -0.221 -0.3892  0.0526 -1.0713
  776MOL0     C 2333   6.755   2.345  -0.268 -0.3155 -0.3809 -0.2372
  776MOL0     C 2334   6.704   2.446  -0.342  0.9701 -0.1132 -0.3637
  776MOL0     O 2335   6.571   2.450  -0.391  0.5736  0.7049 -0.4437
  776MOL0     C 2336   6.484   2.330  -0.397  0.2363  0.0100  0.6181
  776MOL0     C 2337   6.330   2.368  -0.403 -0.2666  0.0530  0.2077
  776MOL0     C 2338   6.284   2.443  -0.274 -0.2061 -0.1054 -0.7893
  776MOL0     C 2339   6.140   2.506  -0.290 -0.2637 -0.3279  0.7402
  776MOL0     C 2340   6.029   2.402  -0.312 -0.5509  0.5325  0.4506
  776MOL0     C 2341   5.896   2.458  -0.361  0.6171 -0.4375  0.2637
  776MOL0     C 2342   5.773   2.368  -0.350 -0.5983  0.9896  0.5179
  776MOL0     C 2343   5.650   2.445  -0.395  0.2765  0.0102 -0.1766
  776MOL0    Cl 2344   5.655   2.518  -0.556  0.0294  0.0302  0.1287
  776MOL0     C 2345   6.789   2.559  -0.366  0.5544 -0.0964 -0.0328
  776MOL0     C 2346   6.920   2.563  -0.323  0.1677 -0.8658 -0.8306
  776MOL0     O 2347   7.154   2.236  -0.181  0.3686  0.7939  0.0664
  776MOL0     C 2348   7.409   2.300  -0.055 -0.0706 -0.7398 -0.1549
  776MOL0     C 2349   7.529   2.351   0.012  0.5658  1.0999 -0.2002
  776MOL0     N 2350   8.260   2.406   0.092  0.2347 -0.4282  0.1024
  776MOL0     N 2351   8.386   2.388   0.108  1.0479 -0.0384 -0.3221
  776MOL0     C 2352   9.440   2.065   0.600  0.7317 -0.1673 -0.0022
  776MOL0     C 2353   9.557   2.100   0.671 -0.1809 -0.2577  0.5815
  776MOL0     C 2354   9.997   2.161   0.766  0.0759 -0.0592  0.0268
  776MOL0     C 2355  10.061   2.047   0.802 -0.1476 -0.2552 -0.0783
  776MOL0     C 2356  10.183   2.047   0.870  0.4711 -0.1041  0.9192
  776MOL0     C 2357  10.252   2.167   0.880  0.4085 -1.0983  0.0733
  776MOL0     O 2358  10.380   2.168   0.936  1.0765 -1.0003 -0.0063
  776MOL0     C 2359  10.490   2.240   0.873  0.1836 -0.2215 -1.3063
  776MOL0     C 2360  10.523   2.164   0.745 -0.4542  0.3126  0.4140
  776MOL0     C 2361  10.512   2.009   0.738  1.2907  0.2640  0.3941
  776MOL0     C 2362  10.585   1.923   0.842  0.2429 -0.4339  0.2694
  776MOL0     C 2363  10.727   1.946   0.828  0.6637 -0.0508 -0.7480
  776MOL0     C 2364  10.844   1.971   0.834  0.4627 -0.0317  0.9566
  776MOL0     C 2365  10.198   2.283   0.827  0.2814  0.2633  0.1107
  776MOL0     C 2366  10.074   2.277   0.769 -0.7880 -0.0011 -0.3162
  776MOL0     H 2367   9.750   1.865   0.505 -1.1655 -1.3349  0.1617
  776MOL0     H 2368   9.546   1.859   0.367 -0.0067 -0.7487  1.4389
  776MOL0     H 2369   9.230   2.130   0.414 -2.8750  1.7447  2.0689
  776MOL0     H 2370   9.161   1.999   0.507 -0.1395  3.3239  0.1738
  776MOL0     H 2371   9.122   1.879   0.294  0.7207  0.7749  3.1355
  776MOL0     H 2372   9.189   2.014   0.200 -2.7708  2.6603 -1.3603
  776MOL0     H 2373   8.937   1.997   0.366 -0.9231 -1.4055 -0.2438
  776MOL0     H 2374   8.955   2.023   0.192  0.0297 -1.2600  0.1504
  776MOL0     H 2375   9.027   2.204   0.429 -1.5579 -3.0090  0.1672
  776MOL0     H 2376   9.063   2.256   0.257 -1.3916 -0.3179 -0.8014
  776MOL0     H 2377   8.892   2.363   0.295  4.9320 -0.7762  0.0148
  776MOL0     H 2378   8.811   2.252   0.410  1.3966 -3.5428 -0.0187
  776MOL0     H 2379   8.741   2.104   0.214 -1.9910 -0.0540 -0.6907
  776MOL0     H 2380   8.834   2.230   0.113 -0.8303  4.5294  0.2226
  776MOL0     H 2381   8.578   2.274   0.274  1.6536  2.1387  1.1412
  776MOL0     H 2382   8.671   2.394   0.174 -1.7132  0.8253  0.6768
  776MOL0     H 2383   8.564   2.117   0.083  0.3899 -0.8419 -0.9080
  776MOL0     H 2384   8.614   2.238  -0.025  3.0886 -0.2486  1.5753
  776MOL0     H 2385   8.328   2.083   0.043  2.5569  0.8984 -1.5601
  776MOL0     H 2386   8.051   2.128   0.073 -2.9008  0.1101 -2.6021
  776MOL0     H 2387   8.057   2.244  -0.064 -0.2671 -0.0292 -0.4521
  776MOL0     H 2388   8.018   2.392   0.197 -0.5636 -1.0905  0.7235
  776MOL0     H 2389   7.915   2.258   0.197  1.1171  0.5269  0.9951
  776MOL0     H 2390   7.915   2.471  -0.021 -2.0874  1.7042  0.8228
  776MOL0     H 2391   7.827   2.312  -0.019 -2.7290  0.3363  1.3596
  776MOL0     H 2392   7.826   2.514   0.216 -0.2607 -1.0369  2.5797
  776MOL0     H 2393   7.712   2.393   0.201 -0.3260 -0.5359 -0.1530
  776MOL0     H 2394   7.467   2.687  -0.001 -1.3677  0.9224 -0.5185
  776MOL0     H 2395   7.280   2.604  -0.139  1.0681 -1.2275 -0.5059
  776MOL0     H 2396   6.923   2.271  -0.165  1.7020  0.3112 -1.9387
  776MOL0     H 2397   6.708   2.250  -0.248 -0.1770 -0.2372  0.8238
  776MOL0     H 2398   6.504   2.265  -0.312 -2.1323 -0.5141  0.8452
  776MOL0     H 2399   6.499   2.276  -0.491  0.5912 -0.3931  0.8993
  776MOL0     H 2400   6.265   2.280  -0.409 -0.5984  0.1490  1.9153
  776MOL0     H 2401   6.308   2.426  -0.493 -2.7760 -1.0561  0.0258
  776MOL0     H 2402   6.356   2.521  -0.250 -0.3690 -0.0101 -0.6096
  776MOL0     H 2403   6.284   2.379  -0.186  3.6781 -0.8616 -1.1508
  776MOL0     H 2404   6.122   2.577  -0.209  0.4096 -0.3313  0.8975
  776MOL0     H 2405   6.136   2.566  -0.381 -0.0827 -2.8571 -1.0421
  776MOL0     H 2406   6.021   2.362  -0.211  4.2222  2.7334  1.9965
  776MOL0     H 2407   6.053   2.326  -0.388  1.0315  0.9532  0.4816
  776MOL0     H 2408   5.903   2.491  -0.465  2.0993 -2.4280 -0.3270
  776MOL0     H 2409   5.873   2.544  -0.297 -1.8073 -3.9144  4.7303
  776MOL0     H 2410   5.772   2.282  -0.417 -3.3876  0.0517  1.5926
  776MOL0     H 2411   5.754   2.334  -0.248  4.1530  0.5128  1.4490
  776MOL0     H 2412   5.625   2.525  -0.325 -1.4631 -1.1884  0.6420
  776MOL0     H 2413   5.561   2.383  -0.409  0.8820 -0.7277 -0.9251
  776MOL0     H 2414   6.749   2.647  -0.415  1.5506 -0.4827 -1.5908
  776MOL0     H 2415   6.991   2.635  -0.363 -0.0835  0.3453  0.8164
  776MOL0     H 2416   7.401   2.194  -0.078 -0.7151 -0.8423  0.5182
  776MOL0     H 2417   7.604   2.276   0.038  1.1740  1.0342 -1.9928
  776MOL0     H 2418   9.353   2.118   0.639  2.5086  0.9910  2.7137
  776MOL0     H 2419   9.561   2.190   0.732 -2.0928 -0.0344  0.4341
  776MOL0     H 2420   9.998   1.959   0.810  0.1931 -0.5219 -0.3253
  776MOL0     H 2421  10.218   1.955   0.917 -1.4167 -0.0960  2.4275
  776MOL0     H 2422  10.580   2.237   0.935 -0.4383 -0.8052 -0.3945
  776MOL0     H 2423  10.463   2.345   0.858  0.0314 -0.2732 -1.3928
  776MOL0     H 2424  10.474   2.214   0.662 -0.1366  2.9118  1.7062
  776MOL0     H 2425  10.628   2.191   0.736 -0.6449  0.6079 -1.2714
  776MOL0     H 2426  10.552   1.978   0.641 -2.2223  0.5346 -1.2549
  776MOL0     H 2427  10.406   1.986   0.734  0.7585  2.0105  2.4573
  776MOL0     H 2428  10.561   1.949   0.945  2.5833  0.6029  0.6249
  776MOL0     H 2429  10.570   1.815   0.834 -0.9508 -0.3083  0.6389
  776MOL0     H 2430  10.950   1.984   0.844  0.7493  0.4097 -1.7785
  776MOL0     H 2431  10.257   2.373   0.818  0.0307  0.6762  2.0289
  776MOL0     H 2432  10.034   2.366   0.722  1.2427  0.7741 -0.6915
  777MOL0     O 2433   4.717   5.421   9.224 -0.5414  0.3110 -0.3721
  777MOL0     C 2434   4.797   5.499   9.288  0.2265 -0.3768  0.4660
  777MOL0     O 2435   4.758   5.570   9.393 -0.2682 -0.0659  0.2066
  777MOL0     C 2436   4.621   5.572   9.425  0.1790  0.3338  0.3870
  777MOL0     C 2437   4.561   5.492   9.524  0.4753 -0.4212  0.2063
  777MOL0     C 2438   4.421   5.485   9.541  0.8725  0.3259 -0.1052
  777MOL0     C 2439   4.342   5.577   9.466  0.1444  0.6831 -1.0903
  777MOL0     O 2440   4.205   5.588   9.468  0.2985  0.1822 -0.3940
  777MOL0     C 2441   4.135   5.480   9.540 -0.2339 -0.1067  0.5211
  777MOL0     C 2442   3.989   5.513   9.525 -1.1089  0.6609 -0.2378
  777MOL0     C 2443   3.887   5.441   9.613  0.3266  0.3825  0.2443
  777MOL0     C 2444   3.888   5.291   9.584 -0.1939  0.3485  1.0108
  777MOL0     C 2445   3.795   5.211   9.667 -0.6202  0.7349  0.0869
  777MOL0     C 2446   3.649   5.246   9.661 -0.4692 -0.8124  0.0775
  777MOL0     C 2447   3.564   5.163   9.762 -0.4249  0.0766 -0.5197
  777MOL0     C 2448   3.554   5.226   9.902  0.0692 -0.2244  0.9520
  777MOL0     N 2449   3.472   5.138   9.982  0.3957  0.0692 -0.1047
  777MOL0     C 2450   3.507   5.095  10.105 -0.0510  0.1413 -0.5537
  777MOL0     C 2451   3.396   5.046  10.164  0.1063 -0.2721  0.4628
  777MOL0     C 2452   3.387   5.000  10.308  0.2744  0.3437  0.6179
  777MOL0     C 2453   3.268   4.906  10.332  0.3893 -0.2768 -0.3669
  777MOL0     C 2454   3.229   4.916  10.482  0.1283  0.0941  0.6137
  777MOL0     C 2455   3.108   4.839  10.523  0.3704  0.0639 -0.4201
  777MOL0     O 2456   3.002   4.874  10.439  0.3705  0.2829  0.3515
  777MOL0     C 2457   2.892   4.793  10.439  0.5226 -0.6360 -0.1348
  777MOL0     C 2458   2.843   4.740  10.560 -0.1198  0.1978  0.7191
  777MOL0     C 2459   2.716   4.682  10.566 -0.6866  0.5871 -0.0552
  777MOL0     C 2460   2.641   4.676  10.444  0.1623  0.1080  0.6103
  777MOL0     C 2461   2.510   4.607  10.431  0.5571  0.3764 -0.2766
  777MOL0     O 2462   2.473   4.565  10.551 -0.9072 -0.1449  0.9753
  777MOL0     C 2463   2.355   4.507  10.586 -0.1612 -0.3602  1.1234
  777MOL0     C 2464   2.236   4.524  10.510  0.3108 -0.1004 -0.2888
  777MOL0     C 2465   2.122   4.443  10.539 -0.5736 -0.7535  0.2813
  777MOL0     C 2466   2.116   4.353  10.640 -0.5915 -0.2845 -0.0553
  777MOL0     O 2467   1.989   4.301  10.666  0.3120  0.0342  0.4147
  777MOL0     C 2468   1.983   4.179  10.733  0.2017  0.2989 -0.9098
  777MOL0     C 2469   1.844   4.113  10.758  0.2873 -0.1371  0.2542
  777MOL0     C 2470   1.763   4.114  10.624 -0.1738  1.0276  0.7190
  777MOL0     C 2471   1.640   4.032  10.645  0.4810  0.4554 -0.9755
  777MOL0     C 2472   1.551   4.050  10.525  0.0382  0.0672  0.4316
  777MOL0     C 2473   1.576   3.930  10.431 -0.3778 -0.3186  0.8132
  777MOL0     C 2474   1.496   3.942  10.306 -0.5890  0.5081  0.8533
  777MOL0     C 2475   1.471   3.803  10.240 -0.3707 -0.3433 -0.5434
  777MOL0    Cl 2476   1.619   3.693  10.243 -0.1591 -0.2506  0.0742
  777MOL0     C 2477   2.233   4.342  10.721 -0.1656  0.3612 -0.0671
  777MOL0     C 2478   2.348   4.413  10.694  0.2581  0.6576  0.2376
  777MOL0     O 2479   2.455   4.581  10.325  0.0539  0.2568  0.5083
  777MOL0     C 2480   2.691   4.733  10.322 -0.1122  0.2853 -0.2629
  777MOL0     C 2481   2.818   4.791  10.321  0.0562  0.7981  0.2295
  777MOL0     N 2482   3.298   5.054  10.066  0.0035 -0.4183  0.3909
  777MOL0     N 2483   3.340   5.123   9.963  0.7379  0.2049  0.2941
  777MOL0     C 2484   4.408   5.666   9.373  0.0410  0.0922 -0.4255
  777MOL0     C 2485   4.546   5.664   9.356 -0.1610 -0.5052  0.0620
  777MOL0     C 2486   4.932   5.523   9.241  0.0149  0.1159 -0.2599
  777MOL0     C 2487   5.016   5.619   9.298 -0.3097 -0.0880 -0.1706
  777MOL0     C 2488   5.141   5.636   9.234 -0.2447  0.0983 -0.6513
  777MOL0     C 2489   5.181   5.570   9.114 -1.0347 -0.3063 -0.3827
  777MOL0     O 2490   5.292   5.604   9.039 -0.1204  0.5058 -0.2049
  777MOL0     C 2491   5.376   5.702   9.097 -0.1573 -0.8393  0.4757
  777MOL0     C 2492   5.497   5.707   8.998  0.2111 -0.0408  0.4568
  777MOL0     C 2493   5.575   5.570   9.006 -0.7223  0.4563  1.5129
  777MOL0     C 2494   5.703   5.565   8.911  0.6778  0.4033 -0.2944
  777MOL0     C 2495   5.788   5.682   8.921  0.1460 -0.2152 -1.2049
  777MOL0     C 2496   5.875   5.768   8.907 -0.0908 -0.5741 -0.0398
  777MOL0     C 2497   5.103   5.465   9.068 -0.2307 -0.4225 -0.3273
  777MOL0     C 2498   4.975   5.452   9.129 -0.5676  0.5117  0.3771
  777MOL0     H 2499   4.621   5.433   9.593 -1.7686 -1.6870  1.1683
  777MOL0     H 2500   4.372   5.411   9.604 -2.5138  1.9047 -0.6452
  777MOL0     H 2501   4.165   5.479   9.645  3.7017 -0.9215 -0.4469
  777MOL0     H 2502   4.155   5.386   9.487  1.2003  1.3096 -1.6266
  777MOL0     H 2503   3.970   5.495   9.419 -3.5448  1.2175  0.0336
  777MOL0     H 2504   3.982   5.620   9.548  2.7038  0.6305  1.9094
  777MOL0     H 2505   3.788   5.483   9.591  0.7261  0.0412 -2.6121
  777MOL0     H 2506   3.912   5.465   9.717 -0.9161  0.4254  0.5435
  777MOL0     H 2507   3.837   5.272   9.489 -2.1032 -1.2726  2.2898
  777MOL0     H 2508   3.989   5.249   9.581  0.0458  0.6171  3.5008
  777MOL0     H 2509   3.831   5.225   9.769 -0.7533 -1.0446  0.4079
  777MOL0     H 2510   3.814   5.104   9.654  2.5336  1.2726 -0.7187
  777MOL0     H 2511   3.608   5.234   9.560 -0.1765  0.5609 -0.2152
  777MOL0     H 2512   3.643   5.348   9.698 -0.7665 -1.3384  1.5835
  777MOL0     H 2513   3.458   5.165   9.736 -0.5784 -3.1350 -0.5998
  777MOL0     H 2514   3.608   5.062   9.759 -1.0025 -0.1517 -2.2074
  777MOL0     H 2515   3.501   5.322   9.898  0.0661 -0.2681 -1.4422
  777MOL0     H 2516   3.655   5.243   9.941  0.9293 -1.6084 -0.5650
  777MOL0     H 2517   3.602   5.118  10.153 -2.0099  2.7058  2.5354
  777MOL0     H 2518   3.379   5.083  10.379  1.2724  0.0797  1.0545
  777MOL0     H 2519   3.481   4.949  10.328  0.6071  0.7499  0.1353
  777MOL0     H 2520   3.290   4.800  10.316 -1.8227 -1.1763  1.8663
  777MOL0     H 2521   3.181   4.934  10.272  1.8799  1.0018 -2.0498
  777MOL0     H 2522   3.320   4.881  10.532  0.7692  2.5009  1.2797
  777MOL0     H 2523   3.213   5.020  10.515 -1.0733 -0.1372  0.7794
  777MOL0     H 2524   3.091   4.861  10.629  2.7203  1.4188 -0.2563
  777MOL0     H 2525   3.125   4.732  10.508  0.9373  0.0618  0.1976
  777MOL0     H 2526   2.904   4.727  10.649  2.6216 -1.9150 -1.2942
  777MOL0     H 2527   2.674   4.653  10.662 -1.0956  0.7866 -0.1722
  777MOL0     H 2528   2.225   4.594  10.428 -1.7526 -0.5061 -0.4034
  777MOL0     H 2529   2.037   4.470  10.477  1.1830  0.8342 -1.5807
  777MOL0     H 2530   2.013   4.197  10.837 -1.6037 -1.0146 -0.1128
  777MOL0     H 2531   2.051   4.104  10.692  1.5653  1.3903 -0.7321
  777MOL0     H 2532   1.790   4.164  10.837 -0.2909 -1.2964  0.6333
  777MOL0     H 2533   1.853   4.011  10.796  0.2869 -0.4503 -0.5556
  777MOL0     H 2534   1.824   4.071  10.544  1.6983 -1.1076  3.1159
  777MOL0     H 2535   1.729   4.216  10.603 -1.8873  0.3146 -0.1909
  777MOL0     H 2536   1.658   3.928  10.674 -2.0666  0.5511  1.3755
  777MOL0     H 2537   1.584   4.074  10.729 -0.5704  0.1319 -1.4984
  777MOL0     H 2538   1.558   4.144  10.470 -0.1278  0.3824  0.9409
  777MOL0     H 2539   1.449   4.040  10.561 -2.1567 -1.7228 -5.1750
  777MOL0     H 2540   1.575   3.831  10.477 -0.3014 -2.4881 -3.3501
  777MOL0     H 2541   1.682   3.947  10.407  0.1160 -2.4990  1.2931
  777MOL0     H 2542   1.397   3.981  10.331 -1.0665 -0.2599  0.1823
  777MOL0     H 2543   1.549   4.011  10.239 -1.1412 -0.6730 -0.8322
  777MOL0     H 2544   1.436   3.821  10.138  0.6159 -1.1704 -1.0490
  777MOL0     H 2545   1.389   3.753  10.292  0.0021 -2.7001 -2.0695
  777MOL0     H 2546   2.232   4.281  10.810 -1.5761 -1.1579 -1.0565
  777MOL0     H 2547   2.441   4.387  10.744 -0.2704  1.3227  1.6032
  777MOL0     H 2548   2.646   4.726  10.223 -1.9589  0.5739  0.5148
  777MOL0     H 2549   2.847   4.839  10.228 -1.6989  2.1973  0.3471
  777MOL0     H 2550   4.344   5.738   9.324  2.7971  2.5296 -0.6746
  777MOL0     H 2551   4.596   5.736   9.293 -0.1872 -0.6430 -0.1160
  777MOL0     H 2552   4.974   5.669   9.384 -3.3727 -0.7026 -1.2095
  777MOL0     H 2553   5.205   5.717   9.270  0.2959 -0.6702  0.1690
  777MOL0     H 2554   5.405   5.678   9.200  0.2906  0.5602  0.6990
  777MOL0     H 2555   5.332   5.802   9.093  0.3410 -0.5990  0.9056
  777MOL0     H 2556   5.460   5.732   8.898 -0.8215 -2.3009  0.2095
  777MOL0     H 2557   5.570   5.777   9.041  1.2338 -0.6102 -0.3095
  777MOL0     H 2558   5.508   5.489   8.975 -1.8011  1.7701  0.2650
  777MOL0     H 2559   5.596   5.542   9.110  0.1634 -0.8302  1.0252
  777MOL0     H 2560   5.764   5.477   8.934  0.2118  0.5543  1.7213
  777MOL0     H 2561   5.668   5.564   8.807 -0.2277  0.7017 -0.0070
  777MOL0     H 2562   5.963   5.826   8.890  0.2430 -1.3826 -1.1779
  777MOL0     H 2563   5.126   5.401   8.984 -0.5458 -1.0634  0.0693
  777MOL0     H 2564   4.908   5.375   9.090  0.9532  0.2577 -1.9373
  778MOL0     O 2565   8.467   1.924  11.185 -0.0577 -0.1061  0.0956
  778MOL0     C 2566   8.492   1.929  11.068 -0.5019 -0.3786 -0.2337
  778MOL0     O 2567   8.400   1.907  10.965  0.3358  0.4676 -0.1506
  778MOL0     C 2568   8.292   1.845  11.015  0.6956  0.2221 -0.2850
  778MOL0     C 2569   8.278   1.706  11.011 -0.6120 -0.6984 -0.3681
  778MOL0     C 2570   8.172   1.643  11.075  0.2099  0.4079 -0.0237
  778MOL0     C 2571   8.076   1.717  11.142  0.6055  0.2882 -0.9922
  778MOL0     O 2572   7.989   1.633  11.207  0.4940  0.1538 -0.0218
  778MOL0     C 2573   7.880   1.701  11.273 -0.1195 -0.1839  0.2903
  778MOL0     C 2574   7.795   1.594  11.344  0.3519  0.5039  0.4583
  778MOL0     C 2575   7.732   1.493  11.235  0.1212  0.6282  0.3275
  778MOL0     C 2576   7.637   1.407  11.322  1.3870 -0.6637  0.2114
  778MOL0     C 2577   7.697   1.268  11.345 -0.5820 -0.4546 -0.7196
  778MOL0     C 2578   7.607   1.180  11.442 -0.8210 -0.7516 -0.2727
  778MOL0     C 2579   7.475   1.154  11.371 -0.7710 -0.6001  1.1763
  778MOL0     C 2580   7.399   1.031  11.417  0.0555 -0.2725  1.1417
  778MOL0     N 2581   7.262   1.068  11.441  0.4926 -0.1765  0.8048
  778MOL0     C 2582   7.177   1.129  11.348  0.3775  0.4255  0.3742
  778MOL0     C 2583   7.059   1.136  11.418  0.1968 -0.2545 -0.8250
  778MOL0     C 2584   6.945   1.215  11.378 -0.8166  0.5054 -0.5839
  778MOL0     C 2585   6.815   1.143  11.380 -0.1631 -0.3956 -0.4580
  778MOL0     C 2586   6.695   1.234  11.343 -0.4370 -0.3417 -0.5211
  778MOL0     C 2587   6.559   1.166  11.372  0.0653  0.6911  0.3531
  778MOL0     O 2588   6.453   1.246  11.331  0.5170 -0.0235  0.1973
  778MOL0     C 2589   6.324   1.201  11.341  0.2945 -0.7706 -0.2546
  778MOL0     C 2590   6.279   1.084  11.389 -0.3650  0.3100  0.1065
  778MOL0     C 2591   6.142   1.055  11.377  0.7583  0.3950 -0.1351
  778MOL0     C 2592   6.048   1.137  11.308  0.4053  0.9078 -0.7395
  778MOL0     C 2593   5.907   1.095  11.296 -1.4018 -0.7403 -0.5742
  778MOL0     O 2594   5.822   1.188  11.253  1.0338 -0.5572 -0.3010
  778MOL0     C 2595   5.700   1.151  11.201  0.2166  0.4311 -1.2304
  778MOL0     C 2596   5.668   1.216  11.078  1.3819 -0.6048  0.4407
  778MOL0     C 2597   5.549   1.192  11.024  1.0212  0.5352  0.8510
  778MOL0     C 2598   5.444   1.138  11.105  0.4563  0.2393  0.4564
  778MOL0     O 2599   5.317   1.125  11.064 -0.2493  0.2151 -0.4945
  778MOL0     C 2600   5.204   1.129  11.156 -0.2125  0.6516  0.9480
  778MOL0     C 2601   5.081   1.144  11.064  0.5824  0.5301  0.4465
  778MOL0     C 2602   4.948   1.096  11.123 -0.4389 -0.6027  0.6466
  778MOL0     C 2603   4.837   1.077  11.023  0.6414  0.2426 -0.0542
  778MOL0     C 2604   4.695   1.052  11.093  0.6828  0.4428 -0.2352
  778MOL0     C 2605   4.588   1.049  10.986  0.1980  0.2702 -0.3092
  778MOL0     C 2606   4.453   1.025  11.053 -0.0966  0.0341  0.0842
  778MOL0     C 2607   4.343   1.000  10.946 -0.6134 -0.3684  0.2311
  778MOL0    Cl 2608   4.188   0.957  11.014 -0.2210  0.4097  0.2810
  778MOL0     C 2609   5.478   1.063  11.221 -0.1367 -0.5778  0.5244
  778MOL0     C 2610   5.610   1.068  11.265 -0.3253  0.4138 -0.3771
  778MOL0     O 2611   5.885   0.977  11.322  0.0123 -0.1795  0.3219
  778MOL0     C 2612   6.099   1.257  11.250  0.9298  0.1181 -0.6582
  778MOL0     C 2613   6.233   1.288  11.276 -0.4605  1.5563  0.5895
  778MOL0     N 2614   7.076   1.090  11.545 -1.0319 -0.0300 -0.2272
  778MOL0     N 2615   7.199   1.059  11.557 -0.6168  0.0662 -1.2421
  778MOL0     C 2616   8.066   1.859  11.124 -0.0891 -0.3217  0.1199
  778MOL0     C 2617   8.178   1.921  11.058  0.1185  0.2608 -0.4225
  778MOL0     C 2618   8.630   1.986  11.035  0.6530  0.5938  0.7416
  778MOL0     C 2619   8.736   1.992  11.123 -0.6076 -0.3537  0.0497
  778MOL0     C 2620   8.861   2.043  11.085 -0.3525  0.3054  0.6791
  778MOL0     C 2621   8.878   2.095  10.952  0.5799  0.6691 -0.1706
  778MOL0     O 2622   9.000   2.155  10.912  0.2230  0.1770  0.2578
  778MOL0     C 2623   9.116   2.085  10.960  0.1192 -0.3175  0.3634
  778MOL0     C 2624   9.109   1.935  10.941 -0.2731  0.3906  0.5769
  778MOL0     C 2625   9.083   1.897  10.790  0.5782  0.4221  0.2823
  778MOL0     C 2626   9.066   1.745  10.768 -0.2232  0.2050  0.1585
  778MOL0     C 2627   8.925   1.718  10.790 -0.3115 -0.4563 -0.4552
  778MOL0     C 2628   8.804   1.696  10.813  0.2954  0.1704 -0.0232
  778MOL0     C 2629   8.763   2.107  10.875  0.3955  0.0476  0.5726
  778MOL0     C 2630   8.641   2.051  10.911  0.4069  0.3698  0.2471
  778MOL0     H 2631   8.349   1.642  10.959 -0.6135  0.7352 -2.2533
  778MOL0     H 2632   8.166   1.535  11.085 -3.1626 -0.0308 -4.0123
  778MOL0     H 2633   7.818   1.748  11.196 -3.2929  1.5369  3.6010
  778MOL0     H 2634   7.907   1.778  11.345  0.5657  0.4156 -0.5856
  778MOL0     H 2635   7.718   1.648  11.400 -1.6527  0.3719 -2.0179
  778MOL0     H 2636   7.857   1.543  11.418  1.1401 -1.9337 -1.7424
  778MOL0     H 2637   7.799   1.427  11.178 -1.1504 -1.6450  1.3398
  778MOL0     H 2638   7.675   1.553  11.164  2.8054  3.0133 -0.0089
  778MOL0     H 2639   7.615   1.452  11.419  0.6990  0.7629 -0.5813
  778MOL0     H 2640   7.544   1.408  11.264  1.8452  0.1138 -0.5329
  778MOL0     H 2641   7.788   1.279  11.405 -0.7241 -0.1326 -0.5590
  778MOL0     H 2642   7.715   1.222  11.247  1.2438  1.7380 -1.5012
  778MOL0     H 2643   7.592   1.237  11.534  0.8062  2.3685 -1.7840
  778MOL0     H 2644   7.660   1.087  11.462 -2.3850 -1.8460 -0.9855
  778MOL0     H 2645   7.431   1.254  11.380  1.0651  0.3550  0.1564
  778MOL0     H 2646   7.508   1.143  11.268  1.6109  0.0239  1.8090
  778MOL0     H 2647   7.442   1.002  11.513  0.3929  3.2600  2.2086
  778MOL0     H 2648   7.404   0.950  11.343 -0.3718 -0.2915  1.1262
  778MOL0     H 2649   7.195   1.172  11.250  0.0017 -1.4434 -0.5688
  778MOL0     H 2650   6.962   1.251  11.276 -0.5198  2.0485 -0.0120
  778MOL0     H 2651   6.927   1.303  11.440 -2.8194 -0.5272  0.3956
  778MOL0     H 2652   6.802   1.119  11.486  0.7111  0.7574 -0.0708
  778MOL0     H 2653   6.819   1.052  11.319  1.2470 -0.4039 -0.3730
  778MOL0     H 2654   6.701   1.329  11.398 -1.3212  0.4521 -1.7423
  778MOL0     H 2655   6.697   1.263  11.238 -5.0442 -1.8962 -1.2619
  778MOL0     H 2656   6.555   1.147  11.479  0.4560  0.8731  0.3991
  778MOL0     H 2657   6.558   1.064  11.331  0.2954  1.5831 -2.0624
  778MOL0     H 2658   6.346   1.007  11.426  1.4216  1.4076 -0.7122
  778MOL0     H 2659   6.116   0.954  11.410 -0.3770  0.5788 -0.4064
  778MOL0     H 2660   5.744   1.281  11.036  1.2952 -1.5349 -1.2324
  778MOL0     H 2661   5.507   1.242  10.938  0.3896  1.4928  1.6881
  778MOL0     H 2662   5.207   1.220  11.216 -0.3381  1.7448 -0.6344
  778MOL0     H 2663   5.195   1.036  11.213 -0.4976  0.4840  0.6389
  778MOL0     H 2664   5.094   1.085  10.973 -0.6613  0.0933  0.5320
  778MOL0     H 2665   5.078   1.251  11.042  1.0397  0.2860 -0.8547
  778MOL0     H 2666   4.932   1.158  11.212 -2.3110  0.0004 -0.0586
  778MOL0     H 2667   4.961   0.997  11.167 -1.3646 -0.7811  0.5511
  778MOL0     H 2668   4.833   1.161  10.953  1.6065 -2.1750 -3.2711
  778MOL0     H 2669   4.855   0.992  10.956 -0.1163 -0.4774  0.6303
  778MOL0     H 2670   4.672   1.128  11.167  0.4903 -1.1738  1.4346
  778MOL0     H 2671   4.692   0.951  11.134 -0.5597  1.3186  1.9989
  778MOL0     H 2672   4.598   0.968  10.913  0.7095 -0.2244  0.2978
  778MOL0     H 2673   4.589   1.140  10.925  1.9569 -1.2374 -2.7548
  778MOL0     H 2674   4.472   0.936  11.113 -2.3759  0.7261  1.9326
  778MOL0     H 2675   4.428   1.113  11.112 -0.9800  1.2288 -1.9379
  778MOL0     H 2676   4.390   0.925  10.882 -0.1002 -2.2865  2.7058
  778MOL0     H 2677   4.320   1.089  10.885 -0.9714 -1.4746 -1.3152
  778MOL0     H 2678   5.400   1.006  11.273 -0.1049 -1.6739 -0.5866
  778MOL0     H 2679   5.643   1.010  11.351 -0.9564  1.5527  0.6560
  778MOL0     H 2680   6.025   1.321  11.203  0.0325  0.3032  0.9334
  778MOL0     H 2681   6.284   1.374  11.233  1.9508 -0.7356 -1.5339
  778MOL0     H 2682   7.985   1.920  11.164  0.0613  0.0803 -0.1772
  778MOL0     H 2683   8.178   2.027  11.040 -0.5897 -0.0962 -2.8405
  778MOL0     H 2684   8.721   1.963  11.227 -0.3868 -0.1935  0.1271
  778MOL0     H 2685   8.935   2.050  11.163 -2.1631  1.2839  2.4029
  778MOL0     H 2686   9.117   2.112  11.066 -1.0480  0.3563  0.2190
  778MOL0     H 2687   9.201   2.120  10.901  0.3587 -1.2315  0.1476
  778MOL0     H 2688   9.209   1.901  10.969  1.1610  1.8377 -2.2656
  778MOL0     H 2689   9.038   1.884  11.006 -0.4764 -0.1572 -0.0633
  778MOL0     H 2690   9.173   1.916  10.729  0.4405 -0.3953 -0.1884
  778MOL0     H 2691   8.997   1.950  10.748 -1.8389 -2.2010  1.7016
  778MOL0     H 2692   9.092   1.730  10.663 -0.6900  0.9532 -0.0697
  778MOL0     H 2693   9.137   1.698  10.837  3.0108  1.9706 -1.7036
  778MOL0     H 2694   8.703   1.669  10.838  0.4945  0.3368  0.9803
  778MOL0     H 2695   8.770   2.156  10.778  0.3852 -0.4062  0.3389
  778MOL0     H 2696   8.565   2.059  10.834  0.0438 -2.1610  0.2535
  779MOL0     O 2697  11.232   3.299   5.489  0.4561  0.1112 -0.1771
  779MOL0     C 2698  11.220   3.306   5.613  0.7352 -0.3622  0.7041
  779MOL0     O 2699  11.105   3.287   5.687 -0.0242  0.3702 -0.0331
  779MOL0     C 2700  10.996   3.219   5.644  0.0951  0.1748 -0.1276
  779MOL0     C 2701  10.887   3.227   5.735  0.2338  0.7184 -0.3783
  779MOL0     C 2702  10.762   3.168   5.696  0.1667 -0.2792  0.4476
  779MOL0     C 2703  10.748   3.101   5.571 -0.3530 -0.2014 -0.3361
  779MOL0     O 2704  10.636   3.021   5.537 -0.1886 -0.8847  0.2789
  779MOL0     C 2705  10.507   3.051   5.585 -1.1551 -1.1434 -0.2027
  779MOL0     C 2706  10.411   2.965   5.509  0.2188  0.0871 -0.3589
  779MOL0     C 2707  10.267   3.009   5.530 -0.3530 -0.5965 -0.4132
  779MOL0     C 2708  10.164   2.911   5.474 -0.0048 -0.2335  0.2967
  779MOL0     C 2709  10.023   2.935   5.519 -0.8419 -0.5812  0.2494
  779MOL0     C 2710   9.930   2.841   5.440  0.2570  0.2941 -0.2595
  779MOL0     C 2711   9.891   2.900   5.309 -0.5294 -0.3413  0.2139
  779MOL0     C 2712   9.760   2.971   5.321  0.0801  0.3757 -0.4896
  779MOL0     N 2713   9.648   2.883   5.355  1.4018  0.2765  0.2364
  779MOL0     C 2714   9.597   2.786   5.276 -0.5464 -0.0700  0.3850
  779MOL0     C 2715   9.518   2.715   5.362 -0.1493 -0.1618 -0.3107
  779MOL0     C 2716   9.434   2.592   5.322 -0.7107 -0.4585  0.7019
  779MOL0     C 2717   9.303   2.566   5.393 -0.0034 -0.3981 -0.4717
  779MOL0     C 2718   9.224   2.455   5.323  0.6279  0.2881 -0.2093
  779MOL0     C 2719   9.094   2.416   5.404  0.2881  0.2372 -0.4346
  779MOL0     O 2720   9.030   2.302   5.347  0.2938  0.1995 -0.1126
  779MOL0     C 2721   8.894   2.292   5.373  0.8303 -0.0286  0.2236
  779MOL0     C 2722   8.810   2.358   5.460  0.4411 -0.4863 -0.8546
  779MOL0     C 2723   8.681   2.314   5.487  0.4690  0.2793 -0.4659
  779MOL0     C 2724   8.632   2.199   5.430  0.2548  0.6023  0.2771
  779MOL0     C 2725   8.487   2.161   5.447 -0.0898  0.7656 -0.0929
  779MOL0     O 2726   8.432   2.107   5.344 -0.3559  0.2700 -0.4238
  779MOL0     C 2727   8.299   2.061   5.342 -0.8551  0.1599 -0.1378
  779MOL0     C 2728   8.197   2.137   5.404  0.1792 -0.2810 -0.5128
  779MOL0     C 2729   8.063   2.092   5.393  0.5675  0.1681 -0.2730
  779MOL0     C 2730   8.034   1.978   5.310  0.0974  0.0522 -0.5363
  779MOL0     O 2731   7.905   1.953   5.275 -0.4376 -0.4716 -0.1708
  779MOL0     C 2732   7.807   1.967   5.378 -0.7636  0.8747  0.2769
  779MOL0     C 2733   7.676   1.899   5.333 -0.5175  0.4646  1.0888
  779MOL0     C 2734   7.552   1.951   5.407 -0.1832  0.8455  0.1846
  779MOL0     C 2735   7.555   1.890   5.551 -0.5436 -0.5648  0.6414
  779MOL0     C 2736   7.427   1.946   5.610 -0.1426 -0.1781  0.3164
  779MOL0     C 2737   7.418   1.927   5.762 -0.4737  0.1397  0.1407
  779MOL0     C 2738   7.279   1.988   5.809 -0.1790  0.0678  0.1926
  779MOL0     C 2739   7.285   2.142   5.793 -0.2174 -0.5234 -0.5672
  779MOL0    Cl 2740   7.177   2.175   5.655  0.5369  0.2001 -0.0842
  779MOL0     C 2741   8.139   1.906   5.249 -0.0007  0.3622 -0.1221
  779MOL0     C 2742   8.270   1.947   5.266  0.2763  1.0747  0.2491
  779MOL0     O 2743   8.447   2.145   5.564  0.2827  0.1468 -0.1527
  779MOL0     C 2744   8.709   2.143   5.327  0.6122 -0.5491  0.2278
  779MOL0     C 2745   8.837   2.186   5.307 -0.2156 -0.8324  0.4086
  779MOL0     N 2746   9.505   2.777   5.487  0.4619 -0.1939  0.5379
  779MOL0     N 2747   9.580   2.875   5.480  0.0291 -0.4795  0.5030
  779MOL0     C 2748  10.854   3.098   5.479  0.5792  0.3098 -0.1758
  779MOL0     C 2749  10.977   3.161   5.515  0.0090 -0.6943 -0.2349
  779MOL0     C 2750  11.335   3.346   5.697  0.4975 -0.4111 -0.4864
  779MOL0     C 2751  11.463   3.317   5.664  0.3049  0.7060  0.3690
  779MOL0     C 2752  11.575   3.346   5.747  0.8103  0.1621  0.5010
  779MOL0     C 2753  11.557   3.409   5.868  0.4032 -0.0910 -0.3538
  779MOL0     O 2754  11.646   3.452   5.964  0.1996 -0.1769  0.3068
  779MOL0     C 2755  11.788   3.458   5.934 -0.9798 -0.1956 -0.3802
  779MOL0     C 2756  11.868   3.365   6.034  0.2906  0.2674  0.7433
  779MOL0     C 2757  12.021   3.406   6.059  0.3766 -0.6042  0.3458
  779MOL0     C 2758  12.116   3.397   5.945 -0.3730  0.5057 -0.4912
  779MOL0     C 2759  12.251   3.471   5.959  0.0810  0.0779 -0.6759
  779MOL0     C 2760  12.349   3.531   5.990 -0.2270  0.8645  0.1134
  779MOL0     C 2761  11.421   3.418   5.905  0.2187  0.1401  1.0630
  779MOL0     C 2762  11.309   3.387   5.825 -0.4392  0.1698  0.5747
  779MOL0     H 2763  10.907   3.286   5.824  0.0805 -0.3675  0.4021
  779MOL0     H 2764  10.682   3.169   5.769 -0.2358  1.2982  0.0220
  779MOL0     H 2765  10.489   3.159   5.573  1.8864 -0.5562 -0.4531
  779MOL0     H 2766  10.499   3.028   5.692  1.9876  1.2542  0.7146
  779MOL0     H 2767  10.422   2.862   5.545 -2.6360  0.6076  2.4210
  779MOL0     H 2768  10.437   2.976   5.403  1.5011 -0.4777 -0.1203
  779MOL0     H 2769  10.257   3.107   5.483  1.4601 -0.1170  0.1509
  779MOL0     H 2770  10.261   3.024   5.638  0.6653 -1.7208 -0.1759
  779MOL0     H 2771  10.172   2.911   5.365  2.0877 -2.8805  0.3505
  779MOL0     H 2772  10.189   2.817   5.525 -0.3178 -1.1836 -1.2263
  779MOL0     H 2773  10.002   3.041   5.506  3.7156  0.5461  0.3395
  779MOL0     H 2774  10.015   2.915   5.626  0.2850 -1.4015  0.1977
  779MOL0     H 2775   9.843   2.820   5.502 -0.9941 -0.5921 -2.2188
  779MOL0     H 2776   9.978   2.744   5.425  2.4543  1.3953 -0.8332
  779MOL0     H 2777   9.975   2.963   5.278 -1.4500 -0.1133 -1.9584
  779MOL0     H 2778   9.886   2.822   5.233 -0.8595 -1.7730  1.6675
  779MOL0     H 2779   9.729   3.021   5.229 -0.6722  0.9408  0.0547
  779MOL0     H 2780   9.766   3.058   5.388  2.0987  0.0754 -0.2236
  779MOL0     H 2781   9.635   2.759   5.178  0.6942 -2.6195  1.4737
  779MOL0     H 2782   9.496   2.503   5.338 -1.7928 -1.0440  1.7576
  779MOL0     H 2783   9.421   2.599   5.214  0.9384 -0.9507  0.4321
  779MOL0     H 2784   9.239   2.652   5.415 -0.3670 -0.7606 -0.0725
  779MOL0     H 2785   9.336   2.521   5.487 -0.5019 -3.6250 -1.6933
  779MOL0     H 2786   9.193   2.478   5.221  1.1712 -0.7582 -0.6185
  779MOL0     H 2787   9.289   2.368   5.308  4.1885  2.4475  1.4379
  779MOL0     H 2788   9.028   2.503   5.410  0.4255  0.2884  0.4189
  779MOL0     H 2789   9.113   2.379   5.505  0.1063 -2.5425 -1.3197
  779MOL0     H 2790   8.836   2.454   5.504 -0.7856 -0.4800 -0.1309
  779MOL0     H 2791   8.614   2.360   5.560  0.6217 -0.8585  0.4204
  779MOL0     H 2792   8.215   2.219   5.473  1.9241 -1.9369  1.1417
  779MOL0     H 2793   7.979   2.148   5.433  1.3672 -0.3844  2.3438
  779MOL0     H 2794   7.786   2.073   5.399  0.1948  1.4235 -1.4012
  779MOL0     H 2795   7.842   1.915   5.468 -0.5918  1.8456  0.7891
  779MOL0     H 2796   7.689   1.794   5.362  2.1953  0.5509  0.4695
  779MOL0     H 2797   7.657   1.919   5.228 -0.5600 -3.8818  0.0761
  779MOL0     H 2798   7.464   1.921   5.349 -0.7269 -0.1069  1.4553
  779MOL0     H 2799   7.560   2.060   5.408  1.0358  0.7966  2.5668
  779MOL0     H 2800   7.547   1.782   5.567  1.3537 -0.3484  4.0416
  779MOL0     H 2801   7.644   1.928   5.602  1.0509 -0.5170 -1.9692
  779MOL0     H 2802   7.342   1.898   5.560  0.1680  0.5708 -0.9825
  779MOL0     H 2803   7.427   2.053   5.585 -1.7144 -0.3725 -0.6463
  779MOL0     H 2804   7.506   1.981   5.799 -0.0978 -1.1753  1.2718
  779MOL0     H 2805   7.442   1.831   5.810 -2.0353 -0.5540 -0.4251
  779MOL0     H 2806   7.195   1.943   5.756 -1.6239 -0.0790  2.4522
  779MOL0     H 2807   7.266   1.971   5.916 -0.9557  3.7931  0.8379
  779MOL0     H 2808   7.385   2.183   5.781  0.1734 -1.2474  0.1269
  779MOL0     H 2809   7.249   2.191   5.884  2.9570  1.7654 -0.3829
  779MOL0     H 2810   8.105   1.815   5.201 -0.1689 -1.1868  2.7276
  779MOL0     H 2811   8.352   1.895   5.218  2.0672  1.5295  2.5943
  779MOL0     H 2812   8.665   2.069   5.260  2.9993 -0.5135 -1.5208
  779MOL0     H 2813   8.903   2.143   5.232 -0.5995 -0.7505  0.0228
  779MOL0     H 2814  10.839   3.050   5.383 -0.2889  0.2018  0.0109
  779MOL0     H 2815  11.050   3.168   5.436 -0.2281  0.9204 -0.3407
  779MOL0     H 2816  11.488   3.259   5.576  1.2838  0.8600  0.5255
  779MOL0     H 2817  11.674   3.314   5.713  0.9250 -0.6814  1.5650
  779MOL0     H 2818  11.825   3.559   5.952 -0.0085 -0.8270  1.3556
  779MOL0     H 2819  11.820   3.431   5.833  3.5517 -1.6810  1.1844
  779MOL0     H 2820  11.810   3.368   6.127  0.1000  1.5699  0.5964
  779MOL0     H 2821  11.865   3.263   5.994 -0.2193  0.5440  0.0575
  779MOL0     H 2822  12.048   3.359   6.154  0.4896 -0.8568  0.1907
  779MOL0     H 2823  12.014   3.511   6.088  0.4441  0.0431 -1.8239
  779MOL0     H 2824  12.133   3.292   5.919 -0.8410  0.7790 -2.0139
  779MOL0     H 2825  12.062   3.447   5.864  2.4731 -0.7632 -3.4083
  779MOL0     H 2826  12.431   3.597   6.011  0.4958 -0.1113  0.4252
  779MOL0     H 2827  11.400   3.462   6.002  0.8913  2.2958  0.2915
  779MOL0     H 2828  11.209   3.406   5.862  0.3931  3.8958  1.3298
  780MOL0     O 2829   5.759   4.051   5.969 -0.5376  0.3489 -0.2925
  780MOL0     C 2830   5.856   3.989   6.013  0.1711  0.2145  0.8563
  780MOL0     O 2831   5.968   3.974   5.942 -0.1117 -0.5058  0.0348
  780MOL0     C 2832   5.984   3.991   5.805  0.9561 -1.1241  0.5498
  780MOL0     C 2833   5.882   3.975   5.712 -0.4966 -0.0429 -0.2600
  780MOL0     C 2834   5.908   3.987   5.576 -0.0108 -1.5413 -0.8602
  780MOL0     C 2835   6.037   4.021   5.525 -0.2460  0.5160 -0.2711
  780MOL0     O 2836   6.060   4.014   5.394  0.8950  0.3980  0.8123
  780MOL0     C 2837   6.152   4.098   5.324 -0.3917  0.5894 -0.2043
  780MOL0     C 2838   6.137   4.252   5.353 -0.1719 -0.0671 -0.7414
  780MOL0     C 2839   6.004   4.305   5.303  0.0865  0.5992  0.4693
  780MOL0     C 2840   5.992   4.456   5.294 -0.4259 -0.0997  0.5370
  780MOL0     C 2841   5.850   4.494   5.251 -0.0509 -0.0187  0.0896
  780MOL0     C 2842   5.807   4.432   5.112 -0.1317  0.1849 -0.5006
  780MOL0     C 2843   5.695   4.504   5.036 -0.0608  0.7691  0.3642
  780MOL0     C 2844   5.566   4.525   5.117  0.1712 -0.0705  0.0000
  780MOL0     N 2845   5.458   4.557   5.020 -0.5962 -0.6666 -0.2050
  780MOL0     C 2846   5.384   4.462   4.954 -0.5755  0.3245 -0.2027
  780MOL0     C 2847   5.317   4.532   4.857 -0.7251  0.7683  0.4786
  780MOL0     C 2848   5.232   4.485   4.747  0.4155 -0.8497  0.0006
  780MOL0     C 2849   5.083   4.494   4.775 -0.0373 -0.0898 -0.6181
  780MOL0     C 2850   5.001   4.389   4.712  0.0816  0.8472 -0.4860
  780MOL0     C 2851   4.862   4.372   4.767 -0.4530  0.4716 -0.4346
  780MOL0     O 2852   4.792   4.283   4.684 -0.4248  0.4501  0.3187
  780MOL0     C 2853   4.659   4.279   4.685  0.1173  0.3650 -0.6798
  780MOL0     C 2854   4.590   4.249   4.565 -0.6896 -0.4790  0.2249
  780MOL0     C 2855   4.451   4.253   4.557  0.6689 -0.6152  0.1407
  780MOL0     C 2856   4.367   4.285   4.671 -0.3810  0.1866  0.4233
  780MOL0     C 2857   4.221   4.283   4.659 -0.2854  0.0358  0.5879
  780MOL0     O 2858   4.154   4.336   4.773 -0.5629 -0.3920  0.8074
  780MOL0     C 2859   4.012   4.335   4.774  0.6432 -0.0718 -0.5018
  780MOL0     C 2860   3.959   4.433   4.858  0.0741 -0.4219 -0.0538
  780MOL0     C 2861   3.825   4.448   4.880  0.2351  0.0045  1.3737
  780MOL0     C 2862   3.735   4.355   4.823  0.2825 -0.8700  0.4336
  780MOL0     O 2863   3.597   4.365   4.839  0.5793  0.7216  0.1179
  780MOL0     C 2864   3.533   4.276   4.933 -0.5563  0.8379  0.1645
  780MOL0     C 2865   3.397   4.236   4.866  0.3596 -0.1917 -0.1315
  780MOL0     C 2866   3.319   4.144   4.958 -0.2823 -0.3175  0.6618
  780MOL0     C 2867   3.188   4.110   4.892  0.5592 -0.2817  0.4003
  780MOL0     C 2868   3.098   4.018   4.976  0.3024  0.5331 -0.1524
  780MOL0     C 2869   2.998   4.098   5.061 -0.6041  0.0446  0.3330
  780MOL0     C 2870   2.911   3.999   5.145 -0.4869  0.2126  0.2370
  780MOL0     C 2871   2.823   4.066   5.253  0.4789  0.9530  0.0989
  780MOL0    Cl 2872   2.701   3.951   5.322 -0.0021  0.1202 -0.4959
  780MOL0     C 2873   3.792   4.258   4.741 -0.2975  0.2325  0.0540
  780MOL0     C 2874   3.926   4.243   4.720 -0.1939 -0.9490  1.0167
  780MOL0     O 2875   4.162   4.226   4.559  0.3253  0.0731 -0.6935
  780MOL0     C 2876   4.435   4.319   4.782 -0.4034  0.0411 -0.2655
  780MOL0     C 2877   4.581   4.317   4.793 -1.0790  1.0727 -0.0991
  780MOL0     N 2878   5.351   4.669   4.872  0.2816  0.3074 -0.0831
  780MOL0     N 2879   5.424   4.682   4.975  0.3108  0.2591  0.2064
  780MOL0     C 2880   6.137   4.041   5.618 -0.2971 -0.3316 -0.6395
  780MOL0     C 2881   6.119   4.026   5.754 -1.0345 -0.6625 -0.6469
  780MOL0     C 2882   5.842   3.916   6.139  0.4720  0.6567 -0.2473
  780MOL0     C 2883   5.733   3.930   6.231 -0.0332  0.4234  0.8786
  780MOL0     C 2884   5.728   3.850   6.349 -0.0014  0.0345 -0.8089
  780MOL0     C 2885   5.827   3.754   6.386 -0.0885 -0.0040  0.0300
  780MOL0     O 2886   5.841   3.679   6.502 -0.0758  0.1977 -0.3040
  780MOL0     C 2887   5.790   3.731   6.630 -0.4672 -0.1632  0.6295
  780MOL0     C 2888   5.827   3.619   6.729 -0.4310  0.5766 -0.4614
  780MOL0     C 2889   5.980   3.594   6.751  0.6612  0.0067 -0.2575
  780MOL0     C 2890   6.005   3.475   6.842  0.1206 -0.2044 -0.4246
  780MOL0     C 2891   6.033   3.353   6.770  0.1926 -0.0356 -0.2217
  780MOL0     C 2892   6.050   3.252   6.697  0.3391 -0.5616  0.7609
  780MOL0     C 2893   5.922   3.745   6.295 -0.8005 -0.2217  0.5960
  780MOL0     C 2894   5.939   3.819   6.179  1.5255 -0.6252  1.0524
  780MOL0     H 2895   5.781   3.961   5.750 -0.2010 -4.4812 -0.6045
  780MOL0     H 2896   5.822   3.984   5.511 -1.1827 -0.6757  0.5859
  780MOL0     H 2897   6.143   4.079   5.217  2.8176 -1.7282 -0.2023
  780MOL0     H 2898   6.250   4.064   5.360 -1.3768 -0.9009  1.1815
  780MOL0     H 2899   6.220   4.294   5.296 -0.6274 -0.2990 -1.5870
  780MOL0     H 2900   6.154   4.278   5.458  0.7354  2.1542 -1.3840
  780MOL0     H 2901   5.933   4.269   5.378 -0.0318 -0.3542 -0.0852
  780MOL0     H 2902   5.973   4.255   5.211 -1.5364 -4.0542  3.2045
  780MOL0     H 2903   6.007   4.508   5.389 -1.6450  1.2605  0.0223
  780MOL0     H 2904   6.071   4.485   5.225 -1.1731  1.3460  0.2480
  780MOL0     H 2905   5.862   4.603   5.260  1.1588 -0.2070  0.9147
  780MOL0     H 2906   5.770   4.481   5.325 -0.6944  2.7714  0.0055
  780MOL0     H 2907   5.774   4.330   5.133  0.0375  0.4594  1.2318
  780MOL0     H 2908   5.903   4.426   5.060 -0.2383  0.3101 -0.7165
  780MOL0     H 2909   5.736   4.596   4.993  2.9842 -1.0411 -0.9618
  780MOL0     H 2910   5.671   4.453   4.942 -0.6992  0.6429  0.5942
  780MOL0     H 2911   5.575   4.605   5.190 -0.8301 -0.9132  1.0909
  780MOL0     H 2912   5.544   4.431   5.169  1.6175 -1.1645 -1.2882
  780MOL0     H 2913   5.398   4.354   4.964  1.0847  0.4160 -1.1696
  780MOL0     H 2914   5.267   4.385   4.718  0.5218 -1.4531  2.0537
  780MOL0     H 2915   5.257   4.549   4.662 -3.2232  1.5568  0.5115
  780MOL0     H 2916   5.048   4.595   4.753  1.6392  0.2891 -1.7325
  780MOL0     H 2917   5.070   4.482   4.883 -0.5525  0.4553 -0.6162
  780MOL0     H 2918   5.000   4.393   4.603 -1.0207 -2.6217 -0.7076
  780MOL0     H 2919   5.042   4.289   4.731 -0.4223  0.9880  1.5070
  780MOL0     H 2920   4.824   4.474   4.763 -0.9842  0.2372 -1.7616
  780MOL0     H 2921   4.863   4.343   4.873 -2.3109 -2.5396 -1.1291
  780MOL0     H 2922   4.647   4.241   4.474 -1.9636  1.8235 -0.8651
  780MOL0     H 2923   4.393   4.244   4.466  1.6159 -0.9076 -0.4489
  780MOL0     H 2924   4.021   4.506   4.909 -0.7262 -0.5869  1.1867
  780MOL0     H 2925   3.788   4.523   4.949  1.6602 -0.4267  2.6630
  780MOL0     H 2926   3.520   4.329   5.028 -2.8051  1.8596 -0.6645
  780MOL0     H 2927   3.594   4.186   4.951  0.6923  2.0875  2.8856
  780MOL0     H 2928   3.420   4.184   4.773 -1.8209 -0.4130 -0.5845
  780MOL0     H 2929   3.349   4.333   4.852  0.6784 -0.2010 -1.3891
  780MOL0     H 2930   3.290   4.198   5.049  1.1572  1.0201  0.3805
  780MOL0     H 2931   3.368   4.054   4.995 -0.4682 -0.8715 -0.3812
  780MOL0     H 2932   3.133   4.201   4.864  2.3456  0.7502  0.1463
  780MOL0     H 2933   3.214   4.049   4.804 -2.7303 -0.1869 -0.7893
  780MOL0     H 2934   3.159   3.951   5.038  0.8206  0.8127 -0.3558
  780MOL0     H 2935   3.033   3.960   4.910 -2.9139 -0.3347  3.4107
  780MOL0     H 2936   2.938   4.167   5.000  1.6400  2.5386  0.7779
  780MOL0     H 2937   3.051   4.164   5.130 -0.8124  1.7117 -1.0158
  780MOL0     H 2938   2.850   3.944   5.072  1.6475 -2.6558  0.4374
  780MOL0     H 2939   2.976   3.923   5.188 -1.6240 -0.9062  0.0339
  780MOL0     H 2940   2.767   4.138   5.192 -2.0043 -0.6629  0.3247
  780MOL0     H 2941   2.883   4.113   5.331  1.6566  0.8615 -0.7271
  780MOL0     H 2942   3.719   4.192   4.694 -0.8542 -0.6300  2.0189
  780MOL0     H 2943   3.966   4.161   4.661  3.8383  1.0738  0.6052
  780MOL0     H 2944   4.387   4.348   4.874  3.4695  3.3364  0.9880
  780MOL0     H 2945   4.623   4.343   4.890 -0.2844  0.2697 -0.2214
  780MOL0     H 2946   6.235   4.064   5.577  0.1036 -2.4439 -0.9838
  780MOL0     H 2947   6.198   4.048   5.825 -1.1810  1.0023 -0.9727
  780MOL0     H 2948   5.653   3.999   6.205  1.6201  0.8178 -4.2685
  780MOL0     H 2949   5.641   3.870   6.411 -0.7348 -0.9575 -1.4969
  780MOL0     H 2950   5.681   3.734   6.614 -0.0954  1.4597 -2.4340
  780MOL0     H 2951   5.832   3.831   6.644  0.6548 -0.1161 -2.3658
  780MOL0     H 2952   5.773   3.635   6.823  3.4442  0.7936  1.9662
  780MOL0     H 2953   5.794   3.523   6.689  0.1114  0.8001 -1.4937
  780MOL0     H 2954   6.006   3.681   6.812  0.5587 -1.5286  2.1308
  780MOL0     H 2955   6.029   3.580   6.654 -2.8469  1.8081 -2.4930
  780MOL0     H 2956   6.101   3.483   6.894  0.5109 -1.5063 -0.8998
  780MOL0     H 2957   5.924   3.455   6.913 -0.6492  1.7666 -0.6714
  780MOL0     H 2958   6.080   3.177   6.627  0.8722  0.2228  0.1199
  780MOL0     H 2959   6.000   3.671   6.310 -0.7063 -0.0453  0.9864
  780MOL0     H 2960   6.022   3.805   6.111  2.0861 -3.1615  2.1456
  781MOL0     O 2961   8.531   6.986   7.900 -0.5570  0.0630 -0.1999
  781MOL0     C 2962   8.477   7.042   7.807 -0.6385 -0.5092 -0.8267
  781MOL0     O 2963   8.351   7.009   7.757 -0.3683 -0.1165  0.0007
  781MOL0     C 2964   8.291   6.887   7.780  0.2258  0.9746 -0.5849
  781MOL0     C 2965   8.152   6.884   7.784  0.3370  0.5431  0.7063
  781MOL0     C 2966   8.084   6.761   7.784 -0.6726  0.1547  0.2220
  781MOL0     C 2967   8.159   6.646   7.789  0.5541 -0.0863 -0.3177
  781MOL0     O 2968   8.087   6.527   7.796  0.4814  0.0789 -0.5564
  781MOL0     C 2969   8.151   6.401   7.787  0.1460 -0.6069  0.2858
  781MOL0     C 2970   8.047   6.293   7.786  0.5473 -0.5718  0.1883
  781MOL0     C 2971   8.101   6.166   7.723 -0.1123 -0.0148  0.5845
  781MOL0     C 2972   7.994   6.058   7.707 -0.6464  0.0393  0.5566
  781MOL0     C 2973   8.049   5.920   7.652  0.5894  0.4940  0.3209
  781MOL0     C 2974   7.972   5.812   7.725  0.1634  0.2214 -0.8014
  781MOL0     C 2975   7.822   5.831   7.742  0.3113  0.5303  0.0043
  781MOL0     C 2976   7.739   5.834   7.611 -0.5642 -0.1017  0.5508
  781MOL0     N 2977   7.593   5.853   7.636 -0.3371  0.0977 -0.1351
  781MOL0     C 2978   7.512   5.745   7.664 -0.1036 -0.2139 -0.3695
  781MOL0     C 2979   7.388   5.799   7.668 -0.2249 -0.0640 -0.3112
  781MOL0     C 2980   7.266   5.710   7.684  0.3419  0.1053  0.1938
  781MOL0     C 2981   7.234   5.621   7.560  0.8556  0.9518 -0.6644
  781MOL0     C 2982   7.165   5.697   7.448 -0.7004  0.1918  0.4859
  781MOL0     C 2983   7.033   5.766   7.491  0.0886  0.2643 -0.1262
  781MOL0     O 2984   6.941   5.785   7.377 -0.7715 -0.1172 -0.8484
  781MOL0     C 2985   6.831   5.701   7.373  0.4126  0.5268 -0.7842
  781MOL0     C 2986   6.829   5.568   7.401 -0.6097  0.4026 -0.6142
  781MOL0     C 2987   6.717   5.483   7.391 -0.8367  0.2021 -0.8288
  781MOL0     C 2988   6.594   5.540   7.357 -0.6380 -0.2058 -0.0134
  781MOL0     C 2989   6.484   5.455   7.342 -0.9250 -0.2830  0.3956
  781MOL0     O 2990   6.363   5.512   7.341 -0.8838  0.0319 -0.0403
  781MOL0     C 2991   6.257   5.423   7.347 -0.1915 -0.4485  0.2757
  781MOL0     C 2992   6.242   5.341   7.460  0.4315  0.4019 -0.7934
  781MOL0     C 2993   6.120   5.273   7.469  0.0201  0.4482 -0.9295
  781MOL0     C 2994   6.017   5.279   7.370 -0.6638 -0.2487  0.4165
  781MOL0     O 2995   5.907   5.207   7.388 -0.3444 -0.4273 -0.1810
  781MOL0     C 2996   5.786   5.269   7.344  0.2907 -0.1950  0.1247
  781MOL0     C 2997   5.665   5.208   7.413  0.6424 -0.3613 -0.0529
  781MOL0     C 2998   5.636   5.067   7.358  1.1137 -0.8287 -0.6135
  781MOL0     C 2999   5.487   5.036   7.406  0.2081  0.7513  0.8686
  781MOL0     C 3000   5.432   4.908   7.343 -0.3494  0.2377  0.1554
  781MOL0     C 3001   5.288   4.888   7.388 -0.0444  0.0743 -0.4453
  781MOL0     C 3002   5.230   4.748   7.359  0.9755  0.0544  0.1399
  781MOL0     C 3003   5.097   4.731   7.445 -0.4420  0.7618 -0.0334
  781MOL0    Cl 3004   5.132   4.684   7.614  0.2882 -0.0611 -0.5523
  781MOL0     C 3005   6.043   5.361   7.258  0.2139  0.0606  0.8105
  781MOL0     C 3006   6.159   5.425   7.247  0.0827 -0.3376  0.2428
  781MOL0     O 3007   6.506   5.333   7.332 -0.2654 -0.0460  0.6129
  781MOL0     C 3008   6.587   5.682   7.350 -0.2954  0.4074 -0.2068
  781MOL0     C 3009   6.707   5.750   7.347 -0.0868 -0.0160  0.7772
  781MOL0     N 3010   7.394   5.925   7.637  0.1928 -0.6714 -0.3325
  781MOL0     N 3011   7.512   5.963   7.605 -0.7115 -0.1221 -0.2371
  781MOL0     C 3012   8.301   6.650   7.787  0.0222  0.5648 -0.4004
  781MOL0     C 3013   8.364   6.768   7.784  0.0037  0.9324 -0.3759
  781MOL0     C 3014   8.527   7.173   7.765 -0.1821  0.4830  1.0257
  781MOL0     C 3015   8.438   7.267   7.725  0.3013 -0.1644 -0.4910
  781MOL0     C 3016   8.474   7.392   7.687  0.1384  0.1208 -0.0569
  781MOL0     C 3017   8.602   7.438   7.682  0.0161  0.0910 -1.0160
  781MOL0     O 3018   8.613   7.570   7.651 -0.1396  0.3039  0.2891
  781MOL0     C 3019   8.753   7.622   7.649  0.0582  0.1852 -0.1016
  781MOL0     C 3020   8.749   7.760   7.579 -0.2820 -0.6611 -0.7818
  781MOL0     C 3021   8.894   7.810   7.551  0.7148 -0.2331 -0.1944
  781MOL0     C 3022   8.918   7.941   7.486  0.2288 -0.9342  0.2570
  781MOL0     C 3023   8.874   7.950   7.346 -0.4489  0.1445 -0.6161
  781MOL0     C 3024   8.833   7.970   7.232  0.2421 -0.0461  1.0383
  781MOL0     C 3025   8.696   7.344   7.734 -0.2064 -0.3937 -0.0094
  781MOL0     C 3026   8.661   7.213   7.777 -1.0441  0.0300  1.3660
  781MOL0     H 3027   8.096   6.976   7.780 -1.0317 -0.3068 -0.6713
  781MOL0     H 3028   7.976   6.749   7.791 -0.7144 -0.2262 -0.9541
  781MOL0     H 3029   8.210   6.397   7.880 -1.5773  1.9987  1.6249
  781MOL0     H 3030   8.219   6.385   7.703 -2.9376  1.1637 -2.8148
  781MOL0     H 3031   7.960   6.324   7.727 -0.3118  2.5115  2.7926
  781MOL0     H 3032   8.016   6.275   7.890 -0.3256 -0.6847 -0.0856
  781MOL0     H 3033   8.187   6.128   7.779  0.4953 -1.4641 -1.2209
  781MOL0     H 3034   8.142   6.192   7.626  1.8132 -1.3544  0.9852
  781MOL0     H 3035   7.952   6.046   7.808  2.7334 -0.1292  2.1016
  781MOL0     H 3036   7.924   6.090   7.630  1.7734 -2.0929 -2.8101
  781MOL0     H 3037   8.155   5.917   7.677  0.3688 -0.0488  1.2687
  781MOL0     H 3038   8.026   5.914   7.546 -0.0764  0.1407  0.4764
  781MOL0     H 3039   8.011   5.809   7.827  1.1674  1.6739 -1.1242
  781MOL0     H 3040   7.994   5.721   7.668  0.4285  0.7019 -1.4745
  781MOL0     H 3041   7.795   5.733   7.784 -0.2342  0.8042  0.3013
  781MOL0     H 3042   7.786   5.908   7.811 -1.3562  0.3305 -0.5746
  781MOL0     H 3043   7.749   5.739   7.558  2.8248  0.4847 -0.1014
  781MOL0     H 3044   7.769   5.924   7.556 -3.0967  0.1875 -0.4990
  781MOL0     H 3045   7.556   5.647   7.678  2.7172  0.9221 -0.6447
  781MOL0     H 3046   7.182   5.774   7.715 -2.2015 -3.1548  0.5391
  781MOL0     H 3047   7.289   5.641   7.765 -0.3378  1.8321  1.9366
  781MOL0     H 3048   7.166   5.540   7.588  1.1681  0.5915 -0.9474
  781MOL0     H 3049   7.326   5.575   7.522  1.9552  0.4326  2.3939
  781MOL0     H 3050   7.227   5.779   7.410  0.2189 -1.1326 -1.0011
  781MOL0     H 3051   7.142   5.630   7.365 -1.5237  1.0653 -0.0033
  781MOL0     H 3052   7.059   5.864   7.533 -0.8535  1.3152 -1.8964
  781MOL0     H 3053   6.986   5.706   7.570 -0.9621 -2.3171 -2.5526
  781MOL0     H 3054   6.915   5.513   7.436 -0.5807 -0.4308 -1.9426
  781MOL0     H 3055   6.712   5.377   7.414 -0.8961  0.5145  0.7036
  781MOL0     H 3056   6.320   5.336   7.536 -0.7684  1.3989  0.5494
  781MOL0     H 3057   6.113   5.212   7.559 -2.6476  3.5592  1.2018
  781MOL0     H 3058   5.776   5.258   7.236  0.5028 -0.4842  0.1326
  781MOL0     H 3059   5.784   5.374   7.372  0.3337 -0.4357  1.0601
  781MOL0     H 3060   5.577   5.271   7.396  0.1720 -1.4061 -1.7168
  781MOL0     H 3061   5.695   5.199   7.518  2.3501 -0.5715 -0.5142
  781MOL0     H 3062   5.704   4.995   7.404 -1.5398 -3.9015 -1.1225
  781MOL0     H 3063   5.635   5.047   7.251 -0.3201 -0.8074 -0.6353
  781MOL0     H 3064   5.489   5.027   7.515  1.4009 -1.3173  0.7247
  781MOL0     H 3065   5.418   5.116   7.377 -0.7234  0.0182  0.9767
  781MOL0     H 3066   5.481   4.814   7.367  1.1015  0.9428  0.0449
  781MOL0     H 3067   5.424   4.920   7.234  0.1821 -1.2692 -0.0755
  781MOL0     H 3068   5.222   4.965   7.347  1.4365  1.6624 -0.0006
  781MOL0     H 3069   5.284   4.896   7.497 -2.7589  2.1246 -0.5983
  781MOL0     H 3070   5.216   4.737   7.251 -0.8514 -0.5765  0.4027
  781MOL0     H 3071   5.304   4.678   7.398  1.3179  1.0415  1.3453
  781MOL0     H 3072   5.043   4.649   7.396  1.8682 -0.3173 -0.9357
  781MOL0     H 3073   5.042   4.825   7.434 -0.4190  0.8101  0.2756
  781MOL0     H 3074   5.971   5.360   7.177 -0.0944  2.0220  1.0160
  781MOL0     H 3075   6.178   5.485   7.158 -1.2431 -1.6759 -0.9728
  781MOL0     H 3076   6.492   5.719   7.313  1.2859  2.1872 -2.8213
  781MOL0     H 3077   6.713   5.854   7.314 -3.3848  0.2086  0.5400
  781MOL0     H 3078   8.358   6.558   7.788  0.9870  1.1275  1.2070
  781MOL0     H 3079   8.472   6.773   7.776  0.2520 -1.9915 -0.0707
  781MOL0     H 3080   8.331   7.252   7.718  0.1425  0.2781  0.8069
  781MOL0     H 3081   8.412   7.479   7.667  0.9178  0.2802 -2.0698
  781MOL0     H 3082   8.829   7.557   7.604  2.2928  2.5926 -0.0257
  781MOL0     H 3083   8.779   7.626   7.755  0.4509  0.4969 -0.2090
  781MOL0     H 3084   8.700   7.753   7.481  0.2858  2.2307 -1.3524
  781MOL0     H 3085   8.682   7.828   7.632 -2.0794 -1.7975 -1.5003
  781MOL0     H 3086   8.955   7.736   7.499  3.5809  2.3191 -0.7617
  781MOL0     H 3087   8.929   7.813   7.655 -3.0770 -1.9886  1.3156
  781MOL0     H 3088   8.863   8.016   7.544  0.9381 -1.8671  2.2161
  781MOL0     H 3089   9.026   7.955   7.492  0.1563 -0.1116 -0.1698
  781MOL0     H 3090   8.781   7.981   7.139  0.7954 -0.2962  0.7002
  781MOL0     H 3091   8.792   7.389   7.759 -0.7458 -0.6967  3.0806
  781MOL0     H 3092   8.735   7.144   7.816 -0.7506 -0.8399 -0.6183
  782MOL0     O 3093   5.130   8.640   0.467  0.4741 -0.3863 -0.2623
  782MOL0     C 3094   5.185   8.544   0.414  0.3983  1.2230 -0.8611
  782MOL0     O 3095   5.124   8.448   0.343  0.1082  0.2883 -0.3445
  782MOL0     C 3096   4.991   8.454   0.326  0.5258  0.0094  0.0803
  782MOL0     C 3097   4.939   8.447   0.200  0.0655  0.1060  0.1948
  782MOL0     C 3098   4.801   8.457   0.183  0.0512  1.0854  0.2067
  782MOL0     C 3099   4.706   8.473   0.285 -0.6281  0.2251 -0.1714
  782MOL0     O 3100   4.572   8.476   0.267 -0.2065 -0.1378 -0.2564
  782MOL0     C 3101   4.503   8.426   0.157  0.5747  0.1915 -0.1698
  782MOL0     C 3102   4.351   8.462   0.157 -0.2416  1.1527 -0.0848
  782MOL0     C 3103   4.270   8.382   0.270  0.7046  0.0998  0.4588
  782MOL0     C 3104   4.120   8.409   0.243  0.7911 -0.1599  0.6877
  782MOL0     C 3105   4.027   8.303   0.306 -0.2961 -0.2846  0.4553
  782MOL0     C 3106   3.877   8.314   0.267 -0.2378  0.5668 -0.9706
  782MOL0     C 3107   3.793   8.209   0.350  0.0742 -0.6722  0.0040
  782MOL0     C 3108   3.644   8.228   0.312  1.0048 -0.7952 -0.5524
  782MOL0     N 3109   3.561   8.127   0.386  0.2028  0.0871 -0.1331
  782MOL0     C 3110   3.568   7.982   0.383 -0.2006 -0.4087 -0.5583
  782MOL0     C 3111   3.473   7.947   0.478  0.5885  0.1356  0.5335
  782MOL0     C 3112   3.444   7.808   0.530 -0.6833  0.7657 -0.4357
  782MOL0     C 3113   3.345   7.726   0.452  0.3058 -0.5120  0.2822
  782MOL0     C 3114   3.199   7.787   0.462 -0.5733 -1.8787 -0.5240
  782MOL0     C 3115   3.082   7.684   0.443 -0.4542 -0.3219  0.3384
  782MOL0     O 3116   2.963   7.766   0.432 -0.0757  0.3384  0.1357
  782MOL0     C 3117   2.834   7.716   0.465 -1.1293  1.0815  0.4152
  782MOL0     C 3118   2.724   7.805   0.460 -0.4386  0.2084 -0.0007
  782MOL0     C 3119   2.600   7.737   0.465 -0.1571 -0.0871  0.0552
  782MOL0     C 3120   2.578   7.601   0.493 -0.4904 -0.9000  0.2224
  782MOL0     C 3121   2.441   7.545   0.504  0.1766  0.5657 -0.2856
  782MOL0     O 3122   2.339   7.622   0.459  0.2481  0.3594  0.1470
  782MOL0     C 3123   2.216   7.568   0.439 -0.1203  0.8699  0.0740
  782MOL0     C 3124   2.191   7.433   0.389  0.5476  0.3313 -0.1148
  782MOL0     C 3125   2.063   7.390   0.350  0.9507  0.2562 -0.1734
  782MOL0     C 3126   1.950   7.475   0.360  0.1213  0.1742  0.1301
  782MOL0     O 3127   1.833   7.415   0.305 -0.3240 -0.0641  0.2477
  782MOL0     C 3128   1.716   7.487   0.331  0.6787  0.0682 -0.7533
  782MOL0     C 3129   1.607   7.408   0.268  1.1495 -0.6524  0.1610
  782MOL0     C 3130   1.587   7.264   0.308  0.0462  0.1364  0.0209
  782MOL0     C 3131   1.458   7.206   0.248 -0.6857 -0.7678 -0.0367
  782MOL0     C 3132   1.446   7.057   0.296 -0.0138 -0.5002  0.3977
  782MOL0     C 3133   1.317   6.992   0.254  1.1323 -0.3706 -0.6172
  782MOL0     C 3134   1.314   6.847   0.290  0.3367  0.5075  0.1160
  782MOL0     C 3135   1.183   6.774   0.252  0.7305 -0.1640 -0.6776
  782MOL0    Cl 3136   1.143   6.801   0.079  0.5037 -0.2800 -0.1095
  782MOL0     C 3137   1.973   7.609   0.398 -0.2599  0.6894  0.9702
  782MOL0     C 3138   2.101   7.649   0.442 -0.3340 -0.6232  0.3848
  782MOL0     O 3139   2.424   7.433   0.554 -0.1507 -0.6774  0.4147
  782MOL0     C 3140   2.689   7.519   0.496 -0.4423  0.5597 -0.5155
  782MOL0     C 3141   2.815   7.579   0.482  0.3959  0.2665  0.0499
  782MOL0     N 3142   3.398   8.057   0.519  0.2937  0.7745 -0.7532
  782MOL0     N 3143   3.456   8.162   0.469 -0.5083  0.2084  0.3211
  782MOL0     C 3144   4.770   8.479   0.407  0.0431 -0.8768  0.9666
  782MOL0     C 3145   4.904   8.466   0.438 -0.6861 -0.4948 -0.2161
  782MOL0     C 3146   5.335   8.531   0.430  0.0448  0.2602  0.8219
  782MOL0     C 3147   5.415   8.447   0.352  0.3014 -0.3873 -0.4376
  782MOL0     C 3148   5.547   8.467   0.361 -0.5161  0.3902 -0.1065
  782MOL0     C 3149   5.606   8.544   0.451 -0.6690 -0.3288 -0.6861
  782MOL0     O 3150   5.744   8.546   0.475  0.3173 -0.5843 -0.0802
  782MOL0     C 3151   5.804   8.685   0.462  0.3284  0.1326  0.3671
  782MOL0     C 3152   5.928   8.682   0.374  0.6037 -0.0164  0.5483
  782MOL0     C 3153   6.058   8.651   0.459 -0.0858  1.4677 -0.2589
  782MOL0     C 3154   6.165   8.634   0.358 -0.1910 -0.5897  0.3622
  782MOL0     C 3155   6.285   8.592   0.427  0.2071 -0.4907  0.6332
  782MOL0     C 3156   6.393   8.576   0.486 -0.3876  0.0943 -0.1157
  782MOL0     C 3157   5.519   8.617   0.535 -0.4426 -0.5327  0.3590
  782MOL0     C 3158   5.388   8.605   0.533  0.7680 -0.5692  0.2488
  782MOL0     H 3159   5.009   8.426   0.120 -0.4806  0.2054 -0.3105
  782MOL0     H 3160   4.758   8.426   0.088  1.4395 -1.2093  0.2281
  782MOL0     H 3161   4.521   8.318   0.154 -3.2725 -0.7065  2.0431
  782MOL0     H 3162   4.544   8.464   0.064 -2.0710  1.0965 -1.0694
  782MOL0     H 3163   4.320   8.443   0.054 -1.7135  2.3348  0.1018
  782MOL0     H 3164   4.328   8.568   0.171 -1.0842  0.9985 -0.2522
  782MOL0     H 3165   4.311   8.413   0.366  1.8164 -0.8642  0.3199
  782MOL0     H 3166   4.290   8.277   0.249  2.3951  0.5794 -0.5321
  782MOL0     H 3167   4.086   8.507   0.278 -1.6757 -1.0243  0.9012
  782MOL0     H 3168   4.100   8.413   0.136 -1.1876  0.9941  1.0611
  782MOL0     H 3169   4.039   8.327   0.412  0.7023 -3.4943  1.1854
  782MOL0     H 3170   4.071   8.208   0.275  0.9403  0.4595 -0.1803
  782MOL0     H 3171   3.856   8.291   0.162  0.7517  0.0100 -1.0575
  782MOL0     H 3172   3.840   8.416   0.281  2.3191  1.1747  2.4201
  782MOL0     H 3173   3.825   8.106   0.330 -4.9575 -2.3481 -0.9361
  782MOL0     H 3174   3.800   8.226   0.458 -1.4244 -0.6114  0.1144
  782MOL0     H 3175   3.648   8.211   0.204 -0.0252  0.0443 -0.7386
  782MOL0     H 3176   3.610   8.329   0.341  3.0308 -0.1908 -0.1388
  782MOL0     H 3177   3.647   7.929   0.330  2.4465  2.0895  0.5734
  782MOL0     H 3178   3.409   7.829   0.631 -2.8434 -0.9001 -0.7601
  782MOL0     H 3179   3.533   7.745   0.544 -2.1553 -1.0779  1.2915
  782MOL0     H 3180   3.341   7.627   0.498  0.7007 -0.7349 -0.1539
  782MOL0     H 3181   3.378   7.724   0.348 -4.1358  1.3247 -1.3963
  782MOL0     H 3182   3.181   7.829   0.561  0.9650 -2.0200 -0.1644
  782MOL0     H 3183   3.188   7.863   0.383 -2.2422  0.6362  1.9416
  782MOL0     H 3184   3.082   7.606   0.519  0.9796 -2.3957 -1.6355
  782MOL0     H 3185   3.100   7.632   0.348  1.3407 -2.3327  1.6923
  782MOL0     H 3186   2.724   7.912   0.439  0.6108  0.6616  2.0321
  782MOL0     H 3187   2.515   7.804   0.453  1.2771  1.5465 -1.3463
  782MOL0     H 3188   2.279   7.374   0.368  0.3813  1.2240 -4.0889
  782MOL0     H 3189   2.044   7.291   0.311  0.4473  0.6589 -1.0025
  782MOL0     H 3190   1.712   7.594   0.307 -0.8606  0.3270  0.4888
  782MOL0     H 3191   1.696   7.487   0.439 -1.4072  0.4664 -1.0917
  782MOL0     H 3192   1.618   7.410   0.160  1.2732  3.4688  0.0945
  782MOL0     H 3193   1.517   7.461   0.299  0.5221 -2.7017  2.0883
  782MOL0     H 3194   1.597   7.259   0.417 -0.8525 -0.2651  0.0948
  782MOL0     H 3195   1.673   7.210   0.267  1.9645  2.4745  0.7171
  782MOL0     H 3196   1.370   7.264   0.276 -2.6690 -2.7050 -1.9300
  782MOL0     H 3197   1.455   7.215   0.139 -1.8441 -0.4438  0.0103
  782MOL0     H 3198   1.451   7.059   0.405 -1.7429  2.6806  0.5339
  782MOL0     H 3199   1.537   7.014   0.255  2.0734  2.7542  1.2202
  782MOL0     H 3200   1.310   7.004   0.145 -2.6108  2.4889 -0.2439
  782MOL0     H 3201   1.230   7.051   0.283  1.5370 -0.2386  0.3741
  782MOL0     H 3202   1.393   6.789   0.240 -0.9659 -1.6407  0.4231
  782MOL0     H 3203   1.318   6.823   0.397  0.1631  1.1251  0.2646
  782MOL0     H 3204   1.105   6.809   0.320  0.5909 -0.0749 -0.8823
  782MOL0     H 3205   1.202   6.667   0.269  0.5684  0.3984  5.1119
  782MOL0     H 3206   1.890   7.679   0.399 -3.7897 -2.8280 -2.7787
  782MOL0     H 3207   2.116   7.757   0.450  1.3718 -0.8111  0.0684
  782MOL0     H 3208   2.683   7.412   0.513 -0.0865  0.4708 -0.9502
  782MOL0     H 3209   2.898   7.509   0.478 -0.2594 -0.4565 -2.6824
  782MOL0     H 3210   4.701   8.510   0.484 -0.7697 -0.7765  0.2224
  782MOL0     H 3211   4.936   8.476   0.541 -0.9553 -2.7577  0.1223
  782MOL0     H 3212   5.378   8.380   0.274  0.7443 -1.4916  0.2821
  782MOL0     H 3213   5.611   8.403   0.301 -0.9217 -0.9724  0.8551
  782MOL0     H 3214   5.837   8.726   0.558 -2.1515  3.4849 -0.0171
  782MOL0     H 3215   5.735   8.763   0.429  0.6819 -0.7587 -2.7986
  782MOL0     H 3216   5.906   8.607   0.298 -1.8012  1.5664 -0.4414
  782MOL0     H 3217   5.939   8.779   0.324 -0.7767 -1.2613 -2.4260
  782MOL0     H 3218   6.065   8.563   0.524  1.0841  2.6280  1.2669
  782MOL0     H 3219   6.087   8.739   0.519 -2.0537  2.5900 -0.8753
  782MOL0     H 3220   6.143   8.553   0.287  1.1976 -0.2729 -0.4713
  782MOL0     H 3221   6.196   8.729   0.313  3.2629  0.4949  4.3975
  782MOL0     H 3222   6.485   8.569   0.539  0.3266 -0.2706 -1.3577
  782MOL0     H 3223   5.561   8.684   0.610 -3.4051  0.1010  1.6045
  782MOL0     H 3224   5.332   8.665   0.605 -0.4380  1.4442 -2.2250
  783MOL0     O 3225   3.255   4.160   2.737 -0.7606 -1.2559 -0.0925
  783MOL0     C 3226   3.280   4.077   2.652 -0.2460 -0.1938 -0.5151
  783MOL0     O 3227   3.404   4.048   2.601  0.6919  0.0420 -0.7886
  783MOL0     C 3228   3.508   4.120   2.635  0.6565 -0.5509 -0.3827
  783MOL0     C 3229   3.576   4.177   2.533 -0.6095 -0.2713  0.8615
  783MOL0     C 3230   3.707   4.228   2.543  0.2863  0.2201 -0.1988
  783MOL0     C 3231   3.775   4.225   2.667 -0.7190  0.7833 -0.1117
  783MOL0     O 3232   3.903   4.281   2.674  0.1411 -0.6774 -0.1168
  783MOL0     C 3233   3.931   4.399   2.590  0.0372  0.2617  0.0768
  783MOL0     C 3234   4.076   4.437   2.618  0.4626 -0.2256  0.6516
  783MOL0     C 3235   4.102   4.571   2.537  0.8700  0.8974 -0.2975
  783MOL0     C 3236   4.245   4.610   2.562  0.5525 -0.9684  0.5598
  783MOL0     C 3237   4.264   4.763   2.545 -0.4715  0.1213  0.1899
  783MOL0     C 3238   4.394   4.815   2.598 -0.2519 -0.8252  0.1748
  783MOL0     C 3239   4.404   4.967   2.618 -0.1043 -0.3046 -0.5251
  783MOL0     C 3240   4.536   5.029   2.637 -0.4088  1.0485 -0.6657
  783MOL0     N 3241   4.638   4.942   2.705  0.3182  0.1980  0.4980
  783MOL0     C 3242   4.715   4.845   2.644  0.8510  0.0440 -0.2369
  783MOL0     C 3243   4.798   4.792   2.733  0.6809 -0.0654 -1.1213
  783MOL0     C 3244   4.911   4.697   2.703 -0.9753  0.7793 -0.3442
  783MOL0     C 3245   4.984   4.647   2.824 -0.8089 -0.1384 -1.2664
  783MOL0     C 3246   4.897   4.612   2.947 -0.1907 -0.8535 -0.0667
  783MOL0     C 3247   4.952   4.492   3.031  0.0357 -0.0330 -0.5827
  783MOL0     O 3248   4.955   4.372   2.950  0.6295  0.1530  1.2303
  783MOL0     C 3249   4.846   4.292   2.956  0.5543  0.3017  0.7598
  783MOL0     C 3250   4.788   4.250   3.071  0.3819 -0.1029 -0.3779
  783MOL0     C 3251   4.652   4.198   3.082 -1.3629 -0.1413  1.1517
  783MOL0     C 3252   4.588   4.179   2.955  0.2331  1.0735 -0.4936
  783MOL0     C 3253   4.463   4.098   2.945  0.6763  0.3566  0.5183
  783MOL0     O 3254   4.387   4.112   2.828 -0.2677  0.0599 -0.0816
  783MOL0     C 3255   4.276   4.025   2.816  0.7568 -0.6538  0.4362
  783MOL0     C 3256   4.144   4.071   2.805 -0.1795 -0.4047  0.3708
  783MOL0     C 3257   4.036   3.983   2.788  0.2092  0.4735  0.3043
  783MOL0     C 3258   4.057   3.846   2.779 -0.9381  0.2064 -0.0750
  783MOL0     O 3259   3.955   3.755   2.756 -0.1404  1.3189  0.6438
  783MOL0     C 3260   3.823   3.799   2.765  0.1563  0.3786 -1.3334
  783MOL0     C 3261   3.721   3.687   2.769 -0.2730 -0.1202 -0.6498
  783MOL0     C 3262   3.578   3.734   2.758 -0.2420 -0.1804  0.1746
  783MOL0     C 3263   3.482   3.633   2.814 -0.1345 -0.5464 -0.4454
  783MOL0     C 3264   3.336   3.667   2.763 -0.0660 -0.2186 -1.0325
  783MOL0     C 3265   3.232   3.574   2.816  0.5644  0.7066  0.0357
  783MOL0     C 3266   3.092   3.612   2.775 -0.0301 -0.1043  0.7478
  783MOL0     C 3267   2.979   3.511   2.830 -0.5429 -0.0843  0.4923
  783MOL0    Cl 3268   2.830   3.547   2.751  0.2533 -0.1893 -0.3137
  783MOL0     C 3269   4.190   3.800   2.787 -0.2374 -0.1121  0.1719
  783MOL0     C 3270   4.298   3.888   2.810  0.5662  0.3559  0.4145
  783MOL0     O 3271   4.431   4.048   3.049 -0.4091 -0.0926  0.6362
  783MOL0     C 3272   4.655   4.211   2.840 -0.2052 -0.3533  0.7862
  783MOL0     C 3273   4.778   4.272   2.837 -0.1374 -0.0852 -0.1617
  783MOL0     N 3274   4.771   4.865   2.856  0.5226  0.2368  0.0461
  783MOL0     N 3275   4.677   4.954   2.832 -0.2889 -0.6876  0.4894
  783MOL0     C 3276   3.703   4.175   2.780  0.6935 -0.6740  0.7711
  783MOL0     C 3277   3.567   4.136   2.759 -0.4417  0.1393  1.1624
  783MOL0     C 3278   3.165   4.005   2.609  0.9923 -0.2406 -0.1878
  783MOL0     C 3279   3.172   3.906   2.508  0.3448  0.2308  0.3056
  783MOL0     C 3280   3.059   3.845   2.455 -0.1013  0.0755 -0.4434
  783MOL0     C 3281   2.933   3.866   2.516 -0.0002  0.4406 -0.5249
  783MOL0     O 3282   2.821   3.799   2.467 -0.2430 -0.1161 -0.4096
  783MOL0     C 3283   2.689   3.854   2.500 -0.1980  0.2820  0.3152
  783MOL0     C 3284   2.565   3.798   2.430 -0.9474  0.3541  0.8130
  783MOL0     C 3285   2.437   3.867   2.476  0.4227 -0.8392  0.1133
  783MOL0     C 3286   2.313   3.813   2.398 -0.2138  0.0817  1.3232
  783MOL0     C 3287   2.205   3.832   2.488  0.0795  0.0451  0.5777
  783MOL0     C 3288   2.116   3.868   2.562  0.9021  0.3447 -1.4146
  783MOL0     C 3289   2.922   3.957   2.624  0.1352  0.1739 -0.5069
  783MOL0     C 3290   3.039   4.026   2.666 -1.0537 -0.0110  0.9830
  783MOL0     H 3291   3.532   4.155   2.437 -1.7504  1.7817  0.8466
  783MOL0     H 3292   3.760   4.263   2.455 -1.4722  2.3530 -0.5005
  783MOL0     H 3293   3.850   4.465   2.621 -1.7625 -1.2265 -1.2463
  783MOL0     H 3294   3.921   4.390   2.482 -3.8141  0.0056  0.3201
  783MOL0     H 3295   4.139   4.359   2.576 -0.5976 -2.0856  2.3475
  783MOL0     H 3296   4.095   4.457   2.724 -1.4780  2.1988  0.6531
  783MOL0     H 3297   4.027   4.643   2.572 -1.3288  0.8890 -4.4223
  783MOL0     H 3298   4.061   4.553   2.438 -0.0911 -0.3798  0.3100
  783MOL0     H 3299   4.283   4.582   2.661  1.7426  1.7702  0.9569
  783MOL0     H 3300   4.314   4.569   2.488 -1.4750 -0.5414 -1.6719
  783MOL0     H 3301   4.183   4.814   2.598 -0.9834  1.4109 -1.7397
  783MOL0     H 3302   4.236   4.787   2.442 -2.7972  1.8991  1.1385
  783MOL0     H 3303   4.472   4.796   2.523  1.8213  5.2589  0.2436
  783MOL0     H 3304   4.413   4.770   2.696  1.9047 -1.0905 -0.3049
  783MOL0     H 3305   4.356   5.015   2.533  0.5858  0.5547 -0.4473
  783MOL0     H 3306   4.338   5.000   2.699  0.2693  1.9943 -1.0884
  783MOL0     H 3307   4.520   5.112   2.706  0.2212  0.0834  0.6764
  783MOL0     H 3308   4.583   5.060   2.543  1.2988 -0.5251 -0.3807
  783MOL0     H 3309   4.730   4.821   2.539  2.2299 -2.8633  0.5151
  783MOL0     H 3310   4.986   4.740   2.635  0.4522 -0.9684  0.0309
  783MOL0     H 3311   4.870   4.610   2.652 -0.3489  0.2135  0.1037
  783MOL0     H 3312   5.046   4.728   2.863  0.2202 -3.0664  4.3694
  783MOL0     H 3313   5.063   4.573   2.806  0.3018 -0.0648  2.5125
  783MOL0     H 3314   4.887   4.698   3.014 -1.2058  0.3563 -1.7212
  783MOL0     H 3315   4.799   4.583   2.909 -0.0161  0.6203 -1.7278
  783MOL0     H 3316   4.891   4.476   3.121 -0.7303  0.1830 -1.0523
  783MOL0     H 3317   5.055   4.510   3.063  0.5175 -1.0735 -1.4650
  783MOL0     H 3318   4.846   4.260   3.162  0.6879 -0.1972 -0.5602
  783MOL0     H 3319   4.604   4.171   3.175 -1.1919 -0.4161  1.1616
  783MOL0     H 3320   4.116   4.176   2.814 -1.2425 -0.4919 -1.3289
  783MOL0     H 3321   3.937   4.027   2.786 -0.0833 -0.0693  1.5580
  783MOL0     H 3322   3.794   3.851   2.673 -1.9146 -1.9878 -2.1484
  783MOL0     H 3323   3.808   3.860   2.855  1.2516  1.0445 -1.5900
  783MOL0     H 3324   3.738   3.636   2.865  1.1888  0.8236 -0.3716
  783MOL0     H 3325   3.746   3.614   2.691 -1.5208 -0.1755 -1.0162
  783MOL0     H 3326   3.561   3.758   2.652  0.1702 -1.3493 -0.1734
  783MOL0     H 3327   3.563   3.830   2.808 -3.9442 -0.4524 -0.1650
  783MOL0     H 3328   3.506   3.529   2.791  1.2351 -0.3100 -0.1304
  783MOL0     H 3329   3.502   3.625   2.921  2.5476  0.9737 -0.7628
  783MOL0     H 3330   3.330   3.655   2.655 -0.6737 -1.5185 -0.8648
  783MOL0     H 3331   3.312   3.770   2.793  1.4175 -0.1950  0.2495
  783MOL0     H 3332   3.230   3.560   2.925 -1.0089  1.2835  0.0958
  783MOL0     H 3333   3.251   3.477   2.769 -0.1479  1.4781 -1.9117
  783MOL0     H 3334   3.065   3.711   2.812 -0.6284 -1.0703  3.0641
  783MOL0     H 3335   3.078   3.604   2.667  4.2007  1.3497 -0.0951
  783MOL0     H 3336   2.965   3.523   2.938 -2.3829 -4.2229  0.9143
  783MOL0     H 3337   3.008   3.408   2.805  1.7952  0.8332 -0.8722
  783MOL0     H 3338   4.198   3.695   2.763  2.3177  0.1086 -0.2165
  783MOL0     H 3339   4.400   3.849   2.813  0.0642 -0.9403  1.1639
  783MOL0     H 3340   4.611   4.186   2.744  0.0857  2.0728 -0.0456
  783MOL0     H 3341   4.835   4.281   2.745  0.4094 -2.2728 -0.1004
  783MOL0     H 3342   3.753   4.176   2.876  2.0427  0.7337  0.1103
  783MOL0     H 3343   3.521   4.094   2.848 -0.0099  2.7995  2.7833
  783MOL0     H 3344   3.269   3.881   2.468  0.6623 -0.3891  1.4229
  783MOL0     H 3345   3.077   3.781   2.370 -3.3499 -3.4428  1.2078
  783MOL0     H 3346   2.701   3.958   2.470  0.1502  0.4748  1.1130
  783MOL0     H 3347   2.676   3.854   2.608 -2.7610 -2.2064  0.1572
  783MOL0     H 3348   2.576   3.820   2.324 -1.7178  0.7625  0.8095
  783MOL0     H 3349   2.565   3.689   2.439 -2.1695  0.1762 -0.8310
  783MOL0     H 3350   2.440   3.974   2.454  1.1978 -0.8775 -0.0051
  783MOL0     H 3351   2.428   3.865   2.585 -0.0359 -2.4949  0.0752
  783MOL0     H 3352   2.299   3.871   2.306 -1.2648 -0.5325  1.0781
  783MOL0     H 3353   2.329   3.707   2.377 -2.5622  0.1713 -1.5009
  783MOL0     H 3354   2.021   3.899   2.600  1.7357  2.3657 -0.8633
  783MOL0     H 3355   2.832   3.981   2.680  1.0962  1.5054  0.5183
  783MOL0     H 3356   3.018   4.100   2.742 -0.5924  0.0910  1.0182
  784MOL0     O 3357   9.598   5.942   5.802 -0.4842 -0.4391 -0.3732
  784MOL0     C 3358   9.661   5.924   5.700 -0.0007 -0.1024  0.0727
  784MOL0     O 3359   9.631   5.958   5.573  0.0375 -0.0283 -0.8006
  784MOL0     C 3360   9.505   6.012   5.541  0.1757 -0.1631  0.0901
  784MOL0     C 3361   9.390   5.957   5.592  0.0115 -0.1417 -1.5285
  784MOL0     C 3362   9.264   6.000   5.532  0.1973  0.1730  0.5328
  784MOL0     C 3363   9.258   6.105   5.432 -0.1259  0.0450  0.6661
  784MOL0     O 3364   9.129   6.136   5.387  0.0152 -0.2451 -0.1679
  784MOL0     C 3365   9.068   6.235   5.470  1.3626  0.4655 -0.1852
  784MOL0     C 3366   8.928   6.268   5.413 -0.4240  0.1942 -0.4398
  784MOL0     C 3367   8.871   6.391   5.483 -1.0247  0.1591  0.0212
  784MOL0     C 3368   8.736   6.452   5.433  0.6685  0.2231 -0.3453
  784MOL0     C 3369   8.756   6.520   5.292  0.0877 -0.3949 -0.1421
  784MOL0     C 3370   8.630   6.611   5.256  0.0333 -0.5653  0.2539
  784MOL0     C 3371   8.684   6.723   5.152 -0.0584  0.3636 -0.2123
  784MOL0     C 3372   8.575   6.817   5.105  0.1311 -0.9930 -0.0487
  784MOL0     N 3373   8.476   6.768   5.009 -0.0938  0.1094  0.3680
  784MOL0     C 3374   8.433   6.833   4.894  0.3493  0.1366 -0.1548
  784MOL0     C 3375   8.341   6.749   4.837  0.0948 -0.1867  0.2960
  784MOL0     C 3376   8.275   6.757   4.705  0.0479 -0.9066 -0.6024
  784MOL0     C 3377   8.171   6.875   4.715  0.7319  1.0629  0.2018
  784MOL0     C 3378   8.071   6.864   4.588  0.0856  0.9915 -0.8786
  784MOL0     C 3379   7.966   6.980   4.577 -0.6679 -0.6589 -0.4517
  784MOL0     O 3380   7.906   7.020   4.699 -0.1754  0.1179  0.0817
  784MOL0     C 3381   7.808   6.936   4.751 -1.0310 -0.0759  0.1245
  784MOL0     C 3382   7.750   6.971   4.878 -0.2358  0.2239  0.4489
  784MOL0     C 3383   7.653   6.884   4.942 -0.5764 -0.5401 -0.4519
  784MOL0     C 3384   7.598   6.769   4.885 -0.2408  0.0509  0.3449
  784MOL0     C 3385   7.483   6.694   4.928 -0.6938  1.1621 -0.9032
  784MOL0     O 3386   7.419   6.727   5.041  0.1920 -0.1540 -0.4246
  784MOL0     C 3387   7.317   6.646   5.088 -0.0184 -0.3401 -0.1682
  784MOL0     C 3388   7.185   6.677   5.055 -0.1210 -0.2855 -0.7292
  784MOL0     C 3389   7.077   6.606   5.121 -0.5037  0.1380 -0.0130
  784MOL0     C 3390   7.103   6.495   5.200 -1.0122 -0.2849  0.1223
  784MOL0     O 3391   7.005   6.429   5.261  0.1362  1.2099 -0.0284
  784MOL0     C 3392   6.870   6.423   5.210  0.4768  0.0800  0.0911
  784MOL0     C 3393   6.774   6.344   5.302 -0.3081  0.0786  0.1356
  784MOL0     C 3394   6.646   6.335   5.224 -0.1147 -0.7669  0.9817
  784MOL0     C 3395   6.534   6.262   5.289  0.3184  0.1885  0.3443
  784MOL0     C 3396   6.472   6.335   5.412  0.5152 -0.6898  0.2810
  784MOL0     C 3397   6.357   6.257   5.471 -0.5234 -0.3282  0.4110
  784MOL0     C 3398   6.218   6.314   5.435  0.1603 -0.1787  1.1678
  784MOL0     C 3399   6.115   6.260   5.530 -0.3638  0.0317  0.5459
  784MOL0    Cl 3400   6.124   6.080   5.562 -0.0286  0.2678 -0.3301
  784MOL0     C 3401   7.241   6.458   5.215 -0.8243  0.1812  0.5796
  784MOL0     C 3402   7.349   6.537   5.164 -0.4795 -0.2661 -0.3677
  784MOL0     O 3403   7.457   6.590   4.860  0.3853 -0.2891 -0.4655
  784MOL0     C 3404   7.657   6.747   4.758  0.2816 -1.0394 -0.9183
  784MOL0     C 3405   7.758   6.814   4.690  1.0335 -0.5982 -0.2557
  784MOL0     N 3406   8.315   6.648   4.927 -0.8837  0.7417  0.7431
  784MOL0     N 3407   8.396   6.663   5.030  0.0744  0.4211 -0.4963
  784MOL0     C 3408   9.381   6.157   5.387 -0.3127  0.1801  0.1305
  784MOL0     C 3409   9.503   6.113   5.444  0.0379  0.1508 -0.0778
  784MOL0     C 3410   9.786   5.850   5.716 -0.3925 -0.2547 -0.0289
  784MOL0     C 3411   9.839   5.808   5.843 -0.3181 -0.0830  0.1769
  784MOL0     C 3412   9.953   5.729   5.852 -0.3324 -0.5650  0.4518
  784MOL0     C 3413  10.014   5.678   5.739  0.3268 -1.3525  0.5643
  784MOL0     O 3414  10.114   5.593   5.742 -0.7314  0.2121  0.4116
  784MOL0     C 3415  10.148   5.515   5.861  0.6486  0.3327  0.4539
  784MOL0     C 3416  10.251   5.403   5.832 -0.8216  0.2196 -0.5293
  784MOL0     C 3417  10.230   5.323   5.704 -0.5912 -0.4569  0.0892
  784MOL0     C 3418  10.282   5.398   5.577 -0.3353  0.3191 -0.0117
  784MOL0     C 3419  10.342   5.312   5.484 -0.5694  0.2081  0.5611
  784MOL0     C 3420  10.397   5.245   5.402 -0.4084 -0.1719  0.5469
  784MOL0     C 3421   9.979   5.724   5.611  0.3648 -0.0587 -0.3695
  784MOL0     C 3422   9.863   5.809   5.601  0.1371  0.0768 -0.5676
  784MOL0     H 3423   9.390   5.881   5.670  1.9642  2.4126  1.2051
  784MOL0     H 3424   9.169   5.954   5.556 -1.0953  1.8916 -1.0975
  784MOL0     H 3425   9.131   6.324   5.467 -2.4296  3.5358  1.9532
  784MOL0     H 3426   9.051   6.204   5.574  0.3274  1.9074  0.1117
  784MOL0     H 3427   8.869   6.177   5.425  2.4051 -1.6983  0.2261
  784MOL0     H 3428   8.916   6.303   5.310 -1.1929  2.2234  0.3016
  784MOL0     H 3429   8.950   6.467   5.479  1.3395 -1.8509  3.3178
  784MOL0     H 3430   8.859   6.363   5.588 -1.0519 -2.0567 -0.5157
  784MOL0     H 3431   8.652   6.383   5.421 -0.0455  1.0158  0.0355
  784MOL0     H 3432   8.706   6.523   5.510  2.2046  0.3043  0.2118
  784MOL0     H 3433   8.774   6.448   5.212 -1.0997  0.3748 -1.1365
  784MOL0     H 3434   8.841   6.587   5.304  0.3087 -0.8152  0.7702
  784MOL0     H 3435   8.585   6.657   5.345  0.6276 -0.6004  0.5808
  784MOL0     H 3436   8.547   6.557   5.209  2.3557 -1.7477 -2.8109
  784MOL0     H 3437   8.766   6.777   5.200  1.9533 -1.1739 -1.7073
  784MOL0     H 3438   8.726   6.661   5.071  1.4250  0.8285  0.1725
  784MOL0     H 3439   8.616   6.910   5.064 -0.8663 -0.6746 -0.3373
  784MOL0     H 3440   8.517   6.837   5.195  0.7095 -1.3643  0.4142
  784MOL0     H 3441   8.475   6.920   4.844  1.6527 -0.7245 -0.6298
  784MOL0     H 3442   8.229   6.659   4.692 -3.7239  0.6899 -0.4000
  784MOL0     H 3443   8.347   6.780   4.626  3.4198  1.2941  2.7514
  784MOL0     H 3444   8.220   6.973   4.721 -0.4976  1.5958  3.5530
  784MOL0     H 3445   8.117   6.858   4.808  0.8114 -2.9037 -0.3012
  784MOL0     H 3446   8.129   6.858   4.496  2.5132 -1.4514  0.6611
  784MOL0     H 3447   8.013   6.772   4.602  1.5761  0.2400  0.7416
  784MOL0     H 3448   7.880   6.964   4.512 -3.1093  3.7959  1.1963
  784MOL0     H 3449   8.023   7.064   4.534 -0.2371 -0.7912 -0.1475
  784MOL0     H 3450   7.775   7.069   4.916 -0.9067  0.1464  1.1005
  784MOL0     H 3451   7.612   6.912   5.039 -0.1368 -0.1014 -0.3895
  784MOL0     H 3452   7.165   6.766   4.997  0.7611 -0.0025 -0.6215
  784MOL0     H 3453   6.975   6.639   5.108  0.7164  3.1608 -3.6611
  784MOL0     H 3454   6.865   6.371   5.113 -0.5668 -1.4538  0.9297
  784MOL0     H 3455   6.820   6.519   5.194  0.3535 -0.0439 -0.2805
  784MOL0     H 3456   6.758   6.395   5.397 -3.0024 -0.6654  0.1737
  784MOL0     H 3457   6.825   6.249   5.322  1.3815  1.1273  1.0847
  784MOL0     H 3458   6.667   6.284   5.129 -3.5942  0.3211 -0.5359
  784MOL0     H 3459   6.591   6.425   5.196  0.6499 -0.5283  0.1996
  784MOL0     H 3460   6.455   6.249   5.215  1.6495 -2.4448 -0.7519
  784MOL0     H 3461   6.570   6.162   5.316  0.0054 -0.1353 -0.3946
  784MOL0     H 3462   6.443   6.435   5.378 -0.5689 -2.0560 -3.2097
  784MOL0     H 3463   6.558   6.352   5.478  2.6333  0.6687 -2.5674
  784MOL0     H 3464   6.352   6.257   5.580 -2.4301 -0.8627  0.3436
  784MOL0     H 3465   6.361   6.157   5.428  1.1958 -0.5723  1.0427
  784MOL0     H 3466   6.219   6.422   5.453 -1.0106  0.0088  0.2267
  784MOL0     H 3467   6.190   6.300   5.331  1.8799  2.1838  0.2815
  784MOL0     H 3468   6.014   6.291   5.504 -1.1065  0.4797  3.5581
  784MOL0     H 3469   6.130   6.313   5.625  1.6997 -0.7496  0.7256
  784MOL0     H 3470   7.269   6.374   5.278  0.8482  1.5826  1.8113
  784MOL0     H 3471   7.446   6.499   5.194 -0.9508 -0.7765  0.5321
  784MOL0     H 3472   7.623   6.662   4.701  0.2761 -1.4504 -0.3179
  784MOL0     H 3473   7.788   6.787   4.590  0.3833  2.2806 -1.3200
  784MOL0     H 3474   9.387   6.237   5.314  1.9702  0.4197  0.4963
  784MOL0     H 3475   9.603   6.137   5.410  1.1996 -2.0870  1.4887
  784MOL0     H 3476   9.783   5.825   5.935 -0.4143 -0.3957  0.1786
  784MOL0     H 3477   9.999   5.695   5.945  1.8156  0.6216 -0.0940
  784MOL0     H 3478  10.056   5.473   5.902  0.2807 -0.2976 -0.9798
  784MOL0     H 3479  10.187   5.584   5.937  3.9404 -0.6514 -0.1604
  784MOL0     H 3480  10.345   5.455   5.811 -0.5873  1.3614  2.6806
  784MOL0     H 3481  10.259   5.330   5.913  0.7009 -0.5007 -1.3016
  784MOL0     H 3482  10.128   5.288   5.687 -1.1167  0.6220  0.9657
  784MOL0     H 3483  10.288   5.230   5.703  0.1605 -0.0129  0.7931
  784MOL0     H 3484  10.199   5.453   5.531  1.3046  2.4977 -0.5129
  784MOL0     H 3485  10.355   5.478   5.595 -0.4364  0.7255 -1.2905
  784MOL0     H 3486  10.451   5.191   5.327  1.5968  1.9413  0.3686
  784MOL0     H 3487  10.043   5.686   5.532  4.2195  0.1633  2.3474
  784MOL0     H 3488   9.831   5.852   5.506 -0.4210  1.5478  0.2446
  785MOL0     O 3489   2.200   5.649   0.662 -0.4901 -0.0218 -0.3792
  785MOL0     C 3490   2.270   5.562   0.722 -0.1902  0.5166  0.5278
  785MOL0     O 3491   2.227   5.455   0.789  0.7270 -0.3723  0.6072
  785MOL0     C 3492   2.095   5.421   0.774 -0.0073  0.6520 -0.7390
  785MOL0     C 3493   2.060   5.282   0.782 -0.2073 -0.0600  0.7925
  785MOL0     C 3494   1.927   5.249   0.763  0.7255  1.2800 -0.5140
  785MOL0     C 3495   1.819   5.338   0.760 -0.6671 -0.1437  0.1507
  785MOL0     O 3496   1.690   5.307   0.741 -0.3563 -0.3517 -0.0935
  785MOL0     C 3497   1.635   5.176   0.738  0.2222  0.0070  0.0325
  785MOL0     C 3498   1.631   5.096   0.876  0.2929 -0.0313  0.3055
  785MOL0     C 3499   1.562   4.963   0.853  0.3140 -0.2446  1.1097
  785MOL0     C 3500   1.414   4.971   0.817 -0.3105 -0.2595  0.2683
  785MOL0     C 3501   1.330   4.841   0.824 -0.0928 -0.6159  0.2824
  785MOL0     C 3502   1.346   4.771   0.689 -0.0046  0.3045  0.8906
  785MOL0     C 3503   1.281   4.630   0.698  0.6500 -0.2880 -1.2772
  785MOL0     C 3504   1.270   4.544   0.575 -0.4339  0.1770 -0.0524
  785MOL0     N 3505   1.157   4.577   0.485 -0.0343 -0.2099  0.0094
  785MOL0     C 3506   1.140   4.667   0.389 -0.5578  0.0632  0.2902
  785MOL0     C 3507   1.014   4.650   0.343  0.4537  0.0587 -0.6939
  785MOL0     C 3508   0.949   4.735   0.234 -0.7099  0.0331 -0.7644
  785MOL0     C 3509   0.797   4.702   0.209 -0.6962  0.7898 -0.0329
  785MOL0     C 3510   0.746   4.750   0.081 -0.4940 -0.1063  1.0930
  785MOL0     C 3511   0.727   4.901   0.080 -0.0296  1.1415 -0.6861
  785MOL0     O 3512   0.647   4.963  -0.014 -0.3701  0.1363  0.1199
  785MOL0     C 3513   0.515   4.945   0.005 -0.2943 -0.0518 -0.6385
  785MOL0     C 3514   0.447   4.903   0.121  0.8387 -0.0995 -0.4628
  785MOL0     C 3515   0.308   4.885   0.122 -0.4418  0.5262  0.7900
  785MOL0     C 3516   0.228   4.932   0.016 -0.0825 -0.4067 -0.6397
  785MOL0     C 3517   0.083   4.923   0.026 -0.0930  0.8476 -0.8037
  785MOL0     O 3518   0.019   4.981  -0.074 -0.4809  0.0408 -0.1360
  785MOL0     C 3519  -0.115   4.942  -0.101 -0.2400  0.6272  0.4080
  785MOL0     C 3520  -0.227   4.998  -0.042 -0.5599  0.7880 -0.0947
  785MOL0     C 3521  -0.354   4.960  -0.083 -0.9283 -0.3540 -2.0542
  785MOL0     C 3522  -0.374   4.865  -0.184  0.3337 -0.4374 -0.3751
  785MOL0     O 3523  -0.495   4.835  -0.212 -0.6392 -0.7327  0.3717
  785MOL0     C 3524  -0.541   4.852  -0.346 -0.2191 -0.0901  0.5361
  785MOL0     C 3525  -0.696   4.835  -0.350  0.3950 -0.3252  0.6040
  785MOL0     C 3526  -0.785   4.940  -0.272 -0.6510 -0.7550  0.0577
  785MOL0     C 3527  -0.843   5.054  -0.357 -0.1700 -0.0885  0.3133
  785MOL0     C 3528  -0.936   5.010  -0.468 -0.1546  0.2489 -0.1597
  785MOL0     C 3529  -1.001   5.126  -0.534 -0.8307  0.5168  1.4951
  785MOL0     C 3530  -1.110   5.077  -0.627  0.4166  0.0798 -0.1674
  785MOL0     C 3531  -1.183   5.189  -0.706  0.4603 -0.0718  0.6398
  785MOL0    Cl 3532  -1.069   5.255  -0.835  0.7094 -0.1411 -0.0094
  785MOL0     C 3533  -0.260   4.800  -0.244  0.2165 -0.0146  0.3029
  785MOL0     C 3534  -0.130   4.849  -0.201 -0.7060 -0.3793  0.5059
  785MOL0     O 3535   0.029   4.863   0.117  0.7726  0.1805 -0.1830
  785MOL0     C 3536   0.305   4.979  -0.101  0.7645  0.4232 -0.3057
  785MOL0     C 3537   0.446   4.979  -0.103  0.7224 -0.1701 -0.1326
  785MOL0     N 3538   0.957   4.548   0.419  0.6665  0.4881  0.0431
  785MOL0     N 3539   1.045   4.503   0.497  0.1180  0.0050 -0.1255
  785MOL0     C 3540   1.853   5.475   0.779  0.4077 -0.0346  0.1512
  785MOL0     C 3541   1.987   5.514   0.771  0.1045  0.4147 -0.7955
  785MOL0     C 3542   2.419   5.587   0.730 -0.6028  0.4728 -0.0189
  785MOL0     C 3543   2.474   5.710   0.690 -0.6671  0.4512  0.0569
  785MOL0     C 3544   2.610   5.750   0.713  1.2895  0.3000 -0.4906
  785MOL0     C 3545   2.699   5.654   0.767 -0.0092 -0.9351  0.5362
  785MOL0     O 3546   2.833   5.684   0.799  0.1577 -0.1482  0.5700
  785MOL0     C 3547   2.887   5.814   0.776  0.0833 -0.0157 -0.2237
  785MOL0     C 3548   3.031   5.820   0.799  0.2830  0.8618  0.1871
  785MOL0     C 3549   3.051   5.825   0.963 -0.8406  0.2902  0.5972
  785MOL0     C 3550   3.193   5.786   1.006 -0.2545  0.0412  0.0001
  785MOL0     C 3551   3.202   5.795   1.152 -0.4719  0.3544 -0.3156
  785MOL0     C 3552   3.220   5.796   1.276  0.4769 -0.1956  0.3194
  785MOL0     C 3553   2.647   5.530   0.802  0.6886  0.1601  0.0990
  785MOL0     C 3554   2.508   5.501   0.789  0.4757  0.2156 -0.0822
  785MOL0     H 3555   2.145   5.214   0.787  0.1896 -0.0243 -2.8823
  785MOL0     H 3556   1.904   5.143   0.753  0.9276  1.0364  1.2801
  785MOL0     H 3557   1.702   5.120   0.672  0.6028  0.6351 -0.1231
  785MOL0     H 3558   1.537   5.196   0.696  0.1359  1.8197  0.9903
  785MOL0     H 3559   1.583   5.150   0.958 -1.5724 -0.4738 -0.4406
  785MOL0     H 3560   1.735   5.067   0.896 -0.0734 -1.0123  0.8320
  785MOL0     H 3561   1.573   4.901   0.943 -1.3507  1.1859  2.3927
  785MOL0     H 3562   1.604   4.904   0.771 -3.2796 -2.0668  0.3478
  785MOL0     H 3563   1.373   5.050   0.881  1.3937 -0.2728  1.4467
  785MOL0     H 3564   1.393   5.005   0.716 -1.4184 -2.5878 -0.3417
  785MOL0     H 3565   1.223   4.854   0.836  0.3042  0.9927  2.7103
  785MOL0     H 3566   1.378   4.784   0.904  0.0075 -0.1024  0.5903
  785MOL0     H 3567   1.453   4.759   0.670 -0.1936 -1.8792  0.8797
  785MOL0     H 3568   1.296   4.834   0.615  0.0166  2.1637  2.3895
  785MOL0     H 3569   1.340   4.572   0.770  0.0645  0.2923 -0.3014
  785MOL0     H 3570   1.183   4.655   0.742  0.8979 -1.0766 -0.2216
  785MOL0     H 3571   1.256   4.442   0.612  1.9541  0.8120  3.0094
  785MOL0     H 3572   1.368   4.561   0.530  0.1443 -0.3836  0.9631
  785MOL0     H 3573   1.214   4.743   0.365  2.3495 -2.9155 -0.9054
  785MOL0     H 3574   1.001   4.710   0.142 -3.0348  0.7587 -2.3614
  785MOL0     H 3575   0.957   4.841   0.261  0.3721 -1.0070  4.0910
  785MOL0     H 3576   0.734   4.732   0.293  2.0496  1.8626  1.8075
  785MOL0     H 3577   0.788   4.593   0.207  1.3942  0.4899  2.2994
  785MOL0     H 3578   0.825   4.726   0.009 -1.5538 -1.7613  0.4348
  785MOL0     H 3579   0.651   4.703   0.055 -0.4200  0.6831 -0.7918
  785MOL0     H 3580   0.830   4.939   0.083  0.5381 -0.3470 -0.4097
  785MOL0     H 3581   0.700   4.932   0.181 -1.8859  0.2917 -0.8892
  785MOL0     H 3582   0.486   4.889   0.221 -1.8406  2.3827  1.0603
  785MOL0     H 3583   0.258   4.873   0.218 -2.8644 -1.5401 -0.6018
  785MOL0     H 3584  -0.214   5.071   0.037  0.5983  1.5249 -0.9322
  785MOL0     H 3585  -0.439   5.005  -0.032  0.3303 -1.6843  1.5749
  785MOL0     H 3586  -0.476   4.800  -0.417  3.6500  0.8271  3.1128
  785MOL0     H 3587  -0.520   4.957  -0.370 -0.3778 -0.3793 -0.9707
  785MOL0     H 3588  -0.717   4.733  -0.314 -0.3463 -0.9129 -1.3596
  785MOL0     H 3589  -0.737   4.846  -0.451 -0.6265  3.5342  1.2710
  785MOL0     H 3590  -0.731   4.980  -0.186 -0.4695  0.2077 -0.4906
  785MOL0     H 3591  -0.878   4.899  -0.231 -1.0447  0.1692  0.1148
  785MOL0     H 3592  -0.895   5.120  -0.287 -0.1153  0.0955  0.1821
  785MOL0     H 3593  -0.754   5.103  -0.398 -0.0674  0.0841  0.7447
  785MOL0     H 3594  -1.002   4.940  -0.416  1.7884 -0.3846  1.5593
  785MOL0     H 3595  -0.886   4.958  -0.551 -2.6639 -0.0943 -1.5458
  785MOL0     H 3596  -0.917   5.170  -0.589 -0.1840 -1.8074  0.4563
  785MOL0     H 3597  -1.040   5.206  -0.471 -2.5032  3.0705 -2.4305
  785MOL0     H 3598  -1.068   5.002  -0.694  2.6870  1.2324 -0.1412
  785MOL0     H 3599  -1.185   5.023  -0.567  0.1236  1.2914  0.6008
  785MOL0     H 3600  -1.209   5.271  -0.638 -0.5906  0.3928 -0.2984
  785MOL0     H 3601  -1.267   5.150  -0.764  1.2917 -0.4668 -0.3350
  785MOL0     H 3602  -0.277   4.736  -0.330 -0.0892  1.0371 -0.4374
  785MOL0     H 3603  -0.051   4.810  -0.265 -1.5960 -0.6105 -0.4884
  785MOL0     H 3604   0.258   5.010  -0.193  0.5550 -0.9743 -0.6824
  785MOL0     H 3605   0.508   5.006  -0.187  3.0578 -3.1483  0.4515
  785MOL0     H 3606   1.770   5.544   0.770 -0.4949 -1.3548 -3.1612
  785MOL0     H 3607   2.003   5.620   0.790  0.2633  0.1311  0.7749
  785MOL0     H 3608   2.408   5.785   0.649 -2.1746  0.9147  3.0576
  785MOL0     H 3609   2.639   5.852   0.689  0.4915  0.0513 -2.7472
  785MOL0     H 3610   2.846   5.896   0.836 -0.8289 -0.4906 -0.1787
  785MOL0     H 3611   2.857   5.846   0.676 -2.5094 -2.0863 -0.2197
  785MOL0     H 3612   3.071   5.728   0.756 -0.0561  0.5259  0.5908
  785MOL0     H 3613   3.070   5.908   0.746  2.0833  0.2686  0.4344
  785MOL0     H 3614   2.981   5.754   1.009 -0.3890 -0.3923  0.2416
  785MOL0     H 3615   3.020   5.926   0.993  0.1176  0.2534  1.7816
  785MOL0     H 3616   3.221   5.684   0.980 -2.5431 -0.7490  0.4290
  785MOL0     H 3617   3.264   5.855   0.959 -0.4279 -0.0894 -0.4558
  785MOL0     H 3618   3.232   5.780   1.382  0.2693 -3.5740 -0.0435
  785MOL0     H 3619   2.719   5.463   0.848  0.6590 -0.2129 -0.3994
  785MOL0     H 3620   2.473   5.400   0.809  0.2105  0.7610  2.6934
  786MOL0     O 3621   7.967   7.549  10.327  0.1001  0.6128  0.0306
  786MOL0     C 3622   7.950   7.439  10.282  0.0274  0.7382 -0.6480
  786MOL0     O 3623   7.853   7.346  10.312  0.2475  0.5117  0.3251
  786MOL0     C 3624   7.780   7.355  10.426  0.6059  0.4738 -0.2062
  786MOL0     C 3625   7.669   7.264  10.423  0.8971  0.3357 -0.1480
  786MOL0     C 3626   7.566   7.253  10.525 -0.8187  0.1684 -0.3576
  786MOL0     C 3627   7.580   7.330  10.644 -0.5230  0.1199 -0.3114
  786MOL0     O 3628   7.494   7.329  10.755  0.6980  0.1434  0.6462
  786MOL0     C 3629   7.351   7.309  10.731  0.4023 -0.0702 -0.9090
  786MOL0     C 3630   7.268   7.339  10.858 -0.8264 -0.0947  0.4353
  786MOL0     C 3631   7.142   7.415  10.836  0.6975  0.2995  0.9515
  786MOL0     C 3632   7.063   7.415  10.969  0.3779 -0.4962  0.1019
  786MOL0     C 3633   6.910   7.425  10.944  0.4292 -0.2783 -0.0609
  786MOL0     C 3634   6.832   7.375  11.064  0.0691  0.0241 -0.3797
  786MOL0     C 3635   6.682   7.362  11.029  0.0979  0.7759 -0.3551
  786MOL0     C 3636   6.582   7.309  11.133 -1.0539  0.5595 -0.9397
  786MOL0     N 3637   6.448   7.370  11.130 -0.0116  0.2986  0.1692
  786MOL0     C 3638   6.343   7.311  11.062 -0.5393  0.1113 -0.3358
  786MOL0     C 3639   6.237   7.389  11.078 -0.0581 -0.0735  0.6955
  786MOL0     C 3640   6.102   7.360  11.019  0.4258 -0.3820 -0.0053
  786MOL0     C 3641   5.993   7.363  11.128 -0.1839  0.5484  0.6143
  786MOL0     C 3642   6.006   7.229  11.208 -0.8202 -0.2463 -0.1950
  786MOL0     C 3643   5.902   7.227  11.312  0.3976 -0.5474  0.1822
  786MOL0     O 3644   5.773   7.177  11.263  0.3700  0.0584 -0.5378
  786MOL0     C 3645   5.682   7.139  11.362  0.4141  0.2052 -0.3150
  786MOL0     C 3646   5.586   7.047  11.328  0.8018 -0.4066  0.1762
  786MOL0     C 3647   5.506   6.995  11.424  1.0478 -0.1948  0.7346
  786MOL0     C 3648   5.505   7.039  11.557 -0.4101 -0.4604 -0.3445
  786MOL0     C 3649   5.417   6.979  11.659 -0.1877 -0.1367  0.8212
  786MOL0     O 3650   5.332   6.876  11.623  0.0274 -0.9279 -0.2009
  786MOL0     C 3651   5.238   6.834  11.711  0.0432  0.3658  0.2361
  786MOL0     C 3652   5.282   6.777  11.831 -0.3070 -0.3094  0.2766
  786MOL0     C 3653   5.184   6.733  11.921 -0.1207 -0.7396  0.1671
  786MOL0     C 3654   5.042   6.737  11.890 -0.8315 -0.2844 -0.1249
  786MOL0     O 3655   4.957   6.690  11.982  0.1796  0.7181 -0.0451
  786MOL0     C 3656   4.815   6.673  11.964  0.3014 -0.5114  0.9088
  786MOL0     C 3657   4.762   6.614  12.097  0.2942 -0.1987  0.0421
  786MOL0     C 3658   4.621   6.572  12.076  0.1031 -0.4493 -0.3888
  786MOL0     C 3659   4.541   6.528  12.195 -0.1924 -1.1450 -0.2863
  786MOL0     C 3660   4.401   6.515  12.155  0.4319  0.8235  0.3354
  786MOL0     C 3661   4.325   6.453  12.270 -0.0727  0.0184  0.4669
  786MOL0     C 3662   4.331   6.293  12.262 -0.6946 -0.6000  0.4914
  786MOL0     C 3663   4.293   6.228  12.395 -0.0861  0.3783 -0.6283
  786MOL0    Cl 3664   4.375   6.073  12.409  0.1193  0.0030 -0.0285
  786MOL0     C 3665   5.003   6.794  11.764 -0.0176 -0.3375  0.2447
  786MOL0     C 3666   5.103   6.843  11.683 -0.0702 -0.5684  0.2943
  786MOL0     O 3667   5.411   7.046  11.763  0.3984  0.0210  0.6288
  786MOL0     C 3668   5.599   7.140  11.586 -0.7699  0.4977  0.3029
  786MOL0     C 3669   5.694   7.189  11.495 -0.2581  0.1661 -0.2383
  786MOL0     N 3670   6.271   7.494  11.159  0.2462  0.0703  0.8704
  786MOL0     N 3671   6.397   7.486  11.189  0.6146  0.1216 -0.4554
  786MOL0     C 3672   7.697   7.407  10.657 -0.1914  0.2855 -0.6772
  786MOL0     C 3673   7.796   7.430  10.554  0.7389  0.6535  0.6682
  786MOL0     C 3674   8.020   7.404  10.163  0.3739 -0.6960  1.8182
  786MOL0     C 3675   8.057   7.504  10.066  0.4232  0.2034  0.3274
  786MOL0     C 3676   8.113   7.471   9.947  0.2030 -0.4851  0.2445
  786MOL0     C 3677   8.118   7.341   9.899 -0.3037  0.2695  0.2691
  786MOL0     O 3678   8.180   7.295   9.785  0.0836 -0.6925  0.3282
  786MOL0     C 3679   8.170   7.377   9.672  0.0254 -0.3829  0.1440
  786MOL0     C 3680   8.238   7.312   9.552 -0.5440  0.1277 -0.0484
  786MOL0     C 3681   8.395   7.318   9.559 -0.5149 -0.5745  0.2747
  786MOL0     C 3682   8.456   7.277   9.428  0.4751 -0.3454  0.7644
  786MOL0     C 3683   8.592   7.224   9.438 -0.8376  0.5714  0.5182
  786MOL0     C 3684   8.709   7.187   9.445  1.0283  0.2942 -0.1799
  786MOL0     C 3685   8.072   7.242   9.991 -0.1842 -0.0630 -0.3339
  786MOL0     C 3686   8.018   7.270  10.114  0.2044 -0.0370  0.1080
  786MOL0     H 3687   7.664   7.190  10.343  1.4032 -3.8127  3.2552
  786MOL0     H 3688   7.491   7.175  10.512  0.8599 -1.2207 -2.4795
  786MOL0     H 3689   7.318   7.210  10.699 -0.1199 -0.1713 -0.0915
  786MOL0     H 3690   7.332   7.392  10.663  1.2928  0.2214 -0.8174
  786MOL0     H 3691   7.325   7.407  10.923 -2.2906  2.5889 -0.9343
  786MOL0     H 3692   7.247   7.247  10.914 -1.0593 -1.7759 -2.2703
  786MOL0     H 3693   7.085   7.353  10.766  0.9110  1.3923 -0.2177
  786MOL0     H 3694   7.167   7.508  10.785  0.4426 -1.1865 -2.1501
  786MOL0     H 3695   7.076   7.319  11.020  3.2396  0.1501  0.7568
  786MOL0     H 3696   7.102   7.494  11.033 -1.2692  0.8438 -0.5055
  786MOL0     H 3697   6.886   7.375  10.850  0.4208  0.1026 -0.2621
  786MOL0     H 3698   6.885   7.528  10.920 -2.3337 -1.0315 -0.8528
  786MOL0     H 3699   6.859   7.443  11.145  1.6119 -2.4208  1.2818
  786MOL0     H 3700   6.868   7.277  11.097 -0.3611 -0.9846 -2.7310
  786MOL0     H 3701   6.654   7.465  11.005 -2.6693  1.1470  3.6286
  786MOL0     H 3702   6.658   7.299  10.942  0.1476 -0.1740  0.3080
  786MOL0     H 3703   6.624   7.326  11.233 -3.1328 -2.5580  0.6374
  786MOL0     H 3704   6.577   7.200  11.119  1.9121  0.0671  0.9326
  786MOL0     H 3705   6.332   7.217  11.009 -4.5564  0.3267 -0.1764
  786MOL0     H 3706   6.104   7.264  10.966 -0.4867 -0.5060  0.1568
  786MOL0     H 3707   6.080   7.441  10.949  1.9099  1.0478  1.1032
  786MOL0     H 3708   5.903   7.360  11.065  0.6899 -0.3233 -0.6427
  786MOL0     H 3709   5.998   7.457  11.183 -1.1402  0.6044  0.6163
  786MOL0     H 3710   6.000   7.142  11.142 -1.9685 -0.2182 -0.1479
  786MOL0     H 3711   6.101   7.229  11.261 -0.3252  0.1752 -1.0557
  786MOL0     H 3712   5.884   7.325  11.357  0.7183 -1.1410  1.7001
  786MOL0     H 3713   5.938   7.163  11.394  0.0041  0.7345  1.3935
  786MOL0     H 3714   5.593   6.987  11.237 -0.8163  0.5064 -0.6139
  786MOL0     H 3715   5.432   6.920  11.399 -0.6172  1.9056 -0.9747
  786MOL0     H 3716   5.387   6.770  11.860 -0.4537 -0.4277  0.7832
  786MOL0     H 3717   5.221   6.701  12.018 -0.1749  2.3742  1.3357
  786MOL0     H 3718   4.799   6.602  11.882  1.4267  0.7104 -0.4210
  786MOL0     H 3719   4.765   6.766  11.936 -0.2716 -0.2714  2.5764
  786MOL0     H 3720   4.769   6.691  12.175  0.1979 -0.1844  0.0366
  786MOL0     H 3721   4.817   6.522  12.122 -1.2244 -1.7188 -1.9411
  786MOL0     H 3722   4.599   6.498  11.998 -2.4189 -1.9283  1.5570
  786MOL0     H 3723   4.574   6.665  12.042  0.2311 -1.4827 -3.7326
  786MOL0     H 3724   4.576   6.429  12.223  0.0842  0.0230  4.1016
  786MOL0     H 3725   4.550   6.595  12.281 -1.8216 -1.9422  0.5449
  786MOL0     H 3726   4.391   6.453  12.065  0.2578 -0.2798  1.0983
  786MOL0     H 3727   4.358   6.615  12.147 -0.4703  0.3881 -0.5869
  786MOL0     H 3728   4.224   6.493  12.261 -0.3870 -0.0535  2.9222
  786MOL0     H 3729   4.360   6.484  12.369  0.4885 -2.8131  1.2417
  786MOL0     H 3730   4.249   6.269  12.194  1.0634  0.8426 -2.3029
  786MOL0     H 3731   4.430   6.260  12.230 -1.0817 -3.1861  1.6957
  786MOL0     H 3732   4.188   6.197  12.399  1.1891 -4.6683  1.6438
  786MOL0     H 3733   4.318   6.285  12.485 -0.4633 -0.1631 -0.1693
  786MOL0     H 3734   4.899   6.805  11.735 -0.5991 -1.4950  1.7043
  786MOL0     H 3735   5.077   6.881  11.585  1.1486  0.8274  0.4878
  786MOL0     H 3736   5.615   7.169  11.690  0.8470  0.3940  0.1209
  786MOL0     H 3737   5.775   7.256  11.522 -0.3459 -0.0551  0.6024
  786MOL0     H 3738   7.705   7.465  10.748 -0.1819  3.1674 -2.4002
  786MOL0     H 3739   7.872   7.503  10.577  0.9044  0.1453  1.7819
  786MOL0     H 3740   8.043   7.607  10.098 -2.2542 -0.1594  0.5772
  786MOL0     H 3741   8.148   7.559   9.894 -1.5742  2.3072  3.3207
  786MOL0     H 3742   8.222   7.472   9.690  1.0926 -0.8257 -0.5227
  786MOL0     H 3743   8.068   7.407   9.643  1.2260  2.2216 -1.8035
  786MOL0     H 3744   8.192   7.213   9.545  0.2587 -0.2808  0.2177
  786MOL0     H 3745   8.204   7.365   9.463 -0.7254 -0.4645 -0.3398
  786MOL0     H 3746   8.430   7.251   9.638 -0.5530  1.2251  1.8921
  786MOL0     H 3747   8.435   7.418   9.579  0.8367 -0.8347 -0.8839
  786MOL0     H 3748   8.387   7.201   9.390 -0.2842  0.7142 -0.0528
  786MOL0     H 3749   8.466   7.363   9.361 -1.3088 -3.7039 -4.4292
  786MOL0     H 3750   8.807   7.149   9.466  0.7738 -0.3796 -0.2072
  786MOL0     H 3751   8.093   7.139   9.964 -0.9495 -0.2479 -0.2389
  786MOL0     H 3752   7.987   7.191  10.181  0.1737  0.9943  1.3601
  787MOL0     O 3753   5.044   1.959  10.962 -0.3136 -0.4382  0.3919
  787MOL0     C 3754   4.969   2.060  10.982 -0.0734  0.7719 -0.8489
  787MOL0     O 3755   4.832   2.043  11.015  0.2142 -0.1715 -0.9671
  787MOL0     C 3756   4.764   1.923  11.020 -0.1593  0.6219 -0.1185
  787MOL0     C 3757   4.782   1.823  10.927 -0.6601  0.5388  0.7280
  787MOL0     C 3758   4.719   1.701  10.930 -0.5380  0.0623  0.3076
  787MOL0     C 3759   4.607   1.690  11.008 -0.0726 -0.8241 -0.4360
  787MOL0     O 3760   4.511   1.589  11.012  0.2995  0.7915  0.6978
  787MOL0     C 3761   4.524   1.479  10.920  0.1696  0.3163 -0.1916
  787MOL0     C 3762   4.417   1.370  10.943 -0.2249  0.0031 -0.2088
  787MOL0     C 3763   4.277   1.428  10.944 -0.2224 -0.4749  0.7282
  787MOL0     C 3764   4.181   1.347  11.026 -0.2149  0.6028 -0.2333
  787MOL0     C 3765   4.042   1.401  11.014  0.2251  0.1292  0.0535
  787MOL0     C 3766   3.944   1.354  11.124 -0.3655  1.3713  0.0202
  787MOL0     C 3767   3.959   1.197  11.160 -1.3805  0.0987 -0.2210
  787MOL0     C 3768   3.860   1.140  11.271 -0.1656  0.0571 -0.8944
  787MOL0     N 3769   3.862   0.992  11.287 -0.0223  0.1549  0.6574
  787MOL0     C 3770   3.829   0.902  11.190  0.6298  0.2448  0.8248
  787MOL0     C 3771   3.819   0.786  11.264  0.4391 -0.7838 -0.2326
  787MOL0     C 3772   3.750   0.669  11.194  0.2751 -0.2772 -0.0817
  787MOL0     C 3773   3.783   0.532  11.257  0.2473  0.3687  0.0371
  787MOL0     C 3774   3.720   0.412  11.188 -0.9647  0.3834  0.1624
  787MOL0     C 3775   3.579   0.389  11.243  0.1803  0.5901 -0.1145
  787MOL0     O 3776   3.542   0.251  11.251  0.0638 -0.3336 -0.0345
  787MOL0     C 3777   3.415   0.216  11.274 -0.3859 -0.1093 -0.1176
  787MOL0     C 3778   3.361   0.097  11.241  0.1318 -0.0627  0.5315
  787MOL0     C 3779   3.226   0.063  11.240  0.4525 -0.6055  0.4531
  787MOL0     C 3780   3.135   0.159  11.297 -0.2679 -0.2109  0.0576
  787MOL0     C 3781   2.994   0.122  11.311  0.7761  0.2426  0.4865
  787MOL0     O 3782   2.925   0.201  11.398  0.7093 -0.0886  0.4871
  787MOL0     C 3783   2.795   0.181  11.440 -0.2758 -0.0324  1.3822
  787MOL0     C 3784   2.731   0.056  11.473 -0.1593  1.0002  0.6251
  787MOL0     C 3785   2.596   0.049  11.506  0.3053 -0.4041  1.0642
  787MOL0     C 3786   2.519   0.163  11.537 -0.1680 -1.2358  0.3366
  787MOL0     O 3787   2.386   0.141  11.575 -0.8040 -0.6681  0.3937
  787MOL0     C 3788   2.315   0.250  11.638  0.1371 -0.0540  0.2381
  787MOL0     C 3789   2.208   0.194  11.734  0.1346 -0.0022 -0.0004
  787MOL0     C 3790   2.128   0.311  11.789 -0.3529  0.1599  0.1920
  787MOL0     C 3791   2.014   0.259  11.876  0.7318  0.0660  0.8075
  787MOL0     C 3792   1.912   0.366  11.925 -0.5088 -0.4807 -0.6628
  787MOL0     C 3793   1.806   0.395  11.822 -0.3270 -0.0018  0.1397
  787MOL0     C 3794   1.705   0.276  11.792  0.1940 -0.2626  0.5580
  787MOL0     C 3795   1.607   0.303  11.675  0.3176 -1.1168 -0.8274
  787MOL0    Cl 3796   1.457   0.207  11.677  0.1988 -0.1126  0.1069
  787MOL0     C 3797   2.579   0.292  11.515  1.8335  0.3702  0.1033
  787MOL0     C 3798   2.705   0.296  11.464  0.0440 -0.0620  0.2922
  787MOL0     O 3799   2.947   0.027  11.241 -0.0197  0.3796 -0.2182
  787MOL0     C 3800   3.184   0.283  11.339  0.0432  0.5050 -0.4964
  787MOL0     C 3801   3.321   0.306  11.326  0.0552  0.0108 -0.4746
  787MOL0     N 3802   3.845   0.814  11.400 -0.3554 -0.4139 -0.2728
  787MOL0     N 3803   3.883   0.939  11.412 -0.2733  0.4698  0.4266
  787MOL0     C 3804   4.575   1.796  11.096  0.7641 -0.0011 -0.0496
  787MOL0     C 3805   4.652   1.916  11.104  0.1512 -0.3126  1.4317
  787MOL0     C 3806   5.014   2.192  10.957 -0.3482 -0.9844  0.4391
  787MOL0     C 3807   4.926   2.300  10.950 -0.0043  1.1308  0.1742
  787MOL0     C 3808   4.978   2.426  10.942  0.1765 -0.8438 -0.2456
  787MOL0     C 3809   5.116   2.451  10.929  0.0554 -0.3994 -0.0645
  787MOL0     O 3810   5.154   2.585  10.922  0.3787  0.8362 -0.0044
  787MOL0     C 3811   5.288   2.610  10.879  0.0383  0.2607 -0.3770
  787MOL0     C 3812   5.309   2.755  10.837  0.3923  0.4681  0.5441
  787MOL0     C 3813   5.270   2.861  10.939 -0.8680 -0.6985 -0.2590
  787MOL0     C 3814   5.316   3.005  10.903 -1.2071 -0.6500 -0.0517
  787MOL0     C 3815   5.463   3.011  10.881 -0.6732 -0.3303  0.3902
  787MOL0     C 3816   5.578   3.023  10.864 -0.0618  0.7989 -0.0170
  787MOL0     C 3817   5.205   2.343  10.919 -0.2341 -0.1614  0.6579
  787MOL0     C 3818   5.151   2.218  10.926 -0.0133 -0.4563  0.2474
  787MOL0     H 3819   4.847   1.844  10.843 -3.1306  0.8211 -1.2533
  787MOL0     H 3820   4.747   1.619  10.866  2.7059 -0.5367  2.3106
  787MOL0     H 3821   4.619   1.424  10.925  0.2370  0.4623  0.1334
  787MOL0     H 3822   4.513   1.523  10.820 -0.8413  3.2403  1.0868
  787MOL0     H 3823   4.445   1.319  11.035  0.6412 -0.4232 -0.6975
  787MOL0     H 3824   4.433   1.297  10.863 -0.5850  1.6655 -1.8915
  787MOL0     H 3825   4.244   1.443  10.841 -1.8786 -1.2795  1.1026
  787MOL0     H 3826   4.267   1.526  10.991  0.6639 -0.7225  1.4674
  787MOL0     H 3827   4.193   1.248  10.980 -0.1033 -0.3224  1.6967
  787MOL0     H 3828   4.218   1.352  11.128 -2.2039  0.3089  0.5494
  787MOL0     H 3829   4.002   1.385  10.914 -2.6127  0.3528  1.0688
  787MOL0     H 3830   4.044   1.509  11.034  0.8988 -0.1801  1.8132
  787MOL0     H 3831   3.841   1.367  11.088  0.0299  0.5931 -1.4520
  787MOL0     H 3832   3.959   1.404  11.221 -1.3888 -0.9089  1.4399
  787MOL0     H 3833   3.946   1.155  11.060 -1.0766  0.8915 -0.5959
  787MOL0     H 3834   4.061   1.185  11.197 -1.2150  2.2020  0.1198
  787MOL0     H 3835   3.759   1.174  11.247 -0.1950 -0.5561 -1.6967
  787MOL0     H 3836   3.885   1.176  11.371 -0.3575  0.6581 -1.0602
  787MOL0     H 3837   3.807   0.918  11.085  0.0972  3.0115  1.2957
  787MOL0     H 3838   3.770   0.669  11.087  0.2516  1.7491 -0.1193
  787MOL0     H 3839   3.643   0.693  11.197  0.3155  0.0391 -0.8716
  787MOL0     H 3840   3.769   0.536  11.365  3.1396  4.1062  0.4686
  787MOL0     H 3841   3.891   0.525  11.246  0.2579 -2.3979  1.1217
  787MOL0     H 3842   3.716   0.446  11.084  2.6635  0.0994 -0.1874
  787MOL0     H 3843   3.785   0.324  11.189 -2.6778 -1.0991 -3.0119
  787MOL0     H 3844   3.518   0.442  11.168  0.0309 -0.0903 -0.4795
  787MOL0     H 3845   3.564   0.436  11.341  0.3371 -0.1451  0.2695
  787MOL0     H 3846   3.441   0.032  11.205 -0.1792 -0.6197  0.8211
  787MOL0     H 3847   3.185  -0.031  11.204 -1.2652  0.7180 -1.2770
  787MOL0     H 3848   2.800  -0.027  11.464  2.4019  3.2266 -3.4221
  787MOL0     H 3849   2.548  -0.048  11.521 -2.2161  0.2667 -1.7007
  787MOL0     H 3850   2.262   0.307  11.561 -2.2021  0.3517  2.0516
  787MOL0     H 3851   2.388   0.310  11.693  0.8929 -1.4028  0.7765
  787MOL0     H 3852   2.254   0.125  11.806 -2.7432 -3.1431 -0.8530
  787MOL0     H 3853   2.138   0.129  11.679 -0.1696  0.5206 -0.2404
  787MOL0     H 3854   2.083   0.376  11.714  0.7461  0.0174 -0.6202
  787MOL0     H 3855   2.186   0.381  11.849 -2.9996  1.4278  1.4466
  787MOL0     H 3856   1.954   0.181  11.826 -2.3430  1.6255  1.7957
  787MOL0     H 3857   2.066   0.208  11.958  2.2073  0.2045 -0.0178
  787MOL0     H 3858   1.963   0.461  11.946  1.6651 -1.4739 -1.2568
  787MOL0     H 3859   1.855   0.341  12.015  1.2387 -0.4967  0.4834
  787MOL0     H 3860   1.872   0.425  11.739 -1.0945  1.0134 -0.1244
  787MOL0     H 3861   1.752   0.488  11.843 -0.8731  0.4634 -2.8360
  787MOL0     H 3862   1.770   0.193  11.763  1.8911  0.4403  2.1683
  787MOL0     H 3863   1.653   0.242  11.882  0.2426  1.5971  1.3346
  787MOL0     H 3864   1.654   0.278  11.579 -3.3431  0.0410 -3.1496
  787MOL0     H 3865   1.585   0.410  11.669  0.2011 -1.1658 -1.3917
  787MOL0     H 3866   2.532   0.381  11.557 -0.3423 -1.1939  1.1514
  787MOL0     H 3867   2.728   0.402  11.453  0.7581 -0.3797 -1.6041
  787MOL0     H 3868   3.119   0.358  11.382 -1.0797  0.0659 -1.3698
  787MOL0     H 3869   3.352   0.402  11.367 -0.8518 -0.1962  0.7394
  787MOL0     H 3870   4.491   1.791  11.165  0.7208  4.1342  0.4158
  787MOL0     H 3871   4.634   2.003  11.166 -0.2813  1.2098 -0.7016
  787MOL0     H 3872   4.819   2.287  10.963 -0.2809  1.6232 -1.3351
  787MOL0     H 3873   4.912   2.511  10.956  1.1548  0.2644 -1.9745
  787MOL0     H 3874   5.297   2.547  10.791 -0.1421 -1.6052  0.8906
  787MOL0     H 3875   5.359   2.580  10.957  0.8066 -2.1352 -1.8947
  787MOL0     H 3876   5.415   2.766  10.810  0.1501 -0.1839 -0.7417
  787MOL0     H 3877   5.247   2.771  10.749 -1.8493 -0.8791  1.8018
  787MOL0     H 3878   5.309   2.838  11.038 -0.9359  1.3328  0.2962
  787MOL0     H 3879   5.161   2.851  10.934 -0.9081 -0.6637  0.4047
  787MOL0     H 3880   5.264   3.039  10.812 -0.3224 -2.0403 -1.1126
  787MOL0     H 3881   5.287   3.081  10.976 -0.0722  1.5442 -1.7420
  787MOL0     H 3882   5.682   3.022  10.837  0.0677  1.3258  0.4511
  787MOL0     H 3883   5.309   2.365  10.901 -0.4798  0.4176 -0.1402
  787MOL0     H 3884   5.224   2.138  10.922 -0.4035 -0.9415  2.0607
  788MOL0     O 3885   4.832   5.875   8.438 -0.2801 -0.2496 -0.0018
  788MOL0     C 3886   4.898   5.824   8.345  0.7583  0.5628 -0.4632
  788MOL0     O 3887   4.861   5.713   8.277 -0.5303 -0.4075  0.1744
  788MOL0     C 3888   4.753   5.644   8.313  0.1711  0.9281 -0.5265
  788MOL0     C 3889   4.628   5.658   8.257 -0.3967 -0.0801 -0.1044
  788MOL0     C 3890   4.521   5.582   8.293 -0.1485 -0.2649 -0.2221
  788MOL0     C 3891   4.536   5.473   8.378 -0.5482 -0.0202  0.3418
  788MOL0     O 3892   4.433   5.387   8.391  1.1222  0.4488 -0.2078
  788MOL0     C 3893   4.438   5.263   8.460  0.4519  0.1377 -0.3671
  788MOL0     C 3894   4.389   5.274   8.613 -0.3712 -0.1492 -0.2996
  788MOL0     C 3895   4.242   5.288   8.641 -0.2629  0.0246  0.2734
  788MOL0     C 3896   4.204   5.268   8.788  0.2900 -0.4397  0.0516
  788MOL0     C 3897   4.054   5.278   8.809  0.7836 -0.4376  0.4806
  788MOL0     C 3898   3.969   5.170   8.738 -0.3597  0.0516  1.0699
  788MOL0     C 3899   3.821   5.169   8.787  0.4866 -0.2044 -0.7143
  788MOL0     C 3900   3.742   5.307   8.780 -0.8889  0.4727  0.3491
  788MOL0     N 3901   3.615   5.301   8.849 -0.5247  0.1276  0.2385
  788MOL0     C 3902   3.565   5.399   8.932 -0.1054  0.5178  0.1147
  788MOL0     C 3903   3.447   5.339   8.986 -0.2320 -0.1992  0.8409
  788MOL0     C 3904   3.345   5.418   9.067 -0.1965 -0.5320  0.2263
  788MOL0     C 3905   3.266   5.522   8.991  0.2631  0.0346  0.1440
  788MOL0     C 3906   3.130   5.474   8.960  0.3728  0.1092 -0.1080
  788MOL0     C 3907   3.123   5.344   8.879  0.0135  1.1105 -0.7331
  788MOL0     O 3908   2.992   5.300   8.855 -0.0129  0.9317 -0.8609
  788MOL0     C 3909   2.917   5.239   8.952  0.6907  0.6234 -0.1860
  788MOL0     C 3910   2.954   5.202   9.081 -0.1240 -0.1640 -0.7252
  788MOL0     C 3911   2.859   5.154   9.174  0.8869  0.0818  0.3043
  788MOL0     C 3912   2.722   5.150   9.138 -0.7289 -0.4158  1.1399
  788MOL0     C 3913   2.624   5.091   9.230  0.7718  0.8691 -1.4646
  788MOL0     O 3914   2.669   5.077   9.362 -0.2674  0.3263 -0.2983
  788MOL0     C 3915   2.589   5.019   9.456 -0.5301 -0.5659  0.3713
  788MOL0     C 3916   2.455   4.981   9.452  0.0418 -0.0170 -0.3264
  788MOL0     C 3917   2.383   4.973   9.576  0.3988 -0.1421 -0.7249
  788MOL0     C 3918   2.447   4.956   9.697  0.1457 -0.6801 -0.2657
  788MOL0     O 3919   2.370   4.930   9.808  0.1274  0.8690 -0.2655
  788MOL0     C 3920   2.428   4.929   9.942 -0.0419 -0.4642  0.4993
  788MOL0     C 3921   2.343   4.869  10.052  0.6686 -0.4363 -0.9956
  788MOL0     C 3922   2.194   4.910  10.056 -0.6364  0.8305  0.5278
  788MOL0     C 3923   2.124   4.828  10.163  0.2553  0.3128  0.1381
  788MOL0     C 3924   2.001   4.753  10.118  0.2003 -0.0470  0.4057
  788MOL0     C 3925   1.946   4.676  10.240 -1.0341 -0.2570 -0.1174
  788MOL0     C 3926   1.801   4.633  10.221 -0.4178  0.7172 -0.4119
  788MOL0     C 3927   1.744   4.544  10.335  0.2741  0.6399  0.2412
  788MOL0    Cl 3928   1.766   4.375  10.309  0.2045 -0.1561 -0.3447
  788MOL0     C 3929   2.589   4.983   9.696  0.0802 -0.1432 -0.5996
  788MOL0     C 3930   2.655   5.016   9.575 -0.2514 -1.0201  0.2519
  788MOL0     O 3931   2.513   5.071   9.187 -0.1408 -0.3300 -0.1409
  788MOL0     C 3932   2.685   5.188   9.004 -0.5543 -0.3123 -0.0891
  788MOL0     C 3933   2.783   5.234   8.915  0.3853  0.1404 -0.3959
  788MOL0     N 3934   3.447   5.209   8.951  0.4687 -1.0000  0.0948
  788MOL0     N 3935   3.540   5.191   8.865  0.0948  0.6904  0.4487
  788MOL0     C 3936   4.657   5.465   8.446 -0.0638 -0.1460 -0.2927
  788MOL0     C 3937   4.769   5.549   8.420 -0.2397  0.6241 -0.6223
  788MOL0     C 3938   5.027   5.878   8.309  0.1414 -0.4745 -0.0925
  788MOL0     C 3939   5.057   6.011   8.346 -0.9248  0.0687 -0.2551
  788MOL0     C 3940   5.177   6.073   8.307 -0.0242  0.5493  0.4781
  788MOL0     C 3941   5.264   6.003   8.226  0.4951 -0.0571 -0.5252
  788MOL0     O 3942   5.384   6.063   8.190  0.1883  0.6742  0.2772
  788MOL0     C 3943   5.499   5.996   8.150 -0.5010  0.1862  0.1501
  788MOL0     C 3944   5.617   6.095   8.125 -0.0257 -0.3933 -0.9253
  788MOL0     C 3945   5.725   6.020   8.053  0.0495 -0.6527  1.0715
  788MOL0     C 3946   5.839   6.115   8.008 -0.1799  0.6544 -0.7091
  788MOL0     C 3947   5.969   6.044   8.007  0.5829  0.1706 -0.4176
  788MOL0     C 3948   6.070   5.983   7.999 -0.5128 -0.4146 -0.3341
  788MOL0     C 3949   5.238   5.870   8.191  0.5110  0.7854  0.5654
  788MOL0     C 3950   5.113   5.811   8.233 -0.6516  0.5465  0.6859
  788MOL0     H 3951   4.626   5.740   8.185  0.9976  0.0808  0.0110
  788MOL0     H 3952   4.426   5.594   8.242 -1.8004 -0.5179  2.6095
  788MOL0     H 3953   4.543   5.230   8.467  0.5118  0.5304  0.8205
  788MOL0     H 3954   4.372   5.197   8.403 -1.5636  2.2763 -0.6138
  788MOL0     H 3955   4.438   5.358   8.663 -1.2151 -0.4885  1.1508
  788MOL0     H 3956   4.430   5.190   8.671 -1.1982 -0.0576  0.4476
  788MOL0     H 3957   4.181   5.211   8.592 -4.0228  3.4045 -0.8979
  788MOL0     H 3958   4.203   5.383   8.604 -0.1743  0.4091  1.1418
  788MOL0     H 3959   4.241   5.170   8.822  1.5426  0.2921  0.8612
  788MOL0     H 3960   4.248   5.348   8.849  0.2602  0.0204 -0.5290
  788MOL0     H 3961   4.018   5.377   8.779 -0.8107 -1.5617 -1.5757
  788MOL0     H 3962   4.033   5.259   8.915  1.5037 -1.3082  0.4718
  788MOL0     H 3963   4.029   5.079   8.751  1.0943  0.4158 -2.1660
  788MOL0     H 3964   3.968   5.184   8.630  1.1129  1.3263  1.1898
  788MOL0     H 3965   3.754   5.107   8.726 -4.1832  3.5230  0.0942
  788MOL0     H 3966   3.813   5.127   8.888  0.2874  0.2669 -0.5302
  788MOL0     H 3967   3.735   5.326   8.673 -1.3297 -3.6666 -0.5444
  788MOL0     H 3968   3.795   5.381   8.840 -0.2833  0.3991 -0.0866
  788MOL0     H 3969   3.597   5.501   8.950 -1.2671  0.6316  1.7025
  788MOL0     H 3970   3.404   5.471   9.141 -1.2238  0.2444  0.5149
  788MOL0     H 3971   3.280   5.355   9.128 -0.3839 -2.0715 -1.4569
  788MOL0     H 3972   3.318   5.533   8.895 -0.8708 -0.1539 -0.5060
  788MOL0     H 3973   3.270   5.619   9.040 -1.6750  0.1298  0.1980
  788MOL0     H 3974   3.068   5.482   9.050 -1.2463 -2.2030 -0.9163
  788MOL0     H 3975   3.087   5.549   8.892  1.9968  1.6632  0.4961
  788MOL0     H 3976   3.179   5.266   8.931 -2.1262  0.1521  0.2543
  788MOL0     H 3977   3.156   5.363   8.777  1.1351  0.2024 -0.5543
  788MOL0     H 3978   3.057   5.198   9.114  0.0613  1.8127 -0.9601
  788MOL0     H 3979   2.893   5.131   9.274  2.7725  1.9278  0.1448
  788MOL0     H 3980   2.394   4.972   9.363 -0.6446  0.8103  0.0451
  788MOL0     H 3981   2.275   4.972   9.567  0.4040  0.9557 -1.0633
  788MOL0     H 3982   2.461   5.029   9.972 -0.6012 -0.4681  1.1541
  788MOL0     H 3983   2.519   4.869   9.933  0.6961  0.8887 -1.9068
  788MOL0     H 3984   2.379   4.902  10.149 -3.0288 -0.6648  0.6312
  788MOL0     H 3985   2.363   4.762  10.057  0.3448 -0.4469  0.5819
  788MOL0     H 3986   2.149   4.904   9.957  0.2886 -0.2234  0.1571
  788MOL0     H 3987   2.183   5.015  10.087 -3.4699  0.6811  0.3243
  788MOL0     H 3988   2.195   4.761  10.212 -2.3350 -0.9991  2.3905
  788MOL0     H 3989   2.084   4.898  10.237 -2.3990 -0.0741 -0.8118
  788MOL0     H 3990   2.014   4.683  10.035 -0.9073 -0.3633  0.4773
  788MOL0     H 3991   1.924   4.827  10.094 -3.1485 -1.4845  5.1705
  788MOL0     H 3992   1.957   4.754  10.317  0.1147 -0.2315 -0.2911
  788MOL0     H 3993   2.013   4.592  10.262  0.0724  0.8833  1.0398
  788MOL0     H 3994   1.736   4.720  10.205  0.5919  1.3402 -1.2373
  788MOL0     H 3995   1.817   4.565  10.137 -0.0719 -0.5855  0.6694
  788MOL0     H 3996   1.636   4.560  10.336 -0.0377 -1.2554  0.1390
  788MOL0     H 3997   1.780   4.573  10.435 -2.0473 -1.2863  1.7462
  788MOL0     H 3998   2.643   4.974   9.790 -1.8900 -2.3913  0.4074
  788MOL0     H 3999   2.758   5.051   9.586 -1.2859  1.6369  2.6753
  788MOL0     H 4000   2.583   5.191   8.967 -0.0651  1.5314 -1.4197
  788MOL0     H 4001   2.744   5.268   8.820 -2.9514  0.5894  1.0034
  788MOL0     H 4002   4.670   5.384   8.517  0.3695  1.2516  1.2897
  788MOL0     H 4003   4.866   5.542   8.468 -1.7162  0.8016  2.6493
  788MOL0     H 4004   4.985   6.072   8.399 -0.3843 -0.0645  0.6395
  788MOL0     H 4005   5.190   6.172   8.350 -2.2577  0.0676  2.4834
  788MOL0     H 4006   5.478   5.935   8.062  0.0984 -2.1037  1.5089
  788MOL0     H 4007   5.533   5.925   8.226 -0.3696  0.8497  0.7329
  788MOL0     H 4008   5.580   6.180   8.068 -1.7778 -0.0761  0.5973
  788MOL0     H 4009   5.658   6.132   8.220  0.7478 -2.0644 -0.5650
  788MOL0     H 4010   5.682   5.967   7.968  2.4776 -0.6749 -0.2362
  788MOL0     H 4011   5.762   5.954   8.132 -0.2729  0.7151  2.4213
  788MOL0     H 4012   5.829   6.165   7.912 -3.6012 -1.2089 -1.4873
  788MOL0     H 4013   5.852   6.191   8.086  0.6310 -2.2057  2.2051
  788MOL0     H 4014   6.159   5.924   8.004 -1.5417 -2.0565 -0.4733
  788MOL0     H 4015   5.305   5.821   8.121  1.4508  3.0911 -0.2785
  788MOL0     H 4016   5.085   5.716   8.188 -1.4445  0.9012  0.4145
  789MOL0     O 4017   6.418  10.354   9.174  0.3036  0.5290 -0.7116
  789MOL0     C 4018   6.467  10.246   9.217 -0.5274  0.5976  0.8073
  789MOL0     O 4019   6.401  10.128   9.238 -0.2520  0.8629 -1.5379
  789MOL0     C 4020   6.267  10.111   9.234 -0.8470  0.2373 -0.4638
  789MOL0     C 4021   6.167  10.208   9.197  1.1273 -0.3720 -0.1246
  789MOL0     C 4022   6.030  10.175   9.195 -0.1714  0.1257  0.3953
  789MOL0     C 4023   5.988  10.045   9.225 -0.0731 -0.0375 -0.4762
  789MOL0     O 4024   5.853  10.005   9.224 -0.3620 -0.5915 -0.3525
  789MOL0     C 4025   5.747  10.098   9.213 -0.2009  0.5238 -0.4233
  789MOL0     C 4026   5.611  10.024   9.243  0.1546  0.3856  0.7615
  789MOL0     C 4027   5.482  10.097   9.215  0.4078 -0.3944  0.5700
  789MOL0     C 4028   5.479  10.212   9.320  1.1216 -0.8500 -0.3559
  789MOL0     C 4029   5.352  10.290   9.301  0.8722 -1.2223 -0.2244
  789MOL0     C 4030   5.338  10.422   9.388  0.1989 -0.5365 -0.6196
  789MOL0     C 4031   5.202  10.493   9.368  0.0600  0.3431  0.3600
  789MOL0     C 4032   5.190  10.570   9.230 -0.7136 -0.0746  0.2583
  789MOL0     N 4033   5.064  10.624   9.202  0.2433  0.5473 -0.6559
  789MOL0     C 4034   4.965  10.674   9.285 -0.4143  0.0812  0.0125
  789MOL0     C 4035   4.873  10.736   9.211 -0.8760  0.4130  0.2327
  789MOL0     C 4036   4.768  10.833   9.237  0.0027 -0.4081 -0.9514
  789MOL0     C 4037   4.636  10.771   9.265  0.1211 -0.2045 -0.9743
  789MOL0     C 4038   4.531  10.887   9.291  0.6274 -0.6976 -1.3803
  789MOL0     C 4039   4.393  10.818   9.292  0.8427 -0.2734 -0.4105
  789MOL0     O 4040   4.353  10.776   9.423  0.4127 -0.3776  0.1840
  789MOL0     C 4041   4.238  10.704   9.441 -0.0528 -0.2492  0.2164
  789MOL0     C 4042   4.210  10.689   9.578 -0.1860  0.4521 -0.0598
  789MOL0     C 4043   4.087  10.635   9.617  0.2984 -0.7818  0.0219
  789MOL0     C 4044   3.991  10.585   9.528 -0.3920 -0.2959 -0.0286
  789MOL0     C 4045   3.860  10.528   9.574  0.4732  0.3991  0.3703
  789MOL0     O 4046   3.774  10.502   9.470 -0.0703 -0.0545 -0.2500
  789MOL0     C 4047   3.653  10.442   9.492 -0.1831 -0.1762  0.1365
  789MOL0     C 4048   3.642  10.306   9.516  0.0350 -0.1072 -0.1101
  789MOL0     C 4049   3.516  10.248   9.531 -0.1666 -0.9572  0.3647
  789MOL0     C 4050   3.397  10.327   9.514 -0.5510  0.2924 -0.2920
  789MOL0     O 4051   3.277  10.262   9.520 -0.1542 -0.5916  0.5839
  789MOL0     C 4052   3.155  10.316   9.484 -0.9354 -0.2714  0.3329
  789MOL0     C 4053   3.054  10.207   9.475 -0.7845  0.1566  0.4330
  789MOL0     C 4054   2.912  10.266   9.461  0.6747 -1.4564 -0.2083
  789MOL0     C 4055   2.803  10.166   9.497  0.6298  0.6150 -0.6227
  789MOL0     C 4056   2.668  10.232   9.463  0.9010  0.3935  0.5350
  789MOL0     C 4057   2.566  10.154   9.540  0.0233 -0.1463  0.3769
  789MOL0     C 4058   2.416  10.193   9.508  0.1924  0.3565  0.5541
  789MOL0     C 4059   2.314  10.091   9.568 -0.0085 -0.3476 -0.1773
  789MOL0    Cl 4060   2.350  10.104   9.739  0.5903 -0.3255  0.4522
  789MOL0     C 4061   3.415  10.462   9.492  0.0340 -1.2190 -0.0822
  789MOL0     C 4062   3.536  10.515   9.478 -0.4477 -0.0023 -0.2651
  789MOL0     O 4063   3.838  10.506   9.699 -0.0059 -0.3581 -0.3489
  789MOL0     C 4064   4.023  10.599   9.392  0.4852  0.6361  0.0216
  789MOL0     C 4065   4.146  10.660   9.351  0.2457  0.0436 -0.1407
  789MOL0     N 4066   4.911  10.704   9.079 -0.4520 -0.4086  0.0241
  789MOL0     N 4067   5.016  10.633   9.079 -0.4094 -0.6240  0.5158
  789MOL0     C 4068   6.085   9.949   9.247 -0.5455 -0.5873  0.6503
  789MOL0     C 4069   6.220   9.980   9.253 -0.0900  0.3159  0.2726
  789MOL0     C 4070   6.618  10.247   9.214  0.2590  0.2556 -0.2180
  789MOL0     C 4071   6.690  10.133   9.223  0.1763  0.2558 -0.2120
  789MOL0     C 4072   6.828  10.139   9.226  0.0304 -0.3455  0.0432
  789MOL0     C 4073   6.906  10.263   9.221 -0.2799 -0.2624  0.0481
  789MOL0     O 4074   7.040  10.275   9.212  0.1893  0.1495  0.2044
  789MOL0     C 4075   7.129  10.159   9.217  0.0637  0.0959 -0.0246
  789MOL0     C 4076   7.276  10.193   9.174 -0.0333 -0.2865 -0.0802
  789MOL0     C 4077   7.356  10.072   9.219  0.3579  0.6273  0.2837
  789MOL0     C 4078   7.495  10.071   9.148 -0.0588 -0.0722 -0.1627
  789MOL0     C 4079   7.600  10.147   9.216 -0.2027 -0.6197 -0.5864
  789MOL0     C 4080   7.685  10.207   9.283 -0.1567 -0.3939  0.6137
  789MOL0     C 4081   6.827  10.380   9.205 -0.3282 -0.6493 -0.4433
  789MOL0     C 4082   6.684  10.370   9.200  0.7357  0.5790  0.5902
  789MOL0     H 4083   6.181  10.314   9.178 -4.6338  1.0132  1.2516
  789MOL0     H 4084   5.967  10.261   9.171  1.7220  0.7761 -2.6696
  789MOL0     H 4085   5.752  10.134   9.109 -2.4769  1.8196 -0.1614
  789MOL0     H 4086   5.769  10.179   9.283 -0.6742 -0.2948  0.6975
  789MOL0     H 4087   5.604   9.989   9.346 -2.1202 -1.2012  0.1564
  789MOL0     H 4088   5.611   9.929   9.187 -0.8245  0.3634  0.7698
  789MOL0     H 4089   5.389  10.039   9.215  0.4342 -0.5888 -2.3531
  789MOL0     H 4090   5.489  10.128   9.110 -1.6746 -1.6940 -0.0112
  789MOL0     H 4091   5.488  10.168   9.420 -2.3158 -3.2110 -0.8933
  789MOL0     H 4092   5.560  10.282   9.297 -1.4153  2.0407 -1.1553
  789MOL0     H 4093   5.257  10.239   9.319 -0.6452  1.3800 -0.3385
  789MOL0     H 4094   5.344  10.318   9.196 -0.8342 -3.6394 -0.8028
  789MOL0     H 4095   5.417  10.498   9.384 -0.5100  0.5012  2.3590
  789MOL0     H 4096   5.342  10.388   9.492  1.9717  0.5612 -0.2828
  789MOL0     H 4097   5.122  10.419   9.378  0.7415 -0.2788  1.2606
  789MOL0     H 4098   5.177  10.559   9.451  0.7194 -0.8164  1.5248
  789MOL0     H 4099   5.223  10.507   9.147  1.2346  0.2528  0.7351
  789MOL0     H 4100   5.267  10.648   9.231 -1.1071  0.3207  1.5414
  789MOL0     H 4101   4.964  10.683   9.393  0.1751 -1.1209  0.1339
  789MOL0     H 4102   4.762  10.906   9.156  4.8106  2.2391  0.6714
  789MOL0     H 4103   4.801  10.885   9.328 -4.5489  1.2895 -0.0129
  789MOL0     H 4104   4.645  10.705   9.351 -1.1715  1.0306  0.1548
  789MOL0     H 4105   4.614  10.706   9.179  1.3532  2.4404 -3.4444
  789MOL0     H 4106   4.555  10.936   9.385  1.2302 -2.1956 -0.7288
  789MOL0     H 4107   4.528  10.971   9.220 -2.4678  1.9554  1.5316
  789MOL0     H 4108   4.391  10.730   9.228 -5.1565 -0.3768 -0.6513
  789MOL0     H 4109   4.326  10.895   9.254  0.2033 -0.2126  0.7733
  789MOL0     H 4110   4.292  10.706   9.647  0.1077  1.0756 -0.5538
  789MOL0     H 4111   4.069  10.626   9.724 -1.0970  0.4123 -0.0901
  789MOL0     H 4112   3.730  10.243   9.527  1.0572  1.4403  0.9289
  789MOL0     H 4113   3.498  10.144   9.557 -5.1108 -0.5812 -0.6873
  789MOL0     H 4114   3.170  10.356   9.383  2.2820 -0.8469  0.4907
  789MOL0     H 4115   3.131  10.407   9.539 -0.9223  1.1916 -1.9190
  789MOL0     H 4116   3.073  10.151   9.567  1.2437 -0.7939 -0.5097
  789MOL0     H 4117   3.078  10.146   9.388  1.3114  1.6729 -0.1228
  789MOL0     H 4118   2.892  10.298   9.358 -3.9613 -0.4947  0.7812
  789MOL0     H 4119   2.892  10.350   9.528 -0.0600  0.8288 -3.0998
  789MOL0     H 4120   2.810  10.073   9.440 -1.4473 -0.2027  0.3394
  789MOL0     H 4121   2.821  10.137   9.601  2.6277 -0.0189 -1.1041
  789MOL0     H 4122   2.641  10.222   9.357 -0.9070 -0.1225  1.0127
  789MOL0     H 4123   2.672  10.340   9.480  0.1019  0.3066  1.3244
  789MOL0     H 4124   2.587  10.184   9.643 -0.4871  1.8151 -0.0578
  789MOL0     H 4125   2.575  10.047   9.518 -0.3167 -0.0733 -0.1256
  789MOL0     H 4126   2.389  10.297   9.530  3.4171  2.3988 -3.5737
  789MOL0     H 4127   2.394  10.189   9.401  0.5803 -0.2267  0.4919
  789MOL0     H 4128   2.328   9.987   9.535 -1.5077 -0.5158 -0.3452
  789MOL0     H 4129   2.210  10.116   9.544  0.5079  4.2174  1.3698
  789MOL0     H 4130   3.329  10.527   9.485 -0.2733 -1.5269  0.7213
  789MOL0     H 4131   3.541  10.622   9.461 -1.6626 -0.1516 -1.7964
  789MOL0     H 4132   3.963  10.552   9.315  0.0172  3.9080 -1.7839
  789MOL0     H 4133   4.164  10.653   9.244 -2.1180 -1.7474 -0.5115
  789MOL0     H 4134   6.034   9.857   9.274 -0.8579  0.1448  2.6744
  789MOL0     H 4135   6.290   9.901   9.277  0.6877  0.7735 -0.4829
  789MOL0     H 4136   6.638  10.038   9.234 -2.3549  1.7034  1.6850
  789MOL0     H 4137   6.868  10.040   9.246  1.0361 -0.6656 -3.0810
  789MOL0     H 4138   7.081  10.084   9.153 -1.4629  1.6859 -0.8109
  789MOL0     H 4139   7.122  10.123   9.320 -0.8956 -1.0299 -0.4501
  789MOL0     H 4140   7.281  10.217   9.068  0.2785  0.9383  0.1901
  789MOL0     H 4141   7.309  10.288   9.218  0.1561  0.4186 -1.6683
  789MOL0     H 4142   7.298   9.981   9.201  0.0095  0.0465  3.6705
  789MOL0     H 4143   7.357  10.063   9.328 -0.9185  0.5516  0.3052
  789MOL0     H 4144   7.532   9.968   9.151  0.7771  0.0931 -2.4115
  789MOL0     H 4145   7.486  10.105   9.044 -0.9469  1.9173  0.5232
  789MOL0     H 4146   7.765  10.271   9.314 -0.1307 -0.4907  0.7448
  789MOL0     H 4147   6.877  10.476   9.196 -0.9654 -0.2492  0.1604
  789MOL0     H 4148   6.624  10.460   9.198 -0.3882 -0.1068 -2.1022
  790MOL0     O 4149   9.103   1.163   8.284 -0.2313 -0.1106  0.0432
  790MOL0     C 4150   9.104   1.204   8.399  1.1583 -0.3856 -0.1131
  790MOL0     O 4151   9.010   1.177   8.490  0.8511 -0.7204  0.0976
  790MOL0     C 4152   8.896   1.116   8.437 -0.2680  0.1287 -0.5231
  790MOL0     C 4153   8.815   1.181   8.345  0.2503  0.5884  0.8163
  790MOL0     C 4154   8.691   1.118   8.309 -0.3314  0.4295  0.9255
  790MOL0     C 4155   8.661   0.995   8.376  0.2307 -0.0782 -0.5153
  790MOL0     O 4156   8.551   0.918   8.370  0.7539  0.4932  0.2512
  790MOL0     C 4157   8.444   0.970   8.279 -0.7569 -0.3253 -0.6955
  790MOL0     C 4158   8.317   0.901   8.331 -0.5270  0.6160  0.3423
  790MOL0     C 4159   8.198   0.906   8.239  0.3788 -0.4329 -1.0212
  790MOL0     C 4160   8.082   0.843   8.309  0.5946  0.3381  0.3738
  790MOL0     C 4161   7.973   0.860   8.210  0.3298 -0.3569  0.3067
  790MOL0     C 4162   7.874   0.753   8.250 -0.1845 -0.2540  0.2824
  790MOL0     C 4163   7.746   0.763   8.162  0.5658  0.6145  0.7032
  790MOL0     C 4164   7.633   0.679   8.228 -0.8873  0.5010  0.9319
  790MOL0     N 4165   7.589   0.745   8.352  0.1594  0.1727 -0.2928
  790MOL0     C 4166   7.508   0.855   8.365 -0.4595  0.0847  0.1520
  790MOL0     C 4167   7.511   0.885   8.498 -0.0342 -0.2125  0.0045
  790MOL0     C 4168   7.447   1.007   8.563  0.1984  0.5907 -0.2676
  790MOL0     C 4169   7.365   0.964   8.682  0.2470  0.4016 -0.3325
  790MOL0     C 4170   7.271   1.081   8.716  0.6390  0.6448 -0.4549
  790MOL0     C 4171   7.175   1.028   8.828 -0.0838 -0.4107  0.8354
  790MOL0     O 4172   7.096   1.141   8.868 -0.7890 -0.2730  0.4580
  790MOL0     C 4173   6.960   1.126   8.894 -0.6821  0.1044  1.5999
  790MOL0     C 4174   6.880   1.236   8.871 -0.6345  0.1286  0.1688
  790MOL0     C 4175   6.739   1.217   8.874 -0.2211 -0.5465 -0.2856
  790MOL0     C 4176   6.681   1.099   8.934 -0.2851  1.1549 -0.5951
  790MOL0     C 4177   6.532   1.098   8.958 -0.6750 -0.6713  0.2720
  790MOL0     O 4178   6.479   0.981   9.003  0.4032  0.2839 -0.6109
  790MOL0     C 4179   6.348   0.982   9.046 -0.2921 -0.0639 -0.6563
  790MOL0     C 4180   6.318   1.051   9.167 -0.2769 -0.2453  0.5938
  790MOL0     C 4181   6.193   1.037   9.225  1.0615 -0.6938 -0.3523
  790MOL0     C 4182   6.102   0.935   9.185 -0.5479 -0.2837 -0.4122
  790MOL0     O 4183   5.978   0.928   9.246  0.1143 -0.1378  0.5995
  790MOL0     C 4184   5.911   0.807   9.243 -0.7187 -0.0140 -0.4662
  790MOL0     C 4185   5.791   0.841   9.323  1.2710 -0.3940 -0.4148
  790MOL0     C 4186   5.687   0.737   9.331 -0.4668  0.0133  0.1729
  790MOL0     C 4187   5.592   0.722   9.449 -0.0741 -0.2268 -0.3323
  790MOL0     C 4188   5.472   0.829   9.443 -0.5029  0.1691 -0.1864
  790MOL0     C 4189   5.382   0.801   9.566 -0.3738  0.9246  0.2642
  790MOL0     C 4190   5.272   0.914   9.562 -0.3260 -0.1079 -0.3632
  790MOL0     C 4191   5.176   0.914   9.681  0.1761  0.2051 -0.0166
  790MOL0    Cl 4192   5.054   0.793   9.651 -0.2792 -0.1803 -0.0751
  790MOL0     C 4193   6.136   0.861   9.071 -1.1238  0.0487  0.2840
  790MOL0     C 4194   6.256   0.887   9.001 -0.4586  0.0666  0.7249
  790MOL0     O 4195   6.462   1.196   8.925 -0.1009 -0.0682  0.5216
  790MOL0     C 4196   6.766   0.995   8.973  0.6058 -0.4743 -0.0836
  790MOL0     C 4197   6.903   1.006   8.935  0.6223 -0.3398 -0.4126
  790MOL0     N 4198   7.579   0.788   8.563 -0.4237  0.4428 -0.4918
  790MOL0     N 4199   7.609   0.701   8.474 -0.7514  0.7479 -0.2153
  790MOL0     C 4200   8.740   0.938   8.478  0.4264  0.0033  0.8497
  790MOL0     C 4201   8.864   0.998   8.496  0.1419  1.0664 -0.0102
  790MOL0     C 4202   9.229   1.277   8.446  0.2582 -0.1731 -0.1705
  790MOL0     C 4203   9.225   1.364   8.558  0.1768  0.0440  0.2821
  790MOL0     C 4204   9.350   1.428   8.601  0.4331  0.8470  0.3118
  790MOL0     C 4205   9.464   1.418   8.524  0.1916  0.0510 -0.6712
  790MOL0     O 4206   9.579   1.488   8.555 -0.6253 -0.3563  0.2357
  790MOL0     C 4207   9.587   1.570   8.672  1.5841 -0.0956 -0.0190
  790MOL0     C 4208   9.713   1.651   8.688 -0.1458 -0.7965 -0.4903
  790MOL0     C 4209   9.823   1.560   8.745 -0.7670 -0.4201  0.1470
  790MOL0     C 4210   9.953   1.638   8.774 -0.7109 -0.2387 -0.3133
  790MOL0     C 4211  10.049   1.554   8.847 -0.1403  0.1005  0.2516
  790MOL0     C 4212  10.118   1.471   8.919  0.6142 -0.0819  0.4332
  790MOL0     C 4213   9.464   1.338   8.413  0.5210 -0.6742  0.4281
  790MOL0     C 4214   9.348   1.264   8.367  0.8786 -0.0764 -0.8141
  790MOL0     H 4215   8.849   1.274   8.300  2.6853 -0.0027  1.2712
  790MOL0     H 4216   8.626   1.172   8.242 -1.4610  0.8764  2.3196
  790MOL0     H 4217   8.464   0.928   8.180 -2.0735 -1.9417 -0.3272
  790MOL0     H 4218   8.424   1.077   8.279  0.8434  0.0901  2.2331
  790MOL0     H 4219   8.292   0.953   8.424  0.2663  0.1160  0.8511
  790MOL0     H 4220   8.331   0.795   8.355 -0.0314  0.2473 -1.4281
  790MOL0     H 4221   8.218   0.859   8.142  0.0781 -1.2406 -0.6956
  790MOL0     H 4222   8.165   1.008   8.216  0.7479 -0.4554 -1.6961
  790MOL0     H 4223   8.106   0.738   8.332  0.2590  0.0945 -0.3748
  790MOL0     H 4224   8.049   0.899   8.398  0.8108  0.7031  0.2247
  790MOL0     H 4225   8.016   0.837   8.112  1.4726  1.5818  0.2833
  790MOL0     H 4226   7.921   0.954   8.191  1.7741  0.4735  0.3065
  790MOL0     H 4227   7.846   0.785   8.351 -1.0492  1.2195 -0.3790
  790MOL0     H 4228   7.911   0.651   8.246 -1.3582 -0.6871  0.1862
  790MOL0     H 4229   7.722   0.870   8.156  3.3170  1.2442 -0.8710
  790MOL0     H 4230   7.764   0.729   8.060  0.5073  1.7020  0.3102
  790MOL0     H 4231   7.661   0.577   8.255 -3.0518 -0.9968 -1.9219
  790MOL0     H 4232   7.554   0.673   8.153 -0.3532  0.4444  0.3595
  790MOL0     H 4233   7.451   0.908   8.289 -1.3659 -2.9286 -1.4338
  790MOL0     H 4234   7.393   1.067   8.489 -0.2631 -2.0732 -2.2443
  790MOL0     H 4235   7.529   1.066   8.605  0.9296 -1.4890  1.4116
  790MOL0     H 4236   7.434   0.928   8.759 -1.9852 -2.0888  0.6601
  790MOL0     H 4237   7.304   0.877   8.657  2.0045 -1.1176  0.4240
  790MOL0     H 4238   7.319   1.173   8.750 -1.7966  1.3651  1.2543
  790MOL0     H 4239   7.210   1.097   8.627 -0.4784 -2.1467 -0.2762
  790MOL0     H 4240   7.234   0.984   8.908  1.2655 -0.9196 -0.3857
  790MOL0     H 4241   7.116   0.945   8.788  0.1444 -0.8255  1.3487
  790MOL0     H 4242   6.914   1.338   8.856 -1.1131  0.2372 -0.2001
  790MOL0     H 4243   6.673   1.300   8.848 -1.5067 -1.8063 -1.2003
  790MOL0     H 4244   6.380   1.129   9.210 -0.9710  0.1794  0.8412
  790MOL0     H 4245   6.168   1.103   9.307 -0.1759  2.1851 -2.8503
  790MOL0     H 4246   5.976   0.728   9.284  1.3105  1.0620 -1.4543
  790MOL0     H 4247   5.878   0.775   9.144 -0.3035 -0.5243 -0.4460
  790MOL0     H 4248   5.752   0.936   9.285 -2.3953 -2.1448 -1.5389
  790MOL0     H 4249   5.830   0.858   9.424  0.0551 -0.4944  0.0924
  790MOL0     H 4250   5.742   0.642   9.332 -0.7129 -0.1329 -0.0224
  790MOL0     H 4251   5.635   0.735   9.234 -0.1464  3.6807 -0.2128
  790MOL0     H 4252   5.553   0.620   9.440  1.6105 -0.7342 -3.0290
  790MOL0     H 4253   5.643   0.728   9.545  1.4930 -1.7195 -1.0142
  790MOL0     H 4254   5.423   0.829   9.345 -0.9769  1.2382  0.0453
  790MOL0     H 4255   5.518   0.927   9.452  0.4687  0.0087 -2.5919
  790MOL0     H 4256   5.438   0.806   9.659  1.0437 -0.1075 -0.4920
  790MOL0     H 4257   5.339   0.703   9.548  2.2317 -0.3854  0.6546
  790MOL0     H 4258   5.322   1.011   9.557  0.1403 -0.3759 -1.0512
  790MOL0     H 4259   5.206   0.907   9.474  0.8022 -2.9255 -1.1011
  790MOL0     H 4260   5.126   1.011   9.668 -0.5429 -0.1651 -0.0281
  790MOL0     H 4261   5.222   0.897   9.778  1.0200  0.8059 -0.2987
  790MOL0     H 4262   6.070   0.785   9.030  0.3474 -2.8091  2.7860
  790MOL0     H 4263   6.273   0.824   8.915  0.0520 -0.5198  1.2397
  790MOL0     H 4264   6.725   0.909   9.026  0.3582 -1.2234 -1.4383
  790MOL0     H 4265   6.965   0.920   8.957  0.6381  0.1332  1.6433
  790MOL0     H 4266   8.724   0.841   8.524 -3.3836 -0.5022 -1.1758
  790MOL0     H 4267   8.927   0.958   8.574 -1.7537 -0.0106  1.0277
  790MOL0     H 4268   9.132   1.378   8.611  1.3421  2.2513  1.9457
  790MOL0     H 4269   9.342   1.493   8.688 -1.6891  2.1039 -0.7535
  790MOL0     H 4270   9.567   1.498   8.752 -0.0573  0.2722 -0.0514
  790MOL0     H 4271   9.509   1.647   8.669  1.9110  0.2802  0.8260
  790MOL0     H 4272   9.739   1.683   8.586 -0.2491 -0.9517 -0.5652
  790MOL0     H 4273   9.695   1.742   8.746 -0.5886  0.7870 -2.9308
  790MOL0     H 4274   9.852   1.486   8.669  1.8882  1.7436 -1.1548
  790MOL0     H 4275   9.778   1.512   8.832 -0.3032  0.7788  1.0730
  790MOL0     H 4276  10.002   1.672   8.682  1.1769 -1.3818  0.2400
  790MOL0     H 4277   9.940   1.729   8.834  3.8280 -1.4177  2.9026
  790MOL0     H 4278  10.190   1.410   8.968  0.1290 -1.1447 -0.1497
  790MOL0     H 4279   9.556   1.340   8.355 -0.3621  2.8144 -1.1176
  790MOL0     H 4280   9.346   1.202   8.278  2.6556 -1.4097  0.0167
  791MOL0     O 4281   6.396  10.072   3.903 -0.9615  0.2521  0.6111
  791MOL0     C 4282   6.484  10.153   3.889  0.3058 -0.1708 -0.2141
  791MOL0     O 4283   6.481  10.268   3.814 -0.1362  0.4105  0.5590
  791MOL0     C 4284   6.361  10.323   3.789 -0.2773  0.2056 -0.2375
  791MOL0     C 4285   6.322  10.329   3.649 -0.0853 -0.6330 -0.1120
  791MOL0     C 4286   6.203  10.396   3.621  0.2844 -0.0595  0.1771
  791MOL0     C 4287   6.115  10.439   3.726 -0.4085  0.6008  0.1762
  791MOL0     O 4288   5.993  10.488   3.687  0.2275 -0.1342 -0.2197
  791MOL0     C 4289   5.954  10.617   3.743 -0.1358  0.9898 -0.5193
  791MOL0     C 4290   5.841  10.658   3.649  1.2054  0.1439 -0.8299
  791MOL0     C 4291   5.770  10.784   3.695  0.1686  0.0312 -0.3297
  791MOL0     C 4292   5.870  10.909   3.694 -0.3819  0.2240  0.1306
  791MOL0     C 4293   5.797  11.040   3.663 -0.3602  0.2546 -0.3339
  791MOL0     C 4294   5.897  11.157   3.626 -0.3202 -0.5508  0.3842
  791MOL0     C 4295   5.832  11.296   3.601  0.2898  0.1155 -0.5587
  791MOL0     C 4296   5.920  11.419   3.577 -0.7626  0.9355 -0.2585
  791MOL0     N 4297   6.015  11.428   3.693 -0.3212  0.6881 -0.2928
  791MOL0     C 4298   6.153  11.420   3.696  0.5799 -0.2326 -0.2358
  791MOL0     C 4299   6.187  11.418   3.825  0.3120  0.0900 -1.0666
  791MOL0     C 4300   6.329  11.408   3.871  0.5971 -0.4314 -0.6383
  791MOL0     C 4301   6.392  11.275   3.820  1.2884  0.4492 -0.6063
  791MOL0     C 4302   6.311  11.147   3.854  0.4604  0.2086  0.4153
  791MOL0     C 4303   6.274  11.126   3.999  0.4519 -0.1961  0.6109
  791MOL0     O 4304   6.202  10.998   4.008 -0.5288 -0.6903 -0.2267
  791MOL0     C 4305   6.068  10.999   4.037 -0.0245  1.0833  0.3733
  791MOL0     C 4306   6.021  10.879   4.073  0.9932  0.4649  0.5109
  791MOL0     C 4307   5.888  10.852   4.087 -0.5641  0.2149  0.4454
  791MOL0     C 4308   5.793  10.951   4.064 -0.2937  0.2571  0.3976
  791MOL0     C 4309   5.649  10.930   4.089 -0.3681  0.5562  0.0946
  791MOL0     O 4310   5.567  11.042   4.069 -0.0833 -0.5427  0.7814
  791MOL0     C 4311   5.433  11.040   4.073 -0.1775 -0.3123  0.0876
  791MOL0     C 4312   5.360  10.929   4.054 -0.5348  0.5503 -0.6347
  791MOL0     C 4313   5.223  10.938   4.057  0.6071 -0.1069  0.6813
  791MOL0     C 4314   5.156  11.064   4.048 -0.0243  0.1322  0.2787
  791MOL0     O 4315   5.015  11.062   4.043  0.2938 -0.0642 -0.4157
  791MOL0     C 4316   4.941  11.172   3.999 -1.2914 -0.6368 -0.4250
  791MOL0     C 4317   4.806  11.174   4.074 -0.0240  0.2698 -0.4387
  791MOL0     C 4318   4.714  11.276   4.012  0.3520  0.1369 -0.2573
  791MOL0     C 4319   4.571  11.284   4.064  0.9523  0.2089 -0.7074
  791MOL0     C 4320   4.494  11.401   3.995 -0.4510  1.1176 -0.3754
  791MOL0     C 4321   4.351  11.419   4.060  0.1403 -0.6120  0.2977
  791MOL0     C 4322   4.258  11.509   3.973 -0.7660  0.4614 -0.8975
  791MOL0     C 4323   4.111  11.503   4.021 -0.5082 -0.1939 -0.0953
  791MOL0    Cl 4324   4.103  11.622   4.151  0.2650  0.6883 -0.1381
  791MOL0     C 4325   5.230  11.184   4.059  0.3628  0.6957  0.1880
  791MOL0     C 4326   5.373  11.160   4.075  0.7468 -0.5476 -0.2053
  791MOL0     O 4327   5.616  10.819   4.130  0.3876  0.0562  0.7165
  791MOL0     C 4328   5.841  11.080   4.030  0.7112  0.3051 -0.0414
  791MOL0     C 4329   5.975  11.104   4.014 -0.0172 -0.2972 -0.5258
  791MOL0     N 4330   6.077  11.426   3.903  0.2385 -0.7213  0.3643
  791MOL0     N 4331   5.976  11.431   3.824 -0.6187 -0.5734 -0.3545
  791MOL0     C 4332   6.149  10.421   3.857  1.0130 -0.7393 -0.6893
  791MOL0     C 4333   6.272  10.365   3.896  1.0933 -0.5326  0.3399
  791MOL0     C 4334   6.608  10.121   3.956  0.2147 -0.0731 -1.0617
  791MOL0     C 4335   6.622  10.007   4.033 -0.5418 -0.0220 -0.8308
  791MOL0     C 4336   6.751   9.972   4.084  1.4764  0.2408 -0.6657
  791MOL0     C 4337   6.858  10.066   4.062 -0.0929 -0.4975 -0.0518
  791MOL0     O 4338   6.991  10.044   4.101 -0.0734  1.1553 -0.3591
  791MOL0     C 4339   7.025   9.905   4.134 -0.4946 -0.0895 -0.4348
  791MOL0     C 4340   7.155   9.901   4.213 -1.1784  0.4077  0.3660
  791MOL0     C 4341   7.279   9.914   4.119  0.1748  0.0874 -0.5640
  791MOL0     C 4342   7.326   9.780   4.061  1.0884  0.3099 -0.5974
  791MOL0     C 4343   7.390   9.702   4.166 -0.4304 -1.0682  0.6028
  791MOL0     C 4344   7.421   9.623   4.261  0.2899 -0.4742  0.4307
  791MOL0     C 4345   6.841  10.183   3.993 -0.2011 -0.0319  0.2462
  791MOL0     C 4346   6.717  10.211   3.945  0.3777  0.1940 -0.4515
  791MOL0     H 4347   6.385  10.277   3.578  0.4926 -0.8060  0.5151
  791MOL0     H 4348   6.168  10.404   3.519  0.8393 -0.6607 -0.0648
  791MOL0     H 4349   6.031  10.695   3.748 -1.8548  2.6893  0.9281
  791MOL0     H 4350   5.913  10.591   3.840 -0.7319 -2.2684 -1.5497
  791MOL0     H 4351   5.766  10.580   3.659 -0.0408  1.4775  1.0358
  791MOL0     H 4352   5.869  10.670   3.544 -0.4104  0.0498 -1.3092
  791MOL0     H 4353   5.723  10.777   3.793 -0.8243  1.0119 -0.7055
  791MOL0     H 4354   5.690  10.802   3.622 -0.2186  0.2625  0.1432
  791MOL0     H 4355   5.925  10.918   3.787  4.7524 -0.1831 -2.5154
  791MOL0     H 4356   5.947  10.898   3.617 -0.4635  2.4528 -0.3317
  791MOL0     H 4357   5.741  11.078   3.749  0.0460 -1.4693  0.7548
  791MOL0     H 4358   5.735  11.020   3.576 -0.8562 -1.5333  0.3866
  791MOL0     H 4359   5.956  11.144   3.535 -2.2343  2.8332 -1.5413
  791MOL0     H 4360   5.973  11.160   3.705 -0.9993 -0.5876  1.0547
  791MOL0     H 4361   5.777  11.280   3.507 -1.6145 -2.2506  0.8278
  791MOL0     H 4362   5.757  11.310   3.679 -0.4876 -0.6529 -1.1445
  791MOL0     H 4363   5.869  11.516   3.574  1.5001  2.3439  2.3694
  791MOL0     H 4364   5.967  11.383   3.485 -0.6036 -1.2810  0.6173
  791MOL0     H 4365   6.226  11.405   3.618  1.2478 -1.4495  0.5834
  791MOL0     H 4366   6.336  11.411   3.980  1.9556  2.1107 -0.7208
  791MOL0     H 4367   6.385  11.495   3.835 -1.0702  1.8050  1.7486
  791MOL0     H 4368   6.490  11.264   3.868  0.9126 -0.8837 -0.0767
  791MOL0     H 4369   6.403  11.276   3.711  4.2917  2.4272 -0.3965
  791MOL0     H 4370   6.228  11.138   3.783  0.8727 -1.1794  0.0649
  791MOL0     H 4371   6.385  11.070   3.830  2.1817  2.2889 -1.2689
  791MOL0     H 4372   6.210  11.205   4.038 -1.5087 -0.8700 -1.0715
  791MOL0     H 4373   6.366  11.117   4.058  1.2806  0.0285 -0.6025
  791MOL0     H 4374   6.073  10.784   4.075 -0.3583 -0.3079  0.1257
  791MOL0     H 4375   5.860  10.747   4.089 -0.1026  0.0936  0.5834
  791MOL0     H 4376   5.398  10.828   4.055 -0.8368  0.4369 -0.4871
  791MOL0     H 4377   5.158  10.851   4.051  0.7136 -0.1109 -1.3495
  791MOL0     H 4378   4.922  11.172   3.892 -0.2595  3.5067 -0.7740
  791MOL0     H 4379   4.992  11.269   4.010 -3.0341  0.2242  0.4566
  791MOL0     H 4380   4.834  11.202   4.176  1.1828  0.0743 -0.6929
  791MOL0     H 4381   4.754  11.079   4.086 -1.7741  1.1635 -0.6910
  791MOL0     H 4382   4.714  11.262   3.904  1.1263 -1.5800 -0.0587
  791MOL0     H 4383   4.762  11.372   4.034  0.2116  0.7291 -2.3217
  791MOL0     H 4384   4.514  11.196   4.034 -1.2445  1.8383 -1.6289
  791MOL0     H 4385   4.574  11.285   4.173 -0.9145 -0.5212 -0.6132
  791MOL0     H 4386   4.490  11.370   3.891 -0.5213  1.5566 -0.5035
  791MOL0     H 4387   4.548  11.494   4.013 -0.1643  0.5406  2.2639
  791MOL0     H 4388   4.361  11.478   4.151 -1.4168  1.1208 -0.6007
  791MOL0     H 4389   4.303  11.324   4.082  0.5505 -1.1051 -0.8664
  791MOL0     H 4390   4.299  11.610   3.978  1.8579 -0.5808  0.5390
  791MOL0     H 4391   4.254  11.462   3.874 -2.6062 -2.9393  0.5939
  791MOL0     H 4392   4.087  11.399   4.046  2.9035 -1.6358 -2.1721
  791MOL0     H 4393   4.046  11.528   3.937  1.8363 -1.5841 -2.4277
  791MOL0     H 4394   5.192  11.286   4.060  2.0341  1.4176 -2.1413
  791MOL0     H 4395   5.437  11.248   4.086 -0.6847  0.7856 -1.9957
  791MOL0     H 4396   5.766  11.158   4.026 -0.2567 -0.4443  2.2485
  791MOL0     H 4397   6.012  11.198   3.977  4.5095 -1.1451  1.1936
  791MOL0     H 4398   6.084  10.449   3.938 -1.0873 -0.3996 -2.3923
  791MOL0     H 4399   6.295  10.363   4.002  0.6395  0.8377  0.4795
  791MOL0     H 4400   6.541   9.938   4.054  2.0899 -3.2435 -0.2959
  791MOL0     H 4401   6.745   9.879   4.140 -0.6766  0.2982 -0.7169
  791MOL0     H 4402   7.031   9.843   4.045 -1.5324  0.1788 -0.7112
  791MOL0     H 4403   6.947   9.865   4.199 -0.0372 -1.0195 -0.4547
  791MOL0     H 4404   7.159   9.981   4.287 -1.0012 -0.6281  1.5261
  791MOL0     H 4405   7.157   9.805   4.267  1.1766  1.9756  3.3608
  791MOL0     H 4406   7.351   9.964   4.184 -0.9056 -0.1228  0.8337
  791MOL0     H 4407   7.245   9.986   4.044  0.3850  0.4173 -0.3482
  791MOL0     H 4408   7.245   9.715   4.026 -0.9559  1.1332  2.2679
  791MOL0     H 4409   7.399   9.794   3.980  2.8092  0.9409  1.0034
  791MOL0     H 4410   7.452   9.572   4.350  1.4954  0.6871  0.7090
  791MOL0     H 4411   6.927  10.246   3.977  0.2811 -0.7867 -0.2184
  791MOL0     H 4412   6.698  10.311   3.909  2.1873  1.6521  2.2724
  792MOL0     O 4413   6.181   8.682   3.333  0.2358 -0.0479  1.0474
  792MOL0     C 4414   6.276   8.646   3.410  0.3073  0.3559  0.1430
  792MOL0     O 4415   6.263   8.614   3.543  0.0039  0.1771  0.0340
  792MOL0     C 4416   6.140   8.610   3.603 -0.6969 -0.0741  0.8597
  792MOL0     C 4417   6.045   8.709   3.587 -0.1188  1.0319  0.5361
  792MOL0     C 4418   5.924   8.697   3.649 -0.2437  0.1370 -0.0791
  792MOL0     C 4419   5.901   8.594   3.738  0.3553  0.5005  0.6559
  792MOL0     O 4420   5.774   8.574   3.786 -0.8819 -0.0858  0.0619
  792MOL0     C 4421   5.777   8.549   3.926  0.4313 -0.7612 -0.2939
  792MOL0     C 4422   5.632   8.572   3.974 -0.8254 -0.3940  0.2438
  792MOL0     C 4423   5.523   8.489   3.907 -0.0354  0.4150 -0.0615
  792MOL0     C 4424   5.549   8.336   3.905  0.3520 -0.3442 -0.0738
  792MOL0     C 4425   5.442   8.245   3.824 -0.1667  0.4317 -0.8860
  792MOL0     C 4426   5.428   8.289   3.675  0.1489  0.5486  0.2631
  792MOL0     C 4427   5.557   8.282   3.593  1.3544 -0.2722  0.2952
  792MOL0     C 4428   5.607   8.145   3.555 -0.3026 -0.9474 -0.0051
  792MOL0     N 4429   5.728   8.163   3.488 -0.6887  0.0158  0.2989
  792MOL0     C 4430   5.837   8.238   3.527  0.1637 -0.2401 -1.0357
  792MOL0     C 4431   5.929   8.212   3.428 -0.6391 -0.3187 -0.6148
  792MOL0     C 4432   6.071   8.254   3.416 -0.6830 -0.7209 -0.1679
  792MOL0     C 4433   6.175   8.156   3.470  0.1130 -0.9683 -0.0595
  792MOL0     C 4434   6.186   8.032   3.370 -0.3184  0.6505  0.8747
  792MOL0     C 4435   6.230   7.909   3.444 -0.2484 -0.2460 -1.2410
  792MOL0     O 4436   6.155   7.791   3.416 -0.0820  0.6115  0.8508
  792MOL0     C 4437   6.019   7.781   3.440  0.9095  0.2098  1.1028
  792MOL0     C 4438   5.970   7.653   3.406  0.6714  0.3392  0.9962
  792MOL0     C 4439   5.841   7.615   3.440 -0.5285 -0.6837 -0.2170
  792MOL0     C 4440   5.749   7.709   3.498 -0.3402  0.8785 -0.2929
  792MOL0     C 4441   5.605   7.686   3.525 -0.3612  0.5451  0.2840
  792MOL0     O 4442   5.533   7.779   3.595  0.0675  0.0417 -0.2354
  792MOL0     C 4443   5.403   7.751   3.638  0.1142 -0.2762  0.3241
  792MOL0     C 4444   5.347   7.839   3.727  0.2365  0.6132 -1.0801
  792MOL0     C 4445   5.212   7.831   3.773  0.1845 -0.4919  0.1762
  792MOL0     C 4446   5.128   7.729   3.731  0.2332  0.4571 -0.0912
  792MOL0     O 4447   4.992   7.722   3.741  0.0664  0.2978 -0.5051
  792MOL0     C 4448   4.934   7.794   3.850  0.8925  0.0742 -0.3393
  792MOL0     C 4449   4.771   7.765   3.857 -0.8594  0.1724  0.5582
  792MOL0     C 4450   4.746   7.620   3.912  0.0836 -1.1510 -0.2521
  792MOL0     C 4451   4.618   7.563   3.860  0.4847 -0.2779 -0.4647
  792MOL0     C 4452   4.560   7.464   3.962  0.7375 -0.1962 -1.1480
  792MOL0     C 4453   4.421   7.409   3.914 -0.0937  0.6122 -0.1200
  792MOL0     C 4454   4.357   7.319   4.021  0.2135 -0.5291 -0.2045
  792MOL0     C 4455   4.380   7.175   4.008 -0.1695  1.2150 -0.1989
  792MOL0    Cl 4456   4.308   7.080   4.152  0.0669  0.1093  0.3406
  792MOL0     C 4457   5.184   7.634   3.641  0.2236 -0.3981 -0.9069
  792MOL0     C 4458   5.317   7.648   3.593 -0.9887 -0.1011  0.2273
  792MOL0     O 4459   5.571   7.572   3.497  0.3224 -0.1309  0.6062
  792MOL0     C 4460   5.808   7.833   3.524  0.5304 -0.4092  0.1245
  792MOL0     C 4461   5.935   7.871   3.501  0.1396  0.0516 -0.4002
  792MOL0     N 4462   5.869   8.131   3.340  1.1442 -0.0528 -0.3660
  792MOL0     N 4463   5.754   8.096   3.377 -1.0259 -0.7698 -0.0619
  792MOL0     C 4464   6.000   8.488   3.756  0.1354  0.1188  0.1746
  792MOL0     C 4465   6.121   8.505   3.684 -0.2238 -0.1816 -1.0671
  792MOL0     C 4466   6.411   8.644   3.352  0.2835 -0.2085 -0.6529
  792MOL0     C 4467   6.505   8.542   3.401  0.9590  0.8267  0.2550
  792MOL0     C 4468   6.620   8.529   3.334 -0.5604 -0.1808 -0.4651
  792MOL0     C 4469   6.662   8.605   3.221  0.1343 -0.3269 -0.6769
  792MOL0     O 4470   6.792   8.577   3.175 -0.0055 -0.5351  0.5926
  792MOL0     C 4471   6.832   8.629   3.051 -0.2451 -0.5939 -0.1385
  792MOL0     C 4472   6.983   8.613   3.062 -0.1649  0.4164 -0.6074
  792MOL0     C 4473   7.025   8.571   2.926 -0.9845 -0.0870  0.2917
  792MOL0     C 4474   7.185   8.570   2.903  0.4789 -1.1402  0.0789
  792MOL0     C 4475   7.259   8.702   2.879 -0.6448  0.2838 -0.1998
  792MOL0     C 4476   7.305   8.811   2.878  0.2591 -0.4506 -0.4767
  792MOL0     C 4477   6.571   8.690   3.165 -0.4230  0.4325  0.3326
  792MOL0     C 4478   6.456   8.712   3.236  0.7115 -0.0049  0.0252
  792MOL0     H 4479   6.057   8.796   3.523  2.7324 -0.4091 -1.0438
  792MOL0     H 4480   5.848   8.772   3.627 -0.1479  0.2203 -0.1234
  792MOL0     H 4481   5.852   8.610   3.976  0.6295 -2.6981  2.0112
  792MOL0     H 4482   5.795   8.443   3.948  1.5879 -0.2361  1.5458
  792MOL0     H 4483   5.612   8.678   3.989  2.9975  0.2954  1.5680
  792MOL0     H 4484   5.643   8.530   4.075  0.8912 -3.2265 -0.9875
  792MOL0     H 4485   5.508   8.532   3.808 -1.3447  1.4946  0.5733
  792MOL0     H 4486   5.428   8.517   3.954  0.0219  0.7610 -0.1478
  792MOL0     H 4487   5.647   8.304   3.868  0.5334  0.5397 -0.3806
  792MOL0     H 4488   5.544   8.315   4.013  2.7484 -1.4002 -0.1126
  792MOL0     H 4489   5.348   8.247   3.880  1.4915 -3.0237  2.5043
  792MOL0     H 4490   5.465   8.139   3.838  1.6427  1.1397  2.2697
  792MOL0     H 4491   5.375   8.384   3.666 -0.6562 -0.0257 -1.3991
  792MOL0     H 4492   5.359   8.219   3.626  2.5469 -0.6674 -1.5954
  792MOL0     H 4493   5.520   8.341   3.509 -1.1430 -1.3540  0.5707
  792MOL0     H 4494   5.636   8.335   3.648  0.0336  1.6520  0.4421
  792MOL0     H 4495   5.537   8.083   3.498 -2.1670 -0.7466  1.9451
  792MOL0     H 4496   5.622   8.093   3.650 -0.7569 -1.0700  0.0024
  792MOL0     H 4497   5.845   8.295   3.619 -1.7741 -0.0637 -0.9454
  792MOL0     H 4498   6.079   8.347   3.474 -1.6221 -0.8788  0.2354
  792MOL0     H 4499   6.098   8.275   3.312  2.8218  1.0971  0.9434
  792MOL0     H 4500   6.148   8.119   3.569  4.6697  2.6920  2.9429
  792MOL0     H 4501   6.265   8.216   3.482  0.1433 -0.6386 -1.6430
  792MOL0     H 4502   6.089   8.013   3.322 -1.2760  2.0653  2.1591
  792MOL0     H 4503   6.256   8.058   3.291  2.2605 -0.0734  2.7937
  792MOL0     H 4504   6.224   7.928   3.552  4.9629 -1.9570 -0.3773
  792MOL0     H 4505   6.333   7.880   3.421 -1.0396 -3.8375 -0.8426
  792MOL0     H 4506   6.038   7.593   3.347 -2.7387 -2.2665 -0.6102
  792MOL0     H 4507   5.815   7.511   3.420 -0.5914 -0.5075 -1.1002
  792MOL0     H 4508   5.412   7.922   3.753 -0.2871  0.3879  1.1033
  792MOL0     H 4509   5.176   7.907   3.842 -2.6786 -1.1913 -0.4109
  792MOL0     H 4510   4.951   7.901   3.832 -1.9358  0.8031  0.8303
  792MOL0     H 4511   4.973   7.764   3.948  0.9246 -1.9550 -0.9284
  792MOL0     H 4512   4.723   7.784   3.761  0.3045  1.7397  0.2431
  792MOL0     H 4513   4.722   7.830   3.930 -0.5475 -0.8768  1.7316
  792MOL0     H 4514   4.727   7.625   4.019 -1.7991 -1.5167 -0.5347
  792MOL0     H 4515   4.836   7.560   3.895 -0.2483 -2.0681  1.0997
  792MOL0     H 4516   4.538   7.633   3.835  0.2603 -0.7813 -1.2253
  792MOL0     H 4517   4.632   7.509   3.765 -2.1174  2.4303 -2.5827
  792MOL0     H 4518   4.552   7.515   4.059  0.1597  0.5963 -1.6052
  792MOL0     H 4519   4.634   7.385   3.980  0.2988 -0.4053 -0.1392
  792MOL0     H 4520   4.423   7.355   3.819 -0.7385  2.1229 -1.0448
  792MOL0     H 4521   4.356   7.495   3.894 -1.4763 -1.1812 -4.5812
  792MOL0     H 4522   4.397   7.338   4.122 -1.4693 -1.5198  0.6796
  792MOL0     H 4523   4.249   7.337   4.021  0.1555 -0.8094 -1.3882
  792MOL0     H 4524   4.486   7.154   4.024 -0.7492 -0.2730  2.2767
  792MOL0     H 4525   4.360   7.130   3.910  3.9810 -1.3296 -0.1328
  792MOL0     H 4526   5.116   7.558   3.605 -1.1041 -0.2337  1.0960
  792MOL0     H 4527   5.350   7.587   3.510  0.1677  1.9526 -0.9140
  792MOL0     H 4528   5.748   7.897   3.589 -0.5715 -1.5134  0.2470
  792MOL0     H 4529   5.972   7.963   3.545  2.3256 -0.3852 -1.1637
  792MOL0     H 4530   5.988   8.408   3.828 -0.1692 -1.3625 -1.4229
  792MOL0     H 4531   6.200   8.433   3.699 -0.0511  0.3594  1.0106
  792MOL0     H 4532   6.483   8.476   3.484  0.9888 -0.6714 -0.8780
  792MOL0     H 4533   6.688   8.459   3.381  0.3925  2.1834  1.9477
  792MOL0     H 4534   6.805   8.734   3.040  1.9733  0.0246 -0.2507
  792MOL0     H 4535   6.777   8.579   2.971 -2.0276  1.7206 -0.4575
  792MOL0     H 4536   7.035   8.699   3.105  0.2864 -0.7509  1.2708
  792MOL0     H 4537   7.014   8.533   3.129  0.4641 -0.1389 -1.5441
  792MOL0     H 4538   6.986   8.638   2.849 -0.9260 -2.8564 -2.3300
  792MOL0     H 4539   6.994   8.470   2.897  2.7639 -2.0396  2.3091
  792MOL0     H 4540   7.235   8.522   2.988  2.9310 -0.9332 -1.1781
  792MOL0     H 4541   7.200   8.505   2.816 -1.3222 -1.2343 -0.2108
  792MOL0     H 4542   7.350   8.908   2.867 -0.2209 -0.0877  0.5572
  792MOL0     H 4543   6.591   8.744   3.073 -0.3711  0.6260  0.4581
  792MOL0     H 4544   6.386   8.783   3.193  0.6717 -0.9214 -1.4946
  793MOL0     O 4545   3.347   2.666   9.252  0.3114  0.3219 -0.2375
  793MOL0     C 4546   3.278   2.735   9.181  0.9336  0.6653 -0.9067
  793MOL0     O 4547   3.144   2.712   9.156 -0.2619 -1.2128  0.1704
  793MOL0     C 4548   3.070   2.634   9.236  0.0167  1.2693  0.4744
  793MOL0     C 4549   2.944   2.603   9.181 -0.0354 -0.2744 -0.4517
  793MOL0     C 4550   2.851   2.527   9.250 -0.1909  0.5314 -0.9548
  793MOL0     C 4551   2.860   2.502   9.387  0.2729  0.3549  0.9008
  793MOL0     O 4552   2.751   2.452   9.454  0.1742  0.2402  0.1587
  793MOL0     C 4553   2.775   2.412   9.589 -0.6480 -0.6150 -0.0358
  793MOL0     C 4554   2.647   2.375   9.657  0.0168 -0.5168  0.5842
  793MOL0     C 4555   2.592   2.245   9.610  0.0752  0.0487 -0.2861
  793MOL0     C 4556   2.451   2.231   9.661 -0.4165 -0.3360  0.2366
  793MOL0     C 4557   2.408   2.087   9.629  0.2248  0.1588 -0.0096
  793MOL0     C 4558   2.262   2.055   9.666 -0.6591 -0.3647 -0.3740
  793MOL0     C 4559   2.215   1.917   9.603 -0.2292  0.3328  0.9499
  793MOL0     C 4560   2.071   1.882   9.651  0.0948 -0.1478 -0.2557
  793MOL0     N 4561   2.015   1.753   9.594 -0.7823 -0.0042 -0.3127
  793MOL0     C 4562   1.892   1.699   9.617  0.3992 -0.7976 -0.6154
  793MOL0     C 4563   1.863   1.629   9.506  0.8238  0.8430  0.0134
  793MOL0     C 4564   1.722   1.594   9.471  0.5100  0.6170  0.3472
  793MOL0     C 4565   1.719   1.482   9.369 -0.0751 -0.8061  0.3865
  793MOL0     C 4566   1.754   1.350   9.425  0.1964  0.0148  0.1654
  793MOL0     C 4567   1.799   1.258   9.314 -0.0379  0.0650  0.4666
  793MOL0     O 4568   1.697   1.237   9.216  0.6006 -0.2561  0.4847
  793MOL0     C 4569   1.611   1.131   9.225 -0.6100 -1.0934 -0.3956
  793MOL0     C 4570   1.618   1.023   9.313  0.1073 -0.0594  0.2914
  793MOL0     C 4571   1.521   0.924   9.307 -0.2042 -0.3795 -0.5499
  793MOL0     C 4572   1.416   0.927   9.210 -0.7699  0.1220  0.5567
  793MOL0     C 4573   1.314   0.815   9.205 -0.3365  0.3544  0.1355
  793MOL0     O 4574   1.306   0.726   9.314  0.1656 -0.5658 -0.2092
  793MOL0     C 4575   1.192   0.662   9.339  0.3868  1.1106 -0.5436
  793MOL0     C 4576   1.114   0.708   9.442 -0.1964 -0.4866  0.5317
  793MOL0     C 4577   0.983   0.667   9.465  0.5199  0.6648  0.3518
  793MOL0     C 4578   0.930   0.568   9.383  0.1216 -0.0495 -0.6551
  793MOL0     O 4579   0.810   0.531   9.391  0.8125 -0.4564 -0.5953
  793MOL0     C 4580   0.727   0.604   9.483  0.7932  0.6098 -0.0972
  793MOL0     C 4581   0.576   0.583   9.478 -0.1286  0.3432  0.2102
  793MOL0     C 4582   0.542   0.429   9.480  0.9359  0.7323 -0.1514
  793MOL0     C 4583   0.385   0.398   9.468 -0.0023 -0.2133 -0.1480
  793MOL0     C 4584   0.316   0.391   9.611  0.0086 -0.3724 -0.1145
  793MOL0     C 4585   0.189   0.309   9.600  0.5182 -0.2459  0.0731
  793MOL0     C 4586   0.068   0.375   9.535 -0.0349  0.0088 -0.3494
  793MOL0     C 4587  -0.048   0.272   9.542 -0.1353  0.3003 -0.2351
  793MOL0    Cl 4588  -0.043   0.153   9.408  0.2888  0.5043 -0.3884
  793MOL0     C 4589   1.004   0.523   9.270 -0.1397 -0.4971  0.4419
  793MOL0     C 4590   1.135   0.568   9.246  1.3142  0.3874 -0.2981
  793MOL0     O 4591   1.238   0.812   9.106  0.4192 -0.1921  0.5277
  793MOL0     C 4592   1.432   1.029   9.107  0.0800  0.0282 -0.0903
  793MOL0     C 4593   1.517   1.135   9.126 -0.2901  0.4513  0.1306
  793MOL0     N 4594   1.971   1.619   9.421 -0.8059  0.0730  0.2021
  793MOL0     N 4595   2.066   1.701   9.476 -0.1339  0.1624 -0.5638
  793MOL0     C 4596   2.983   2.534   9.441  0.6646 -0.2582  0.3100
  793MOL0     C 4597   3.090   2.582   9.367  0.3950 -0.7597  0.0051
  793MOL0     C 4598   3.350   2.856   9.129  0.4552  0.1351 -0.0981
  793MOL0     C 4599   3.481   2.894   9.165  0.5257 -0.4516  0.6421
  793MOL0     C 4600   3.546   3.005   9.105  0.5314  0.0882 -0.3111
  793MOL0     C 4601   3.472   3.089   9.023 -0.1142 -0.0344  0.0422
  793MOL0     O 4602   3.513   3.203   8.960 -0.6558  0.2711  0.4028
  793MOL0     C 4603   3.651   3.246   8.966  0.5034 -0.9635 -0.1553
  793MOL0     C 4604   3.739   3.170   8.870 -0.2092 -0.0115  0.2752
  793MOL0     C 4605   3.887   3.226   8.864 -1.0775  0.3215 -0.3528
  793MOL0     C 4606   3.977   3.105   8.854  0.0603  0.0869  0.4987
  793MOL0     C 4607   4.118   3.139   8.857 -0.7266 -0.2954  0.4324
  793MOL0     C 4608   4.240   3.157   8.829  0.4302  0.3282  0.0749
  793MOL0     C 4609   3.335   3.063   9.004  0.4336  0.1183  0.4729
  793MOL0     C 4610   3.282   2.936   9.042  0.3284 -0.6747 -0.6343
  793MOL0     H 4611   2.914   2.627   9.079 -1.8468 -1.0116 -0.1095
  793MOL0     H 4612   2.751   2.518   9.208 -0.8878  0.4151  0.6298
  793MOL0     H 4613   2.829   2.486   9.648  0.9506  0.2364 -2.4056
  793MOL0     H 4614   2.836   2.321   9.590  1.4651  0.7344 -0.6667
  793MOL0     H 4615   2.575   2.456   9.648 -1.3618 -1.8651 -1.2654
  793MOL0     H 4616   2.675   2.353   9.761  1.3031  0.5583  0.4819
  793MOL0     H 4617   2.651   2.155   9.633 -0.7935 -0.3117  0.6185
  793MOL0     H 4618   2.584   2.254   9.501  0.7309 -1.6217 -0.5010
  793MOL0     H 4619   2.441   2.263   9.765 -1.0720  4.6264 -1.1033
  793MOL0     H 4620   2.388   2.299   9.603 -0.0114  0.1157  0.3249
  793MOL0     H 4621   2.469   2.010   9.678 -1.3396 -1.6669 -0.7782
  793MOL0     H 4622   2.417   2.079   9.520 -3.5297  0.0525 -0.4628
  793MOL0     H 4623   2.206   2.137   9.620  0.2879  1.2292  1.1642
  793MOL0     H 4624   2.243   2.049   9.773  0.9975 -0.8418 -0.0714
  793MOL0     H 4625   2.213   1.923   9.494 -0.0964  1.1221  0.9900
  793MOL0     H 4626   2.283   1.836   9.632 -1.2322 -0.5171  0.9799
  793MOL0     H 4627   2.004   1.964   9.622  0.3774  0.0663 -0.3079
  793MOL0     H 4628   2.061   1.867   9.759  0.9856  0.0908 -0.1260
  793MOL0     H 4629   1.823   1.728   9.695  1.7706 -2.1890  1.2065
  793MOL0     H 4630   1.671   1.679   9.425  1.8351  1.3813  0.2525
  793MOL0     H 4631   1.671   1.561   9.562  2.0501  0.5559  1.2243
  793MOL0     H 4632   1.781   1.507   9.282 -0.9145  2.4383  0.6013
  793MOL0     H 4633   1.612   1.471   9.347 -0.9823  0.1073  3.8380
  793MOL0     H 4634   1.841   1.360   9.490  1.4522  4.3904 -1.7918
  793MOL0     H 4635   1.662   1.313   9.470 -0.9363  0.3266 -1.7957
  793MOL0     H 4636   1.845   1.173   9.364  3.0464  1.6306  0.6041
  793MOL0     H 4637   1.883   1.305   9.261  1.4867 -3.6480 -0.7511
  793MOL0     H 4638   1.703   1.017   9.379  1.9006 -1.1637 -1.9589
  793MOL0     H 4639   1.525   0.852   9.388  2.8383 -2.0658 -1.9801
  793MOL0     H 4640   1.146   0.790   9.505  2.0609  0.4002 -1.6277
  793MOL0     H 4641   0.926   0.720   9.540  1.2186  1.8094  0.0860
  793MOL0     H 4642   0.736   0.711   9.459 -2.1605  0.9702  0.0137
  793MOL0     H 4643   0.764   0.590   9.586  1.4717 -0.1687 -0.4371
  793MOL0     H 4644   0.546   0.634   9.387  2.6072  0.9790 -0.4292
  793MOL0     H 4645   0.525   0.625   9.565 -0.3709 -0.9871  0.7352
  793MOL0     H 4646   0.584   0.389   9.572  1.6248  1.8316  0.0337
  793MOL0     H 4647   0.600   0.386   9.398  1.4236  0.2687  0.4337
  793MOL0     H 4648   0.346   0.469   9.395 -0.3507  2.1297  2.1576
  793MOL0     H 4649   0.384   0.294   9.434  1.7039 -0.7320  1.2828
  793MOL0     H 4650   0.295   0.489   9.653  0.3977 -0.6948  0.8703
  793MOL0     H 4651   0.388   0.343   9.679  0.5592  0.0920 -0.3655
  793MOL0     H 4652   0.160   0.290   9.703  0.1262  1.6687  0.3547
  793MOL0     H 4653   0.205   0.214   9.548 -1.5533 -0.4547 -0.2769
  793MOL0     H 4654   0.036   0.454   9.604 -1.7049 -0.9722  0.0622
  793MOL0     H 4655   0.080   0.407   9.431  0.3951  2.5154  0.4124
  793MOL0     H 4656  -0.133   0.336   9.517 -0.0227  1.1952  1.5346
  793MOL0     H 4657  -0.064   0.234   9.644  1.9712  2.4617  0.9988
  793MOL0     H 4658   0.951   0.461   9.198 -0.2585  0.9221 -0.7622
  793MOL0     H 4659   1.188   0.533   9.157  2.8420  2.8521 -0.4715
  793MOL0     H 4660   1.366   1.018   9.022 -2.5560  0.3604  1.7719
  793MOL0     H 4661   1.519   1.216   9.054 -1.2560 -0.0334 -0.4728
  793MOL0     H 4662   3.011   2.499   9.540  3.8636 -2.9091 -1.3449
  793MOL0     H 4663   3.189   2.580   9.411  2.2220 -1.3425 -3.7566
  793MOL0     H 4664   3.540   2.832   9.232  1.3725 -3.8003 -2.8399
  793MOL0     H 4665   3.653   3.017   9.124  0.2780  1.7085  0.2730
  793MOL0     H 4666   3.692   3.235   9.066  0.6560  0.6514 -0.0074
  793MOL0     H 4667   3.658   3.354   8.947  0.1803 -1.2123 -1.9333
  793MOL0     H 4668   3.757   3.076   8.923  3.9684  0.4194 -0.0481
  793MOL0     H 4669   3.698   3.159   8.769 -1.3574 -2.6143  0.9494
  793MOL0     H 4670   3.914   3.271   8.960  0.0486 -2.4860  0.7644
  793MOL0     H 4671   3.915   3.288   8.778  3.3952  0.1198  0.7318
  793MOL0     H 4672   3.959   3.040   8.940  0.5416  0.8154  1.1678
  793MOL0     H 4673   3.955   3.065   8.755 -3.2693  4.9840 -1.0889
  793MOL0     H 4674   4.335   3.188   8.792  1.4036 -0.5512  1.7261
  793MOL0     H 4675   3.286   3.128   8.932  0.7321 -0.1786 -0.0042
  793MOL0     H 4676   3.177   2.925   9.015 -1.1266  0.9268  3.4598
  794MOL0     O 4677   8.275   8.425   3.614 -0.1876 -0.1479  0.4831
  794MOL0     C 4678   8.237   8.444   3.495 -0.2459 -0.2781 -0.0522
  794MOL0     O 4679   8.124   8.400   3.442  0.0307  0.5521  0.4864
  794MOL0     C 4680   8.018   8.360   3.512  0.5199  0.1082 -0.2216
  794MOL0     C 4681   7.960   8.436   3.604 -0.2854 -0.2612  0.0875
  794MOL0     C 4682   7.844   8.397   3.666  0.5335  0.5064  0.3294
  794MOL0     C 4683   7.774   8.281   3.629 -0.4451  0.1746  0.7349
  794MOL0     O 4684   7.650   8.247   3.683  0.1847  0.5189 -0.2319
  794MOL0     C 4685   7.555   8.180   3.599 -0.4404 -0.0959  0.6527
  794MOL0     C 4686   7.417   8.238   3.621  0.2877 -1.6054 -0.0351
  794MOL0     C 4687   7.369   8.252   3.770  0.1096  0.4441 -0.1493
  794MOL0     C 4688   7.229   8.301   3.786  0.3319  0.0398 -0.2061
  794MOL0     C 4689   7.163   8.280   3.928 -0.0239  0.4746  0.2913
  794MOL0     C 4690   7.036   8.361   3.950 -0.0039  0.1295 -0.7327
  794MOL0     C 4691   6.924   8.308   3.856  0.1135 -0.5675 -0.0741
  794MOL0     C 4692   6.792   8.391   3.854  0.1405  0.5363 -0.1411
  794MOL0     N 4693   6.667   8.320   3.819  0.5319 -0.2637  0.3386
  794MOL0     C 4694   6.641   8.188   3.852  0.5270  0.3484  0.5714
  794MOL0     C 4695   6.527   8.159   3.789  0.1878  0.5459  0.4192
  794MOL0     C 4696   6.468   8.025   3.776 -0.6021  0.4547  0.2900
  794MOL0     C 4697   6.388   8.000   3.908 -1.0396  0.2503  0.3093
  794MOL0     C 4698   6.298   8.115   3.965 -0.7225 -0.2094 -0.8597
  794MOL0     C 4699   6.187   8.135   3.864  0.2623 -0.8228 -0.0487
  794MOL0     O 4700   6.121   8.018   3.810  0.1565 -0.4415  0.9020
  794MOL0     C 4701   6.003   7.978   3.869  0.7244 -0.0517  0.2854
  794MOL0     C 4702   5.923   8.034   3.978 -0.4900 -0.3962  0.5693
  794MOL0     C 4703   5.815   7.963   4.027 -0.1203  0.1115 -0.5619
  794MOL0     C 4704   5.773   7.838   3.977 -0.1764  0.1672  0.2770
  794MOL0     C 4705   5.661   7.764   4.037  0.4299 -0.4831  0.6634
  794MOL0     O 4706   5.638   7.626   3.997 -0.4439 -0.2257  0.5496
  794MOL0     C 4707   5.519   7.577   4.033 -0.4829 -0.8521  0.3912
  794MOL0     C 4708   5.479   7.574   4.166  0.8114  0.0398  0.0151
  794MOL0     C 4709   5.349   7.523   4.198 -0.2650  1.0522  0.2340
  794MOL0     C 4710   5.253   7.492   4.102 -0.4675  0.0828 -0.0579
  794MOL0     O 4711   5.143   7.430   4.149 -0.2225  0.4980 -0.3617
  794MOL0     C 4712   5.065   7.348   4.059 -0.6707  0.5925 -0.4176
  794MOL0     C 4713   5.008   7.239   4.139 -0.3836  0.5904  0.5668
  794MOL0     C 4714   4.961   7.129   4.048  0.6911 -0.4112  0.2553
  794MOL0     C 4715   4.837   7.166   3.961  0.3635  0.2680 -0.0786
  794MOL0     C 4716   4.794   7.045   3.879  0.1085 -1.1104  0.6053
  794MOL0     C 4717   4.727   7.099   3.751  0.4212 -0.0321  0.0259
  794MOL0     C 4718   4.685   6.977   3.662  0.5130 -0.4747  0.6932
  794MOL0     C 4719   4.591   7.014   3.546  0.2909 -0.5341  0.4221
  794MOL0    Cl 4720   4.445   7.095   3.605  0.0662  0.4536 -0.1839
  794MOL0     C 4721   5.293   7.513   3.966  0.7992  0.2208  0.2107
  794MOL0     C 4722   5.423   7.555   3.933 -0.0537 -0.4414 -0.2250
  794MOL0     O 4723   5.599   7.832   4.124 -0.1440  0.4560 -0.1415
  794MOL0     C 4724   5.847   7.784   3.876  0.1645  0.6240 -0.1588
  794MOL0     C 4725   5.956   7.851   3.818 -0.1362 -0.4362 -0.9991
  794MOL0     N 4726   6.479   8.270   3.718 -0.1443 -0.5037 -0.0455
  794MOL0     N 4727   6.563   8.361   3.743  0.2320 -0.9065  0.4536
  794MOL0     C 4728   7.841   8.200   3.534 -0.4165  0.2027  0.2834
  794MOL0     C 4729   7.964   8.235   3.478 -0.5040 -0.0093 -0.3415
  794MOL0     C 4730   8.323   8.518   3.399  0.2243 -0.6078 -0.1844
  794MOL0     C 4731   8.466   8.524   3.415 -0.1549 -1.2544 -0.0974
  794MOL0     C 4732   8.545   8.600   3.325 -0.6771 -0.3459  1.0244
  794MOL0     C 4733   8.485   8.664   3.211  0.9935 -0.7303 -0.2589
  794MOL0     O 4734   8.557   8.734   3.123 -0.2620 -0.2989  0.2954
  794MOL0     C 4735   8.633   8.652   3.030  0.1476 -0.5570  0.1748
  794MOL0     C 4736   8.726   8.739   2.952 -0.1970 -0.0654  0.4551
  794MOL0     C 4737   8.830   8.808   3.042 -0.1615  0.4037  0.0089
  794MOL0     C 4738   8.908   8.912   2.977  0.0357  0.0511 -0.8523
  794MOL0     C 4739   9.011   8.861   2.885 -0.2378 -1.0235  0.0178
  794MOL0     C 4740   9.092   8.828   2.804 -0.2038 -0.4798  0.1036
  794MOL0     C 4741   8.343   8.664   3.201 -0.2341  0.0246 -0.8147
  794MOL0     C 4742   8.268   8.590   3.292 -0.1424 -0.3421  0.9609
  794MOL0     H 4743   8.017   8.524   3.632 -1.0960  0.5009 -0.6273
  794MOL0     H 4744   7.805   8.470   3.737 -1.8750 -0.1860 -0.1767
  794MOL0     H 4745   7.536   8.076   3.630 -2.0909 -1.5450 -4.2583
  794MOL0     H 4746   7.589   8.183   3.495 -2.5020 -0.7581 -0.0957
  794MOL0     H 4747   7.344   8.183   3.560 -1.9689 -0.1339  1.2095
  794MOL0     H 4748   7.418   8.342   3.586 -0.6368 -1.3456  0.6877
  794MOL0     H 4749   7.431   8.330   3.816 -1.2433  2.1722 -1.1556
  794MOL0     H 4750   7.378   8.161   3.830 -0.4838  2.4378  3.1994
  794MOL0     H 4751   7.224   8.407   3.761 -0.8361 -0.1773 -0.9902
  794MOL0     H 4752   7.163   8.250   3.715 -2.7348  0.6102  2.0344
  794MOL0     H 4753   7.240   8.297   4.004 -0.4907 -2.3030  1.4950
  794MOL0     H 4754   7.128   8.178   3.946 -2.3473  0.9793 -0.9513
  794MOL0     H 4755   7.073   8.461   3.926 -0.1778  0.9328  1.9979
  794MOL0     H 4756   6.998   8.365   4.053 -1.7325  0.9042 -1.3619
  794MOL0     H 4757   6.956   8.299   3.752  2.6415 -0.5488  0.6346
  794MOL0     H 4758   6.897   8.207   3.888  1.2856 -0.5560  1.0539
  794MOL0     H 4759   6.789   8.485   3.798 -4.2113 -0.1031 -1.3262
  794MOL0     H 4760   6.779   8.423   3.958  2.8497 -1.4380  0.9559
  794MOL0     H 4761   6.712   8.130   3.912 -0.3614 -0.0163  1.2855
  794MOL0     H 4762   6.533   7.939   3.757 -2.7307 -1.3020  0.5791
  794MOL0     H 4763   6.398   8.026   3.693 -0.2396  1.6742 -0.0135
  794MOL0     H 4764   6.448   7.983   3.998  0.0861 -0.3851 -0.5486
  794MOL0     H 4765   6.328   7.909   3.905  1.3876 -1.4300  0.1058
  794MOL0     H 4766   6.250   8.086   4.059 -1.3801  1.0832 -0.7752
  794MOL0     H 4767   6.362   8.202   3.983 -1.6211  0.1878  0.5787
  794MOL0     H 4768   6.216   8.197   3.778 -1.4875  2.5810  1.6096
  794MOL0     H 4769   6.109   8.198   3.908 -0.6775 -0.1602 -2.5068
  794MOL0     H 4770   5.941   8.132   4.021  1.1136  0.2859 -1.5042
  794MOL0     H 4771   5.758   8.014   4.104 -1.0368  0.3756 -1.3966
  794MOL0     H 4772   5.547   7.605   4.245 -0.5048  0.7068  0.9257
  794MOL0     H 4773   5.329   7.493   4.300 -1.0086 -0.7422 -0.4031
  794MOL0     H 4774   5.118   7.309   3.972  1.6583  1.1318  0.6553
  794MOL0     H 4775   4.980   7.407   4.024 -0.5179  0.9216 -0.2466
  794MOL0     H 4776   4.930   7.272   4.208 -1.3975 -1.4816  0.4960
  794MOL0     H 4777   5.093   7.194   4.190 -0.3611 -0.9101 -0.6951
  794MOL0     H 4778   4.925   7.053   4.117  1.1640 -0.4605  0.4497
  794MOL0     H 4779   5.044   7.096   3.984  0.0731 -0.1065 -0.7167
  794MOL0     H 4780   4.751   7.201   4.018 -0.1760 -1.3119  0.1146
  794MOL0     H 4781   4.865   7.247   3.893 -2.2919  2.0160  0.7496
  794MOL0     H 4782   4.743   6.976   3.946 -1.6987 -0.1795  0.2265
  794MOL0     H 4783   4.882   6.990   3.843  1.3727  0.7599  0.6685
  794MOL0     H 4784   4.797   7.160   3.692  1.3045  0.1717  1.2400
  794MOL0     H 4785   4.636   7.153   3.777  1.4970  2.8775 -1.6767
  794MOL0     H 4786   4.771   6.919   3.629  0.8407 -0.1286  0.9249
  794MOL0     H 4787   4.621   6.911   3.721 -0.5552  0.4677  0.6332
  794MOL0     H 4788   4.557   6.923   3.497  0.3171 -0.1943 -0.2459
  794MOL0     H 4789   4.643   7.070   3.467 -1.5184 -0.6162 -0.8932
  794MOL0     H 4790   5.222   7.497   3.885 -0.4722 -1.5121  1.5708
  794MOL0     H 4791   5.452   7.541   3.829  2.6812 -0.8335  0.4950
  794MOL0     H 4792   5.816   7.690   3.832 -0.5842 -0.3271  2.2816
  794MOL0     H 4793   6.009   7.800   3.738 -2.0970  0.5309 -3.0211
  794MOL0     H 4794   7.793   8.103   3.523 -1.3879  0.3907  2.2977
  794MOL0     H 4795   8.010   8.175   3.399  1.2393  0.0172  0.6027
  794MOL0     H 4796   8.515   8.465   3.492  0.0493 -2.2126 -0.9469
  794MOL0     H 4797   8.651   8.601   3.351 -1.0216  2.1913  2.6369
  794MOL0     H 4798   8.565   8.603   2.960  0.1863  1.7473 -1.6024
  794MOL0     H 4799   8.685   8.568   3.076  0.3651 -0.1011  0.7856
  794MOL0     H 4800   8.780   8.676   2.881 -0.4862 -0.9566  1.0186
  794MOL0     H 4801   8.668   8.824   2.915 -2.5980 -1.2136  1.3794
  794MOL0     H 4802   8.883   8.729   3.095  0.1409  0.6631  0.1015
  794MOL0     H 4803   8.783   8.850   3.132 -0.1984 -0.3745  0.3594
  794MOL0     H 4804   8.836   8.974   2.921  2.5287  2.6131 -1.4556
  794MOL0     H 4805   8.949   8.980   3.052  0.3201 -0.6085 -0.3976
  794MOL0     H 4806   9.147   8.780   2.725  0.7804  0.7967 -0.0149
  794MOL0     H 4807   8.299   8.715   3.116 -1.0865 -1.3522 -1.2321
  794MOL0     H 4808   8.160   8.588   3.278  0.0841 -2.3656 -0.8737
  795MOL0     O 4809  10.636   7.111   6.298  0.6823  0.0163  0.4009
  795MOL0     C 4810  10.745   7.166   6.273 -0.7586 -0.0827 -0.8014
  795MOL0     O 4811  10.763   7.289   6.214  0.3269  0.3366 -0.3772
  795MOL0     C 4812  10.642   7.362   6.211 -0.3024  0.3459 -0.0579
  795MOL0     C 4813  10.561   7.341   6.101  0.6552  0.0239  0.0641
  795MOL0     C 4814  10.448   7.421   6.070 -0.5859 -0.0852 -0.8740
  795MOL0     C 4815  10.416   7.520   6.158 -0.0564  0.3965  0.1196
  795MOL0     O 4816  10.320   7.622   6.138 -0.1453  0.1590 -0.3669
  795MOL0     C 4817  10.256   7.640   6.008  0.0316  0.0041 -0.3275
  795MOL0     C 4818  10.189   7.774   6.010 -0.1115 -0.7548 -0.3224
  795MOL0     C 4819  10.085   7.803   5.896 -0.3138  0.0951 -0.0097
  795MOL0     C 4820   9.994   7.900   5.944  0.4115  0.1600 -0.0691
  795MOL0     C 4821   9.885   7.943   5.846  0.3549  0.2960  0.4912
  795MOL0     C 4822   9.775   8.040   5.904  0.8958  0.4504 -1.1753
  795MOL0     C 4823   9.688   7.966   6.015 -0.5285  0.0045  0.2940
  795MOL0     C 4824   9.586   8.064   6.059  0.4126 -0.1998  0.6047
  795MOL0     N 4825   9.482   8.006   6.140  0.4603 -0.1777 -0.2248
  795MOL0     C 4826   9.358   8.070   6.161  0.1228 -0.1154  0.3988
  795MOL0     C 4827   9.292   7.996   6.239  0.4729 -0.3242  0.1702
  795MOL0     C 4828   9.154   8.025   6.293 -0.5519 -0.5306  0.1601
  795MOL0     C 4829   9.151   8.015   6.446 -0.3201  0.9221  0.1962
  795MOL0     C 4830   9.036   8.101   6.498 -0.5281  0.0332  0.5491
  795MOL0     C 4831   9.078   8.128   6.646  0.9154 -0.7808 -0.2622
  795MOL0     O 4832   8.970   8.198   6.714  0.6484  0.2511  0.2506
  795MOL0     C 4833   8.987   8.233   6.840 -0.0875 -0.0539  0.6969
  795MOL0     C 4834   9.116   8.261   6.889  0.5026 -0.5702 -0.6829
  795MOL0     C 4835   9.130   8.285   7.030 -0.3878  0.5260  0.4962
  795MOL0     C 4836   9.025   8.266   7.121 -0.1138 -0.1011  0.1741
  795MOL0     C 4837   9.038   8.316   7.260  0.3869  0.5645  0.5398
  795MOL0     O 4838   8.935   8.343   7.331  0.2702 -0.2733  0.0100
  795MOL0     C 4839   8.951   8.375   7.460 -0.6744  0.0503  0.1317
  795MOL0     C 4840   9.045   8.314   7.548 -0.7149  0.2496 -0.2957
  795MOL0     C 4841   9.044   8.329   7.682 -0.2614 -0.6105 -0.7909
  795MOL0     C 4842   8.935   8.396   7.741 -0.3065 -0.6074  0.7514
  795MOL0     O 4843   8.910   8.393   7.878  0.7139  0.7484 -0.1103
  795MOL0     C 4844   8.962   8.283   7.953  0.3192 -0.1615 -0.2942
  795MOL0     C 4845   8.884   8.156   7.917  0.8353  0.4898 -0.7026
  795MOL0     C 4846   8.735   8.165   7.944 -0.7417  0.2378  0.3372
  795MOL0     C 4847   8.677   8.026   7.927  0.3440 -0.0979  0.7861
  795MOL0     C 4848   8.526   8.037   7.925  0.2928  0.1679 -0.1167
  795MOL0     C 4849   8.457   7.896   7.916  0.2133  0.3865  0.5256
  795MOL0     C 4850   8.320   7.896   7.974 -0.2639  0.2652 -0.1783
  795MOL0     C 4851   8.276   7.756   7.993 -1.1446  0.0886  0.8928
  795MOL0    Cl 4852   8.373   7.691   8.129 -0.0322  0.1901  0.1510
  795MOL0     C 4853   8.837   8.466   7.660 -0.2426  0.5598 -0.4278
  795MOL0     C 4854   8.847   8.452   7.523 -0.5193  0.4291  0.1806
  795MOL0     O 4855   9.154   8.336   7.299  0.2458  0.2972 -0.1266
  795MOL0     C 4856   8.894   8.240   7.064 -0.4687  0.2015 -1.0085
  795MOL0     C 4857   8.883   8.221   6.930 -0.0914 -0.1529  0.5624
  795MOL0     N 4858   9.358   7.881   6.255 -0.4123 -0.4126 -0.3723
  795MOL0     N 4859   9.475   7.890   6.205 -0.5678  0.5503 -0.9412
  795MOL0     C 4860  10.493   7.539   6.274 -0.1851 -0.0572  0.2144
  795MOL0     C 4861  10.601   7.457   6.306  0.1919  0.3527 -0.8239
  795MOL0     C 4862  10.876   7.102   6.322 -0.5811 -0.1796 -0.3414
  795MOL0     C 4863  11.000   7.171   6.335 -0.1484  0.6376  0.4333
  795MOL0     C 4864  11.116   7.119   6.381 -0.6093 -0.2436 -0.4611
  795MOL0     C 4865  11.112   6.988   6.427 -0.2905  0.1354  0.3168
  795MOL0     O 4866  11.215   6.907   6.473 -0.2664 -0.2840 -0.5604
  795MOL0     C 4867  11.337   6.970   6.509 -0.2644  0.1609 -0.5800
  795MOL0     C 4868  11.446   6.943   6.402  0.3073 -0.1213  0.5940
  795MOL0     C 4869  11.586   6.987   6.445  0.1526 -0.2256 -0.4601
  795MOL0     C 4870  11.635   6.951   6.586 -0.1729  0.6458  0.4662
  795MOL0     C 4871  11.742   7.036   6.638  0.8126 -0.1042 -0.2404
  795MOL0     C 4872  11.829   7.088   6.705 -0.1694 -1.1958 -0.5490
  795MOL0     C 4873  10.993   6.920   6.429  0.7858  0.8533 -0.7721
  795MOL0     C 4874  10.869   6.967   6.381  0.1977  0.4456  0.9003
  795MOL0     H 4875  10.594   7.266   6.030  0.6205 -3.2548  3.2251
  795MOL0     H 4876  10.404   7.401   5.973  0.1427  2.8561 -1.9084
  795MOL0     H 4877  10.184   7.559   5.994 -0.5383  0.2885  0.8333
  795MOL0     H 4878  10.328   7.642   5.926  0.9510 -0.6488  0.4350
  795MOL0     H 4879  10.259   7.858   6.003 -1.0905 -0.0131 -1.7539
  795MOL0     H 4880  10.138   7.778   6.106 -0.5814  2.0152 -0.6103
  795MOL0     H 4881  10.040   7.708   5.866  2.2371 -2.0440  2.3054
  795MOL0     H 4882  10.139   7.841   5.809 -1.0137 -0.1798 -0.5686
  795MOL0     H 4883   9.945   7.864   6.034 -0.2074  0.2628 -0.3564
  795MOL0     H 4884  10.055   7.977   5.993  1.7720 -2.3099  2.3565
  795MOL0     H 4885   9.844   7.859   5.789  1.6051  1.6033 -2.5571
  795MOL0     H 4886   9.933   7.994   5.761 -1.0882  0.5124 -0.2371
  795MOL0     H 4887   9.715   8.088   5.825  2.2442  2.1337 -1.2352
  795MOL0     H 4888   9.823   8.123   5.956 -0.2237 -1.2972  3.0709
  795MOL0     H 4889   9.639   7.881   5.967 -1.1389  0.9532 -0.8285
  795MOL0     H 4890   9.744   7.939   6.105  0.6980 -0.5303 -0.5893
  795MOL0     H 4891   9.536   8.103   5.970  0.6345  2.1018  1.4019
  795MOL0     H 4892   9.629   8.154   6.104 -0.3557  0.9293 -0.8157
  795MOL0     H 4893   9.319   8.169   6.138 -2.7701 -0.5836  2.6558
  795MOL0     H 4894   9.076   7.960   6.250 -1.9797  1.9030 -1.1193
  795MOL0     H 4895   9.133   8.127   6.262 -0.3738 -0.4763  0.2197
  795MOL0     H 4896   9.244   8.053   6.489 -0.3775 -0.7442  1.9211
  795MOL0     H 4897   9.138   7.913   6.484  0.3720 -0.8008 -3.6996
  795MOL0     H 4898   9.018   8.198   6.450 -2.0054 -0.8000 -0.6849
  795MOL0     H 4899   8.942   8.045   6.486 -1.7332  2.0676  0.0465
  795MOL0     H 4900   9.163   8.197   6.639 -0.4260  0.7625 -4.4006
  795MOL0     H 4901   9.105   8.028   6.683  0.4896 -1.3917 -1.5485
  795MOL0     H 4902   9.206   8.272   6.830  1.5009 -0.5625  0.7698
  795MOL0     H 4903   9.229   8.317   7.063  0.3050 -0.6822 -0.3041
  795MOL0     H 4904   9.112   8.240   7.504 -1.6949 -0.5300 -0.5107
  795MOL0     H 4905   9.117   8.288   7.752 -0.8766  0.1727  0.3494
  795MOL0     H 4906   8.940   8.317   8.055 -1.0177  1.5634 -1.1125
  795MOL0     H 4907   9.070   8.266   7.946  0.3380 -0.2479  0.1558
  795MOL0     H 4908   8.918   8.071   7.978  2.1502 -0.1663 -2.2911
  795MOL0     H 4909   8.906   8.132   7.813 -0.6389  0.1826 -0.9730
  795MOL0     H 4910   8.685   8.227   7.869 -0.8059  3.8175  3.0692
  795MOL0     H 4911   8.717   8.209   8.043  0.1942 -0.3156  0.7695
  795MOL0     H 4912   8.709   7.981   7.832  0.1768  2.0986 -0.3861
  795MOL0     H 4913   8.709   7.959   8.007  0.9224 -0.8727 -0.0733
  795MOL0     H 4914   8.502   8.105   7.843  0.9316 -1.3600 -1.6184
  795MOL0     H 4915   8.499   8.090   8.017  2.3340  2.0281 -0.5067
  795MOL0     H 4916   8.515   7.823   7.973  2.5231  1.2596 -0.5981
  795MOL0     H 4917   8.447   7.857   7.814  0.6610 -4.0811  1.9484
  795MOL0     H 4918   8.319   7.950   8.069 -0.5600  1.0328 -0.6058
  795MOL0     H 4919   8.239   7.937   7.913 -1.1009 -1.9018 -0.6160
  795MOL0     H 4920   8.306   7.695   7.908 -1.9305 -0.8281  1.2514
  795MOL0     H 4921   8.169   7.755   8.017 -1.1031 -0.7292  1.0756
  795MOL0     H 4922   8.758   8.532   7.695 -2.0204 -1.4331 -0.4982
  795MOL0     H 4923   8.769   8.504   7.467 -0.8565 -0.1009  0.1498
  795MOL0     H 4924   8.810   8.234   7.132  0.3163  0.8210  0.0534
  795MOL0     H 4925   8.787   8.204   6.882  0.5060 -0.7938 -0.4414
  795MOL0     H 4926  10.471   7.608   6.355 -0.0675 -2.5642  2.5511
  795MOL0     H 4927  10.667   7.478   6.389 -0.2119 -0.6050 -0.2368
  795MOL0     H 4928  11.010   7.274   6.303 -2.5612  1.7820  2.9690
  795MOL0     H 4929  11.208   7.170   6.355  1.2353 -3.3901 -0.6051
  795MOL0     H 4930  11.359   6.930   6.609 -1.1425  2.0485  0.4185
  795MOL0     H 4931  11.335   7.079   6.520 -1.6341  0.0240  0.8053
  795MOL0     H 4932  11.451   6.834   6.396  1.7938 -0.1912  2.2026
  795MOL0     H 4933  11.419   6.983   6.304 -0.7605  0.2888  1.0390
  795MOL0     H 4934  11.597   7.096   6.436  1.5631 -0.3238 -0.2159
  795MOL0     H 4935  11.664   6.947   6.380 -0.2097 -0.1563 -0.9446
  795MOL0     H 4936  11.553   6.978   6.654 -1.2324  0.8167 -0.8264
  795MOL0     H 4937  11.661   6.845   6.591  1.4559  1.0886  2.8908
  795MOL0     H 4938  11.918   7.129   6.748 -0.3298 -1.5515  0.1406
  795MOL0     H 4939  11.002   6.818   6.465  1.8645  0.0816 -3.0000
  795MOL0     H 4940  10.777   6.911   6.388 -1.2809  1.8923 -3.5047
  796MOL0     O 4941   3.276   5.810   1.775 -0.1059 -0.6970 -0.0188
  796MOL0     C 4942   3.376   5.748   1.737 -0.6511  0.3379  0.1030
  796MOL0     O 4943   3.385   5.615   1.732 -0.2181 -0.4905 -0.6508
  796MOL0     C 4944   3.276   5.543   1.766 -0.1635  0.2486 -0.2515
  796MOL0     C 4945   3.282   5.492   1.892  0.5795 -0.0270  0.6581
  796MOL0     C 4946   3.170   5.437   1.953 -0.3753 -0.2324  0.6018
  796MOL0     C 4947   3.048   5.427   1.888 -0.0765  0.2610 -1.3603
  796MOL0     O 4948   2.937   5.379   1.951 -0.7996 -0.4795  0.4958
  796MOL0     C 4949   2.913   5.241   1.928 -0.4850  0.4555 -0.6379
  796MOL0     C 4950   2.788   5.225   2.017 -0.6108 -0.5902  0.5244
  796MOL0     C 4951   2.647   5.234   1.952  0.6765 -0.6263 -0.4877
  796MOL0     C 4952   2.530   5.230   2.057 -0.8366  0.9783  0.0416
  796MOL0     C 4953   2.482   5.086   2.074  0.0429  0.0801 -0.4092
  796MOL0     C 4954   2.369   5.067   2.173 -0.4133  0.7353 -0.6878
  796MOL0     C 4955   2.301   4.934   2.150  0.8058 -1.0961 -0.3703
  796MOL0     C 4956   2.401   4.815   2.159 -0.1138  0.6774 -0.2851
  796MOL0     N 4957   2.324   4.687   2.143  0.0130 -0.6823 -0.4488
  796MOL0     C 4958   2.255   4.630   2.246 -0.3846 -0.0859 -0.5141
  796MOL0     C 4959   2.228   4.508   2.191  0.7383  0.5282  0.5253
  796MOL0     C 4960   2.164   4.392   2.262 -0.1441  0.1593 -0.0567
  796MOL0     C 4961   2.013   4.380   2.235 -0.0768 -0.5525 -0.1448
  796MOL0     C 4962   1.959   4.244   2.285 -0.2515  0.0150 -0.3971
  796MOL0     C 4963   1.962   4.233   2.445 -0.5719  0.0984 -0.6996
  796MOL0     O 4964   1.906   4.113   2.491  0.8542 -0.2135 -0.3062
  796MOL0     C 4965   1.771   4.096   2.504 -0.9579  0.1070 -0.1041
  796MOL0     C 4966   1.680   4.196   2.470  0.0287 -0.4091 -0.0729
  796MOL0     C 4967   1.541   4.176   2.492  0.3392 -0.2708  0.3469
  796MOL0     C 4968   1.504   4.057   2.546 -0.0826 -1.3269  0.7986
  796MOL0     C 4969   1.359   4.042   2.575 -0.0618  0.5582 -0.2239
  796MOL0     O 4970   1.321   3.957   2.665  0.1982 -0.0857 -0.0873
  796MOL0     C 4971   1.188   3.921   2.668  0.8405 -0.9819  0.3221
  796MOL0     C 4972   1.110   3.948   2.777  0.5844 -0.1779 -0.9555
  796MOL0     C 4973   0.972   3.905   2.783 -0.3396 -1.0442  0.4380
  796MOL0     C 4974   0.914   3.838   2.676  0.7447  0.1250  0.5514
  796MOL0     O 4975   0.784   3.793   2.664  0.2457 -0.1183 -0.7122
  796MOL0     C 4976   0.696   3.799   2.771  0.0610  0.1905 -1.4079
  796MOL0     C 4977   0.555   3.755   2.717  0.3638  0.2084 -0.3046
  796MOL0     C 4978   0.451   3.741   2.837  0.6014 -0.3094  0.2977
  796MOL0     C 4979   0.328   3.671   2.794 -0.2618  0.9916 -1.1920
  796MOL0     C 4980   0.238   3.752   2.694 -0.0322 -0.8334  0.0287
  796MOL0     C 4981   0.096   3.699   2.689 -0.4116 -0.1478 -0.1320
  796MOL0     C 4982   0.004   3.792   2.600  0.4906  0.2288  0.0442
  796MOL0     C 4983  -0.138   3.749   2.599 -0.4749 -0.5695  0.2063
  796MOL0    Cl 4984  -0.155   3.602   2.516 -0.1804 -0.1926  0.2834
  796MOL0     C 4985   0.986   3.831   2.561  0.3719  0.1513  0.3668
  796MOL0     C 4986   1.118   3.868   2.558  0.1535 -0.2755 -0.5831
  796MOL0     O 4987   1.286   4.103   2.499  0.5698 -0.1610  0.1953
  796MOL0     C 4988   1.596   3.958   2.576 -0.0574  0.0327  0.2923
  796MOL0     C 4989   1.728   3.973   2.553  0.1416 -0.5069 -0.0057
  796MOL0     N 4990   2.261   4.508   2.056  1.1642 -0.0327 -0.5335
  796MOL0     N 4991   2.317   4.616   2.028 -0.0828 -0.4550 -0.1522
  796MOL0     C 4992   3.045   5.480   1.757  0.9109  0.0847  0.3092
  796MOL0     C 4993   3.167   5.524   1.692 -0.3789 -0.3561 -1.0987
  796MOL0     C 4994   3.486   5.825   1.667 -0.2010  0.0454  0.0006
  796MOL0     C 4995   3.613   5.767   1.647 -0.0769  0.3107 -0.5892
  796MOL0     C 4996   3.715   5.832   1.592 -0.2818 -0.2196  0.3894
  796MOL0     C 4997   3.703   5.965   1.544  0.7811  0.4290  0.0424
  796MOL0     O 4998   3.807   6.041   1.489 -0.3205  0.3586 -0.0451
  796MOL0     C 4999   3.932   5.967   1.454  0.8364  0.4193  0.0115
  796MOL0     C 5000   4.027   6.071   1.390 -0.1079  0.3961  0.1260
  796MOL0     C 5001   4.084   6.173   1.490  0.4644  0.3667  0.2757
  796MOL0     C 5002   4.219   6.140   1.554  0.4509  0.8921  0.2248
  796MOL0     C 5003   4.206   6.012   1.623  0.4610 -0.1242  0.8365
  796MOL0     C 5004   4.193   5.914   1.682 -0.2225  0.6837 -0.1125
  796MOL0     C 5005   3.580   6.025   1.561 -0.6637 -0.2538  0.2166
  796MOL0     C 5006   3.477   5.953   1.620  0.2743  0.5824  0.3219
  796MOL0     H 5007   3.380   5.491   1.937  0.9314  2.2412  0.0802
  796MOL0     H 5008   3.178   5.409   2.058  0.9236 -1.7678  0.1413
  796MOL0     H 5009   3.003   5.191   1.964 -0.5696  0.9781  0.3394
  796MOL0     H 5010   2.883   5.224   1.825 -0.9208  1.0842 -0.6229
  796MOL0     H 5011   2.785   5.310   2.086  1.6571 -0.8740  1.0557
  796MOL0     H 5012   2.789   5.131   2.072 -0.9830 -1.1958 -0.4920
  796MOL0     H 5013   2.644   5.153   1.878  1.4147 -2.2107  1.1261
  796MOL0     H 5014   2.636   5.329   1.900  0.5109  0.8284  2.0583
  796MOL0     H 5015   2.551   5.292   2.145 -0.4468  3.0414 -1.4206
  796MOL0     H 5016   2.444   5.279   2.010 -1.6210 -3.1123 -3.4152
  796MOL0     H 5017   2.577   5.040   2.101 -0.0541  0.3947  0.5079
  796MOL0     H 5018   2.456   5.045   1.976 -0.4694 -2.1076  0.5721
  796MOL0     H 5019   2.290   5.139   2.152 -1.2089 -0.8632 -3.9040
  796MOL0     H 5020   2.392   5.076   2.280 -3.6992  1.7084  0.0283
  796MOL0     H 5021   2.215   4.922   2.216  0.5463 -1.3438 -0.7554
  796MOL0     H 5022   2.271   4.938   2.045  2.9440 -1.4636 -1.0500
  796MOL0     H 5023   2.451   4.820   2.256 -1.1634  0.4132  0.2874
  796MOL0     H 5024   2.490   4.814   2.095  2.2026  2.6958  2.5925
  796MOL0     H 5025   2.241   4.652   2.351 -1.3143 -3.4745  0.1717
  796MOL0     H 5026   2.169   4.406   2.370  0.6794  0.1423 -0.0927
  796MOL0     H 5027   2.205   4.296   2.229 -1.2911 -1.0073  1.7237
  796MOL0     H 5028   2.009   4.375   2.125  1.2296  1.2982 -0.3198
  796MOL0     H 5029   1.963   4.471   2.270  0.1685  0.4102 -2.1501
  796MOL0     H 5030   1.859   4.224   2.246  0.5886  0.3500 -2.8824
  796MOL0     H 5031   2.020   4.158   2.257  1.0554 -0.0192  2.2554
  796MOL0     H 5032   1.916   4.316   2.499  0.8093  1.9596 -2.2374
  796MOL0     H 5033   2.066   4.231   2.477 -0.3753 -2.5404 -1.2632
  796MOL0     H 5034   1.713   4.292   2.431  1.6250 -0.5793  0.7769
  796MOL0     H 5035   1.474   4.261   2.485  0.7214  0.0185  0.1783
  796MOL0     H 5036   1.155   3.975   2.872  2.0644 -0.0713 -1.6541
  796MOL0     H 5037   0.908   3.921   2.870 -1.3778 -1.9106 -0.1497
  796MOL0     H 5038   0.692   3.896   2.821  1.9882  1.2277 -3.0828
  796MOL0     H 5039   0.723   3.727   2.848 -3.3440  1.2397  0.9903
  796MOL0     H 5040   0.560   3.659   2.665  0.8499  0.3189 -0.4689
  796MOL0     H 5041   0.524   3.831   2.645 -2.6658  0.8680  1.5691
  796MOL0     H 5042   0.423   3.839   2.878 -1.1832 -0.2005 -1.0973
  796MOL0     H 5043   0.500   3.689   2.920  2.0105 -1.1210 -0.9802
  796MOL0     H 5044   0.359   3.577   2.748 -0.7065 -0.2514  0.8982
  796MOL0     H 5045   0.274   3.639   2.883  1.8167  2.7220  0.8077
  796MOL0     H 5046   0.280   3.757   2.593 -1.1762 -2.1237 -0.5433
  796MOL0     H 5047   0.221   3.852   2.734 -2.3809 -1.8930  1.9518
  796MOL0     H 5048   0.053   3.698   2.790 -3.2264 -1.9427 -1.2034
  796MOL0     H 5049   0.091   3.599   2.644 -0.9959 -1.2237  2.1817
  796MOL0     H 5050   0.012   3.897   2.630  1.2257 -0.5606  2.8801
  796MOL0     H 5051   0.044   3.794   2.497  1.4614 -2.0155  0.3261
  796MOL0     H 5052  -0.204   3.825   2.557 -1.8938 -1.4928  0.6643
  796MOL0     H 5053  -0.175   3.738   2.702 -0.6575  1.4254  0.3973
  796MOL0     H 5054   0.945   3.788   2.471 -0.0157  2.0149 -0.4095
  796MOL0     H 5055   1.167   3.859   2.461  0.1825 -1.2108 -0.4902
  796MOL0     H 5056   1.564   3.860   2.612 -0.3489 -0.2121 -0.6074
  796MOL0     H 5057   1.796   3.895   2.587  0.1463 -0.6953 -0.4346
  796MOL0     H 5058   2.953   5.478   1.699 -1.7318  0.2969  4.1393
  796MOL0     H 5059   3.167   5.562   1.591 -2.5972  1.5105 -0.4911
  796MOL0     H 5060   3.622   5.664   1.680 -0.5204  0.2883 -0.5276
  796MOL0     H 5061   3.810   5.782   1.577  0.5686  2.0514 -2.8633
  796MOL0     H 5062   3.907   5.891   1.380 -0.3976 -0.8983  1.6951
  796MOL0     H 5063   3.969   5.918   1.545 -2.9267 -1.5855  0.7061
  796MOL0     H 5064   4.108   6.023   1.335  0.3199  2.3162 -1.0000
  796MOL0     H 5065   3.966   6.132   1.323 -3.0120 -1.3823  0.9574
  796MOL0     H 5066   4.010   6.191   1.568  0.8383  0.6559  0.5642
  796MOL0     H 5067   4.101   6.265   1.433  1.0149 -2.0031 -3.7729
  796MOL0     H 5068   4.300   6.129   1.481  0.7279  1.8373  0.3769
  796MOL0     H 5069   4.240   6.223   1.622 -2.2240  2.9389 -1.2716
  796MOL0     H 5070   4.184   5.818   1.728  0.3933  1.2535  1.2471
  796MOL0     H 5071   3.549   6.123   1.527 -2.0701 -0.7604 -0.0278
  796MOL0     H 5072   3.381   6.004   1.627 -0.8546 -1.4715  0.6314
  797MOL0     O 5073   6.349   9.059   6.059  0.0539 -0.2688  0.0534
  797MOL0     C 5074   6.444   8.980   6.090  0.5044  0.0909  0.2312
  797MOL0     O 5075   6.460   8.912   6.207 -0.1053  0.0148 -0.0228
  797MOL0     C 5076   6.348   8.892   6.287 -0.8415 -0.1933 -0.3044
  797MOL0     C 5077   6.229   8.853   6.242  0.5882  0.6310  0.1508
  797MOL0     C 5078   6.119   8.826   6.332  0.5017 -0.2976 -0.6399
  797MOL0     C 5079   6.122   8.852   6.470 -0.8571 -0.1078 -0.1961
  797MOL0     O 5080   6.014   8.853   6.554  0.3771  0.2034 -0.4081
  797MOL0     C 5081   5.930   8.741   6.538 -0.1338  0.0865 -0.4110
  797MOL0     C 5082   5.845   8.730   6.658  0.2959  0.3264 -0.4252
  797MOL0     C 5083   5.739   8.633   6.638  0.3382  0.5875  0.8392
  797MOL0     C 5084   5.652   8.602   6.773  1.0168 -0.4458 -0.1256
  797MOL0     C 5085   5.605   8.719   6.849 -0.6245 -1.2668 -0.2354
  797MOL0     C 5086   5.477   8.688   6.923  0.3937 -0.4249 -0.1022
  797MOL0     C 5087   5.479   8.571   7.022 -0.0210  0.3903 -0.2197
  797MOL0     C 5088   5.343   8.529   7.077  0.6164 -0.9617 -0.9464
  797MOL0     N 5089   5.285   8.626   7.175 -0.1689  0.2512  0.5395
  797MOL0     C 5090   5.181   8.709   7.159 -0.4777  0.6378  0.0859
  797MOL0     C 5091   5.172   8.777   7.279 -1.2953  0.1560  0.6749
  797MOL0     C 5092   5.065   8.871   7.321  0.1142  0.2623 -0.2421
  797MOL0     C 5093   4.945   8.806   7.398 -0.8323  0.3178 -0.2752
  797MOL0     C 5094   4.975   8.738   7.529  0.7080  1.2023  0.7927
  797MOL0     C 5095   4.837   8.694   7.586 -0.0407  0.1849  0.0814
  797MOL0     O 5096   4.794   8.554   7.557 -0.0224 -0.4612  0.6684
  797MOL0     C 5097   4.658   8.526   7.580 -0.1458 -0.4936 -0.8185
  797MOL0     C 5098   4.619   8.409   7.518 -0.1630  0.7997 -0.5901
  797MOL0     C 5099   4.482   8.367   7.534 -0.5645  0.5068 -0.1546
  797MOL0     C 5100   4.391   8.436   7.631 -0.4179 -0.3039  0.0387
  797MOL0     C 5101   4.260   8.379   7.660 -0.2632 -0.3115 -0.2323
  797MOL0     O 5102   4.166   8.470   7.696 -0.7862 -0.5254 -0.3128
  797MOL0     C 5103   4.037   8.437   7.711 -0.5184  0.0055 -0.0372
  797MOL0     C 5104   3.945   8.485   7.630  0.0004  0.1223 -0.0701
  797MOL0     C 5105   3.814   8.448   7.623  0.4390  0.5084  0.0144
  797MOL0     C 5106   3.758   8.351   7.714 -0.3971 -0.5039  0.1808
  797MOL0     O 5107   3.630   8.307   7.731  0.1140 -0.3193  0.4439
  797MOL0     C 5108   3.531   8.339   7.621 -0.3018  0.4703 -0.0343
  797MOL0     C 5109   3.413   8.415   7.678 -0.0000  0.3280  0.6033
  797MOL0     C 5110   3.323   8.464   7.564 -0.5874 -0.7434  0.4730
  797MOL0     C 5111   3.222   8.567   7.598 -0.2737  0.4993 -0.6851
  797MOL0     C 5112   3.099   8.564   7.500  0.0372 -0.0178  0.4619
  797MOL0     C 5113   2.976   8.654   7.552 -0.4530 -0.3796  0.0673
  797MOL0     C 5114   2.856   8.666   7.464  0.5053 -0.1572  0.4577
  797MOL0     C 5115   2.737   8.731   7.544  0.2729  0.0124 -0.7639
  797MOL0    Cl 5116   2.772   8.879   7.636 -0.0421 -0.3875  0.5483
  797MOL0     C 5117   3.857   8.294   7.805 -0.1184 -1.1448 -0.4833
  797MOL0     C 5118   3.993   8.343   7.808 -0.9752  0.1028 -0.4674
  797MOL0     O 5119   4.246   8.264   7.639  0.1601 -0.1046  0.0575
  797MOL0     C 5120   4.438   8.557   7.694  0.2316  1.0097  0.2826
  797MOL0     C 5121   4.565   8.598   7.662 -0.1760 -0.8674  0.4032
  797MOL0     N 5122   5.275   8.734   7.359 -0.2263 -0.0746  0.0839
  797MOL0     N 5123   5.339   8.647   7.295 -0.6230  0.3006 -0.8069
  797MOL0     C 5124   6.239   8.908   6.507 -1.1974 -0.0530 -1.0353
  797MOL0     C 5125   6.352   8.920   6.425 -0.8344  0.1624  0.9149
  797MOL0     C 5126   6.557   8.976   5.994  0.5310  0.2332  0.4838
  797MOL0     C 5127   6.680   8.909   6.024 -0.1507  0.4513  0.2208
  797MOL0     C 5128   6.770   8.885   5.917 -0.9804 -1.2660 -0.1246
  797MOL0     C 5129   6.751   8.952   5.795 -0.4774  0.8966 -0.6888
  797MOL0     O 5130   6.840   8.929   5.698  0.2095 -0.1749  0.2821
  797MOL0     C 5131   6.984   8.932   5.728  0.1492 -0.5574  0.0306
  797MOL0     C 5132   7.030   9.058   5.639 -0.0547  0.4897 -0.8751
  797MOL0     C 5133   7.166   9.042   5.575 -0.2451  0.6516  0.1787
  797MOL0     C 5134   7.187   9.154   5.475  1.0027  0.8524  0.2178
  797MOL0     C 5135   7.210   9.282   5.541  0.0380  0.0522 -1.2790
  797MOL0     C 5136   7.225   9.389   5.593 -0.5275  0.2101  0.7303
  797MOL0     C 5137   6.644   9.026   5.768 -0.2881  0.0400  0.0590
  797MOL0     C 5138   6.544   9.037   5.864  0.7415  0.1566 -1.1789
  797MOL0     H 5139   6.207   8.839   6.137 -0.8265 -3.4097  0.7640
  797MOL0     H 5140   6.024   8.790   6.294 -0.7582 -0.9032  2.7425
  797MOL0     H 5141   5.992   8.654   6.516  0.9583  1.4986 -3.4238
  797MOL0     H 5142   5.866   8.776   6.457 -1.0844  0.7297  0.5714
  797MOL0     H 5143   5.796   8.823   6.686  0.5140 -0.0693  1.4532
  797MOL0     H 5144   5.909   8.707   6.744  1.9154  1.8745 -1.1556
  797MOL0     H 5145   5.778   8.539   6.597  3.3760  1.5636  1.2858
  797MOL0     H 5146   5.665   8.685   6.577  0.5334 -1.5830 -1.3896
  797MOL0     H 5147   5.569   8.538   6.745  1.3636  0.2839 -3.1613
  797MOL0     H 5148   5.709   8.553   6.853  0.3756  0.2832  0.8007
  797MOL0     H 5149   5.579   8.804   6.785 -2.8296 -1.2025  0.6666
  797MOL0     H 5150   5.680   8.764   6.915 -2.5143  2.1238 -0.1767
  797MOL0     H 5151   5.394   8.670   6.854 -2.7587 -2.9892  3.8569
  797MOL0     H 5152   5.458   8.780   6.979 -1.3961  0.0289 -1.3547
  797MOL0     H 5153   5.523   8.490   6.963  1.5678  2.6098 -2.2870
  797MOL0     H 5154   5.551   8.594   7.101  1.0076 -3.9500  0.3307
  797MOL0     H 5155   5.322   8.436   7.132 -1.8567  0.6089  1.0401
  797MOL0     H 5156   5.275   8.523   6.992 -1.0318 -3.1647  0.3796
  797MOL0     H 5157   5.113   8.701   7.075  1.3858 -1.0220 -1.3893
  797MOL0     H 5158   5.019   8.919   7.233 -2.1639 -1.3608 -0.0159
  797MOL0     H 5159   5.108   8.945   7.390 -0.4072  0.0513  0.3106
  797MOL0     H 5160   4.901   8.745   7.318  0.8756  2.5657 -3.1178
  797MOL0     H 5161   4.870   8.885   7.406  0.2882  1.2611  1.3733
  797MOL0     H 5162   5.049   8.662   7.504  2.5119  3.8064 -2.5613
  797MOL0     H 5163   5.016   8.811   7.600 -0.4543  2.2697  0.3999
  797MOL0     H 5164   4.753   8.759   7.561  0.5946  0.5162 -1.2521
  797MOL0     H 5165   4.849   8.692   7.695 -2.6325  2.1225  0.5046
  797MOL0     H 5166   4.683   8.343   7.461 -2.0497 -1.0889 -0.6874
  797MOL0     H 5167   4.451   8.273   7.490  0.1926  0.2454 -0.1441
  797MOL0     H 5168   3.978   8.549   7.549 -2.3463  2.0373  0.3737
  797MOL0     H 5169   3.760   8.501   7.545 -0.3411 -2.2492 -1.4319
  797MOL0     H 5170   3.487   8.243   7.590 -0.2947  0.6970 -0.7479
  797MOL0     H 5171   3.573   8.398   7.539  3.8826 -0.8475  0.8779
  797MOL0     H 5172   3.449   8.507   7.725 -0.4189  0.8845 -0.1513
  797MOL0     H 5173   3.353   8.345   7.738 -1.0535  0.1601 -0.5892
  797MOL0     H 5174   3.271   8.381   7.515 -0.5160  0.0318 -0.9563
  797MOL0     H 5175   3.384   8.506   7.484  0.7316  2.0494  2.7606
  797MOL0     H 5176   3.181   8.555   7.699  3.1778 -1.0101  0.6913
  797MOL0     H 5177   3.270   8.664   7.581 -0.1537  1.3773  3.6111
  797MOL0     H 5178   3.060   8.462   7.497  1.3885 -0.5387 -1.8514
  797MOL0     H 5179   3.131   8.598   7.401  0.2291  2.0576  1.1762
  797MOL0     H 5180   3.016   8.753   7.575  1.9185 -1.3876  0.5542
  797MOL0     H 5181   2.935   8.605   7.641 -2.0065 -2.1086 -1.5034
  797MOL0     H 5182   2.875   8.730   7.377 -1.7269  0.3547  0.3041
  797MOL0     H 5183   2.826   8.564   7.436  1.8646 -0.0133 -1.8064
  797MOL0     H 5184   2.714   8.654   7.619 -1.2529  1.2786  0.1148
  797MOL0     H 5185   2.653   8.750   7.476 -1.4461  0.1651  1.3102
  797MOL0     H 5186   3.800   8.229   7.870 -1.7738 -0.0874 -0.8094
  797MOL0     H 5187   4.067   8.308   7.879  1.4496  2.3441 -1.6819
  797MOL0     H 5188   4.380   8.608   7.770 -1.9387 -1.9601  0.7943
  797MOL0     H 5189   4.605   8.684   7.715 -1.4827 -1.0233  1.7210
  797MOL0     H 5190   6.259   8.947   6.606  2.1817 -0.5970 -1.3929
  797MOL0     H 5191   6.442   8.958   6.472  0.2170  1.1810 -1.7087
  797MOL0     H 5192   6.700   8.874   6.125 -0.9716 -1.6793 -0.3129
  797MOL0     H 5193   6.854   8.819   5.933 -0.7708 -0.7510  0.9601
  797MOL0     H 5194   7.024   8.836   5.695  2.0557  0.2132 -0.0552
  797MOL0     H 5195   7.008   8.951   5.834  2.0535  1.0643 -0.6110
  797MOL0     H 5196   6.958   9.083   5.559 -1.2965 -0.0011  0.0624
  797MOL0     H 5197   7.019   9.151   5.696 -1.6448 -0.1282 -0.1176
  797MOL0     H 5198   7.170   8.942   5.530 -0.8448  0.7559 -0.1174
  797MOL0     H 5199   7.244   9.034   5.651  0.9306 -0.5601 -1.0927
  797MOL0     H 5200   7.274   9.138   5.410 -1.3574  0.7241 -3.1742
  797MOL0     H 5201   7.101   9.149   5.409  0.4247 -0.3038  1.0173
  797MOL0     H 5202   7.235   9.489   5.630 -3.0214  0.4833  0.8876
  797MOL0     H 5203   6.645   9.074   5.671  2.6964 -2.9699 -1.6252
  797MOL0     H 5204   6.452   9.088   5.838 -2.1360 -5.0864 -2.5016
  798MOL0     O 5205   4.834  10.000   6.714 -0.1341  0.2724 -0.0323
  798MOL0     C 5206   4.829  10.026   6.589  0.7128  0.3035 -0.0908
  798MOL0     O 5207   4.720  10.005   6.508  0.1784 -0.2887 -0.1037
  798MOL0     C 5208   4.604   9.969   6.569 -0.5634 -0.4276 -0.6006
  798MOL0     C 5209   4.490  10.025   6.525  1.7662 -0.2143  0.1176
  798MOL0     C 5210   4.365   9.988   6.576  0.9485  0.6434 -0.4083
  798MOL0     C 5211   4.362   9.877   6.655  0.1240 -0.5798 -0.0586
  798MOL0     O 5212   4.232   9.842   6.689  0.1357  0.0138 -0.6274
  798MOL0     C 5213   4.212   9.750   6.805 -0.6614  0.2755  0.2873
  798MOL0     C 5214   4.066   9.763   6.846  0.2847  1.0938 -0.6832
  798MOL0     C 5215   3.976   9.716   6.728 -0.4605 -0.6096 -0.0718
  798MOL0     C 5216   3.826   9.726   6.761  0.4148 -0.8418 -0.2182
  798MOL0     C 5217   3.743   9.640   6.678 -0.0086 -0.7791  0.2822
  798MOL0     C 5218   3.764   9.662   6.523  0.6278 -0.2487 -0.4207
  798MOL0     C 5219   3.706   9.805   6.481 -1.2333  0.1174  0.1998
  798MOL0     C 5220   3.701   9.837   6.330 -1.0265 -0.7377  0.9826
  798MOL0     N 5221   3.568   9.811   6.283  0.9633 -0.7785  0.5315
  798MOL0     C 5222   3.445   9.863   6.329  0.3875  0.3257 -0.4870
  798MOL0     C 5223   3.354   9.823   6.237  0.5416 -1.0359 -0.9715
  798MOL0     C 5224   3.203   9.866   6.221 -0.1372 -0.1417  0.3574
  798MOL0     C 5225   3.094   9.771   6.275  0.5752 -0.1604 -0.5542
  798MOL0     C 5226   3.071   9.650   6.190 -0.5262  0.0521  0.5810
  798MOL0     C 5227   2.929   9.604   6.205  0.5333  0.2772  0.5262
  798MOL0     O 5228   2.907   9.475   6.143  0.5047 -0.1270 -0.0281
  798MOL0     C 5229   2.777   9.423   6.151 -0.7836  0.1129  0.7095
  798MOL0     C 5230   2.750   9.316   6.072 -0.1789  0.5196  0.5514
  798MOL0     C 5231   2.618   9.265   6.069 -0.5426  0.5283  0.2126
  798MOL0     C 5232   2.511   9.323   6.138 -0.7252 -0.2939  0.3171
  798MOL0     C 5233   2.370   9.292   6.125  1.0054 -0.1890  0.1356
  798MOL0     O 5234   2.341   9.195   6.034  0.4948  0.1071  0.3945
  798MOL0     C 5235   2.216   9.143   6.010  0.5207 -0.2714  0.2682
  798MOL0     C 5236   2.122   9.123   6.112 -0.1886 -0.0328 -0.2263
  798MOL0     C 5237   1.993   9.079   6.088  0.2777 -0.8284  0.4189
  798MOL0     C 5238   1.956   9.043   5.958  1.1002 -0.2428 -0.0353
  798MOL0     O 5239   1.823   9.014   5.939 -0.1788 -0.0333  0.2832
  798MOL0     C 5240   1.759   9.077   5.831  0.6259  0.9414 -0.0910
  798MOL0     C 5241   1.608   9.061   5.834  0.2325  0.1699 -0.3373
  798MOL0     C 5242   1.562   9.084   5.976 -0.1305 -0.3709 -0.0752
  798MOL0     C 5243   1.406   9.086   5.973  0.3218  0.6829  0.9633
  798MOL0     C 5244   1.348   9.160   6.087  0.1470 -0.0274 -0.0916
  798MOL0     C 5245   1.193   9.167   6.097 -0.5916  0.2017 -0.1096
  798MOL0     C 5246   1.133   9.267   6.196 -0.2129 -0.4163  0.1253
  798MOL0     C 5247   0.994   9.315   6.153  0.0350  0.8950  0.2635
  798MOL0    Cl 5248   0.887   9.178   6.101  0.2658  0.4140 -0.5875
  798MOL0     C 5249   2.049   9.063   5.854 -0.2285  0.1638  0.3895
  798MOL0     C 5250   2.180   9.107   5.882  0.0749 -0.0489  0.8908
  798MOL0     O 5251   2.287   9.349   6.200  0.2269  0.2941 -0.1506
  798MOL0     C 5252   2.553   9.435   6.223 -0.0286  0.3730 -0.3615
  798MOL0     C 5253   2.685   9.477   6.231 -0.1503 -0.8696 -0.2408
  798MOL0     N 5254   3.412   9.747   6.143 -0.0065  0.3285 -1.1206
  798MOL0     N 5255   3.543   9.735   6.167 -0.4644 -0.2199 -0.2894
  798MOL0     C 5256   4.472   9.808   6.699 -0.5182 -0.5021 -0.8482
  798MOL0     C 5257   4.597   9.861   6.662  0.2749  0.1081 -0.4205
  798MOL0     C 5258   4.943  10.077   6.524 -1.1035 -0.2879 -0.5408
  798MOL0     C 5259   4.928  10.146   6.400 -0.2504  0.1017  0.5927
  798MOL0     C 5260   5.041  10.209   6.345 -0.7113 -0.5478  0.6481
  798MOL0     C 5261   5.165  10.202   6.408  0.1742  0.2243  0.2738
  798MOL0     O 5262   5.264  10.269   6.344  0.0199  0.3417  0.5548
  798MOL0     C 5263   5.389  10.294   6.408 -0.7237 -0.9427 -0.8821
  798MOL0     C 5264   5.479  10.367   6.304  1.6548 -0.8779 -0.2631
  798MOL0     C 5265   5.562  10.472   6.365  0.0584  0.5614 -0.0229
  798MOL0     C 5266   5.654  10.537   6.260 -0.1281  0.3923 -0.2272
  798MOL0     C 5267   5.770  10.606   6.325  0.1820  0.5425 -0.0986
  798MOL0     C 5268   5.859  10.660   6.382 -0.4525  0.4422  0.9138
  798MOL0     C 5269   5.183  10.117   6.514 -0.7612 -0.2481 -0.1240
  798MOL0     C 5270   5.071  10.060   6.576  0.4422  0.4203  0.0171
  798MOL0     H 5271   4.498  10.105   6.452 -0.8229  0.5124  0.5248
  798MOL0     H 5272   4.268  10.030   6.552 -0.0287  1.2035  3.7671
  798MOL0     H 5273   4.261   9.785   6.896 -3.1342  2.3993  0.9056
  798MOL0     H 5274   4.239   9.647   6.780 -2.3079  0.4251 -2.4735
  798MOL0     H 5275   4.031   9.863   6.874 -2.2967  0.0276  0.2662
  798MOL0     H 5276   4.059   9.703   6.937 -0.9020 -0.3436 -1.6891
  798MOL0     H 5277   4.002   9.612   6.708 -0.8075 -1.2373  2.3593
  798MOL0     H 5278   4.009   9.766   6.636  0.1543 -0.3333  0.2901
  798MOL0     H 5279   3.810   9.703   6.867  0.0560  1.1891  0.2144
  798MOL0     H 5280   3.798   9.830   6.742 -2.2714 -1.7272 -1.5833
  798MOL0     H 5281   3.638   9.665   6.700 -0.3282 -0.8096 -1.0820
  798MOL0     H 5282   3.765   9.537   6.707  0.6357 -0.5250  0.6928
  798MOL0     H 5283   3.703   9.588   6.471  1.1330  1.1537 -3.1925
  798MOL0     H 5284   3.869   9.647   6.494  1.0978  0.2164  0.9496
  798MOL0     H 5285   3.614   9.815   6.539 -1.3321 -1.3490  0.3337
  798MOL0     H 5286   3.775   9.878   6.522 -1.8831  2.9721 -3.2575
  798MOL0     H 5287   3.783   9.783   6.281 -0.9908 -1.3510  1.6985
  798MOL0     H 5288   3.719   9.941   6.301 -1.9003 -1.2423 -1.6890
  798MOL0     H 5289   3.434   9.937   6.408  0.0058 -0.9828  0.7313
  798MOL0     H 5290   3.177   9.905   6.122 -1.2043  0.8370  1.0128
  798MOL0     H 5291   3.205   9.947   6.293  2.3293 -0.3665  0.6373
  798MOL0     H 5292   3.005   9.834   6.286  2.1980  2.1327  0.2185
  798MOL0     H 5293   3.119   9.721   6.369  0.1673 -1.8948 -1.3104
  798MOL0     H 5294   3.087   9.681   6.087 -0.4675 -1.9763 -0.0636
  798MOL0     H 5295   3.144   9.573   6.218 -0.6411  0.2673  1.5127
  798MOL0     H 5296   2.863   9.673   6.151  0.4989 -0.9478 -1.0925
  798MOL0     H 5297   2.903   9.600   6.311  1.9314  2.5455  0.9990
  798MOL0     H 5298   2.828   9.281   6.005  0.9645  3.6265  0.0742
  798MOL0     H 5299   2.596   9.183   6.002 -2.1819  1.5218 -0.5308
  798MOL0     H 5300   2.131   9.144   6.218 -2.3002  0.4227 -0.0980
  798MOL0     H 5301   1.925   9.057   6.169 -1.0628 -0.4274 -0.5604
  798MOL0     H 5302   1.797   9.034   5.738  2.0163  2.6710 -0.3790
  798MOL0     H 5303   1.780   9.184   5.827 -2.5277  1.7119  1.1360
  798MOL0     H 5304   1.577   8.959   5.808 -2.4605  1.8167 -4.5030
  798MOL0     H 5305   1.572   9.128   5.756  1.8161  0.1034 -1.1601
  798MOL0     H 5306   1.602   9.173   6.026  0.7590 -1.3297  0.9917
  798MOL0     H 5307   1.592   9.000   6.041  0.4744 -0.9029 -1.0135
  798MOL0     H 5308   1.376   9.120   5.874 -0.4864 -4.4619 -0.8582
  798MOL0     H 5309   1.368   8.984   5.980 -0.0071  0.7999  0.8808
  798MOL0     H 5310   1.386   9.262   6.077  0.3302  0.0745  1.5223
  798MOL0     H 5311   1.376   9.119   6.184  1.7708  1.9211  0.3339
  798MOL0     H 5312   1.146   9.070   6.117  1.1672 -0.6963 -0.0624
  798MOL0     H 5313   1.162   9.198   5.997  1.3160  0.3640 -0.6881
  798MOL0     H 5314   1.123   9.211   6.289  2.7296 -1.6562 -0.1772
  798MOL0     H 5315   1.195   9.355   6.219  0.6998 -1.2268  0.8490
  798MOL0     H 5316   1.010   9.374   6.062 -3.2245 -0.0001 -1.0248
  798MOL0     H 5317   0.929   9.365   6.224 -3.4212 -0.4234 -1.7370
  798MOL0     H 5318   2.040   9.027   5.752 -0.4439  1.1556  0.0403
  798MOL0     H 5319   2.250   9.117   5.799 -1.5828 -1.0060 -0.7144
  798MOL0     H 5320   2.480   9.481   6.288 -1.2573 -0.4035 -1.1503
  798MOL0     H 5321   2.704   9.549   6.310 -2.3171  0.9315 -1.2950
  798MOL0     H 5322   4.467   9.733   6.777  4.2615 -0.1491  0.1004
  798MOL0     H 5323   4.682   9.802   6.697 -0.2321 -1.0346 -1.0555
  798MOL0     H 5324   4.832  10.153   6.350 -1.1101 -3.1747  1.5752
  798MOL0     H 5325   5.031  10.261   6.250  1.0339 -0.4176  0.4937
  798MOL0     H 5326   5.434  10.197   6.428 -0.7548 -0.7158  0.4054
  798MOL0     H 5327   5.368  10.360   6.493 -1.9851 -0.8325 -1.2493
  798MOL0     H 5328   5.548  10.302   6.248  3.3118  2.9999 -3.2177
  798MOL0     H 5329   5.409  10.409   6.231 -0.3112  0.4976  2.2825
  798MOL0     H 5330   5.628  10.430   6.442 -1.2386  1.1504  1.4670
  798MOL0     H 5331   5.486  10.534   6.412 -0.5485 -1.2216  1.4981
  798MOL0     H 5332   5.690  10.467   6.183  0.2855  1.8478 -1.3963
  798MOL0     H 5333   5.587  10.610   6.215 -1.6806 -1.6889 -1.4824
  798MOL0     H 5334   5.927  10.721   6.438  1.1022  0.2293 -0.6569
  798MOL0     H 5335   5.282  10.099   6.554 -0.8389  0.2355  0.2955
  798MOL0     H 5336   5.094   9.998   6.663  0.0517 -3.4929 -2.3932
  799MOL0     O 5337   0.071   6.102   3.440 -0.3777 -0.4247  0.4932
  799MOL0     C 5338   0.073   6.223   3.449 -0.2505 -0.7468  0.2251
  799MOL0     O 5339  -0.032   6.302   3.444 -0.5146 -0.8266 -0.7153
  799MOL0     C 5340  -0.152   6.274   3.373 -0.1820  0.4153 -0.1642
  799MOL0     C 5341  -0.167   6.177   3.273  0.3081  0.4832 -0.1796
  799MOL0     C 5342  -0.286   6.161   3.205  0.0514 -0.4663 -0.1938
  799MOL0     C 5343  -0.399   6.244   3.231 -0.0705 -1.2195 -0.2375
  799MOL0     O 5344  -0.512   6.210   3.169 -0.0533 -0.2209 -0.4447
  799MOL0     C 5345  -0.642   6.267   3.192 -0.3205 -0.7795 -0.1175
  799MOL0     C 5346  -0.700   6.216   3.321  0.0870 -0.4003 -0.2910
  799MOL0     C 5347  -0.742   6.071   3.339  0.3395  0.2081  0.4785
  799MOL0     C 5348  -0.856   6.042   3.240 -0.1278  0.4345  0.9151
  799MOL0     C 5349  -0.907   5.898   3.247 -0.2837  0.0648 -0.1072
  799MOL0     C 5350  -0.962   5.852   3.384 -1.1900 -0.4698  0.1983
  799MOL0     C 5351  -1.046   5.720   3.386  0.7232 -0.4681 -0.5175
  799MOL0     C 5352  -1.191   5.720   3.326 -0.4609  0.6519 -0.1780
  799MOL0     N 5353  -1.245   5.583   3.304 -0.0718 -0.5137  0.0471
  799MOL0     C 5354  -1.277   5.479   3.383 -0.2192 -0.1375  0.3147
  799MOL0     C 5355  -1.334   5.389   3.301 -0.6596 -0.3540  0.1332
  799MOL0     C 5356  -1.415   5.266   3.343 -0.6074 -0.8648 -0.1742
  799MOL0     C 5357  -1.519   5.318   3.444 -0.3081  0.5513  0.1864
  799MOL0     C 5358  -1.624   5.209   3.476  0.6611  0.6711 -0.2450
  799MOL0     C 5359  -1.741   5.184   3.367  0.3921  0.2319  0.9459
  799MOL0     O 5360  -1.813   5.082   3.435  0.2910  0.4454 -0.1390
  799MOL0     C 5361  -1.933   5.038   3.378 -0.4787 -0.4999  0.1410
  799MOL0     C 5362  -2.010   4.951   3.450 -0.0004  0.0382 -0.3394
  799MOL0     C 5363  -2.116   4.881   3.384  0.6684 -0.3462 -0.5666
  799MOL0     C 5364  -2.153   4.908   3.253 -0.5887 -0.0245 -0.1156
  799MOL0     C 5365  -2.279   4.865   3.188  0.6205  0.2043 -0.2462
  799MOL0     O 5366  -2.376   4.832   3.280  0.0175  0.0431  0.4565
  799MOL0     C 5367  -2.498   4.797   3.225 -0.4974  0.5210  0.2950
  799MOL0     C 5368  -2.572   4.855   3.118  0.3715  0.4407  0.1071
  799MOL0     C 5369  -2.695   4.802   3.085  0.7641  0.0803  0.8002
  799MOL0     C 5370  -2.753   4.688   3.149  0.3556 -0.3351  0.7333
  799MOL0     O 5371  -2.874   4.629   3.127  0.7021  0.3204 -0.4138
  799MOL0     C 5372  -2.942   4.657   3.006  0.4086  0.1004 -0.1756
  799MOL0     C 5373  -3.050   4.550   2.998  0.1536  0.4320  0.7089
  799MOL0     C 5374  -3.093   4.532   2.855  0.2583 -0.0041 -0.0104
  799MOL0     C 5375  -3.225   4.464   2.838  0.5750  0.0253 -0.4015
  799MOL0     C 5376  -3.232   4.374   2.711  0.6995  0.1906 -0.3535
  799MOL0     C 5377  -3.196   4.454   2.592 -0.0106 -0.0792 -0.4987
  799MOL0     C 5378  -3.320   4.520   2.533  0.0885 -0.6992  0.4927
  799MOL0     C 5379  -3.275   4.628   2.438 -0.6817  1.0110  0.5442
  799MOL0    Cl 5380  -3.182   4.755   2.505 -0.3282  0.0555 -0.0488
  799MOL0     C 5381  -2.675   4.632   3.256 -0.3723  0.7677 -1.1543
  799MOL0     C 5382  -2.553   4.691   3.295 -0.3278 -0.4760 -0.1753
  799MOL0     O 5383  -2.286   4.854   3.069 -0.1488 -0.1312 -0.1977
  799MOL0     C 5384  -2.074   5.008   3.190  0.6849 -0.5251  0.6033
  799MOL0     C 5385  -1.966   5.073   3.246  0.4243  0.3316 -0.1484
  799MOL0     N 5386  -1.316   5.432   3.169 -0.2893  0.8054 -0.2863
  799MOL0     N 5387  -1.250   5.541   3.172 -0.4847  0.2900  0.0244
  799MOL0     C 5388  -0.384   6.336   3.331  1.0576  0.1077 -0.8887
  799MOL0     C 5389  -0.261   6.356   3.402 -0.1390 -0.1475  0.8091
  799MOL0     C 5390   0.203   6.288   3.488  0.3321  0.2715  0.5040
  799MOL0     C 5391   0.212   6.425   3.530 -0.6711  0.5196  0.1171
  799MOL0     C 5392   0.339   6.481   3.555  0.3567 -0.2882  0.3299
  799MOL0     C 5393   0.454   6.406   3.559 -0.3392  0.3359  0.0805
  799MOL0     O 5394   0.571   6.472   3.594 -0.1357 -0.7051  0.4739
  799MOL0     C 5395   0.694   6.395   3.612  1.0605  0.0244  0.5628
  799MOL0     C 5396   0.811   6.490   3.609  0.6018  0.0068  0.8593
  799MOL0     C 5397   0.812   6.568   3.735 -0.3781  1.4391 -1.4468
  799MOL0     C 5398   0.922   6.675   3.740  0.4162 -0.5343 -0.6202
  799MOL0     C 5399   1.051   6.621   3.717  0.0747 -0.2699  0.3294
  799MOL0     C 5400   1.153   6.556   3.694  0.4705 -0.7180 -0.1130
  799MOL0     C 5401   0.446   6.271   3.519  0.9930 -0.1913 -0.1028
  799MOL0     C 5402   0.322   6.209   3.491 -0.5948  0.0377  0.1817
  799MOL0     H 5403  -0.083   6.115   3.244  0.0729  0.8859 -1.8275
  799MOL0     H 5404  -0.305   6.090   3.125 -0.5759 -1.6293  0.9532
  799MOL0     H 5405  -0.707   6.243   3.108  2.5858  1.5210 -3.3171
  799MOL0     H 5406  -0.637   6.376   3.197 -0.6060 -0.6342 -2.2327
  799MOL0     H 5407  -0.790   6.278   3.330 -1.7228 -2.9739  0.6052
  799MOL0     H 5408  -0.637   6.252   3.403 -1.5456  2.8490 -0.3080
  799MOL0     H 5409  -0.777   6.044   3.439 -1.2683 -0.8553 -0.3163
  799MOL0     H 5410  -0.648   6.024   3.310  0.5161  1.7905 -1.7459
  799MOL0     H 5411  -0.936   6.108   3.274  0.2022  1.9975 -1.1394
  799MOL0     H 5412  -0.829   6.069   3.137  1.6538  1.1169  1.5175
  799MOL0     H 5413  -0.841   5.820   3.208 -3.5905 -1.5575 -2.9331
  799MOL0     H 5414  -0.999   5.900   3.188  0.3861  2.4393 -1.2115
  799MOL0     H 5415  -1.021   5.936   3.421 -0.5212  1.4559 -2.7254
  799MOL0     H 5416  -0.875   5.837   3.449 -2.9677 -1.8088  2.4213
  799MOL0     H 5417  -0.979   5.651   3.334  2.6116  0.5933  0.3808
  799MOL0     H 5418  -1.059   5.685   3.489  0.7370  0.7770 -0.0681
  799MOL0     H 5419  -1.191   5.768   3.228  0.6814  0.1938 -0.4229
  799MOL0     H 5420  -1.262   5.764   3.396 -0.3833 -2.4493  2.0556
  799MOL0     H 5421  -1.267   5.474   3.491  1.4649 -3.9633  0.1418
  799MOL0     H 5422  -1.345   5.186   3.368 -1.3885 -2.9540 -3.9735
  799MOL0     H 5423  -1.471   5.225   3.259  0.2849 -1.1086 -0.6577
  799MOL0     H 5424  -1.574   5.403   3.401  0.4280  0.1301 -1.6533
  799MOL0     H 5425  -1.461   5.346   3.533  0.4407 -1.0181  0.2243
  799MOL0     H 5426  -1.568   5.118   3.500  0.9506  0.1224 -2.7656
  799MOL0     H 5427  -1.670   5.238   3.571  1.4495 -0.1819  0.4231
  799MOL0     H 5428  -1.706   5.142   3.272  0.9549 -0.0551  1.2702
  799MOL0     H 5429  -1.810   5.266   3.344 -0.9187 -1.2357 -0.7236
  799MOL0     H 5430  -1.993   4.928   3.555 -1.1027 -0.1985 -0.1984
  799MOL0     H 5431  -2.170   4.801   3.432 -0.7988 -0.1118 -1.7403
  799MOL0     H 5432  -2.531   4.944   3.071  0.3576  1.0183  1.1403
  799MOL0     H 5433  -2.741   4.850   3.000 -1.3148 -2.2393  0.4962
  799MOL0     H 5434  -2.870   4.658   2.924  2.5555  1.1037  1.6158
  799MOL0     H 5435  -2.977   4.760   3.019  0.6985  0.0243  1.4020
  799MOL0     H 5436  -3.134   4.580   3.061  0.2435  0.3912  0.8494
  799MOL0     H 5437  -3.009   4.456   3.036 -1.4759 -0.5008  0.2403
  799MOL0     H 5438  -3.016   4.479   2.799 -1.5135 -2.0404 -0.6305
  799MOL0     H 5439  -3.099   4.636   2.820  0.4584  1.0264  2.7271
  799MOL0     H 5440  -3.250   4.408   2.929  1.2506 -0.4086 -0.4718
  799MOL0     H 5441  -3.302   4.540   2.822 -0.3747 -1.3791 -3.1284
  799MOL0     H 5442  -3.336   4.340   2.706  0.3430  0.1860  3.4890
  799MOL0     H 5443  -3.175   4.282   2.723 -0.2833 -0.2161  1.8281
  799MOL0     H 5444  -3.148   4.401   2.508  0.1324  1.0687 -1.1568
  799MOL0     H 5445  -3.127   4.537   2.610 -0.7406  0.3190  0.4981
  799MOL0     H 5446  -3.375   4.440   2.482 -0.9585 -1.8033  3.1333
  799MOL0     H 5447  -3.383   4.560   2.613 -2.7574  0.0301 -1.9266
  799MOL0     H 5448  -3.369   4.657   2.389 -1.5177 -2.7997 -0.4739
  799MOL0     H 5449  -3.216   4.582   2.358  0.9434 -2.2146  3.3224
  799MOL0     H 5450  -2.705   4.544   3.311  2.5964  0.1372 -0.3280
  799MOL0     H 5451  -2.497   4.651   3.379 -2.0356  2.1646  2.4182
  799MOL0     H 5452  -2.094   5.019   3.084 -0.0533  1.0745  0.8655
  799MOL0     H 5453  -1.912   5.141   3.181  1.4125 -1.7485 -1.6351
  799MOL0     H 5454  -0.473   6.397   3.341  1.1978  0.2362 -0.3978
  799MOL0     H 5455  -0.239   6.437   3.470 -0.3630  0.0965  0.5921
  799MOL0     H 5456   0.125   6.489   3.520  0.6048  2.2659 -0.3929
  799MOL0     H 5457   0.363   6.585   3.579  2.4545 -0.2008 -1.7636
  799MOL0     H 5458   0.700   6.322   3.531 -2.5661 -1.0739  1.0948
  799MOL0     H 5459   0.683   6.331   3.700 -1.2043 -0.0297  0.2922
  799MOL0     H 5460   0.901   6.430   3.591  1.5820  1.6757 -0.0130
  799MOL0     H 5461   0.806   6.551   3.518  2.6000 -0.3809  0.4299
  799MOL0     H 5462   0.832   6.498   3.817 -2.5727 -0.2015 -2.1756
  799MOL0     H 5463   0.715   6.614   3.754 -0.4334  0.5854  0.5893
  799MOL0     H 5464   0.893   6.746   3.661 -4.6424 -0.7964  0.6442
  799MOL0     H 5465   0.937   6.724   3.837 -0.1671 -2.5457  0.5295
  799MOL0     H 5466   1.251   6.516   3.675 -0.2338 -1.4862 -2.4906
  799MOL0     H 5467   0.532   6.206   3.511  1.0519 -0.5300  2.4813
  799MOL0     H 5468   0.324   6.101   3.479  1.6354  0.1286 -0.5603
  800MOL0     O 5469   1.520   9.216   2.073 -0.0444  1.1859  0.0050
  800MOL0     C 5470   1.522   9.319   2.136 -0.7039 -0.0133 -0.1282
  800MOL0     O 5471   1.415   9.386   2.175 -0.0214  0.8907  0.1104
  800MOL0     C 5472   1.300   9.369   2.102  0.5432 -1.2583 -0.4209
  800MOL0     C 5473   1.289   9.336   1.964  0.2526 -0.8565  0.5804
  800MOL0     C 5474   1.166   9.318   1.913  2.1430  0.4761  0.8778
  800MOL0     C 5475   1.041   9.321   1.984  0.2686  0.2713 -1.3159
  800MOL0     O 5476   0.930   9.291   1.913  0.0318 -0.7452 -0.1905
  800MOL0     C 5477   0.805   9.309   1.968 -0.3357 -0.4486 -0.6807
  800MOL0     C 5478   0.698   9.335   1.862  0.3736 -1.1234 -0.3355
  800MOL0     C 5479   0.556   9.327   1.916 -0.2324  0.3468 -0.0984
  800MOL0     C 5480   0.456   9.329   1.801  0.1879 -0.1781 -0.3304
  800MOL0     C 5481   0.313   9.308   1.841  0.4484  0.7158 -0.7599
  800MOL0     C 5482   0.227   9.350   1.725 -0.1719 -0.0316  1.0475
  800MOL0     C 5483   0.087   9.300   1.736 -0.0265  0.2000 -0.2374
  800MOL0     C 5484   0.020   9.334   1.595 -0.1451 -0.3832 -0.0826
  800MOL0     N 5485  -0.123   9.311   1.594  0.0640 -0.4375 -0.2164
  800MOL0     C 5486  -0.192   9.201   1.630 -0.7954  0.4385 -0.2111
  800MOL0     C 5487  -0.317   9.224   1.582  0.1403 -0.7458 -0.2836
  800MOL0     C 5488  -0.440   9.142   1.586 -0.8249 -0.1888  0.1163
  800MOL0     C 5489  -0.559   9.218   1.650  0.2970 -0.8105  0.5126
  800MOL0     C 5490  -0.687   9.136   1.622 -0.1525 -0.6186  0.8919
  800MOL0     C 5491  -0.809   9.190   1.693  0.0477  0.1535  0.1513
  800MOL0     O 5492  -0.916   9.099   1.665 -0.9277 -0.4643  1.1885
  800MOL0     C 5493  -1.040   9.131   1.704  0.1422  0.3896  0.5028
  800MOL0     C 5494  -1.067   9.236   1.805  0.1110  0.0767  0.0636
  800MOL0     C 5495  -1.194   9.277   1.831  0.1963  0.0063  0.0566
  800MOL0     C 5496  -1.299   9.218   1.767  0.1858 -0.3347  0.2073
  800MOL0     C 5497  -1.437   9.261   1.790  0.3360 -0.2986  0.5310
  800MOL0     O 5498  -1.528   9.218   1.704  0.3041 -0.4109 -0.5257
  800MOL0     C 5499  -1.660   9.236   1.713  0.0396 -0.3089  0.0867
  800MOL0     C 5500  -1.728   9.290   1.827  0.0086 -0.0175  0.0554
  800MOL0     C 5501  -1.869   9.290   1.825 -0.6703  0.3927  0.4330
  800MOL0     C 5502  -1.941   9.236   1.709 -0.3090 -0.7195  0.1898
  800MOL0     O 5503  -2.076   9.240   1.696 -1.0438  0.4813 -0.4777
  800MOL0     C 5504  -2.157   9.282   1.808  0.1893 -0.1914  0.4047
  800MOL0     C 5505  -2.310   9.281   1.785 -0.3623 -0.2266  0.4361
  800MOL0     C 5506  -2.390   9.274   1.914 -0.0818 -0.2275 -0.7976
  800MOL0     C 5507  -2.539   9.247   1.878 -0.5097  0.8765  0.3425
  800MOL0     C 5508  -2.625   9.241   2.006 -1.3082 -0.2701  1.3344
  800MOL0     C 5509  -2.606   9.365   2.092  0.7354  0.7173  0.2062
  800MOL0     C 5510  -2.709   9.370   2.208 -0.9841 -0.1303 -1.3109
  800MOL0     C 5511  -2.658   9.470   2.309 -0.7471 -0.0767 -0.3063
  800MOL0    Cl 5512  -2.527   9.387   2.408 -0.1294 -0.3107 -0.3602
  800MOL0     C 5513  -1.870   9.183   1.602  0.3752 -0.3157  0.1549
  800MOL0     C 5514  -1.734   9.180   1.608 -0.7134 -0.3343 -0.7122
  800MOL0     O 5515  -1.452   9.350   1.873 -0.0819 -0.0624  0.1791
  800MOL0     C 5516  -1.275   9.108   1.681 -0.1873  0.2505  0.1572
  800MOL0     C 5517  -1.144   9.060   1.655 -0.9570 -0.0366  0.9438
  800MOL0     N 5518  -0.324   9.349   1.526  0.0582  0.3188 -1.0142
  800MOL0     N 5519  -0.209   9.402   1.541 -0.4186 -1.0417  0.6163
  800MOL0     C 5520   1.051   9.348   2.121  0.2263 -0.4249  0.3044
  800MOL0     C 5521   1.177   9.386   2.179  0.5241  0.6316 -0.3409
  800MOL0     C 5522   1.658   9.365   2.165  1.3119 -0.0034 -0.5559
  800MOL0     C 5523   1.678   9.441   2.276  0.6972 -0.6579  0.1045
  800MOL0     C 5524   1.802   9.493   2.317 -0.2725 -0.4378 -0.2111
  800MOL0     C 5525   1.914   9.444   2.246  0.3121  0.8529 -0.8625
  800MOL0     O 5526   2.032   9.481   2.306  0.4438 -0.2135 -0.2116
  800MOL0     C 5527   2.143   9.515   2.208 -0.1209 -0.2174 -0.3317
  800MOL0     C 5528   2.121   9.645   2.118 -0.0692 -0.2369 -0.0780
  800MOL0     C 5529   2.176   9.635   1.977 -0.2230 -0.6160  0.2795
  800MOL0     C 5530   2.224   9.770   1.928 -0.2555  0.1048  0.0298
  800MOL0     C 5531   2.347   9.816   1.997  0.1299 -0.5980  0.0339
  800MOL0     C 5532   2.439   9.851   2.059  0.0122 -0.0033 -0.5024
  800MOL0     C 5533   1.896   9.353   2.140  0.3350 -0.0479 -0.8905
  800MOL0     C 5534   1.767   9.314   2.094  1.1292 -0.4890 -0.9868
  800MOL0     H 5535   1.375   9.304   1.906  0.6030  0.2129  0.4972
  800MOL0     H 5536   1.170   9.295   1.807  0.0288 -2.2803  1.2885
  800MOL0     H 5537   0.810   9.396   2.034 -0.2564 -1.7607  1.1279
  800MOL0     H 5538   0.770   9.228   2.034 -3.6806  0.4351 -1.2091
  800MOL0     H 5539   0.704   9.247   1.799  1.7529 -0.3194 -1.3626
  800MOL0     H 5540   0.717   9.424   1.801  2.0656  0.9082  2.8568
  800MOL0     H 5541   0.540   9.416   1.978  1.4995  2.3783 -2.3865
  800MOL0     H 5542   0.545   9.231   1.968 -2.2110  0.7434  0.2869
  800MOL0     H 5543   0.459   9.431   1.761  1.2209 -0.2952 -0.5833
  800MOL0     H 5544   0.478   9.261   1.718  3.1096 -0.2810  0.4161
  800MOL0     H 5545   0.296   9.359   1.936  2.1037 -0.3971  0.1862
  800MOL0     H 5546   0.288   9.202   1.852 -0.9936  0.6748 -3.3385
  800MOL0     H 5547   0.265   9.324   1.626 -0.3909  1.0010  0.6794
  800MOL0     H 5548   0.220   9.459   1.722 -1.4759 -0.1181 -0.7690
  800MOL0     H 5549   0.091   9.194   1.764 -0.3730  0.8702  2.7661
  800MOL0     H 5550   0.039   9.353   1.819  3.0818  0.0708  1.8233
  800MOL0     H 5551   0.070   9.288   1.509  0.0512 -0.4472  0.0684
  800MOL0     H 5552   0.040   9.440   1.577 -1.5705 -0.0323  0.2219
  800MOL0     H 5553  -0.160   9.109   1.679 -1.7919  0.7740  1.1117
  800MOL0     H 5554  -0.425   9.042   1.627  1.5821 -1.5913 -3.7224
  800MOL0     H 5555  -0.464   9.122   1.482  2.2643 -0.3961 -0.6415
  800MOL0     H 5556  -0.559   9.322   1.617 -1.4731 -0.3863  1.7207
  800MOL0     H 5557  -0.553   9.214   1.759 -0.7577  1.0475  0.6663
  800MOL0     H 5558  -0.715   9.139   1.516 -0.6968  3.2007  1.0228
  800MOL0     H 5559  -0.667   9.031   1.646 -2.0265 -0.6673  2.4321
  800MOL0     H 5560  -0.838   9.291   1.664  2.8565  1.0372  0.0626
  800MOL0     H 5561  -0.793   9.184   1.801  1.6273 -3.3850 -0.1276
  800MOL0     H 5562  -0.982   9.274   1.860 -0.2215  0.7084  0.1509
  800MOL0     H 5563  -1.213   9.360   1.898  1.3634  1.0812 -0.8836
  800MOL0     H 5564  -1.683   9.337   1.914 -1.7607 -1.7865  2.0372
  800MOL0     H 5565  -1.915   9.311   1.921  2.3715 -0.3265  2.1768
  800MOL0     H 5566  -2.148   9.390   1.823 -0.1335  0.0311 -0.8665
  800MOL0     H 5567  -2.127   9.229   1.898  1.2137 -1.6113 -0.7410
  800MOL0     H 5568  -2.318   9.185   1.732  0.8149 -0.0927 -0.0157
  800MOL0     H 5569  -2.347   9.367   1.728  0.1177 -0.6186 -0.4994
  800MOL0     H 5570  -2.373   9.366   1.970 -0.2348 -2.3731  3.1362
  800MOL0     H 5571  -2.357   9.191   1.978  0.8409  1.4518  0.9962
  800MOL0     H 5572  -2.578   9.323   1.809  0.3322 -2.0094 -3.7225
  800MOL0     H 5573  -2.543   9.154   1.820  0.6372  1.7168 -1.1788
  800MOL0     H 5574  -2.604   9.144   2.052 -0.4012 -0.8427 -0.2159
  800MOL0     H 5575  -2.731   9.233   1.979 -1.0448 -0.8890  0.4206
  800MOL0     H 5576  -2.615   9.458   2.035 -0.3123 -1.6937 -3.9909
  800MOL0     H 5577  -2.504   9.365   2.132 -0.0059  0.3220  2.1855
  800MOL0     H 5578  -2.807   9.399   2.167 -1.0212  1.6756 -0.0793
  800MOL0     H 5579  -2.710   9.269   2.249 -0.9706  0.3495 -0.0933
  800MOL0     H 5580  -2.739   9.504   2.374  0.3046  1.3552  0.3150
  800MOL0     H 5581  -2.622   9.564   2.265 -0.4091  0.1950  0.5322
  800MOL0     H 5582  -1.910   9.127   1.517  0.6809 -1.3602  0.6881
  800MOL0     H 5583  -1.679   9.128   1.531 -0.2239 -0.2355 -0.4323
  800MOL0     H 5584  -1.364   9.076   1.627  0.3020  1.0050 -1.1431
  800MOL0     H 5585  -1.127   8.979   1.585  0.4042 -0.2803  1.5312
  800MOL0     H 5586   0.964   9.352   2.186 -0.3857 -1.5455 -0.4303
  800MOL0     H 5587   1.186   9.428   2.279 -1.2093  1.8698 -0.6584
  800MOL0     H 5588   1.585   9.469   2.326  1.4456  1.9174  0.1700
  800MOL0     H 5589   1.819   9.561   2.400 -2.7393  0.9441 -0.7393
  800MOL0     H 5590   2.161   9.441   2.129 -0.7728  2.5477 -3.2675
  800MOL0     H 5591   2.236   9.522   2.264  1.6978 -2.5773 -2.8115
  800MOL0     H 5592   2.015   9.672   2.107 -1.2972 -3.4149  2.3325
  800MOL0     H 5593   2.181   9.724   2.165 -0.3501 -0.9429  1.5308
  800MOL0     H 5594   2.095   9.598   1.914 -0.7470 -0.3283  0.7685
  800MOL0     H 5595   2.258   9.563   1.983  1.6394  1.5018  2.4509
  800MOL0     H 5596   2.259   9.758   1.825 -0.5400  2.8373 -0.4590
  800MOL0     H 5597   2.147   9.847   1.932  2.8402  3.6902 -2.3233
  800MOL0     H 5598   2.514   9.897   2.119 -1.8344  0.2691  1.7271
  800MOL0     H 5599   1.986   9.306   2.103 -0.4312 -1.8397 -0.5973
  800MOL0     H 5600   1.744   9.247   2.013 -3.3291 -0.5895  0.1072
  801MOL0     O 5601   4.866   2.249   6.055  0.8751  0.2195 -0.0715
  801MOL0     C 5602   4.844   2.253   5.934 -0.1694 -0.1323  0.3639
  801MOL0     O 5603   4.727   2.227   5.866  0.3972 -0.4453  0.2539
  801MOL0     C 5604   4.619   2.232   5.939 -0.7607  0.3218 -0.4473
  801MOL0     C 5605   4.558   2.356   5.941  1.4612  1.3183 -0.0551
  801MOL0     C 5606   4.455   2.369   6.027  0.2685  0.7259  0.2074
  801MOL0     C 5607   4.399   2.262   6.099  0.7736 -0.9579  0.5113
  801MOL0     O 5608   4.278   2.284   6.169  0.4849 -0.0815  0.5163
  801MOL0     C 5609   4.202   2.171   6.199  0.0393  1.0854  0.2991
  801MOL0     C 5610   4.062   2.197   6.259  0.4289 -0.6795 -0.4296
  801MOL0     C 5611   3.971   2.072   6.279  0.0949 -0.4429  0.4824
  801MOL0     C 5612   3.846   2.120   6.357  0.1845  0.3909  0.4569
  801MOL0     C 5613   3.743   2.004   6.371  0.0804 -1.3428 -0.1908
  801MOL0     C 5614   3.609   2.043   6.435 -0.0505 -0.1357 -0.3779
  801MOL0     C 5615   3.504   1.927   6.444 -0.7343  0.3223 -0.3458
  801MOL0     C 5616   3.418   1.974   6.562 -0.1661 -0.0641  0.2101
  801MOL0     N 5617   3.301   1.894   6.593  0.0795  0.1692  0.1597
  801MOL0     C 5618   3.303   1.762   6.639 -0.0855  0.7017  0.6279
  801MOL0     C 5619   3.167   1.739   6.664 -0.0163  0.9124 -0.6462
  801MOL0     C 5620   3.116   1.615   6.723 -0.2141 -0.4603 -0.2533
  801MOL0     C 5621   3.171   1.601   6.875  0.4083  0.2968 -0.3079
  801MOL0     C 5622   3.119   1.704   6.971 -0.7336 -0.2731 -0.1602
  801MOL0     C 5623   2.967   1.702   6.995 -0.2126  0.2378 -0.2366
  801MOL0     O 5624   2.941   1.579   7.064  0.1067 -0.3427 -0.1026
  801MOL0     C 5625   2.816   1.551   7.102 -0.2342 -0.2816 -0.4468
  801MOL0     C 5626   2.722   1.643   7.114  0.0679  0.0157 -0.0783
  801MOL0     C 5627   2.588   1.601   7.136  0.4223 -0.2055 -0.3933
  801MOL0     C 5628   2.559   1.466   7.167  0.6257 -0.0461  0.3033
  801MOL0     C 5629   2.421   1.424   7.189 -0.5817 -0.1533  0.4749
  801MOL0     O 5630   2.327   1.516   7.166  0.1277 -0.0469 -0.2030
  801MOL0     C 5631   2.203   1.469   7.169 -0.4675  0.6215 -0.1615
  801MOL0     C 5632   2.150   1.403   7.061  0.3911  0.0350  0.9128
  801MOL0     C 5633   2.021   1.357   7.061  0.4795 -0.0827 -0.4270
  801MOL0     C 5634   1.934   1.372   7.175 -0.6277  0.0768 -0.0407
  801MOL0     O 5635   1.801   1.336   7.159  0.7508 -0.1508  0.2404
  801MOL0     C 5636   1.764   1.203   7.192 -0.4958  0.2331 -0.0384
  801MOL0     C 5637   1.660   1.150   7.095 -0.0072 -1.0506 -0.8345
  801MOL0     C 5638   1.629   1.013   7.121 -0.3853  0.0102  0.1334
  801MOL0     C 5639   1.546   0.946   7.015  0.7594  0.1686 -0.2712
  801MOL0     C 5640   1.398   0.992   7.028  1.0049  0.4352  0.3103
  801MOL0     C 5641   1.302   0.875   7.039 -0.5626  0.2268 -0.7583
  801MOL0     C 5642   1.166   0.916   7.094  0.1253  0.4142 -0.7651
  801MOL0     C 5643   1.075   0.797   7.098  0.2448  0.4130  0.4960
  801MOL0    Cl 5644   0.978   0.771   6.949 -0.1445  0.1662  0.1778
  801MOL0     C 5645   1.985   1.445   7.288 -0.4009  0.3751  0.5052
  801MOL0     C 5646   2.123   1.481   7.279 -0.5928 -0.8225  0.6506
  801MOL0     O 5647   2.402   1.304   7.219 -0.2308  0.6695 -0.1054
  801MOL0     C 5648   2.665   1.373   7.174 -1.4418  0.1835 -0.7353
  801MOL0     C 5649   2.791   1.415   7.133 -0.2706  0.9407  0.0984
  801MOL0     N 5650   3.095   1.845   6.625  0.1383 -0.2153  0.3960
  801MOL0     N 5651   3.173   1.935   6.571  0.2439 -0.3164 -0.2185
  801MOL0     C 5652   4.471   2.143   6.099 -0.7995  1.0700 -0.9416
  801MOL0     C 5653   4.581   2.125   6.021  0.3124  0.2059  0.0981
  801MOL0     C 5654   4.958   2.280   5.838  1.2317 -0.0138  0.8790
  801MOL0     C 5655   4.953   2.258   5.701 -0.7986  0.8707 -0.1870
  801MOL0     C 5656   5.070   2.277   5.623 -0.6155 -0.0072  0.5655
  801MOL0     C 5657   5.195   2.307   5.680  0.1570 -0.2491 -0.1559
  801MOL0     O 5658   5.302   2.335   5.597 -0.0496 -0.6995 -0.4382
  801MOL0     C 5659   5.428   2.362   5.657  0.3268 -0.0427  0.7530
  801MOL0     C 5660   5.534   2.407   5.552  0.1230  0.4829  0.9442
  801MOL0     C 5661   5.669   2.424   5.620  0.1611 -0.6346 -0.3209
  801MOL0     C 5662   5.774   2.338   5.540  0.2785 -0.4550 -1.1232
  801MOL0     C 5663   5.836   2.427   5.440 -1.1356  0.2717 -0.6243
  801MOL0     C 5664   5.892   2.500   5.365  0.1074  0.1822  0.0706
  801MOL0     C 5665   5.189   2.334   5.816 -0.1129  0.3451 -0.3513
  801MOL0     C 5666   5.074   2.315   5.893 -0.3311 -0.5979 -0.8289
  801MOL0     H 5667   4.585   2.445   5.884  0.9389  3.1495  2.3832
  801MOL0     H 5668   4.413   2.470   6.028  2.1495  1.6489 -2.5462
  801MOL0     H 5669   4.256   2.111   6.273 -4.2119 -3.0239  0.5320
  801MOL0     H 5670   4.189   2.119   6.103  0.5325  0.7802  0.3944
  801MOL0     H 5671   4.009   2.269   6.196  3.4320  0.8882 -1.3894
  801MOL0     H 5672   4.078   2.248   6.354  0.9540  1.2619 -1.4824
  801MOL0     H 5673   4.023   1.992   6.332  1.3048 -0.5192 -0.7631
  801MOL0     H 5674   3.935   2.035   6.182 -2.2011  0.5876  0.8651
  801MOL0     H 5675   3.875   2.157   6.456 -0.8886  3.5731 -0.2926
  801MOL0     H 5676   3.811   2.207   6.300  2.0193 -0.0274 -1.4086
  801MOL0     H 5677   3.783   1.913   6.418  3.0560  0.6067  1.3589
  801MOL0     H 5678   3.719   1.970   6.270  0.4824 -2.3975  0.0567
  801MOL0     H 5679   3.557   2.124   6.382 -0.2897 -0.2790 -0.3641
  801MOL0     H 5680   3.634   2.078   6.535  0.6913  0.0007 -0.5972
  801MOL0     H 5681   3.451   1.909   6.350 -1.1757  4.5082 -1.0952
  801MOL0     H 5682   3.539   1.828   6.475  0.8953  1.3840  1.3882
  801MOL0     H 5683   3.396   2.080   6.549  2.7387  0.4766 -1.1568
  801MOL0     H 5684   3.475   1.968   6.655 -2.1697 -2.3275  1.4350
  801MOL0     H 5685   3.400   1.717   6.653 -0.0306  0.0640 -1.5110
  801MOL0     H 5686   3.158   1.527   6.674  1.4112 -1.4701  2.6710
  801MOL0     H 5687   3.007   1.610   6.713 -0.5743  4.9833 -3.0243
  801MOL0     H 5688   3.281   1.597   6.869  0.3079 -0.0277 -2.6659
  801MOL0     H 5689   3.140   1.504   6.914  0.9402  1.2846  2.8953
  801MOL0     H 5690   3.167   1.693   7.069 -0.3245  1.8107 -0.0885
  801MOL0     H 5691   3.146   1.799   6.923  0.2454 -2.0391 -3.4269
  801MOL0     H 5692   2.916   1.711   6.899  2.2546  2.4098 -1.4825
  801MOL0     H 5693   2.946   1.789   7.056 -1.1692  1.3716 -2.1080
  801MOL0     H 5694   2.746   1.748   7.104  1.5441 -0.3548 -0.6786
  801MOL0     H 5695   2.505   1.670   7.128  0.9604  1.1350  3.4201
  801MOL0     H 5696   2.202   1.390   6.966 -3.3731  0.0107 -1.3355
  801MOL0     H 5697   1.971   1.309   6.977 -1.8668  2.6573 -0.7862
  801MOL0     H 5698   1.726   1.199   7.294  2.0409 -0.2782  0.9709
  801MOL0     H 5699   1.853   1.139   7.191 -2.4566 -2.7994 -2.8609
  801MOL0     H 5700   1.699   1.170   6.995 -0.1440 -1.0026 -0.8780
  801MOL0     H 5701   1.568   1.208   7.100  1.1031  0.9168 -2.0542
  801MOL0     H 5702   1.591   0.983   7.219  0.1924 -2.2965 -0.2819
  801MOL0     H 5703   1.726   0.963   7.107 -0.9294 -0.3618 -3.0800
  801MOL0     H 5704   1.574   0.988   6.918  1.7621 -0.2511 -0.1771
  801MOL0     H 5705   1.568   0.839   7.018  1.6981  0.3476 -0.5878
  801MOL0     H 5706   1.370   1.056   6.944 -1.5256  1.4546  1.8062
  801MOL0     H 5707   1.388   1.042   7.125  0.9706 -4.0486  2.8766
  801MOL0     H 5708   1.352   0.796   7.095 -0.2306  1.4110  0.6951
  801MOL0     H 5709   1.288   0.833   6.939 -1.8501  0.0531 -0.5201
  801MOL0     H 5710   1.172   0.957   7.195 -0.3486 -2.3255  0.4571
  801MOL0     H 5711   1.122   0.991   7.028 -0.3878  0.1808 -0.6907
  801MOL0     H 5712   1.003   0.801   7.181  0.1983  1.7655  0.4133
  801MOL0     H 5713   1.125   0.702   7.117  0.0534 -0.1755 -1.7105
  801MOL0     H 5714   1.929   1.465   7.378  1.0918 -0.1214  1.6005
  801MOL0     H 5715   2.163   1.538   7.362  1.0421  0.8019 -1.1779
  801MOL0     H 5716   2.651   1.270   7.203  1.9339 -0.1744 -0.0198
  801MOL0     H 5717   2.880   1.353   7.133 -1.5855 -1.0712  1.6264
  801MOL0     H 5718   4.439   2.061   6.162  1.1683  1.1697  0.2472
  801MOL0     H 5719   4.634   2.031   6.020  0.1057  0.0805 -1.2308
  801MOL0     H 5720   4.866   2.212   5.656  0.4244 -1.7618 -0.0225
  801MOL0     H 5721   5.068   2.281   5.515  1.1289 -2.8964  0.3237
  801MOL0     H 5722   5.451   2.273   5.716 -2.7490  0.1261  2.4234
  801MOL0     H 5723   5.418   2.445   5.727  0.1394  1.1428 -0.6348
  801MOL0     H 5724   5.537   2.339   5.466  2.7613  2.5670 -0.7708
  801MOL0     H 5725   5.507   2.504   5.509  2.5476  0.4663 -0.8245
  801MOL0     H 5726   5.675   2.381   5.720  0.1512 -0.3449 -0.1946
  801MOL0     H 5727   5.685   2.532   5.628 -0.3636 -0.6460  1.2678
  801MOL0     H 5728   5.859   2.311   5.604 -1.0313 -0.8417  0.5343
  801MOL0     H 5729   5.731   2.251   5.490  0.6194 -0.8210 -0.7925
  801MOL0     H 5730   5.949   2.567   5.303  1.2195  2.3872  3.2058
  801MOL0     H 5731   5.280   2.357   5.870  0.6626 -0.9075 -1.0787
  801MOL0     H 5732   5.085   2.340   5.998 -1.9032  0.3488 -0.8607
  802MOL0     O 5733   9.137   5.883   2.367  0.7030  0.0595  0.0224
  802MOL0     C 5734   9.196   5.955   2.286  0.0799  0.8392 -0.4695
  802MOL0     O 5735   9.141   6.035   2.190 -0.2316 -0.6290 -0.5085
  802MOL0     C 5736   9.006   6.046   2.189 -0.1645 -0.1572  0.1218
  802MOL0     C 5737   8.929   6.002   2.079  0.3450  0.5593 -0.2347
  802MOL0     C 5738   8.791   6.007   2.091  0.1226 -1.5695 -0.6392
  802MOL0     C 5739   8.727   6.062   2.200 -0.1738  0.5455  0.2661
  802MOL0     O 5740   8.584   6.062   2.198 -0.3453 -0.0162  0.4059
  802MOL0     C 5741   8.509   6.076   2.313 -0.5615 -0.4224  0.2538
  802MOL0     C 5742   8.368   6.124   2.286  0.0937  0.1892  1.0040
  802MOL0     C 5743   8.281   6.060   2.181 -0.4454  0.6590  1.0860
  802MOL0     C 5744   8.134   6.123   2.193  0.0197  0.2970 -0.3419
  802MOL0     C 5745   8.018   6.029   2.180  0.1050  0.1827 -0.7336
  802MOL0     C 5746   7.893   6.090   2.236  0.1467 -0.2628 -0.2173
  802MOL0     C 5747   7.887   6.095   2.394  0.3100 -0.0258 -0.5243
  802MOL0     C 5748   7.779   6.195   2.440 -0.3435 -0.1939  0.6338
  802MOL0     N 5749   7.652   6.120   2.426 -0.4894 -0.5224  0.2204
  802MOL0     C 5750   7.552   6.149   2.344 -0.3684  0.4751 -0.1614
  802MOL0     C 5751   7.453   6.060   2.379 -0.2659 -0.3148 -0.4204
  802MOL0     C 5752   7.315   6.070   2.306  0.0355 -0.3186  0.6033
  802MOL0     C 5753   7.198   6.060   2.396 -0.4987  0.0709 -0.1249
  802MOL0     C 5754   7.066   6.038   2.317  0.4636  0.5852 -0.0004
  802MOL0     C 5755   7.039   5.891   2.285 -0.2116 -0.1183 -0.0230
  802MOL0     O 5756   6.950   5.866   2.179  0.4464 -0.2817 -0.5873
  802MOL0     C 5757   6.820   5.919   2.179 -0.7781  0.1835 -0.3505
  802MOL0     C 5758   6.752   5.919   2.054 -0.0507 -1.4997 -0.0047
  802MOL0     C 5759   6.613   5.918   2.055 -0.0009  0.3757 -0.6395
  802MOL0     C 5760   6.534   5.932   2.176  0.4319  0.0467  1.2333
  802MOL0     C 5761   6.393   5.932   2.168 -0.6241  0.6309 -0.5044
  802MOL0     O 5762   6.327   6.008   2.268  0.4757  0.2496  0.2301
  802MOL0     C 5763   6.198   5.985   2.295  0.3004  0.0902  0.1914
  802MOL0     C 5764   6.170   5.899   2.405  0.3954 -0.5835 -0.5183
  802MOL0     C 5765   6.039   5.867   2.428  1.4418 -0.6044  0.6131
  802MOL0     C 5766   5.942   5.917   2.352  0.3936 -0.4661 -0.8347
  802MOL0     O 5767   5.814   5.880   2.397  0.7551  0.4827 -0.0890
  802MOL0     C 5768   5.712   5.875   2.295  0.1583 -0.0432 -0.0978
  802MOL0     C 5769   5.569   5.872   2.349 -0.0294 -0.8931  0.3691
  802MOL0     C 5770   5.529   6.001   2.422 -0.5340 -0.3010  1.1460
  802MOL0     C 5771   5.383   5.983   2.468 -0.2003  0.0009 -0.3694
  802MOL0     C 5772   5.318   6.116   2.513 -0.9312  0.2067  0.4581
  802MOL0     C 5773   5.228   6.082   2.633  0.0026 -0.2029 -0.3909
  802MOL0     C 5774   5.126   6.203   2.652  0.1706 -0.3735  0.3321
  802MOL0     C 5775   5.057   6.187   2.791  0.7054 -0.9411  0.0696
  802MOL0    Cl 5776   4.930   6.064   2.779 -0.0187 -0.3114 -0.1670
  802MOL0     C 5777   5.967   6.002   2.247  0.8962  0.4312 -0.4794
  802MOL0     C 5778   6.096   6.041   2.215 -0.5115  0.3505  0.3884
  802MOL0     O 5779   6.336   5.844   2.098  0.3464 -0.2892  0.4093
  802MOL0     C 5780   6.609   5.972   2.286  0.6517  0.2254 -0.1991
  802MOL0     C 5781   6.751   5.959   2.294 -0.4010 -0.0265 -0.1463
  802MOL0     N 5782   7.500   5.976   2.470  0.8534 -0.6535 -0.6216
  802MOL0     N 5783   7.629   6.010   2.499 -0.0358 -0.0627 -0.5375
  802MOL0     C 5784   8.806   6.110   2.306 -1.1523  0.2934 -0.0479
  802MOL0     C 5785   8.945   6.107   2.299  0.2202 -0.6199  0.5108
  802MOL0     C 5786   9.340   5.968   2.298 -0.6821 -0.4100  0.0818
  802MOL0     C 5787   9.418   6.045   2.208 -0.5047  0.1400  0.3725
  802MOL0     C 5788   9.556   6.061   2.218  1.7597  0.6605 -0.0883
  802MOL0     C 5789   9.621   5.996   2.316 -0.9843  0.1996  0.5782
  802MOL0     O 5790   9.760   5.999   2.332 -0.0763 -0.2902  0.1716
  802MOL0     C 5791   9.839   6.073   2.238 -0.2066 -0.3428 -0.3098
  802MOL0     C 5792   9.985   6.029   2.255  0.1790 -0.1165 -0.6597
  802MOL0     C 5793  10.072   6.109   2.158 -0.3609  0.0425  1.0633
  802MOL0     C 5794  10.221   6.083   2.186  0.0251 -0.0274 -0.2312
  802MOL0     C 5795  10.292   6.090   2.056 -0.3496  0.4103 -0.9386
  802MOL0     C 5796  10.372   6.114   1.967  0.8601 -0.5285 -0.2741
  802MOL0     C 5797   9.545   5.916   2.409 -0.0652  0.6493  0.2319
  802MOL0     C 5798   9.408   5.899   2.395  0.7011  0.4553 -0.8352
  802MOL0     H 5799   8.979   5.953   1.996  0.9772 -1.8637  1.4880
  802MOL0     H 5800   8.734   5.960   2.011 -0.6828 -2.7289  0.5735
  802MOL0     H 5801   8.555   6.148   2.381 -1.4996  0.2844  0.1507
  802MOL0     H 5802   8.497   5.983   2.370 -1.4484 -1.2801 -1.2640
  802MOL0     H 5803   8.383   6.224   2.244 -0.8247  0.0860  0.4003
  802MOL0     H 5804   8.321   6.141   2.383 -0.1942  0.5596  0.8008
  802MOL0     H 5805   8.275   5.951   2.191  0.9227  0.5790  1.2568
  802MOL0     H 5806   8.322   6.086   2.083  0.7948 -0.5257  1.2710
  802MOL0     H 5807   8.120   6.166   2.292  1.7343 -1.3337  0.6784
  802MOL0     H 5808   8.123   6.202   2.118 -3.8842 -0.0186 -0.2888
  802MOL0     H 5809   8.040   5.929   2.219  2.6771  0.7175 -0.6138
  802MOL0     H 5810   8.006   6.022   2.072  3.2437  0.5652 -1.1964
  802MOL0     H 5811   7.801   6.044   2.200  1.9171 -2.2620 -2.5781
  802MOL0     H 5812   7.901   6.192   2.197 -1.2144 -0.1160 -0.1644
  802MOL0     H 5813   7.872   5.990   2.422 -2.4703  0.2153 -0.8531
  802MOL0     H 5814   7.981   6.120   2.444 -1.0236 -0.1936  2.2696
  802MOL0     H 5815   7.775   6.289   2.384 -0.3505  0.3250  1.4893
  802MOL0     H 5816   7.789   6.219   2.546 -0.5109  1.1958  0.3554
  802MOL0     H 5817   7.559   6.227   2.269 -1.5175  0.6200 -0.1342
  802MOL0     H 5818   7.324   5.998   2.225  1.4306  2.0083 -1.4220
  802MOL0     H 5819   7.304   6.169   2.262  0.3347  0.2770  1.8161
  802MOL0     H 5820   7.202   6.147   2.462  4.6245 -1.3853  2.0334
  802MOL0     H 5821   7.219   5.976   2.463 -2.3411  0.9952  1.7207
  802MOL0     H 5822   6.982   6.075   2.376 -0.1748 -0.1332 -0.4487
  802MOL0     H 5823   7.080   6.097   2.226 -1.0555  0.4447 -0.3447
  802MOL0     H 5824   7.001   5.830   2.368 -3.2955  2.2156  0.4382
  802MOL0     H 5825   7.139   5.860   2.252  1.3310  2.8303  1.4941
  802MOL0     H 5826   6.814   5.906   1.966  1.0222 -3.0671  0.9242
  802MOL0     H 5827   6.571   5.905   1.956  0.2375  4.1561 -1.4141
  802MOL0     H 5828   6.247   5.870   2.476 -0.2215 -0.0426  0.3856
  802MOL0     H 5829   5.995   5.814   2.513  1.1281 -0.0728  0.7920
  802MOL0     H 5830   5.735   5.792   2.229  0.4375  1.4958 -2.0377
  802MOL0     H 5831   5.704   5.964   2.233 -2.7151  0.5451  0.9301
  802MOL0     H 5832   5.568   5.788   2.419 -1.2370 -1.4774 -0.3192
  802MOL0     H 5833   5.497   5.837   2.275 -0.3071 -3.4126  1.7109
  802MOL0     H 5834   5.535   6.089   2.357 -1.6579  2.2440  4.2080
  802MOL0     H 5835   5.603   6.013   2.501  2.8108 -0.0387 -1.7688
  802MOL0     H 5836   5.318   5.944   2.389  0.5866  2.1516 -2.2019
  802MOL0     H 5837   5.377   5.924   2.559 -1.4670 -0.1943 -0.5582
  802MOL0     H 5838   5.258   6.151   2.428 -2.0021 -1.4695  0.4727
  802MOL0     H 5839   5.386   6.197   2.541 -2.5462  3.0814 -3.0272
  802MOL0     H 5840   5.301   6.056   2.710  0.4551  0.5271 -0.5628
  802MOL0     H 5841   5.168   5.991   2.624 -0.4048  0.0068  0.1495
  802MOL0     H 5842   5.197   6.286   2.651  0.4078 -0.5769 -1.0378
  802MOL0     H 5843   5.060   6.215   2.566  0.9239  0.8481 -0.0880
  802MOL0     H 5844   5.004   6.282   2.803 -0.2799 -1.6284  1.4558
  802MOL0     H 5845   5.114   6.171   2.883 -2.1676  0.4804  2.2875
  802MOL0     H 5846   5.888   6.050   2.190  0.3969  2.2769  1.6299
  802MOL0     H 5847   6.123   6.096   2.125  1.1580  1.3362  1.4269
  802MOL0     H 5848   6.546   6.001   2.368 -0.5032 -0.5588 -0.7832
  802MOL0     H 5849   6.803   5.980   2.387 -0.4006  6.1216 -1.1045
  802MOL0     H 5850   8.763   6.161   2.392 -2.0864 -1.4884  0.5786
  802MOL0     H 5851   9.014   6.146   2.373 -0.4057 -0.8943  1.2628
  802MOL0     H 5852   9.363   6.090   2.126 -0.5141 -0.9369 -0.2266
  802MOL0     H 5853   9.604   6.124   2.144 -2.2560  2.9059 -1.1201
  802MOL0     H 5854   9.834   6.180   2.262 -0.3773 -0.4446  0.1361
  802MOL0     H 5855   9.800   6.052   2.138 -2.1501  0.2217  0.2695
  802MOL0     H 5856  10.009   6.054   2.359 -1.3039 -0.6313 -0.1774
  802MOL0     H 5857   9.996   5.925   2.224 -3.1584  0.0423 -2.8363
  802MOL0     H 5858  10.049   6.216   2.171 -0.4529  0.5883 -2.6402
  802MOL0     H 5859  10.038   6.084   2.057  1.4877 -1.7382  0.8346
  802MOL0     H 5860  10.258   6.158   2.256 -1.2298 -1.3757  1.9787
  802MOL0     H 5861  10.248   5.986   2.228  2.1694  0.2359 -0.8492
  802MOL0     H 5862  10.431   6.143   1.883 -0.6239 -1.9846 -1.9053
  802MOL0     H 5863   9.602   5.868   2.488 -1.7442 -0.0998  1.0117
  802MOL0     H 5864   9.351   5.841   2.468  2.5517 -0.7298 -0.2476
  803MOL0     O 5865   6.555   2.053   9.243 -0.0437 -0.1290 -0.2146
  803MOL0     C 5866   6.580   1.959   9.322 -0.2742 -0.3497  1.0791
  803MOL0     O 5867   6.494   1.871   9.375 -0.5203 -0.1569 -0.3771
  803MOL0     C 5868   6.359   1.887   9.361 -0.2045 -0.0492  0.2106
  803MOL0     C 5869   6.298   2.011   9.402 -0.2476  1.1088  0.3841
  803MOL0     C 5870   6.160   2.026   9.396  0.1699  0.7818 -0.4063
  803MOL0     C 5871   6.082   1.919   9.342 -0.4661 -0.3785 -0.1019
  803MOL0     O 5872   5.947   1.939   9.319 -0.4930  0.3144  0.2707
  803MOL0     C 5873   5.863   1.837   9.269  0.6123 -0.1350  0.2709
  803MOL0     C 5874   5.718   1.871   9.307 -0.2137 -0.0406  0.4343
  803MOL0     C 5875   5.655   1.789   9.419 -0.7801  0.7506 -0.1196
  803MOL0     C 5876   5.506   1.833   9.447 -0.4111 -0.3928  0.5840
  803MOL0     C 5877   5.451   1.765   9.564  0.2370  1.0774 -1.0982
  803MOL0     C 5878   5.308   1.796   9.582 -0.3515 -0.4242 -0.4366
  803MOL0     C 5879   5.227   1.685   9.640 -0.8149  0.6542  0.4950
  803MOL0     C 5880   5.213   1.571   9.540  0.0051  0.1694  0.0534
  803MOL0     N 5881   5.121   1.463   9.585  0.0746  0.0383 -0.3243
  803MOL0     C 5882   5.011   1.414   9.523 -0.2746  0.5949 -0.2021
  803MOL0     C 5883   4.989   1.297   9.595  0.1851  0.4847  0.5688
  803MOL0     C 5884   4.880   1.191   9.583 -0.8209 -0.2280 -0.1087
  803MOL0     C 5885   4.904   1.123   9.444  0.4099  0.8770 -0.5068
  803MOL0     C 5886   4.809   0.996   9.424 -0.5904 -0.2686  0.0748
  803MOL0     C 5887   4.667   1.004   9.479  0.0108 -0.2218 -1.5354
  803MOL0     O 5888   4.598   1.117   9.427 -0.2653 -0.1521  0.5240
  803MOL0     C 5889   4.463   1.130   9.435 -0.4712  0.0416 -0.5518
  803MOL0     C 5890   4.372   1.036   9.482  0.0864  0.0647  0.4488
  803MOL0     C 5891   4.234   1.067   9.472 -0.3454  0.0193  0.1729
  803MOL0     C 5892   4.183   1.184   9.415  0.2158 -0.1735  0.4145
  803MOL0     C 5893   4.039   1.220   9.409 -0.5804 -0.5790 -0.2313
  803MOL0     O 5894   3.953   1.119   9.436 -0.5997  0.2832 -0.2583
  803MOL0     C 5895   3.820   1.137   9.427  1.2459  0.7205  0.1932
  803MOL0     C 5896   3.744   1.058   9.515 -0.3255  0.1330  0.0502
  803MOL0     C 5897   3.608   1.040   9.496  0.0128 -0.6759  0.2776
  803MOL0     C 5898   3.535   1.125   9.412 -0.0810  0.6296 -0.1999
  803MOL0     O 5899   3.397   1.123   9.420 -0.1533  0.3035  0.2381
  803MOL0     C 5900   3.335   1.109   9.290 -0.6355 -0.1766 -0.0494
  803MOL0     C 5901   3.208   1.024   9.284  0.0680  0.6674 -0.5604
  803MOL0     C 5902   3.244   0.884   9.331 -0.4809  0.2258  0.0610
  803MOL0     C 5903   3.119   0.801   9.347 -0.0710 -0.5119 -0.9852
  803MOL0     C 5904   3.142   0.669   9.424  0.0242  0.0598 -0.5709
  803MOL0     C 5905   3.023   0.567   9.385  0.3597 -0.5228  0.9020
  803MOL0     C 5906   3.032   0.420   9.434 -0.2017  0.3096  0.2965
  803MOL0     C 5907   3.139   0.352   9.349  0.7725 -0.5717  0.4886
  803MOL0    Cl 5908   3.182   0.189   9.413 -0.1679  0.1463 -0.2733
  803MOL0     C 5909   3.610   1.221   9.344 -0.4564 -0.2776 -0.3360
  803MOL0     C 5910   3.748   1.217   9.342 -0.1733  0.1242 -0.0949
  803MOL0     O 5911   4.015   1.344   9.388  0.6795  0.8545 -0.1826
  803MOL0     C 5912   4.281   1.279   9.371 -0.7229 -0.7934 -0.3076
  803MOL0     C 5913   4.418   1.248   9.376  0.2046  0.1954 -0.3104
  803MOL0     N 5914   5.088   1.279   9.703 -0.3310 -0.7245  0.7247
  803MOL0     N 5915   5.151   1.389   9.699  1.2567 -0.2371  0.6018
  803MOL0     C 5916   6.148   1.801   9.298  0.0376  0.0829  0.0225
  803MOL0     C 5917   6.287   1.781   9.307  0.7419  0.0591 -0.2233
  803MOL0     C 5918   6.720   1.930   9.337 -0.6065  0.4577 -0.1246
  803MOL0     C 5919   6.820   2.010   9.265  0.0131  0.1710  0.6220
  803MOL0     C 5920   6.961   1.981   9.293  0.3940 -0.8570  0.1145
  803MOL0     C 5921   7.008   1.904   9.398  0.4870 -0.2785  0.6898
  803MOL0     O 5922   7.137   1.893   9.439 -0.2893 -0.1573 -0.0707
  803MOL0     C 5923   7.242   1.963   9.356 -0.1055  0.8550  0.0095
  803MOL0     C 5924   7.381   1.943   9.425 -0.5623  0.3221 -0.3947
  803MOL0     C 5925   7.466   1.822   9.378  0.4363  0.1845  0.7324
  803MOL0     C 5926   7.533   1.844   9.243  0.0440  0.1758  1.1187
  803MOL0     C 5927   7.597   1.715   9.195 -0.6882  0.0652  0.8679
  803MOL0     C 5928   7.658   1.615   9.152  0.8418 -0.3705 -0.8356
  803MOL0     C 5929   6.909   1.824   9.454  0.6879  0.8455 -0.1066
  803MOL0     C 5930   6.773   1.823   9.420 -0.0214  0.1492  0.0051
  803MOL0     H 5931   6.356   2.093   9.443  5.2846 -2.1692  0.2030
  803MOL0     H 5932   6.108   2.119   9.417 -2.4238 -0.5732 -0.3753
  803MOL0     H 5933   5.885   1.737   9.307  0.0209  0.1364  1.3773
  803MOL0     H 5934   5.873   1.826   9.161 -1.0396  0.5436  0.0281
  803MOL0     H 5935   5.656   1.855   9.218 -1.9931 -0.9414  1.7639
  803MOL0     H 5936   5.716   1.979   9.324  1.6052 -0.1153  1.4052
  803MOL0     H 5937   5.720   1.807   9.505  0.9320 -0.3448 -1.1225
  803MOL0     H 5938   5.663   1.685   9.385 -0.6326 -0.1265  2.3773
  803MOL0     H 5939   5.503   1.942   9.453 -0.8656 -0.1767 -2.3606
  803MOL0     H 5940   5.443   1.813   9.360  0.6493  0.1608 -0.3306
  803MOL0     H 5941   5.502   1.797   9.655  1.4631 -0.6006 -1.1430
  803MOL0     H 5942   5.475   1.659   9.556 -1.0830  0.5369  1.2618
  803MOL0     H 5943   5.265   1.820   9.485  0.3739  2.4800 -0.1107
  803MOL0     H 5944   5.299   1.886   9.644  3.6895  0.5081 -0.9310
  803MOL0     H 5945   5.283   1.641   9.724  0.9005  2.6230  0.4548
  803MOL0     H 5946   5.126   1.713   9.669 -0.3599  1.2909  1.5413
  803MOL0     H 5947   5.305   1.511   9.541  1.9144  2.9392  0.2081
  803MOL0     H 5948   5.202   1.599   9.435  3.5868  0.5700 -0.3279
  803MOL0     H 5949   4.960   1.440   9.431 -1.5059  0.5062  0.4436
  803MOL0     H 5950   4.786   1.245   9.593 -1.6737 -2.0233  2.9483
  803MOL0     H 5951   4.885   1.107   9.653 -4.7507 -0.4326  0.1239
  803MOL0     H 5952   5.007   1.088   9.435 -0.1378 -0.3464 -2.6425
  803MOL0     H 5953   4.895   1.189   9.358  2.0884  1.4923 -0.2492
  803MOL0     H 5954   4.804   0.971   9.318 -3.2269 -1.8757  0.4832
  803MOL0     H 5955   4.848   0.900   9.460 -1.3791 -0.1560  1.2658
  803MOL0     H 5956   4.675   0.996   9.587  2.2252  1.8018 -1.4634
  803MOL0     H 5957   4.607   0.917   9.452 -0.4254 -0.1153 -0.9314
  803MOL0     H 5958   4.404   0.938   9.514  1.2682 -0.1179 -1.1712
  803MOL0     H 5959   4.157   0.996   9.499 -0.5878  0.3912  0.4834
  803MOL0     H 5960   3.799   0.992   9.582 -1.6558 -1.3768 -0.2860
  803MOL0     H 5961   3.554   0.975   9.563 -0.9280 -1.1336 -0.9094
  803MOL0     H 5962   3.403   1.056   9.224  1.4027  0.8925  1.1042
  803MOL0     H 5963   3.307   1.208   9.252 -0.1218 -0.2873 -0.7336
  803MOL0     H 5964   3.170   1.010   9.182 -2.4952  0.7849  0.2934
  803MOL0     H 5965   3.133   1.058   9.356  2.2207 -0.7746  2.5868
  803MOL0     H 5966   3.305   0.878   9.422 -3.8174 -1.4132  2.4282
  803MOL0     H 5967   3.304   0.834   9.254 -1.8735  2.6377 -2.7913
  803MOL0     H 5968   3.057   0.859   9.416  2.3960  0.6487  0.3807
  803MOL0     H 5969   3.065   0.783   9.253  0.9915 -2.1692 -1.3326
  803MOL0     H 5970   3.156   0.689   9.531 -1.2161  1.6589 -0.6788
  803MOL0     H 5971   3.234   0.625   9.386 -0.9028 -3.1488  0.5536
  803MOL0     H 5972   3.000   0.570   9.277 -1.6499 -0.4669  1.2824
  803MOL0     H 5973   2.931   0.607   9.429 -0.2096 -0.1976 -0.4902
  803MOL0     H 5974   3.062   0.428   9.539 -1.2338  3.6974  0.4524
  803MOL0     H 5975   2.937   0.366   9.428 -0.8835  1.4166  0.7108
  803MOL0     H 5976   3.219   0.426   9.341  0.1557  0.3845  2.4807
  803MOL0     H 5977   3.093   0.335   9.252  1.9332 -0.7625 -0.0395
  803MOL0     H 5978   3.556   1.292   9.282 -2.4974 -0.1875  1.4165
  803MOL0     H 5979   3.795   1.283   9.270 -0.9387  0.4466 -0.3110
  803MOL0     H 5980   4.248   1.376   9.334 -2.9500 -1.7430 -1.0030
  803MOL0     H 5981   4.482   1.325   9.334 -0.9420 -0.2905 -3.2066
  803MOL0     H 5982   6.084   1.739   9.237 -0.0554 -1.4692  1.6347
  803MOL0     H 5983   6.339   1.696   9.266  0.5877 -0.3409  0.3915
  803MOL0     H 5984   6.798   2.087   9.191  0.6981 -1.2511 -1.1493
  803MOL0     H 5985   7.029   2.047   9.239 -0.3592  0.1663  0.3907
  803MOL0     H 5986   7.229   2.071   9.358  0.8802  1.0080 -0.9982
  803MOL0     H 5987   7.247   1.928   9.252  3.1967 -2.6288  1.1191
  803MOL0     H 5988   7.432   2.038   9.405  1.8855 -0.7213  0.4906
  803MOL0     H 5989   7.380   1.923   9.532  0.7728 -1.7883 -0.7163
  803MOL0     H 5990   7.397   1.738   9.368  1.6306 -0.9232  1.6040
  803MOL0     H 5991   7.542   1.784   9.447  1.9381  0.5296 -0.6642
  803MOL0     H 5992   7.461   1.874   9.166 -0.1014 -1.1690  0.7054
  803MOL0     H 5993   7.608   1.923   9.254  0.2483  0.2505 -0.6097
  803MOL0     H 5994   7.715   1.529   9.125  2.2552  0.2088  0.1622
  803MOL0     H 5995   6.951   1.768   9.537  1.1841 -0.7791 -1.3866
  803MOL0     H 5996   6.723   1.749   9.483 -0.7170  2.6250  2.6033
  804MOL0     O 5997   6.449   5.581   1.172  0.3346 -0.2709  0.2934
  804MOL0     C 5998   6.517   5.616   1.267  0.0339  0.4743  0.3814
  804MOL0     O 5999   6.479   5.626   1.400 -0.5764  0.1993  0.6265
  804MOL0     C 6000   6.350   5.605   1.436  0.6086  0.6580 -0.1652
  804MOL0     C 6001   6.249   5.663   1.365 -1.0137 -0.1267  0.4063
  804MOL0     C 6002   6.116   5.647   1.392  0.1458 -0.0818 -0.8682
  804MOL0     C 6003   6.083   5.583   1.509  0.1300  0.1646  0.8201
  804MOL0     O 6004   5.957   5.580   1.568 -0.4508 -0.0395  0.2657
  804MOL0     C 6005   5.847   5.575   1.483  0.1737 -0.6320 -0.4810
  804MOL0     C 6006   5.726   5.525   1.571 -1.4491  0.0456  0.7166
  804MOL0     C 6007   5.603   5.491   1.483 -0.1669  0.3980  0.2948
  804MOL0     C 6008   5.488   5.452   1.576 -0.1424  0.3955 -0.6080
  804MOL0     C 6009   5.368   5.420   1.485 -0.9241  0.3176  0.2979
  804MOL0     C 6010   5.245   5.407   1.576  0.7052 -0.2863  0.3323
  804MOL0     C 6011   5.107   5.397   1.510  1.0937  0.2651  0.7257
  804MOL0     C 6012   5.084   5.346   1.362 -0.1814 -0.4720 -0.2166
  804MOL0     N 6013   4.940   5.340   1.334 -0.4476  0.7547 -0.0450
  804MOL0     C 6014   4.862   5.443   1.300  0.4785 -0.2653  0.4809
  804MOL0     C 6015   4.749   5.379   1.255 -0.5049 -0.6344 -0.4359
  804MOL0     C 6016   4.632   5.427   1.179  0.5216 -1.0095  0.5170
  804MOL0     C 6017   4.503   5.359   1.223  0.0133 -0.4691 -0.5401
  804MOL0     C 6018   4.382   5.394   1.139  0.2770 -0.4043  0.2853
  804MOL0     C 6019   4.258   5.309   1.154  0.1265 -0.1244 -0.1448
  804MOL0     O 6020   4.286   5.164   1.143  0.1596 -0.1545  0.1500
  804MOL0     C 6021   4.186   5.070   1.164 -0.7323  0.6698 -0.0596
  804MOL0     C 6022   4.209   4.936   1.148  0.0055 -0.3748 -0.0738
  804MOL0     C 6023   4.112   4.843   1.188 -0.0150  0.7520  0.1545
  804MOL0     C 6024   3.983   4.880   1.234  0.1553 -0.1688 -0.1722
  804MOL0     C 6025   3.878   4.773   1.248 -0.5569 -0.5911  0.0421
  804MOL0     O 6026   3.762   4.813   1.316  0.1932  0.6613  0.3549
  804MOL0     C 6027   3.647   4.732   1.326 -0.4608 -0.6685  0.6800
  804MOL0     C 6028   3.642   4.594   1.336 -0.6441 -0.7245 -0.0631
  804MOL0     C 6029   3.524   4.526   1.351 -0.2115 -0.1792  0.3231
  804MOL0     C 6030   3.400   4.598   1.361  0.3399  0.4923 -0.2754
  804MOL0     O 6031   3.277   4.542   1.366  0.3350  0.2676 -0.2020
  804MOL0     C 6032   3.259   4.405   1.346 -0.3410  0.2672  0.4297
  804MOL0     C 6033   3.128   4.364   1.287 -0.0273  0.0578  0.6075
  804MOL0     C 6034   3.013   4.422   1.367  0.4923 -0.6061 -0.0742
  804MOL0     C 6035   2.875   4.386   1.317  0.3697 -0.6312  0.3423
  804MOL0     C 6036   2.829   4.243   1.351 -0.6280  0.0913  0.7818
  804MOL0     C 6037   2.681   4.231   1.297 -0.1906 -0.3937  0.5387
  804MOL0     C 6038   2.624   4.093   1.313  0.2777 -0.1203 -0.5657
  804MOL0     C 6039   2.526   4.077   1.438  0.1199  0.4450 -0.3538
  804MOL0    Cl 6040   2.370   4.147   1.411  0.3182 -0.1927  0.2829
  804MOL0     C 6041   3.404   4.736   1.354 -0.4573 -0.3841 -0.9235
  804MOL0     C 6042   3.527   4.801   1.351  0.3025 -0.4469  0.4428
  804MOL0     O 6043   3.894   4.660   1.193  0.1942 -0.2753  1.1391
  804MOL0     C 6044   3.952   5.013   1.236  0.3084  0.0353  1.1311
  804MOL0     C 6045   4.054   5.107   1.208  0.2042 -0.0364  0.8072
  804MOL0     N 6046   4.757   5.249   1.287  0.5648 -0.6013  0.5102
  804MOL0     N 6047   4.867   5.229   1.349 -0.6585  0.7278 -0.7689
  804MOL0     C 6048   6.183   5.517   1.580  0.3869  0.3120 -0.9657
  804MOL0     C 6049   6.313   5.513   1.534 -0.2916 -1.0477 -0.1311
  804MOL0     C 6050   6.658   5.653   1.246  0.1938  0.2648  1.3351
  804MOL0     C 6051   6.716   5.637   1.119 -0.2362 -0.1762  0.1996
  804MOL0     C 6052   6.851   5.675   1.106 -0.0026  0.4329  0.7740
  804MOL0     C 6053   6.937   5.712   1.210  0.2598  0.2140  0.6182
  804MOL0     O 6054   7.067   5.747   1.176  0.3180  0.4882  0.0350
  804MOL0     C 6055   7.172   5.711   1.267  0.6591  0.0101 -0.4956
  804MOL0     C 6056   7.219   5.565   1.252  0.5487  0.4308 -0.2592
  804MOL0     C 6057   7.342   5.535   1.337 -0.3577  0.2393  0.2605
  804MOL0     C 6058   7.383   5.389   1.298 -0.3599  0.2145  0.3816
  804MOL0     C 6059   7.315   5.281   1.371  0.1375 -0.2939  0.1732
  804MOL0     C 6060   7.257   5.182   1.415 -0.7893 -0.2596 -0.9484
  804MOL0     C 6061   6.887   5.700   1.338 -0.0063  0.4287  0.5585
  804MOL0     C 6062   6.748   5.679   1.356  0.5826  0.2860 -0.1526
  804MOL0     H 6063   6.257   5.713   1.269 -1.7454 -0.0921  0.3593
  804MOL0     H 6064   6.031   5.691   1.341 -1.0420 -0.6069  0.6011
  804MOL0     H 6065   5.860   5.510   1.396  0.7710  1.0365 -1.6770
  804MOL0     H 6066   5.835   5.675   1.440 -1.7845  0.7113  2.7736
  804MOL0     H 6067   5.696   5.595   1.649 -2.2554  1.0632 -0.4641
  804MOL0     H 6068   5.756   5.429   1.614  1.6341  0.2697 -0.6271
  804MOL0     H 6069   5.638   5.402   1.429  0.9567 -1.1954  3.3685
  804MOL0     H 6070   5.579   5.573   1.415 -0.1024 -1.7675 -2.5597
  804MOL0     H 6071   5.513   5.369   1.644 -3.4910  0.3071  0.7035
  804MOL0     H 6072   5.459   5.535   1.641 -1.0986 -0.6154  0.3041
  804MOL0     H 6073   5.390   5.330   1.427 -0.2385  0.0292  0.9771
  804MOL0     H 6074   5.345   5.504   1.419 -0.7918  0.5971  0.5991
  804MOL0     H 6075   5.245   5.499   1.635  0.4635  0.3422 -0.6260
  804MOL0     H 6076   5.259   5.322   1.644 -0.9767  2.3662  4.4404
  804MOL0     H 6077   5.053   5.334   1.582 -0.9956 -0.5045 -1.3820
  804MOL0     H 6078   5.061   5.496   1.517 -1.2739 -0.8949  3.4884
  804MOL0     H 6079   5.131   5.249   1.347 -2.1101 -1.3276 -1.0133
  804MOL0     H 6080   5.133   5.409   1.288 -2.3500 -0.7794 -2.0090
  804MOL0     H 6081   4.892   5.546   1.290  1.5265 -0.4329  1.7153
  804MOL0     H 6082   4.635   5.410   1.072  0.0747 -0.3090  0.3839
  804MOL0     H 6083   4.619   5.534   1.201  0.7949 -0.2990 -2.3902
  804MOL0     H 6084   4.498   5.404   1.322  2.5443 -1.4303  0.0948
  804MOL0     H 6085   4.516   5.251   1.228 -0.1459 -0.4181  1.5993
  804MOL0     H 6086   4.354   5.499   1.145  2.0074  0.0529  0.9708
  804MOL0     H 6087   4.405   5.378   1.033 -2.5801 -0.7246 -0.3537
  804MOL0     H 6088   4.177   5.329   1.083 -0.2262  1.5704  0.6869
  804MOL0     H 6089   4.215   5.333   1.251 -0.1784  0.2147 -0.3622
  804MOL0     H 6090   4.310   4.915   1.115  0.3654 -0.1835  0.8758
  804MOL0     H 6091   4.143   4.739   1.185 -0.0869  0.7404 -0.3490
  804MOL0     H 6092   3.737   4.541   1.335 -0.3827 -0.2556 -0.9154
  804MOL0     H 6093   3.545   4.419   1.349  1.5379  0.0540  2.4996
  804MOL0     H 6094   3.263   4.364   1.448 -0.8120 -2.1418 -0.4515
  804MOL0     H 6095   3.339   4.366   1.283 -1.9691  1.6069 -2.6608
  804MOL0     H 6096   3.124   4.255   1.292 -3.6608  0.1087  1.6794
  804MOL0     H 6097   3.126   4.398   1.183 -0.6252  1.5812  1.0801
  804MOL0     H 6098   3.026   4.531   1.363  2.5196 -0.6812  2.1493
  804MOL0     H 6099   3.020   4.398   1.473 -1.2172 -0.5313  0.0897
  804MOL0     H 6100   2.801   4.446   1.369  1.6412  1.1773  0.1839
  804MOL0     H 6101   2.866   4.397   1.208 -1.5185 -0.4163  0.4890
  804MOL0     H 6102   2.840   4.225   1.458 -0.3468 -2.1257  0.4274
  804MOL0     H 6103   2.899   4.172   1.305  0.3531  2.3167 -1.3814
  804MOL0     H 6104   2.686   4.246   1.189 -2.5272  1.2068  0.5884
  804MOL0     H 6105   2.615   4.313   1.327  1.1023  1.7557 -2.1497
  804MOL0     H 6106   2.565   4.079   1.222 -0.7518  1.1755 -0.1285
  804MOL0     H 6107   2.703   4.017   1.317  0.1227 -0.2555 -0.0220
  804MOL0     H 6108   2.574   4.112   1.530 -0.5370  3.8650 -1.1679
  804MOL0     H 6109   2.509   3.970   1.446 -0.8339  0.7261  2.2527
  804MOL0     H 6110   3.311   4.787   1.377  0.9665  1.6081  0.8010
  804MOL0     H 6111   3.530   4.909   1.360  0.2347 -0.4643  0.6721
  804MOL0     H 6112   3.854   5.057   1.248  1.3929  3.3618 -0.6956
  804MOL0     H 6113   4.029   5.212   1.218  2.3775  0.6908 -0.6176
  804MOL0     H 6114   6.149   5.452   1.660 -3.7377  0.4293 -2.4045
  804MOL0     H 6115   6.392   5.454   1.581  1.3816 -0.9819 -2.6629
  804MOL0     H 6116   6.672   5.592   1.030  0.5410  0.6278 -0.6200
  804MOL0     H 6117   6.887   5.662   1.004 -0.7727  3.4304  0.0166
  804MOL0     H 6118   7.148   5.746   1.368 -1.1597  2.2194 -1.5971
  804MOL0     H 6119   7.252   5.780   1.237  1.3707 -0.4455  0.2931
  804MOL0     H 6120   7.139   5.495   1.276  0.4407  0.0861 -1.5225
  804MOL0     H 6121   7.247   5.559   1.146  2.5508  0.7767  0.2174
  804MOL0     H 6122   7.313   5.550   1.441 -1.2828 -1.6757  0.3080
  804MOL0     H 6123   7.419   5.610   1.316 -2.9678  2.6817 -1.4658
  804MOL0     H 6124   7.385   5.378   1.189  1.3834  0.2461  0.3784
  804MOL0     H 6125   7.484   5.383   1.339 -0.8935  1.4229  1.9436
  804MOL0     H 6126   7.202   5.095   1.444 -3.1146  1.3869 -0.0349
  804MOL0     H 6127   6.946   5.733   1.423 -0.6474 -0.9053  1.5433
  804MOL0     H 6128   6.716   5.692   1.459  3.1586  1.0623  0.6235
  805MOL0     O 6129   2.498   4.314   6.372 -0.0206 -0.7199  0.2237
  805MOL0     C 6130   2.578   4.345   6.463  0.3050  0.1196  0.2714
  805MOL0     O 6131   2.547   4.365   6.598 -0.1043  0.1002 -0.4762
  805MOL0     C 6132   2.412   4.357   6.646  0.6116 -0.0564  0.1436
  805MOL0     C 6133   2.306   4.412   6.567 -0.5079 -0.1379  0.3887
  805MOL0     C 6134   2.174   4.402   6.618  0.2592  0.4705  1.2560
  805MOL0     C 6135   2.136   4.325   6.732 -0.3396  0.3026 -0.1041
  805MOL0     O 6136   2.006   4.294   6.771  0.8192 -0.0695 -0.6441
  805MOL0     C 6137   1.904   4.334   6.685 -0.9885  0.9162  0.2304
  805MOL0     C 6138   1.780   4.271   6.731  0.3860  0.4417 -0.3071
  805MOL0     C 6139   1.730   4.327   6.865 -0.1898  0.1978  0.5174
  805MOL0     C 6140   1.580   4.305   6.880 -0.2503  0.2237  0.0511
  805MOL0     C 6141   1.534   4.364   7.008  0.3891 -0.1524  0.3002
  805MOL0     C 6142   1.375   4.371   7.028  0.0688 -0.2693  0.2477
  805MOL0     C 6143   1.296   4.430   6.920  0.1234 -0.0671  1.0143
  805MOL0     C 6144   1.350   4.562   6.858  0.2386 -0.3418  0.3122
  805MOL0     N 6145   1.330   4.674   6.947  0.3996 -0.0283  0.7844
  805MOL0     C 6146   1.223   4.758   6.939  0.7672 -0.5689  0.2667
  805MOL0     C 6147   1.255   4.883   6.997 -0.3127  0.4077 -0.4698
  805MOL0     C 6148   1.165   5.002   7.034 -0.4892 -0.5021  0.2364
  805MOL0     C 6149   1.089   4.966   7.161 -0.2783  0.4708  0.5124
  805MOL0     C 6150   0.966   5.055   7.188 -0.6567 -0.7051  0.5419
  805MOL0     C 6151   0.826   4.992   7.152  0.0840  0.6921 -0.2765
  805MOL0     O 6152   0.800   5.024   7.015  0.5921 -0.3318  0.0167
  805MOL0     C 6153   0.673   4.992   6.968 -1.1502 -0.4280 -0.3543
  805MOL0     C 6154   0.661   4.982   6.826  0.1753  0.6968  0.0646
  805MOL0     C 6155   0.540   4.949   6.766  0.4781  1.1236  0.0313
  805MOL0     C 6156   0.420   4.940   6.846 -0.5948 -0.4920  0.7171
  805MOL0     C 6157   0.285   4.930   6.780 -0.3472  0.4917 -0.5409
  805MOL0     O 6158   0.176   4.890   6.865  0.2824 -0.1818 -0.3649
  805MOL0     C 6159   0.070   4.820   6.811  0.1861  0.1606  0.0107
  805MOL0     C 6160   0.075   4.729   6.699 -0.6994 -0.5323  0.1158
  805MOL0     C 6161  -0.044   4.672   6.650 -0.4108 -0.2686  0.8701
  805MOL0     C 6162  -0.168   4.691   6.716 -1.0115  0.0118  0.3942
  805MOL0     O 6163  -0.287   4.641   6.665 -0.1521 -0.0264 -0.1779
  805MOL0     C 6164  -0.326   4.672   6.533 -0.1313 -1.1207  0.3038
  805MOL0     C 6165  -0.474   4.641   6.524  0.3354  0.1128 -0.1636
  805MOL0     C 6166  -0.520   4.672   6.383  0.4727  0.7646 -0.3393
  805MOL0     C 6167  -0.668   4.637   6.364 -0.1098 -0.4873 -0.6504
  805MOL0     C 6168  -0.721   4.665   6.224  0.3362  0.9636 -0.3492
  805MOL0     C 6169  -0.849   4.587   6.195  0.4799 -0.0297  0.1010
  805MOL0     C 6170  -0.896   4.615   6.050 -0.6449 -0.0755  0.5534
  805MOL0     C 6171  -0.915   4.758   6.016 -0.2618  0.5289 -0.3321
  805MOL0    Cl 6172  -0.975   4.766   5.847 -0.2597  0.6515  0.3484
  805MOL0     C 6173  -0.172   4.767   6.839  0.6408 -0.1314  0.9074
  805MOL0     C 6174  -0.056   4.839   6.880 -0.0242  0.2090  0.0575
  805MOL0     O 6175   0.280   4.924   6.656 -0.1282  0.4316 -0.3417
  805MOL0     C 6176   0.432   4.950   6.985 -0.2758 -0.1139  0.1443
  805MOL0     C 6177   0.557   4.974   7.044  0.6541 -0.4071 -1.3213
  805MOL0     N 6178   1.392   4.867   7.025 -0.3196 -0.4535 -0.0945
  805MOL0     N 6179   1.436   4.753   6.991  0.5827 -0.2268  0.4095
  805MOL0     C 6180   2.241   4.264   6.801 -0.8439 -0.5996 -0.7772
  805MOL0     C 6181   2.375   4.284   6.757 -0.2332  0.3483  0.9132
  805MOL0     C 6182   2.716   4.367   6.416  0.1186  0.5589 -0.2461
  805MOL0     C 6183   2.819   4.352   6.516  0.3322 -0.1767  0.2770
  805MOL0     C 6184   2.953   4.377   6.484  0.7467 -0.7406 -0.0341
  805MOL0     C 6185   2.981   4.425   6.356  0.0109 -0.0313 -0.4262
  805MOL0     O 6186   3.108   4.412   6.322  0.3412  0.8865 -0.5803
  805MOL0     C 6187   3.203   4.494   6.396  0.1806 -0.2742 -0.5017
  805MOL0     C 6188   3.250   4.602   6.303 -0.4108 -0.6006  0.5331
  805MOL0     C 6189   3.143   4.711   6.276 -0.0393  0.1864 -0.1100
  805MOL0     C 6190   3.217   4.826   6.196  0.1944  0.5781  1.0159
  805MOL0     C 6191   3.113   4.932   6.193 -0.0734 -0.0485  0.8121
  805MOL0     C 6192   3.025   5.018   6.172  0.4136 -0.1627  0.4324
  805MOL0     C 6193   2.889   4.437   6.260 -1.4573 -0.0342  0.5468
  805MOL0     C 6194   2.746   4.403   6.286 -0.5789 -0.0946  0.4759
  805MOL0     H 6195   2.336   4.472   6.481  1.8258  0.5990  1.6276
  805MOL0     H 6196   2.105   4.462   6.560 -1.5058 -1.5165  1.1757
  805MOL0     H 6197   1.933   4.311   6.582  1.2766 -2.5168  1.4734
  805MOL0     H 6198   1.904   4.443   6.687 -0.9796  0.9702 -1.3887
  805MOL0     H 6199   1.785   4.162   6.730  0.9410  0.4388  0.8691
  805MOL0     H 6200   1.699   4.297   6.661  2.3809  1.6678 -2.3017
  805MOL0     H 6201   1.744   4.434   6.886  0.5412 -0.1265  1.7848
  805MOL0     H 6202   1.783   4.270   6.941 -2.2560 -2.9579 -0.2347
  805MOL0     H 6203   1.529   4.328   6.786  2.6508  2.1531 -1.1895
  805MOL0     H 6204   1.561   4.198   6.890  0.0149 -0.0163 -1.7507
  805MOL0     H 6205   1.572   4.464   7.028 -1.5191  0.4902  0.9453
  805MOL0     H 6206   1.569   4.302   7.092  1.8593  0.4049  0.1061
  805MOL0     H 6207   1.369   4.434   7.117  2.6122  2.9325 -1.6296
  805MOL0     H 6208   1.335   4.271   7.047 -2.0985  0.5356  0.2057
  805MOL0     H 6209   1.295   4.355   6.841  2.3450  1.5686 -0.7313
  805MOL0     H 6210   1.194   4.447   6.954 -0.2748  1.9266 -0.9253
  805MOL0     H 6211   1.299   4.585   6.764 -2.0281 -1.2738  1.2450
  805MOL0     H 6212   1.457   4.549   6.841  0.2794 -0.1136  0.3906
  805MOL0     H 6213   1.126   4.729   6.899  0.5816  1.2627 -0.7181
  805MOL0     H 6214   1.096   4.997   6.949  1.5506 -2.2280 -1.4451
  805MOL0     H 6215   1.219   5.096   7.048  1.0551 -1.1868 -0.9033
  805MOL0     H 6216   1.160   4.989   7.241  0.1855 -1.9621  0.8666
  805MOL0     H 6217   1.060   4.861   7.169  0.0193  0.4628  1.6692
  805MOL0     H 6218   0.977   5.074   7.295  2.0573  2.1066 -0.1287
  805MOL0     H 6219   0.976   5.154   7.144  0.9651 -0.4370  1.4543
  805MOL0     H 6220   0.763   5.055   7.215  0.9366 -0.4008  1.7730
  805MOL0     H 6221   0.817   4.885   7.173  0.5883  0.5661 -0.6640
  805MOL0     H 6222   0.750   4.988   6.763 -1.1838  0.4012 -1.9985
  805MOL0     H 6223   0.557   4.929   6.660  3.6876 -2.0040  0.9714
  805MOL0     H 6224   0.175   4.717   6.657 -0.0614  3.5410  0.0501
  805MOL0     H 6225  -0.037   4.612   6.560  2.2792 -0.5025  1.1436
  805MOL0     H 6226  -0.268   4.607   6.467 -0.1966  1.0052 -2.0324
  805MOL0     H 6227  -0.297   4.775   6.512  0.2522 -0.9859  1.4370
  805MOL0     H 6228  -0.534   4.688   6.602 -0.9401 -2.9304  0.8377
  805MOL0     H 6229  -0.487   4.536   6.550 -0.1418  0.1039 -0.4388
  805MOL0     H 6230  -0.459   4.614   6.314  2.5012  2.3532  0.0418
  805MOL0     H 6231  -0.502   4.778   6.362  1.1420  0.4699 -1.3172
  805MOL0     H 6232  -0.674   4.532   6.393 -0.0483 -0.1804  0.5220
  805MOL0     H 6233  -0.721   4.699   6.438 -1.4420 -2.2285 -0.0666
  805MOL0     H 6234  -0.646   4.642   6.148  1.6730 -0.7907  1.4012
  805MOL0     H 6235  -0.725   4.774   6.229  0.7945  0.9261  1.9468
  805MOL0     H 6236  -0.930   4.613   6.264 -0.4334  1.9759 -1.6173
  805MOL0     H 6237  -0.836   4.479   6.205 -1.0992 -0.3857 -1.2619
  805MOL0     H 6238  -0.814   4.586   5.983 -0.2333 -0.0213  1.0321
  805MOL0     H 6239  -0.986   4.555   6.036  0.4019 -1.9731  1.5476
  805MOL0     H 6240  -0.816   4.804   6.024  0.1351 -0.0338 -1.7651
  805MOL0     H 6241  -0.993   4.791   6.085 -1.2871  1.5434 -1.9088
  805MOL0     H 6242  -0.264   4.775   6.896 -0.1614 -0.4172 -0.3166
  805MOL0     H 6243  -0.066   4.886   6.977  0.6382 -2.1503  1.3433
  805MOL0     H 6244   0.344   4.957   7.048  0.4462  1.8350  0.9848
  805MOL0     H 6245   0.568   4.974   7.152 -0.2164  0.7072 -1.2061
  805MOL0     H 6246   2.229   4.205   6.891  2.8203  0.3220  0.5289
  805MOL0     H 6247   2.451   4.215   6.791  0.1296 -1.3167 -2.7893
  805MOL0     H 6248   2.812   4.340   6.623  0.4599  0.9244  0.4206
  805MOL0     H 6249   3.028   4.363   6.562  2.2769  1.0110 -1.1064
  805MOL0     H 6250   3.282   4.424   6.423 -1.2258 -1.7540 -0.0342
  805MOL0     H 6251   3.150   4.540   6.479  1.2503 -1.2005  0.7348
  805MOL0     H 6252   3.339   4.649   6.346  0.9049 -0.8220 -1.7807
  805MOL0     H 6253   3.284   4.565   6.206  1.8529  1.3286  0.5164
  805MOL0     H 6254   3.105   4.757   6.368  1.4582  1.9842 -0.3127
  805MOL0     H 6255   3.056   4.666   6.228 -0.8837 -1.6026  2.8784
  805MOL0     H 6256   3.311   4.865   6.235 -0.8334  1.0907  3.1072
  805MOL0     H 6257   3.233   4.780   6.098  0.3599  0.5847  1.0404
  805MOL0     H 6258   2.956   5.098   6.155 -1.6045 -1.4680  1.9757
  805MOL0     H 6259   2.911   4.469   6.159  2.4149  0.9218  1.5307
  805MOL0     H 6260   2.670   4.401   6.208  0.4110 -3.9743 -0.6272
  806MOL0     O 6261   6.209   7.283   2.380  0.2603 -1.1584 -0.1166
  806MOL0     C 6262   6.245   7.401   2.363 -0.1021 -0.1983 -0.0761
  806MOL0     O 6263   6.172   7.519   2.377  0.0357  0.0704  0.2824
  806MOL0     C 6264   6.050   7.502   2.432  0.1197 -1.1559  0.2872
  806MOL0     C 6265   6.008   7.568   2.549  0.0882  0.1713 -0.6050
  806MOL0     C 6266   5.876   7.575   2.585  0.2182 -0.0160  0.0234
  806MOL0     C 6267   5.779   7.511   2.513  0.0684  0.5614  0.5795
  806MOL0     O 6268   5.645   7.504   2.533  0.3087 -0.2437  0.3206
  806MOL0     C 6269   5.583   7.539   2.663 -0.9894  0.4027  0.3422
  806MOL0     C 6270   5.549   7.422   2.763 -0.6140 -0.8818 -0.8845
  806MOL0     C 6271   5.483   7.308   2.694 -0.2660 -0.2875  0.3943
  806MOL0     C 6272   5.455   7.195   2.795  0.0351 -0.7560  0.8803
  806MOL0     C 6273   5.427   7.063   2.725  0.1054  0.1984 -0.5434
  806MOL0     C 6274   5.309   7.082   2.631  0.2698  0.4393  0.3730
  806MOL0     C 6275   5.292   6.961   2.539 -0.4845 -0.1998  0.2085
  806MOL0     C 6276   5.143   6.945   2.499 -0.3503 -1.4292  0.2696
  806MOL0     N 6277   5.127   6.813   2.445 -0.4881  0.2587  0.2431
  806MOL0     C 6278   5.097   6.784   2.307 -0.0306  0.3771 -0.5613
  806MOL0     C 6279   5.056   6.653   2.309  0.7236 -0.1802  0.4038
  806MOL0     C 6280   4.989   6.576   2.198 -0.6064 -0.7530 -0.3451
  806MOL0     C 6281   4.838   6.618   2.182  0.1366 -0.0426  0.1899
  806MOL0     C 6282   4.779   6.572   2.048 -0.1821 -0.1617  0.2212
  806MOL0     C 6283   4.624   6.597   2.047 -0.2415  0.0738  0.2493
  806MOL0     O 6284   4.561   6.571   1.917 -0.0239 -0.0343 -0.5883
  806MOL0     C 6285   4.432   6.550   1.909  0.5644 -0.0437  0.7330
  806MOL0     C 6286   4.341   6.538   2.022  0.7070  0.2565 -0.8410
  806MOL0     C 6287   4.209   6.492   2.004  0.7172 -0.1530 -0.0976
  806MOL0     C 6288   4.160   6.472   1.882 -0.2655  0.1400  0.9725
  806MOL0     C 6289   4.021   6.431   1.857 -0.4410 -0.1741 -0.4761
  806MOL0     O 6290   3.939   6.415   1.962 -0.4584  0.1472  0.4105
  806MOL0     C 6291   3.819   6.348   1.949 -0.2281 -0.5734 -0.2165
  806MOL0     C 6292   3.803   6.232   1.868  0.2805  0.5785  0.8520
  806MOL0     C 6293   3.681   6.160   1.884  0.0357 -0.2758 -0.3660
  806MOL0     C 6294   3.581   6.209   1.970 -0.1680  0.8496 -0.1748
  806MOL0     O 6295   3.467   6.129   1.965 -0.6075  0.9460 -0.4487
  806MOL0     C 6296   3.345   6.181   1.988 -0.1606  0.2237  0.3077
  806MOL0     C 6297   3.231   6.087   1.954 -0.5361 -0.3427 -0.8591
  806MOL0     C 6298   3.096   6.138   2.002  0.3811  0.4321  0.0130
  806MOL0     C 6299   2.975   6.078   1.933 -0.5104  0.2162  0.4179
  806MOL0     C 6300   2.962   5.924   1.971  0.7844 -0.1436  0.5695
  806MOL0     C 6301   2.831   5.865   1.897 -0.5134  0.1421 -0.0520
  806MOL0     C 6302   2.832   5.715   1.882 -0.2869 -0.5536 -0.3121
  806MOL0     C 6303   2.705   5.651   1.832  0.5782 -0.1099  0.0364
  806MOL0    Cl 6304   2.678   5.704   1.656  0.6014 -0.2189 -0.1861
  806MOL0     C 6305   3.586   6.331   2.031 -0.3626 -0.1835  0.1539
  806MOL0     C 6306   3.707   6.401   2.021  0.0382  0.6014 -0.4446
  806MOL0     O 6307   3.992   6.422   1.730  0.1618 -0.0021 -0.3851
  806MOL0     C 6308   4.244   6.494   1.765 -0.1344 -0.1566 -0.2352
  806MOL0     C 6309   4.378   6.530   1.777 -0.2324 -0.1179 -0.3888
  806MOL0     N 6310   5.062   6.606   2.444  0.3949 -0.3755  0.8662
  806MOL0     N 6311   5.120   6.699   2.517 -0.3145  0.2934  0.6582
  806MOL0     C 6312   5.817   7.447   2.395  0.3273 -0.4679  0.2985
  806MOL0     C 6313   5.953   7.440   2.352  0.9302 -0.3469  0.2979
  806MOL0     C 6314   6.387   7.418   2.331 -0.1568 -0.4070  0.0506
  806MOL0     C 6315   6.434   7.537   2.273 -0.6385  0.2396 -1.0246
  806MOL0     C 6316   6.581   7.545   2.246  0.7177 -0.4217  0.2105
  806MOL0     C 6317   6.661   7.432   2.247  0.8826 -0.7423 -0.3707
  806MOL0     O 6318   6.787   7.455   2.200 -0.3939 -0.2099  0.4263
  806MOL0     C 6319   6.877   7.353   2.191  0.1944 -0.4273 -0.2184
  806MOL0     C 6320   6.945   7.328   2.332 -0.3203  0.1002 -0.6642
  806MOL0     C 6321   6.976   7.439   2.433 -0.0841  0.2020  0.3631
  806MOL0     C 6322   7.033   7.554   2.349  0.1970  0.7107 -0.1026
  806MOL0     C 6323   7.078   7.661   2.442  0.3086  0.2596  0.1734
  806MOL0     C 6324   7.111   7.738   2.526 -0.4413  0.2769 -0.7362
  806MOL0     C 6325   6.614   7.324   2.313  1.4320 -0.0269  0.2990
  806MOL0     C 6326   6.476   7.313   2.354 -0.1249  0.6540  0.2712
  806MOL0     H 6327   6.079   7.627   2.607  0.4652 -2.3871  1.7007
  806MOL0     H 6328   5.859   7.634   2.674  1.4339  0.9424 -0.3364
  806MOL0     H 6329   5.485   7.585   2.646 -0.6707  0.8976 -0.1613
  806MOL0     H 6330   5.644   7.616   2.711  0.5022  0.5226 -1.6281
  806MOL0     H 6331   5.491   7.459   2.848  0.3999 -0.9167 -0.1521
  806MOL0     H 6332   5.633   7.367   2.807 -0.9927 -3.1029 -2.7573
  806MOL0     H 6333   5.550   7.270   2.617 -1.3332 -0.3313 -0.5243
  806MOL0     H 6334   5.389   7.344   2.652  1.2316  0.5956 -2.4221
  806MOL0     H 6335   5.538   7.177   2.864 -0.4594 -1.2552  1.3528
  806MOL0     H 6336   5.375   7.229   2.862  1.0969  2.1288  0.7959
  806MOL0     H 6337   5.405   6.985   2.799 -2.0777 -0.1388 -1.4999
  806MOL0     H 6338   5.520   7.034   2.675 -0.0938  1.3936 -1.6558
  806MOL0     H 6339   5.343   7.158   2.560 -1.0877 -0.8905 -1.8231
  806MOL0     H 6340   5.222   7.121   2.684  0.3514  2.6235 -0.9838
  806MOL0     H 6341   5.361   6.970   2.455  1.2018 -1.2934  1.4159
  806MOL0     H 6342   5.330   6.872   2.590  2.0490  0.4854 -0.3646
  806MOL0     H 6343   5.112   7.027   2.433  0.8906 -1.0117  0.1720
  806MOL0     H 6344   5.089   6.948   2.594  1.3391 -1.0163  1.2659
  806MOL0     H 6345   5.065   6.860   2.237 -4.5220  0.4468  1.2213
  806MOL0     H 6346   5.001   6.469   2.216 -2.8562 -1.0160 -0.1622
  806MOL0     H 6347   5.041   6.591   2.102 -0.0619  0.1689  0.0853
  806MOL0     H 6348   4.826   6.725   2.163 -0.9339 -0.4925 -1.9858
  806MOL0     H 6349   4.778   6.574   2.263 -0.1675 -1.5750 -0.8233
  806MOL0     H 6350   4.823   6.614   1.958 -1.1662 -0.8433 -0.5950
  806MOL0     H 6351   4.794   6.464   2.048  3.1020  0.1899  0.8111
  806MOL0     H 6352   4.608   6.698   2.084 -1.8601  1.2174 -3.1052
  806MOL0     H 6353   4.578   6.533   2.123 -1.3030  0.2823 -0.1964
  806MOL0     H 6354   4.378   6.552   2.123  2.7890 -1.2003 -1.3144
  806MOL0     H 6355   4.147   6.487   2.094 -1.0867 -0.0505 -1.2754
  806MOL0     H 6356   3.888   6.199   1.811 -1.2332  0.9200 -1.7829
  806MOL0     H 6357   3.667   6.063   1.838 -1.9253 -0.2220  0.0383
  806MOL0     H 6358   3.335   6.267   1.921 -1.4866 -1.1996 -1.4065
  806MOL0     H 6359   3.343   6.206   2.095  0.7094  1.8070 -0.0153
  806MOL0     H 6360   3.241   5.995   2.012  0.5153 -1.0675 -2.1386
  806MOL0     H 6361   3.223   6.055   1.850 -0.7686 -3.2099 -0.0493
  806MOL0     H 6362   3.092   6.248   2.001  0.4297  0.4347 -0.7876
  806MOL0     H 6363   3.098   6.115   2.109  0.4025  1.5133  0.2624
  806MOL0     H 6364   2.890   6.131   1.976  0.1670  0.7855  1.0872
  806MOL0     H 6365   2.978   6.079   1.823  0.1135 -2.5085  0.3388
  806MOL0     H 6366   2.949   5.917   2.079  1.2349 -2.6282  0.5127
  806MOL0     H 6367   3.047   5.861   1.943 -0.9863 -1.3157 -2.8445
  806MOL0     H 6368   2.834   5.901   1.793  1.0314 -2.4720 -1.0211
  806MOL0     H 6369   2.741   5.896   1.950 -1.6479 -1.7980 -0.7183
  806MOL0     H 6370   2.909   5.704   1.806  1.1023 -1.9656  1.2193
  806MOL0     H 6371   2.861   5.661   1.972  4.5269  1.3863 -0.4265
  806MOL0     H 6372   2.621   5.670   1.900 -0.5691 -1.8519 -0.8382
  806MOL0     H 6373   2.724   5.544   1.832  2.9634  0.1847  2.5569
  806MOL0     H 6374   3.499   6.369   2.083  0.7597  0.4255  1.6585
  806MOL0     H 6375   3.725   6.498   2.066  2.2981  0.1661 -0.2507
  806MOL0     H 6376   4.201   6.474   1.667 -1.9688 -0.8496  0.6490
  806MOL0     H 6377   4.444   6.521   1.691  0.4776 -1.1033  0.2314
  806MOL0     H 6378   5.742   7.396   2.336  2.9275 -2.2383 -1.7278
  806MOL0     H 6379   5.972   7.377   2.266  3.2901 -1.2440  1.3801
  806MOL0     H 6380   6.368   7.621   2.253 -1.5958 -0.5928 -1.5034
  806MOL0     H 6381   6.620   7.638   2.206  0.4129 -0.9272 -1.3077
  806MOL0     H 6382   6.961   7.378   2.126 -0.9850  0.2844 -1.5322
  806MOL0     H 6383   6.837   7.258   2.154  2.2632 -0.9835 -1.1395
  806MOL0     H 6384   6.876   7.265   2.390 -1.1107 -0.4664 -2.1643
  806MOL0     H 6385   7.033   7.264   2.322  1.4499  1.9806  1.6630
  806MOL0     H 6386   7.047   7.402   2.507  0.3053  0.3427  0.0592
  806MOL0     H 6387   6.886   7.470   2.488 -2.6330  0.9706 -3.7954
  806MOL0     H 6388   7.111   7.515   2.284 -1.6338 -1.5507 -1.0959
  806MOL0     H 6389   6.960   7.604   2.285 -0.2059 -1.1370 -1.1641
  806MOL0     H 6390   7.144   7.806   2.601  1.7209 -2.1118  0.6302
  806MOL0     H 6391   6.679   7.241   2.336  2.0713 -0.6930 -3.2222
  806MOL0     H 6392   6.430   7.222   2.391 -0.8068 -0.4894 -3.0752
  807MOL0     O 6393  10.092   4.773  10.531 -0.3508 -0.2130 -0.3014
  807MOL0     C 6394  10.015   4.755  10.624  0.2997 -0.1365 -0.3047
  807MOL0     O 6395  10.043   4.686  10.736 -0.0706  0.4889  0.5759
  807MOL0     C 6396  10.162   4.635  10.764 -0.4610  0.3342  0.4728
  807MOL0     C 6397  10.187   4.608  10.901  0.4025 -0.2232  0.8620
  807MOL0     C 6398  10.312   4.550  10.939 -0.3826 -0.0513  0.1670
  807MOL0     C 6399  10.407   4.520  10.839 -0.0363  0.6687 -0.2146
  807MOL0     O 6400  10.533   4.472  10.865 -0.2610 -0.0623  0.2438
  807MOL0     C 6401  10.569   4.441  10.998 -0.6409 -0.0434  0.3047
  807MOL0     C 6402  10.724   4.447  11.015  0.1836 -0.4564 -0.9789
  807MOL0     C 6403  10.780   4.375  11.145 -0.2567 -0.8921 -0.2778
  807MOL0     C 6404  10.932   4.374  11.166  0.6633  0.6631  0.3415
  807MOL0     C 6405  10.971   4.442  11.300 -0.2865 -0.1652  0.6801
  807MOL0     C 6406  11.125   4.424  11.319  0.0292 -0.4709 -0.3652
  807MOL0     C 6407  11.161   4.488  11.453  0.6912 -0.4228  0.6138
  807MOL0     C 6408  11.299   4.447  11.503  0.1826  0.4249 -0.1283
  807MOL0     N 6409  11.414   4.447  11.404 -0.0807  0.7301 -0.3822
  807MOL0     C 6410  11.452   4.553  11.327  0.3258 -0.0362 -1.2788
  807MOL0     C 6411  11.559   4.505  11.250  0.6337 -0.8404  0.4129
  807MOL0     C 6412  11.627   4.579  11.141  0.0246 -0.0717 -0.3632
  807MOL0     C 6413  11.517   4.611  11.044  0.1346 -0.1608  0.7400
  807MOL0     C 6414  11.555   4.663  10.912 -0.0115  0.5504 -0.1552
  807MOL0     C 6415  11.460   4.702  10.793  0.6410 -0.7404 -0.5467
  807MOL0     O 6416  11.348   4.607  10.800  0.5382  0.6727  0.1340
  807MOL0     C 6417  11.250   4.643  10.715 -0.9360  0.4794 -0.7076
  807MOL0     C 6418  11.268   4.730  10.604  0.3516  0.2763 -0.7782
  807MOL0     C 6419  11.165   4.748  10.516  0.5771 -0.0777 -0.2333
  807MOL0     C 6420  11.034   4.697  10.540  0.3021  0.1599  0.3211
  807MOL0     C 6421  10.924   4.717  10.444  0.4799 -0.5439  0.3054
  807MOL0     O 6422  10.795   4.650  10.467  0.0327  0.0551 -0.1198
  807MOL0     C 6423  10.690   4.707  10.398 -0.7744  0.3080 -0.3679
  807MOL0     C 6424  10.570   4.726  10.461  1.5459 -0.0592 -0.6406
  807MOL0     C 6425  10.450   4.770  10.401  0.1989  0.1687  0.3636
  807MOL0     C 6426  10.453   4.798  10.265  0.2594  0.4065  0.0785
  807MOL0     O 6427  10.344   4.826  10.187 -0.4568 -0.5499  0.7050
  807MOL0     C 6428  10.249   4.904  10.251  0.5405  0.1349 -0.0629
  807MOL0     C 6429  10.145   4.951  10.150  0.1110 -0.0548 -0.7579
  807MOL0     C 6430  10.186   5.037  10.026  0.0479 -1.1211 -0.2619
  807MOL0     C 6431  10.059   5.117   9.979 -0.8764 -0.3126  0.4176
  807MOL0     C 6432  10.011   5.234  10.068  0.0402  0.3654  1.1283
  807MOL0     C 6433  10.115   5.350  10.081  0.7091  0.3012 -0.5395
  807MOL0     C 6434  10.143   5.425   9.951  0.4404  1.0175  0.7425
  807MOL0     C 6435  10.258   5.515   9.978  0.4843 -0.0956 -0.4060
  807MOL0    Cl 6436  10.285   5.611   9.829  0.5152 -0.0259 -0.1410
  807MOL0     C 6437  10.576   4.783  10.195  0.4675  0.0448 -0.2441
  807MOL0     C 6438  10.691   4.739  10.258 -0.6375 -0.6327 -0.8896
  807MOL0     O 6439  10.951   4.789  10.348  0.1016  0.6430 -0.2249
  807MOL0     C 6440  11.020   4.615  10.646  0.7552 -0.2245 -0.3697
  807MOL0     C 6441  11.124   4.589  10.730 -1.0648 -0.1545 -0.2714
  807MOL0     N 6442  11.585   4.379  11.286  0.5605 -0.2707  0.2349
  807MOL0     N 6443  11.507   4.341  11.384 -0.2370  0.5514  0.5990
  807MOL0     C 6444  10.372   4.528  10.710  0.4819  0.2740 -0.4285
  807MOL0     C 6445  10.253   4.584  10.669 -0.0385 -0.5589  0.4379
  807MOL0     C 6446   9.877   4.798  10.606 -0.4893 -0.0939 -0.3686
  807MOL0     C 6447   9.849   4.896  10.509  0.1745  0.1191  0.8669
  807MOL0     C 6448   9.722   4.956  10.505  0.4859 -0.1771 -0.1225
  807MOL0     C 6449   9.622   4.918  10.594  0.0778 -0.2763  0.5370
  807MOL0     O 6450   9.496   4.976  10.591  0.1927 -0.4656 -0.5201
  807MOL0     C 6451   9.466   5.078  10.499  0.4470 -0.5307  0.2138
  807MOL0     C 6452   9.327   5.140  10.522 -0.7845 -0.5710 -0.1846
  807MOL0     C 6453   9.298   5.261  10.434 -0.4626 -0.3194  0.3075
  807MOL0     C 6454   9.157   5.319  10.446  0.0152  0.4332  0.2784
  807MOL0     C 6455   9.060   5.223  10.389  0.0852 -0.3689 -0.4992
  807MOL0     C 6456   8.967   5.156  10.355  0.3357  0.9476  0.6960
  807MOL0     C 6457   9.647   4.822  10.691 -0.3043  0.2703  0.3359
  807MOL0     C 6458   9.777   4.775  10.709 -0.4230  0.6148  0.5766
  807MOL0     H 6459  10.106   4.623  10.971  0.3714  2.7919  0.2854
  807MOL0     H 6460  10.332   4.543  11.046  0.5268 -2.9726 -0.0938
  807MOL0     H 6461  10.542   4.336  11.011  0.5515 -0.3324  0.6329
  807MOL0     H 6462  10.519   4.501  11.074 -0.3449 -3.3197  3.3489
  807MOL0     H 6463  10.754   4.552  11.005  2.1407 -0.7628  0.8974
  807MOL0     H 6464  10.770   4.391  10.934  1.1649  1.2830 -1.6773
  807MOL0     H 6465  10.746   4.271  11.145 -2.6148 -0.1997 -0.9339
  807MOL0     H 6466  10.726   4.429  11.224 -2.0411 -0.8884 -1.4520
  807MOL0     H 6467  10.970   4.272  11.161 -1.5958 -0.1815 -1.3975
  807MOL0     H 6468  10.974   4.418  11.075 -2.3797 -3.7282 -3.6711
  807MOL0     H 6469  10.918   4.394  11.383  0.7411 -0.4437  1.1928
  807MOL0     H 6470  10.949   4.549  11.303  1.4078  0.1972  2.0191
  807MOL0     H 6471  11.182   4.474  11.239  1.1486 -0.7783  0.2090
  807MOL0     H 6472  11.147   4.317  11.308  1.6199 -0.0631 -1.5130
  807MOL0     H 6473  11.148   4.594  11.429 -1.7648 -1.3723 -3.0515
  807MOL0     H 6474  11.081   4.460  11.522 -0.3545 -0.5482 -0.5970
  807MOL0     H 6475  11.289   4.349  11.551  2.6145  0.3845  0.4359
  807MOL0     H 6476  11.315   4.524  11.579 -0.1019  1.6096 -1.2416
  807MOL0     H 6477  11.404   4.650  11.328  2.0669  0.8896 -1.7187
  807MOL0     H 6478  11.686   4.503  11.088 -1.8002  0.0007 -2.6948
  807MOL0     H 6479  11.684   4.668  11.168 -1.3278  0.2519  1.6315
  807MOL0     H 6480  11.454   4.687  11.091 -1.6882 -2.5568  2.3898
  807MOL0     H 6481  11.463   4.517  11.028  1.2264 -0.5855 -0.7432
  807MOL0     H 6482  11.613   4.757  10.912  0.0744  0.6060 -3.2090
  807MOL0     H 6483  11.624   4.587  10.874  0.0685 -0.1153  1.2394
  807MOL0     H 6484  11.515   4.700  10.699  0.6591  1.3000 -0.6293
  807MOL0     H 6485  11.417   4.800  10.814 -0.0045 -1.3412  1.0362
  807MOL0     H 6486  11.365   4.775  10.588 -0.7206  3.1956  0.2211
  807MOL0     H 6487  11.190   4.803  10.426 -1.1979 -3.1872 -2.8203
  807MOL0     H 6488  10.559   4.705  10.567  1.3879  1.2334 -0.3835
  807MOL0     H 6489  10.361   4.772  10.464 -0.8577 -0.4607 -1.0358
  807MOL0     H 6490  10.292   4.995  10.295  1.2673  0.2338 -0.9465
  807MOL0     H 6491  10.198   4.845  10.328 -0.5391  1.6446  0.4366
  807MOL0     H 6492  10.075   5.004  10.216  0.0293 -1.2661  0.1567
  807MOL0     H 6493  10.104   4.858  10.110  1.1532 -0.0622 -1.8464
  807MOL0     H 6494  10.221   4.970   9.947  3.3306 -1.0980  0.9954
  807MOL0     H 6495  10.272   5.101  10.049 -3.0879  2.9754  1.4040
  807MOL0     H 6496  10.074   5.148   9.875 -0.5017 -0.7781  0.3331
  807MOL0     H 6497   9.971   5.053   9.976 -1.2624 -0.0302  3.1088
  807MOL0     H 6498   9.996   5.182  10.163  2.3520 -1.3188  0.6643
  807MOL0     H 6499   9.917   5.273  10.028  0.0350  0.2273  1.0052
  807MOL0     H 6500  10.209   5.310  10.119  1.8943  0.4873 -3.1025
  807MOL0     H 6501  10.087   5.422  10.159 -0.1899 -2.0462  1.4359
  807MOL0     H 6502  10.172   5.361   9.866  0.7503  2.3629 -0.1978
  807MOL0     H 6503  10.056   5.485   9.924  0.2310 -0.0029 -1.0089
  807MOL0     H 6504  10.349   5.461  10.007  0.0024 -0.7568 -0.1111
  807MOL0     H 6505  10.242   5.579  10.065  3.2418  0.2606 -0.0633
  807MOL0     H 6506  10.578   4.799  10.088  2.1690  2.0702  0.0374
  807MOL0     H 6507  10.780   4.729  10.196 -0.0000  0.3698 -0.1668
  807MOL0     H 6508  10.925   4.565  10.663 -0.5932  1.3320 -2.6632
  807MOL0     H 6509  11.111   4.525  10.818  2.4907  1.3407  1.5402
  807MOL0     H 6510  10.445   4.500  10.635 -0.7100 -0.8001 -1.2200
  807MOL0     H 6511  10.225   4.585  10.564  1.3119  0.2442  0.0591
  807MOL0     H 6512   9.923   4.939  10.442 -1.1194  0.3344 -0.4714
  807MOL0     H 6513   9.714   5.046  10.445 -2.9528  0.2974  0.7959
  807MOL0     H 6514   9.458   5.036  10.398  3.1171  2.2912 -1.3160
  807MOL0     H 6515   9.545   5.153  10.496 -1.8019  1.9436 -1.2432
  807MOL0     H 6516   9.258   5.060  10.492 -0.2593  0.0071 -3.2420
  807MOL0     H 6517   9.308   5.165  10.627 -2.4879  0.7386 -0.7504
  807MOL0     H 6518   9.309   5.229  10.330 -3.5081  0.2424 -0.2879
  807MOL0     H 6519   9.362   5.349  10.448 -0.4271  0.1692 -2.4566
  807MOL0     H 6520   9.131   5.339  10.550 -0.5875  0.3280  0.1512
  807MOL0     H 6521   9.146   5.412  10.389 -1.3782 -0.3090 -0.7238
  807MOL0     H 6522   8.885   5.097  10.318  0.5819  0.9931  0.0532
  807MOL0     H 6523   9.582   4.785  10.769  0.9384  1.2528  1.9186
  807MOL0     H 6524   9.809   4.716  10.794 -1.3645 -0.1800  0.4026
  808MOL0     O 6525   3.375   2.890  10.707  0.0714 -1.0998 -0.2763
  808MOL0     C 6526   3.425   2.899  10.820 -0.7467 -0.1536 -0.2584
  808MOL0     O 6527   3.504   3.002  10.863 -0.5584  0.2625 -0.2745
  808MOL0     C 6528   3.563   3.087  10.765 -0.3717  0.0608 -0.5019
  808MOL0     C 6529   3.610   3.207  10.808  0.3054 -0.5177 -1.4829
  808MOL0     C 6530   3.669   3.310  10.738  0.0196 -0.7769 -0.6269
  808MOL0     C 6531   3.684   3.286  10.603 -0.4434 -0.0524  0.1630
  808MOL0     O 6532   3.723   3.393  10.524 -0.3194  0.3878 -0.3904
  808MOL0     C 6533   3.722   3.374  10.381  0.3280  0.1165 -1.4123
  808MOL0     C 6534   3.790   3.495  10.307  0.0231 -0.4698 -0.1164
  808MOL0     C 6535   3.929   3.536  10.358  0.4769 -0.3872  0.7487
  808MOL0     C 6536   3.988   3.654  10.278 -0.8041  0.3184 -0.9504
  808MOL0     C 6537   4.135   3.686  10.330  0.2153 -0.5775  0.5309
  808MOL0     C 6538   4.192   3.775  10.217 -0.3329 -0.1739 -0.2401
  808MOL0     C 6539   4.341   3.813  10.233 -0.3140 -0.6439  0.0943
  808MOL0     C 6540   4.433   3.695  10.194  0.8990 -0.7112 -0.2578
  808MOL0     N 6541   4.450   3.686  10.047  0.5070 -0.0207 -0.1496
  808MOL0     C 6542   4.370   3.630   9.948  0.0447  0.1865  0.5446
  808MOL0     C 6543   4.420   3.670   9.828 -0.3059  1.2354  0.4247
  808MOL0     C 6544   4.368   3.634   9.697 -0.2156 -0.2304 -0.3095
  808MOL0     C 6545   4.364   3.488   9.681  0.0736 -0.2467 -0.1744
  808MOL0     C 6546   4.290   3.451   9.547  0.5906  0.6959 -0.5068
  808MOL0     C 6547   4.311   3.307   9.507 -0.2710  0.4238 -0.1506
  808MOL0     O 6548   4.292   3.231   9.625 -0.0032 -0.0287  0.0186
  808MOL0     C 6549   4.163   3.203   9.670  0.9035  0.6538  0.0656
  808MOL0     C 6550   4.159   3.121   9.782  0.2580 -0.2451 -0.1736
  808MOL0     C 6551   4.039   3.091   9.845 -0.0529 -0.2105 -1.1022
  808MOL0     C 6552   3.919   3.130   9.787  0.3537 -0.1941  0.8749
  808MOL0     C 6553   3.788   3.091   9.856 -0.6224 -0.1735 -0.6472
  808MOL0     O 6554   3.791   3.025   9.982 -0.0492  0.5057 -0.4772
  808MOL0     C 6555   3.683   3.008  10.061  0.4534 -0.1797 -0.4340
  808MOL0     C 6556   3.708   2.940  10.188  0.8675  0.9284  0.2025
  808MOL0     C 6557   3.600   2.924  10.279 -0.4727 -0.6652 -0.2487
  808MOL0     C 6558   3.471   2.963  10.257  0.3529 -0.0707 -0.0751
  808MOL0     O 6559   3.376   2.942  10.363 -0.0163  0.0704  0.2792
  808MOL0     C 6560   3.250   3.007  10.368  0.6208  0.4634  0.0386
  808MOL0     C 6561   3.129   2.919  10.341  0.0383  0.2980 -0.6051
  808MOL0     C 6562   3.003   2.999  10.355  0.0766 -1.1320  1.1573
  808MOL0     C 6563   2.880   2.916  10.363  0.7841 -0.8256 -0.1130
  808MOL0     C 6564   2.840   2.842  10.244  0.2504 -0.2510 -0.1172
  808MOL0     C 6565   2.695   2.776  10.268  0.6737 -0.4158  0.7456
  808MOL0     C 6566   2.641   2.682  10.152 -0.3800  0.3362 -0.1105
  808MOL0     C 6567   2.520   2.735  10.072 -0.1890  0.2470  0.7196
  808MOL0    Cl 6568   2.367   2.718  10.176 -0.1468  0.4522 -0.2999
  808MOL0     C 6569   3.452   3.031  10.126 -0.1776 -0.1619 -0.4093
  808MOL0     C 6570   3.552   3.065  10.045 -0.6378  0.3444 -0.2516
  808MOL0     O 6571   3.685   3.130   9.799 -0.0394 -0.0752 -0.4381
  808MOL0     C 6572   3.918   3.200   9.662 -0.2441  0.0271 -0.4071
  808MOL0     C 6573   4.046   3.231   9.605 -0.5834  0.5006  0.8610
  808MOL0     N 6574   4.542   3.733   9.854  0.5419 -0.1671 -0.1151
  808MOL0     N 6575   4.553   3.743   9.981 -0.5791 -0.2674  0.0263
  808MOL0     C 6576   3.649   3.162  10.544  0.4034 -0.5188 -0.8708
  808MOL0     C 6577   3.599   3.065  10.632  0.2999 -0.7082 -0.4270
  808MOL0     C 6578   3.384   2.812  10.930  0.3076  0.8579 -0.4849
  808MOL0     C 6579   3.350   2.677  10.903  0.2258  0.6640  0.6317
  808MOL0     C 6580   3.311   2.597  11.015  0.6686 -0.2042  0.5410
  808MOL0     C 6581   3.300   2.648  11.147  0.0285  0.9367 -0.4177
  808MOL0     O 6582   3.265   2.562  11.253  0.5416 -0.2448  1.1360
  808MOL0     C 6583   3.259   2.623  11.384  0.9712 -0.2526  0.5260
  808MOL0     C 6584   3.245   2.519  11.494  0.2702  1.7271  1.0605
  808MOL0     C 6585   3.107   2.468  11.489 -0.5942 -0.3221 -0.2462
  808MOL0     C 6586   3.102   2.340  11.570  0.1300 -0.0099 -0.3569
  808MOL0     C 6587   2.968   2.278  11.552  1.1093  0.3232  0.5972
  808MOL0     C 6588   2.855   2.240  11.536  0.0204  0.0924  0.4644
  808MOL0     C 6589   3.329   2.784  11.169 -0.0687 -0.4764  0.4186
  808MOL0     C 6590   3.370   2.857  11.060 -0.3586 -1.0968 -0.0338
  808MOL0     H 6591   3.591   3.226  10.913 -0.9702 -3.1870 -1.1448
  808MOL0     H 6592   3.678   3.406  10.788 -4.1513 -0.9471  0.7796
  808MOL0     H 6593   3.626   3.357  10.330 -0.6854  2.8414 -0.6113
  808MOL0     H 6594   3.776   3.281  10.363 -2.1712 -1.6046 -0.6881
  808MOL0     H 6595   3.743   3.592  10.323  0.1970 -0.6105  1.3638
  808MOL0     H 6596   3.801   3.464  10.203 -2.8381  0.8968 -0.9414
  808MOL0     H 6597   3.995   3.449  10.367 -1.2764 -1.6868  1.6073
  808MOL0     H 6598   3.923   3.571  10.462  3.2875 -1.5606  1.3928
  808MOL0     H 6599   3.993   3.628  10.172  1.6090  1.3633 -1.1666
  808MOL0     H 6600   3.926   3.743  10.289  1.5200  1.7941  1.4510
  808MOL0     H 6601   4.194   3.595  10.343 -0.9174 -1.5371 -0.7246
  808MOL0     H 6602   4.136   3.739  10.425 -3.1612 -0.2180  0.4768
  808MOL0     H 6603   4.133   3.867  10.209 -5.1358 -2.8325  0.4167
  808MOL0     H 6604   4.181   3.726  10.120 -0.6052 -0.1175 -0.2383
  808MOL0     H 6605   4.375   3.891  10.165  0.4286 -1.0893 -0.0612
  808MOL0     H 6606   4.363   3.849  10.334 -0.4312  0.6894 -0.3399
  808MOL0     H 6607   4.392   3.606  10.243  0.3548  1.1600  3.0010
  808MOL0     H 6608   4.532   3.716  10.234  0.2132  2.3042  0.1433
  808MOL0     H 6609   4.285   3.568   9.975  1.8079 -1.5038  2.5515
  808MOL0     H 6610   4.424   3.687   9.619 -2.2878 -1.0624 -2.4862
  808MOL0     H 6611   4.269   3.679   9.687 -0.0966 -0.1660 -1.2740
  808MOL0     H 6612   4.313   3.447   9.768 -0.1743  2.9632  1.3583
  808MOL0     H 6613   4.469   3.458   9.687  0.5512  1.4967  3.4748
  808MOL0     H 6614   4.185   3.484   9.547 -0.0950 -1.3525 -0.8207
  808MOL0     H 6615   4.318   3.509   9.459 -0.5583  0.1992 -1.2204
  808MOL0     H 6616   4.410   3.279   9.469 -0.3198  1.1891 -0.8933
  808MOL0     H 6617   4.244   3.281   9.424  0.6538 -1.9594 -0.2127
  808MOL0     H 6618   4.255   3.086   9.816  0.5101 -1.4675 -1.9980
  808MOL0     H 6619   4.036   3.032   9.935 -1.0796  0.2063 -0.8553
  808MOL0     H 6620   3.807   2.896  10.193  0.2505 -0.7366 -1.1357
  808MOL0     H 6621   3.626   2.880  10.375 -0.2282 -0.5041 -0.2413
  808MOL0     H 6622   3.243   3.088  10.294 -2.6822 -0.0920 -0.4342
  808MOL0     H 6623   3.250   3.049  10.469  1.0430 -1.4257  0.8662
  808MOL0     H 6624   3.120   2.833  10.408 -0.9422  0.4775 -0.4811
  808MOL0     H 6625   3.133   2.890  10.236 -0.0003 -1.3979 -0.1641
  808MOL0     H 6626   2.999   3.076  10.278  0.8087 -2.1160  0.1000
  808MOL0     H 6627   3.007   3.058  10.446  1.7755 -2.0217  1.7150
  808MOL0     H 6628   2.877   2.854  10.453  1.9150  0.1729  0.6528
  808MOL0     H 6629   2.808   2.996  10.386 -1.2303 -2.5491 -0.1399
  808MOL0     H 6630   2.917   2.768  10.221 -1.7266 -2.3667 -0.2194
  808MOL0     H 6631   2.818   2.906  10.159  0.2494 -2.6565 -2.0300
  808MOL0     H 6632   2.620   2.854  10.290  1.0420 -0.2900  1.6046
  808MOL0     H 6633   2.691   2.727  10.366 -2.0877  1.3867  1.6779
  808MOL0     H 6634   2.725   2.671  10.083 -0.6311  2.1126 -0.7485
  808MOL0     H 6635   2.618   2.582  10.190  1.8516 -1.6437 -3.4747
  808MOL0     H 6636   2.512   2.676   9.980  0.4236  0.2805  0.6427
  808MOL0     H 6637   2.534   2.839  10.041  0.8583 -0.4872 -1.5253
  808MOL0     H 6638   3.348   3.054  10.103 -0.4025  0.0410  0.7436
  808MOL0     H 6639   3.518   3.114   9.955 -1.1868  0.8346  0.2151
  808MOL0     H 6640   3.830   3.226   9.604 -1.0705  0.1601  0.8656
  808MOL0     H 6641   4.047   3.281   9.508  1.6284 -3.2732 -1.3079
  808MOL0     H 6642   3.662   3.134  10.440  0.4803  0.5597 -1.1574
  808MOL0     H 6643   3.563   2.975  10.583 -0.1265 -1.3457  0.9757
  808MOL0     H 6644   3.354   2.644  10.799  0.4002  3.3665 -0.3222
  808MOL0     H 6645   3.283   2.495  10.991  2.8132 -0.6010 -0.5681
  808MOL0     H 6646   3.181   2.700  11.388  0.3833 -0.8027 -0.1174
  808MOL0     H 6647   3.346   2.687  11.402  0.3425  0.1949  2.1376
  808MOL0     H 6648   3.305   2.432  11.466 -1.3081  1.1844 -0.8801
  808MOL0     H 6649   3.266   2.553  11.596  0.8475  0.9057  1.2262
  808MOL0     H 6650   3.067   2.441  11.390 -1.6763 -1.5534  0.4986
  808MOL0     H 6651   3.032   2.540  11.524 -4.1382 -3.5388 -0.5838
  808MOL0     H 6652   3.179   2.268  11.539 -0.8155 -1.9184  1.5040
  808MOL0     H 6653   3.130   2.352  11.675  3.8565 -0.5093 -1.1390
  808MOL0     H 6654   2.753   2.209  11.520 -0.5699  2.2095 -0.2077
  808MOL0     H 6655   3.317   2.833  11.265 -0.1911 -1.0393  0.6917
  808MOL0     H 6656   3.387   2.962  11.079 -1.0507 -0.4819 -2.3960
  809MOL0     O 6657   0.481   4.548   9.340 -0.4536  0.1119 -0.9271
  809MOL0     C 6658   0.560   4.593   9.428 -0.1356 -0.4208 -0.4818
  809MOL0     O 6659   0.527   4.637   9.551 -0.3608  0.1227  0.0476
  809MOL0     C 6660   0.412   4.599   9.604 -0.0394  0.7766  0.6273
  809MOL0     C 6661   0.306   4.688   9.622 -0.0148 -0.0880 -0.6832
  809MOL0     C 6662   0.191   4.642   9.689 -0.3034  0.1436 -0.3661
  809MOL0     C 6663   0.180   4.501   9.721  0.1095 -0.3231 -0.1278
  809MOL0     O 6664   0.068   4.455   9.781  0.0230 -0.0205 -0.3089
  809MOL0     C 6665  -0.048   4.470   9.699 -0.0942  0.2583  0.2005
  809MOL0     C 6666  -0.044   4.364   9.578 -0.0649 -0.2108 -0.8227
  809MOL0     C 6667  -0.184   4.360   9.514  0.1702  0.1729 -0.7982
  809MOL0     C 6668  -0.199   4.234   9.425  0.7223 -0.4667  0.4796
  809MOL0     C 6669  -0.331   4.236   9.363 -0.4485 -0.2219 -0.2550
  809MOL0     C 6670  -0.317   4.139   9.247  0.3582 -0.1508  0.0600
  809MOL0     C 6671  -0.451   4.118   9.174  0.4691  0.1588  0.4424
  809MOL0     C 6672  -0.443   4.015   9.059  0.2761 -0.1088 -0.5058
  809MOL0     N 6673  -0.582   3.979   9.009 -0.1674 -0.3217  0.7853
  809MOL0     C 6674  -0.668   4.062   8.939  0.8633  0.2335  0.1079
  809MOL0     C 6675  -0.782   3.994   8.904 -0.1114 -0.7073 -1.2159
  809MOL0     C 6676  -0.905   4.046   8.833  0.0370  0.1155  0.0692
  809MOL0     C 6677  -1.028   3.967   8.887 -0.2540  0.3903 -0.2510
  809MOL0     C 6678  -1.157   4.041   8.838  0.7522  0.3868 -0.0736
  809MOL0     C 6679  -1.272   4.011   8.936  0.0464  0.0001  0.5501
  809MOL0     O 6680  -1.405   4.054   8.896 -0.2068  0.3580  0.2318
  809MOL0     C 6681  -1.513   4.035   8.976  0.5675 -0.1751 -0.7943
  809MOL0     C 6682  -1.532   3.919   9.052 -0.3857  0.2257 -0.6240
  809MOL0     C 6683  -1.665   3.897   9.105 -0.2344  0.4160 -0.5311
  809MOL0     C 6684  -1.761   3.989   9.111 -0.1948  0.3673 -0.4863
  809MOL0     C 6685  -1.885   3.956   9.181 -0.1879 -0.3458 -1.0413
  809MOL0     O 6686  -1.980   4.060   9.186 -0.3640 -0.3776  0.0134
  809MOL0     C 6687  -2.086   4.068   9.267 -0.4465  0.4732  0.8998
  809MOL0     C 6688  -2.160   4.179   9.238 -0.3756  0.1743 -0.0766
  809MOL0     C 6689  -2.281   4.189   9.302 -0.5198 -0.2055 -0.5577
  809MOL0     C 6690  -2.331   4.096   9.392  1.1043  0.1254  0.0160
  809MOL0     O 6691  -2.461   4.110   9.430 -0.3364  0.5051 -0.0040
  809MOL0     C 6692  -2.536   4.008   9.487  0.3679  0.3197  0.0030
  809MOL0     C 6693  -2.675   4.070   9.530 -0.4289  0.4139 -0.6864
  809MOL0     C 6694  -2.761   3.956   9.580 -0.2919  0.1947  0.5876
  809MOL0     C 6695  -2.896   4.004   9.631 -0.0338 -0.9919  0.5032
  809MOL0     C 6696  -3.008   3.900   9.605 -0.7544  0.3680  0.1050
  809MOL0     C 6697  -3.142   3.961   9.654 -0.1122  0.6492  0.2546
  809MOL0     C 6698  -3.251   3.866   9.609  0.9398  0.3534  0.1046
  809MOL0     C 6699  -3.379   3.943   9.611 -0.8133 -0.7581 -0.0406
  809MOL0    Cl 6700  -3.517   3.851   9.557 -0.2264 -0.3162  0.1108
  809MOL0     C 6701  -2.255   3.981   9.422  0.5595 -0.3922 -0.2781
  809MOL0     C 6702  -2.124   3.969   9.366 -0.9531  1.3678  0.3295
  809MOL0     O 6703  -1.898   3.848   9.238  0.6222 -0.3164  0.0220
  809MOL0     C 6704  -1.737   4.108   9.045  1.2211 -0.5216  0.0366
  809MOL0     C 6705  -1.610   4.131   8.982  0.5028 -0.4461  1.0157
  809MOL0     N 6706  -0.764   3.867   8.950  0.6000 -0.9493 -0.1070
  809MOL0     N 6707  -0.642   3.861   9.005  1.0006  0.9072  0.5554
  809MOL0     C 6708   0.290   4.416   9.697  0.2700  0.4700 -0.1701
  809MOL0     C 6709   0.409   4.461   9.650  1.0072  0.9700  0.8302
  809MOL0     C 6710   0.697   4.615   9.385  0.3542  0.7352  0.8130
  809MOL0     C 6711   0.805   4.595   9.473 -0.9149  0.3918 -0.3307
  809MOL0     C 6712   0.938   4.593   9.419  1.3570 -0.0426  0.6217
  809MOL0     C 6713   0.961   4.627   9.287  0.0728  0.6428  0.9634
  809MOL0     O 6714   1.072   4.615   9.213  0.1353 -0.1249  0.1072
  809MOL0     C 6715   1.194   4.576   9.280  0.2684 -0.4876  0.4138
  809MOL0     C 6716   1.322   4.583   9.202  0.2304 -0.2064  0.0708
  809MOL0     C 6717   1.374   4.732   9.202  0.5713  0.5508 -0.3996
  809MOL0     C 6718   1.483   4.754   9.099  0.7702  0.2786 -0.9348
  809MOL0     C 6719   1.427   4.739   8.963  1.2951 -0.6283  0.1194
  809MOL0     C 6720   1.372   4.720   8.861 -0.0636 -0.8790  0.9432
  809MOL0     C 6721   0.852   4.645   9.198  0.9902  0.0915  0.1731
  809MOL0     C 6722   0.725   4.649   9.245  0.3874  0.2323 -0.7642
  809MOL0     H 6723   0.322   4.783   9.571 -0.1881 -0.4422 -1.4020
  809MOL0     H 6724   0.117   4.716   9.717  0.3676 -0.1175  2.4273
  809MOL0     H 6725  -0.065   4.572   9.663 -0.3059  0.2320  0.2244
  809MOL0     H 6726  -0.137   4.457   9.760 -0.4781  2.6125  0.1984
  809MOL0     H 6727  -0.018   4.262   9.608  0.8114  0.1442 -0.3402
  809MOL0     H 6728   0.035   4.393   9.509  0.2383 -0.6839 -0.6828
  809MOL0     H 6729  -0.184   4.445   9.446  0.0881  1.6055  0.9131
  809MOL0     H 6730  -0.269   4.376   9.581 -1.0413 -2.5602 -1.5243
  809MOL0     H 6731  -0.122   4.245   9.349 -0.7366  0.4361 -0.9354
  809MOL0     H 6732  -0.191   4.143   9.485 -1.1446 -0.7500  0.3517
  809MOL0     H 6733  -0.365   4.335   9.333  0.2828  0.8066  2.0832
  809MOL0     H 6734  -0.397   4.207   9.445  1.6634 -0.5204  1.4213
  809MOL0     H 6735  -0.290   4.036   9.275  1.1718 -0.3219 -1.2622
  809MOL0     H 6736  -0.241   4.171   9.175  0.8354  1.4342  1.2189
  809MOL0     H 6737  -0.529   4.100   9.249  2.6052 -1.7497  2.3808
  809MOL0     H 6738  -0.466   4.210   9.116 -0.3535 -1.7248 -2.5385
  809MOL0     H 6739  -0.405   3.927   9.112 -1.4256 -0.8029 -0.3685
  809MOL0     H 6740  -0.380   4.048   8.976 -1.1456  4.0818 -0.1600
  809MOL0     H 6741  -0.650   4.166   8.915  1.3176  0.2053  0.3134
  809MOL0     H 6742  -0.911   4.048   8.724  3.3233  1.0364 -0.1779
  809MOL0     H 6743  -0.922   4.150   8.863  2.4468  0.6848 -0.3601
  809MOL0     H 6744  -1.036   3.974   8.996  1.0871  3.0880 -0.2493
  809MOL0     H 6745  -1.020   3.862   8.859  2.5799  0.3696  0.4062
  809MOL0     H 6746  -1.141   4.149   8.832 -0.6897  0.6074 -0.2437
  809MOL0     H 6747  -1.171   4.005   8.736  0.1057  0.7932 -0.1310
  809MOL0     H 6748  -1.239   4.043   9.036  3.5668 -0.4065 -0.3755
  809MOL0     H 6749  -1.271   3.903   8.954 -1.6775 -0.6781 -2.7806
  809MOL0     H 6750  -1.459   3.839   9.055 -1.8586 -1.1712 -0.6241
  809MOL0     H 6751  -1.681   3.800   9.149 -3.2167  0.0139 -2.2105
  809MOL0     H 6752  -2.116   4.257   9.177 -0.3083  0.9995  1.0132
  809MOL0     H 6753  -2.334   4.281   9.280  1.0324  0.6732 -0.7309
  809MOL0     H 6754  -2.493   3.967   9.578 -1.8501 -2.2848 -0.0100
  809MOL0     H 6755  -2.558   3.922   9.423 -2.7118 -0.6423  2.1339
  809MOL0     H 6756  -2.724   4.124   9.448  1.3746  3.2201 -0.0617
  809MOL0     H 6757  -2.663   4.138   9.615 -3.5377 -1.0805  1.1346
  809MOL0     H 6758  -2.705   3.907   9.660 -0.2791  1.8351  1.6286
  809MOL0     H 6759  -2.783   3.890   9.496 -1.5944 -0.7641  1.6330
  809MOL0     H 6760  -2.891   4.035   9.736 -2.2357  4.8425 -0.7311
  809MOL0     H 6761  -2.918   4.099   9.582  0.8119  0.0497  2.0632
  809MOL0     H 6762  -2.976   3.808   9.655  0.0177  0.7729  0.3852
  809MOL0     H 6763  -2.998   3.875   9.499  0.0559  1.4356 -0.0867
  809MOL0     H 6764  -3.159   4.059   9.610  1.4436  1.3035  1.0602
  809MOL0     H 6765  -3.140   3.967   9.764  2.9675  0.1058  0.2922
  809MOL0     H 6766  -3.242   3.834   9.505 -0.0064 -0.3053  0.2020
  809MOL0     H 6767  -3.251   3.776   9.673  1.5688  1.0393  1.1004
  809MOL0     H 6768  -3.353   4.025   9.544  4.1199 -1.4146  0.6925
  809MOL0     H 6769  -3.403   3.990   9.707  0.9930  0.5467 -0.1632
  809MOL0     H 6770  -2.290   3.913   9.499  2.5255 -1.0646  0.0783
  809MOL0     H 6771  -2.058   3.886   9.388 -0.4769  0.8490 -2.6300
  809MOL0     H 6772  -1.811   4.186   9.059 -0.6071 -2.1822  0.1590
  809MOL0     H 6773  -1.582   4.226   8.938  2.5880 -1.6803 -0.4879
  809MOL0     H 6774   0.269   4.314   9.727 -2.9171  1.2359  0.5891
  809MOL0     H 6775   0.492   4.391   9.644  0.7761  0.8135 -1.4459
  809MOL0     H 6776   0.792   4.566   9.577  3.7621 -3.0918 -0.4546
  809MOL0     H 6777   1.027   4.563   9.474  2.1100 -0.2633 -0.6604
  809MOL0     H 6778   1.192   4.472   9.315 -3.4197 -1.5753 -2.4202
  809MOL0     H 6779   1.199   4.626   9.377  1.1789 -1.4708  0.8905
  809MOL0     H 6780   1.397   4.516   9.245 -0.5640  0.3640  2.5251
  809MOL0     H 6781   1.307   4.545   9.100  1.5660  0.6641 -0.4753
  809MOL0     H 6782   1.402   4.761   9.304  0.3014 -0.2599 -0.0883
  809MOL0     H 6783   1.291   4.800   9.179 -1.5955 -1.4357  1.0081
  809MOL0     H 6784   1.504   4.861   9.105 -0.0095  0.3460  2.6810
  809MOL0     H 6785   1.576   4.697   9.107  0.8362  0.4444 -0.5212
  809MOL0     H 6786   1.325   4.707   8.765  0.0247 -4.1504  1.2354
  809MOL0     H 6787   0.866   4.653   9.090  0.7100 -1.7607 -0.0334
  809MOL0     H 6788   0.640   4.675   9.183 -0.4898  0.8011  0.6156
  810MOL0     O 6789   0.935   8.625   5.984  0.3125 -0.5995 -0.3421
  810MOL0     C 6790   0.919   8.698   6.083 -0.0738  0.1918 -0.6165
  810MOL0     O 6791   0.812   8.779   6.099 -0.1607  0.1857  0.6773
  810MOL0     C 6792   0.715   8.776   6.002  0.3772  0.5996 -0.1144
  810MOL0     C 6793   0.684   8.896   5.934  0.7254 -0.4755  0.5871
  810MOL0     C 6794   0.566   8.905   5.859 -0.1461  0.2910 -0.1224
  810MOL0     C 6795   0.489   8.790   5.832  0.0293 -0.5223  0.0412
  810MOL0     O 6796   0.389   8.790   5.739 -0.4801  0.0083 -0.3250
  810MOL0     C 6797   0.261   8.736   5.780 -0.3776  0.7340  0.0038
  810MOL0     C 6798   0.153   8.779   5.674 -0.1578  0.8799 -0.6020
  810MOL0     C 6799   0.009   8.730   5.709 -0.0795  0.6570 -0.4255
  810MOL0     C 6800  -0.077   8.775   5.583 -0.3271 -0.0673 -0.4202
  810MOL0     C 6801  -0.225   8.775   5.611 -0.2286  0.2075  0.2235
  810MOL0     C 6802  -0.290   8.795   5.471  0.5847  0.0494 -0.4670
  810MOL0     C 6803  -0.437   8.847   5.496  0.1409 -0.2603  0.5928
  810MOL0     C 6804  -0.535   8.734   5.499 -0.0538  0.7559 -0.4911
  810MOL0     N 6805  -0.672   8.783   5.529 -0.0770  0.9568  0.0647
  810MOL0     C 6806  -0.735   8.801   5.644 -0.0979 -0.8114  0.2301
  810MOL0     C 6807  -0.866   8.818   5.620 -0.7944  0.0712  0.0361
  810MOL0     C 6808  -0.985   8.828   5.712 -0.2748  0.5592 -0.8033
  810MOL0     C 6809  -1.070   8.959   5.710 -0.0919  0.2194  0.4642
  810MOL0     C 6810  -0.997   9.088   5.738 -0.8831 -0.3123 -0.0686
  810MOL0     C 6811  -0.925   9.091   5.877 -0.1714  0.7886  0.2235
  810MOL0     O 6812  -1.015   9.053   5.977 -0.0498  0.2621 -1.1665
  810MOL0     C 6813  -0.962   9.006   6.097  0.6937  0.0452 -0.6773
  810MOL0     C 6814  -1.059   8.968   6.199  0.0686 -0.2042  0.5675
  810MOL0     C 6815  -1.018   8.930   6.324  0.2206  0.5646 -0.4108
  810MOL0     C 6816  -0.887   8.898   6.347 -0.1840 -0.8507 -0.3451
  810MOL0     C 6817  -0.835   8.856   6.474  0.0483 -0.3737 -0.1829
  810MOL0     O 6818  -0.927   8.848   6.570 -0.2236 -0.5323  0.1809
  810MOL0     C 6819  -0.901   8.803   6.695 -0.5033  0.2311  0.8334
  810MOL0     C 6820  -0.781   8.829   6.764  0.5684  0.0256  0.1238
  810MOL0     C 6821  -0.764   8.769   6.892  0.3506  0.4278  0.5841
  810MOL0     C 6822  -0.859   8.673   6.945  0.0694 -0.2328 -0.4221
  810MOL0     O 6823  -0.862   8.611   7.067 -0.0770  0.1475  0.1563
  810MOL0     C 6824  -0.738   8.634   7.145  0.6006 -0.5013  0.2093
  810MOL0     C 6825  -0.758   8.552   7.270 -0.2715  0.5961  0.0741
  810MOL0     C 6826  -0.867   8.616   7.368 -0.1198 -0.4584  0.4332
  810MOL0     C 6827  -0.788   8.724   7.445 -0.0974 -0.6216 -0.0062
  810MOL0     C 6828  -0.884   8.786   7.540  0.8346  0.0967 -0.2370
  810MOL0     C 6829  -0.812   8.910   7.595  0.3477 -0.4695 -0.4729
  810MOL0     C 6830  -0.900   8.989   7.704  0.3242  0.1277 -0.0775
  810MOL0     C 6831  -1.032   9.049   7.637  0.7894  0.6190  0.2153
  810MOL0    Cl 6832  -1.149   9.105   7.768  0.3774 -0.3998 -0.1149
  810MOL0     C 6833  -0.978   8.649   6.867  0.7966  0.4822  0.2516
  810MOL0     C 6834  -1.001   8.712   6.745  0.5996 -0.2886  0.7060
  810MOL0     O 6835  -0.722   8.829   6.484 -0.2911  0.4382  0.2245
  810MOL0     C 6836  -0.791   8.932   6.250 -1.1408 -0.5773  0.5663
  810MOL0     C 6837  -0.826   8.990   6.127 -0.1633 -0.6932 -0.0099
  810MOL0     N 6838  -0.880   8.830   5.483 -0.6484 -0.5493  0.7203
  810MOL0     N 6839  -0.759   8.809   5.430  0.2999 -0.5076  0.6183
  810MOL0     C 6840   0.535   8.667   5.885 -0.1590 -0.1723  1.4246
  810MOL0     C 6841   0.646   8.660   5.971 -0.4074  0.1228 -0.3247
  810MOL0     C 6842   1.011   8.699   6.206 -0.1641  0.3710  0.8780
  810MOL0     C 6843   1.103   8.593   6.216 -0.3549  0.2262  0.7816
  810MOL0     C 6844   1.192   8.588   6.315  0.3613  0.7803 -0.4243
  810MOL0     C 6845   1.199   8.696   6.407  0.1580  0.1365  0.0342
  810MOL0     O 6846   1.293   8.692   6.506 -0.1261 -0.1863  0.8936
  810MOL0     C 6847   1.425   8.705   6.458 -0.2993 -0.5404  0.4554
  810MOL0     C 6848   1.525   8.708   6.575  0.3336 -0.1855 -0.8013
  810MOL0     C 6849   1.524   8.573   6.652 -0.8428 -0.6473 -0.4755
  810MOL0     C 6850   1.612   8.567   6.778  0.0240  0.6962  0.2567
  810MOL0     C 6851   1.757   8.561   6.757 -0.3178 -0.7639 -0.0453
  810MOL0     C 6852   1.877   8.575   6.725 -0.0527 -0.2201  0.2693
  810MOL0     C 6853   1.098   8.790   6.410  0.4167 -0.8405  0.3002
  810MOL0     C 6854   1.013   8.803   6.308 -0.0122  0.0510  0.3293
  810MOL0     H 6855   0.737   8.989   5.951  0.2444 -0.4194  1.9507
  810MOL0     H 6856   0.532   9.001   5.822 -2.3134  1.3008  3.9317
  810MOL0     H 6857   0.233   8.772   5.879  0.4317  0.6034  0.2896
  810MOL0     H 6858   0.277   8.627   5.784  0.8963  0.8314 -1.3294
  810MOL0     H 6859   0.182   8.736   5.578 -0.1843  2.3518 -1.2890
  810MOL0     H 6860   0.159   8.888   5.662 -0.1512  0.8339 -1.0338
  810MOL0     H 6861  -0.035   8.768   5.802 -1.7390  0.8811 -1.2475
  810MOL0     H 6862   0.017   8.622   5.723  2.7154  1.0321  1.5442
  810MOL0     H 6863  -0.056   8.876   5.547 -0.7524  0.3849  0.5537
  810MOL0     H 6864  -0.050   8.704   5.505 -0.0579 -0.9772  0.4713
  810MOL0     H 6865  -0.243   8.860   5.676  0.6591 -0.4295  1.3357
  810MOL0     H 6866  -0.273   8.695   5.669 -1.7230  2.8474  2.8564
  810MOL0     H 6867  -0.290   8.699   5.418 -3.0205  0.1261 -0.8513
  810MOL0     H 6868  -0.241   8.868   5.406 -0.0277  0.8083 -0.1007
  810MOL0     H 6869  -0.448   8.906   5.587  1.1405  0.1230  0.4809
  810MOL0     H 6870  -0.459   8.915   5.413 -0.3373 -2.3579 -1.0657
  810MOL0     H 6871  -0.513   8.673   5.588 -0.6456  0.9607 -0.1982
  810MOL0     H 6872  -0.541   8.683   5.402 -1.4149 -0.4239  0.1678
  810MOL0     H 6873  -0.700   8.774   5.744 -0.3508 -3.2663 -0.2723
  810MOL0     H 6874  -0.957   8.804   5.815 -1.1351 -0.0075 -0.6931
  810MOL0     H 6875  -1.061   8.754   5.687 -0.8218  0.5405  0.8334
  810MOL0     H 6876  -1.157   8.939   5.774  0.2378 -0.7346  0.6322
  810MOL0     H 6877  -1.107   8.973   5.608  1.1338 -3.5780 -0.6893
  810MOL0     H 6878  -0.931   9.115   5.655 -2.1130  2.4506 -0.2694
  810MOL0     H 6879  -1.074   9.166   5.740  0.6063  1.2532  2.5849
  810MOL0     H 6880  -0.889   9.192   5.898  2.5666  0.2004 -1.2009
  810MOL0     H 6881  -0.844   9.018   5.869  0.1359  1.2446 -1.0849
  810MOL0     H 6882  -1.164   8.982   6.174  0.8250  0.5396 -2.7417
  810MOL0     H 6883  -1.096   8.910   6.398  0.5124  2.1857  0.3889
  810MOL0     H 6884  -0.711   8.905   6.730 -0.3200 -0.1621 -2.2698
  810MOL0     H 6885  -0.682   8.803   6.955  0.5501  0.7177  0.1657
  810MOL0     H 6886  -0.735   8.740   7.174  0.8243 -1.2680  3.2885
  810MOL0     H 6887  -0.649   8.587   7.101  0.5158 -0.4264 -0.0385
  810MOL0     H 6888  -0.658   8.552   7.316 -0.0052 -1.7287 -0.3749
  810MOL0     H 6889  -0.791   8.450   7.247 -2.1955  0.5711  2.6278
  810MOL0     H 6890  -0.899   8.553   7.452  1.9321  0.4799  2.0138
  810MOL0     H 6891  -0.957   8.654   7.318  0.3056  1.1878  0.8454
  810MOL0     H 6892  -0.702   8.678   7.495  1.4449 -1.4474 -3.1392
  810MOL0     H 6893  -0.751   8.810   7.388 -0.3138  0.2825  1.1848
  810MOL0     H 6894  -0.922   8.714   7.613  0.5487  0.8584  0.3653
  810MOL0     H 6895  -0.968   8.819   7.477  0.8134 -1.5536 -1.1417
  810MOL0     H 6896  -0.786   8.978   7.513  1.1545 -2.0281 -1.5529
  810MOL0     H 6897  -0.722   8.876   7.648 -0.8233 -2.5642  0.2840
  810MOL0     H 6898  -0.918   8.915   7.783 -0.9665 -1.7613 -2.0478
  810MOL0     H 6899  -0.839   9.070   7.746  0.5484 -0.2498  0.3427
  810MOL0     H 6900  -1.080   8.976   7.572  0.9248 -1.0893  1.9384
  810MOL0     H 6901  -1.002   9.134   7.574  0.3742  0.9687  0.4772
  810MOL0     H 6902  -1.056   8.579   6.894 -2.2536  2.9139 -1.6147
  810MOL0     H 6903  -1.088   8.692   6.684 -1.0114  3.0773  1.6699
  810MOL0     H 6904  -0.683   8.930   6.263 -0.7353  1.8387 -1.5084
  810MOL0     H 6905  -0.744   9.026   6.065  0.9235 -1.3465  0.9996
  810MOL0     H 6906   0.490   8.576   5.845 -0.4389  1.1779 -1.6108
  810MOL0     H 6907   0.681   8.576   6.031  1.8514  0.6785 -0.7634
  810MOL0     H 6908   1.097   8.506   6.151  1.9810 -1.0352  2.0815
  810MOL0     H 6909   1.267   8.510   6.321 -2.4605 -2.2005 -1.4002
  810MOL0     H 6910   1.443   8.801   6.409  1.4968 -0.6335  0.8490
  810MOL0     H 6911   1.436   8.616   6.395  0.4632 -0.1768  0.0626
  810MOL0     H 6912   1.624   8.736   6.539 -0.0265  3.1279  0.4313
  810MOL0     H 6913   1.495   8.792   6.639 -1.5362 -0.7360 -0.8968
  810MOL0     H 6914   1.559   8.494   6.585  3.2771  1.1798 -0.7449
  810MOL0     H 6915   1.422   8.565   6.690 -0.0645  2.3801  2.8549
  810MOL0     H 6916   1.586   8.651   6.843  0.4306 -0.3316  1.8269
  810MOL0     H 6917   1.592   8.472   6.830  0.8543 -0.1522 -0.9250
  810MOL0     H 6918   1.976   8.604   6.698 -0.3155  1.0497  0.6271
  810MOL0     H 6919   1.083   8.854   6.497 -1.2003  1.7872 -1.7345
  810MOL0     H 6920   0.935   8.879   6.305  1.8877  2.1135  0.5780
  811MOL0     O 6921   8.075   2.549   3.503 -0.2827 -0.1079 -0.4668
  811MOL0     C 6922   8.064   2.447   3.574  0.1407  0.0591  0.9280
  811MOL0     O 6923   7.942   2.382   3.585 -0.2336 -0.3362 -0.7708
  811MOL0     C 6924   7.823   2.432   3.552 -0.4403 -0.7285 -0.9016
  811MOL0     C 6925   7.780   2.561   3.578 -1.0790 -0.8708 -0.2409
  811MOL0     C 6926   7.644   2.594   3.552  0.3497  0.1406 -0.2171
  811MOL0     C 6927   7.551   2.505   3.511  0.0446  0.3185  0.0615
  811MOL0     O 6928   7.418   2.535   3.490 -0.1190  0.9190 -0.7283
  811MOL0     C 6929   7.379   2.673   3.507  0.5099  0.2837 -0.4466
  811MOL0     C 6930   7.233   2.686   3.462 -0.1650  0.5523 -0.1512
  811MOL0     C 6931   7.132   2.654   3.570 -0.2568  0.0679  0.4684
  811MOL0     C 6932   6.984   2.666   3.519 -0.1581 -1.2053 -0.9798
  811MOL0     C 6933   6.882   2.598   3.620 -0.8822  0.2048 -0.1024
  811MOL0     C 6934   6.739   2.628   3.579  0.6861  0.1465 -0.4579
  811MOL0     C 6935   6.634   2.569   3.682  0.1067 -0.2164 -0.9827
  811MOL0     C 6936   6.494   2.599   3.615 -0.2361  0.3387 -0.4056
  811MOL0     N 6937   6.384   2.533   3.693 -0.0800  0.3457 -0.1541
  811MOL0     C 6938   6.297   2.448   3.627 -0.0285  0.0201  0.0156
  811MOL0     C 6939   6.217   2.400   3.728 -0.2997 -0.6840 -0.3474
  811MOL0     C 6940   6.107   2.285   3.722 -0.1797  0.7304  0.0992
  811MOL0     C 6941   6.097   2.217   3.582  0.1858  0.3023  0.5102
  811MOL0     C 6942   5.997   2.088   3.567 -0.6604 -0.1168 -0.3822
  811MOL0     C 6943   5.858   2.109   3.639 -0.5814  0.2205  1.0118
  811MOL0     O 6944   5.800   2.232   3.591 -0.1102 -0.0577  0.3063
  811MOL0     C 6945   5.672   2.249   3.626  1.1213  0.4794 -0.0772
  811MOL0     C 6946   5.590   2.164   3.702  0.1564 -0.8029 -0.1613
  811MOL0     C 6947   5.459   2.196   3.740 -1.1285  0.2910 -0.4343
  811MOL0     C 6948   5.404   2.320   3.703  0.4263  0.0578  0.0547
  811MOL0     C 6949   5.255   2.349   3.725  0.0134  0.0865 -0.2894
  811MOL0     O 6950   5.179   2.261   3.801  0.1635 -0.7868  0.1392
  811MOL0     C 6951   5.049   2.295   3.823  0.0185  0.1970  0.1759
  811MOL0     C 6952   4.946   2.204   3.780  0.4912 -0.3626 -0.0528
  811MOL0     C 6953   4.809   2.236   3.800 -0.1657 -0.1931  0.8950
  811MOL0     C 6954   4.767   2.359   3.860 -0.7599  0.4591  0.5115
  811MOL0     O 6955   4.638   2.393   3.866  0.0581  0.4402 -0.3500
  811MOL0     C 6956   4.585   2.347   3.991 -0.2606  0.5488  0.1946
  811MOL0     C 6957   4.447   2.405   4.026 -0.7290 -0.2071 -0.0659
  811MOL0     C 6958   4.402   2.372   4.168  1.0079  0.1144  0.7821
  811MOL0     C 6959   4.265   2.441   4.194  0.3746 -0.1886  0.9091
  811MOL0     C 6960   4.223   2.433   4.348 -0.0896  0.0635  0.2118
  811MOL0     C 6961   4.110   2.527   4.383  0.5310 -0.3863 -0.2748
  811MOL0     C 6962   4.077   2.517   4.531  0.1908  0.6519  0.4524
  811MOL0     C 6963   3.940   2.560   4.570  1.4926  0.4750 -0.4437
  811MOL0    Cl 6964   3.910   2.734   4.548 -0.4135  0.6180  0.5418
  811MOL0     C 6965   4.876   2.442   3.907 -0.1209  0.5646 -0.1825
  811MOL0     C 6966   5.018   2.401   3.900  0.2068 -0.0579 -1.1048
  811MOL0     O 6967   5.214   2.448   3.668  0.3912 -0.0264  0.0986
  811MOL0     C 6968   5.483   2.405   3.627 -0.9050 -0.6294 -0.0489
  811MOL0     C 6969   5.617   2.371   3.593  0.6892  0.0773  0.0545
  811MOL0     N 6970   6.269   2.447   3.841  0.3728 -0.4915 -0.3599
  811MOL0     N 6971   6.361   2.531   3.827 -0.7274 -0.0393  1.0830
  811MOL0     C 6972   7.590   2.372   3.489 -0.3535 -0.7250  0.1513
  811MOL0     C 6973   7.724   2.340   3.510 -0.7482 -0.4357 -0.0885
  811MOL0     C 6974   8.178   2.390   3.638 -0.5940 -0.1854  0.0559
  811MOL0     C 6975   8.173   2.263   3.707  0.1451  0.0925  0.4300
  811MOL0     C 6976   8.283   2.200   3.761 -0.5936 -0.1840 -0.0023
  811MOL0     C 6977   8.406   2.271   3.761 -0.9295 -0.0249 -0.4296
  811MOL0     O 6978   8.520   2.217   3.808 -0.2936  0.0844 -0.4514
  811MOL0     C 6979   8.516   2.110   3.900 -0.0332  0.8460 -0.2112
  811MOL0     C 6980   8.669   2.054   3.919 -0.1200 -0.1303 -0.4904
  811MOL0     C 6981   8.784   2.163   3.901 -0.9702  0.8297 -0.5685
  811MOL0     C 6982   8.904   2.111   3.991  0.3459  1.1349 -0.1599
  811MOL0     C 6983   9.025   2.190   3.956 -0.3689 -0.1841  0.0779
  811MOL0     C 6984   9.129   2.241   3.926 -0.2992 -0.5308 -0.4924
  811MOL0     C 6985   8.406   2.404   3.711  0.1123  0.4156 -0.9056
  811MOL0     C 6986   8.302   2.457   3.639  0.4924  0.8589  0.6427
  811MOL0     H 6987   7.848   2.635   3.619 -1.4831  0.2467 -1.5130
  811MOL0     H 6988   7.618   2.698   3.567  3.4286  1.2299 -1.6534
  811MOL0     H 6989   7.446   2.736   3.447  3.2746 -3.0434 -1.2184
  811MOL0     H 6990   7.394   2.689   3.614  0.8768 -2.6393  0.0273
  811MOL0     H 6991   7.216   2.642   3.364  1.7525 -0.5503 -0.0437
  811MOL0     H 6992   7.213   2.791   3.443 -2.0673  0.0426 -1.1450
  811MOL0     H 6993   7.144   2.723   3.654 -0.6407  1.4688 -0.6068
  811MOL0     H 6994   7.151   2.555   3.613  3.3241 -0.2579 -1.5050
  811MOL0     H 6995   6.958   2.772   3.518 -1.7597 -1.4867 -4.2342
  811MOL0     H 6996   6.981   2.623   3.418  1.6419  1.7925 -2.4255
  811MOL0     H 6997   6.914   2.607   3.724  0.4513 -2.3837 -0.1936
  811MOL0     H 6998   6.912   2.494   3.603  5.8509  1.7917 -0.7560
  811MOL0     H 6999   6.714   2.580   3.484  3.0458 -0.9113 -0.6097
  811MOL0     H 7000   6.723   2.736   3.571 -0.4359 -0.0664 -1.5137
  811MOL0     H 7001   6.635   2.463   3.707 -2.4540  0.6000  3.7063
  811MOL0     H 7002   6.650   2.613   3.781  1.9618  0.9824 -1.7614
  811MOL0     H 7003   6.499   2.563   3.512  1.2567 -1.3825  0.2234
  811MOL0     H 7004   6.474   2.707   3.619  1.3270  0.6198  2.6315
  811MOL0     H 7005   6.307   2.438   3.519  0.6899  0.0060  0.0796
  811MOL0     H 7006   6.006   2.317   3.747 -0.7797 -1.1423  0.2018
  811MOL0     H 7007   6.133   2.201   3.788  0.3936 -0.0342 -1.0592
  811MOL0     H 7008   6.188   2.176   3.537  0.7687  0.8681  1.1521
  811MOL0     H 7009   6.072   2.297   3.513  1.5620  0.5280  0.2395
  811MOL0     H 7010   5.975   2.073   3.461 -1.6707  0.8465 -0.3278
  811MOL0     H 7011   6.040   1.996   3.607  1.8621  1.3065  0.3824
  811MOL0     H 7012   5.874   2.117   3.746 -2.0544  0.3983  1.2391
  811MOL0     H 7013   5.796   2.021   3.619  1.5885 -1.3141  0.6644
  811MOL0     H 7014   5.635   2.077   3.747  2.4907  0.6550  0.4909
  811MOL0     H 7015   5.399   2.131   3.803 -0.2326 -0.3086 -0.1915
  811MOL0     H 7016   4.970   2.115   3.722 -3.4273 -1.0449 -0.9324
  811MOL0     H 7017   4.734   2.167   3.762  0.3212  0.6636 -1.8387
  811MOL0     H 7018   4.652   2.374   4.073 -0.2874  1.8752 -0.1952
  811MOL0     H 7019   4.568   2.239   3.996 -3.0634  0.8950  0.1216
  811MOL0     H 7020   4.370   2.371   3.957 -1.2433 -1.9808  1.3096
  811MOL0     H 7021   4.446   2.514   4.019 -2.8146 -0.2536 -1.0417
  811MOL0     H 7022   4.467   2.420   4.241  0.0221  0.3966  1.5020
  811MOL0     H 7023   4.401   2.264   4.180 -0.0124  0.0700  0.3929
  811MOL0     H 7024   4.273   2.544   4.160  2.6551 -0.6315 -0.1022
  811MOL0     H 7025   4.185   2.391   4.139 -0.5943  0.0335  2.0686
  811MOL0     H 7026   4.313   2.466   4.401 -0.4817  2.8717 -0.6749
  811MOL0     H 7027   4.194   2.332   4.377  1.0202  0.0981  1.5342
  811MOL0     H 7028   4.017   2.513   4.326  1.1688  2.2505 -2.1185
  811MOL0     H 7029   4.123   2.633   4.358  0.3501 -0.2268  0.3023
  811MOL0     H 7030   4.100   2.417   4.567  1.5876  0.0027 -2.0460
  811MOL0     H 7031   4.143   2.591   4.577 -3.1132  2.2277  3.1017
  811MOL0     H 7032   3.932   2.543   4.678  0.2278 -1.3041 -0.7677
  811MOL0     H 7033   3.872   2.496   4.513  2.9763 -2.3578  0.7724
  811MOL0     H 7034   4.850   2.536   3.954 -0.3353  1.1797 -1.4720
  811MOL0     H 7035   5.101   2.461   3.936  0.3491 -1.5264  1.2086
  811MOL0     H 7036   5.444   2.499   3.590 -1.5590  0.2237  2.5708
  811MOL0     H 7037   5.668   2.425   3.514  4.4540 -2.2472  0.6385
  811MOL0     H 7038   7.515   2.297   3.465  0.5129 -1.8788  0.9832
  811MOL0     H 7039   7.762   2.239   3.514 -1.2910 -0.8661 -3.5063
  811MOL0     H 7040   8.072   2.222   3.703 -0.4205  1.5103 -0.3858
  811MOL0     H 7041   8.266   2.103   3.806 -1.2040 -0.0313  0.0989
  811MOL0     H 7042   8.457   2.029   3.857 -0.0263  0.4062  0.5955
  811MOL0     H 7043   8.469   2.136   3.995  0.2697 -0.4575  0.3213
  811MOL0     H 7044   8.669   1.997   4.013 -1.3249  2.4901  1.2201
  811MOL0     H 7045   8.693   1.971   3.851 -0.0366  1.0068 -1.8833
  811MOL0     H 7046   8.743   2.257   3.940 -2.7604  0.6671 -1.9641
  811MOL0     H 7047   8.807   2.179   3.795 -0.7686 -0.5384 -0.7407
  811MOL0     H 7048   8.888   2.123   4.098 -1.4387  1.2314 -0.4068
  811MOL0     H 7049   8.915   2.004   3.967  2.0574  1.2700 -0.1105
  811MOL0     H 7050   9.215   2.298   3.895 -1.8923  0.8833 -2.6544
  811MOL0     H 7051   8.498   2.461   3.703  0.4024  0.0084 -0.4884
  811MOL0     H 7052   8.316   2.552   3.588 -0.4135  0.7156  0.1007
  812MOL0     O 7053  11.112   9.335   3.367  0.1603  0.0424 -1.1228
  812MOL0     C 7054  11.087   9.405   3.461  1.1276  0.1777  0.4197
  812MOL0     O 7055  11.175   9.469   3.544  0.6582 -0.3514  0.0754
  812MOL0     C 7056  11.308   9.461   3.513  1.2423 -0.1530 -1.1674
  812MOL0     C 7057  11.362   9.507   3.394  0.2966 -0.1857  0.4158
  812MOL0     C 7058  11.498   9.492   3.368 -0.5257 -0.2794 -0.7399
  812MOL0     C 7059  11.585   9.436   3.457  0.0163 -0.4852  0.5563
  812MOL0     O 7060  11.713   9.420   3.416  0.4412 -0.0256 -0.3299
  812MOL0     C 7061  11.797   9.340   3.498 -0.5845 -0.1103 -0.4960
  812MOL0     C 7062  11.915   9.308   3.405 -0.1103  0.3391 -0.0498
  812MOL0     C 7063  12.042   9.271   3.485 -0.0828  0.0418  0.4711
  812MOL0     C 7064  12.141   9.210   3.386  0.3900  0.3656 -0.3732
  812MOL0     C 7065  12.283   9.186   3.433 -0.0479  0.3383 -0.6292
  812MOL0     C 7066  12.287   9.103   3.569  1.1584  0.5069  1.0838
  812MOL0     C 7067  12.402   9.008   3.556 -1.1949 -0.5541  0.0491
  812MOL0     C 7068  12.400   8.906   3.671 -0.1487 -0.2644 -0.1169
  812MOL0     N 7069  12.504   8.810   3.644  0.2603 -0.1288 -0.3267
  812MOL0     C 7070  12.482   8.683   3.598 -0.1889 -0.5211 -0.2689
  812MOL0     C 7071  12.598   8.618   3.623  0.3541 -0.2963  0.1743
  812MOL0     C 7072  12.625   8.474   3.607 -0.0605  0.6428 -0.0730
  812MOL0     C 7073  12.504   8.371   3.631 -0.1295  0.3057  0.5705
  812MOL0     C 7074  12.545   8.217   3.598 -0.1106 -0.3727 -0.2848
  812MOL0     C 7075  12.426   8.126   3.621  0.2215  0.3232 -0.1291
  812MOL0     O 7076  12.321   8.161   3.519 -0.1284  0.4222 -0.1059
  812MOL0     C 7077  12.191   8.106   3.533 -0.3602 -0.0924 -0.2362
  812MOL0     C 7078  12.087   8.170   3.461  0.2603  0.0307 -0.4639
  812MOL0     C 7079  11.960   8.112   3.464  0.1355 -0.4664 -0.0182
  812MOL0     C 7080  11.929   7.989   3.537 -0.5195  0.0982 -0.5825
  812MOL0     C 7081  11.801   7.933   3.539 -1.1667  0.1000  0.7262
  812MOL0     O 7082  11.695   8.010   3.486 -0.3053 -0.2608  0.7231
  812MOL0     C 7083  11.569   7.960   3.496  0.9842 -0.4543 -0.5068
  812MOL0     C 7084  11.493   7.937   3.620  0.0199 -0.3875  0.6914
  812MOL0     C 7085  11.354   7.899   3.617 -0.1523 -0.1633 -0.3473
  812MOL0     C 7086  11.290   7.879   3.494  0.6206 -0.6500 -0.2825
  812MOL0     O 7087  11.151   7.855   3.486  0.0547 -0.0206  0.5534
  812MOL0     C 7088  11.069   7.950   3.406  0.3407  0.0058  1.3067
  812MOL0     C 7089  10.918   7.928   3.431  0.6986 -0.0225  0.1190
  812MOL0     C 7090  10.838   8.021   3.338 -0.6415 -1.0802  0.2466
  812MOL0     C 7091  10.686   7.979   3.341  0.6068  0.0161  0.9417
  812MOL0     C 7092  10.580   8.073   3.287  0.4243  0.1526  0.1431
  812MOL0     C 7093  10.448   7.998   3.287 -0.2924 -0.5146  0.3467
  812MOL0     C 7094  10.329   8.083   3.249 -0.4560 -0.7162 -0.5257
  812MOL0     C 7095  10.219   7.976   3.218 -0.2941  0.0725  0.3206
  812MOL0    Cl 7096  10.181   7.886   3.368 -0.0553 -0.2705 -0.2013
  812MOL0     C 7097  11.367   7.898   3.381  0.0343  0.4645 -0.4285
  812MOL0     C 7098  11.497   7.935   3.382  0.2649  0.0475  0.2790
  812MOL0     O 7099  11.783   7.818   3.578 -1.0524  0.5678 -0.1442
  812MOL0     C 7100  12.037   7.929   3.608 -0.4512 -0.4472 -0.5676
  812MOL0     C 7101  12.167   7.989   3.608  0.4882 -0.5698  0.1054
  812MOL0     N 7102  12.695   8.703   3.672 -0.1914  0.1426  0.2128
  812MOL0     N 7103  12.637   8.821   3.682  0.7562 -0.1477 -0.1824
  812MOL0     C 7104  11.527   9.389   3.578 -0.1129 -0.1993  0.6136
  812MOL0     C 7105  11.390   9.395   3.600  0.0194  0.0356  0.0618
  812MOL0     C 7106  10.937   9.406   3.484 -0.8777  0.1287 -0.4490
  812MOL0     C 7107  10.848   9.357   3.390 -0.2769 -0.2299 -0.2857
  812MOL0     C 7108  10.713   9.352   3.422 -0.7244 -0.1715 -0.4697
  812MOL0     C 7109  10.660   9.384   3.547  0.1784  0.5512 -0.0865
  812MOL0     O 7110  10.531   9.373   3.585 -0.4399 -0.4758 -0.7329
  812MOL0     C 7111  10.432   9.349   3.491  0.3187 -0.7775 -0.0287
  812MOL0     C 7112  10.299   9.343   3.567 -0.2966  0.1009 -0.6095
  812MOL0     C 7113  10.246   9.486   3.610 -0.0823 -0.1198  0.2506
  812MOL0     C 7114  10.280   9.505   3.758  0.1701  0.4042 -0.3503
  812MOL0     C 7115  10.169   9.489   3.855  0.4790 -0.7950 -0.2737
  812MOL0     C 7116  10.079   9.473   3.936  0.2677 -0.2337  0.2829
  812MOL0     C 7117  10.743   9.432   3.641  1.3026 -0.5295 -0.0122
  812MOL0     C 7118  10.875   9.440   3.610 -0.2490 -0.0990  0.3915
  812MOL0     H 7119  11.310   9.560   3.315  0.7545 -0.0499  0.2019
  812MOL0     H 7120  11.547   9.541   3.284 -0.3082 -1.9984 -1.6570
  812MOL0     H 7121  11.745   9.246   3.519  0.5691 -0.4907  0.7767
  812MOL0     H 7122  11.825   9.385   3.593 -0.1308  0.3499 -0.8444
  812MOL0     H 7123  11.939   9.391   3.337  0.7560  0.2223  0.1009
  812MOL0     H 7124  11.881   9.226   3.340 -2.5829  1.8575 -0.8229
  812MOL0     H 7125  12.031   9.196   3.564 -0.9912  0.2423  0.5504
  812MOL0     H 7126  12.095   9.357   3.528  2.4018 -1.0567 -0.2338
  812MOL0     H 7127  12.100   9.118   3.344 -1.6309  0.0403  2.1006
  812MOL0     H 7128  12.163   9.278   3.303  2.5946 -1.3616 -1.2848
  812MOL0     H 7129  12.349   9.272   3.442  0.7785 -0.5047  4.1521
  812MOL0     H 7130  12.339   9.121   3.364 -0.4626 -3.0161  1.9338
  812MOL0     H 7131  12.196   9.043   3.579 -0.2297  2.5076  1.0919
  812MOL0     H 7132  12.288   9.169   3.657 -0.7804  1.3904  0.5016
  812MOL0     H 7133  12.405   8.949   3.464 -0.2371 -0.2330 -0.1371
  812MOL0     H 7134  12.501   9.053   3.570 -0.8056 -0.6441 -2.1242
  812MOL0     H 7135  12.305   8.853   3.670  0.1220 -0.8469  2.0205
  812MOL0     H 7136  12.416   8.952   3.769 -0.0663 -0.2634 -0.1303
  812MOL0     H 7137  12.394   8.636   3.556 -0.8299 -0.1001  0.5904
  812MOL0     H 7138  12.700   8.446   3.682  3.0739  1.2029 -2.7794
  812MOL0     H 7139  12.672   8.455   3.510  0.0977  1.3920 -0.1487
  812MOL0     H 7140  12.425   8.403   3.562 -0.5743 -0.4418  0.7206
  812MOL0     H 7141  12.480   8.391   3.736  3.0335 -0.5954  1.5859
  812MOL0     H 7142  12.585   8.215   3.497 -1.5146  1.3378 -0.9511
  812MOL0     H 7143  12.631   8.196   3.661  0.1060  3.0730  0.8192
  812MOL0     H 7144  12.393   8.132   3.724  0.0913 -1.4431 -0.0357
  812MOL0     H 7145  12.448   8.019   3.610 -0.3792  0.2326 -0.4593
  812MOL0     H 7146  12.091   8.258   3.398  2.0938 -0.4531 -1.0982
  812MOL0     H 7147  11.876   8.169   3.426  1.0626  0.2323 -1.0710
  812MOL0     H 7148  11.547   7.955   3.713  2.9939  0.9746 -1.1191
  812MOL0     H 7149  11.304   7.871   3.709  0.4005 -1.3541 -0.3915
  812MOL0     H 7150  11.089   7.941   3.299  0.7753 -3.5866  1.5760
  812MOL0     H 7151  11.092   8.052   3.438  2.2019 -0.4224  1.4478
  812MOL0     H 7152  10.885   7.939   3.534 -0.8323  1.8054 -0.5100
  812MOL0     H 7153  10.895   7.826   3.398  0.6049 -0.4566  1.4560
  812MOL0     H 7154  10.878   8.017   3.236  1.3308  1.2850  0.8447
  812MOL0     H 7155  10.850   8.127   3.358  2.6641 -1.7699  2.7905
  812MOL0     H 7156  10.682   7.885   3.285 -0.3507  0.5217  0.1250
  812MOL0     H 7157  10.659   7.957   3.445  2.9996  0.3332  1.6838
  812MOL0     H 7158  10.606   8.102   3.185 -2.5184 -0.9684 -1.0396
  812MOL0     H 7159  10.584   8.163   3.348  0.2028  1.0764 -1.1752
  812MOL0     H 7160  10.425   7.948   3.381 -1.1018 -1.7832 -0.4936
  812MOL0     H 7161  10.465   7.910   3.224  3.1629 -0.8634  1.5785
  812MOL0     H 7162  10.294   8.141   3.336  0.4295  2.4328 -2.1112
  812MOL0     H 7163  10.342   8.157   3.170 -0.0722  4.0152  3.4732
  812MOL0     H 7164  10.259   7.917   3.134 -1.4476  1.4087 -1.2428
  812MOL0     H 7165  10.134   8.028   3.173 -0.6964  0.0211  1.0272
  812MOL0     H 7166  11.311   7.876   3.291 -0.0277 -0.6032 -0.1486
  812MOL0     H 7167  11.554   7.920   3.290  0.9113  0.8001  0.5374
  812MOL0     H 7168  12.004   7.847   3.670  0.7899 -1.0066 -0.6287
  812MOL0     H 7169  12.240   7.956   3.682  1.1126  0.2780 -0.1198
  812MOL0     H 7170  11.583   9.330   3.650 -0.6729 -1.2823  0.1878
  812MOL0     H 7171  11.344   9.351   3.687 -1.0672  0.6582 -0.1829
  812MOL0     H 7172  10.885   9.334   3.290  0.6636  0.7165 -0.1814
  812MOL0     H 7173  10.641   9.321   3.347 -0.3163 -2.5229  0.0406
  812MOL0     H 7174  10.455   9.247   3.458  4.3482  0.0882 -0.3974
  812MOL0     H 7175  10.423   9.425   3.412 -0.7335 -0.0732  0.7460
  812MOL0     H 7176  10.224   9.297   3.502  1.4423  1.2550 -3.6338
  812MOL0     H 7177  10.302   9.277   3.654  0.8183  2.0523  0.9138
  812MOL0     H 7178  10.139   9.492   3.590  0.5443 -0.0400 -3.9532
  812MOL0     H 7179  10.292   9.573   3.563  1.0687 -0.5015  0.6294
  812MOL0     H 7180  10.360   9.440   3.796  0.8675  1.6428  0.3525
  812MOL0     H 7181  10.321   9.606   3.760 -0.6389  0.7311  0.4527
  812MOL0     H 7182   9.994   9.466   4.001 -1.6252 -1.1534 -2.1589
  812MOL0     H 7183  10.703   9.479   3.730 -0.8479  0.1547 -1.2805
  812MOL0     H 7184  10.941   9.486   3.683 -1.2537  2.5704 -0.2576
  813MOL0     O 7185   2.038   6.571   0.839 -0.2372  0.0371 -0.0321
  813MOL0     C 7186   2.085   6.528   0.730 -0.5874 -0.3010  0.1197
  813MOL0     O 7187   2.024   6.454   0.637 -0.0073  0.1420 -0.1174
  813MOL0     C 7188   1.907   6.385   0.667  0.3947  0.0620 -0.1314
  813MOL0     C 7189   1.800   6.412   0.585 -0.2547  0.0027  0.2400
  813MOL0     C 7190   1.675   6.351   0.600 -0.3541 -0.5726 -0.1658
  813MOL0     C 7191   1.662   6.250   0.701  0.2660 -0.5380  0.0500
  813MOL0     O 7192   1.546   6.183   0.727 -0.4019 -0.6257 -0.1914
  813MOL0     C 7193   1.508   6.098   0.614  1.4136 -0.0317  0.1675
  813MOL0     C 7194   1.567   5.965   0.658 -0.2247 -0.1806  0.3691
  813MOL0     C 7195   1.506   5.854   0.581  0.1964  0.2190  0.4180
  813MOL0     C 7196   1.523   5.717   0.636 -0.8370  0.2725  0.3289
  813MOL0     C 7197   1.420   5.692   0.743 -0.1730 -0.7524  0.0106
  813MOL0     C 7198   1.437   5.556   0.800 -0.3275  0.3286 -0.3547
  813MOL0     C 7199   1.298   5.520   0.873  0.1863 -0.5695 -0.0326
  813MOL0     C 7200   1.323   5.420   0.982 -0.8124 -0.4312  0.1061
  813MOL0     N 7201   1.188   5.359   1.022 -0.5956 -0.2219 -0.3648
  813MOL0     C 7202   1.134   5.246   0.987  0.4446 -0.3722  0.2583
  813MOL0     C 7203   1.015   5.236   1.052 -0.0702 -0.4611  0.1347
  813MOL0     C 7204   0.910   5.129   1.026  0.2431  0.2292 -0.3211
  813MOL0     C 7205   0.774   5.158   1.096  0.5716  0.0815  0.2680
  813MOL0     C 7206   0.657   5.078   1.039  0.7013  0.0517 -0.3800
  813MOL0     C 7207   0.632   5.131   0.895 -0.6218  0.6529 -0.4627
  813MOL0     O 7208   0.620   5.275   0.887 -0.4763 -0.8778  0.8289
  813MOL0     C 7209   0.492   5.326   0.902 -0.3384 -0.0357  0.5360
  813MOL0     C 7210   0.382   5.251   0.950 -0.3924  0.2902  0.2488
  813MOL0     C 7211   0.250   5.295   0.936  0.1770 -0.2613  0.8757
  813MOL0     C 7212   0.220   5.414   0.876 -0.6262  0.0162  0.1281
  813MOL0     C 7213   0.081   5.468   0.847 -1.1588 -0.0634 -0.8884
  813MOL0     O 7214  -0.019   5.388   0.892  0.7913 -0.0569  0.2022
  813MOL0     C 7215  -0.149   5.415   0.860  0.5544 -0.2706 -1.0206
  813MOL0     C 7216  -0.206   5.372   0.741 -0.0453  0.0047  0.2313
  813MOL0     C 7217  -0.350   5.390   0.717  0.5375 -1.1036 -0.0841
  813MOL0     C 7218  -0.430   5.472   0.801  0.3549  0.3425 -0.3501
  813MOL0     O 7219  -0.554   5.509   0.771  0.0592  0.2011 -0.8454
  813MOL0     C 7220  -0.639   5.415   0.699  0.2519 -0.4921  0.2660
  813MOL0     C 7221  -0.768   5.481   0.668  1.0243 -0.0090 -0.3290
  813MOL0     C 7222  -0.849   5.516   0.790 -0.6277  0.7123  0.2110
  813MOL0     C 7223  -0.979   5.585   0.737  0.1151  1.0943  0.3648
  813MOL0     C 7224  -1.098   5.503   0.758  0.5351 -0.2588  0.0744
  813MOL0     C 7225  -1.204   5.548   0.664  0.2964 -0.3676  0.2440
  813MOL0     C 7226  -1.262   5.678   0.716 -0.6074  0.0786  0.4941
  813MOL0     C 7227  -1.396   5.709   0.662  0.4126  0.0109  0.0641
  813MOL0    Cl 7228  -1.379   5.796   0.512  0.0966  0.0761 -0.1562
  813MOL0     C 7229  -0.370   5.515   0.923  0.0579  0.0039  1.3665
  813MOL0     C 7230  -0.232   5.495   0.946 -0.6939  0.8507  0.1862
  813MOL0     O 7231   0.066   5.577   0.786 -0.4391 -0.5342  0.3325
  813MOL0     C 7232   0.336   5.492   0.839 -0.0757  0.2810 -0.4646
  813MOL0     C 7233   0.470   5.449   0.857  0.4138 -0.2515 -0.2427
  813MOL0     N 7234   0.998   5.355   1.117  0.2707 -0.1494 -0.6108
  813MOL0     N 7235   1.103   5.427   1.097  0.4042  0.2195 -1.1052
  813MOL0     C 7236   1.770   6.228   0.784 -0.2688  0.3570 -0.3777
  813MOL0     C 7237   1.890   6.298   0.770 -0.7356  0.0089  0.0629
  813MOL0     C 7238   2.226   6.557   0.734 -0.8796 -0.6824 -0.4750
  813MOL0     C 7239   2.313   6.496   0.638  0.5424  0.3145 -0.8329
  813MOL0     C 7240   2.454   6.527   0.640 -0.2553 -0.1402  0.2604
  813MOL0     C 7241   2.504   6.629   0.731 -0.3260  0.8617  0.3870
  813MOL0     O 7242   2.644   6.650   0.716  0.1683 -0.0073 -0.3012
  813MOL0     C 7243   2.714   6.747   0.796 -0.0973 -0.5387  0.3283
  813MOL0     C 7244   2.862   6.728   0.764  0.2384 -0.2693  0.5318
  813MOL0     C 7245   2.900   6.823   0.647 -0.0067 -0.0586  0.0641
  813MOL0     C 7246   2.812   6.811   0.521 -0.2867 -0.4428  0.6509
  813MOL0     C 7247   2.824   6.679   0.449 -0.0908  0.2609 -0.7599
  813MOL0     C 7248   2.827   6.580   0.373  0.2890  0.4645 -0.1344
  813MOL0     C 7249   2.417   6.684   0.823 -1.0932 -1.0251  0.9129
  813MOL0     C 7250   2.280   6.658   0.821  0.0635 -0.0130 -0.3980
  813MOL0     H 7251   1.807   6.494   0.514  1.4480  2.6720  3.2586
  813MOL0     H 7252   1.594   6.376   0.532  1.6027  1.7454 -1.8297
  813MOL0     H 7253   1.537   6.128   0.513  0.3853  1.0841  0.1725
  813MOL0     H 7254   1.400   6.110   0.619  1.4483  1.2868 -1.3684
  813MOL0     H 7255   1.546   5.953   0.764 -0.8918 -0.0430  0.2574
  813MOL0     H 7256   1.676   5.959   0.644 -0.3331  0.1977 -0.7049
  813MOL0     H 7257   1.575   5.854   0.496 -1.1560  1.2591 -0.7243
  813MOL0     H 7258   1.404   5.876   0.550  0.0124  0.1574  0.9704
  813MOL0     H 7259   1.526   5.641   0.558  0.1279  0.2040  0.4182
  813MOL0     H 7260   1.618   5.706   0.690 -0.4491 -1.7986 -0.6614
  813MOL0     H 7261   1.320   5.700   0.701 -0.4452 -0.9675  0.6043
  813MOL0     H 7262   1.439   5.767   0.820  0.2716 -2.0235  1.1709
  813MOL0     H 7263   1.527   5.556   0.862 -1.1724 -2.1993  0.9869
  813MOL0     H 7264   1.455   5.479   0.724  0.9551 -1.0485  1.2799
  813MOL0     H 7265   1.276   5.607   0.935  1.4443 -1.4835  1.7750
  813MOL0     H 7266   1.220   5.505   0.798 -0.1531  3.4307 -0.7216
  813MOL0     H 7267   1.381   5.456   1.068 -1.7748 -0.2417  0.6982
  813MOL0     H 7268   1.393   5.343   0.948  0.7189  0.1051  1.8835
  813MOL0     H 7269   1.178   5.184   0.910  0.4182  1.1490 -1.0318
  813MOL0     H 7270   0.957   5.044   1.076  0.2055  0.4713  0.1311
  813MOL0     H 7271   0.906   5.111   0.918  3.1951  2.9660 -1.0511
  813MOL0     H 7272   0.754   5.266   1.090 -0.2325 -0.0175  1.0197
  813MOL0     H 7273   0.786   5.136   1.202 -1.3551 -0.2102  0.4485
  813MOL0     H 7274   0.658   4.969   1.049 -0.9730  0.1414  1.3689
  813MOL0     H 7275   0.576   5.111   1.104 -0.1809 -0.0694 -1.4026
  813MOL0     H 7276   0.540   5.092   0.851 -2.8457  3.0663  1.6945
  813MOL0     H 7277   0.710   5.088   0.831  0.9377 -0.5884  2.1155
  813MOL0     H 7278   0.394   5.151   0.993 -0.9031  1.8422  4.4979
  813MOL0     H 7279   0.173   5.224   0.963  0.1037 -1.2549 -1.6906
  813MOL0     H 7280  -0.145   5.330   0.662  0.1119  0.5632  0.0514
  813MOL0     H 7281  -0.401   5.364   0.625 -0.7738 -1.9869  0.8512
  813MOL0     H 7282  -0.664   5.331   0.764 -3.1555  0.3051  0.1656
  813MOL0     H 7283  -0.602   5.370   0.606 -0.6696 -0.0600 -0.3213
  813MOL0     H 7284  -0.828   5.417   0.602  1.7057 -3.0716  1.8144
  813MOL0     H 7285  -0.746   5.576   0.619  0.7056  1.4325  2.1738
  813MOL0     H 7286  -0.790   5.576   0.860  1.2322 -1.7195  0.8510
  813MOL0     H 7287  -0.870   5.419   0.836  2.6703  0.9831  2.5931
  813MOL0     H 7288  -0.997   5.681   0.787  1.1410  0.4703  1.9970
  813MOL0     H 7289  -0.967   5.605   0.630 -0.9756 -0.4712 -0.0762
  813MOL0     H 7290  -1.127   5.496   0.863  1.8489  0.1561  0.4762
  813MOL0     H 7291  -1.063   5.403   0.730  0.9971 -0.6631  1.9451
  813MOL0     H 7292  -1.286   5.476   0.655  0.0424 -0.0133 -0.3287
  813MOL0     H 7293  -1.174   5.561   0.559  0.9897  0.0040  0.4850
  813MOL0     H 7294  -1.270   5.677   0.825  0.8054 -2.4934  0.6358
  813MOL0     H 7295  -1.193   5.760   0.692 -0.9318  0.8266  1.9793
  813MOL0     H 7296  -1.459   5.769   0.728  1.6905  2.3734 -0.7283
  813MOL0     H 7297  -1.452   5.615   0.656 -0.2281 -0.0159  3.8893
  813MOL0     H 7298  -0.432   5.580   0.985 -0.2253  0.3226  0.7653
  813MOL0     H 7299  -0.183   5.545   1.029  1.3857 -0.4401 -0.1838
  813MOL0     H 7300   0.318   5.590   0.795 -6.1662 -0.3259 -0.1064
  813MOL0     H 7301   0.546   5.513   0.814  1.0311  0.0686  1.2535
  813MOL0     H 7302   1.761   6.169   0.875  2.6294  1.6930  0.8919
  813MOL0     H 7303   1.967   6.284   0.845 -0.4666 -2.2595 -0.5514
  813MOL0     H 7304   2.264   6.420   0.578  0.6600 -0.0547 -0.4708
  813MOL0     H 7305   2.524   6.484   0.569 -1.3054  2.6139 -2.6454
  813MOL0     H 7306   2.702   6.719   0.901 -1.0091  2.4423  1.1214
  813MOL0     H 7307   2.684   6.849   0.769  0.4120 -0.7665 -1.1943
  813MOL0     H 7308   2.929   6.748   0.848 -1.2457  0.9298  1.4883
  813MOL0     H 7309   2.880   6.624   0.737  1.6341 -0.3434  1.6042
  813MOL0     H 7310   2.999   6.790   0.614 -0.9192 -1.4892 -1.3890
  813MOL0     H 7311   2.902   6.920   0.696  0.9768  0.1359 -0.3311
  813MOL0     H 7312   2.705   6.821   0.539 -0.3672  1.2056 -0.4839
  813MOL0     H 7313   2.823   6.894   0.450 -1.0336  0.0603  1.1063
  813MOL0     H 7314   2.843   6.499   0.304 -0.5043 -1.2841  1.6699
  813MOL0     H 7315   2.460   6.752   0.897  0.4285 -1.2742  0.3063
  813MOL0     H 7316   2.218   6.713   0.891  2.2934  0.8920  0.9402
  814MOL0     O 7317   0.049   6.833   1.811 -0.3984 -0.1717  0.6386
  814MOL0     C 7318   0.056   6.800   1.931 -0.4753  0.3248  0.1361
  814MOL0     O 7319  -0.023   6.846   2.028  0.4673  0.4255 -0.1044
  814MOL0     C 7320  -0.106   6.953   2.014  0.2879  0.3256 -0.0191
  814MOL0     C 7321  -0.067   7.085   1.981 -0.6715  0.4401 -0.7917
  814MOL0     C 7322  -0.163   7.182   1.947 -0.2791 -0.1043 -0.4575
  814MOL0     C 7323  -0.299   7.160   1.941  0.1346  0.8118 -0.9209
  814MOL0     O 7324  -0.378   7.265   1.905  0.1960 -0.8429  0.2982
  814MOL0     C 7325  -0.503   7.298   1.974  0.3030 -0.2240  0.1898
  814MOL0     C 7326  -0.486   7.433   2.047 -0.0542 -0.0031 -0.6401
  814MOL0     C 7327  -0.626   7.483   2.069 -0.2591  0.0501 -0.5759
  814MOL0     C 7328  -0.633   7.597   2.174  0.5226  0.2677 -0.2722
  814MOL0     C 7329  -0.782   7.640   2.178 -0.8118 -0.3365  0.0191
  814MOL0     C 7330  -0.819   7.743   2.075 -0.4303 -0.3837 -0.1016
  814MOL0     C 7331  -0.734   7.873   2.060  0.0500 -0.6688 -0.6319
  814MOL0     C 7332  -0.811   7.993   1.985 -0.2381 -0.5350 -1.0236
  814MOL0     N 7333  -0.926   8.031   2.062 -0.0933 -0.8738 -0.0980
  814MOL0     C 7334  -0.926   8.134   2.157 -0.2172  0.2782  0.1275
  814MOL0     C 7335  -1.057   8.165   2.180 -0.5305 -0.3872 -1.0745
  814MOL0     C 7336  -1.097   8.292   2.246 -0.0458 -0.2208 -0.3164
  814MOL0     C 7337  -1.253   8.270   2.271  0.1647 -0.2427  0.2040
  814MOL0     C 7338  -1.319   8.393   2.324 -0.8439 -0.0954  0.1502
  814MOL0     C 7339  -1.424   8.355   2.432 -0.0045  0.8232  0.0972
  814MOL0     O 7340  -1.530   8.284   2.360 -1.1358  0.6722  0.0623
  814MOL0     C 7341  -1.652   8.266   2.414 -0.3471  0.1115  0.7095
  814MOL0     C 7342  -1.718   8.371   2.471  0.0626 -0.4443 -0.1444
  814MOL0     C 7343  -1.840   8.350   2.536 -0.4849 -0.3328  0.0131
  814MOL0     C 7344  -1.886   8.226   2.558 -0.0917  0.2011 -0.0796
  814MOL0     C 7345  -2.008   8.196   2.641  0.0333  0.1778  0.1965
  814MOL0     O 7346  -2.061   8.300   2.707  0.4684  0.8532 -1.2100
  814MOL0     C 7347  -2.195   8.305   2.734  0.1472 -0.1530 -0.1678
  814MOL0     C 7348  -2.301   8.263   2.650  0.3766 -0.4905  0.0908
  814MOL0     C 7349  -2.437   8.277   2.700 -0.4403 -0.4790 -0.1904
  814MOL0     C 7350  -2.460   8.339   2.825 -0.1214  0.2104  0.2921
  814MOL0     O 7351  -2.589   8.362   2.864 -0.1839  0.2248  0.8725
  814MOL0     C 7352  -2.681   8.257   2.837 -0.0548  1.1789  0.5385
  814MOL0     C 7353  -2.795   8.249   2.947  0.5909 -0.7979  0.1908
  814MOL0     C 7354  -2.858   8.107   2.944  0.0942  0.3259 -0.1011
  814MOL0     C 7355  -2.983   8.100   3.040  0.1277 -0.8479  0.0413
  814MOL0     C 7356  -3.028   7.958   3.071 -0.0810 -0.0720  0.0173
  814MOL0     C 7357  -3.175   7.942   3.127  0.1138 -0.0049 -0.1739
  814MOL0     C 7358  -3.276   7.953   3.009  0.6001 -0.5960 -0.2670
  814MOL0     C 7359  -3.418   7.917   3.047 -0.8438 -0.0769  0.4733
  814MOL0    Cl 7360  -3.469   8.056   3.144  0.9447  0.1819  0.1022
  814MOL0     C 7361  -2.341   8.388   2.906  0.0141 -0.3827  0.3139
  814MOL0     C 7362  -2.211   8.360   2.861  0.5979 -0.0085  0.7730
  814MOL0     O 7363  -2.045   8.077   2.648 -0.2929 -0.0463  0.7053
  814MOL0     C 7364  -1.822   8.115   2.512  0.9700 -0.1917  0.5550
  814MOL0     C 7365  -1.705   8.131   2.429 -0.0621 -0.1965 -0.5279
  814MOL0     N 7366  -1.133   8.078   2.108 -0.1827  0.4465  0.0580
  814MOL0     N 7367  -1.057   7.998   2.039 -0.7765 -0.2596 -0.0265
  814MOL0     C 7368  -0.341   7.025   1.980 -0.4600 -0.2305  0.9443
  814MOL0     C 7369  -0.246   6.928   2.007  0.2650  0.2509 -0.0376
  814MOL0     C 7370   0.121   6.670   1.956 -0.5879  0.2233  0.1861
  814MOL0     C 7371   0.144   6.626   2.082  0.3455  0.1146  0.4562
  814MOL0     C 7372   0.205   6.507   2.111  0.0304 -1.1334  0.6841
  814MOL0     C 7373   0.240   6.420   2.002 -0.4156 -0.4251 -0.8072
  814MOL0     O 7374   0.304   6.306   2.044 -0.8883 -0.6551  0.1346
  814MOL0     C 7375   0.353   6.220   1.941  0.3122 -0.0388 -0.0085
  814MOL0     C 7376   0.377   6.079   2.004 -0.1364 -0.1426 -0.5526
  814MOL0     C 7377   0.468   6.080   2.135  0.0731 -0.1994  0.2687
  814MOL0     C 7378   0.495   5.930   2.188 -0.9882 -1.0663 -0.4405
  814MOL0     C 7379   0.364   5.866   2.215  0.9684 -0.6428 -0.0996
  814MOL0     C 7380   0.275   5.786   2.229 -0.1413 -0.7279 -0.2360
  814MOL0     C 7381   0.206   6.456   1.873 -0.1988  0.4058  0.0338
  814MOL0     C 7382   0.154   6.585   1.851 -0.0363  0.1489 -0.2618
  814MOL0     H 7383   0.036   7.113   2.000  0.0755 -2.5829  0.1494
  814MOL0     H 7384  -0.134   7.286   1.936 -0.5464 -0.1812 -2.2365
  814MOL0     H 7385  -0.541   7.220   2.041 -0.4619 -1.1148 -1.2148
  814MOL0     H 7386  -0.575   7.316   1.894  4.0639 -0.4518 -3.6157
  814MOL0     H 7387  -0.436   7.508   1.987 -2.6563  1.5392 -1.0327
  814MOL0     H 7388  -0.427   7.413   2.137 -2.1503  2.2030  1.3589
  814MOL0     H 7389  -0.688   7.396   2.093  0.4453 -0.5242 -0.8072
  814MOL0     H 7390  -0.662   7.521   1.973 -1.1040  2.7347  0.6945
  814MOL0     H 7391  -0.595   7.561   2.270  0.2043 -1.9905 -0.9363
  814MOL0     H 7392  -0.569   7.678   2.139  0.7313  0.2000 -0.0483
  814MOL0     H 7393  -0.799   7.684   2.276  1.2489  0.3795  0.1030
  814MOL0     H 7394  -0.838   7.546   2.181  0.1521 -0.9615 -0.7529
  814MOL0     H 7395  -0.923   7.765   2.104 -0.5974 -1.0441 -0.1718
  814MOL0     H 7396  -0.814   7.696   1.977  1.2405 -0.0109 -0.2113
  814MOL0     H 7397  -0.696   7.905   2.157  0.1337  1.1066 -1.2034
  814MOL0     H 7398  -0.645   7.843   2.004  0.9756  0.1810  0.3480
  814MOL0     H 7399  -0.854   7.961   1.891 -1.4313 -0.7336 -0.4252
  814MOL0     H 7400  -0.738   8.075   1.977 -0.9346  0.1065 -0.9103
  814MOL0     H 7401  -0.838   8.189   2.191 -0.2082  0.3568 -0.0240
  814MOL0     H 7402  -1.072   8.385   2.194 -0.7259  0.9863  1.4163
  814MOL0     H 7403  -1.036   8.299   2.337  1.4110 -0.3674 -1.2410
  814MOL0     H 7404  -1.267   8.187   2.340 -0.7041  0.9708  1.5466
  814MOL0     H 7405  -1.314   8.252   2.182 -1.0559 -2.3841  1.4088
  814MOL0     H 7406  -1.241   8.447   2.379 -0.0856 -1.1482  0.1225
  814MOL0     H 7407  -1.346   8.458   2.240  0.4255  0.4061  0.1107
  814MOL0     H 7408  -1.462   8.449   2.475  0.9892  0.4435  1.9399
  814MOL0     H 7409  -1.382   8.288   2.508 -0.8627  0.6785  0.4565
  814MOL0     H 7410  -1.660   8.462   2.458  0.1839 -0.0759  2.5572
  814MOL0     H 7411  -1.894   8.427   2.589 -0.6200 -2.1955  2.7785
  814MOL0     H 7412  -2.274   8.223   2.553  0.1921 -2.3109  0.7496
  814MOL0     H 7413  -2.520   8.248   2.637  0.2802 -1.1551 -0.8603
  814MOL0     H 7414  -2.627   8.163   2.831 -0.1063  1.1949 -0.2427
  814MOL0     H 7415  -2.736   8.285   2.746  0.7241 -1.1303 -0.7074
  814MOL0     H 7416  -2.865   8.325   2.911  2.0386  1.4295  1.8500
  814MOL0     H 7417  -2.760   8.291   3.042  3.1973  2.2443 -1.9152
  814MOL0     H 7418  -2.784   8.037   2.982 -0.6521  0.9820  2.7614
  814MOL0     H 7419  -2.895   8.071   2.847 -0.0609  3.1425 -1.1829
  814MOL0     H 7420  -2.957   8.150   3.134 -1.0442 -1.2430  0.5959
  814MOL0     H 7421  -3.062   8.156   2.988 -0.4916 -1.7252  0.0187
  814MOL0     H 7422  -2.962   7.906   3.140 -0.1689 -1.4568 -0.8885
  814MOL0     H 7423  -3.014   7.902   2.978  3.5593  0.3763  0.1615
  814MOL0     H 7424  -3.194   8.017   3.205 -1.9340  0.2319 -0.8486
  814MOL0     H 7425  -3.180   7.844   3.175  1.2863 -0.7602 -1.5276
  814MOL0     H 7426  -3.269   8.048   2.955 -0.3345 -1.8645 -2.7638
  814MOL0     H 7427  -3.244   7.872   2.942 -0.4321 -0.1793 -1.2936
  814MOL0     H 7428  -3.416   7.822   3.102 -1.7681  0.4516  1.4841
  814MOL0     H 7429  -3.497   7.906   2.972 -0.9913  0.4742  0.5414
  814MOL0     H 7430  -2.362   8.435   3.002 -1.8699 -2.9621  1.2739
  814MOL0     H 7431  -2.124   8.392   2.918  1.1458  1.1723 -0.6450
  814MOL0     H 7432  -1.851   8.012   2.532  0.9581 -0.0960  1.0483
  814MOL0     H 7433  -1.655   8.040   2.395 -2.6383 -1.6675 -0.5995
  814MOL0     H 7434  -0.444   6.990   1.972 -0.3881 -0.4603  1.0245
  814MOL0     H 7435  -0.268   6.822   2.019 -1.6996  0.3419 -2.2230
  814MOL0     H 7436   0.115   6.676   2.174  1.6417  0.6976  0.5645
  814MOL0     H 7437   0.211   6.471   2.213  0.5182  1.2185  1.5651
  814MOL0     H 7438   0.441   6.256   1.887 -0.4961 -2.1938 -3.0769
  814MOL0     H 7439   0.277   6.207   1.863 -0.4905  0.7452  0.6244
  814MOL0     H 7440   0.277   6.046   2.031 -1.3990  4.0431  0.6914
  814MOL0     H 7441   0.434   6.015   1.937  1.3273 -2.3023  2.4985
  814MOL0     H 7442   0.414   6.132   2.214  2.4091  0.6157  1.4224
  814MOL0     H 7443   0.559   6.140   2.124 -1.1726  2.0105  1.3751
  814MOL0     H 7444   0.564   5.873   2.125  0.2746 -0.5305  0.4099
  814MOL0     H 7445   0.556   5.943   2.278 -0.6623 -0.5609 -0.7298
  814MOL0     H 7446   0.209   5.707   2.256  0.9109 -0.3052  4.4194
  814MOL0     H 7447   0.200   6.396   1.783  0.4588  1.5471 -0.7948
  814MOL0     H 7448   0.131   6.607   1.747  0.0035 -1.2386 -0.5905
  815MOL0     O 7449   0.946   4.857   4.760  0.4560 -0.0636  0.2066
  815MOL0     C 7450   0.949   4.984   4.751  0.1831  0.6314 -0.5668
  815MOL0     O 7451   0.844   5.067   4.744 -0.2171  0.1023  0.2497
  815MOL0     C 7452   0.706   5.024   4.748 -0.3023  0.1990  0.2700
  815MOL0     C 7453   0.618   5.056   4.640  0.6012  0.5397 -0.4586
  815MOL0     C 7454   0.480   5.025   4.644  0.0945  0.0135  0.1805
  815MOL0     C 7455   0.437   4.945   4.755  0.5051  0.6004  0.3880
  815MOL0     O 7456   0.302   4.916   4.760  0.1288 -0.3712  0.3207
  815MOL0     C 7457   0.250   4.864   4.888 -0.2206 -0.6430 -1.1692
  815MOL0     C 7458   0.101   4.845   4.875 -1.0350  0.4704 -0.5839
  815MOL0     C 7459   0.034   4.983   4.857 -0.6073  0.3158 -0.5524
  815MOL0     C 7460  -0.112   4.947   4.838  0.5543  0.1060 -0.0323
  815MOL0     C 7461  -0.199   5.074   4.862  0.1563  0.0496  0.4668
  815MOL0     C 7462  -0.344   5.032   4.832  0.1005  0.0053  0.3006
  815MOL0     C 7463  -0.440   5.146   4.852  0.1736  0.3911 -0.1363
  815MOL0     C 7464  -0.426   5.255   4.753 -0.2556  0.1774 -0.8010
  815MOL0     N 7465  -0.531   5.357   4.778 -0.2959 -0.1167 -0.1807
  815MOL0     C 7466  -0.528   5.452   4.871 -0.2575 -1.3641 -0.6063
  815MOL0     C 7467  -0.643   5.524   4.855  0.6251 -0.2481  0.0647
  815MOL0     C 7468  -0.675   5.647   4.924  0.5486 -0.3458  0.4307
  815MOL0     C 7469  -0.769   5.618   5.042 -0.2831  0.8416  0.0446
  815MOL0     C 7470  -0.909   5.563   5.017 -0.8677 -0.5566 -0.5484
  815MOL0     C 7471  -0.967   5.503   5.145 -0.4962  0.0126 -0.5832
  815MOL0     O 7472  -0.979   5.611   5.241  0.5689 -0.2558  0.2183
  815MOL0     C 7473  -1.105   5.674   5.232 -0.2044  0.2189 -0.4823
  815MOL0     C 7474  -1.211   5.595   5.262  0.6132 -0.1763 -0.2471
  815MOL0     C 7475  -1.347   5.650   5.249 -0.4519  0.7406 -0.5736
  815MOL0     C 7476  -1.374   5.783   5.211  0.6622  0.1045 -0.0817
  815MOL0     C 7477  -1.506   5.836   5.180  0.5921  0.4827 -0.2235
  815MOL0     O 7478  -1.611   5.748   5.170  0.1124 -0.4817  0.0087
  815MOL0     C 7479  -1.732   5.801   5.125 -0.7663 -0.0120 -0.3667
  815MOL0     C 7480  -1.831   5.840   5.213  0.0623  0.3914  0.2318
  815MOL0     C 7481  -1.953   5.879   5.167  0.2307 -0.0849  0.5410
  815MOL0     C 7482  -1.977   5.904   5.035 -0.5631  0.8404 -0.6455
  815MOL0     O 7483  -2.105   5.938   5.015  0.2698  0.5389 -0.7995
  815MOL0     C 7484  -2.154   5.938   4.879 -0.0805 -0.8563 -1.2483
  815MOL0     C 7485  -2.310   5.935   4.902 -1.1550 -0.3262 -0.0815
  815MOL0     C 7486  -2.367   6.062   4.979 -0.5822  0.2616  0.4623
  815MOL0     C 7487  -2.505   6.046   5.036 -0.0713 -0.2545  0.3876
  815MOL0     C 7488  -2.590   6.168   5.025 -0.1324 -0.0135 -0.5342
  815MOL0     C 7489  -2.724   6.138   5.090  0.1444 -0.3148 -0.3683
  815MOL0     C 7490  -2.800   6.272   5.095  0.3299 -0.1031 -0.4103
  815MOL0     C 7491  -2.945   6.260   5.158  0.4490  0.0581  0.4477
  815MOL0    Cl 7492  -2.966   6.219   5.328 -0.2376 -0.1322 -0.2292
  815MOL0     C 7493  -1.875   5.887   4.946 -0.2827 -0.4071  0.3935
  815MOL0     C 7494  -1.755   5.820   4.989 -0.0905 -0.3462 -0.0693
  815MOL0     O 7495  -1.515   5.959   5.170 -0.3365  0.2307  0.3759
  815MOL0     C 7496  -1.257   5.857   5.180  0.0532 -0.1729 -1.1956
  815MOL0     C 7497  -1.130   5.805   5.189  0.3460  0.4787 -0.0315
  815MOL0     N 7498  -0.720   5.467   4.760 -0.4387  0.0049 -0.9592
  815MOL0     N 7499  -0.653   5.369   4.714 -0.0789 -1.1126 -1.0139
  815MOL0     C 7500   0.529   4.904   4.853  0.0457  0.4134 -0.9787
  815MOL0     C 7501   0.666   4.956   4.862  0.7909  0.6857  0.2545
  815MOL0     C 7502   1.089   5.037   4.752  0.2831 -0.7484 -0.0897
  815MOL0     C 7503   1.113   5.177   4.733  0.6224 -0.4577 -0.8403
  815MOL0     C 7504   1.239   5.222   4.731 -0.3163  0.5625  0.5236
  815MOL0     C 7505   1.346   5.139   4.740 -0.2416  0.3483  0.3118
  815MOL0     O 7506   1.480   5.180   4.721  0.7238 -0.0279  0.1365
  815MOL0     C 7507   1.521   5.317   4.735 -0.0284  0.1785  0.7642
  815MOL0     C 7508   1.678   5.316   4.723 -0.7464 -0.6339  0.2458
  815MOL0     C 7509   1.714   5.258   4.861 -0.4771 -0.7138  0.0138
  815MOL0     C 7510   1.853   5.184   4.856 -0.3982 -1.2832 -0.1673
  815MOL0     C 7511   1.963   5.283   4.838 -0.2097  0.6090  0.4685
  815MOL0     C 7512   2.035   5.376   4.834 -0.4211 -0.1491 -0.6931
  815MOL0     C 7513   1.321   4.998   4.758  0.6873 -0.2338  0.5339
  815MOL0     C 7514   1.196   4.947   4.764  0.6021  0.2757  0.4285
  815MOL0     H 7515   0.658   5.109   4.553  1.0833 -1.1272 -1.2920
  815MOL0     H 7516   0.404   5.047   4.570 -0.0101  2.3021  0.9024
  815MOL0     H 7517   0.272   4.936   4.967  2.4523 -0.3766 -2.0662
  815MOL0     H 7518   0.305   4.772   4.909  0.2624 -0.1606 -0.2615
  815MOL0     H 7519   0.055   4.787   4.955 -0.4580  0.2551 -0.4047
  815MOL0     H 7520   0.087   4.785   4.784  1.3257  1.8150 -1.9390
  815MOL0     H 7521   0.066   5.046   4.773 -0.8725 -0.6824 -1.4273
  815MOL0     H 7522   0.058   5.028   4.954  1.3188  0.7590 -1.1886
  815MOL0     H 7523  -0.116   4.914   4.734 -1.9017  0.1998 -0.0329
  815MOL0     H 7524  -0.144   4.870   4.909  1.4144  1.1284  1.5281
  815MOL0     H 7525  -0.163   5.154   4.796  0.5000  0.9298  1.6917
  815MOL0     H 7526  -0.201   5.103   4.967  1.1589  0.5329  0.3665
  815MOL0     H 7527  -0.372   4.944   4.891  2.6553 -0.5917  0.7679
  815MOL0     H 7528  -0.364   5.004   4.728 -2.1430 -0.7047  0.8605
  815MOL0     H 7529  -0.538   5.098   4.864  0.8613 -0.5898  2.0724
  815MOL0     H 7530  -0.413   5.184   4.951  2.0554 -3.6757  1.1450
  815MOL0     H 7531  -0.426   5.215   4.651  2.8930 -1.2952 -0.3633
  815MOL0     H 7532  -0.332   5.310   4.769 -0.1412 -0.2506  0.0468
  815MOL0     H 7533  -0.444   5.485   4.931  0.6148 -0.6402 -2.1736
  815MOL0     H 7534  -0.720   5.720   4.856  2.4768  2.9343  2.4357
  815MOL0     H 7535  -0.586   5.698   4.960  1.6098 -0.8705 -1.3041
  815MOL0     H 7536  -0.778   5.718   5.086 -0.8420 -0.2859  2.6677
  815MOL0     H 7537  -0.714   5.556   5.113  0.2186 -2.0115 -2.6371
  815MOL0     H 7538  -0.966   5.654   4.994  1.1652  0.3488 -2.3695
  815MOL0     H 7539  -0.913   5.496   4.931  0.3048 -0.1289 -0.9534
  815MOL0     H 7540  -0.907   5.418   5.176  2.4037  0.7759 -3.5095
  815MOL0     H 7541  -1.057   5.454   5.107 -0.5404  0.4372 -1.0476
  815MOL0     H 7542  -1.190   5.492   5.290 -1.7649 -0.5920  0.2487
  815MOL0     H 7543  -1.435   5.589   5.267 -0.9856  1.4590 -0.7065
  815MOL0     H 7544  -1.820   5.841   5.321  2.5602  2.4424  0.0632
  815MOL0     H 7545  -2.030   5.886   5.243 -1.2990 -0.9440 -0.8859
  815MOL0     H 7546  -2.122   5.855   4.816  1.2646  0.0941 -1.8545
  815MOL0     H 7547  -2.127   6.033   4.831 -0.6570 -0.2020 -0.3193
  815MOL0     H 7548  -2.323   5.856   4.976  0.7453  0.3225  1.0292
  815MOL0     H 7549  -2.350   5.914   4.803  2.3661 -0.4306 -1.6250
  815MOL0     H 7550  -2.384   6.140   4.904 -3.3161  0.3848  1.1055
  815MOL0     H 7551  -2.297   6.098   5.055  0.9560 -3.7606  1.1498
  815MOL0     H 7552  -2.559   5.980   4.969  1.8670  1.7568 -3.4942
  815MOL0     H 7553  -2.498   6.005   5.137  2.3497  0.4045  0.5653
  815MOL0     H 7554  -2.613   6.198   4.922 -0.0921  0.7116 -0.3375
  815MOL0     H 7555  -2.547   6.256   5.074 -0.9975  2.0490 -3.2234
  815MOL0     H 7556  -2.716   6.088   5.187 -1.5430  1.8494  1.0028
  815MOL0     H 7557  -2.779   6.082   5.014  0.0573  1.2709 -1.5301
  815MOL0     H 7558  -2.743   6.346   5.153  0.3905 -0.5626  0.1222
  815MOL0     H 7559  -2.812   6.311   4.993 -0.7647 -0.9194 -0.6110
  815MOL0     H 7560  -3.004   6.189   5.099 -0.9873 -0.8383  2.8450
  815MOL0     H 7561  -2.991   6.360   5.164 -0.2260 -0.3470  3.3965
  815MOL0     H 7562  -1.890   5.914   4.842 -1.3858  0.3960  0.7498
  815MOL0     H 7563  -1.681   5.798   4.913  0.5603 -4.3589  1.4522
  815MOL0     H 7564  -1.261   5.961   5.149  2.0475  1.2867  2.7736
  815MOL0     H 7565  -1.036   5.851   5.161  3.0431 -3.4446  1.7077
  815MOL0     H 7566   0.495   4.848   4.940 -1.4405 -2.9567 -3.4786
  815MOL0     H 7567   0.741   4.923   4.934  1.8307 -2.0396 -1.9062
  815MOL0     H 7568   1.034   5.251   4.720  2.0081  1.6481  1.8456
  815MOL0     H 7569   1.255   5.328   4.713 -1.5015  0.6479 -0.1697
  815MOL0     H 7570   1.480   5.352   4.830 -1.5681 -2.3387  1.1364
  815MOL0     H 7571   1.480   5.389   4.663  0.4211 -0.2772  0.0341
  815MOL0     H 7572   1.716   5.253   4.642  0.5345  0.1717  0.1933
  815MOL0     H 7573   1.719   5.417   4.724 -2.3467  0.0902 -1.3019
  815MOL0     H 7574   1.637   5.194   4.904 -1.1276 -2.4392 -3.4036
  815MOL0     H 7575   1.717   5.338   4.935  0.7150 -0.5586 -0.1820
  815MOL0     H 7576   1.878   5.123   4.943 -1.1585 -0.0233  0.9869
  815MOL0     H 7577   1.863   5.114   4.773  0.8994 -1.4646  0.1183
  815MOL0     H 7578   2.096   5.464   4.837  1.3068 -1.3184  0.0756
  815MOL0     H 7579   1.396   4.920   4.747 -1.7890 -3.2551  3.3772
  815MOL0     H 7580   1.193   4.839   4.777  2.3684  0.0564 -0.6798
  816MOL0     O 7581   7.992   6.926   8.121 -0.0239  0.6482  0.0429
  816MOL0     C 7582   8.007   7.029   8.050 -0.1482 -0.3619 -0.7855
  816MOL0     O 7583   7.921   7.082   7.962 -0.6580  0.4245  0.0230
  816MOL0     C 7584   7.800   7.026   7.939  0.7616 -0.8363  0.5018
  816MOL0     C 7585   7.774   6.889   7.952 -0.1355  0.0059  0.1870
  816MOL0     C 7586   7.645   6.840   7.926 -0.5620  0.2836 -0.3006
  816MOL0     C 7587   7.540   6.925   7.880  0.4607  0.6369 -1.2864
  816MOL0     O 7588   7.417   6.890   7.828  0.1808 -0.3970  0.2727
  816MOL0     C 7589   7.439   6.811   7.705  0.0706  0.9315  0.7220
  816MOL0     C 7590   7.313   6.789   7.621  0.4064  0.1053  0.3889
  816MOL0     C 7591   7.241   6.660   7.665  0.0626 -0.0259  0.0910
  816MOL0     C 7592   7.117   6.637   7.566 -0.5598  0.0466  0.2170
  816MOL0     C 7593   7.065   6.496   7.576  0.4871  0.7540 -0.1069
  816MOL0     C 7594   6.975   6.451   7.456  0.6259 -0.6317  0.2893
  816MOL0     C 7595   6.827   6.498   7.466 -0.1757 -0.1676 -0.0696
  816MOL0     C 7596   6.761   6.505   7.322  0.5369 -0.3974  0.2712
  816MOL0     N 7597   6.636   6.587   7.326 -0.1499  0.7553  0.7044
  816MOL0     C 7598   6.514   6.542   7.287  1.1365 -0.2392 -0.5602
  816MOL0     C 7599   6.434   6.654   7.286 -0.8965  0.0348 -0.1151
  816MOL0     C 7600   6.297   6.658   7.235  0.6908  0.8926 -0.5152
  816MOL0     C 7601   6.196   6.605   7.336  0.5610 -0.0148  0.2144
  816MOL0     C 7602   6.050   6.648   7.291  0.3471 -0.1488 -0.0174
  816MOL0     C 7603   6.002   6.605   7.157  0.4427 -0.0512 -0.4779
  816MOL0     O 7604   5.861   6.630   7.140  0.1097  0.0880 -0.4056
  816MOL0     C 7605   5.778   6.535   7.191  0.7602 -0.0654 -0.1960
  816MOL0     C 7606   5.645   6.559   7.191  0.3661  0.1009  0.2624
  816MOL0     C 7607   5.547   6.468   7.235 -0.0234  0.2424 -0.2586
  816MOL0     C 7608   5.588   6.347   7.290 -0.6273 -0.4562  0.5387
  816MOL0     C 7609   5.490   6.261   7.364 -0.3893 -0.9616  0.3538
  816MOL0     O 7610   5.536   6.172   7.462 -0.0395  0.7451  0.0039
  816MOL0     C 7611   5.460   6.096   7.542  0.3302 -0.1981 -0.5395
  816MOL0     C 7612   5.332   6.048   7.511  0.0376  0.8254  0.0027
  816MOL0     C 7613   5.259   5.973   7.605 -0.5213 -0.5236  0.4032
  816MOL0     C 7614   5.313   5.952   7.728  0.1156 -0.1405 -0.5600
  816MOL0     O 7615   5.248   5.906   7.838  0.1526 -0.6615  0.1497
  816MOL0     C 7616   5.123   5.974   7.862  0.0834  0.1525  0.0110
  816MOL0     C 7617   5.009   5.869   7.875  0.8394  1.0652 -0.0773
  816MOL0     C 7618   4.878   5.928   7.881  0.5816  0.4586 -0.5006
  816MOL0     C 7619   4.769   5.822   7.895  0.7162  0.3766  1.2058
  816MOL0     C 7620   4.628   5.880   7.899 -0.3344  0.3505  0.3544
  816MOL0     C 7621   4.529   5.765   7.863 -1.5468 -0.4866 -1.3383
  816MOL0     C 7622   4.393   5.830   7.875  0.6375 -0.2060 -0.0805
  816MOL0     C 7623   4.339   5.882   7.739 -0.5927 -0.8024 -1.4426
  816MOL0    Cl 7624   4.162   5.888   7.761 -0.0220 -0.2381 -0.0573
  816MOL0     C 7625   5.447   5.974   7.749 -0.4360  0.0436  0.3443
  816MOL0     C 7626   5.522   6.051   7.661 -0.4983 -0.5630  0.6904
  816MOL0     O 7627   5.371   6.281   7.335  0.2772  0.2096  0.3748
  816MOL0     C 7628   5.721   6.323   7.304  0.6465  0.4391 -0.8365
  816MOL0     C 7629   5.814   6.412   7.253  0.0250  0.4541 -0.5778
  816MOL0     N 7630   6.514   6.760   7.307 -0.3267 -0.1960  0.3120
  816MOL0     N 7631   6.633   6.724   7.337 -0.2722 -0.1097 -0.5599
  816MOL0     C 7632   7.573   7.062   7.856  0.0832  0.3741  0.0348
  816MOL0     C 7633   7.696   7.116   7.899  0.1445  0.5718 -0.5532
  816MOL0     C 7634   8.132   7.105   8.077  0.1667 -0.7547 -0.0769
  816MOL0     C 7635   8.256   7.049   8.116 -0.1977 -0.7924  0.4720
  816MOL0     C 7636   8.378   7.120   8.119  0.0053 -0.6587 -0.7270
  816MOL0     C 7637   8.379   7.258   8.095 -0.2240  0.9110  0.1691
  816MOL0     O 7638   8.487   7.341   8.114  0.4759 -0.6703  1.4172
  816MOL0     C 7639   8.614   7.284   8.152  0.3264  0.1273  0.6055
  816MOL0     C 7640   8.703   7.404   8.195 -0.1338  0.9531 -0.0148
  816MOL0     C 7641   8.714   7.509   8.081  0.8094 -0.4098 -0.2764
  816MOL0     C 7642   8.723   7.649   8.143  0.6369  0.1489  0.3547
  816MOL0     C 7643   8.855   7.680   8.209  0.0520 -0.1853  0.2028
  816MOL0     C 7644   8.959   7.700   8.261 -0.0222 -0.0002 -0.1512
  816MOL0     C 7645   8.261   7.319   8.053  0.1850  0.2526  0.0467
  816MOL0     C 7646   8.134   7.245   8.042  0.1854 -1.1700  0.0126
  816MOL0     H 7647   7.859   6.824   7.973  1.5910  2.0686 -0.1050
  816MOL0     H 7648   7.619   6.736   7.941  2.0144 -0.1735  1.6476
  816MOL0     H 7649   7.490   6.722   7.744 -4.1367 -1.7373  0.8086
  816MOL0     H 7650   7.505   6.862   7.634 -2.2607  0.1242 -2.2387
  816MOL0     H 7651   7.343   6.788   7.515  0.3241 -1.4017  0.3559
  816MOL0     H 7652   7.243   6.873   7.628 -0.0117  0.0164 -1.7530
  816MOL0     H 7653   7.201   6.682   7.765 -0.8379 -2.1144  0.2376
  816MOL0     H 7654   7.302   6.569   7.663  0.8297  0.4455 -2.9243
  816MOL0     H 7655   7.032   6.701   7.588 -1.4744 -0.8076 -0.7154
  816MOL0     H 7656   7.142   6.656   7.461 -0.2845  0.5394  0.3668
  816MOL0     H 7657   7.016   6.475   7.671 -0.0781  2.8184  0.1086
  816MOL0     H 7658   7.144   6.421   7.583 -0.5024 -0.4013 -0.8352
  816MOL0     H 7659   6.980   6.343   7.440 -0.1644 -0.4400 -1.5001
  816MOL0     H 7660   7.014   6.490   7.361 -0.4886 -1.0595 -0.3682
  816MOL0     H 7661   6.773   6.423   7.525 -0.4330  0.3014  0.3047
  816MOL0     H 7662   6.819   6.598   7.510  2.9596  0.9329 -1.6944
  816MOL0     H 7663   6.751   6.404   7.282  0.3872  0.5780 -2.3641
  816MOL0     H 7664   6.830   6.560   7.257  0.0864  0.3932  0.4435
  816MOL0     H 7665   6.478   6.445   7.257 -0.2630  0.2105 -0.4003
  816MOL0     H 7666   6.278   6.605   7.141 -1.1852  1.4745 -0.5120
  816MOL0     H 7667   6.265   6.762   7.225  1.4223  1.4678  2.3784
  816MOL0     H 7668   6.217   6.647   7.435 -0.0966 -1.1620  0.8718
  816MOL0     H 7669   6.208   6.497   7.343 -1.6803 -0.3808 -0.6384
  816MOL0     H 7670   5.977   6.609   7.362 -0.0390  1.0801  0.2871
  816MOL0     H 7671   6.053   6.757   7.297  0.6788 -0.2008  0.9709
  816MOL0     H 7672   6.031   6.500   7.144 -1.1678 -1.0683  2.8436
  816MOL0     H 7673   6.057   6.658   7.078 -1.3410 -0.3491 -1.9888
  816MOL0     H 7674   5.624   6.656   7.146  2.8769  0.2697 -0.6861
  816MOL0     H 7675   5.443   6.496   7.233  0.2831  1.8119  1.8720
  816MOL0     H 7676   5.279   6.066   7.418 -0.3481 -0.7694 -0.1066
  816MOL0     H 7677   5.158   5.936   7.587  0.0835 -1.3654 -1.6544
  816MOL0     H 7678   5.093   6.049   7.789 -1.8106  0.8525  1.4138
  816MOL0     H 7679   5.133   6.031   7.955 -0.5556  0.3308 -0.0278
  816MOL0     H 7680   5.031   5.809   7.964  1.2818  0.9112 -0.2890
  816MOL0     H 7681   5.008   5.804   7.786  0.2710  2.5798 -1.2067
  816MOL0     H 7682   4.867   5.988   7.789 -2.3003  0.2477 -0.3827
  816MOL0     H 7683   4.868   5.990   7.971 -1.0354 -1.7169  0.9106
  816MOL0     H 7684   4.779   5.757   7.807  2.0409  0.9296  0.9153
  816MOL0     H 7685   4.791   5.754   7.978  0.2189 -1.4759 -0.1014
  816MOL0     H 7686   4.626   5.964   7.829 -1.3413  0.0235 -0.0330
  816MOL0     H 7687   4.611   5.913   8.002 -0.0803  0.4991  0.3487
  816MOL0     H 7688   4.542   5.685   7.937 -0.5718  2.0335  1.4424
  816MOL0     H 7689   4.554   5.739   7.760 -0.7765 -0.0863 -1.2616
  816MOL0     H 7690   4.317   5.762   7.915 -0.6040  1.1869 -0.0168
  816MOL0     H 7691   4.405   5.909   7.950  0.3842  1.3500 -1.6451
  816MOL0     H 7692   4.354   5.819   7.651  1.3151  0.1236 -1.8375
  816MOL0     H 7693   4.370   5.984   7.713 -1.7306  0.4028  1.5132
  816MOL0     H 7694   5.487   5.950   7.847  1.0518  0.9406 -0.0040
  816MOL0     H 7695   5.618   6.088   7.697 -0.8786  1.1054  0.0543
  816MOL0     H 7696   5.753   6.238   7.363  0.9848  2.4984  2.1887
  816MOL0     H 7697   5.917   6.379   7.250 -0.1151 -0.1322  0.5830
  816MOL0     H 7698   7.490   7.127   7.830 -0.6879  0.1979  1.8490
  816MOL0     H 7699   7.716   7.222   7.887 -0.7747  0.9934  1.3793
  816MOL0     H 7700   8.259   6.941   8.124  0.2283 -1.1667 -3.2110
  816MOL0     H 7701   8.467   7.063   8.143  1.5715  1.3127 -1.5474
  816MOL0     H 7702   8.657   7.230   8.067 -4.0007  0.9045 -2.3633
  816MOL0     H 7703   8.609   7.205   8.228 -0.4796 -3.6607 -3.0568
  816MOL0     H 7704   8.662   7.437   8.291  4.8095 -0.5267  2.9663
  816MOL0     H 7705   8.805   7.378   8.223 -0.1634  0.9364  0.0792
  816MOL0     H 7706   8.637   7.504   8.004 -0.7012  2.5545  0.9036
  816MOL0     H 7707   8.810   7.488   8.032  1.7367 -0.3338  1.4255
  816MOL0     H 7708   8.701   7.720   8.062 -0.6642  0.7063  1.1664
  816MOL0     H 7709   8.642   7.668   8.213 -1.3546  0.3086 -1.8392
  816MOL0     H 7710   9.048   7.718   8.317 -0.9526 -0.0793  1.3969
  816MOL0     H 7711   8.268   7.425   8.030 -2.4432  0.3986 -0.3566
  816MOL0     H 7712   8.044   7.298   8.014 -0.4945 -0.3031  3.4268
  817MOL0     O 7713   5.283   6.324   4.066  0.2081 -0.0168  0.0693
  817MOL0     C 7714   5.353   6.227   4.048 -0.7763  0.2846 -0.5128
  817MOL0     O 7715   5.321   6.114   3.990 -0.5418 -0.2259  0.1311
  817MOL0     C 7716   5.234   6.131   3.892 -0.7034 -0.2291 -1.3258
  817MOL0     C 7717   5.102   6.175   3.917  0.4792 -0.0899  0.6621
  817MOL0     C 7718   5.011   6.184   3.814  0.5917  0.3711 -0.3052
  817MOL0     C 7719   5.048   6.152   3.680  0.0894  0.1033 -0.4824
  817MOL0     O 7720   4.963   6.164   3.576  0.2526 -0.5950 -0.3646
  817MOL0     C 7721   4.897   6.044   3.532  0.1226  0.2140 -0.1710
  817MOL0     C 7722   4.770   6.010   3.621  0.0536  0.0062 -0.7735
  817MOL0     C 7723   4.654   6.086   3.579  0.6476 -0.3478  0.2627
  817MOL0     C 7724   4.529   6.044   3.652 -0.1376  0.6218  0.3143
  817MOL0     C 7725   4.418   6.148   3.665  1.1767  0.2418 -0.1700
  817MOL0     C 7726   4.291   6.096   3.734  0.2612 -0.0120 -0.6750
  817MOL0     C 7727   4.188   6.200   3.751  0.1269  0.0354 -0.2124
  817MOL0     C 7728   4.096   6.205   3.632 -0.6456  1.0742  0.1799
  817MOL0     N 7729   3.967   6.265   3.666 -0.4283  0.5036 -0.8158
  817MOL0     C 7730   3.941   6.396   3.651 -0.7377 -0.3226  0.9792
  817MOL0     C 7731   3.816   6.408   3.703  0.0970 -0.0824  0.0865
  817MOL0     C 7732   3.747   6.546   3.716  0.4102  0.0945  0.2844
  817MOL0     C 7733   3.616   6.539   3.797 -0.7733  0.6010 -0.0972
  817MOL0     C 7734   3.551   6.659   3.852  0.0353 -0.7851  0.3961
  817MOL0     C 7735   3.431   6.635   3.932 -0.1807  0.3248 -0.7599
  817MOL0     O 7736   3.322   6.602   3.842 -0.5534 -0.1927  0.8431
  817MOL0     C 7737   3.239   6.701   3.814 -0.5437 -0.0146 -0.6488
  817MOL0     C 7738   3.241   6.751   3.684 -0.0982 -0.4421 -0.5364
  817MOL0     C 7739   3.138   6.834   3.647  0.2343  0.8310 -0.0968
  817MOL0     C 7740   3.030   6.872   3.736 -1.0285  0.0281 -0.5070
  817MOL0     C 7741   2.923   6.962   3.699  0.0122 -0.1048  0.4014
  817MOL0     O 7742   2.818   6.984   3.784 -0.7198  0.4367 -0.7226
  817MOL0     C 7743   2.723   7.060   3.738  0.5046  0.3114 -0.9532
  817MOL0     C 7744   2.712   7.185   3.792 -0.0473 -0.4536 -0.2569
  817MOL0     C 7745   2.603   7.269   3.765  0.7326  0.3681 -0.7250
  817MOL0     C 7746   2.516   7.238   3.669 -0.5165 -0.5101 -0.1100
  817MOL0     O 7747   2.413   7.330   3.641 -0.7432  0.7742 -0.0084
  817MOL0     C 7748   2.374   7.322   3.503  1.0931 -0.6747  1.3856
  817MOL0     C 7749   2.340   7.456   3.460 -0.0816 -0.6293 -0.1362
  817MOL0     C 7750   2.466   7.555   3.467 -0.0746  0.5814 -0.8658
  817MOL0     C 7751   2.417   7.691   3.418 -0.0311 -0.4010  0.3977
  817MOL0     C 7752   2.526   7.796   3.435 -0.4695 -0.4755  0.8075
  817MOL0     C 7753   2.513   7.928   3.359 -0.5404 -0.1604  0.1139
  817MOL0     C 7754   2.628   8.028   3.397  0.0827 -0.2079 -0.2320
  817MOL0     C 7755   2.594   8.158   3.326  0.0473  0.6077  0.1245
  817MOL0    Cl 7756   2.621   8.164   3.156  0.4039  0.0491  0.0876
  817MOL0     C 7757   2.527   7.110   3.606  0.2128  0.4561 -1.5374
  817MOL0     C 7758   2.630   7.015   3.646 -0.2105  0.4309 -0.0126
  817MOL0     O 7759   2.937   7.005   3.583 -0.0900 -0.0694  0.4267
  817MOL0     C 7760   3.030   6.811   3.860 -0.7946  0.4126  0.3085
  817MOL0     C 7761   3.136   6.740   3.906 -0.9110  0.6946  1.2482
  817MOL0     N 7762   3.778   6.286   3.752  0.5979 -0.4965 -0.3122
  817MOL0     N 7763   3.870   6.208   3.739  1.1817  0.3178  0.7740
  817MOL0     C 7764   5.183   6.109   3.657  1.5695  0.0236  0.2579
  817MOL0     C 7765   5.268   6.096   3.766  0.7560 -0.0138  0.4755
  817MOL0     C 7766   5.496   6.247   4.079 -1.7105  0.3696  0.1520
  817MOL0     C 7767   5.573   6.127   4.095  0.1132  0.6594  0.2589
  817MOL0     C 7768   5.710   6.134   4.134  0.1888 -0.1073 -0.5505
  817MOL0     C 7769   5.766   6.262   4.163  0.2411  0.6193  0.1343
  817MOL0     O 7770   5.892   6.272   4.211 -0.1202 -0.3434 -0.7785
  817MOL0     C 7771   5.974   6.351   4.125  0.0296  0.5446  0.5273
  817MOL0     C 7772   6.102   6.397   4.201  0.8149  0.1149 -0.0036
  817MOL0     C 7773   6.207   6.285   4.210  0.3767 -0.7459  0.1654
  817MOL0     C 7774   6.172   6.162   4.289 -0.2837 -0.0772 -0.1919
  817MOL0     C 7775   6.286   6.076   4.285 -0.0534  0.1461 -0.0974
  817MOL0     C 7776   6.372   5.995   4.277 -0.5227  0.4580  0.4486
  817MOL0     C 7777   5.684   6.381   4.147 -0.5326  0.2347 -0.3119
  817MOL0     C 7778   5.556   6.370   4.100 -0.3810 -0.6117 -0.1565
  817MOL0     H 7779   5.078   6.207   4.018  0.6738  2.0232  0.0971
  817MOL0     H 7780   4.917   6.235   3.834  0.6164  0.4082 -0.2822
  817MOL0     H 7781   4.964   5.958   3.522  3.8295  3.0124 -2.1676
  817MOL0     H 7782   4.862   6.063   3.430  0.8578  3.5633  0.0611
  817MOL0     H 7783   4.789   6.024   3.728 -0.6673  2.3229 -0.8940
  817MOL0     H 7784   4.755   5.905   3.595  0.7112  0.2330 -2.1712
  817MOL0     H 7785   4.649   6.074   3.470 -0.1661  1.2723  0.0872
  817MOL0     H 7786   4.656   6.193   3.603 -1.4319 -0.4445  1.1351
  817MOL0     H 7787   4.475   5.964   3.599 -0.2095  1.6976 -1.3018
  817MOL0     H 7788   4.546   6.003   3.752 -1.7400  1.4637  0.9673
  817MOL0     H 7789   4.385   6.188   3.569  0.7808  0.1524 -0.0769
  817MOL0     H 7790   4.460   6.227   3.728  2.3525 -2.6024  2.9294
  817MOL0     H 7791   4.323   6.073   3.836 -2.6877 -0.6909  0.2112
  817MOL0     H 7792   4.246   6.011   3.680 -0.6715  1.2635 -1.9942
  817MOL0     H 7793   4.125   6.176   3.837  0.3371  0.9979  0.2227
  817MOL0     H 7794   4.236   6.297   3.770  2.8102 -1.2395  0.0074
  817MOL0     H 7795   4.080   6.104   3.591 -2.6521  0.9902  1.0354
  817MOL0     H 7796   4.163   6.255   3.562  2.0158 -2.0701  0.2590
  817MOL0     H 7797   4.003   6.469   3.600 -3.1713 -0.1500 -2.0496
  817MOL0     H 7798   3.723   6.585   3.617 -2.8900 -1.9549  0.1273
  817MOL0     H 7799   3.818   6.615   3.762  1.1418  1.6379 -2.8827
  817MOL0     H 7800   3.645   6.470   3.877  1.0763  2.9852  1.4215
  817MOL0     H 7801   3.539   6.489   3.737 -0.0801  0.1366 -0.6148
  817MOL0     H 7802   3.628   6.705   3.915 -4.0361  3.0687  3.1571
  817MOL0     H 7803   3.529   6.730   3.772  0.0531  0.9612  1.8836
  817MOL0     H 7804   3.403   6.724   3.989  2.5312  2.4318 -2.4669
  817MOL0     H 7805   3.444   6.555   4.006  3.1057  0.3920 -1.1604
  817MOL0     H 7806   3.315   6.728   3.609  2.4659  0.0904  1.6741
  817MOL0     H 7807   3.143   6.866   3.543  2.8149  0.8683 -0.0229
  817MOL0     H 7808   2.782   7.197   3.874 -1.7531 -2.5051  1.6579
  817MOL0     H 7809   2.577   7.362   3.814 -3.4248 -0.9450  0.0034
  817MOL0     H 7810   2.283   7.262   3.491  1.6859 -1.2630 -0.3655
  817MOL0     H 7811   2.459   7.295   3.440  2.9538 -0.6241  3.7233
  817MOL0     H 7812   2.272   7.500   3.534  0.0776 -0.3917 -0.1312
  817MOL0     H 7813   2.298   7.456   3.359  0.3081 -0.5575 -0.2991
  817MOL0     H 7814   2.552   7.519   3.410  0.2868 -0.7738  0.4566
  817MOL0     H 7815   2.509   7.558   3.568  2.1640 -2.5184 -1.5575
  817MOL0     H 7816   2.385   7.694   3.313 -0.9623  0.6934  0.6875
  817MOL0     H 7817   2.324   7.720   3.467 -0.6752 -2.5608  0.5324
  817MOL0     H 7818   2.625   7.762   3.405 -1.0302  1.9402 -5.0815
  817MOL0     H 7819   2.513   7.830   3.539 -1.9323  1.9818 -0.0865
  817MOL0     H 7820   2.414   7.963   3.389 -0.7880 -2.4615  2.3292
  817MOL0     H 7821   2.526   7.913   3.251  1.4933 -0.0847  0.2980
  817MOL0     H 7822   2.629   8.052   3.504 -2.3096  0.8128 -0.3645
  817MOL0     H 7823   2.726   7.990   3.366  1.4722  4.3234 -2.1973
  817MOL0     H 7824   2.662   8.235   3.362  1.4460 -0.2179 -0.6339
  817MOL0     H 7825   2.492   8.194   3.339 -1.5493 -2.7347 -1.7142
  817MOL0     H 7826   2.458   7.079   3.528 -2.7362  0.4975  0.8589
  817MOL0     H 7827   2.629   6.916   3.603  2.7401  0.1548  0.3501
  817MOL0     H 7828   2.961   6.821   3.943  0.2357  0.5207  1.1681
  817MOL0     H 7829   3.141   6.706   4.009 -0.8512  3.6731  2.3384
  817MOL0     H 7830   5.206   6.073   3.557 -1.0154 -1.4260  0.0912
  817MOL0     H 7831   5.368   6.062   3.743  0.8923  1.5176 -1.4412
  817MOL0     H 7832   5.528   6.032   4.066  0.3191  1.0343 -1.3833
  817MOL0     H 7833   5.767   6.042   4.143 -1.3043 -0.9868  0.2682
  817MOL0     H 7834   5.912   6.428   4.080  1.4832  0.8566 -1.0642
  817MOL0     H 7835   6.013   6.293   4.041  1.0314  0.1876  1.2070
  817MOL0     H 7836   6.139   6.489   4.154 -1.2012  0.9780 -0.0160
  817MOL0     H 7837   6.079   6.432   4.302  0.9657  1.8885 -0.5454
  817MOL0     H 7838   6.295   6.332   4.255 -0.2912  0.2045  0.5041
  817MOL0     H 7839   6.225   6.253   4.106  0.1469 -1.8770  0.4617
  817MOL0     H 7840   6.146   6.194   4.390  0.1764  0.2903 -0.1822
  817MOL0     H 7841   6.088   6.108   4.244  0.1029  0.9428 -2.2567
  817MOL0     H 7842   6.450   5.921   4.271 -1.2214 -0.2981  0.5764
  817MOL0     H 7843   5.721   6.482   4.157 -0.2502  0.1881 -0.8500
  817MOL0     H 7844   5.496   6.460   4.084  0.7696  0.5639  1.7793
  818MOL0     O 7845   6.804   9.793   8.696  0.4361  0.4142 -0.1453
  818MOL0     C 7846   6.823   9.866   8.800  0.5840  0.5741 -0.3464
  818MOL0     O 7847   6.736   9.881   8.901 -0.4621 -0.3835 -0.4810
  818MOL0     C 7848   6.613   9.818   8.903 -0.2981  0.5455  0.6309
  818MOL0     C 7849   6.514   9.894   8.954 -0.5442  0.5857  0.1059
  818MOL0     C 7850   6.383   9.854   8.962 -0.2485  0.1141  0.2599
  818MOL0     C 7851   6.349   9.722   8.928 -0.3280 -0.9681  0.6760
  818MOL0     O 7852   6.229   9.663   8.922 -0.4148  0.0251 -0.3861
  818MOL0     C 7853   6.118   9.746   8.953  0.2687 -0.4682 -0.4916
  818MOL0     C 7854   5.996   9.661   8.941 -0.4735  0.1766  0.7431
  818MOL0     C 7855   5.878   9.742   8.901  0.9044  0.8679  0.7448
  818MOL0     C 7856   5.752   9.652   8.902 -0.1264  0.3530 -0.0861
  818MOL0     C 7857   5.627   9.739   8.894 -0.4019 -0.3449 -0.3645
  818MOL0     C 7858   5.524   9.633   8.893  0.2097  0.0546 -0.5686
  818MOL0     C 7859   5.386   9.696   8.904 -0.3427  0.1307 -0.7424
  818MOL0     C 7860   5.358   9.765   9.037  1.7056 -1.4776  0.4118
  818MOL0     N 7861   5.243   9.858   9.027  0.3361 -0.1447 -0.0543
  818MOL0     C 7862   5.244   9.985   8.967 -0.3275  0.3460 -0.5898
  818MOL0     C 7863   5.128  10.038   9.015  0.0276 -0.2396 -0.9190
  818MOL0     C 7864   5.082  10.175   8.989  1.0168  0.1148  0.0880
  818MOL0     C 7865   4.961  10.178   8.886 -0.1378 -0.6999 -0.5316
  818MOL0     C 7866   4.889  10.312   8.892 -0.2879 -0.1867  0.1446
  818MOL0     C 7867   4.770  10.318   8.808  1.0078  1.0367 -0.7504
  818MOL0     O 7868   4.655  10.298   8.890  0.1927  0.7422 -0.1939
  818MOL0     C 7869   4.539  10.262   8.823 -0.4630 -0.1800 -0.0354
  818MOL0     C 7870   4.447  10.211   8.906  0.3821 -0.0740  0.2664
  818MOL0     C 7871   4.322  10.165   8.850 -0.4196 -0.6773  1.2175
  818MOL0     C 7872   4.304  10.172   8.703  1.4234 -0.7035 -0.5446
  818MOL0     C 7873   4.166  10.128   8.648  0.7578  0.6015 -0.7155
  818MOL0     O 7874   4.069  10.084   8.723  0.2250  0.0779  0.3599
  818MOL0     C 7875   3.940  10.075   8.677  0.6019  0.1002 -0.7102
  818MOL0     C 7876   3.890   9.963   8.613 -0.4575 -0.4788 -0.0494
  818MOL0     C 7877   3.760   9.958   8.572  0.6315 -0.2532 -0.1452
  818MOL0     C 7878   3.662  10.053   8.606 -0.0338  0.4437 -0.3985
  818MOL0     O 7879   3.528  10.050   8.575 -0.7663 -0.2480  0.4023
  818MOL0     C 7880   3.481   9.962   8.473 -0.0056  0.1837  0.0522
  818MOL0     C 7881   3.340   9.988   8.451 -0.4829 -0.1859 -0.9068
  818MOL0     C 7882   3.255   9.933   8.564 -0.3077 -0.1000  0.4747
  818MOL0     C 7883   3.113   9.949   8.511 -0.7214 -0.1328  0.8915
  818MOL0     C 7884   3.010   9.879   8.593  1.1023  0.0064  0.7871
  818MOL0     C 7885   2.862   9.927   8.577 -0.3034 -0.4757  0.6753
  818MOL0     C 7886   2.816   9.910   8.432  0.4258  0.3639  0.0311
  818MOL0     C 7887   2.710  10.006   8.394 -0.6251  0.1741  0.9052
  818MOL0    Cl 7888   2.578   9.981   8.515  0.0777  0.4578 -0.6102
  818MOL0     C 7889   3.708  10.159   8.676  0.2556 -1.2343 -0.5675
  818MOL0     C 7890   3.847  10.177   8.703 -0.5463  1.0124  0.1273
  818MOL0     O 7891   4.162  10.117   8.525 -0.2962  0.2268 -0.2341
  818MOL0     C 7892   4.401  10.208   8.620  0.3644 -0.2880  0.4350
  818MOL0     C 7893   4.518  10.265   8.681  0.0516  0.2868  0.0532
  818MOL0     N 7894   5.054   9.945   9.087  1.0775 -0.1603  0.6495
  818MOL0     N 7895   5.129   9.841   9.098 -0.4575  0.1057  0.0750
  818MOL0     C 7896   6.454   9.644   8.882 -0.7016  0.2719  0.6779
  818MOL0     C 7897   6.584   9.687   8.862  0.2216 -0.6605 -0.0141
  818MOL0     C 7898   6.947   9.948   8.796  0.3432  0.4950  0.2421
  818MOL0     C 7899   6.957  10.058   8.885  0.1619  0.0661  0.8001
  818MOL0     C 7900   7.059  10.155   8.854  0.4427 -0.0837 -0.4564
  818MOL0     C 7901   7.138  10.142   8.739 -1.2212  0.2122  0.1189
  818MOL0     O 7902   7.243  10.233   8.733  0.0927  0.1851  0.0906
  818MOL0     C 7903   7.351  10.197   8.636  0.8986  0.0622  0.2176
  818MOL0     C 7904   7.451  10.321   8.629  0.3230 -0.7425 -0.6451
  818MOL0     C 7905   7.381  10.445   8.571 -0.1581 -0.4560 -0.0499
  818MOL0     C 7906   7.475  10.571   8.592 -0.1243  0.4749  0.1159
  818MOL0     C 7907   7.575  10.578   8.481  0.2559  0.2311 -0.1014
  818MOL0     C 7908   7.651  10.591   8.386  0.0537  0.1915  0.7624
  818MOL0     C 7909   7.128  10.024   8.655 -1.0789  0.1344 -0.3964
  818MOL0     C 7910   7.039   9.927   8.692  0.6958 -0.4773  0.5683
  818MOL0     H 7911   6.548   9.991   8.989 -0.9402  1.3036 -1.4246
  818MOL0     H 7912   6.316   9.925   9.007 -1.1926 -1.6634  1.7845
  818MOL0     H 7913   6.101   9.829   8.884 -0.9593 -0.0882  0.2264
  818MOL0     H 7914   6.129   9.775   9.058  0.2434 -0.1310 -0.5797
  818MOL0     H 7915   5.969   9.619   9.038  2.7480 -3.3464  0.3392
  818MOL0     H 7916   6.003   9.573   8.875 -2.2726 -0.3020  1.1433
  818MOL0     H 7917   5.899   9.776   8.800 -2.6268 -1.0555 -0.7931
  818MOL0     H 7918   5.849   9.831   8.959 -0.3658  1.7771 -1.1923
  818MOL0     H 7919   5.763   9.581   8.819 -1.0335 -1.5710  1.3431
  818MOL0     H 7920   5.751   9.585   8.989  0.4326  0.1540 -0.2240
  818MOL0     H 7921   5.639   9.802   8.806  1.7352 -0.5195 -0.2438
  818MOL0     H 7922   5.628   9.804   8.982  1.2350 -0.4820 -0.2420
  818MOL0     H 7923   5.542   9.558   8.970  1.6891  0.5718 -0.3833
  818MOL0     H 7924   5.542   9.580   8.799  1.3466 -1.0664  0.2464
  818MOL0     H 7925   5.364   9.761   8.818  1.4645 -0.0215 -1.3551
  818MOL0     H 7926   5.309   9.618   8.905 -0.9124  0.6530  1.3221
  818MOL0     H 7927   5.437   9.828   9.078  3.3002 -4.0708  1.5119
  818MOL0     H 7928   5.344   9.688   9.113  0.5309  0.5153  2.3429
  818MOL0     H 7929   5.325  10.027   8.909 -0.2245 -0.5389 -1.1025
  818MOL0     H 7930   5.167  10.224   8.940 -1.9482  4.1798 -1.6016
  818MOL0     H 7931   5.045  10.233   9.074  0.9338 -0.8741  0.7421
  818MOL0     H 7932   4.894  10.099   8.922  0.7045 -0.7207  1.1306
  818MOL0     H 7933   4.980  10.167   8.779 -0.6873 -0.2912 -0.6719
  818MOL0     H 7934   4.872  10.338   8.997  0.4457  1.2995 -0.0762
  818MOL0     H 7935   4.971  10.381   8.870  1.4091  0.1704  5.9548
  818MOL0     H 7936   4.782  10.240   8.732 -1.6753  0.6014 -0.8340
  818MOL0     H 7937   4.758  10.410   8.749  2.2044  1.9460  0.3649
  818MOL0     H 7938   4.458  10.199   9.013  0.6292 -3.3976 -0.0055
  818MOL0     H 7939   4.243  10.137   8.918  0.0227 -0.3964  1.8579
  818MOL0     H 7940   3.956   9.886   8.574  1.1565  1.5627 -1.5921
  818MOL0     H 7941   3.722   9.875   8.513 -2.8519 -0.0207  1.5529
  818MOL0     H 7942   3.497   9.858   8.505  1.3951  0.8187  1.5798
  818MOL0     H 7943   3.543   9.970   8.383  0.0270 -3.3434 -0.4070
  818MOL0     H 7944   3.309   9.945   8.355 -0.8460 -1.2167 -0.3423
  818MOL0     H 7945   3.325  10.096   8.442  0.0686 -0.1255 -1.2038
  818MOL0     H 7946   3.270   9.983   8.660  0.5368 -2.1879  1.4797
  818MOL0     H 7947   3.279   9.827   8.573  1.0660  0.0451 -0.9306
  818MOL0     H 7948   3.092  10.056   8.507  0.3096  0.0415 -0.7502
  818MOL0     H 7949   3.100   9.912   8.409 -0.7239  0.4800  0.6656
  818MOL0     H 7950   3.039   9.883   8.698  1.2569 -0.9993  0.7959
  818MOL0     H 7951   3.003   9.774   8.564  0.5721  0.1646  0.3310
  818MOL0     H 7952   2.847  10.018   8.636  0.5539 -1.0193  1.7840
  818MOL0     H 7953   2.797   9.855   8.627 -0.0862 -0.5251  0.8902
  818MOL0     H 7954   2.896   9.938   8.363  0.1919 -0.9947 -0.8251
  818MOL0     H 7955   2.791   9.805   8.412  0.6838  0.3721 -0.3562
  818MOL0     H 7956   2.675   9.989   8.292  1.3163 -2.2381  0.5613
  818MOL0     H 7957   2.754  10.106   8.405  0.3106 -0.1147 -0.0929
  818MOL0     H 7958   3.640  10.224   8.730  2.2099 -1.2467  2.0518
  818MOL0     H 7959   3.877  10.259   8.768  2.5212 -0.3864  0.6561
  818MOL0     H 7960   4.375  10.195   8.515 -1.1344  0.6284  0.6650
  818MOL0     H 7961   4.592  10.306   8.613 -1.9254  2.1789 -1.0695
  818MOL0     H 7962   6.428   9.540   8.863  1.4138 -0.7753  2.9041
  818MOL0     H 7963   6.658   9.622   8.816  0.4187 -0.0664 -0.5437
  818MOL0     H 7964   6.891  10.065   8.971  0.7983 -2.4631  1.5903
  818MOL0     H 7965   7.075  10.244   8.915 -1.0348 -0.5075  0.6115
  818MOL0     H 7966   7.310  10.183   8.536  0.9740  3.4267 -0.4040
  818MOL0     H 7967   7.400  10.107   8.674 -0.9253 -1.1150 -0.0665
  818MOL0     H 7968   7.491  10.343   8.729  0.4092  0.2795 -0.8876
  818MOL0     H 7969   7.536  10.290   8.568  0.7619 -0.8076 -0.0158
  818MOL0     H 7970   7.280  10.462   8.611 -2.1072 -1.3118 -4.0414
  818MOL0     H 7971   7.369  10.415   8.466 -0.7088 -3.4659  0.7758
  818MOL0     H 7972   7.414  10.661   8.586 -0.9396 -0.0652  0.2201
  818MOL0     H 7973   7.526  10.562   8.689 -1.6678  0.9002  0.9885
  818MOL0     H 7974   7.728  10.608   8.314 -0.9255  1.0544 -0.1190
  818MOL0     H 7975   7.183  10.000   8.564 -0.3799  1.6133 -0.3929
  818MOL0     H 7976   7.025   9.842   8.625  1.2129 -1.0556  1.1710
  819MOL0     O 7977   4.782   8.934   7.745  0.3922 -0.1715 -0.0717
  819MOL0     C 7978   4.824   9.018   7.826  0.7706  1.2720  0.0549
  819MOL0     O 7979   4.777   9.041   7.951 -1.1009 -0.0299  0.3794
  819MOL0     C 7980   4.672   8.963   7.985 -1.0653  0.2101 -0.6256
  819MOL0     C 7981   4.686   8.860   8.082 -0.1357  0.4889  0.6998
  819MOL0     C 7982   4.588   8.764   8.109  0.2418 -0.6638 -0.5830
  819MOL0     C 7983   4.469   8.782   8.043 -0.1792  0.3857  0.6370
  819MOL0     O 7984   4.357   8.696   8.054 -0.2691 -0.2883 -0.1618
  819MOL0     C 7985   4.360   8.586   8.151 -0.9905 -0.8947 -0.5164
  819MOL0     C 7986   4.225   8.514   8.121 -0.4234 -0.2920  0.0153
  819MOL0     C 7987   4.190   8.407   8.217  0.2789  0.0008  0.9380
  819MOL0     C 7988   4.051   8.344   8.201  0.8308 -0.1938  0.0223
  819MOL0     C 7989   3.933   8.440   8.211 -0.1951 -0.1813  0.0117
  819MOL0     C 7990   3.800   8.376   8.176  0.3497  0.5074  0.5524
  819MOL0     C 7991   3.684   8.467   8.181 -1.1576 -0.5432 -0.5611
  819MOL0     C 7992   3.570   8.427   8.093  0.1639 -0.1402  0.3467
  819MOL0     N 7993   3.462   8.526   8.097 -0.1755 -0.5929  0.0718
  819MOL0     C 7994   3.468   8.645   8.030  0.0441 -0.0770 -0.2883
  819MOL0     C 7995   3.338   8.685   8.015  0.5350 -0.3163 -0.3356
  819MOL0     C 7996   3.282   8.810   7.948  0.4968 -0.4284 -0.4642
  819MOL0     C 7997   3.129   8.834   7.967 -0.0301 -0.5896 -0.5247
  819MOL0     C 7998   3.095   8.953   7.888 -0.2039 -1.0986 -0.1310
  819MOL0     C 7999   2.944   8.986   7.897  0.9600 -0.3604 -0.5576
  819MOL0     O 8000   2.913   9.063   8.010 -0.1644 -0.1750  0.3112
  819MOL0     C 8001   2.790   9.045   8.069 -0.9284 -0.2636 -0.1772
  819MOL0     C 8002   2.775   9.095   8.195 -0.5784  0.1233 -1.0421
  819MOL0     C 8003   2.654   9.105   8.261 -0.6789  0.2985  0.1449
  819MOL0     C 8004   2.537   9.062   8.187 -0.0221  0.7251 -0.9839
  819MOL0     C 8005   2.403   9.078   8.255  0.1596  0.4430  0.2248
  819MOL0     O 8006   2.306   9.040   8.177 -0.1948 -0.0631  0.2740
  819MOL0     C 8007   2.174   9.029   8.216  0.6588  0.5916  0.0585
  819MOL0     C 8008   2.123   8.963   8.339  0.1093  0.0234 -0.0627
  819MOL0     C 8009   1.996   8.988   8.379  0.9802  0.2316 -0.1041
  819MOL0     C 8010   1.905   9.033   8.282  0.7604  0.1791  0.3883
  819MOL0     O 8011   1.770   9.037   8.292  0.1598 -0.0609 -0.1093
  819MOL0     C 8012   1.712   9.104   8.406 -0.7839  0.2065 -0.2344
  819MOL0     C 8013   1.570   9.137   8.373 -0.3460 -0.1188  0.1626
  819MOL0     C 8014   1.551   9.258   8.296  0.6768 -0.5654  0.8108
  819MOL0     C 8015   1.406   9.286   8.256 -0.6633  0.4577  0.5564
  819MOL0     C 8016   1.374   9.209   8.122 -0.8825 -0.2399 -0.2958
  819MOL0     C 8017   1.234   9.233   8.073  0.3468  0.8234 -0.2431
  819MOL0     C 8018   1.225   9.361   7.990 -0.0100 -0.0297 -0.2842
  819MOL0     C 8019   1.096   9.375   7.913  0.3718  0.9800  1.1309
  819MOL0    Cl 8020   1.042   9.222   7.834  0.4562 -0.0901 -0.1021
  819MOL0     C 8021   1.950   9.076   8.161 -0.5708 -0.4559 -0.0065
  819MOL0     C 8022   2.079   9.090   8.133  0.1934  0.2608  1.4250
  819MOL0     O 8023   2.393   9.134   8.363  0.1094  0.0366 -0.1316
  819MOL0     C 8024   2.548   9.016   8.054  0.5924  0.1482 -0.2717
  819MOL0     C 8025   2.676   9.006   7.997 -0.1080 -0.3057 -0.6948
  819MOL0     N 8026   3.258   8.596   8.084  0.2713 -0.5834  0.9039
  819MOL0     N 8027   3.338   8.501   8.129  0.1315  1.2982  0.2057
  819MOL0     C 8028   4.447   8.893   7.959 -0.3973 -0.5721  0.5599
  819MOL0     C 8029   4.548   8.979   7.922 -0.1007 -0.2318  0.4917
  819MOL0     C 8030   4.927   9.118   7.783  0.1222  0.6251  0.5456
  819MOL0     C 8031   4.968   9.214   7.864 -0.7919 -0.7295  0.1136
  819MOL0     C 8032   5.082   9.294   7.835  0.4581  0.5947  0.2119
  819MOL0     C 8033   5.136   9.282   7.709 -0.5347  0.6011  0.5144
  819MOL0     O 8034   5.233   9.368   7.668 -0.3229  0.0024 -0.3528
  819MOL0     C 8035   5.351   9.390   7.743 -0.6677 -0.2511  0.7511
  819MOL0     C 8036   5.456   9.449   7.641 -0.0299  0.3807 -0.0359
  819MOL0     C 8037   5.589   9.496   7.702 -0.7367 -0.0791 -0.0280
  819MOL0     C 8038   5.697   9.514   7.590  0.1541  0.1564 -0.2061
  819MOL0     C 8039   5.827   9.571   7.644  0.6056  0.5150  0.3823
  819MOL0     C 8040   5.922   9.637   7.683 -0.4527 -0.2084  0.0838
  819MOL0     C 8041   5.102   9.172   7.632 -0.7174 -0.5677 -0.2572
  819MOL0     C 8042   4.991   9.094   7.661  1.1863  0.1354 -0.2162
  819MOL0     H 8043   4.776   8.843   8.140  1.8292  1.3006 -1.9441
  819MOL0     H 8044   4.604   8.685   8.182  1.5707  2.3549  2.6408
  819MOL0     H 8045   4.365   8.612   8.257 -0.8363  0.4343 -0.8284
  819MOL0     H 8046   4.449   8.523   8.153  0.3245  0.7553  3.5619
  819MOL0     H 8047   4.217   8.472   8.020  0.1295 -1.1074  0.2983
  819MOL0     H 8048   4.151   8.594   8.131 -0.7030 -0.4112 -0.9330
  819MOL0     H 8049   4.195   8.436   8.322 -1.5698 -1.1436  1.3987
  819MOL0     H 8050   4.256   8.321   8.198 -0.6349 -0.3701 -0.8142
  819MOL0     H 8051   4.039   8.291   8.107 -3.1989  4.2621 -2.4778
  819MOL0     H 8052   4.044   8.266   8.278  2.8906 -0.9178 -0.4621
  819MOL0     H 8053   3.940   8.524   8.141 -3.0301 -0.1031 -0.3209
  819MOL0     H 8054   3.940   8.482   8.311 -2.2817  0.8483 -0.2078
  819MOL0     H 8055   3.786   8.288   8.239  3.4490  0.0741  0.8117
  819MOL0     H 8056   3.809   8.341   8.072 -1.2466  0.3110  0.4562
  819MOL0     H 8057   3.649   8.479   8.285 -2.4807  1.6640 -1.1822
  819MOL0     H 8058   3.719   8.569   8.164  0.1664 -0.7558  0.6588
  819MOL0     H 8059   3.537   8.328   8.124  1.2544 -0.7622 -0.4206
  819MOL0     H 8060   3.608   8.418   7.990 -3.0603 -1.8457 -0.8455
  819MOL0     H 8061   3.559   8.694   7.996  0.3636 -0.9806 -0.7644
  819MOL0     H 8062   3.301   8.817   7.840  0.3677 -0.5311 -0.4944
  819MOL0     H 8063   3.332   8.897   7.990  2.1033 -1.6256  0.2409
  819MOL0     H 8064   3.101   8.851   8.072  0.7061 -0.4610 -0.3412
  819MOL0     H 8065   3.077   8.745   7.931  3.5260 -1.5925 -3.9949
  819MOL0     H 8066   3.150   9.042   7.919 -0.2377 -1.3037  0.5398
  819MOL0     H 8067   3.110   8.941   7.780 -0.4472  0.2801 -0.3369
  819MOL0     H 8068   2.896   8.888   7.901 -0.0299  0.1054 -0.7296
  819MOL0     H 8069   2.906   9.037   7.808  1.5158  0.1337 -0.5201
  819MOL0     H 8070   2.864   9.126   8.249  2.0214 -2.2241 -3.6182
  819MOL0     H 8071   2.654   9.139   8.364 -0.3686  2.1900 -0.4525
  819MOL0     H 8072   2.190   8.915   8.410 -1.0172 -1.7327 -0.1337
  819MOL0     H 8073   1.953   8.961   8.475  0.5968  1.2266  0.0209
  819MOL0     H 8074   1.762   9.195   8.442 -0.4468  0.8968 -2.3468
  819MOL0     H 8075   1.709   9.031   8.488  3.3746 -0.1332 -0.1718
  819MOL0     H 8076   1.511   9.136   8.465 -1.3486  0.0192 -0.4582
  819MOL0     H 8077   1.530   9.050   8.319  1.8724  0.7214 -3.1775
  819MOL0     H 8078   1.609   9.245   8.204 -0.1701  2.4726 -0.2894
  819MOL0     H 8079   1.582   9.342   8.359  1.9706 -2.0445  2.2470
  819MOL0     H 8080   1.337   9.266   8.338 -0.3914 -3.1781  0.0828
  819MOL0     H 8081   1.391   9.389   8.223  2.5929  0.6384 -0.8172
  819MOL0     H 8082   1.388   9.103   8.144  0.9479 -0.1624 -0.8881
  819MOL0     H 8083   1.442   9.238   8.041 -1.3052 -1.8389 -1.2723
  819MOL0     H 8084   1.172   9.237   8.162 -0.0772  0.5988 -0.5257
  819MOL0     H 8085   1.209   9.137   8.027  1.5314 -0.0625  0.8862
  819MOL0     H 8086   1.216   9.443   8.061 -2.7438  0.4165 -1.0324
  819MOL0     H 8087   1.314   9.375   7.928  0.0641  1.6396  0.1604
  819MOL0     H 8088   1.108   9.455   7.839  0.9123  0.7484  0.9583
  819MOL0     H 8089   1.017   9.403   7.982 -1.6182 -1.7048  0.1149
  819MOL0     H 8090   1.867   9.123   8.108 -0.4256  0.9214  0.9298
  819MOL0     H 8091   2.122   9.123   8.039  0.6930 -0.9035  1.2373
  819MOL0     H 8092   2.466   8.994   7.986  0.5589 -3.4045  0.7291
  819MOL0     H 8093   2.693   8.976   7.894  0.8682 -2.3702  0.0030
  819MOL0     H 8094   4.352   8.908   7.908 -1.2407 -5.2758  0.2318
  819MOL0     H 8095   4.533   9.067   7.861  1.0941  0.3452  0.9941
  819MOL0     H 8096   4.930   9.231   7.964  1.1923  0.6598  0.6965
  819MOL0     H 8097   5.116   9.371   7.904  0.1589  3.1333 -2.2952
  819MOL0     H 8098   5.383   9.292   7.781 -3.3069 -0.5307  2.5304
  819MOL0     H 8099   5.322   9.446   7.832 -0.2689  0.6099  0.3483
  819MOL0     H 8100   5.478   9.358   7.585 -0.1442 -0.4048  1.1708
  819MOL0     H 8101   5.425   9.520   7.563 -0.7725  0.0194 -0.0749
  819MOL0     H 8102   5.633   9.437   7.783  0.6850  0.9140 -0.0280
  819MOL0     H 8103   5.574   9.592   7.752 -4.0423 -1.4486  1.9461
  819MOL0     H 8104   5.721   9.416   7.548  3.2246 -0.4957  2.5973
  819MOL0     H 8105   5.655   9.585   7.519 -0.3452  0.6139  0.5353
  819MOL0     H 8106   6.006   9.692   7.720  0.2083 -0.8826 -0.3656
  819MOL0     H 8107   5.144   9.160   7.533  0.6232  1.1351  0.0742
  819MOL0     H 8108   4.945   9.024   7.591  0.4497  0.2415  0.1508
  820MOL0     O 8109   4.072   7.511   9.408  0.6844 -0.3240 -0.6215
  820MOL0     C 8110   4.043   7.399   9.381 -0.4162  0.6094  0.0322
  820MOL0     O 8111   4.119   7.286   9.417 -0.0904 -0.0321 -0.7871
  820MOL0     C 8112   4.249   7.303   9.438  0.1248 -0.6195 -0.8608
  820MOL0     C 8113   4.307   7.226   9.544 -0.7465 -1.0954 -0.8265
  820MOL0     C 8114   4.453   7.234   9.558 -0.3127  0.1846 -0.2076
  820MOL0     C 8115   4.541   7.316   9.478  0.4864  0.0848 -0.1052
  820MOL0     O 8116   4.674   7.321   9.502  0.0896  0.2024 -0.1960
  820MOL0     C 8117   4.731   7.458   9.496  0.4377  1.4811  0.7062
  820MOL0     C 8118   4.873   7.482   9.550 -0.0664 -0.6720 -0.2433
  820MOL0     C 8119   4.879   7.517   9.688  0.5005  0.2642 -0.2368
  820MOL0     C 8120   5.016   7.568   9.716 -0.2000 -0.3427  0.3375
  820MOL0     C 8121   5.039   7.714   9.673 -0.6751  0.3261  0.8325
  820MOL0     C 8122   5.179   7.764   9.723  0.3304 -0.5225  0.2326
  820MOL0     C 8123   5.195   7.914   9.697  0.2261 -0.1696 -0.2069
  820MOL0     C 8124   5.334   7.963   9.742  0.1443  0.0921  0.3548
  820MOL0     N 8125   5.352   8.111   9.722 -0.5217 -0.0266 -0.0567
  820MOL0     C 8126   5.336   8.176   9.603  0.1343  0.4699 -0.2224
  820MOL0     C 8127   5.341   8.302   9.630 -0.4568 -0.1831  0.5398
  820MOL0     C 8128   5.306   8.418   9.535 -0.7647 -0.2231  0.0936
  820MOL0     C 8129   5.267   8.555   9.597  0.1808 -1.1392 -0.5042
  820MOL0     C 8130   5.141   8.530   9.692 -0.5715  0.1886 -0.1717
  820MOL0     C 8131   5.088   8.661   9.731 -0.4191  0.3156 -0.0664
  820MOL0     O 8132   4.991   8.650   9.834 -0.2230  0.8075  0.0096
  820MOL0     C 8133   4.859   8.637   9.806  0.2482 -0.7454 -0.0563
  820MOL0     C 8134   4.764   8.663   9.910 -0.0247 -0.0235  0.1573
  820MOL0     C 8135   4.628   8.661   9.892 -0.5707 -0.4319  0.1633
  820MOL0     C 8136   4.573   8.628   9.768 -0.2609 -0.7331 -0.2797
  820MOL0     C 8137   4.425   8.609   9.755 -0.0446  1.3692  0.5298
  820MOL0     O 8138   4.366   8.516   9.670 -0.0628 -0.2414  0.1342
  820MOL0     C 8139   4.230   8.505   9.659 -0.9733 -0.8345 -0.2165
  820MOL0     C 8140   4.144   8.614   9.630  0.0664  0.7673 -0.9458
  820MOL0     C 8141   4.011   8.594   9.590  0.9366 -0.1717 -0.3610
  820MOL0     C 8142   3.955   8.462   9.600 -0.3066  0.6433 -0.1678
  820MOL0     O 8143   3.820   8.444   9.568 -0.4003 -0.7541  0.3189
  820MOL0     C 8144   3.776   8.332   9.486 -0.7889  0.6116  0.9135
  820MOL0     C 8145   3.625   8.349   9.452 -0.3744  0.6310  0.4767
  820MOL0     C 8146   3.530   8.324   9.573 -0.1021 -1.0928  0.9600
  820MOL0     C 8147   3.380   8.295   9.534 -0.0810 -0.0817  0.3068
  820MOL0     C 8148   3.311   8.382   9.432  0.7827 -0.3977  0.9042
  820MOL0     C 8149   3.154   8.358   9.433  0.2168  0.6288  0.4864
  820MOL0     C 8150   3.099   8.237   9.371 -0.0658 -0.3504  0.2681
  820MOL0     C 8151   2.942   8.240   9.389  0.6586 -0.0432  0.3009
  820MOL0    Cl 8152   2.863   8.304   9.249 -0.2160  0.0117  0.0703
  820MOL0     C 8153   4.045   8.355   9.627 -0.1147 -0.0864 -0.5211
  820MOL0     C 8154   4.179   8.374   9.658  0.4953 -0.2641  0.1929
  820MOL0     O 8155   4.362   8.677   9.835 -0.0617 -0.6962  0.1060
  820MOL0     C 8156   4.661   8.596   9.659  0.0811  0.3402  0.0993
  820MOL0     C 8157   4.800   8.603   9.681 -0.0987 -0.5858  0.5199
  820MOL0     N 8158   5.371   8.319   9.766 -0.0906  0.2788  0.3724
  820MOL0     N 8159   5.386   8.200   9.822 -0.6379  0.2382  0.9114
  820MOL0     C 8160   4.475   7.400   9.381  0.9181 -0.2490  0.2681
  820MOL0     C 8161   4.335   7.381   9.357  0.5563  0.1675  0.8203
  820MOL0     C 8162   3.913   7.380   9.321 -0.0734  0.0202  0.3140
  820MOL0     C 8163   3.833   7.484   9.265  0.3601  0.0623  0.1393
  820MOL0     C 8164   3.716   7.456   9.201  0.6905 -0.2792 -1.0315
  820MOL0     C 8165   3.666   7.326   9.210 -0.6632  0.1155 -0.1954
  820MOL0     O 8166   3.546   7.292   9.168 -0.9476 -0.4469  0.5005
  820MOL0     C 8167   3.514   7.348   9.038  0.3432  0.7791  0.1338
  820MOL0     C 8168   3.358   7.368   9.033  0.3490 -0.0527 -0.4813
  820MOL0     C 8169   3.305   7.501   9.102 -0.8805 -0.2888  0.2886
  820MOL0     C 8170   3.360   7.629   9.046 -0.0650 -0.0022  0.3927
  820MOL0     C 8171   3.334   7.640   8.904 -0.0850 -0.2708 -0.0832
  820MOL0     C 8172   3.302   7.653   8.792 -0.0009  0.4458  1.2450
  820MOL0     C 8173   3.744   7.217   9.258  0.8540 -0.5306  0.0713
  820MOL0     C 8174   3.861   7.250   9.321 -0.2399 -0.8384  0.0153
  820MOL0     H 8175   4.247   7.172   9.617  0.3927  1.6073  2.3917
  820MOL0     H 8176   4.512   7.179   9.630  0.0123  1.1405  0.2792
  820MOL0     H 8177   4.663   7.529   9.544 -1.1349 -0.6034  1.7739
  820MOL0     H 8178   4.739   7.484   9.390  1.6728  1.5524  0.8118
  820MOL0     H 8179   4.909   7.570   9.496 -2.1541 -0.2268 -1.0254
  820MOL0     H 8180   4.932   7.391   9.540  2.7210  0.6694  2.2227
  820MOL0     H 8181   4.847   7.428   9.742  0.1015  1.0426  0.8409
  820MOL0     H 8182   4.809   7.595   9.721 -1.3910 -2.4528  2.7423
  820MOL0     H 8183   5.032   7.563   9.825 -0.5540  0.9263  0.4692
  820MOL0     H 8184   5.093   7.503   9.674  1.4456  1.4684  0.3988
  820MOL0     H 8185   4.967   7.773   9.730 -1.8467 -0.4385  0.1943
  820MOL0     H 8186   5.035   7.725   9.565 -0.2969 -1.0228  0.6543
  820MOL0     H 8187   5.253   7.706   9.667  0.3224  0.0339 -0.3693
  820MOL0     H 8188   5.181   7.748   9.831 -0.2286  1.3395  0.5596
  820MOL0     H 8189   5.178   7.930   9.591 -1.5532 -0.8249 -0.0526
  820MOL0     H 8190   5.113   7.966   9.747  0.1785  0.4901 -0.9573
  820MOL0     H 8191   5.419   7.909   9.700 -1.8527 -2.6529 -0.4013
  820MOL0     H 8192   5.335   7.950   9.851  0.8477  4.8159  1.1448
  820MOL0     H 8193   5.317   8.128   9.508  2.7740  0.4026 -0.8050
  820MOL0     H 8194   5.214   8.390   9.483 -0.0368  0.6400 -1.7339
  820MOL0     H 8195   5.386   8.439   9.463 -1.0966  1.5080  0.1865
  820MOL0     H 8196   5.243   8.631   9.522 -0.9169 -1.6484 -0.6786
  820MOL0     H 8197   5.351   8.589   9.659  2.4376  0.9034 -4.2371
  820MOL0     H 8198   5.061   8.489   9.629  0.9360 -2.7399 -0.3870
  820MOL0     H 8199   5.164   8.461   9.774  0.0687  0.1571 -0.3682
  820MOL0     H 8200   5.041   8.719   9.650  1.3706 -0.8612 -2.0521
  820MOL0     H 8201   5.172   8.726   9.759 -0.4166 -0.2492  1.3210
  820MOL0     H 8202   4.782   8.688  10.013  0.8126  0.0356  0.0020
  820MOL0     H 8203   4.563   8.662   9.978 -0.2273 -2.0416  0.4798
  820MOL0     H 8204   4.195   8.710   9.621  1.6780 -0.0667 -1.1697
  820MOL0     H 8205   3.936   8.670   9.570  1.9946  1.6532  2.0761
  820MOL0     H 8206   3.793   8.239   9.541  0.5575 -0.5181 -1.2391
  820MOL0     H 8207   3.844   8.324   9.400 -1.2826 -0.6404  0.6181
  820MOL0     H 8208   3.596   8.276   9.376  1.0165 -1.3989  1.7750
  820MOL0     H 8209   3.603   8.448   9.412 -2.5447 -0.7425 -2.1105
  820MOL0     H 8210   3.516   8.425   9.611 -2.3829 -0.1320 -2.0778
  820MOL0     H 8211   3.564   8.248   9.644 -0.5644 -1.7679  0.4717
  820MOL0     H 8212   3.364   8.190   9.510 -3.0822  0.3198  0.1955
  820MOL0     H 8213   3.322   8.320   9.623 -0.7364  1.8434 -0.6150
  820MOL0     H 8214   3.350   8.369   9.331  2.0043  4.1615  0.5579
  820MOL0     H 8215   3.339   8.483   9.462  0.0036  0.1434 -0.1455
  820MOL0     H 8216   3.117   8.438   9.368  2.5486 -0.1257 -1.9421
  820MOL0     H 8217   3.120   8.355   9.537  0.3000 -2.1232  0.4838
  820MOL0     H 8218   3.117   8.222   9.264  2.3145 -0.5139  0.6366
  820MOL0     H 8219   3.135   8.141   9.409  1.8881 -0.4327 -1.5800
  820MOL0     H 8220   2.925   8.294   9.482  3.7980  1.2470  0.2388
  820MOL0     H 8221   2.912   8.135   9.400 -0.1169  0.1359 -0.0780
  820MOL0     H 8222   4.018   8.250   9.636  1.7284 -0.7255 -1.8094
  820MOL0     H 8223   4.241   8.288   9.684  1.0844 -0.0553 -0.4866
  820MOL0     H 8224   4.626   8.555   9.565  3.6514 -0.6787 -0.9372
  820MOL0     H 8225   4.864   8.566   9.603 -0.3154  0.0459  0.0296
  820MOL0     H 8226   4.531   7.459   9.309  6.0052 -2.0287  2.2962
  820MOL0     H 8227   4.301   7.436   9.269 -0.6807 -0.1905  1.0601
  820MOL0     H 8228   3.868   7.587   9.271 -0.7072  0.3687  1.7093
  820MOL0     H 8229   3.668   7.544   9.160  1.3472  0.9324  0.6758
  820MOL0     H 8230   3.548   7.280   8.959 -2.8545  1.3011 -1.8477
  820MOL0     H 8231   3.572   7.434   9.005  1.8247 -0.5261 -0.8100
  820MOL0     H 8232   3.315   7.363   8.933  3.4115 -0.7147 -1.8582
  820MOL0     H 8233   3.322   7.281   9.088  2.6017 -1.4782 -1.1619
  820MOL0     H 8234   3.332   7.501   9.208  0.4404 -0.5390 -0.0256
  820MOL0     H 8235   3.196   7.495   9.105 -0.8668 -1.0564 -0.6154
  820MOL0     H 8236   3.321   7.712   9.106  0.9329  0.4994  0.3647
  820MOL0     H 8237   3.468   7.622   9.058  0.2336  2.4056 -0.2583
  820MOL0     H 8238   3.270   7.676   8.692  0.7782 -1.8606  0.3983
  820MOL0     H 8239   3.702   7.118   9.246 -0.2032 -0.0159 -0.7298
  820MOL0     H 8240   3.908   7.162   9.365 -1.2426 -2.5877 -2.2461
  821MOL0     O 8241   3.793   9.280   5.294 -0.7671  0.4592  1.1376
  821MOL0     C 8242   3.864   9.361   5.347 -0.8152 -0.0456 -0.7430
  821MOL0     O 8243   3.901   9.348   5.483  0.2072 -0.3685 -0.9724
  821MOL0     C 8244   3.812   9.297   5.577  0.5982 -0.7455 -0.0468
  821MOL0     C 8245   3.758   9.167   5.563  0.6022  0.9274 -0.2781
  821MOL0     C 8246   3.680   9.122   5.666 -0.8711 -0.3233  0.4155
  821MOL0     C 8247   3.635   9.202   5.776 -0.9230  0.1970  0.2224
  821MOL0     O 8248   3.551   9.159   5.877  0.6265 -0.0822 -0.7154
  821MOL0     C 8249   3.549   9.024   5.916 -0.3143  0.5119 -0.1157
  821MOL0     C 8250   3.533   9.019   6.067  0.2846 -0.2854  0.4874
  821MOL0     C 8251   3.632   9.107   6.127  0.0102  0.0730 -0.3039
  821MOL0     C 8252   3.639   9.092   6.290 -0.6143  0.1843  0.4316
  821MOL0     C 8253   3.525   9.173   6.357 -0.2914 -0.1789 -0.2503
  821MOL0     C 8254   3.508   9.152   6.510  0.3108 -0.2533 -0.6305
  821MOL0     C 8255   3.612   9.201   6.609 -0.2865  0.3952 -0.5472
  821MOL0     C 8256   3.576   9.149   6.751  1.3360 -0.5525  0.6441
  821MOL0     N 8257   3.659   9.193   6.856 -0.1272  0.2879  0.3104
  821MOL0     C 8258   3.709   9.323   6.857  0.6674 -0.5948 -0.4344
  821MOL0     C 8259   3.774   9.327   6.978 -0.3558 -0.9726  0.1652
  821MOL0     C 8260   3.847   9.441   7.040  0.5267  0.6446 -0.3925
  821MOL0     C 8261   3.746   9.532   7.115  1.0128  0.3470 -0.2238
  821MOL0     C 8262   3.818   9.654   7.180  0.2990 -0.0865  0.1654
  821MOL0     C 8263   3.724   9.770   7.208  0.3085  0.4355 -0.4567
  821MOL0     O 8264   3.704   9.860   7.098  0.1296 -0.1545  0.3890
  821MOL0     C 8265   3.592   9.862   7.021  0.2436 -0.1162  1.0415
  821MOL0     C 8266   3.476   9.775   7.042 -0.9959 -0.8044 -0.5042
  821MOL0     C 8267   3.380   9.757   6.945  0.2205  0.0287  0.0004
  821MOL0     C 8268   3.388   9.835   6.829  0.2299  0.0476  0.8670
  821MOL0     C 8269   3.286   9.819   6.722  0.5257  0.0662  0.4634
  821MOL0     O 8270   3.177   9.737   6.750  0.1648  0.2265  0.9079
  821MOL0     C 8271   3.065   9.756   6.671  0.2710 -0.0516 -0.2109
  821MOL0     C 8272   2.991   9.646   6.626  0.5001  1.0419  0.1726
  821MOL0     C 8273   2.870   9.657   6.563 -0.5200 -1.3447  0.5904
  821MOL0     C 8274   2.818   9.786   6.528 -0.2581  0.1630 -1.5463
  821MOL0     O 8275   2.708   9.794   6.449  0.1139 -0.1163 -0.2949
  821MOL0     C 8276   2.646   9.917   6.403  0.2766  0.3968  0.4411
  821MOL0     C 8277   2.526   9.871   6.312 -0.4149 -0.3355  0.6115
  821MOL0     C 8278   2.408   9.821   6.384  0.5318 -0.1915  0.1574
  821MOL0     C 8279   2.309   9.769   6.296 -0.6604 -0.1927 -0.1056
  821MOL0     C 8280   2.189   9.718   6.381 -0.1447 -0.0824  0.0638
  821MOL0     C 8281   2.098   9.627   6.303  0.3274  0.1473 -0.3983
  821MOL0     C 8282   1.976   9.622   6.389  0.7748 -0.4512  0.3364
  821MOL0     C 8283   1.871   9.529   6.327  0.0971 -0.0090  0.7870
  821MOL0    Cl 8284   1.932   9.362   6.305 -0.1461  0.0627  0.2654
  821MOL0     C 8285   2.886   9.901   6.580 -0.0849 -0.1197  0.7775
  821MOL0     C 8286   3.004   9.882   6.656  0.2100 -0.3144 -0.0220
  821MOL0     O 8287   3.310   9.882   6.615 -0.7209  0.6623  0.4035
  821MOL0     C 8288   3.493   9.927   6.810  0.6674  0.1548  0.5444
  821MOL0     C 8289   3.593   9.945   6.907 -0.0166  0.6364  0.6051
  821MOL0     N 8290   3.765   9.195   7.036  0.5445  0.5497  0.0176
  821MOL0     N 8291   3.698   9.116   6.961 -0.5844 -0.2254  0.3782
  821MOL0     C 8292   3.688   9.329   5.783 -0.5518 -0.6636 -1.1155
  821MOL0     C 8293   3.785   9.375   5.687  0.6432  0.2787 -0.2547
  821MOL0     C 8294   3.923   9.473   5.272  0.0858  0.4585 -0.6919
  821MOL0     C 8295   3.892   9.508   5.138 -0.5632 -0.3409  0.3483
  821MOL0     C 8296   3.963   9.620   5.083  0.3254  0.2372  0.1052
  821MOL0     C 8297   4.063   9.694   5.146  0.6463 -0.4930 -0.7491
  821MOL0     O 8298   4.139   9.792   5.095 -0.0765  0.1271  0.0549
  821MOL0     C 8299   4.089   9.882   4.998 -0.3551  0.2206  0.3394
  821MOL0     C 8300   4.057  10.015   5.073 -0.5989 -0.3609  0.3734
  821MOL0     C 8301   3.922  10.005   5.150 -0.1199  0.1158  0.3844
  821MOL0     C 8302   3.933  10.054   5.284  0.0740  0.1987 -0.7194
  821MOL0     C 8303   3.948  10.201   5.284  0.4602 -0.1156  0.2762
  821MOL0     C 8304   3.963  10.320   5.294 -0.1739 -0.1949 -0.5111
  821MOL0     C 8305   4.089   9.648   5.276  0.2613 -0.2375 -0.5554
  821MOL0     C 8306   4.017   9.549   5.338  0.4904  0.5760  0.0422
  821MOL0     H 8307   3.795   9.097   5.488  2.8319 -1.4979  2.7845
  821MOL0     H 8308   3.648   9.018   5.660  2.4575 -1.6894  3.0446
  821MOL0     H 8309   3.647   8.983   5.891  1.2020  5.3330 -3.4838
  821MOL0     H 8310   3.467   8.971   5.868 -1.8612  0.6850  2.1758
  821MOL0     H 8311   3.540   8.918   6.110  2.0761 -0.8633 -1.0571
  821MOL0     H 8312   3.428   9.043   6.087 -0.0332 -0.7213 -0.5842
  821MOL0     H 8313   3.615   9.215   6.120 -2.4260 -0.0895  1.6370
  821MOL0     H 8314   3.723   9.080   6.074  0.7490 -0.5359  1.2214
  821MOL0     H 8315   3.610   8.993   6.326 -2.1822  0.2962 -0.4268
  821MOL0     H 8316   3.739   9.121   6.325  0.5927  1.2946 -3.4200
  821MOL0     H 8317   3.431   9.149   6.306 -0.1233  0.1103 -0.7068
  821MOL0     H 8318   3.537   9.278   6.332 -1.2355 -0.0814 -0.3248
  821MOL0     H 8319   3.492   9.045   6.529  3.5920 -1.2400 -2.6159
  821MOL0     H 8320   3.417   9.199   6.550  0.5158 -1.1477  0.9968
  821MOL0     H 8321   3.711   9.159   6.589 -0.4355 -0.8932  1.1873
  821MOL0     H 8322   3.610   9.310   6.612  0.4140  0.4007 -0.1906
  821MOL0     H 8323   3.561   9.040   6.751  2.1729 -0.7688 -2.3345
  821MOL0     H 8324   3.480   9.195   6.776  1.4425  1.0218 -1.5496
  821MOL0     H 8325   3.689   9.403   6.786 -1.2024 -1.7151 -1.2416
  821MOL0     H 8326   3.898   9.500   6.963 -1.9919  0.8235 -2.0446
  821MOL0     H 8327   3.924   9.391   7.101 -0.3916 -1.4081 -0.8406
  821MOL0     H 8328   3.685   9.481   7.190  0.4740  0.7739 -0.3636
  821MOL0     H 8329   3.678   9.571   7.039  0.1750  0.2936  0.4837
  821MOL0     H 8330   3.860   9.619   7.275  0.9949 -0.3073 -0.2164
  821MOL0     H 8331   3.894   9.695   7.113 -0.1595 -1.3358 -1.1776
  821MOL0     H 8332   3.768   9.832   7.288 -0.9996 -0.4055  0.9739
  821MOL0     H 8333   3.638   9.732   7.263  0.8028 -2.0513 -1.2652
  821MOL0     H 8334   3.482   9.710   7.129 -0.3373  3.2459  2.8320
  821MOL0     H 8335   3.309   9.676   6.962 -3.4773  3.1384  0.8250
  821MOL0     H 8336   3.029   9.546   6.646  1.5216  1.0173 -1.7072
  821MOL0     H 8337   2.812   9.569   6.535  1.2527 -2.1707 -0.6511
  821MOL0     H 8338   2.722   9.959   6.336 -1.1101  1.0741 -0.7658
  821MOL0     H 8339   2.619   9.988   6.481  0.2975  1.0513 -0.1291
  821MOL0     H 8340   2.560   9.794   6.243 -4.3898 -1.6767 -0.1270
  821MOL0     H 8341   2.492   9.955   6.251 -0.3050 -2.7276 -3.0794
  821MOL0     H 8342   2.357   9.908   6.426 -0.4005 -0.5877 -0.1291
  821MOL0     H 8343   2.438   9.760   6.470  2.0155  1.6367  1.0151
  821MOL0     H 8344   2.273   9.835   6.216  0.0234  0.0677 -0.2097
  821MOL0     H 8345   2.357   9.679   6.256 -2.3993 -3.0449  3.6066
  821MOL0     H 8346   2.127   9.805   6.403  0.5881  0.7445 -1.0464
  821MOL0     H 8347   2.221   9.665   6.472 -0.3490 -2.1299 -1.0051
  821MOL0     H 8348   2.140   9.527   6.289 -0.1601 -0.0564 -0.4420
  821MOL0     H 8349   2.067   9.664   6.205  0.5311 -0.7049 -0.7953
  821MOL0     H 8350   2.008   9.583   6.486 -2.1294 -1.8875  0.8337
  821MOL0     H 8351   1.931   9.721   6.388  1.1572 -0.2311  1.9361
  821MOL0     H 8352   1.853   9.565   6.225  1.0406  0.6061  0.8239
  821MOL0     H 8353   1.783   9.536   6.392  0.6521 -1.0394  1.6751
  821MOL0     H 8354   2.846   9.993   6.540 -0.7364 -0.6086  0.2734
  821MOL0     H 8355   3.069   9.962   6.688  1.7469 -0.6935 -2.0425
  821MOL0     H 8356   3.515   9.991   6.725  0.7392 -1.5847 -0.7892
  821MOL0     H 8357   3.690   9.992   6.891 -0.0957  1.8933  3.3741
  821MOL0     H 8358   3.659   9.385   5.871 -1.5138 -1.4841 -0.8963
  821MOL0     H 8359   3.833   9.473   5.689 -0.6634  0.9767 -1.4539
  821MOL0     H 8360   3.827   9.455   5.069 -1.8191  1.3252  0.2198
  821MOL0     H 8361   3.931   9.640   4.981  0.2870  1.0374  0.2666
  821MOL0     H 8362   4.000   9.842   4.948  1.4068 -2.2265 -1.0239
  821MOL0     H 8363   4.168   9.908   4.928  0.4560 -0.0911  1.1201
  821MOL0     H 8364   4.146  10.023   5.135 -1.5966  1.6236  1.6715
  821MOL0     H 8365   4.059  10.100   5.004 -1.7707  0.1176  0.8946
  821MOL0     H 8366   3.881   9.905   5.133  0.8523  0.0822 -2.1221
  821MOL0     H 8367   3.849  10.067   5.097 -0.7794 -1.4309 -0.5873
  821MOL0     H 8368   3.842  10.035   5.342 -1.2659  0.2674 -2.7006
  821MOL0     H 8369   4.016  10.005   5.336 -0.9173 -2.8484 -1.8030
  821MOL0     H 8370   3.966  10.424   5.320 -0.1251  0.0656 -1.5260
  821MOL0     H 8371   4.176   9.697   5.318  1.2233  0.1108 -2.7705
  821MOL0     H 8372   4.050   9.530   5.439 -0.6201 -0.5278  0.2238
  822MOL0     O 8373   5.854   3.050   6.447  0.1820  0.2941 -0.1959
  822MOL0     C 8374   5.854   3.017   6.330  0.0969 -0.1108  0.4258
  822MOL0     O 8375   5.797   3.084   6.225  0.9765  0.8157 -0.5112
  822MOL0     C 8376   5.717   3.198   6.238 -0.6665  0.1012 -0.1592
  822MOL0     C 8377   5.585   3.193   6.199  0.1066  0.0677  0.2740
  822MOL0     C 8378   5.496   3.304   6.225 -0.2811 -0.2049  0.5057
  822MOL0     C 8379   5.548   3.414   6.291 -0.4236 -0.2469  0.0178
  822MOL0     O 8380   5.473   3.516   6.332 -0.2779  0.4031  0.6477
  822MOL0     C 8381   5.423   3.606   6.227  0.3568  0.0815 -0.4074
  822MOL0     C 8382   5.293   3.576   6.172 -0.0649 -0.4812  0.0580
  822MOL0     C 8383   5.182   3.540   6.260  0.0802  0.0485 -1.0866
  822MOL0     C 8384   5.059   3.518   6.182  0.5650 -0.2807  0.1396
  822MOL0     C 8385   4.940   3.490   6.274 -1.0918  0.0226 -0.1494
  822MOL0     C 8386   4.808   3.514   6.199 -0.3072 -0.3049 -0.1282
  822MOL0     C 8387   4.691   3.494   6.298  0.7528 -0.0718  0.2496
  822MOL0     C 8388   4.560   3.508   6.216 -1.2928  0.0792 -0.3830
  822MOL0     N 8389   4.439   3.503   6.297  0.6020 -0.5090 -0.3080
  822MOL0     C 8390   4.312   3.497   6.249  0.8393 -0.3415  0.1553
  822MOL0     C 8391   4.226   3.521   6.346 -0.3060 -0.4916  0.2399
  822MOL0     C 8392   4.083   3.542   6.320 -0.1368 -1.0985 -0.3720
  822MOL0     C 8393   4.064   3.697   6.360 -0.1553 -0.1741 -0.1951
  822MOL0     C 8394   3.917   3.744   6.372 -0.1831  0.0563  0.1023
  822MOL0     C 8395   3.860   3.761   6.233  0.1295  0.1617 -0.2383
  822MOL0     O 8396   3.841   3.638   6.158 -0.1036 -0.0504  0.5194
  822MOL0     C 8397   3.747   3.543   6.211 -0.9090 -0.6538  0.6148
  822MOL0     C 8398   3.752   3.419   6.158 -0.9075  0.2155  1.5303
  822MOL0     C 8399   3.671   3.316   6.204 -0.7390 -0.1370  0.0344
  822MOL0     C 8400   3.579   3.342   6.308 -0.7163 -0.6587  0.7469
  822MOL0     C 8401   3.509   3.236   6.368  0.8730 -0.3842  0.4487
  822MOL0     O 8402   3.399   3.276   6.443  0.1212  0.0081 -0.3555
  822MOL0     C 8403   3.354   3.198   6.542  0.4681  0.2857  0.2653
  822MOL0     C 8404   3.214   3.184   6.559 -0.5811  0.5722 -0.4853
  822MOL0     C 8405   3.155   3.089   6.649 -0.5290  0.1635  0.3782
  822MOL0     C 8406   3.240   2.998   6.717  0.8577 -0.5274  0.2609
  822MOL0     O 8407   3.188   2.894   6.793  0.1753 -0.3693 -0.5284
  822MOL0     C 8408   3.052   2.858   6.772  0.0462  0.1408 -0.3394
  822MOL0     C 8409   2.966   2.939   6.875 -1.1587 -0.0952  0.9491
  822MOL0     C 8410   2.816   2.915   6.870  0.3662  0.4922  0.3849
  822MOL0     C 8411   2.770   2.767   6.867 -0.5043 -0.3757 -0.4364
  822MOL0     C 8412   2.625   2.752   6.888  0.0860 -0.3834  0.7178
  822MOL0     C 8413   2.533   2.819   6.788  0.7676 -0.9906  0.9465
  822MOL0     C 8414   2.385   2.782   6.817  0.1122  0.2988 -0.5828
  822MOL0     C 8415   2.294   2.830   6.711 -0.3196  0.6404 -0.5579
  822MOL0    Cl 8416   2.123   2.772   6.756 -0.1661  0.2643 -0.0150
  822MOL0     C 8417   3.371   3.028   6.716 -0.0519 -0.0149  0.3503
  822MOL0     C 8418   3.428   3.125   6.633  0.3490 -0.2706  0.2245
  822MOL0     O 8419   3.558   3.126   6.370  0.5063  0.6035 -0.0968
  822MOL0     C 8420   3.556   3.477   6.348  0.5934  0.2506  0.3677
  822MOL0     C 8421   3.640   3.575   6.298 -0.0556 -0.3709 -0.6836
  822MOL0     N 8422   4.306   3.534   6.462  0.7303  0.1865  0.3280
  822MOL0     N 8423   4.426   3.528   6.429 -0.5857 -1.2344 -0.3626
  822MOL0     C 8424   5.691   3.421   6.321  0.3793  0.0368  0.9103
  822MOL0     C 8425   5.775   3.313   6.290 -0.5493 -0.2951  0.1926
  822MOL0     C 8426   5.941   2.910   6.290 -0.7053  0.3620 -0.4232
  822MOL0     C 8427   5.982   2.879   6.157 -0.7635  0.3645  0.6576
  822MOL0     C 8428   6.074   2.784   6.129 -0.0653 -0.7590 -0.5514
  822MOL0     C 8429   6.132   2.705   6.226  0.3766 -1.0801 -0.1979
  822MOL0     O 8430   6.233   2.610   6.207 -0.3269  0.7473  0.0879
  822MOL0     C 8431   6.289   2.612   6.077 -0.4755 -0.4349 -0.6879
  822MOL0     C 8432   6.410   2.527   6.072  0.9056  0.0668 -0.0085
  822MOL0     C 8433   6.527   2.585   6.148  0.1784 -0.2161  0.2347
  822MOL0     C 8434   6.644   2.483   6.163 -0.3142 -0.8765  0.7089
  822MOL0     C 8435   6.748   2.524   6.257  0.2785 -0.2685 -0.1537
  822MOL0     C 8436   6.850   2.549   6.314  0.3735  0.0079  0.3213
  822MOL0     C 8437   6.089   2.728   6.359  0.6415  0.1234 -0.3395
  822MOL0     C 8438   6.005   2.830   6.394  0.4652 -0.2536  0.4683
  822MOL0     H 8439   5.550   3.102   6.153 -1.0922  1.0299 -0.7965
  822MOL0     H 8440   5.389   3.302   6.202  0.0430 -0.0289 -1.1342
  822MOL0     H 8441   5.497   3.619   6.147  1.5854 -3.5571 -0.0636
  822MOL0     H 8442   5.410   3.702   6.277 -1.2096 -0.8631  1.0990
  822MOL0     H 8443   5.314   3.496   6.100  0.2778 -3.3013  3.0299
  822MOL0     H 8444   5.262   3.663   6.114  0.4125 -0.3006  0.0722
  822MOL0     H 8445   5.168   3.622   6.331  0.7562  1.4736 -2.5569
  822MOL0     H 8446   5.220   3.446   6.303  0.5841 -1.0308 -3.6971
  822MOL0     H 8447   5.027   3.605   6.123 -1.0573 -0.3144  0.9038
  822MOL0     H 8448   5.061   3.432   6.114  0.1304 -0.6170  0.5398
  822MOL0     H 8449   4.937   3.563   6.355 -2.8830  2.2319 -2.0870
  822MOL0     H 8450   4.941   3.386   6.311 -0.8823 -0.2486 -0.8994
  822MOL0     H 8451   4.805   3.436   6.122  0.7207 -0.8191  0.3315
  822MOL0     H 8452   4.803   3.610   6.147  2.6863  1.8233  3.0240
  822MOL0     H 8453   4.707   3.393   6.337  2.1198  0.2857  0.6712
  822MOL0     H 8454   4.712   3.581   6.361  2.0498  0.7237 -1.2036
  822MOL0     H 8455   4.555   3.424   6.146 -0.7363  0.4938 -0.9327
  822MOL0     H 8456   4.562   3.599   6.156  1.1557 -1.9067 -3.6392
  822MOL0     H 8457   4.285   3.479   6.145  0.3877  0.9384  0.0317
  822MOL0     H 8458   4.020   3.481   6.386 -0.4508 -1.9862 -1.4599
  822MOL0     H 8459   4.040   3.530   6.221 -1.6016 -0.8235  0.2037
  822MOL0     H 8460   4.124   3.759   6.293 -2.3959  0.9553 -1.2695
  822MOL0     H 8461   4.107   3.714   6.459  1.3163 -1.1041 -0.6301
  822MOL0     H 8462   3.856   3.673   6.428 -1.8751  1.7987  0.5554
  822MOL0     H 8463   3.912   3.841   6.421 -0.9862  1.1035 -1.9450
  822MOL0     H 8464   3.929   3.832   6.185  1.0182  0.5570  1.5530
  822MOL0     H 8465   3.764   3.812   6.244  0.5646  0.4331  3.3167
  822MOL0     H 8466   3.829   3.404   6.083 -1.5687 -1.6368  1.1755
  822MOL0     H 8467   3.689   3.223   6.151  2.0843 -0.4454  1.3333
  822MOL0     H 8468   3.151   3.242   6.492 -1.0059  2.6614  1.5903
  822MOL0     H 8469   3.047   3.081   6.651 -0.4863 -0.6722 -0.0121
  822MOL0     H 8470   3.046   2.750   6.790  1.1268  0.3161  1.2926
  822MOL0     H 8471   3.032   2.870   6.665  3.0834 -3.4630 -1.5859
  822MOL0     H 8472   2.993   3.044   6.863 -0.8587 -0.3900 -1.5812
  822MOL0     H 8473   2.991   2.902   6.975  0.3967 -2.1700 -0.1333
  822MOL0     H 8474   2.780   2.961   6.778  1.1765  0.9323  0.2780
  822MOL0     H 8475   2.761   2.962   6.952 -2.2559  0.2019 -1.0762
  822MOL0     H 8476   2.811   2.722   6.776  1.5890 -1.0202  0.7539
  822MOL0     H 8477   2.803   2.707   6.952 -3.3313 -1.8381 -0.2538
  822MOL0     H 8478   2.591   2.790   6.985 -2.9613 -1.4842  0.1887
  822MOL0     H 8479   2.604   2.646   6.905 -0.8191  0.0834  2.7848
  822MOL0     H 8480   2.551   2.803   6.682 -0.5210  2.5253  0.0636
  822MOL0     H 8481   2.544   2.928   6.798  1.3184 -0.9573  0.0488
  822MOL0     H 8482   2.375   2.675   6.839 -0.1756  0.8152  2.2650
  822MOL0     H 8483   2.368   2.826   6.916  4.1411  0.7913  0.0753
  822MOL0     H 8484   2.328   2.790   6.616  2.1481  2.1093 -0.3608
  822MOL0     H 8485   2.298   2.938   6.694  1.2484  0.2596 -2.9207
  822MOL0     H 8486   3.441   2.964   6.767  0.6932  0.7669  0.3322
  822MOL0     H 8487   3.535   3.140   6.639  0.3984 -0.6126  0.2072
  822MOL0     H 8488   3.482   3.511   6.419  0.1213 -0.5942  0.2812
  822MOL0     H 8489   3.621   3.674   6.338 -2.9332 -1.1386  0.0824
  822MOL0     H 8490   5.734   3.503   6.378 -1.7832  0.8218  1.5240
  822MOL0     H 8491   5.877   3.301   6.325 -0.6297 -3.1146 -0.3118
  822MOL0     H 8492   5.938   2.923   6.068  0.5077 -5.0257 -3.1050
  822MOL0     H 8493   6.082   2.762   6.023 -1.6745 -0.8923 -0.6661
  822MOL0     H 8494   6.308   2.717   6.055 -0.4612  0.0254  1.3383
  822MOL0     H 8495   6.207   2.567   6.020 -3.3760  1.4491  1.6855
  822MOL0     H 8496   6.381   2.429   6.109 -2.5033  1.5921  1.8486
  822MOL0     H 8497   6.430   2.505   5.967 -2.6564 -0.6809 -0.6279
  822MOL0     H 8498   6.503   2.616   6.250  1.5457 -0.7820  0.7536
  822MOL0     H 8499   6.566   2.673   6.094  2.6946 -1.1131  0.4223
  822MOL0     H 8500   6.600   2.393   6.209  1.2619 -1.0036  2.0457
  822MOL0     H 8501   6.679   2.463   6.061 -0.5706 -0.4325  0.5332
  822MOL0     H 8502   6.943   2.577   6.360 -1.0995  0.9239  2.9979
  822MOL0     H 8503   6.125   2.665   6.440 -2.1823 -2.1620 -0.6939
  822MOL0     H 8504   5.966   2.835   6.495 -0.1252  1.4420  0.1900
  823MOL0     O 8505   4.876   2.170   5.362  0.1958 -0.0673 -0.0141
  823MOL0     C 8506   4.857   2.109   5.257  0.0218 -0.7243 -0.6418
  823MOL0     O 8507   4.742   2.051   5.222  0.5433  0.2071  0.3514
  823MOL0     C 8508   4.632   2.077   5.288 -0.0505 -0.4307 -0.0881
  823MOL0     C 8509   4.542   2.176   5.247 -0.1391  0.5152 -0.5708
  823MOL0     C 8510   4.422   2.200   5.317  1.0841  0.1761 -0.1825
  823MOL0     C 8511   4.398   2.142   5.449 -0.1062  0.0381 -0.8698
  823MOL0     O 8512   4.287   2.178   5.522  0.3095  0.3550 -0.5850
  823MOL0     C 8513   4.206   2.075   5.585 -0.2229 -0.8531  0.6623
  823MOL0     C 8514   4.084   2.145   5.633 -0.7891  0.1092  0.5650
  823MOL0     C 8515   4.013   2.054   5.733 -0.1905  0.0976  0.3111
  823MOL0     C 8516   3.911   2.136   5.814  0.6230  0.2920  0.0312
  823MOL0     C 8517   3.835   2.053   5.920  0.3041 -0.4750  0.3198
  823MOL0     C 8518   3.722   1.983   5.861 -0.2581  0.4422  0.2562
  823MOL0     C 8519   3.640   1.900   5.963 -0.6041 -0.3412  0.5898
  823MOL0     C 8520   3.712   1.765   6.005  0.4624  0.4878 -0.8069
  823MOL0     N 8521   3.636   1.680   6.103 -0.5069 -0.1550 -0.5381
  823MOL0     C 8522   3.520   1.625   6.083  0.2625 -0.9429 -0.8187
  823MOL0     C 8523   3.483   1.569   6.200 -0.2891  0.6459 -0.2773
  823MOL0     C 8524   3.352   1.507   6.232 -1.0768 -0.4740 -0.0358
  823MOL0     C 8525   3.267   1.598   6.326 -0.2288  0.3278 -0.2080
  823MOL0     C 8526   3.185   1.703   6.252  0.0916 -0.4765  0.7295
  823MOL0     C 8527   3.044   1.723   6.296  0.2860 -0.0532 -0.5908
  823MOL0     O 8528   2.968   1.605   6.281 -0.1899 -0.8593  0.0514
  823MOL0     C 8529   2.851   1.587   6.353  0.7406 -0.4250  0.0781
  823MOL0     C 8530   2.821   1.457   6.370 -0.3122  0.3817  0.2606
  823MOL0     C 8531   2.700   1.423   6.420  0.9620  0.3164 -0.7459
  823MOL0     C 8532   2.599   1.514   6.453  0.2492  0.3103 -0.0370
  823MOL0     C 8533   2.466   1.474   6.499 -0.2710 -0.3613  0.3826
  823MOL0     O 8534   2.391   1.569   6.555 -0.1626 -0.1754 -0.0266
  823MOL0     C 8535   2.265   1.548   6.605 -0.2440  0.1546 -0.1174
  823MOL0     C 8536   2.224   1.641   6.696  0.6007  0.5193 -0.5777
  823MOL0     C 8537   2.088   1.649   6.740  0.0502 -0.7113 -0.2592
  823MOL0     C 8538   1.998   1.560   6.678 -0.5725  0.6550  0.7023
  823MOL0     O 8539   1.862   1.566   6.695  0.0982  0.5175 -0.3776
  823MOL0     C 8540   1.814   1.576   6.836 -0.1322  0.1940  0.4507
  823MOL0     C 8541   1.705   1.478   6.871 -0.7161 -0.2642  0.6836
  823MOL0     C 8542   1.567   1.496   6.794 -0.3053 -0.6037 -0.1137
  823MOL0     C 8543   1.487   1.363   6.794 -0.4703 -0.2435  0.7940
  823MOL0     C 8544   1.344   1.386   6.764 -0.0532 -0.0038 -0.5838
  823MOL0     C 8545   1.274   1.249   6.760 -0.7403  0.1505 -0.7210
  823MOL0     C 8546   1.144   1.247   6.693  0.7201 -0.9323  0.0066
  823MOL0     C 8547   1.078   1.119   6.655  0.2275  0.1341 -0.3147
  823MOL0    Cl 8548   0.926   1.129   6.561  0.1701 -0.0895 -0.0907
  823MOL0     C 8549   2.045   1.450   6.594 -0.4937 -0.3199  0.7450
  823MOL0     C 8550   2.171   1.449   6.557  0.0749 -0.4552 -0.2473
  823MOL0     O 8551   2.435   1.359   6.478  0.0723  0.4528  0.0404
  823MOL0     C 8552   2.639   1.646   6.443 -0.6570  0.2778 -0.3621
  823MOL0     C 8553   2.762   1.683   6.391  0.4968 -0.6467  0.6764
  823MOL0     N 8554   3.573   1.604   6.300 -0.6237  0.0486  0.1238
  823MOL0     N 8555   3.678   1.666   6.234 -0.6704 -0.1179 -0.5247
  823MOL0     C 8556   4.493   2.041   5.492 -0.4779 -0.2064  0.6187
  823MOL0     C 8557   4.607   2.012   5.408 -0.3536 -0.6981  0.4208
  823MOL0     C 8558   4.973   2.069   5.176 -0.2091 -0.2316 -0.4096
  823MOL0     C 8559   4.970   1.959   5.092 -0.6813  0.1063 -0.3989
  823MOL0     C 8560   5.084   1.910   5.032 -0.2097 -1.2376  0.5620
  823MOL0     C 8561   5.211   1.969   5.057  0.1596 -0.0223 -0.1018
  823MOL0     O 8562   5.319   1.906   5.002 -0.1523  0.0674 -0.0969
  823MOL0     C 8563   5.418   1.988   4.937  0.5586 -0.2206  0.1697
  823MOL0     C 8564   5.476   1.934   4.807 -0.1263  0.6428 -0.0956
  823MOL0     C 8565   5.572   1.806   4.827 -0.3332  0.2464 -0.1847
  823MOL0     C 8566   5.709   1.826   4.771  0.3742 -0.1973  0.3162
  823MOL0     C 8567   5.791   1.713   4.798  0.3872 -0.0902  0.0495
  823MOL0     C 8568   5.851   1.612   4.826 -0.2034  0.2228 -0.4911
  823MOL0     C 8569   5.212   2.086   5.130  0.2534  0.1217 -0.1454
  823MOL0     C 8570   5.094   2.129   5.192  0.6791 -0.3914 -0.1382
  823MOL0     H 8571   4.567   2.237   5.161 -0.3902  0.2904 -0.8030
  823MOL0     H 8572   4.356   2.284   5.297  0.3083  0.4501  2.9982
  823MOL0     H 8573   4.260   2.029   5.668  0.2681 -1.0787  0.2304
  823MOL0     H 8574   4.171   1.994   5.521 -2.8187  0.1851  0.6177
  823MOL0     H 8575   4.020   2.166   5.547  1.9805 -1.2674 -1.9889
  823MOL0     H 8576   4.117   2.240   5.674  0.1714 -0.5191  1.2855
  823MOL0     H 8577   4.077   2.011   5.811  0.6644  0.0303 -0.4047
  823MOL0     H 8578   3.966   1.965   5.691  2.0408 -0.7392 -0.5580
  823MOL0     H 8579   3.962   2.220   5.863 -0.3226  1.0242 -0.2110
  823MOL0     H 8580   3.849   2.196   5.747  1.0977  1.3346  0.4967
  823MOL0     H 8581   3.803   2.122   5.999  0.3404 -2.2822  1.9997
  823MOL0     H 8582   3.904   1.990   5.977  0.6296 -0.2914  0.1293
  823MOL0     H 8583   3.763   1.916   5.784  0.5895  0.5082  0.6333
  823MOL0     H 8584   3.660   2.058   5.811  2.1824  1.4019 -1.5534
  823MOL0     H 8585   3.621   1.961   6.052 -0.5274 -0.4778  0.6998
  823MOL0     H 8586   3.547   1.865   5.918  0.1371 -1.0198 -0.4840
  823MOL0     H 8587   3.810   1.788   6.047  0.4817  0.5920 -0.9083
  823MOL0     H 8588   3.722   1.701   5.917 -3.6727 -1.0795 -0.3695
  823MOL0     H 8589   3.463   1.627   5.991  0.6187 -1.2804 -1.0477
  823MOL0     H 8590   3.374   1.410   6.279 -1.7424 -0.5191  0.1880
  823MOL0     H 8591   3.286   1.499   6.145 -0.2787  2.2659 -0.9693
  823MOL0     H 8592   3.332   1.648   6.398  1.5183 -2.6114  0.4216
  823MOL0     H 8593   3.190   1.541   6.378 -0.0778 -0.3088 -0.6601
  823MOL0     H 8594   3.244   1.796   6.253 -1.0656  0.3188 -0.8138
  823MOL0     H 8595   3.174   1.676   6.147 -2.7291 -0.9363  1.0658
  823MOL0     H 8596   3.002   1.801   6.232  0.8782 -0.8781 -2.0469
  823MOL0     H 8597   3.031   1.760   6.398 -1.8563  1.8684 -1.4873
  823MOL0     H 8598   2.894   1.383   6.340  0.9917  1.6766  0.1136
  823MOL0     H 8599   2.679   1.316   6.421  0.6115  0.3627 -1.8169
  823MOL0     H 8600   2.296   1.701   6.751  1.5270 -2.7145  2.0561
  823MOL0     H 8601   2.053   1.730   6.803  0.7485 -0.6450  0.0510
  823MOL0     H 8602   1.791   1.683   6.844  0.1581  0.3408 -0.5840
  823MOL0     H 8603   1.894   1.558   6.908  0.1788 -0.1055  0.0297
  823MOL0     H 8604   1.694   1.487   6.980 -3.1351  1.8412  0.3460
  823MOL0     H 8605   1.745   1.376   6.867 -2.5618 -0.9879 -0.0870
  823MOL0     H 8606   1.572   1.535   6.692  4.6745  1.4372  0.6419
  823MOL0     H 8607   1.507   1.563   6.856  2.0596  0.7566  0.8402
  823MOL0     H 8608   1.541   1.304   6.720 -0.4645 -2.4062  2.4281
  823MOL0     H 8609   1.495   1.316   6.893 -0.7941  0.7738  1.3240
  823MOL0     H 8610   1.327   1.440   6.671 -3.1504  1.8038  0.8452
  823MOL0     H 8611   1.302   1.437   6.851 -2.2181 -0.9790 -1.0027
  823MOL0     H 8612   1.261   1.224   6.866 -0.2371  0.2968 -0.6243
  823MOL0     H 8613   1.336   1.171   6.713  0.6788  0.5250  0.4529
  823MOL0     H 8614   1.082   1.307   6.760  0.9308 -0.4305 -0.2446
  823MOL0     H 8615   1.159   1.298   6.597  1.7751  0.6248  0.9535
  823MOL0     H 8616   1.066   1.056   6.744  0.0721  0.4534 -0.1075
  823MOL0     H 8617   1.145   1.059   6.592  1.2020  1.6189 -0.7483
  823MOL0     H 8618   1.976   1.374   6.561  0.1427 -1.1684  1.3435
  823MOL0     H 8619   2.201   1.389   6.472 -0.5762  1.6750 -2.0978
  823MOL0     H 8620   2.567   1.721   6.476 -0.1952  0.0309  1.2681
  823MOL0     H 8621   2.781   1.789   6.376  1.2025 -0.7905  0.5356
  823MOL0     H 8622   4.473   1.993   5.586 -2.9537 -0.2758  0.1255
  823MOL0     H 8623   4.681   1.940   5.444  0.6017  0.0092 -0.0871
  823MOL0     H 8624   4.876   1.907   5.072 -0.1002 -0.7493 -0.9899
  823MOL0     H 8625   5.079   1.827   4.962 -0.0336  0.7681 -2.0004
  823MOL0     H 8626   5.494   2.011   5.012 -1.6295  3.0271  1.6173
  823MOL0     H 8627   5.376   2.086   4.912  2.0111  0.4707  0.3086
  823MOL0     H 8628   5.401   1.900   4.735  1.9536  1.2909 -2.7343
  823MOL0     H 8629   5.530   2.019   4.764 -2.1433  3.3028  2.2294
  823MOL0     H 8630   5.521   1.720   4.783 -2.5552  0.6598  1.4017
  823MOL0     H 8631   5.580   1.802   4.936 -0.8630  2.5215  0.0085
  823MOL0     H 8632   5.708   1.854   4.665  2.8452 -1.3402 -0.0691
  823MOL0     H 8633   5.757   1.904   4.829 -2.2403  1.2448  0.7094
  823MOL0     H 8634   5.908   1.526   4.855  2.4980  2.5340  1.7334
  823MOL0     H 8635   5.308   2.129   5.156  0.4859 -1.4994  1.9954
  823MOL0     H 8636   5.110   2.211   5.261 -0.9003 -0.3165  0.1716
  824MOL0     O 8637   5.674   6.135   6.292  0.2134  0.0767  0.2081
  824MOL0     C 8638   5.762   6.065   6.340 -0.4325 -0.2487 -0.0829
  824MOL0     O 8639   5.742   5.957   6.419 -0.5142  0.1835 -0.8607
  824MOL0     C 8640   5.606   5.939   6.462 -0.6502 -0.1021  0.2234
  824MOL0     C 8641   5.550   6.028   6.559 -0.3544 -0.2396  0.5345
  824MOL0     C 8642   5.422   5.998   6.607  0.1486  0.3113 -1.1088
  824MOL0     C 8643   5.339   5.890   6.561  0.2819 -0.3501 -0.0209
  824MOL0     O 8644   5.210   5.890   6.608  0.4746  0.2689 -0.4912
  824MOL0     C 8645   5.114   5.787   6.562  0.4672 -0.1330 -1.1672
  824MOL0     C 8646   4.974   5.815   6.609  0.1155  0.7107 -0.1790
  824MOL0     C 8647   4.873   5.703   6.593 -0.2588 -0.8370 -0.6079
  824MOL0     C 8648   4.734   5.739   6.631 -0.3737  0.2854  0.3616
  824MOL0     C 8649   4.669   5.625   6.715  0.3728 -1.1337 -0.5485
  824MOL0     C 8650   4.545   5.685   6.784  0.2300 -1.2492 -0.0938
  824MOL0     C 8651   4.455   5.595   6.850  0.2731  0.0798  0.6617
  824MOL0     C 8652   4.320   5.645   6.889 -0.3227 -0.5562 -0.5103
  824MOL0     N 8653   4.307   5.702   7.018  0.1152  0.5155 -0.8791
  824MOL0     C 8654   4.229   5.799   7.063  0.5573  0.2037 -0.2603
  824MOL0     C 8655   4.234   5.791   7.194 -0.6361 -0.1184 -0.3491
  824MOL0     C 8656   4.161   5.899   7.270 -0.5453  0.0900 -0.0785
  824MOL0     C 8657   4.268   5.987   7.342  0.4073  0.1680  0.3260
  824MOL0     C 8658   4.187   6.084   7.431  0.8717 -0.5051 -0.2652
  824MOL0     C 8659   4.274   6.210   7.470  0.4289 -0.8022 -0.5837
  824MOL0     O 8660   4.397   6.171   7.534 -0.0999  0.3825  0.3601
  824MOL0     C 8661   4.498   6.265   7.568  0.9415  0.5986  0.7848
  824MOL0     C 8662   4.624   6.220   7.594  0.6357 -0.3777 -0.4821
  824MOL0     C 8663   4.733   6.310   7.608  0.1509 -0.4223  0.2440
  824MOL0     C 8664   4.711   6.447   7.587  0.8717 -0.8419 -0.1414
  824MOL0     C 8665   4.832   6.536   7.590 -0.0359  0.1751  0.3575
  824MOL0     O 8666   4.959   6.477   7.577  0.3691 -0.3759  0.4172
  824MOL0     C 8667   5.069   6.563   7.583  0.8460  0.4785  1.6768
  824MOL0     C 8668   5.176   6.523   7.497 -0.3986 -0.3755 -0.8895
  824MOL0     C 8669   5.305   6.584   7.507 -0.0592 -0.1135 -0.5792
  824MOL0     C 8670   5.328   6.702   7.592 -0.1456 -0.5553  0.1287
  824MOL0     O 8671   5.430   6.785   7.590 -0.7381 -0.5721 -0.0553
  824MOL0     C 8672   5.470   6.844   7.460 -0.2145  0.2314 -0.1288
  824MOL0     C 8673   5.613   6.901   7.480  0.3373 -0.2322 -0.2502
  824MOL0     C 8674   5.673   6.956   7.348  0.3694 -0.1040 -0.3058
  824MOL0     C 8675   5.825   6.993   7.369  0.2085 -0.5344 -0.3247
  824MOL0     C 8676   5.885   7.059   7.244  0.0842 -0.2521  0.6498
  824MOL0     C 8677   6.034   7.081   7.269  0.0804  0.5826 -0.7491
  824MOL0     C 8678   6.114   7.148   7.149 -0.1388 -1.1655 -0.6089
  824MOL0     C 8679   6.045   7.280   7.104  0.4816  0.4836 -0.3643
  824MOL0    Cl 8680   6.156   7.401   7.011  0.2867  0.2576  0.4116
  824MOL0     C 8681   5.217   6.734   7.672  0.3010 -0.7397 -0.6590
  824MOL0     C 8682   5.094   6.668   7.671 -0.4372  0.3137 -0.4003
  824MOL0     O 8683   4.808   6.657   7.590 -0.1887 -0.1212  0.1619
  824MOL0     C 8684   4.579   6.495   7.557  0.4215  0.0927 -0.4654
  824MOL0     C 8685   4.480   6.401   7.553 -0.3727  0.0300  0.5495
  824MOL0     N 8686   4.318   5.697   7.241  0.5793  0.8462 -0.6246
  824MOL0     N 8687   4.357   5.642   7.129 -0.6781 -0.4141 -0.4550
  824MOL0     C 8688   5.398   5.804   6.471 -0.4217 -0.0989 -0.1441
  824MOL0     C 8689   5.534   5.821   6.427  0.4610 -0.1463 -0.3033
  824MOL0     C 8690   5.901   6.120   6.325  0.2735  0.3821  0.1382
  824MOL0     C 8691   5.930   6.243   6.252 -0.2037 -0.1634  0.5980
  824MOL0     C 8692   6.067   6.273   6.224  0.6741 -0.3180  0.0219
  824MOL0     C 8693   6.168   6.180   6.245 -1.1449  0.0635 -0.9079
  824MOL0     O 8694   6.300   6.195   6.202 -0.0371  0.2687 -0.3722
  824MOL0     C 8695   6.347   6.308   6.130 -0.3527  0.0627 -0.4014
  824MOL0     C 8696   6.500   6.313   6.160  0.5559 -0.8148 -0.4187
  824MOL0     C 8697   6.564   6.450   6.110  0.0641  1.2200 -0.1554
  824MOL0     C 8698   6.582   6.461   5.961 -0.1822 -0.2654  0.1095
  824MOL0     C 8699   6.716   6.513   5.922 -0.1344 -0.2413  1.4081
  824MOL0     C 8700   6.819   6.552   5.879  0.6410 -0.0662  0.5091
  824MOL0     C 8701   6.138   6.066   6.319 -0.2051  0.1196 -1.0332
  824MOL0     C 8702   6.008   6.037   6.360  0.8460 -0.0002 -0.0195
  824MOL0     H 8703   5.599   6.113   6.605 -2.1630  0.7662  0.6801
  824MOL0     H 8704   5.375   6.077   6.664  2.3512  2.2865 -1.8795
  824MOL0     H 8705   5.141   5.685   6.593  0.1800 -0.0001 -0.4712
  824MOL0     H 8706   5.112   5.787   6.453  0.7347  1.9340 -1.2096
  824MOL0     H 8707   4.929   5.904   6.565 -2.7349  1.0326  2.9600
  824MOL0     H 8708   4.971   5.837   6.716 -1.6569 -1.6750  0.3677
  824MOL0     H 8709   4.918   5.628   6.658 -0.8653 -0.3617  0.3754
  824MOL0     H 8710   4.883   5.669   6.489 -0.3803  1.0118 -1.2669
  824MOL0     H 8711   4.724   5.834   6.685 -0.9216  1.6692 -2.0120
  824MOL0     H 8712   4.667   5.760   6.548 -3.0452  3.3489  3.0034
  824MOL0     H 8713   4.738   5.589   6.792  0.4941  2.9263  1.5273
  824MOL0     H 8714   4.639   5.541   6.652 -0.4267 -1.2659 -0.0089
  824MOL0     H 8715   4.481   5.747   6.720 -1.5973  0.5922  3.2493
  824MOL0     H 8716   4.570   5.759   6.860 -3.7282  0.4618 -0.2192
  824MOL0     H 8717   4.443   5.514   6.777  2.9241 -0.7496  1.0363
  824MOL0     H 8718   4.514   5.548   6.929  2.5375 -0.3600 -1.1651
  824MOL0     H 8719   4.261   5.553   6.882  0.5184 -1.1165 -0.3609
  824MOL0     H 8720   4.275   5.712   6.816  2.2874  1.8366 -0.0784
  824MOL0     H 8721   4.172   5.869   7.002  0.4975  0.5643  0.2093
  824MOL0     H 8722   4.084   5.854   7.333 -1.5429  1.0848 -0.5372
  824MOL0     H 8723   4.097   5.964   7.208 -0.5673  0.3222  0.1839
  824MOL0     H 8724   4.318   6.045   7.264 -0.2054  1.5257  0.9184
  824MOL0     H 8725   4.344   5.929   7.395  0.4159 -0.5288 -0.4279
  824MOL0     H 8726   4.115   6.124   7.359  1.8964  0.6212 -0.6975
  824MOL0     H 8727   4.133   6.035   7.513  0.5636  2.3889  1.3806
  824MOL0     H 8728   4.226   6.279   7.541  2.5824 -1.0069  1.1879
  824MOL0     H 8729   4.296   6.273   7.383  1.1598  0.6244  0.5802
  824MOL0     H 8730   4.637   6.112   7.600  1.1536 -0.2559  1.4313
  824MOL0     H 8731   4.832   6.272   7.633 -0.1894  0.1136  2.6299
  824MOL0     H 8732   5.149   6.435   7.439 -1.8874 -1.8940  1.8761
  824MOL0     H 8733   5.378   6.555   7.432 -0.9767 -1.8373 -0.8536
  824MOL0     H 8734   5.396   6.920   7.432 -0.0142  0.6101  0.3579
  824MOL0     H 8735   5.469   6.757   7.393 -1.4661 -1.8747  2.3948
  824MOL0     H 8736   5.671   6.813   7.511 -1.2129 -1.3352 -0.3489
  824MOL0     H 8737   5.615   6.974   7.561  0.1001  0.1917 -0.6229
  824MOL0     H 8738   5.614   7.045   7.324 -2.1442 -2.1466 -2.2377
  824MOL0     H 8739   5.660   6.881   7.269  0.6754 -1.0676  0.5373
  824MOL0     H 8740   5.826   7.068   7.449  0.0877 -1.4822  0.5806
  824MOL0     H 8741   5.873   6.904   7.409 -0.8853 -0.9077  0.1953
  824MOL0     H 8742   5.832   7.155   7.244 -0.6723 -0.6623  0.7689
  824MOL0     H 8743   5.858   6.998   7.157  0.2128 -2.5528  2.1485
  824MOL0     H 8744   6.081   6.987   7.298 -2.9972 -1.5476 -2.1111
  824MOL0     H 8745   6.046   7.143   7.358 -0.7261 -1.6580  1.0134
  824MOL0     H 8746   6.214   7.180   7.177  0.5366 -2.8544 -0.9615
  824MOL0     H 8747   6.114   7.080   7.063 -2.7789 -1.0082 -0.8392
  824MOL0     H 8748   6.006   7.333   7.191  3.3222 -0.4863  1.6499
  824MOL0     H 8749   5.959   7.262   7.038 -0.0682  3.5807 -0.6807
  824MOL0     H 8750   5.218   6.826   7.730  0.4797 -0.9087 -0.3930
  824MOL0     H 8751   5.015   6.701   7.738  2.2205 -0.5370  3.5247
  824MOL0     H 8752   4.579   6.600   7.529  1.7439  0.7952  1.8910
  824MOL0     H 8753   4.391   6.443   7.506  0.5634 -0.1605 -1.4936
  824MOL0     H 8754   5.330   5.731   6.429  0.4061  0.2683 -2.2381
  824MOL0     H 8755   5.585   5.756   6.357  1.1591 -2.0159  1.8154
  824MOL0     H 8756   5.848   6.308   6.222 -1.0731 -1.8761 -0.9925
  824MOL0     H 8757   6.093   6.365   6.172  2.4115 -0.3517  0.7567
  824MOL0     H 8758   6.299   6.403   6.151  0.7651 -0.1179  3.8515
  824MOL0     H 8759   6.325   6.281   6.026  0.7470 -1.2837 -0.3188
  824MOL0     H 8760   6.522   6.295   6.265  1.8146 -1.6883 -0.8138
  824MOL0     H 8761   6.544   6.223   6.117  3.4086 -0.2593  1.0768
  824MOL0     H 8762   6.662   6.447   6.159  1.2445 -1.8378 -2.3834
  824MOL0     H 8763   6.504   6.534   6.147 -0.0684  0.4126  1.5621
  824MOL0     H 8764   6.560   6.367   5.909 -1.5158  0.6210 -0.9874
  824MOL0     H 8765   6.497   6.520   5.924  1.6326  1.1440 -2.0518
  824MOL0     H 8766   6.909   6.588   5.834 -0.0549  0.3419 -0.6104
  824MOL0     H 8767   6.217   5.996   6.345  0.0728 -0.1732 -2.5676
  824MOL0     H 8768   5.996   5.949   6.423  0.4758 -1.1223 -1.5886
  825MOL0     O 8769   9.087   0.489   1.135  0.4028  0.4799 -0.1044
  825MOL0     C 8770   9.063   0.389   1.066  0.3318 -0.0619 -0.8802
  825MOL0     O 8771   8.940   0.363   1.012  0.0809  0.0592  0.0278
  825MOL0     C 8772   8.826   0.435   1.030  0.1571  0.0133 -0.4553
  825MOL0     C 8773   8.724   0.386   1.107  0.3067 -0.0719  0.7554
  825MOL0     C 8774   8.609   0.463   1.133  0.0088 -0.4988 -0.3449
  825MOL0     C 8775   8.592   0.581   1.061  0.3586  0.6068  0.1852
  825MOL0     O 8776   8.476   0.653   1.059  0.6248 -0.6649 -0.5217
  825MOL0     C 8777   8.364   0.625   1.137 -1.2024 -0.5694 -0.1098
  825MOL0     C 8778   8.253   0.727   1.095 -0.5765 -0.0922  0.5308
  825MOL0     C 8779   8.150   0.738   1.201  0.6274 -0.6233  0.4003
  825MOL0     C 8780   8.040   0.836   1.153 -0.2364 -0.5918  0.2435
  825MOL0     C 8781   7.937   0.863   1.262 -0.1494  0.5123 -0.0641
  825MOL0     C 8782   7.799   0.899   1.193  0.1462  0.6005  0.9322
  825MOL0     C 8783   7.794   1.037   1.118 -0.1991  0.0256  0.4999
  825MOL0     C 8784   7.661   1.077   1.047  0.4610 -0.5561  0.1194
  825MOL0     N 8785   7.562   1.116   1.145  0.1851 -0.4668 -0.3986
  825MOL0     C 8786   7.541   1.247   1.181  0.8179 -0.3683  0.2390
  825MOL0     C 8787   7.451   1.232   1.281  0.9382 -0.4362 -0.3916
  825MOL0     C 8788   7.406   1.348   1.370 -0.7803  0.4028 -0.0392
  825MOL0     C 8789   7.385   1.476   1.293  0.1415  0.2115 -0.2524
  825MOL0     C 8790   7.309   1.591   1.365 -0.5907 -0.1459  0.3707
  825MOL0     C 8791   7.289   1.721   1.280  0.1338  1.1250  0.7627
  825MOL0     O 8792   7.217   1.677   1.157 -0.6993  0.0121 -0.1887
  825MOL0     C 8793   7.076   1.681   1.154  0.2782  0.6977 -0.1525
  825MOL0     C 8794   7.017   1.652   1.029 -0.0116  0.6240 -0.1538
  825MOL0     C 8795   6.878   1.650   1.013  0.1519 -0.2969  0.4012
  825MOL0     C 8796   6.792   1.664   1.130 -0.1629 -0.2321  0.3781
  825MOL0     C 8797   6.644   1.638   1.118  1.1742  0.5075 -0.4976
  825MOL0     O 8798   6.579   1.657   0.996 -0.8613 -0.0448  0.3848
  825MOL0     C 8799   6.447   1.629   0.992  0.2666  0.3079 -0.5739
  825MOL0     C 8800   6.404   1.511   0.945  0.2751  0.5578  0.5187
  825MOL0     C 8801   6.269   1.484   0.933 -1.0410  0.1646 -0.8133
  825MOL0     C 8802   6.173   1.566   0.976  0.0025 -0.1550 -0.3258
  825MOL0     O 8803   6.042   1.530   0.976 -0.6510 -0.5300 -0.1858
  825MOL0     C 8804   5.937   1.628   0.995  0.9260  0.3663 -0.1957
  825MOL0     C 8805   5.803   1.550   1.014 -0.1819 -0.7242  0.0477
  825MOL0     C 8806   5.681   1.633   1.058 -0.6370 -0.2718  0.2982
  825MOL0     C 8807   5.696   1.792   1.048 -0.9198  0.3299 -0.5220
  825MOL0     C 8808   5.565   1.867   1.067  0.4694 -0.7393 -0.7233
  825MOL0     C 8809   5.578   2.019   1.060 -0.3623 -0.4933  0.3123
  825MOL0     C 8810   5.641   2.072   0.938  0.2960  0.1316  0.1447
  825MOL0     C 8811   5.625   2.225   0.948  0.3026  0.0913  0.4869
  825MOL0    Cl 8812   5.728   2.280   0.810 -0.1412 -0.1699 -0.0348
  825MOL0     C 8813   6.220   1.688   1.030  1.2444  0.0137  0.1821
  825MOL0     C 8814   6.354   1.721   1.035  0.0338  0.3802 -0.4087
  825MOL0     O 8815   6.586   1.600   1.222  0.3354  0.1177 -0.3112
  825MOL0     C 8816   6.852   1.690   1.256 -0.3805 -0.1130 -0.4960
  825MOL0     C 8817   6.991   1.696   1.263  0.2337 -0.2934  0.2908
  825MOL0     N 8818   7.424   1.097   1.301 -0.0633  0.0019  0.0811
  825MOL0     N 8819   7.491   1.029   1.217  0.5292  0.5863  0.2011
  825MOL0     C 8820   8.692   0.627   0.969 -0.0551 -0.1233 -0.0512
  825MOL0     C 8821   8.813   0.559   0.971 -1.0673 -0.7296  0.2868
  825MOL0     C 8822   9.171   0.294   1.023  0.1209 -0.2626 -1.2647
  825MOL0     C 8823   9.306   0.323   1.046 -0.4900  0.0066 -0.2509
  825MOL0     C 8824   9.401   0.233   1.002 -0.5301  0.2753  0.2962
  825MOL0     C 8825   9.368   0.119   0.931 -0.2971  0.8526 -0.4016
  825MOL0     O 8826   9.455   0.029   0.872 -0.3608 -0.6408  0.2802
  825MOL0     C 8827   9.589   0.071   0.849 -0.0707  0.7994  0.8525
  825MOL0     C 8828   9.667  -0.011   0.958  0.3526 -0.2423 -0.3691
  825MOL0     C 8829   9.819  -0.017   0.921  0.9214 -0.0855  0.5831
  825MOL0     C 8830   9.845  -0.108   0.801  0.3248 -0.2314 -0.1311
  825MOL0     C 8831   9.816  -0.244   0.847 -0.6587  0.2472  0.1010
  825MOL0     C 8832   9.798  -0.357   0.881  0.2862 -0.1527  0.5842
  825MOL0     C 8833   9.235   0.095   0.903  0.4928 -0.7667  0.0265
  825MOL0     C 8834   9.136   0.185   0.944 -0.8341  0.1338 -1.1404
  825MOL0     H 8835   8.751   0.297   1.164  3.9176 -0.5802 -1.4468
  825MOL0     H 8836   8.532   0.427   1.200 -0.5543  1.6775  0.2597
  825MOL0     H 8837   8.385   0.633   1.244 -1.9220 -2.1582  0.1689
  825MOL0     H 8838   8.341   0.519   1.127  0.1286 -0.9165  0.3978
  825MOL0     H 8839   8.209   0.699   0.998 -0.6295  3.5130 -0.6049
  825MOL0     H 8840   8.294   0.822   1.060 -3.8413  0.0787 -3.5724
  825MOL0     H 8841   8.190   0.776   1.296  0.2633  1.1567 -0.1203
  825MOL0     H 8842   8.109   0.639   1.220  1.3289 -0.7326  1.4363
  825MOL0     H 8843   8.085   0.927   1.115 -0.3614 -0.4793  0.3637
  825MOL0     H 8844   7.995   0.792   1.063  1.2003  0.4865 -1.0465
  825MOL0     H 8845   7.970   0.945   1.327 -0.9926 -0.1348  1.2158
  825MOL0     H 8846   7.933   0.766   1.312  3.1539  0.3932  0.1972
  825MOL0     H 8847   7.720   0.899   1.268 -0.3916  0.2829  0.3778
  825MOL0     H 8848   7.776   0.820   1.122 -0.9816  1.9327 -0.2454
  825MOL0     H 8849   7.822   1.118   1.185 -0.1246  1.4476 -1.1726
  825MOL0     H 8850   7.867   1.028   1.036 -0.4862  2.6869 -0.1241
  825MOL0     H 8851   7.627   0.984   0.999 -1.7728 -1.6352  3.4268
  825MOL0     H 8852   7.683   1.159   0.978 -1.9763  0.3806  0.3624
  825MOL0     H 8853   7.584   1.335   1.134 -1.5261  0.7404 -0.0063
  825MOL0     H 8854   7.485   1.353   1.446  1.1063 -1.4732 -1.7391
  825MOL0     H 8855   7.316   1.327   1.429 -1.1526  3.0420  0.4376
  825MOL0     H 8856   7.337   1.453   1.197  0.0009 -1.0565  0.1084
  825MOL0     H 8857   7.482   1.519   1.267 -1.2898  1.9906 -3.2095
  825MOL0     H 8858   7.214   1.547   1.398 -0.3514  0.9786  2.7921
  825MOL0     H 8859   7.366   1.625   1.451 -2.6400  1.5669  1.1409
  825MOL0     H 8860   7.389   1.758   1.260  0.7248 -0.9712 -0.4725
  825MOL0     H 8861   7.239   1.805   1.328 -1.4330 -1.2219  3.6006
  825MOL0     H 8862   7.082   1.651   0.943  1.6505  0.8508  1.0456
  825MOL0     H 8863   6.828   1.651   0.917 -2.5988  0.8270  1.7167
  825MOL0     H 8864   6.475   1.434   0.913  1.7156  3.0089 -2.8110
  825MOL0     H 8865   6.232   1.392   0.889  1.0187  0.1141 -2.5995
  825MOL0     H 8866   5.945   1.693   0.908  1.1702  2.8545  1.5681
  825MOL0     H 8867   5.949   1.686   1.087  0.2848  0.6761 -0.2999
  825MOL0     H 8868   5.817   1.470   1.087 -0.4292 -0.2249  0.6458
  825MOL0     H 8869   5.779   1.491   0.924  1.2309 -0.8814 -0.2434
  825MOL0     H 8870   5.660   1.613   1.163 -0.3846  0.6042  0.5276
  825MOL0     H 8871   5.600   1.611   0.987  0.7067  2.4743 -2.3292
  825MOL0     H 8872   5.774   1.822   1.118  0.4194 -1.0401 -1.3518
  825MOL0     H 8873   5.738   1.817   0.950 -2.6150 -1.7327 -1.8544
  825MOL0     H 8874   5.514   1.844   1.161 -0.5507 -2.7724 -1.7065
  825MOL0     H 8875   5.500   1.836   0.985  2.7520  0.0208 -2.9543
  825MOL0     H 8876   5.642   2.043   1.145  1.3142 -0.5823 -0.8835
  825MOL0     H 8877   5.475   2.056   1.070 -0.6295 -1.2375  0.3575
  825MOL0     H 8878   5.747   2.045   0.936  0.2301 -0.1082 -1.0384
  825MOL0     H 8879   5.586   2.038   0.850  2.3704 -1.5418 -0.6081
  825MOL0     H 8880   5.670   2.268   1.037  3.7310  1.2713 -1.6458
  825MOL0     H 8881   5.524   2.259   0.922  0.4500 -0.2966 -0.6353
  825MOL0     H 8882   6.153   1.764   1.069 -1.5576 -1.2195 -1.8128
  825MOL0     H 8883   6.372   1.817   1.084 -0.5959 -1.0709  2.9462
  825MOL0     H 8884   6.798   1.683   1.350  0.7237  0.9120  0.2337
  825MOL0     H 8885   7.045   1.702   1.357  0.5843  0.6693  0.0430
  825MOL0     H 8886   8.695   0.727   0.927 -1.2269  0.2428  0.7089
  825MOL0     H 8887   8.893   0.612   0.919 -0.7958 -1.8332 -0.4553
  825MOL0     H 8888   9.338   0.413   1.097 -0.9797  0.3087 -0.4709
  825MOL0     H 8889   9.501   0.265   1.031 -0.6494  0.0034  1.0369
  825MOL0     H 8890   9.609   0.178   0.862  1.2456  0.8120 -0.9340
  825MOL0     H 8891   9.620   0.041   0.749 -0.6931 -0.2190  0.9509
  825MOL0     H 8892   9.648   0.032   1.057 -0.5007  3.1215 -1.8430
  825MOL0     H 8893   9.632  -0.114   0.958  1.9028 -0.8170  1.0504
  825MOL0     H 8894   9.881  -0.048   1.006  0.4740 -1.3225  0.4888
  825MOL0     H 8895   9.852   0.081   0.888  0.0663 -1.0696 -3.8320
  825MOL0     H 8896   9.785  -0.089   0.711 -0.8811 -0.8197  0.5338
  825MOL0     H 8897   9.952  -0.091   0.781 -0.2286  0.5201 -2.8399
  825MOL0     H 8898   9.783  -0.459   0.912  0.5880 -0.3344  0.1410
  825MOL0     H 8899   9.199   0.008   0.848 -1.3726  1.3578 -2.3200
  825MOL0     H 8900   9.035   0.156   0.915 -0.8441 -1.0153 -0.0273
  826MOL0     O 8901   2.358   9.783   7.376  0.1316  0.5293 -0.0112
  826MOL0     C 8902   2.402   9.829   7.480  0.4767  0.0871 -0.3418
  826MOL0     O 8903   2.506   9.778   7.546 -0.3547  0.1614  0.0384
  826MOL0     C 8904   2.588   9.672   7.501 -0.8431 -0.2064  0.6574
  826MOL0     C 8905   2.717   9.705   7.475  0.0739  0.0656  0.3755
  826MOL0     C 8906   2.812   9.606   7.442 -0.2388  0.3136  0.1475
  826MOL0     C 8907   2.771   9.473   7.440 -0.7576 -0.6363 -0.2336
  826MOL0     O 8908   2.870   9.386   7.415 -0.4396 -0.3663 -0.6862
  826MOL0     C 8909   2.851   9.248   7.448 -0.4751 -1.3158  0.2322
  826MOL0     C 8910   2.980   9.172   7.443 -0.4864 -0.3831  0.0021
  826MOL0     C 8911   3.091   9.232   7.540  0.4073 -0.8583  0.1778
  826MOL0     C 8912   3.207   9.136   7.561  1.3712  0.1294  0.6780
  826MOL0     C 8913   3.306   9.195   7.659  0.4653 -0.5879  0.8531
  826MOL0     C 8914   3.443   9.130   7.672  0.0453 -0.0489 -0.2386
  826MOL0     C 8915   3.518   9.220   7.775 -0.1075  0.3176  0.6136
  826MOL0     C 8916   3.654   9.181   7.819 -1.0688  0.3909  0.9335
  826MOL0     N 8917   3.711   9.286   7.910 -0.9280 -0.2473  0.0635
  826MOL0     C 8918   3.692   9.277   8.045 -0.1747 -0.0346 -0.9601
  826MOL0     C 8919   3.705   9.398   8.102 -0.0315  0.1951  0.4577
  826MOL0     C 8920   3.688   9.440   8.245  0.1685  0.0353  1.4342
  826MOL0     C 8921   3.540   9.424   8.288 -0.0841 -0.0173  0.5154
  826MOL0     C 8922   3.513   9.516   8.403  0.7974  0.7497  0.7083
  826MOL0     C 8923   3.364   9.498   8.440  0.4280  0.6098  0.1526
  826MOL0     O 8924   3.275   9.568   8.357  0.1067  1.0337  0.7427
  826MOL0     C 8925   3.139   9.567   8.377 -0.7356  0.1965 -0.2757
  826MOL0     C 8926   3.077   9.502   8.491 -0.1224  0.2943  0.4432
  826MOL0     C 8927   2.937   9.486   8.485 -0.0644 -0.0131 -0.2522
  826MOL0     C 8928   2.858   9.528   8.386  0.7458  0.1361 -0.5864
  826MOL0     C 8929   2.710   9.520   8.385  0.5195 -0.9657  0.2200
  826MOL0     O 8930   2.641   9.567   8.272  0.4784 -0.4680  0.1282
  826MOL0     C 8931   2.506   9.560   8.263  0.3680 -0.7363  0.0088
  826MOL0     C 8932   2.445   9.436   8.239  0.4451  0.1281 -0.1901
  826MOL0     C 8933   2.298   9.431   8.237  0.1689  0.2148 -0.0536
  826MOL0     C 8934   2.227   9.553   8.243 -0.0549 -0.0973  0.8499
  826MOL0     O 8935   2.089   9.553   8.252 -1.0538  0.0270 -0.5236
  826MOL0     C 8936   2.021   9.427   8.234  0.4802  1.2761  0.6793
  826MOL0     C 8937   1.867   9.446   8.192 -0.7911  0.4644 -0.2985
  826MOL0     C 8938   1.827   9.533   8.075 -0.4445  0.1761 -0.4813
  826MOL0     C 8939   1.675   9.548   8.072  0.0343 -0.1538 -0.2880
  826MOL0     C 8940   1.637   9.605   7.930  0.1535 -1.0987  0.0444
  826MOL0     C 8941   1.503   9.671   7.937 -0.4501 -0.0487  0.4270
  826MOL0     C 8942   1.455   9.702   7.799 -0.0956  0.3792  0.2429
  826MOL0     C 8943   1.323   9.782   7.801  0.8463 -0.5061  0.4958
  826MOL0    Cl 8944   1.193   9.719   7.904 -0.1178 -0.4534  0.1674
  826MOL0     C 8945   2.297   9.677   8.251 -0.8068 -0.7696 -0.0749
  826MOL0     C 8946   2.435   9.678   8.278  0.0113  0.1350 -0.2277
  826MOL0     O 8947   2.663   9.457   8.476 -0.6538  0.1316 -0.5332
  826MOL0     C 8948   2.925   9.599   8.279 -0.5907 -0.0628  0.9840
  826MOL0     C 8949   3.063   9.608   8.276  0.6796  0.0772  0.4968
  826MOL0     N 8950   3.742   9.474   7.993 -0.6984 -0.7492  0.1946
  826MOL0     N 8951   3.746   9.413   7.882 -0.1944 -0.0866 -0.7505
  826MOL0     C 8952   2.633   9.436   7.455  0.1623  0.3297 -0.1066
  826MOL0     C 8953   2.540   9.539   7.482  0.4096  0.3594  0.1383
  826MOL0     C 8954   2.343   9.959   7.526 -0.0279 -0.2233 -1.5733
  826MOL0     C 8955   2.212  10.008   7.492  0.3342 -0.1679 -1.1284
  826MOL0     C 8956   2.169  10.131   7.546 -0.7251 -0.9122  0.2573
  826MOL0     C 8957   2.255  10.216   7.627  0.6842  0.4014  0.3904
  826MOL0     O 8958   2.224  10.340   7.670  0.4350  0.4392  0.9791
  826MOL0     C 8959   2.088  10.382   7.635 -0.1782  1.1212 -0.2226
  826MOL0     C 8960   2.066  10.526   7.687 -0.3763 -0.7481  0.4599
  826MOL0     C 8961   1.947  10.595   7.610 -0.7688  0.6545 -0.6882
  826MOL0     C 8962   1.951  10.744   7.632  0.0059  0.4278 -0.1239
  826MOL0     C 8963   1.823  10.799   7.573  0.3393  0.2525  0.0048
  826MOL0     C 8964   1.718  10.837   7.523 -0.0653 -0.0623  0.2997
  826MOL0     C 8965   2.384  10.162   7.643  0.0819  0.2099 -0.3234
  826MOL0     C 8966   2.420  10.040   7.605 -0.3317 -0.4626 -0.2617
  826MOL0     H 8967   2.750   9.807   7.491 -0.7864  0.1194  2.0133
  826MOL0     H 8968   2.916   9.634   7.428  0.5951 -1.3371  2.4041
  826MOL0     H 8969   2.790   9.192   7.376 -1.3069 -1.9630  1.4125
  826MOL0     H 8970   2.810   9.237   7.548  1.5914 -1.0009  1.1646
  826MOL0     H 8971   3.031   9.155   7.347  0.1277  2.0432 -0.1716
  826MOL0     H 8972   2.954   9.073   7.480 -1.1174 -0.7393 -1.3099
  826MOL0     H 8973   3.048   9.254   7.638  0.5189  1.4938 -0.2444
  826MOL0     H 8974   3.122   9.331   7.507 -0.2217 -0.4515  0.8028
  826MOL0     H 8975   3.168   9.046   7.609  3.1684 -0.7283  0.6122
  826MOL0     H 8976   3.247   9.110   7.463  3.1493 -0.7154  1.5807
  826MOL0     H 8977   3.254   9.213   7.753 -1.1723 -0.4635 -0.0443
  826MOL0     H 8978   3.336   9.296   7.629  1.4593 -0.9613  0.5209
  826MOL0     H 8979   3.490   9.131   7.573  2.2183 -2.0505  0.6934
  826MOL0     H 8980   3.426   9.029   7.710 -2.4973  1.4606  3.1953
  826MOL0     H 8981   3.524   9.325   7.745 -0.6472 -0.5710 -2.9949
  826MOL0     H 8982   3.459   9.204   7.866  0.1563  1.1716  0.9445
  826MOL0     H 8983   3.711   9.190   7.726 -1.1431 -1.0293  0.7339
  826MOL0     H 8984   3.663   9.079   7.857 -1.3963 -0.1871 -0.4825
  826MOL0     H 8985   3.667   9.190   8.105 -1.8450  1.7863  1.1295
  826MOL0     H 8986   3.709   9.547   8.233  1.5108 -0.2629  0.8351
  826MOL0     H 8987   3.756   9.397   8.319 -1.2897 -0.1309  2.7037
  826MOL0     H 8988   3.530   9.319   8.315  0.0573 -0.5087 -1.2082
  826MOL0     H 8989   3.470   9.445   8.206  1.0692  0.8082 -0.2952
  826MOL0     H 8990   3.572   9.490   8.491  1.9175  0.4727 -0.1019
  826MOL0     H 8991   3.522   9.622   8.377 -1.2063  0.8787  0.3644
  826MOL0     H 8992   3.358   9.533   8.544  1.2911 -0.9992  0.7821
  826MOL0     H 8993   3.327   9.396   8.450 -1.4664  1.4286  2.4079
  826MOL0     H 8994   3.143   9.461   8.567  0.4960  3.0629  1.5071
  826MOL0     H 8995   2.894   9.433   8.569  1.9315 -3.5299 -1.1817
  826MOL0     H 8996   2.503   9.345   8.246  2.1049  1.1831  0.3820
  826MOL0     H 8997   2.242   9.339   8.240 -0.1514  0.4203  0.3738
  826MOL0     H 8998   2.031   9.360   8.320 -1.4516  0.0415  0.0116
  826MOL0     H 8999   2.067   9.387   8.143  0.2402  1.5171  0.4505
  826MOL0     H 9000   1.827   9.497   8.280 -1.8311  0.0990 -0.5516
  826MOL0     H 9001   1.827   9.345   8.177 -2.2570  1.4494 -3.6954
  826MOL0     H 9002   1.864   9.491   7.981 -1.0653  0.3788 -0.8215
  826MOL0     H 9003   1.879   9.625   8.104 -0.0717  0.4067 -1.8146
  826MOL0     H 9004   1.615   9.459   8.095 -2.4860  1.0136 -1.8843
  826MOL0     H 9005   1.653   9.616   8.155 -2.3681 -2.9099  1.5187
  826MOL0     H 9006   1.641   9.527   7.854  2.6220 -1.1750  0.1714
  826MOL0     H 9007   1.703   9.688   7.902 -0.8326  0.1587  1.2695
  826MOL0     H 9008   1.497   9.752   8.009 -2.4957 -2.0102  2.6300
  826MOL0     H 9009   1.441   9.597   7.988  0.4094  0.3036  2.0432
  826MOL0     H 9010   1.533   9.760   7.750  0.9508  0.0042  1.3988
  826MOL0     H 9011   1.444   9.610   7.741 -1.8179  1.1096 -0.6721
  826MOL0     H 9012   1.281   9.790   7.700  0.1753 -3.5788  0.4267
  826MOL0     H 9013   1.347   9.880   7.843  1.1915 -1.0271  1.5561
  826MOL0     H 9014   2.236   9.765   8.264  0.6423  0.0504  1.7929
  826MOL0     H 9015   2.478   9.776   8.297  2.4237 -1.1102  1.2641
  826MOL0     H 9016   2.861   9.617   8.193 -0.3571  0.2281  0.8696
  826MOL0     H 9017   3.119   9.639   8.188  0.0798 -0.8713 -0.2299
  826MOL0     H 9018   2.596   9.334   7.449 -0.5563  0.6135 -0.7510
  826MOL0     H 9019   2.438   9.507   7.496  0.5665  0.4568  1.6097
  826MOL0     H 9020   2.147   9.945   7.431 -2.1451 -0.2409  1.3515
  826MOL0     H 9021   2.065  10.150   7.522 -0.3533 -0.6942 -1.2788
  826MOL0     H 9022   2.020  10.311   7.684  1.1998 -0.1885 -0.1432
  826MOL0     H 9023   2.072  10.373   7.527 -0.1191  0.3062 -0.1646
  826MOL0     H 9024   2.035  10.514   7.792  0.6448 -0.7969  0.7628
  826MOL0     H 9025   2.155  10.589   7.687 -1.4572  0.8401  1.1580
  826MOL0     H 9026   1.852  10.552   7.641 -0.2877 -0.9162 -1.2806
  826MOL0     H 9027   1.954  10.584   7.501 -0.6790  1.9785 -0.8270
  826MOL0     H 9028   1.972  10.776   7.735 -0.1432  2.8221 -0.7732
  826MOL0     H 9029   2.032  10.778   7.567  0.8101 -1.4025 -0.1308
  826MOL0     H 9030   1.624  10.871   7.487  0.9583  1.3857 -1.1364
  826MOL0     H 9031   2.459  10.229   7.683  0.1204  0.9956 -1.6496
  826MOL0     H 9032   2.526  10.018   7.619  0.0730  0.6089 -1.4567
  827MOL0     O 9033   1.900   0.787  10.278  0.0571  0.0652  0.7519
  827MOL0     C 9034   1.912   0.907  10.307 -0.3175 -1.2643  0.2921
  827MOL0     O 9035   1.818   1.002  10.282 -0.5738 -0.0247 -0.0969
  827MOL0     C 9036   1.690   0.955  10.261 -0.0351 -0.9074 -0.0621
  827MOL0     C 9037   1.634   0.944  10.129  0.8313 -0.0196 -0.0731
  827MOL0     C 9038   1.498   0.914  10.111  0.1995  0.1699 -0.4675
  827MOL0     C 9039   1.425   0.884  10.224 -0.5354  0.2175  0.1018
  827MOL0     O 9040   1.289   0.845  10.231  0.1499 -0.4152  0.5516
  827MOL0     C 9041   1.249   0.744  10.134 -0.3158 -0.2870 -0.4295
  827MOL0     C 9042   1.100   0.722  10.164  0.2204 -0.5651  0.2859
  827MOL0     C 9043   1.023   0.857  10.141  0.1480 -0.2283  0.0554
  827MOL0     C 9044   0.880   0.845  10.171  0.4304  0.0630 -0.4889
  827MOL0     C 9045   0.819   0.960  10.254 -0.4891  0.5580  0.6806
  827MOL0     C 9046   0.668   0.936  10.265 -0.1403  0.0002  0.0080
  827MOL0     C 9047   0.607   1.048  10.339  0.1210  0.4685  0.0488
  827MOL0     C 9048   0.467   1.005  10.387  0.2927  0.4214 -0.0909
  827MOL0     N 9049   0.378   0.949  10.282 -0.2030  0.2211 -0.1366
  827MOL0     C 9050   0.312   1.006  10.173 -0.1978  0.0217  0.0289
  827MOL0     C 9051   0.210   0.927  10.137 -0.5196  0.2113  0.5123
  827MOL0     C 9052   0.113   0.935  10.015  0.5750  0.1995  0.0256
  827MOL0     C 9053  -0.033   0.982  10.065  0.7686  0.0551  0.5008
  827MOL0     C 9054  -0.107   0.876  10.147 -0.4001 -0.4231  0.2399
  827MOL0     C 9055  -0.260   0.887  10.140  0.1239 -0.1744  0.1790
  827MOL0     O 9056  -0.310   0.839  10.013 -0.0139 -0.1732 -0.0058
  827MOL0     C 9057  -0.444   0.852   9.995  0.7290  0.1810 -0.8299
  827MOL0     C 9058  -0.502   0.841   9.867  0.3453 -0.4707  0.1321
  827MOL0     C 9059  -0.637   0.871   9.846  0.3756  0.6795  0.1044
  827MOL0     C 9060  -0.723   0.897   9.958  0.0663 -0.4743 -0.3014
  827MOL0     C 9061  -0.870   0.904   9.946  0.1719 -0.3917  0.1256
  827MOL0     O 9062  -0.946   0.944  10.047  0.6824  0.8740  0.0760
  827MOL0     C 9063  -1.078   0.978  10.027  0.4836  0.4362 -0.4098
  827MOL0     C 9064  -1.130   1.030   9.908 -0.0700  0.7452  0.0486
  827MOL0     C 9065  -1.261   1.072   9.900 -0.8103  0.0621  1.0576
  827MOL0     C 9066  -1.345   1.073  10.013 -0.0734 -0.3282  0.0264
  827MOL0     O 9067  -1.471   1.121  10.005  0.0768 -0.0071 -0.1357
  827MOL0     C 9068  -1.542   1.083   9.884 -0.1068 -0.4242  0.4416
  827MOL0     C 9069  -1.688   1.130   9.883  0.0196  0.0434 -0.0242
  827MOL0     C 9070  -1.720   1.267   9.832  0.8369 -0.2928  0.2906
  827MOL0     C 9071  -1.850   1.320   9.873 -0.5961 -0.0351 -0.0685
  827MOL0     C 9072  -1.970   1.273   9.787 -0.0550  0.1765 -0.0103
  827MOL0     C 9073  -2.101   1.344   9.818 -0.4056  0.2024 -0.1874
  827MOL0     C 9074  -2.202   1.304   9.714 -0.0019  0.7803  0.3885
  827MOL0     C 9075  -2.327   1.382   9.733 -0.5648 -0.7315  0.0639
  827MOL0    Cl 9076  -2.382   1.334   9.902  0.3243  0.1117  0.0949
  827MOL0     C 9077  -1.292   1.033  10.131 -0.1257  0.8591 -0.9357
  827MOL0     C 9078  -1.152   0.991  10.138  0.6419 -0.5760  0.2592
  827MOL0     O 9079  -0.907   0.864   9.834 -0.0678  0.6402  0.3196
  827MOL0     C 9080  -0.670   0.903  10.087  0.2463  0.1731  0.6750
  827MOL0     C 9081  -0.536   0.883  10.103  0.1624  0.4374  0.4810
  827MOL0     N 9082   0.209   0.814  10.220 -0.0385 -0.9102 -0.4135
  827MOL0     N 9083   0.311   0.832  10.299 -0.9672  0.2537 -0.0986
  827MOL0     C 9084   1.483   0.880  10.353 -0.9804  0.4353  0.9027
  827MOL0     C 9085   1.615   0.923  10.374  0.1548  0.7470 -0.0112
  827MOL0     C 9086   2.044   0.950  10.366  1.1801 -0.5570 -0.2895
  827MOL0     C 9087   2.164   0.872  10.344  0.2269 -0.1607 -0.7548
  827MOL0     C 9088   2.284   0.918  10.409 -0.1620  0.1132 -0.5244
  827MOL0     C 9089   2.285   1.036  10.490 -0.5165  0.1608 -0.1422
  827MOL0     O 9090   2.394   1.095  10.560  0.5955  0.3227 -0.1694
  827MOL0     C 9091   2.519   1.039  10.525 -1.1309  0.7396  0.5885
  827MOL0     C 9092   2.636   1.099  10.608  1.1083  1.2241  0.1979
  827MOL0     C 9093   2.633   1.254  10.616  0.0003 -0.2849 -0.4661
  827MOL0     C 9094   2.566   1.315  10.735  0.7312 -0.0181  0.6733
  827MOL0     C 9095   2.612   1.256  10.866 -0.1765  0.0597  0.5588
  827MOL0     C 9096   2.653   1.200  10.974  0.0175 -0.5175  0.0271
  827MOL0     C 9097   2.168   1.097  10.510  0.3049 -0.3490  0.0990
  827MOL0     C 9098   2.046   1.063  10.450 -0.3520  0.6676  0.1045
  827MOL0     H 9099   1.696   0.962  10.042  1.0106  1.5385  0.3506
  827MOL0     H 9100   1.456   0.911  10.011  0.8489  0.2092 -0.7483
  827MOL0     H 9101   1.317   0.660  10.152  2.1148  1.7840  0.7051
  827MOL0     H 9102   1.269   0.772  10.030  0.1931  0.8619 -0.0435
  827MOL0     H 9103   1.081   0.695  10.268 -1.8563  0.3065  0.1896
  827MOL0     H 9104   1.064   0.652  10.088  2.6359 -1.2640 -0.3140
  827MOL0     H 9105   1.028   0.874  10.033 -1.0604 -0.8083 -0.1101
  827MOL0     H 9106   1.072   0.937  10.197 -0.9809 -0.8698  2.0675
  827MOL0     H 9107   0.818   0.824  10.084  0.4547  0.7877 -0.6897
  827MOL0     H 9108   0.866   0.756  10.233  1.1457  1.0816  1.2059
  827MOL0     H 9109   0.828   1.052  10.196  2.8494  1.8461  2.9594
  827MOL0     H 9110   0.881   0.971  10.343  1.3793  0.1566 -0.5133
  827MOL0     H 9111   0.662   0.842  10.322 -0.0966 -0.9955 -1.5848
  827MOL0     H 9112   0.621   0.920  10.168  0.4716  0.8739 -0.4424
  827MOL0     H 9113   0.663   1.063  10.432 -0.1547 -0.0096  0.2899
  827MOL0     H 9114   0.596   1.142  10.284  0.0237 -0.0339 -0.8050
  827MOL0     H 9115   0.418   1.092  10.433  0.6618 -0.1534  1.4597
  827MOL0     H 9116   0.473   0.933  10.468 -0.7329 -0.6891 -0.9755
  827MOL0     H 9117   0.349   1.086  10.110 -0.4289 -1.2331 -1.7805
  827MOL0     H 9118   0.099   0.840   9.963 -0.8071 -0.8398  2.1418
  827MOL0     H 9119   0.152   1.004   9.940  0.1278 -0.0047 -0.4012
  827MOL0     H 9120  -0.088   1.007   9.974  0.8209  0.8232  0.6707
  827MOL0     H 9121  -0.009   1.069  10.127 -0.7507  0.3265  0.7519
  827MOL0     H 9122  -0.076   0.784  10.097  0.6341  0.3506 -0.5837
  827MOL0     H 9123  -0.067   0.879  10.249 -1.5037  0.1991  0.6792
  827MOL0     H 9124  -0.282   0.993  10.152  0.7930 -0.1428  1.2623
  827MOL0     H 9125  -0.296   0.835  10.229 -0.8982  1.5067  0.7980
  827MOL0     H 9126  -0.439   0.804   9.787  0.8274 -0.1456  0.3554
  827MOL0     H 9127  -0.674   0.860   9.744  0.1255 -1.1328  0.3613
  827MOL0     H 9128  -1.070   1.045   9.819  1.9385  0.1554  1.2350
  827MOL0     H 9129  -1.293   1.121   9.808 -2.3856 -3.1754 -0.2783
  827MOL0     H 9130  -1.538   0.974   9.874  0.8388 -0.6283  2.5533
  827MOL0     H 9131  -1.502   1.127   9.791  1.9913  1.7473  2.2384
  827MOL0     H 9132  -1.724   1.113   9.985 -0.6001 -1.0595 -0.4068
  827MOL0     H 9133  -1.740   1.059   9.818  0.4684 -1.0023  0.7386
  827MOL0     H 9134  -1.724   1.262   9.722  2.0268 -3.3681  0.2759
  827MOL0     H 9135  -1.641   1.333   9.869  0.5456  1.6043 -2.2276
  827MOL0     H 9136  -1.862   1.295   9.979 -0.7917 -0.5835 -0.2173
  827MOL0     H 9137  -1.842   1.427   9.850 -3.0261  0.1533 -0.2128
  827MOL0     H 9138  -1.981   1.166   9.806  0.5193  0.2231  0.6049
  827MOL0     H 9139  -1.943   1.301   9.684  0.7453  0.3917  0.2502
  827MOL0     H 9140  -2.079   1.451   9.809  0.3761  0.1443  0.8547
  827MOL0     H 9141  -2.120   1.321   9.923 -0.4220 -1.5868 -0.5551
  827MOL0     H 9142  -2.158   1.328   9.617  0.8827  1.5375  0.9502
  827MOL0     H 9143  -2.227   1.198   9.726 -1.9245  0.9374 -1.6019
  827MOL0     H 9144  -2.406   1.363   9.659 -0.2009  1.1163 -0.8539
  827MOL0     H 9145  -2.311   1.489   9.723 -2.6189 -0.4038 -0.2931
  827MOL0     H 9146  -1.345   1.020  10.225  1.0399 -6.1006 -0.6882
  827MOL0     H 9147  -1.108   0.969  10.235  0.1022 -0.9138  0.4311
  827MOL0     H 9148  -0.732   0.934  10.171 -2.4069  4.1054 -2.3705
  827MOL0     H 9149  -0.492   0.892  10.202  2.2356  0.6053 -0.4117
  827MOL0     H 9150   1.420   0.853  10.437 -2.6486  1.1035 -0.0871
  827MOL0     H 9151   1.669   0.911  10.467  0.8766  0.9532 -0.3945
  827MOL0     H 9152   2.167   0.789  10.274 -1.7792 -2.2617  1.4636
  827MOL0     H 9153   2.378   0.869  10.387 -0.2631  0.2169 -1.2037
  827MOL0     H 9154   2.532   1.056  10.418  1.7540  1.4371  0.9690
  827MOL0     H 9155   2.519   0.930  10.535 -0.1172  0.7356  0.6771
  827MOL0     H 9156   2.645   1.050  10.705  0.3530  2.6403  1.0106
  827MOL0     H 9157   2.719   1.074  10.541  0.0911  3.2572 -1.9620
  827MOL0     H 9158   2.576   1.289  10.530 -2.8378 -1.8572  0.6668
  827MOL0     H 9159   2.735   1.296  10.610 -0.5944  1.0512 -4.1885
  827MOL0     H 9160   2.589   1.422  10.741  0.3223  0.0848  0.4498
  827MOL0     H 9161   2.457   1.315  10.735  0.6370  2.6294  2.1688
  827MOL0     H 9162   2.687   1.139  11.055  0.6784 -0.4159 -0.1653
  827MOL0     H 9163   2.184   1.190  10.565  3.1788  0.2972 -1.6154
  827MOL0     H 9164   1.961   1.129  10.460  0.4039  1.5400  1.1039
  828MOL0     O 9165   0.286   3.619   9.270 -0.6961  0.1110  0.3503
  828MOL0     C 9166   0.363   3.714   9.237  0.2437  0.2070 -0.7682
  828MOL0     O 9167   0.336   3.802   9.132 -0.1081  0.2988  0.5487
  828MOL0     C 9168   0.209   3.838   9.093  0.1359 -0.2831  0.3785
  828MOL0     C 9169   0.200   3.913   8.976  0.2225  0.3283 -0.0734
  828MOL0     C 9170   0.071   3.954   8.933 -0.1473 -0.2290 -0.2518
  828MOL0     C 9171  -0.051   3.912   8.991 -1.6165  0.4719 -0.7503
  828MOL0     O 9172  -0.165   3.956   8.946 -0.1240 -0.4052 -0.2782
  828MOL0     C 9173  -0.200   3.928   8.805 -0.1446 -0.6513 -0.3952
  828MOL0     C 9174  -0.269   3.795   8.777 -0.4412  0.7114  0.1746
  828MOL0     C 9175  -0.327   3.786   8.639 -0.3281  0.0413  0.6255
  828MOL0     C 9176  -0.453   3.878   8.634 -0.7937 -0.2064  0.1553
  828MOL0     C 9177  -0.525   3.856   8.504  1.2844 -0.0868  0.6197
  828MOL0     C 9178  -0.664   3.921   8.530 -0.3136 -0.3693  0.7680
  828MOL0     C 9179  -0.760   3.891   8.420  0.9999 -0.1580  1.1734
  828MOL0     C 9180  -0.699   3.921   8.281  0.2677 -0.0377 -0.4507
  828MOL0     N 9181  -0.821   3.906   8.203  0.3009  0.0178  0.2017
  828MOL0     C 9182  -0.888   4.011   8.140 -1.2194  0.9147  0.7445
  828MOL0     C 9183  -0.978   3.952   8.062 -0.5604  1.4683 -0.6805
  828MOL0     C 9184  -1.078   4.029   7.979  0.1083  0.2376 -0.4391
  828MOL0     C 9185  -1.206   4.040   8.057 -0.4142  0.9527  0.0104
  828MOL0     C 9186  -1.313   4.116   7.975 -0.0784 -0.2232 -0.8182
  828MOL0     C 9187  -1.437   4.136   8.063  0.0419 -0.5285 -0.0546
  828MOL0     O 9188  -1.531   4.023   8.040 -0.4203 -0.0159 -0.4085
  828MOL0     C 9189  -1.644   4.025   8.123  0.1856  0.3357 -0.4510
  828MOL0     C 9190  -1.710   3.904   8.133 -0.3048  0.8425  0.0074
  828MOL0     C 9191  -1.814   3.888   8.221  0.1230  0.6029  0.2906
  828MOL0     C 9192  -1.873   3.992   8.291  0.0678 -0.6349 -0.0584
  828MOL0     C 9193  -1.987   3.973   8.383 -0.6071 -1.0444  1.0380
  828MOL0     O 9194  -2.002   4.054   8.500 -0.3636  0.8195  0.1108
  828MOL0     C 9195  -2.091   4.002   8.587 -0.1739  0.8494  0.2008
  828MOL0     C 9196  -2.231   3.979   8.574 -0.0276 -0.1172  0.2253
  828MOL0     C 9197  -2.303   3.933   8.685 -0.0843  0.6077  0.1252
  828MOL0     C 9198  -2.240   3.904   8.804 -0.0336 -0.3222 -0.0615
  828MOL0     O 9199  -2.326   3.858   8.901 -0.8385  0.3508 -1.1212
  828MOL0     C 9200  -2.303   3.875   9.044  0.3951 -0.4293 -0.8551
  828MOL0     C 9201  -2.406   3.797   9.125 -0.4450  1.4780 -0.0309
  828MOL0     C 9202  -2.544   3.842   9.118  0.0187 -0.2820 -0.0299
  828MOL0     C 9203  -2.642   3.742   9.184 -0.0039  0.3413 -0.3441
  828MOL0     C 9204  -2.789   3.793   9.176  0.4720  0.0974  0.6284
  828MOL0     C 9205  -2.885   3.671   9.175 -0.2253 -0.2488 -0.0222
  828MOL0     C 9206  -3.034   3.714   9.152 -0.1212 -0.0068 -0.3361
  828MOL0     C 9207  -3.093   3.769   9.278  0.1958 -0.4031 -0.2223
  828MOL0    Cl 9208  -3.272   3.796   9.261  0.1073  0.0593  0.0969
  828MOL0     C 9209  -2.107   3.926   8.820  0.7192 -0.0394 -0.1096
  828MOL0     C 9210  -2.030   3.970   8.708 -0.9743 -0.3321 -0.6509
  828MOL0     O 9211  -2.045   3.872   8.354  0.9997  0.7334  0.3722
  828MOL0     C 9212  -1.812   4.117   8.267  0.5278 -0.5036 -0.6993
  828MOL0     C 9213  -1.690   4.131   8.203  0.1257 -0.9889 -0.1604
  828MOL0     N 9214  -0.962   3.809   8.070 -0.1010 -0.1177 -0.3726
  828MOL0     N 9215  -0.871   3.783   8.156  0.6291  0.4038  0.3772
  828MOL0     C 9216  -0.041   3.836   9.107  1.0208 -0.5332  0.4340
  828MOL0     C 9217   0.085   3.801   9.160  0.0654  0.6390 -1.5077
  828MOL0     C 9218   0.489   3.729   9.315 -0.1914  0.2588  0.2818
  828MOL0     C 9219   0.506   3.645   9.428  0.0359  0.0376 -0.4969
  828MOL0     C 9220   0.627   3.649   9.499  0.2626 -0.2954  0.2313
  828MOL0     C 9221   0.738   3.719   9.460 -0.0133 -0.9669  0.1974
  828MOL0     O 9222   0.856   3.718   9.515  0.3511 -0.1886 -0.2233
  828MOL0     C 9223   0.888   3.609   9.613  0.5559 -1.1559  0.3072
  828MOL0     C 9224   1.033   3.608   9.655 -0.3526  0.5192  1.2881
  828MOL0     C 9225   1.079   3.739   9.717  0.6721  1.0323  1.0754
  828MOL0     C 9226   1.205   3.701   9.799 -0.3211  0.6658 -0.0278
  828MOL0     C 9227   1.273   3.827   9.845 -0.4546 -0.2749  0.2568
  828MOL0     C 9228   1.327   3.939   9.867 -0.3492  0.1659 -0.5874
  828MOL0     C 9229   0.709   3.813   9.354 -0.4574  0.0750  0.5564
  828MOL0     C 9230   0.588   3.825   9.285 -0.5581  0.0926 -0.4618
  828MOL0     H 9231   0.292   3.943   8.926 -0.3176  2.0625 -0.0691
  828MOL0     H 9232   0.072   4.021   8.847  0.9748  1.4523  1.0186
  828MOL0     H 9233  -0.110   3.935   8.742 -1.3870  0.0091 -2.1857
  828MOL0     H 9234  -0.271   4.007   8.780 -1.6328 -2.0522 -0.7474
  828MOL0     H 9235  -0.346   3.785   8.854 -0.5509 -1.3864 -0.1284
  828MOL0     H 9236  -0.195   3.715   8.791  0.6046  1.8820  1.6232
  828MOL0     H 9237  -0.349   3.679   8.631  0.5258 -0.2416  1.8346
  828MOL0     H 9238  -0.259   3.817   8.559  2.2831 -0.8422  2.3855
  828MOL0     H 9239  -0.515   3.867   8.724  1.1496  0.0105  1.6048
  828MOL0     H 9240  -0.427   3.984   8.637 -0.6666 -0.2535  2.3567
  828MOL0     H 9241  -0.537   3.748   8.494  1.2611  0.1255 -2.1750
  828MOL0     H 9242  -0.476   3.908   8.421  1.6287 -2.3243 -0.6449
  828MOL0     H 9243  -0.653   4.029   8.526 -0.9030 -0.3288 -0.8420
  828MOL0     H 9244  -0.697   3.889   8.629 -1.5436 -2.1612 -0.1524
  828MOL0     H 9245  -0.795   3.788   8.422  0.2733  0.0470 -0.1857
  828MOL0     H 9246  -0.836   3.967   8.437  2.4080  1.1614  1.8829
  828MOL0     H 9247  -0.627   3.844   8.253  0.7232  0.4561 -0.6505
  828MOL0     H 9248  -0.653   4.020   8.272 -1.1772  0.5688 -1.4287
  828MOL0     H 9249  -0.865   4.116   8.151  1.2485  0.6038 -0.6998
  828MOL0     H 9250  -1.088   3.983   7.881 -2.9228 -0.9977  0.3456
  828MOL0     H 9251  -1.026   4.120   7.947  1.9798 -0.8199 -0.5868
  828MOL0     H 9252  -1.167   4.077   8.152  1.3016 -1.2702  0.2495
  828MOL0     H 9253  -1.252   3.942   8.073  2.3259 -0.3589  0.4138
  828MOL0     H 9254  -1.279   4.209   7.929 -0.6016 -0.6633 -2.1241
  828MOL0     H 9255  -1.339   4.049   7.892  0.4520 -2.0243  0.4042
  828MOL0     H 9256  -1.477   4.229   8.021  0.1913 -0.8203 -0.8574
  828MOL0     H 9257  -1.414   4.150   8.168 -1.6194 -2.2421  0.6010
  828MOL0     H 9258  -1.696   3.817   8.070 -3.8851  0.3487 -0.3574
  828MOL0     H 9259  -1.859   3.790   8.231 -1.9230  1.6929  2.8340
  828MOL0     H 9260  -2.280   3.981   8.477  0.9364 -3.4277 -0.4651
  828MOL0     H 9261  -2.406   3.902   8.669  0.7000 -1.2264 -1.6844
  828MOL0     H 9262  -2.313   3.978   9.080 -3.1853 -1.1484  0.6537
  828MOL0     H 9263  -2.206   3.832   9.068  0.5645  0.7800  0.7952
  828MOL0     H 9264  -2.369   3.796   9.228  2.0406 -0.4524 -0.8625
  828MOL0     H 9265  -2.407   3.694   9.090 -0.9919  2.4980 -3.3521
  828MOL0     H 9266  -2.571   3.853   9.012 -2.7406 -0.6608  0.5486
  828MOL0     H 9267  -2.556   3.934   9.176 -0.3919 -0.7631  0.6599
  828MOL0     H 9268  -2.635   3.644   9.135 -1.9241  0.0506 -0.0999
  828MOL0     H 9269  -2.601   3.719   9.284  2.6789  0.9634 -1.2116
  828MOL0     H 9270  -2.804   3.858   9.089 -0.4223 -0.6355  0.2152
  828MOL0     H 9271  -2.805   3.848   9.269 -0.7134  1.3397 -0.2678
  828MOL0     H 9272  -2.876   3.628   9.276  0.3757  0.3452  0.1850
  828MOL0     H 9273  -2.866   3.595   9.098 -1.8838 -0.7675  0.0465
  828MOL0     H 9274  -3.036   3.790   9.074  2.3240  0.7189  0.1845
  828MOL0     H 9275  -3.092   3.625   9.127 -0.3244  0.3488 -1.1637
  828MOL0     H 9276  -3.047   3.867   9.292  0.3217 -0.5886  0.7116
  828MOL0     H 9277  -3.077   3.706   9.366 -2.5331  1.1652  1.5400
  828MOL0     H 9278  -2.057   3.906   8.914  0.9319  0.9315 -0.0021
  828MOL0     H 9279  -1.922   3.983   8.709 -0.7006 -2.1756  0.6998
  828MOL0     H 9280  -1.856   4.206   8.311  0.7897 -1.5906  1.9723
  828MOL0     H 9281  -1.647   4.230   8.219  3.5421 -2.4802  0.9537
  828MOL0     H 9282  -0.132   3.807   9.159  0.5178  0.4591  0.1322
  828MOL0     H 9283   0.100   3.749   9.255  0.8095  2.0482 -0.8201
  828MOL0     H 9284   0.425   3.583   9.466  1.6450 -1.4895  0.5943
  828MOL0     H 9285   0.628   3.594   9.593  2.9379  0.6552  0.8506
  828MOL0     H 9286   0.851   3.508   9.590 -0.0696 -0.7229 -0.6193
  828MOL0     H 9287   0.836   3.630   9.707 -0.3261  1.5005 -0.7101
  828MOL0     H 9288   1.042   3.526   9.726  2.3125 -1.1818 -0.8019
  828MOL0     H 9289   1.091   3.576   9.568 -2.5473 -0.8466  0.2245
  828MOL0     H 9290   1.002   3.779   9.784  0.8627  0.7005  1.4979
  828MOL0     H 9291   1.108   3.813   9.643 -0.0669  0.9615  0.7037
  828MOL0     H 9292   1.172   3.642   9.885  1.7222  1.6775  1.5475
  828MOL0     H 9293   1.270   3.634   9.742  0.4826 -0.4732  2.1015
  828MOL0     H 9294   1.378   4.033   9.879 -3.3740  2.4839 -3.9984
  828MOL0     H 9295   0.793   3.874   9.324 -0.3166 -1.5719 -2.9326
  828MOL0     H 9296   0.577   3.896   9.203  2.1367  0.8132 -0.2814
  829MOL0     O 9297   0.505   9.721  10.903  0.1730  0.9503  0.1501
  829MOL0     C 9298   0.518   9.817  10.983  0.3080 -0.6452  0.3126
  829MOL0     O 9299   0.420   9.900  11.030  0.0565  0.6792  0.4681
  829MOL0     C 9300   0.298   9.881  10.974  0.0599 -0.6636  0.2229
  829MOL0     C 9301   0.277   9.907  10.840  0.3161 -0.2926  0.2490
  829MOL0     C 9302   0.155   9.871  10.780  0.2934  0.2648 -0.0647
  829MOL0     C 9303   0.051   9.811  10.861  0.1241 -0.6906  0.0157
  829MOL0     O 9304  -0.075   9.770  10.822  0.4629 -0.3097  0.3947
  829MOL0     C 9305  -0.142   9.853  10.723 -0.5697 -0.9517  0.3600
  829MOL0     C 9306  -0.279   9.805  10.750  0.0808  0.3384  0.3269
  829MOL0     C 9307  -0.357   9.857  10.872 -0.6031 -0.0830  0.8313
  829MOL0     C 9308  -0.508   9.810  10.871  0.2144  0.1947 -0.2543
  829MOL0     C 9309  -0.595   9.898  10.969  0.1539  0.0270 -0.3739
  829MOL0     C 9310  -0.549   9.908  11.123 -0.0135 -1.1456 -0.0550
  829MOL0     C 9311  -0.640   9.992  11.210  0.3755 -0.3116 -0.5982
  829MOL0     C 9312  -0.773   9.931  11.235  0.8115  0.1448 -0.3842
  829MOL0     N 9313  -0.846  10.008  11.340  0.4997 -0.4363  0.5223
  829MOL0     C 9314  -0.905  10.135  11.321 -0.3493  0.1327  0.2318
  829MOL0     C 9315  -1.003  10.143  11.414 -0.4954  0.1839 -0.3178
  829MOL0     C 9316  -1.083  10.264  11.445  0.2799 -0.2959  0.0389
  829MOL0     C 9317  -1.097  10.292  11.594 -0.0024  0.0035 -0.1609
  829MOL0     C 9318  -1.167  10.422  11.640  0.2681  0.2134 -0.1707
  829MOL0     C 9319  -1.312  10.438  11.614  0.5072  0.7047 -0.5912
  829MOL0     O 9320  -1.355  10.564  11.667 -0.3716 -0.2174 -0.0756
  829MOL0     C 9321  -1.490  10.581  11.681  0.0298 -0.3474 -0.0959
  829MOL0     C 9322  -1.543  10.624  11.805 -0.7035  0.0494 -0.0419
  829MOL0     C 9323  -1.668  10.668  11.817  0.4405  0.2741  0.0747
  829MOL0     C 9324  -1.759  10.655  11.709  0.0404 -0.5298 -0.5578
  829MOL0     C 9325  -1.907  10.697  11.722 -0.5487  0.8826  0.2597
  829MOL0     O 9326  -1.987  10.691  11.615 -0.1253  0.9622 -0.4539
  829MOL0     C 9327  -2.116  10.731  11.618 -0.7373 -0.2266  0.4435
  829MOL0     C 9328  -2.168  10.825  11.525 -0.0966  0.2072 -0.1215
  829MOL0     C 9329  -2.306  10.867  11.536  0.4676 -0.0850  0.6442
  829MOL0     C 9330  -2.392  10.827  11.641  0.1984 -1.2103  0.4025
  829MOL0     O 9331  -2.521  10.875  11.651 -0.3476 -0.0411 -0.1480
  829MOL0     C 9332  -2.586  10.878  11.776 -0.0494  0.5202 -1.2206
  829MOL0     C 9333  -2.715  10.951  11.773  0.4692  0.4561 -0.4914
  829MOL0     C 9334  -2.700  11.107  11.757  0.0471 -0.4492 -1.0109
  829MOL0     C 9335  -2.825  11.156  11.682  0.5183  0.3890  0.1807
  829MOL0     C 9336  -2.808  11.307  11.663 -0.6652  0.1001 -0.2855
  829MOL0     C 9337  -2.903  11.355  11.556  0.7216 -0.7719  0.7660
  829MOL0     C 9338  -3.050  11.302  11.561 -0.4328  0.1530  0.4922
  829MOL0     C 9339  -3.137  11.367  11.460 -0.4774  0.1315  0.0896
  829MOL0    Cl 9340  -3.217  11.514  11.534 -0.1044  0.0064 -0.2712
  829MOL0     C 9341  -2.336  10.738  11.737  0.4129  0.5948  0.7418
  829MOL0     C 9342  -2.202  10.685  11.722 -0.7433  0.4215 -0.4775
  829MOL0     O 9343  -1.944  10.735  11.836 -0.4994  0.2128  0.8489
  829MOL0     C 9344  -1.706  10.608  11.589  0.3561  0.1265 -0.2216
  829MOL0     C 9345  -1.578  10.578  11.572  0.1871 -0.4790 -0.1540
  829MOL0     N 9346  -0.998  10.030  11.490 -0.0786  0.2985  0.3153
  829MOL0     N 9347  -0.908   9.948  11.448  0.3815  0.1642  0.5092
  829MOL0     C 9348   0.072   9.792  10.995 -0.0073  0.5397 -0.6575
  829MOL0     C 9349   0.198   9.834  11.056  0.2995 -0.3917  0.3156
  829MOL0     C 9350   0.655   9.841  11.027 -0.1095 -0.1981 -1.0253
  829MOL0     C 9351   0.689   9.862  11.164  0.2024  0.2558 -0.2561
  829MOL0     C 9352   0.823   9.892  11.210  1.2593 -0.2074 -0.0096
  829MOL0     C 9353   0.929   9.906  11.119 -0.4264  0.7012 -0.1410
  829MOL0     O 9354   1.056   9.913  11.164 -0.5760  0.0919 -0.2764
  829MOL0     C 9355   1.083   9.951  11.302  0.2985  0.5083  0.4471
  829MOL0     C 9356   1.239   9.936  11.327  0.2187 -0.7855  0.4647
  829MOL0     C 9357   1.265   9.984  11.470  0.4890  0.4363 -0.0309
  829MOL0     C 9358   1.310  10.137  11.464 -0.6218  0.7134  0.4766
  829MOL0     C 9359   1.363  10.170  11.600 -1.2047 -0.1237  0.5156
  829MOL0     C 9360   1.395  10.212  11.708 -0.8365 -0.2614  0.3205
  829MOL0     C 9361   0.901   9.881  10.992 -0.4653 -0.8782  0.3799
  829MOL0     C 9362   0.768   9.854  10.944 -0.4856 -0.0345  0.1180
  829MOL0     H 9363   0.356   9.943  10.775 -2.3191  0.1333 -3.0068
  829MOL0     H 9364   0.144   9.880  10.672  0.6372 -3.5467 -0.5628
  829MOL0     H 9365  -0.100   9.832  10.624  0.0980 -0.9478  0.6349
  829MOL0     H 9366  -0.135   9.960  10.747  0.9933 -0.9367 -0.0404
  829MOL0     H 9367  -0.269   9.696  10.754 -2.1213  0.1349  2.3794
  829MOL0     H 9368  -0.349   9.823  10.668 -1.2019  2.1853  1.7163
  829MOL0     H 9369  -0.369   9.963  10.851  3.7765  0.0295 -2.2662
  829MOL0     H 9370  -0.311   9.837  10.969 -0.4976  1.5992  1.1633
  829MOL0     H 9371  -0.546   9.826  10.770 -1.2878  3.0729  0.6623
  829MOL0     H 9372  -0.514   9.707  10.906  1.6367 -0.1575 -0.9655
  829MOL0     H 9373  -0.698   9.861  10.972  0.0553  0.2265  3.0172
  829MOL0     H 9374  -0.600   9.999  10.928  1.5378  0.5605  0.6737
  829MOL0     H 9375  -0.449   9.952  11.123  1.4535 -4.2031 -0.5233
  829MOL0     H 9376  -0.537   9.807  11.163 -1.8666 -0.9871  0.9916
  829MOL0     H 9377  -0.590   9.992  11.307 -1.5992 -0.9462  0.4867
  829MOL0     H 9378  -0.654  10.095  11.175  0.5925 -0.0416  0.0873
  829MOL0     H 9379  -0.767   9.826  11.265 -0.8282  1.1558  4.3983
  829MOL0     H 9380  -0.829   9.944  11.142  3.1628  1.5585 -1.6992
  829MOL0     H 9381  -0.886  10.205  11.241  3.4407  1.4094  2.0346
  829MOL0     H 9382  -1.181  10.245  11.400 -0.2075 -0.9353  1.3272
  829MOL0     H 9383  -1.033  10.345  11.390 -0.0872  2.0839  2.9428
  829MOL0     H 9384  -0.996  10.299  11.635 -0.4008 -0.5708  0.9864
  829MOL0     H 9385  -1.141  10.203  11.642 -4.0882  0.2203 -3.0119
  829MOL0     H 9386  -1.148  10.434  11.747 -1.4154  1.7689 -0.0098
  829MOL0     H 9387  -1.115  10.505  11.591  1.0713 -1.5062 -2.4618
  829MOL0     H 9388  -1.368  10.362  11.669 -1.6658  2.3923 -0.3004
  829MOL0     H 9389  -1.333  10.429  11.507  0.2223 -0.7845 -0.4285
  829MOL0     H 9390  -1.468  10.629  11.884  2.6817  1.8976 -3.0676
  829MOL0     H 9391  -1.693  10.715  11.912 -0.3801 -2.2634  1.1925
  829MOL0     H 9392  -2.100  10.877  11.459 -1.5430  1.6592 -0.5399
  829MOL0     H 9393  -2.352  10.936  11.465  1.1165  2.4852  2.5574
  829MOL0     H 9394  -2.532  10.929  11.857 -0.9530 -1.0820  0.4897
  829MOL0     H 9395  -2.612  10.779  11.814 -3.0188  0.7750 -2.3658
  829MOL0     H 9396  -2.770  10.929  11.865 -3.2960 -0.9435 -2.8461
  829MOL0     H 9397  -2.784  10.922  11.694 -0.7257 -0.3877  0.8174
  829MOL0     H 9398  -2.606  11.130  11.706  0.9775 -0.9840  0.3993
  829MOL0     H 9399  -2.699  11.150  11.858 -1.3678  1.6476 -1.8221
  829MOL0     H 9400  -2.802  11.103  11.589  0.1410  0.1305  0.2334
  829MOL0     H 9401  -2.923  11.123  11.717 -0.8696 -0.1661 -3.7275
  829MOL0     H 9402  -2.713  11.346  11.627 -0.5191  2.4029  2.2356
  829MOL0     H 9403  -2.819  11.360  11.758  0.7611 -1.6882  0.9578
  829MOL0     H 9404  -2.857  11.336  11.458  1.6722 -0.0988  1.0707
  829MOL0     H 9405  -2.906  11.464  11.566  0.3069 -0.7749  0.6893
  829MOL0     H 9406  -3.056  11.193  11.546  1.5205 -0.0837  1.1144
  829MOL0     H 9407  -3.082  11.336  11.660 -0.7465  1.6527 -0.1026
  829MOL0     H 9408  -3.221  11.299  11.440 -0.0451  0.0412 -1.5848
  829MOL0     H 9409  -3.087  11.396  11.368  1.1937  0.2282  0.9964
  829MOL0     H 9410  -2.408  10.707  11.812 -2.5480 -0.0395 -2.1343
  829MOL0     H 9411  -2.160  10.619  11.796  0.6219 -0.5967 -2.0858
  829MOL0     H 9412  -1.779  10.600  11.508 -0.9966  3.0731  0.5912
  829MOL0     H 9413  -1.550  10.546  11.472 -0.1660 -3.0431  0.5110
  829MOL0     H 9414  -0.016   9.754  11.048 -0.4747 -0.8355 -2.3420
  829MOL0     H 9415   0.234   9.839  11.159 -1.7402  1.5577  1.0144
  829MOL0     H 9416   0.605   9.867  11.233 -0.1011  0.9986 -0.6717
  829MOL0     H 9417   0.838   9.908  11.317  1.2929  1.8987 -0.2804
  829MOL0     H 9418   1.042   9.882  11.376  0.4346 -0.4423 -0.3363
  829MOL0     H 9419   1.032  10.043  11.330  1.7425  2.1835 -2.0754
  829MOL0     H 9420   1.270   9.831  11.322  2.3695 -0.1729 -0.2295
  829MOL0     H 9421   1.292   9.990  11.248 -1.2667 -0.8842 -0.6323
  829MOL0     H 9422   1.344   9.925  11.518 -1.0069 -0.2413  1.6991
  829MOL0     H 9423   1.188   9.967  11.546 -0.6282  5.5776  0.2840
  829MOL0     H 9424   1.394  10.153  11.396  2.3674  0.2234  3.7561
  829MOL0     H 9425   1.236  10.209  11.427  0.1951  1.2666 -0.1170
  829MOL0     H 9426   1.405  10.254  11.806  1.1225  2.1019 -0.7957
  829MOL0     H 9427   0.980   9.875  10.919  1.0814 -3.2590  2.0956
  829MOL0     H 9428   0.748   9.831  10.840 -0.8547  3.2380 -0.6254
  830MOL0     O 9429   5.327   2.716   0.541 -0.1717 -0.2728 -0.5735
  830MOL0     C 9430   5.377   2.827   0.554  0.5914 -0.5413 -0.0726
  830MOL0     O 9431   5.307   2.943   0.573 -0.1228 -0.5809 -0.7701
  830MOL0     C 9432   5.168   2.943   0.567 -0.3851 -0.1812  0.0530
  830MOL0     C 9433   5.100   2.890   0.461 -0.0938 -0.2612 -0.1371
  830MOL0     C 9434   4.958   2.899   0.457 -0.6840  0.4500 -0.5680
  830MOL0     C 9435   4.883   2.968   0.556  0.1513  0.5053 -0.1582
  830MOL0     O 9436   4.751   2.993   0.530  0.1182  0.9184  0.2379
  830MOL0     C 9437   4.713   3.132   0.550 -0.3232 -0.1613  0.0694
  830MOL0     C 9438   4.567   3.152   0.539  0.3494 -0.7265 -0.5212
  830MOL0     C 9439   4.540   3.295   0.584  0.3696  0.1718 -0.3385
  830MOL0     C 9440   4.387   3.324   0.591  0.0612  0.4565  0.4504
  830MOL0     C 9441   4.347   3.461   0.628 -0.3050 -0.7524 -0.1850
  830MOL0     C 9442   4.197   3.482   0.584 -0.8014 -0.4911 -0.2281
  830MOL0     C 9443   4.096   3.367   0.607  0.3030  0.3476 -0.1977
  830MOL0     C 9444   3.962   3.400   0.557 -0.3411 -0.5356 -0.1363
  830MOL0     N 9445   3.854   3.328   0.618 -0.0252  0.3731  0.1737
  830MOL0     C 9446   3.815   3.331   0.749 -0.1871  0.2319 -1.1416
  830MOL0     C 9447   3.709   3.248   0.761 -0.5063 -1.0933 -0.3888
  830MOL0     C 9448   3.616   3.235   0.877 -0.1506  0.2140  0.0699
  830MOL0     C 9449   3.472   3.232   0.825 -0.4049  0.5370  0.3103
  830MOL0     C 9450   3.368   3.164   0.926 -0.5057  0.1129 -0.8207
  830MOL0     C 9451   3.228   3.202   0.867  0.1745 -0.3875 -0.4686
  830MOL0     O 9452   3.131   3.111   0.933 -0.1664 -0.4541  0.3736
  830MOL0     C 9453   2.999   3.115   0.898 -0.4976  0.4964  0.2539
  830MOL0     C 9454   2.914   3.031   0.970 -0.2118 -0.2170  0.0948
  830MOL0     C 9455   2.776   3.017   0.944 -1.2269  1.1252 -0.5573
  830MOL0     C 9456   2.722   3.110   0.854  0.6165 -0.2411 -0.3283
  830MOL0     C 9457   2.580   3.123   0.839  0.6197  0.6530  0.2376
  830MOL0     O 9458   2.509   3.021   0.901  0.0513 -0.1861 -0.2663
  830MOL0     C 9459   2.378   2.989   0.881 -0.0526 -0.2028  0.2488
  830MOL0     C 9460   2.344   2.860   0.921 -0.4116 -0.0296 -0.9222
  830MOL0     C 9461   2.215   2.816   0.915  0.6405 -0.0192  0.3520
  830MOL0     C 9462   2.118   2.903   0.875  0.6558 -0.2521  0.0412
  830MOL0     O 9463   1.986   2.871   0.842 -0.0147 -0.0988 -0.9159
  830MOL0     C 9464   1.933   2.740   0.858  0.1658 -0.2243 -0.1446
  830MOL0     C 9465   1.791   2.748   0.812 -0.3864 -0.6804 -0.4744
  830MOL0     C 9466   1.723   2.604   0.815 -0.4666 -0.4936 -0.1681
  830MOL0     C 9467   1.573   2.615   0.791  0.4501 -0.0564  0.6078
  830MOL0     C 9468   1.516   2.474   0.819  0.3440  0.1025  0.0340
  830MOL0     C 9469   1.359   2.470   0.836 -0.8248  0.4903  0.3048
  830MOL0     C 9470   1.281   2.524   0.722  1.0093  0.4330 -0.3892
  830MOL0     C 9471   1.135   2.477   0.712 -0.5845 -0.1621  0.2009
  830MOL0    Cl 9472   1.045   2.600   0.603  0.1636  0.3456 -0.1938
  830MOL0     C 9473   2.149   3.025   0.824  0.4521  0.9472 -0.1006
  830MOL0     C 9474   2.282   3.071   0.830 -0.3379  0.1004  0.2725
  830MOL0     O 9475   2.532   3.207   0.758 -0.0056 -0.4292 -0.2728
  830MOL0     C 9476   2.801   3.201   0.789 -0.7350 -0.8545  0.6120
  830MOL0     C 9477   2.942   3.199   0.806  1.1027 -0.3065  0.2368
  830MOL0     N 9478   3.686   3.185   0.643  0.9515 -0.0882 -0.1874
  830MOL0     N 9479   3.770   3.237   0.554 -0.5936  0.1433 -0.3380
  830MOL0     C 9480   4.953   3.021   0.670  0.3496 -0.0424 -0.3849
  830MOL0     C 9481   5.093   3.009   0.667  0.1852 -0.0092  0.0661
  830MOL0     C 9482   5.527   2.837   0.556  0.1783  0.9536  0.3317
  830MOL0     C 9483   5.599   2.716   0.540 -0.7685 -0.4416  0.9905
  830MOL0     C 9484   5.738   2.710   0.541 -0.8171 -0.0674  0.0465
  830MOL0     C 9485   5.814   2.822   0.574  0.9790 -0.3835 -0.2817
  830MOL0     O 9486   5.942   2.785   0.578 -0.1786 -0.8474 -0.8412
  830MOL0     C 9487   6.043   2.879   0.620  0.6965  0.1220 -0.8490
  830MOL0     C 9488   6.030   2.904   0.767 -0.8544 -0.3233 -0.3709
  830MOL0     C 9489   6.155   2.989   0.831 -0.3622 -0.0820  1.3883
  830MOL0     C 9490   6.138   3.143   0.824  0.0534  0.2503  0.1916
  830MOL0     C 9491   6.251   3.201   0.900  0.3274 -0.4843 -0.4882
  830MOL0     C 9492   6.356   3.254   0.938  0.0479 -0.3462 -0.3571
  830MOL0     C 9493   5.747   2.949   0.595 -0.6478  0.0333 -0.3551
  830MOL0     C 9494   5.603   2.953   0.574  0.2381  0.3169  0.0940
  830MOL0     H 9495   5.149   2.843   0.375 -0.6862  0.2067 -0.7410
  830MOL0     H 9496   4.908   2.863   0.368  0.9097 -1.1328 -0.8781
  830MOL0     H 9497   4.759   3.191   0.471 -1.3291 -0.6916 -0.9392
  830MOL0     H 9498   4.748   3.175   0.645  1.3620 -2.0162  0.3495
  830MOL0     H 9499   4.511   3.085   0.605 -3.7984  2.1913 -0.6763
  830MOL0     H 9500   4.535   3.147   0.435 -0.7358 -1.5330 -0.1701
  830MOL0     H 9501   4.602   3.360   0.522  0.3170  1.2955  0.7479
  830MOL0     H 9502   4.562   3.311   0.690 -3.2017 -3.2494  1.1750
  830MOL0     H 9503   4.340   3.296   0.496  0.6176 -1.7747  0.7796
  830MOL0     H 9504   4.346   3.253   0.663 -0.5108  1.1538  0.8255
  830MOL0     H 9505   4.415   3.537   0.587  0.3552 -0.4186  1.4495
  830MOL0     H 9506   4.358   3.474   0.736 -1.8312 -2.2681  0.1867
  830MOL0     H 9507   4.199   3.489   0.475 -0.2048 -1.7088 -0.3079
  830MOL0     H 9508   4.170   3.577   0.631 -0.5436  0.0345 -1.1194
  830MOL0     H 9509   4.136   3.285   0.547 -0.0634 -0.3386  0.4804
  830MOL0     H 9510   4.104   3.339   0.713  2.9394 -0.0432 -0.4420
  830MOL0     H 9511   3.960   3.379   0.450 -1.7096  0.2204 -0.2762
  830MOL0     H 9512   3.925   3.502   0.570 -1.0627 -0.6289 -1.3548
  830MOL0     H 9513   3.854   3.391   0.831  1.7558  0.4289 -2.1398
  830MOL0     H 9514   3.628   3.317   0.948  1.8216  1.3435 -1.4794
  830MOL0     H 9515   3.641   3.142   0.929 -3.7753 -0.8563  0.1494
  830MOL0     H 9516   3.462   3.175   0.733 -0.7808 -0.8165  1.1667
  830MOL0     H 9517   3.451   3.337   0.803  0.6759  1.8462  4.5392
  830MOL0     H 9518   3.385   3.057   0.932 -1.2152 -0.0078 -0.9093
  830MOL0     H 9519   3.378   3.208   1.025 -3.1485  2.7790 -1.5557
  830MOL0     H 9520   3.224   3.187   0.759 -0.2638 -2.9832 -0.1369
  830MOL0     H 9521   3.207   3.309   0.877  0.4157  0.0037 -3.3068
  830MOL0     H 9522   2.952   2.971   1.052 -0.8348 -2.3832 -1.1272
  830MOL0     H 9523   2.718   2.947   1.004 -1.1129  1.6475  0.1755
  830MOL0     H 9524   2.420   2.788   0.949  1.6411  1.8489 -1.3143
  830MOL0     H 9525   2.190   2.715   0.947  0.6112 -0.5758 -1.3490
  830MOL0     H 9526   1.935   2.718   0.965  2.8581 -2.4789 -0.5615
  830MOL0     H 9527   1.996   2.670   0.804  0.2983 -0.4582  0.3116
  830MOL0     H 9528   1.796   2.782   0.708 -1.9154  1.6406  0.1277
  830MOL0     H 9529   1.734   2.823   0.866  3.0180 -0.2875  3.0054
  830MOL0     H 9530   1.726   2.582   0.922 -2.1431  0.3954  0.0996
  830MOL0     H 9531   1.770   2.534   0.746 -0.6544  0.2820 -1.1018
  830MOL0     H 9532   1.527   2.674   0.870  0.6789 -2.7214  2.8798
  830MOL0     H 9533   1.551   2.650   0.689  1.1677 -1.3316 -0.0168
  830MOL0     H 9534   1.552   2.432   0.913 -0.6699 -0.8865  0.0028
  830MOL0     H 9535   1.557   2.404   0.746  4.3185  0.5247  1.6343
  830MOL0     H 9536   1.326   2.518   0.929  0.4975  1.3687  0.3565
  830MOL0     H 9537   1.344   2.362   0.844  0.6658  0.3963  4.1352
  830MOL0     H 9538   1.274   2.633   0.730  0.0600  0.2758  1.7227
  830MOL0     H 9539   1.317   2.497   0.622 -0.7066 -3.6279 -0.0754
  830MOL0     H 9540   1.097   2.487   0.814  1.9698  0.5157  1.1405
  830MOL0     H 9541   1.116   2.377   0.672 -0.5110 -0.4087  0.7730
  830MOL0     H 9542   2.066   3.087   0.791  1.0981  1.4209 -0.8606
  830MOL0     H 9543   2.300   3.172   0.794  1.3466 -0.1626  0.2941
  830MOL0     H 9544   2.764   3.270   0.714 -0.8897  1.1613  2.4622
  830MOL0     H 9545   3.001   3.268   0.747 -0.5416 -0.8559 -2.1730
  830MOL0     H 9546   4.897   3.081   0.740  0.0890 -0.0981 -0.5467
  830MOL0     H 9547   5.158   3.045   0.747  1.7850 -0.4676 -0.9872
  830MOL0     H 9548   5.549   2.624   0.510 -0.1589 -1.1180  2.0177
  830MOL0     H 9549   5.787   2.616   0.515 -0.6361  0.5307 -1.9182
  830MOL0     H 9550   6.052   2.968   0.558 -0.9871  0.6285 -0.4179
  830MOL0     H 9551   6.139   2.826   0.616  2.7609  3.1617  2.4606
  830MOL0     H 9552   5.935   2.956   0.780 -1.0900 -0.0970 -2.6451
  830MOL0     H 9553   6.024   2.813   0.827  0.9340  0.4265  1.0547
  830MOL0     H 9554   6.254   2.968   0.792 -0.4307  3.1657 -0.8989
  830MOL0     H 9555   6.153   2.963   0.937  0.9788  1.2761  1.7778
  830MOL0     H 9556   6.149   3.196   0.729 -1.3566 -2.3898 -1.5680
  830MOL0     H 9557   6.038   3.174   0.857 -0.5989  0.4227 -1.8337
  830MOL0     H 9558   6.447   3.301   0.970  0.0647 -1.4101  1.3174
  830MOL0     H 9559   5.801   3.036   0.632  1.3221 -1.3684  0.2448
  830MOL0     H 9560   5.532   3.032   0.598 -1.8612 -0.3683 -3.2623
  831MOL0     O 9561  10.737   8.154   2.075 -0.1422 -0.0510  0.0245
  831MOL0     C 9562  10.820   8.198   2.150 -0.8017 -0.1020 -1.1528
  831MOL0     O 9563  10.798   8.290   2.251 -0.2269 -0.2070 -0.1591
  831MOL0     C 9564  10.686   8.368   2.255  0.1910 -0.2916  0.2608
  831MOL0     C 9565  10.630   8.404   2.383  0.3797  0.5821 -0.4135
  831MOL0     C 9566  10.515   8.480   2.391  0.1374 -0.2422 -0.6453
  831MOL0     C 9567  10.453   8.529   2.272 -0.7207  0.1758  0.0735
  831MOL0     O 9568  10.342   8.611   2.262 -0.9373 -0.1220 -0.1967
  831MOL0     C 9569  10.285   8.662   2.382 -0.0454  0.3832 -0.4306
  831MOL0     C 9570  10.154   8.727   2.338 -0.4181 -0.0075 -0.0017
  831MOL0     C 9571  10.071   8.743   2.464  1.0494  0.0220  0.2455
  831MOL0     C 9572   9.927   8.784   2.421  0.0957 -0.0656 -0.1965
  831MOL0     C 9573   9.814   8.754   2.529  0.0225 -0.2586  0.0895
  831MOL0     C 9574   9.679   8.800   2.497 -0.2230  0.0558 -0.4330
  831MOL0     C 9575   9.586   8.756   2.605  0.2557  0.8008  0.4844
  831MOL0     C 9576   9.442   8.801   2.588 -0.2682 -0.3174 -0.8274
  831MOL0     N 9577   9.396   8.765   2.451  0.3325  0.3983  0.2400
  831MOL0     C 9578   9.388   8.852   2.345 -0.3617  0.1090  0.6784
  831MOL0     C 9579   9.369   8.781   2.234  0.8559  0.3330 -0.1446
  831MOL0     C 9580   9.361   8.840   2.092  0.1345  0.3516  0.7993
  831MOL0     C 9581   9.233   8.916   2.072  0.1967  0.5474 -0.1932
  831MOL0     C 9582   9.104   8.833   2.087 -0.2415  0.9085 -0.1982
  831MOL0     C 9583   8.986   8.891   2.007  0.2286 -0.1845 -0.4955
  831MOL0     O 9584   8.869   8.807   2.015 -0.0303  0.1761  0.5414
  831MOL0     C 9585   8.759   8.854   1.951  0.9350  0.0647 -0.7805
  831MOL0     C 9586   8.746   8.880   1.815 -0.2207  0.1152  0.0168
  831MOL0     C 9587   8.620   8.900   1.766  0.2179  0.8676  1.5345
  831MOL0     C 9588   8.500   8.899   1.843  0.8511  0.0664 -0.7769
  831MOL0     C 9589   8.366   8.876   1.782 -0.3412 -0.0724 -0.2143
  831MOL0     O 9590   8.376   8.848   1.647 -0.0597  0.4061 -0.1805
  831MOL0     C 9591   8.261   8.849   1.574 -0.4511 -0.7246  0.1285
  831MOL0     C 9592   8.219   8.725   1.518  0.6487  0.5062  0.2317
  831MOL0     C 9593   8.100   8.709   1.443 -0.1663 -0.4230 -0.2901
  831MOL0     C 9594   8.022   8.828   1.416 -0.8961 -0.2368  0.3509
  831MOL0     O 9595   7.895   8.836   1.364 -0.5148  0.4633  0.1575
  831MOL0     C 9596   7.848   8.721   1.295 -1.0165  0.2297 -0.6501
  831MOL0     C 9597   7.703   8.753   1.255 -0.9722  0.6501  0.1228
  831MOL0     C 9598   7.641   8.631   1.189 -0.1498  0.2703 -0.2650
  831MOL0     C 9599   7.516   8.674   1.113  0.3305  0.2388 -0.0076
  831MOL0     C 9600   7.443   8.546   1.061 -0.1061 -0.5158  0.4567
  831MOL0     C 9601   7.397   8.450   1.171  0.2173  0.0698 -0.7408
  831MOL0     C 9602   7.278   8.373   1.117 -0.7835 -0.6548 -0.8016
  831MOL0     C 9603   7.138   8.439   1.126  0.1378  0.8909 -0.2947
  831MOL0    Cl 9604   7.009   8.337   1.052  0.2080 -0.0079  0.3161
  831MOL0     C 9605   8.071   8.946   1.471 -0.7645 -0.4471  0.0666
  831MOL0     C 9606   8.189   8.963   1.545 -0.4046 -0.8512 -0.4671
  831MOL0     O 9607   8.262   8.899   1.842  0.2564 -0.4280 -0.2401
  831MOL0     C 9608   8.522   8.896   1.978  0.4322 -0.2318 -0.2305
  831MOL0     C 9609   8.641   8.875   2.038  0.6691 -0.0477  0.3639
  831MOL0     N 9610   9.350   8.646   2.272 -0.9339  0.1610  0.4405
  831MOL0     N 9611   9.374   8.640   2.400  0.4982 -0.2007  0.2566
  831MOL0     C 9612  10.507   8.482   2.146 -0.0289 -0.4300  0.3550
  831MOL0     C 9613  10.623   8.401   2.141  0.1494 -0.4410  0.1840
  831MOL0     C 9614  10.961   8.161   2.144  0.8605  1.1690 -0.4789
  831MOL0     C 9615  11.055   8.198   2.245 -0.6599 -0.7435 -0.2560
  831MOL0     C 9616  11.192   8.159   2.230  0.0190 -0.3914  0.0500
  831MOL0     C 9617  11.237   8.100   2.111  0.1789  0.1085  0.1125
  831MOL0     O 9618  11.371   8.058   2.088  0.5403  0.1490 -0.1544
  831MOL0     C 9619  11.466   8.058   2.201  0.2822 -0.4568 -0.3067
  831MOL0     C 9620  11.599   8.006   2.156  0.7068  0.0386 -0.3326
  831MOL0     C 9621  11.715   8.097   2.192  0.1951  0.4752  0.2901
  831MOL0     C 9622  11.837   8.022   2.140  0.3075 -0.1534  0.2303
  831MOL0     C 9623  11.953   8.118   2.127  0.7605  0.1879  0.2275
  831MOL0     C 9624  12.056   8.183   2.127 -0.1144  0.0504 -0.8290
  831MOL0     C 9625  11.138   8.066   2.010 -0.1436  0.1374 -0.2226
  831MOL0     C 9626  11.004   8.099   2.024 -0.3325  1.1320 -0.3774
  831MOL0     H 9627  10.682   8.360   2.468 -0.3147 -1.2642 -0.8874
  831MOL0     H 9628  10.471   8.506   2.487  4.4474  1.4359  1.0916
  831MOL0     H 9629  10.355   8.739   2.418 -0.6990 -0.0908  1.9910
  831MOL0     H 9630  10.272   8.582   2.455  0.3558 -0.1754 -0.9630
  831MOL0     H 9631  10.109   8.669   2.257  1.6264 -0.3167 -0.9688
  831MOL0     H 9632  10.170   8.826   2.295 -0.1789  0.2764  0.7148
  831MOL0     H 9633  10.104   8.814   2.540  2.9188  0.4167 -0.8620
  831MOL0     H 9634  10.074   8.641   2.503  1.7796  0.4937  1.5018
  831MOL0     H 9635   9.922   8.892   2.404  2.8112  0.3654  1.2719
  831MOL0     H 9636   9.900   8.734   2.328  2.6134  1.5476 -1.9091
  831MOL0     H 9637   9.861   8.802   2.615  3.5100 -1.4429 -0.9941
  831MOL0     H 9638   9.821   8.646   2.545  1.4682 -0.0209  1.1881
  831MOL0     H 9639   9.641   8.768   2.400  0.5561  1.8746 -1.3820
  831MOL0     H 9640   9.667   8.908   2.488 -1.6452 -0.2963 -5.1727
  831MOL0     H 9641   9.581   8.647   2.612  0.1996  0.9367  3.7779
  831MOL0     H 9642   9.635   8.793   2.695  0.1729  1.2142  0.3602
  831MOL0     H 9643   9.433   8.909   2.606 -0.1249 -0.3823 -0.3590
  831MOL0     H 9644   9.371   8.757   2.659 -0.6708  3.1345  1.1898
  831MOL0     H 9645   9.416   8.957   2.348  4.6784 -1.0154  1.9739
  831MOL0     H 9646   9.376   8.768   2.011 -1.7792  2.0914 -1.1909
  831MOL0     H 9647   9.446   8.909   2.088  1.0936 -0.8057  0.3815
  831MOL0     H 9648   9.242   8.966   1.975  1.0103  1.4469  0.3284
  831MOL0     H 9649   9.231   8.989   2.154  3.1245 -0.1254  0.5652
  831MOL0     H 9650   9.118   8.731   2.048  0.6334  0.3134  1.5934
  831MOL0     H 9651   9.078   8.819   2.192 -0.1433 -0.5151 -0.3440
  831MOL0     H 9652   9.018   8.914   1.905  0.0882  0.9539 -0.3045
  831MOL0     H 9653   8.976   8.977   2.074  3.9699 -1.0811  1.5089
  831MOL0     H 9654   8.833   8.875   1.751  0.1056 -2.2531  0.5207
  831MOL0     H 9655   8.607   8.890   1.658 -0.0633 -2.0936  1.7776
  831MOL0     H 9656   8.282   8.640   1.543 -0.4044 -0.3977 -0.0817
  831MOL0     H 9657   8.064   8.615   1.403 -1.3867 -0.1504  0.0974
  831MOL0     H 9658   7.853   8.633   1.360  0.7322  0.4154 -0.4812
  831MOL0     H 9659   7.921   8.705   1.215 -1.6581  1.0160 -1.4088
  831MOL0     H 9660   7.708   8.830   1.178 -1.3032  1.1190  0.5671
  831MOL0     H 9661   7.648   8.784   1.344  1.3088  0.4308  1.6934
  831MOL0     H 9662   7.617   8.550   1.259  0.1055  0.9687  0.6639
  831MOL0     H 9663   7.712   8.584   1.122 -0.6021 -1.2567  0.2832
  831MOL0     H 9664   7.446   8.716   1.185 -0.1240  2.1726 -1.4971
  831MOL0     H 9665   7.532   8.745   1.032  3.0128 -1.2900 -0.9562
  831MOL0     H 9666   7.509   8.492   0.994  1.4271  0.9651  0.6927
  831MOL0     H 9667   7.356   8.578   1.002  1.8343  1.5692 -1.4807
  831MOL0     H 9668   7.369   8.503   1.263 -0.3868  1.7356 -1.8467
  831MOL0     H 9669   7.480   8.382   1.192  1.0730  1.3402  0.1366
  831MOL0     H 9670   7.313   8.356   1.015 -1.1663  1.4678 -1.3282
  831MOL0     H 9671   7.280   8.283   1.180 -2.1202 -1.8686 -2.3753
  831MOL0     H 9672   7.144   8.531   1.067 -0.6633  0.8038 -0.5341
  831MOL0     H 9673   7.114   8.475   1.226  0.8139  0.0990  0.1614
  831MOL0     H 9674   8.016   9.035   1.440  1.0168  0.6366 -0.1613
  831MOL0     H 9675   8.220   9.063   1.574 -0.2331 -0.6465 -1.3280
  831MOL0     H 9676   8.433   8.900   2.041 -0.6300 -1.1099 -1.6171
  831MOL0     H 9677   8.642   8.856   2.145 -3.5669 -0.0014  0.5931
  831MOL0     H 9678  10.467   8.512   2.050  0.6646  2.4896  0.8825
  831MOL0     H 9679  10.664   8.377   2.044 -2.6310 -0.0611 -1.1735
  831MOL0     H 9680  11.024   8.247   2.337  0.6767 -1.2493  0.4977
  831MOL0     H 9681  11.262   8.183   2.310  1.6500 -3.9892 -0.1318
  831MOL0     H 9682  11.420   8.002   2.284 -0.6008 -0.0898 -0.5331
  831MOL0     H 9683  11.489   8.159   2.237  0.8285 -1.2601  1.7827
  831MOL0     H 9684  11.612   7.901   2.182 -1.8750 -0.2619  0.0151
  831MOL0     H 9685  11.580   8.005   2.048 -1.2550  2.0864 -0.0700
  831MOL0     H 9686  11.723   8.116   2.300  0.4056 -0.4422  0.4447
  831MOL0     H 9687  11.700   8.198   2.153  1.4482  0.0373 -1.4205
  831MOL0     H 9688  11.871   7.934   2.195  0.5155 -1.7919 -2.3573
  831MOL0     H 9689  11.810   7.983   2.041 -2.5172 -2.7193  1.8629
  831MOL0     H 9690  12.142   8.248   2.124 -0.7625  1.0597  1.0004
  831MOL0     H 9691  11.158   8.013   1.918 -1.0778  0.6555 -0.7398
  831MOL0     H 9692  10.943   8.058   1.945 -0.9241 -0.6733  0.9462
  832MOL0     O 9693   1.239   8.462   0.886 -0.4743  0.0528  0.2557
  832MOL0     C 9694   1.265   8.569   0.835 -0.0492 -0.5545  0.6180
  832MOL0     O 9695   1.214   8.616   0.716 -0.3886 -0.1457  0.1134
  832MOL0     C 9696   1.108   8.566   0.656  0.5243  0.7057  0.3400
  832MOL0     C 9697   1.001   8.517   0.731  0.2764 -0.3473  0.3491
  832MOL0     C 9698   0.886   8.472   0.675  0.0768  0.5346 -0.6210
  832MOL0     C 9699   0.886   8.458   0.532  1.1664 -0.2304  0.1525
  832MOL0     O 9700   0.778   8.401   0.465 -1.3513 -0.0635 -0.8502
  832MOL0     C 9701   0.748   8.270   0.511  0.2913  0.9821  1.3993
  832MOL0     C 9702   0.660   8.218   0.391 -0.2893  0.9334 -0.0069
  832MOL0     C 9703   0.517   8.286   0.399  0.3168 -0.1654 -0.3178
  832MOL0     C 9704   0.422   8.217   0.311  0.3661  0.4247  0.9258
  832MOL0     C 9705   0.286   8.294   0.311  0.4230 -0.4443  0.1986
  832MOL0     C 9706   0.198   8.238   0.208  0.4287 -0.3218 -0.3789
  832MOL0     C 9707   0.061   8.316   0.210 -0.5552 -0.0938 -0.9406
  832MOL0     C 9708  -0.034   8.274   0.097 -0.4657  0.6827  0.0415
  832MOL0     N 9709  -0.163   8.332   0.109 -0.2541  0.4610 -0.1854
  832MOL0     C 9710  -0.257   8.317   0.219 -0.3086  1.5764 -0.6586
  832MOL0     C 9711  -0.371   8.371   0.169 -0.1240  0.5534 -0.8509
  832MOL0     C 9712  -0.509   8.382   0.237  0.2241  0.3000  0.7520
  832MOL0     C 9713  -0.588   8.249   0.216 -0.3076 -0.0951  0.4610
  832MOL0     C 9714  -0.728   8.286   0.160  0.1715 -0.1101 -0.1684
  832MOL0     C 9715  -0.802   8.375   0.270 -0.0049  0.3214  1.0233
  832MOL0     O 9716  -0.934   8.329   0.283  0.1287  0.2888  0.2537
  832MOL0     C 9717  -0.980   8.256   0.379  0.8054 -0.0317 -0.8958
  832MOL0     C 9718  -1.112   8.210   0.368 -0.1600  1.3058 -0.1960
  832MOL0     C 9719  -1.177   8.148   0.477  0.0208  0.8072 -0.0289
  832MOL0     C 9720  -1.112   8.122   0.600 -0.2553  0.6041  0.1038
  832MOL0     C 9721  -1.180   8.057   0.709 -0.9033  0.3766 -0.7738
  832MOL0     O 9722  -1.313   8.003   0.689 -0.3116 -0.2731 -0.1512
  832MOL0     C 9723  -1.388   7.985   0.803 -0.0407 -0.1401 -0.7255
  832MOL0     C 9724  -1.503   8.068   0.816 -0.1189 -0.3596 -0.5789
  832MOL0     C 9725  -1.591   8.037   0.917 -0.2737  0.0563 -0.3889
  832MOL0     C 9726  -1.580   7.924   1.003 -0.2625 -0.2170  0.4313
  832MOL0     O 9727  -1.670   7.894   1.105  0.3310 -0.1190  0.1611
  832MOL0     C 9728  -1.669   7.986   1.218  0.2937  0.7798  0.3191
  832MOL0     C 9729  -1.747   7.936   1.336  0.2454 -0.2074 -0.4165
  832MOL0     C 9730  -1.792   8.063   1.409 -0.3297 -0.7187 -0.0114
  832MOL0     C 9731  -1.897   8.034   1.519  0.3166 -1.1737 -0.1822
  832MOL0     C 9732  -1.979   8.158   1.555  0.1532  0.1285 -0.1119
  832MOL0     C 9733  -2.110   8.166   1.470 -0.1908 -0.1155 -0.2541
  832MOL0     C 9734  -2.179   8.309   1.463 -0.2003  1.4022  0.5176
  832MOL0     C 9735  -2.300   8.306   1.363  0.1198  0.5575  0.4238
  832MOL0    Cl 9736  -2.402   8.164   1.387 -0.6461 -0.5782  0.2726
  832MOL0     C 9737  -1.472   7.846   0.977  0.1421 -0.0872 -0.3461
  832MOL0     C 9738  -1.374   7.878   0.888  0.9113 -0.8599  0.9117
  832MOL0     O 9739  -1.117   8.048   0.821 -0.5331  0.1167  0.7876
  832MOL0     C 9740  -0.981   8.167   0.608 -0.1293 -0.5426  0.4422
  832MOL0     C 9741  -0.918   8.230   0.501 -0.4289 -0.4483  0.5999
  832MOL0     N 9742  -0.351   8.410   0.039 -0.2206 -0.0679  0.1957
  832MOL0     N 9743  -0.222   8.407   0.013 -0.0762 -0.7136 -0.5648
  832MOL0     C 9744   0.986   8.512   0.447  0.4366  0.0734 -0.9843
  832MOL0     C 9745   1.097   8.570   0.517  0.1643  1.2892  0.2736
  832MOL0     C 9746   1.380   8.639   0.889  0.0716  0.2834  0.3779
  832MOL0     C 9747   1.472   8.586   0.983 -0.3038 -0.5139 -0.2470
  832MOL0     C 9748   1.591   8.660   1.005 -0.2725 -1.0282 -0.5336
  832MOL0     C 9749   1.615   8.786   0.957 -0.0783 -0.5505 -0.3364
  832MOL0     O 9750   1.735   8.857   0.966  0.1188 -0.0535  0.0558
  832MOL0     C 9751   1.795   8.859   1.101 -0.0712  0.1558 -0.2812
  832MOL0     C 9752   1.855   8.998   1.130 -0.1826  0.6432  0.3651
  832MOL0     C 9753   1.960   9.029   1.027  0.4529 -0.4068  0.5617
  832MOL0     C 9754   2.031   9.152   1.063  0.3150 -1.0661  0.0391
  832MOL0     C 9755   2.118   9.213   0.960 -0.5952  0.9944  0.8034
  832MOL0     C 9756   2.174   9.261   0.860  0.3449 -0.2107  0.0541
  832MOL0     C 9757   1.520   8.835   0.862 -0.0852 -0.7825 -0.9256
  832MOL0     C 9758   1.409   8.764   0.833  0.1719  0.2984  0.3479
  832MOL0     H 9759   1.005   8.526   0.839  0.1319 -1.4145  0.4539
  832MOL0     H 9760   0.799   8.455   0.738  0.0433  3.8748  0.4206
  832MOL0     H 9761   0.692   8.278   0.605  1.8369  2.0686  2.2802
  832MOL0     H 9762   0.837   8.207   0.517 -0.5675 -0.1588  3.1056
  832MOL0     H 9763   0.651   8.109   0.396  1.3205  0.6459 -1.8116
  832MOL0     H 9764   0.704   8.230   0.291 -0.9423  0.9045 -0.3039
  832MOL0     H 9765   0.525   8.394   0.391  1.4399 -0.2717 -0.8395
  832MOL0     H 9766   0.479   8.268   0.500  0.4921  0.7940 -0.0690
  832MOL0     H 9767   0.472   8.233   0.215  0.8799 -2.4661  0.6184
  832MOL0     H 9768   0.398   8.116   0.344  0.9631 -0.1817 -0.3980
  832MOL0     H 9769   0.305   8.397   0.279  1.0811 -1.1309 -1.8163
  832MOL0     H 9770   0.235   8.304   0.407  0.8950 -0.4216  0.4509
  832MOL0     H 9771   0.173   8.132   0.216 -1.9538 -0.1275 -3.3374
  832MOL0     H 9772   0.252   8.265   0.117 -0.3653  1.2353 -0.4356
  832MOL0     H 9773   0.018   8.316   0.310  1.6340 -0.1447  0.0575
  832MOL0     H 9774   0.095   8.418   0.189  1.2830 -0.9823 -2.6277
  832MOL0     H 9775  -0.049   8.166   0.105 -1.0788  0.9106  4.0475
  832MOL0     H 9776   0.016   8.293   0.001 -0.9503 -2.7347 -1.0066
  832MOL0     H 9777  -0.238   8.269   0.314  1.0433  0.3792 -1.4966
  832MOL0     H 9778  -0.563   8.470   0.202 -0.9717 -0.4448  0.6895
  832MOL0     H 9779  -0.481   8.387   0.343  0.1317 -2.0759  0.9491
  832MOL0     H 9780  -0.605   8.187   0.305 -0.4643 -0.6679  0.0428
  832MOL0     H 9781  -0.544   8.184   0.140 -2.2483  0.5769 -1.3051
  832MOL0     H 9782  -0.725   8.325   0.058  1.6512  0.6999  0.1469
  832MOL0     H 9783  -0.781   8.192   0.145  1.1635 -0.5016 -1.3770
  832MOL0     H 9784  -0.809   8.477   0.232  2.1797 -0.2819 -1.2968
  832MOL0     H 9785  -0.741   8.377   0.360  2.9519  1.9142 -0.8436
  832MOL0     H 9786  -1.167   8.217   0.275  2.3391 -0.8272 -1.9652
  832MOL0     H 9787  -1.283   8.125   0.483  0.6730 -2.6646  0.3628
  832MOL0     H 9788  -1.518   8.151   0.748  3.5559 -1.2080 -2.7079
  832MOL0     H 9789  -1.677   8.103   0.921  0.8764  1.5584  0.2111
  832MOL0     H 9790  -1.707   8.078   1.174 -1.1702  0.6948  1.3726
  832MOL0     H 9791  -1.565   7.992   1.253  0.1428 -1.2279  1.2907
  832MOL0     H 9792  -1.681   7.872   1.396 -1.6668 -0.5187  1.4471
  832MOL0     H 9793  -1.838   7.882   1.311 -0.6081  0.6440  0.7640
  832MOL0     H 9794  -1.830   8.147   1.350 -1.0794  0.7915  2.4711
  832MOL0     H 9795  -1.696   8.102   1.443  0.0077 -1.9522  0.4742
  832MOL0     H 9796  -1.955   7.953   1.474  0.6815 -2.4669  1.5478
  832MOL0     H 9797  -1.843   7.992   1.605 -1.0822  0.5970  1.6696
  832MOL0     H 9798  -1.917   8.248   1.551 -0.4113  0.5962  1.2522
  832MOL0     H 9799  -2.015   8.154   1.658 -2.2664 -1.7915 -0.9141
  832MOL0     H 9800  -2.183   8.092   1.506  0.1193  0.4970  1.7812
  832MOL0     H 9801  -2.084   8.140   1.368 -2.1638  0.0063 -0.8272
  832MOL0     H 9802  -2.225   8.338   1.558 -3.2682  1.3822 -0.8388
  832MOL0     H 9803  -2.115   8.386   1.417 -1.5074  2.4326  0.3596
  832MOL0     H 9804  -2.261   8.309   1.261  0.5847  2.1802  0.6201
  832MOL0     H 9805  -2.359   8.398   1.375 -0.2290  0.5415 -0.9988
  832MOL0     H 9806  -1.461   7.763   1.046  1.4571  0.1483 -0.2473
  832MOL0     H 9807  -1.296   7.802   0.893  0.9280 -0.7745  3.1764
  832MOL0     H 9808  -0.916   8.152   0.693  0.1530 -1.0547  0.1428
  832MOL0     H 9809  -0.816   8.263   0.515  0.4111 -1.8563 -1.6051
  832MOL0     H 9810   0.985   8.503   0.339 -0.3989 -0.1958 -0.9645
  832MOL0     H 9811   1.177   8.618   0.460 -1.4743  1.1338 -2.3620
  832MOL0     H 9812   1.459   8.485   1.020 -1.6306 -0.8580 -1.5462
  832MOL0     H 9813   1.675   8.618   1.060  0.1462  2.8698  2.2706
  832MOL0     H 9814   1.865   8.781   1.132  0.3133  1.4819  2.5273
  832MOL0     H 9815   1.713   8.849   1.173  1.7966 -1.3135  1.7746
  832MOL0     H 9816   1.771   9.067   1.119 -2.1235 -1.8549 -2.1579
  832MOL0     H 9817   1.902   9.004   1.229  0.4056  2.1578  0.0154
  832MOL0     H 9818   1.925   9.047   0.924  0.1828 -1.9681  0.3667
  832MOL0     H 9819   2.037   8.952   1.021 -0.7693 -1.5609 -1.1409
  832MOL0     H 9820   1.956   9.226   1.092 -0.1331 -1.2022 -0.7407
  832MOL0     H 9821   2.088   9.134   1.155  0.4111 -0.5146  0.0900
  832MOL0     H 9822   2.219   9.291   0.767  2.7217 -1.5055  0.7042
  832MOL0     H 9823   1.528   8.934   0.817 -1.9748 -0.1146  0.1062
  832MOL0     H 9824   1.345   8.817   0.763 -0.8996  0.1771  1.1993
  833MOL0     O 9825   0.627   2.940   0.942  0.0625 -0.6042  0.0861
  833MOL0     C 9826   0.631   2.873   1.046  0.5482 -0.0114  0.0587
  833MOL0     O 9827   0.531   2.859   1.146 -0.5982  0.1453 -0.1227
  833MOL0     C 9828   0.414   2.925   1.143  0.3998 -0.1357 -0.5299
  833MOL0     C 9829   0.405   3.056   1.202 -0.2211 -0.6405  0.2616
  833MOL0     C 9830   0.290   3.131   1.201  0.3020 -0.0809 -0.1733
  833MOL0     C 9831   0.175   3.078   1.149  0.2970  0.7992  0.8119
  833MOL0     O 9832   0.060   3.150   1.161  0.2006  0.2541  0.3743
  833MOL0     C 9833  -0.027   3.161   1.043 -0.5360 -0.5787  0.2307
  833MOL0     C 9834  -0.013   3.297   0.980  0.3446 -0.1727  0.2199
  833MOL0     C 9835   0.120   3.320   0.913 -0.0011 -0.7028 -0.3704
  833MOL0     C 9836   0.132   3.456   0.842  0.8107  0.5040  1.0913
  833MOL0     C 9837   0.135   3.573   0.935 -0.5232 -0.2192 -0.1747
  833MOL0     C 9838   0.167   3.704   0.861 -0.3649 -0.9873  0.4513
  833MOL0     C 9839   0.303   3.695   0.783  0.3027 -0.2715 -0.2180
  833MOL0     C 9840   0.429   3.651   0.869 -0.0244  0.0539 -0.4314
  833MOL0     N 9841   0.563   3.712   0.823 -0.1409  0.4109 -0.6212
  833MOL0     C 9842   0.691   3.694   0.879  0.6540  0.5094 -0.5564
  833MOL0     C 9843   0.795   3.740   0.799  0.4929 -0.6612  0.2068
  833MOL0     C 9844   0.944   3.747   0.831 -0.0707 -1.1144 -0.0687
  833MOL0     C 9845   1.009   3.617   0.880 -0.3270 -0.3303  0.1456
  833MOL0     C 9846   1.035   3.511   0.768  0.1501 -0.0476  0.8789
  833MOL0     C 9847   0.906   3.471   0.689 -0.6196  1.0530 -0.3301
  833MOL0     O 9848   0.802   3.417   0.775 -0.0138  0.1566  0.2364
  833MOL0     C 9849   0.682   3.372   0.721  0.0775 -0.3655  0.1018
  833MOL0     C 9850   0.623   3.435   0.612  0.0731  0.4227  0.1757
  833MOL0     C 9851   0.492   3.396   0.567  0.7188  0.0568  0.7261
  833MOL0     C 9852   0.425   3.292   0.628  0.1553  0.6357 -0.3769
  833MOL0     C 9853   0.291   3.249   0.571  0.4350 -1.0334 -0.5981
  833MOL0     O 9854   0.207   3.352   0.526 -0.3377 -0.4825  0.0346
  833MOL0     C 9855   0.095   3.322   0.457  0.4445  0.2734 -0.1426
  833MOL0     C 9856  -0.019   3.291   0.518  0.7050 -0.6697  0.0197
  833MOL0     C 9857  -0.136   3.274   0.441 -0.0348  0.7242 -0.2497
  833MOL0     C 9858  -0.132   3.283   0.298 -0.2876 -0.3888 -0.5949
  833MOL0     O 9859  -0.248   3.278   0.235  0.3545  0.6814  0.3129
  833MOL0     C 9860  -0.256   3.346   0.106 -0.4136  0.5886 -0.3266
  833MOL0     C 9861  -0.401   3.336   0.049 -0.0378 -0.2614 -0.5768
  833MOL0     C 9862  -0.448   3.448  -0.052  0.5792  0.1017 -0.1542
  833MOL0     C 9863  -0.591   3.413  -0.101 -0.5948  0.0298 -0.3058
  833MOL0     C 9864  -0.627   3.477  -0.232  0.5879 -0.1941 -0.7455
  833MOL0     C 9865  -0.780   3.472  -0.247 -0.5504  0.2749  0.7286
  833MOL0     C 9866  -0.838   3.497  -0.391 -1.2142  1.0827 -0.4525
  833MOL0     C 9867  -0.840   3.641  -0.439  0.0280 -1.1172  1.0878
  833MOL0    Cl 9868  -0.962   3.747  -0.377 -0.7395  0.2156  0.4895
  833MOL0     C 9869  -0.010   3.307   0.243 -0.0348 -0.2556 -0.1634
  833MOL0     C 9870   0.101   3.333   0.316 -0.5205 -0.2901 -0.5944
  833MOL0     O 9871   0.263   3.135   0.570 -0.3798 -0.1695  0.5669
  833MOL0     C 9872   0.487   3.225   0.742 -0.8135 -0.1446  0.3876
  833MOL0     C 9873   0.619   3.260   0.781  0.3276 -0.5924 -1.3901
  833MOL0     N 9874   0.717   3.780   0.693 -0.3363  0.7695  0.8921
  833MOL0     N 9875   0.590   3.766   0.701  0.0007 -0.3151 -0.0585
  833MOL0     C 9876   0.177   2.945   1.087 -0.1464 -0.3707  0.3002
  833MOL0     C 9877   0.298   2.878   1.079  0.0760  0.2359 -0.0029
  833MOL0     C 9878   0.760   2.791   1.063 -0.9401  0.0163  0.7043
  833MOL0     C 9879   0.794   2.727   1.178  0.1355  1.0654 -0.9214
  833MOL0     C 9880   0.907   2.647   1.201 -0.1701  0.2428  0.4154
  833MOL0     C 9881   1.004   2.637   1.103  0.0850  0.4900 -0.7009
  833MOL0     O 9882   1.122   2.569   1.115 -0.5991 -0.3794  0.0549
  833MOL0     C 9883   1.152   2.497   1.242 -0.1534  0.0724  1.0131
  833MOL0     C 9884   1.282   2.422   1.231  0.4473  0.1526  0.7050
  833MOL0     C 9885   1.287   2.295   1.143  0.5316 -0.1595  0.3176
  833MOL0     C 9886   1.430   2.244   1.109  0.2030  0.4858  0.7594
  833MOL0     C 9887   1.482   2.172   1.217  0.0897  1.0689 -0.2211
  833MOL0     C 9888   1.516   2.123   1.317 -0.2502  0.1591  0.9019
  833MOL0     C 9889   0.985   2.705   0.980  0.5141  0.6885  0.2040
  833MOL0     C 9890   0.865   2.780   0.961 -0.5540 -0.2893 -0.1845
  833MOL0     H 9891   0.492   3.102   1.249 -0.0551  0.1528 -0.7828
  833MOL0     H 9892   0.292   3.225   1.253  1.0575  1.1462 -2.2868
  833MOL0     H 9893  -0.129   3.158   1.083 -1.1118  1.8389 -0.8860
  833MOL0     H 9894  -0.021   3.079   0.971 -1.5843 -1.4749  1.1205
  833MOL0     H 9895  -0.017   3.372   1.059  1.7107  1.6081 -1.3087
  833MOL0     H 9896  -0.100   3.305   0.915 -1.9426 -2.4192  2.7385
  833MOL0     H 9897   0.132   3.241   0.839  0.3123 -1.4868  0.4842
  833MOL0     H 9898   0.204   3.314   0.984  1.0227  2.9415 -1.0618
  833MOL0     H 9899   0.213   3.451   0.769  0.1100 -0.1852  0.3533
  833MOL0     H 9900   0.048   3.461   0.773  1.3005 -0.4233  0.4031
  833MOL0     H 9901   0.209   3.556   1.014 -0.7455  2.1412  0.6410
  833MOL0     H 9902   0.042   3.585   0.991  0.9046 -2.2005  2.9086
  833MOL0     H 9903   0.183   3.785   0.933  3.1929  0.1652 -1.3790
  833MOL0     H 9904   0.090   3.744   0.794 -1.6305  1.4248  3.1471
  833MOL0     H 9905   0.304   3.623   0.700  0.5419  0.4918 -0.8866
  833MOL0     H 9906   0.310   3.797   0.744  3.9402  0.5592  2.1742
  833MOL0     H 9907   0.433   3.542   0.875 -1.4802  0.0705  1.6617
  833MOL0     H 9908   0.419   3.678   0.974  2.1778  2.0465 -0.6316
  833MOL0     H 9909   0.712   3.649   0.976  2.7555 -1.2198 -1.7458
  833MOL0     H 9910   0.958   3.818   0.913  0.1082 -2.4688  1.1105
  833MOL0     H 9911   0.994   3.782   0.740  0.1244 -0.5774  0.2355
  833MOL0     H 9912   0.945   3.571   0.957 -0.8768 -0.4843 -0.3937
  833MOL0     H 9913   1.107   3.646   0.920 -1.1193 -0.5368  2.3996
  833MOL0     H 9914   1.110   3.542   0.695 -0.7623  0.9687  0.3339
  833MOL0     H 9915   1.068   3.416   0.812 -1.8312 -1.7866 -1.1427
  833MOL0     H 9916   0.924   3.401   0.607  0.8308  1.7961 -0.6815
  833MOL0     H 9917   0.869   3.563   0.645  0.9574  1.5959 -0.5976
  833MOL0     H 9918   0.672   3.510   0.550  1.0941  0.5270  1.0688
  833MOL0     H 9919   0.440   3.441   0.483  2.6143  0.7383 -0.1338
  833MOL0     H 9920  -0.022   3.291   0.627  0.7655 -0.4700  0.0225
  833MOL0     H 9921  -0.230   3.256   0.492  0.5584 -0.3232  0.5211
  833MOL0     H 9922  -0.201   3.286   0.033 -1.3293 -0.7425  0.0434
  833MOL0     H 9923  -0.224   3.450   0.120 -1.4784  0.9837 -0.7035
  833MOL0     H 9924  -0.460   3.334   0.141  1.8644 -0.3235  0.7067
  833MOL0     H 9925  -0.422   3.237   0.007  1.5275 -1.4237  1.1973
  833MOL0     H 9926  -0.375   3.456  -0.133  1.7506 -0.5632  0.8018
  833MOL0     H 9927  -0.453   3.543   0.003 -0.6923 -0.8042  1.3999
  833MOL0     H 9928  -0.592   3.306  -0.125  1.9904 -0.1632  0.1036
  833MOL0     H 9929  -0.668   3.439  -0.029 -1.7451 -1.1078 -1.0750
  833MOL0     H 9930  -0.576   3.435  -0.320 -0.9016  0.0243 -1.7398
  833MOL0     H 9931  -0.606   3.584  -0.229 -2.6107  0.4812  0.6083
  833MOL0     H 9932  -0.825   3.550  -0.185  1.3013  0.7024  1.6175
  833MOL0     H 9933  -0.811   3.372  -0.217  0.8737  0.4821  3.0982
  833MOL0     H 9934  -0.785   3.430  -0.460  1.7752  2.2801  0.5207
  833MOL0     H 9935  -0.938   3.453  -0.390  0.0564 -2.1846 -1.1381
  833MOL0     H 9936  -0.858   3.631  -0.547  1.0615 -0.9763  0.8916
  833MOL0     H 9937  -0.746   3.695  -0.423  0.8663 -0.7845 -3.5545
  833MOL0     H 9938  -0.000   3.326   0.137 -1.4376  1.7529  0.0076
  833MOL0     H 9939   0.187   3.375   0.265 -1.4141  0.1686 -1.7662
  833MOL0     H 9940   0.430   3.144   0.786 -1.9482 -1.0488 -2.4756
  833MOL0     H 9941   0.659   3.219   0.873 -2.1211 -1.0550 -0.4347
  833MOL0     H 9942   0.094   2.909   1.027 -0.9676  1.0728  0.5299
  833MOL0     H 9943   0.315   2.784   1.028 -1.3996 -0.7926  1.3357
  833MOL0     H 9944   0.729   2.736   1.264 -1.0863 -2.8112 -1.2566
  833MOL0     H 9945   0.934   2.613   1.300 -1.3992  2.1648  1.4939
  833MOL0     H 9946   1.071   2.427   1.265 -1.2398  1.3560  1.1520
  833MOL0     H 9947   1.150   2.561   1.331 -2.8584 -0.4308  1.3820
  833MOL0     H 9948   1.364   2.483   1.191  2.0227 -1.9647  0.5448
  833MOL0     H 9949   1.308   2.397   1.334 -2.5178 -2.3313  0.9984
  833MOL0     H 9950   1.225   2.314   1.055  1.2030  0.5120 -0.0204
  833MOL0     H 9951   1.219   2.221   1.186 -2.4865  0.8296 -2.3001
  833MOL0     H 9952   1.425   2.179   1.021  1.8236 -0.4991  1.3481
  833MOL0     H 9953   1.502   2.326   1.097  3.1277 -1.9110  0.9993
  833MOL0     H 9954   1.537   2.088   1.416  1.4533 -0.4046  0.3722
  833MOL0     H 9955   1.065   2.710   0.907 -0.6764  2.4450 -1.0621
  833MOL0     H 9956   0.854   2.826   0.864 -2.5002 -2.1436 -0.9303
  834MOL0     O 9957   7.313  10.311   3.426  0.3759 -0.0291  0.6279
  834MOL0     C 9958   7.304  10.366   3.533 -0.2417 -0.2228  0.2996
  834MOL0     O 9959   7.199  10.367   3.614  0.4933 -0.6813  0.3988
  834MOL0     C 9960   7.082  10.303   3.578 -0.0053 -0.0355 -0.9284
  834MOL0     C 9961   7.032  10.217   3.679 -0.1157  0.3793  1.3416
  834MOL0     C 9962   6.912  10.147   3.657 -0.9845 -0.0226 -0.3977
  834MOL0     C 9963   6.833  10.177   3.541  0.3212  0.3617  0.1024
  834MOL0     O 9964   6.716  10.122   3.512 -0.6329  1.1049  0.0593
  834MOL0     C 9965   6.680   9.998   3.593 -0.0614 -0.1692 -0.4793
  834MOL0     C 9966   6.577   9.938   3.498  0.0133 -0.0111  0.2774
  834MOL0     C 9967   6.450  10.021   3.480 -0.7327 -0.3663  0.2667
  834MOL0     C 9968   6.334   9.941   3.431  0.2692  0.3747 -0.4566
  834MOL0     C 9969   6.199  10.016   3.431 -0.0654 -0.0186  0.0798
  834MOL0     C 9970   6.080   9.933   3.474 -0.4071  0.2799  0.0486
  834MOL0     C 9971   5.948  10.011   3.473 -0.3542  0.0312 -1.1023
  834MOL0     C 9972   5.930  10.093   3.597 -0.4468 -0.6718  0.8983
  834MOL0     N 9973   5.932  10.013   3.726  0.1262 -1.1452  1.4126
  834MOL0     C 9974   6.042  10.003   3.810 -0.1217  0.1052 -0.9483
  834MOL0     C 9975   5.994   9.943   3.925  0.4018 -0.1546 -0.8639
  834MOL0     C 9976   6.066   9.922   4.047  0.2475 -0.3965 -0.6625
  834MOL0     C 9977   6.096  10.059   4.114 -0.6530  0.1269  0.3945
  834MOL0     C 9978   6.145  10.045   4.252  0.3520 -0.1806 -0.8297
  834MOL0     C 9979   6.152  10.184   4.322  0.1134  0.4500 -0.3496
  834MOL0     O 9980   6.225  10.266   4.237  0.3930 -0.4091 -0.2063
  834MOL0     C 9981   6.352  10.305   4.282  0.1237  0.3105 -0.8334
  834MOL0     C 9982   6.456  10.204   4.299 -0.0129  0.0372 -0.5178
  834MOL0     C 9983   6.589  10.244   4.324 -0.1152 -0.6466 -0.5865
  834MOL0     C 9984   6.627  10.380   4.331 -0.4126 -0.2346  0.5787
  834MOL0     C 9985   6.770  10.411   4.350 -0.3083  0.7832  0.3219
  834MOL0     O 9986   6.849  10.305   4.379  0.2980 -0.2654 -0.9216
  834MOL0     C 9987   6.983  10.331   4.403 -0.1571 -0.0682 -0.9455
  834MOL0     C 9988   7.030  10.394   4.523  0.1558 -0.3645  0.7255
  834MOL0     C 9989   7.166  10.411   4.554  0.8260 -0.1459 -0.2299
  834MOL0     C 9990   7.256  10.400   4.445 -0.2244 -0.7397  0.2715
  834MOL0     O 9991   7.388  10.433   4.459 -0.0719 -0.5968  0.6392
  834MOL0     C 9992   7.451  10.465   4.580 -0.1990 -0.4387 -0.4178
  834MOL0     C 9993   7.605  10.443   4.551 -0.4402  0.0175 -0.0034
  834MOL0     C 9994   7.681  10.453   4.674 -0.1949  0.5749  0.2585
  834MOL0     C 9995   7.835  10.417   4.644  1.7219  0.6993 -0.2087
  834MOL0     C 9996   7.927  10.456   4.767 -0.1140  0.6037  1.0384
  834MOL0     C 9997   8.063  10.391   4.752  0.4043 -0.5422  0.5528
  834MOL0     C 9998   8.162  10.445   4.860  1.0055 -0.6690 -0.1296
  834MOL0     C 9999   8.109  10.416   5.003 -0.2881 -0.0970  0.2663
  834MOL0    Cl10000   8.238  10.470   5.112 -0.3629 -0.8848 -0.1520
  834MOL0     C10001   7.210  10.339   4.322 -0.1015 -0.3548  0.3210
  834MOL0     C10002   7.077  10.299   4.303 -0.1833  0.4424 -0.1894
  834MOL0     O10003   6.806  10.525   4.344 -0.1375 -0.0287 -0.5797
  834MOL0     C10004   6.521  10.477   4.315 -0.3270  0.1175  0.5021
  834MOL0     C10005   6.391  10.439   4.280  0.6412 -0.0229 -0.0100
  834MOL0     N10006   5.860   9.912   3.898  0.6102  0.1770 -0.3489
  834MOL0     N10007   5.828   9.955   3.781 -0.0518 -0.0270  0.2120
  834MOL0     C10008   6.882  10.266   3.440 -0.7547 -1.1334 -0.1411
  834MOL0     C10009   7.013  10.321   3.455  0.9572  0.4491 -0.0771
  834MOL0     C10010   7.421  10.446   3.577 -0.3988 -0.1612  1.1755
  834MOL0     C10011   7.551  10.432   3.516  0.0749 -0.0519 -1.0724
  834MOL0     C10012   7.663  10.497   3.578  0.6563  0.2242 -0.9057
  834MOL0     C10013   7.643  10.575   3.692  0.4154 -0.9261  0.2553
  834MOL0     O10014   7.747  10.657   3.738 -0.5641 -0.1768  0.4365
  834MOL0     C10015   7.887  10.613   3.740  0.3769  0.3596 -0.3255
  834MOL0     C10016   7.972  10.714   3.822  0.0523 -0.3933 -0.1387
  834MOL0     C10017   8.121  10.668   3.806  1.2940 -0.0539 -0.1957
  834MOL0     C10018   8.165  10.592   3.933 -0.1187 -0.1067 -0.3050
  834MOL0     C10019   8.295  10.545   3.915 -0.4135  0.2126  0.4617
  834MOL0     C10020   8.405  10.499   3.892  0.8959 -0.8968  0.1359
  834MOL0     C10021   7.516  10.597   3.745  1.2582 -0.0441  0.4477
  834MOL0     C10022   7.409  10.535   3.689  1.0808 -0.4335 -0.3387
  834MOL0     H10023   7.093  10.204   3.768  0.9400  2.0059  0.8930
  834MOL0     H10024   6.879  10.083   3.738  0.1034 -0.8738 -0.6127
  834MOL0     H10025   6.640  10.028   3.691  0.9859  0.1553 -0.1358
  834MOL0     H10026   6.772   9.940   3.604  0.8841  1.0555 -1.6256
  834MOL0     H10027   6.554   9.837   3.534  0.5346 -1.6391 -3.4458
  834MOL0     H10028   6.616   9.919   3.398 -1.2561 -2.6055  0.1923
  834MOL0     H10029   6.459  10.107   3.413  1.6228 -1.3739 -0.8132
  834MOL0     H10030   6.411  10.069   3.571 -0.3779 -1.6618  1.1374
  834MOL0     H10031   6.342   9.902   3.329  1.5633  0.6254 -0.4728
  834MOL0     H10032   6.315   9.858   3.500 -1.2727  1.5796  0.6216
  834MOL0     H10033   6.187  10.059   3.331  1.4988  1.4892  0.4922
  834MOL0     H10034   6.208  10.098   3.503 -0.1311 -0.1134  0.1960
  834MOL0     H10035   6.110   9.890   3.571  2.3070  0.7256 -0.4993
  834MOL0     H10036   6.071   9.844   3.411  1.7291 -1.3812  1.9293
  834MOL0     H10037   5.952  10.075   3.385  2.1181  0.7527 -0.5325
  834MOL0     H10038   5.859   9.947   3.466  0.8802 -1.8900 -0.2329
  834MOL0     H10039   5.842  10.158   3.594  0.4096  0.5042 -1.7841
  834MOL0     H10040   6.011  10.166   3.603 -0.4839 -0.2071 -2.4904
  834MOL0     H10041   6.143  10.039   3.791 -0.6435  1.4391 -1.3068
  834MOL0     H10042   6.155   9.865   4.020  1.3230  0.2492  1.3135
  834MOL0     H10043   6.017   9.856   4.120 -0.8283  0.5605 -0.4878
  834MOL0     H10044   6.008  10.123   4.116 -0.5468  0.2849 -0.0015
  834MOL0     H10045   6.176  10.107   4.058  3.2953 -3.9383  1.9501
  834MOL0     H10046   6.083   9.979   4.314 -0.2676  3.6005  3.1019
  834MOL0     H10047   6.246  10.006   4.246  0.2261 -0.5023 -0.8488
  834MOL0     H10048   6.209  10.170   4.414 -1.3252  1.3326  0.7239
  834MOL0     H10049   6.057  10.227   4.357 -0.3863 -1.7467  1.2046
  834MOL0     H10050   6.437  10.098   4.282 -0.6517  0.3192 -1.7657
  834MOL0     H10051   6.662  10.165   4.314 -0.2183 -0.5324 -2.6291
  834MOL0     H10052   6.949  10.434   4.583  0.1416 -0.5472  0.8268
  834MOL0     H10053   7.180  10.461   4.649 -2.2147 -0.2502  0.3587
  834MOL0     H10054   7.413  10.408   4.665 -3.3857  1.8536 -0.1395
  834MOL0     H10055   7.429  10.563   4.624  2.0004 -1.2935  3.0046
  834MOL0     H10056   7.642  10.509   4.472  1.7995 -1.7754 -0.5530
  834MOL0     H10057   7.616  10.341   4.514  0.5696  0.9417 -2.4290
  834MOL0     H10058   7.639  10.384   4.748 -4.1211 -0.2928 -2.5170
  834MOL0     H10059   7.674  10.549   4.727 -0.6641 -1.1951  3.6646
  834MOL0     H10060   7.828  10.311   4.619 -0.5863  0.9121 -0.7749
  834MOL0     H10061   7.865  10.463   4.549  2.7451 -0.2734 -0.3793
  834MOL0     H10062   7.882  10.414   4.858 -0.7027  2.1638  1.5052
  834MOL0     H10063   7.932  10.565   4.775 -1.0561  0.5360  3.3184
  834MOL0     H10064   8.108  10.410   4.654  0.7229 -0.4089  0.7244
  834MOL0     H10065   8.053  10.282   4.752  2.2343 -0.7327  0.3555
  834MOL0     H10066   8.259  10.400   4.839  1.7385 -0.2051  2.0332
  834MOL0     H10067   8.173  10.551   4.837 -3.2909  0.7378  3.0117
  834MOL0     H10068   8.088  10.309   5.006 -0.2722 -0.1417 -0.8728
  834MOL0     H10069   8.014  10.464   5.028 -0.8972 -1.9972  1.8709
  834MOL0     H10070   7.285  10.315   4.247 -0.5330 -3.0758  0.6699
  834MOL0     H10071   7.051  10.247   4.211  2.1503 -0.5263 -0.3698
  834MOL0     H10072   6.550  10.581   4.319 -3.0618  1.0634 -1.5800
  834MOL0     H10073   6.312  10.505   4.245  1.6048 -0.0761 -2.5507
  834MOL0     H10074   6.812  10.299   3.364 -0.3677  0.0832  0.0190
  834MOL0     H10075   7.058  10.394   3.388 -1.9129  1.3924 -1.1046
  834MOL0     H10076   7.561  10.364   3.433  0.3770 -0.0876 -1.0091
  834MOL0     H10077   7.758  10.492   3.526 -0.0568  2.4045 -2.5934
  834MOL0     H10078   7.926  10.615   3.638  0.8289  0.9261 -0.1432
  834MOL0     H10079   7.896  10.514   3.788  2.0101  0.9742  0.7350
  834MOL0     H10080   7.960  10.816   3.785  1.3886 -0.3875 -0.5966
  834MOL0     H10081   7.948  10.700   3.928 -1.6330 -2.0517 -0.6722
  834MOL0     H10082   8.181  10.759   3.796  1.8180 -0.6399 -3.1940
  834MOL0     H10083   8.137  10.624   3.708  0.1362 -1.6035  0.2739
  834MOL0     H10084   8.156  10.658   4.021  0.1206 -0.4008 -0.0593
  834MOL0     H10085   8.099  10.507   3.952  3.0878 -2.7793 -0.2757
  834MOL0     H10086   8.501  10.456   3.871  3.5272  1.8616  4.8167
  834MOL0     H10087   7.501  10.666   3.828  0.5919 -2.4703  2.4735
  834MOL0     H10088   7.315  10.576   3.724  0.4593 -1.6742 -0.4834
  835MOL0     O10089   6.251   5.279   7.885 -0.1003 -0.0864  0.0486
  835MOL0     C10090   6.272   5.165   7.934  0.0852 -0.6737 -0.0716
  835MOL0     O10091   6.177   5.082   7.994  0.1214 -0.1443  0.7853
  835MOL0     C10092   6.046   5.119   7.985 -0.2952 -0.9163 -0.2334
  835MOL0     C10093   5.964   5.080   7.880  0.5173  0.3135 -0.3170
  835MOL0     C10094   5.825   5.111   7.872 -0.7280  0.0842  0.5611
  835MOL0     C10095   5.775   5.182   7.967 -0.4342 -0.4473 -0.6734
  835MOL0     O10096   5.644   5.211   7.993  0.4912  0.7067  0.1016
  835MOL0     C10097   5.535   5.155   7.923  0.5598  0.4384 -0.3350
  835MOL0     C10098   5.413   5.162   8.015  0.1438  0.0648  0.0187
  835MOL0     C10099   5.295   5.090   7.950  0.2706  0.3763  0.0666
  835MOL0     C10100   5.261   5.145   7.812  0.5477 -0.2346 -0.0524
  835MOL0     C10101   5.119   5.089   7.769 -0.3958  0.8711 -0.7243
  835MOL0     C10102   5.071   5.164   7.646 -0.0232  0.2344  0.3948
  835MOL0     C10103   4.949   5.090   7.585  0.1890  0.1844  0.5926
  835MOL0     C10104   4.879   5.160   7.465  1.1152 -0.0253 -0.4128
  835MOL0     N10105   4.948   5.134   7.341 -0.1309  0.1390 -0.1259
  835MOL0     C10106   4.910   5.027   7.267 -0.1695  0.6344  0.2328
  835MOL0     C10107   4.948   5.061   7.141  0.1434  0.7056 -0.0268
  835MOL0     C10108   4.913   4.969   7.025  0.3387  0.3351  0.0381
  835MOL0     C10109   5.011   4.858   7.006  0.5424 -0.0825 -0.8488
  835MOL0     C10110   5.164   4.886   7.010  0.2420 -0.6708  0.1474
  835MOL0     C10111   5.218   4.974   6.906 -0.1761  0.1046 -0.6252
  835MOL0     O10112   5.363   4.953   6.900 -0.4853 -0.2628 -0.0432
  835MOL0     C10113   5.431   5.071   6.934 -0.6813  0.4981  0.2288
  835MOL0     C10114   5.556   5.079   6.874 -0.3396 -0.2976  0.0436
  835MOL0     C10115   5.645   5.184   6.894  0.1502 -0.0362 -0.4202
  835MOL0     C10116   5.616   5.289   6.988 -0.9202  0.2201 -0.6072
  835MOL0     C10117   5.721   5.396   7.023 -0.2384  0.2200  1.1479
  835MOL0     O10118   5.679   5.487   7.111 -0.0827  0.8901 -0.6698
  835MOL0     C10119   5.748   5.581   7.166 -0.1995  0.1307 -0.4150
  835MOL0     C10120   5.695   5.609   7.299 -0.5011  0.9263 -0.4249
  835MOL0     C10121   5.751   5.716   7.375 -0.7275  0.0085  0.0929
  835MOL0     C10122   5.869   5.778   7.331 -0.1847  0.0023 -0.8591
  835MOL0     O10123   5.947   5.871   7.403  0.1290  0.3035  0.5291
  835MOL0     C10124   5.893   5.949   7.511 -0.4605 -0.0773  1.0339
  835MOL0     C10125   6.017   6.027   7.576  0.2422 -0.2951  0.3918
  835MOL0     C10126   6.147   6.047   7.485  0.3360 -0.3098 -0.8723
  835MOL0     C10127   6.225   6.170   7.545  0.3089  0.5036  0.1676
  835MOL0     C10128   6.337   6.224   7.461 -0.4975 -0.1437  0.2975
  835MOL0     C10129   6.441   6.117   7.420 -0.2039  0.4219  0.1384
  835MOL0     C10130   6.513   6.049   7.541  0.3543  0.2093 -0.3893
  835MOL0     C10131   6.592   6.149   7.630  0.6100 -0.1893 -0.5846
  835MOL0    Cl10132   6.692   6.080   7.769 -0.0523  0.6428  0.1661
  835MOL0     C10133   5.929   5.738   7.210 -0.6765  0.4397  0.3090
  835MOL0     C10134   5.864   5.646   7.125 -1.0319  0.3081  0.2013
  835MOL0     O10135   5.834   5.377   6.974  0.4791 -0.0591 -0.9367
  835MOL0     C10136   5.489   5.277   7.054 -0.1855  0.0038  0.7128
  835MOL0     C10137   5.401   5.164   7.034  0.7997 -0.5545 -0.2633
  835MOL0     N10138   5.008   5.182   7.145  0.4864  0.3616  0.4376
  835MOL0     N10139   5.011   5.221   7.267  0.4347 -1.0486  0.2923
  835MOL0     C10140   5.857   5.245   8.059 -0.6226  0.6740  0.1199
  835MOL0     C10141   5.987   5.214   8.073  0.1212 -0.2671 -0.6752
  835MOL0     C10142   6.413   5.133   7.965  0.5749 -0.7984 -0.4924
  835MOL0     C10143   6.457   5.005   7.949 -0.6907 -0.1897 -0.1175
  835MOL0     C10144   6.597   4.975   7.965  0.0394  0.1522 -0.1893
  835MOL0     C10145   6.684   5.070   8.005  0.1985 -0.6807  0.2070
  835MOL0     O10146   6.818   5.052   8.023  0.0038 -0.2927  1.1026
  835MOL0     C10147   6.888   4.933   8.011  0.2402  0.2128  0.2006
  835MOL0     C10148   7.027   4.932   8.074  0.2860  0.8064 -0.6038
  835MOL0     C10149   7.012   4.913   8.230 -1.0294 -0.2004  0.6840
  835MOL0     C10150   7.141   4.897   8.316 -1.1997 -0.8451 -0.8087
  835MOL0     C10151   7.207   4.767   8.294  0.2277 -0.0144  0.1476
  835MOL0     C10152   7.249   4.659   8.245  0.2641 -0.3091 -0.1527
  835MOL0     C10153   6.638   5.200   8.023 -0.3240  0.9168 -1.0380
  835MOL0     C10154   6.499   5.235   8.008  0.3055  0.5344 -0.0354
  835MOL0     H10155   6.007   5.019   7.802  0.1916  0.0153 -0.2645
  835MOL0     H10156   5.771   5.088   7.780 -2.1447  0.3013  1.3146
  835MOL0     H10157   5.567   5.052   7.903  1.5747  1.2598 -3.6772
  835MOL0     H10158   5.538   5.219   7.834  2.8515 -0.1617 -0.7680
  835MOL0     H10159   5.381   5.265   8.033 -1.5211 -0.4658  0.2880
  835MOL0     H10160   5.436   5.119   8.113  0.2232  1.8116  0.7958
  835MOL0     H10161   5.207   5.083   8.015  1.5739 -1.8182  1.7388
  835MOL0     H10162   5.326   4.986   7.939 -1.2294 -0.1209  0.2898
  835MOL0     H10163   5.255   5.254   7.817 -0.7001 -0.3225  1.0300
  835MOL0     H10164   5.333   5.116   7.735 -0.3443  3.0214 -2.2900
  835MOL0     H10165   5.048   5.108   7.850  0.9383  1.4038  0.3680
  835MOL0     H10166   5.114   4.980   7.756 -0.8478  0.7498  0.3476
  835MOL0     H10167   5.155   5.180   7.579  3.2174 -0.2503  4.0098
  835MOL0     H10168   5.038   5.266   7.670 -1.0457 -0.1832  0.8066
  835MOL0     H10169   4.983   4.987   7.569  1.2002  0.2156  2.2176
  835MOL0     H10170   4.875   5.087   7.665 -1.1912 -0.8771 -0.6737
  835MOL0     H10171   4.874   5.267   7.483  1.0003 -0.2687  1.2137
  835MOL0     H10172   4.778   5.118   7.464 -0.3478  3.0808  1.5861
  835MOL0     H10173   4.841   4.946   7.292  0.3063  0.4579  1.0036
  835MOL0     H10174   4.901   5.033   6.937  0.4183  2.0858  1.2468
  835MOL0     H10175   4.813   4.926   7.038 -0.6715  2.2309 -0.9335
  835MOL0     H10176   4.980   4.805   6.915 -1.1440  0.8509 -0.8669
  835MOL0     H10177   4.982   4.799   7.093 -3.2095 -0.4330 -2.1434
  835MOL0     H10178   5.183   4.933   7.107 -3.2837 -1.4283  1.3670
  835MOL0     H10179   5.215   4.790   6.998  0.2964 -0.6689  0.3650
  835MOL0     H10180   5.186   5.076   6.932 -3.8617 -0.3378 -2.7391
  835MOL0     H10181   5.170   4.946   6.812  1.2763 -2.4086 -0.6993
  835MOL0     H10182   5.582   4.999   6.806 -1.9639 -0.5999 -0.2743
  835MOL0     H10183   5.733   5.191   6.831  0.1668  0.3369 -0.3612
  835MOL0     H10184   5.599   5.569   7.331 -1.1693  1.3637 -1.7836
  835MOL0     H10185   5.705   5.713   7.473 -0.4583 -4.1359  0.2761
  835MOL0     H10186   5.838   5.900   7.591 -1.2980 -1.7839 -0.4986
  835MOL0     H10187   5.831   6.022   7.458 -0.3463 -1.5891 -1.3294
  835MOL0     H10188   6.057   5.973   7.662 -0.7127  0.7500  1.5296
  835MOL0     H10189   5.988   6.129   7.603  1.1210  0.3742 -1.0529
  835MOL0     H10190   6.120   6.072   7.382 -1.3899 -2.9489 -1.1740
  835MOL0     H10191   6.206   5.956   7.494 -0.0659 -0.5163 -0.2324
  835MOL0     H10192   6.152   6.250   7.562 -2.2180 -1.5563 -0.4177
  835MOL0     H10193   6.269   6.143   7.642  0.7846  2.4855  0.5634
  835MOL0     H10194   6.394   6.300   7.515 -0.3450  1.3061 -1.7888
  835MOL0     H10195   6.295   6.279   7.376 -1.3394 -1.8673 -0.4586
  835MOL0     H10196   6.522   6.164   7.363 -1.6979  2.2255 -0.6198
  835MOL0     H10197   6.390   6.039   7.363  0.7725 -1.2757  1.5230
  835MOL0     H10198   6.444   5.972   7.580 -3.6252  3.5328 -0.1658
  835MOL0     H10199   6.594   5.992   7.495 -1.6974 -2.6343 -0.7804
  835MOL0     H10200   6.525   6.216   7.683  2.1390  0.4874  0.5443
  835MOL0     H10201   6.659   6.216   7.576 -1.5497  1.2147 -1.6689
  835MOL0     H10202   6.022   5.776   7.169 -1.8099  3.2739  0.1105
  835MOL0     H10203   5.907   5.633   7.026  2.5389 -1.2277  1.7829
  835MOL0     H10204   5.465   5.359   7.121 -1.9529 -0.1130  0.2780
  835MOL0     H10205   5.318   5.151   7.104  0.8315 -0.9836 -0.3038
  835MOL0     H10206   5.815   5.318   8.127 -1.6352  2.9297 -2.7549
  835MOL0     H10207   6.039   5.262   8.156 -1.1770 -0.5295  0.3140
  835MOL0     H10208   6.392   4.925   7.916  0.7759 -2.1000  1.3809
  835MOL0     H10209   6.632   4.875   7.941 -2.7871 -0.9197 -0.2979
  835MOL0     H10210   6.898   4.912   7.905 -0.4901 -0.9712  0.3421
  835MOL0     H10211   6.823   4.855   8.052 -1.1357  0.7595 -0.8567
  835MOL0     H10212   7.075   4.841   8.037 -0.4038 -0.2482  0.9843
  835MOL0     H10213   7.086   5.023   8.058 -1.4861  1.9309 -1.0937
  835MOL0     H10214   6.943   4.831   8.251 -0.9774 -0.0915  1.3139
  835MOL0     H10215   6.958   4.997   8.274 -1.3116 -0.8040  1.5100
  835MOL0     H10216   7.206   4.982   8.295 -3.5562  1.6992  1.3455
  835MOL0     H10217   7.113   4.911   8.421  0.4880 -1.6627 -0.2263
  835MOL0     H10218   7.286   4.560   8.229  2.8984  0.5526  0.1675
  835MOL0     H10219   6.702   5.280   8.059 -0.8376  0.1729  1.7804
  835MOL0     H10220   6.467   5.338   8.020  1.7949  1.1080 -0.7486
  836MOL0     O10221   4.265   3.263   2.861 -0.8366 -0.2963 -0.0151
  836MOL0     C10222   4.293   3.355   2.780  0.0620  0.7778  0.5744
  836MOL0     O10223   4.233   3.376   2.659 -0.2581 -0.1661  0.4880
  836MOL0     C10224   4.116   3.316   2.642  0.2899  0.4314  0.3201
  836MOL0     C10225   4.107   3.177   2.593 -0.4047 -0.3188 -0.2558
  836MOL0     C10226   3.982   3.137   2.562 -0.2963  0.8437 -0.3715
  836MOL0     C10227   3.868   3.215   2.579  0.0970 -0.1987 -0.4534
  836MOL0     O10228   3.752   3.162   2.537 -0.1284 -0.2903 -0.4940
  836MOL0     C10229   3.634   3.199   2.603  0.1628 -0.6775 -0.3380
  836MOL0     C10230   3.506   3.127   2.547  0.4981 -0.3094  0.2243
  836MOL0     C10231   3.371   3.146   2.622  0.3941  0.2134  0.2325
  836MOL0     C10232   3.277   3.031   2.589  0.8776  0.2009  0.0563
  836MOL0     C10233   3.150   3.027   2.674 -0.6060 -0.4757  0.2417
  836MOL0     C10234   3.086   2.891   2.658 -0.5670  0.4831  0.1678
  836MOL0     C10235   2.953   2.878   2.735 -0.7734  0.4619 -0.3359
  836MOL0     C10236   2.855   2.987   2.693  0.5835  0.6472  0.1755
  836MOL0     N10237   2.721   2.960   2.737  0.5434  0.7043 -0.2762
  836MOL0     C10238   2.650   3.023   2.835 -0.6856 -0.7389  1.0045
  836MOL0     C10239   2.536   2.952   2.840 -0.4303  0.0930  0.3271
  836MOL0     C10240   2.418   2.997   2.921 -0.5816  1.0402  0.3785
  836MOL0     C10241   2.333   3.075   2.828  0.2066  0.2571  0.8536
  836MOL0     C10242   2.262   3.012   2.704 -0.5272  1.3102 -0.8633
  836MOL0     C10243   2.212   2.864   2.710 -0.1067  0.3853 -0.1907
  836MOL0     O10244   2.130   2.833   2.823  0.4816 -0.5208  0.1465
  836MOL0     C10245   2.001   2.887   2.836  1.1137  0.9559  1.0446
  836MOL0     C10246   1.942   2.864   2.963 -0.2603 -0.5830 -0.0034
  836MOL0     C10247   1.826   2.921   2.997  0.8437  0.1075  1.0789
  836MOL0     C10248   1.756   2.999   2.909  0.5381  0.6675 -0.7946
  836MOL0     C10249   1.615   3.035   2.931 -0.2205  0.4593 -0.2060
  836MOL0     O10250   1.547   2.982   3.037 -0.2432 -0.7488  0.4373
  836MOL0     C10251   1.419   3.002   3.064  0.9528  0.2123 -0.2549
  836MOL0     C10252   1.321   2.992   2.961  0.0026  0.1818 -0.7371
  836MOL0     C10253   1.185   2.994   2.989 -1.2364 -0.0982  0.1885
  836MOL0     C10254   1.146   3.012   3.123  0.0270  0.3943  0.3229
  836MOL0     O10255   1.014   2.990   3.165  0.5265 -0.5491 -0.2889
  836MOL0     C10256   0.914   2.945   3.072  0.4619  0.2733 -0.2326
  836MOL0     C10257   0.781   2.915   3.159  0.1107 -0.8409 -0.5892
  836MOL0     C10258   0.675   2.860   3.062 -0.7554 -0.0418 -0.2383
  836MOL0     C10259   0.535   2.849   3.116  0.5436  0.2877  0.4168
  836MOL0     C10260   0.429   2.850   3.006 -0.0766 -0.4391 -0.2801
  836MOL0     C10261   0.294   2.868   3.080 -0.0475  0.2263 -0.2354
  836MOL0     C10262   0.179   2.823   2.999 -0.1121  0.3566  0.0735
  836MOL0     C10263   0.047   2.851   3.072  0.2529 -0.2022  0.1516
  836MOL0    Cl10264  -0.091   2.782   2.996 -0.4166 -0.2397  0.2915
  836MOL0     C10265   1.240   3.016   3.223  0.2239 -0.1660 -0.1195
  836MOL0     C10266   1.374   3.007   3.193  0.5523  0.0595 -0.0466
  836MOL0     O10267   1.564   3.106   2.848  0.4622 -0.1336  0.8219
  836MOL0     C10268   1.804   3.018   2.772  0.3046 -0.4629 -0.9146
  836MOL0     C10269   1.929   2.961   2.733 -0.0758  0.2121 -0.5249
  836MOL0     N10270   2.543   2.838   2.763  0.4607 -0.2676  0.5338
  836MOL0     N10271   2.654   2.852   2.694 -0.2853  0.4383 -0.0341
  836MOL0     C10272   3.875   3.347   2.607 -0.3882  0.0404 -0.6165
  836MOL0     C10273   4.006   3.400   2.632  0.0404 -0.1898 -0.6569
  836MOL0     C10274   4.419   3.433   2.812 -0.3423 -0.6716 -0.3589
  836MOL0     C10275   4.512   3.480   2.714 -0.0894 -1.0028 -0.1286
  836MOL0     C10276   4.629   3.545   2.754  0.4399  0.2560 -0.4353
  836MOL0     C10277   4.669   3.559   2.887  0.0317 -0.8347  0.0810
  836MOL0     O10278   4.790   3.629   2.902  0.5081 -0.1530  0.4230
  836MOL0     C10279   4.830   3.662   3.035 -0.4062 -0.6799  0.2651
  836MOL0     C10280   4.818   3.807   3.060  0.6106  0.0689  0.4451
  836MOL0     C10281   4.924   3.896   2.989  0.0607  0.7645  0.6405
  836MOL0     C10282   4.939   3.874   2.842 -0.1009  0.5717 -0.2238
  836MOL0     C10283   4.811   3.894   2.766 -0.2157 -0.4653 -0.1281
  836MOL0     C10284   4.704   3.898   2.716  0.8165  0.3362  0.5417
  836MOL0     C10285   4.581   3.506   2.982  0.3087 -0.0525 -0.4701
  836MOL0     C10286   4.459   3.449   2.941 -0.4253  0.7936  0.3546
  836MOL0     H10287   4.189   3.107   2.586  0.5009  0.8194 -1.3930
  836MOL0     H10288   3.959   3.032   2.545  2.6356 -0.0680  0.7246
  836MOL0     H10289   3.611   3.303   2.577  1.6834 -0.3185 -0.3313
  836MOL0     H10290   3.650   3.200   2.711 -1.2270  1.1389 -0.0954
  836MOL0     H10291   3.524   3.020   2.561  2.2411  0.1857  2.2757
  836MOL0     H10292   3.501   3.142   2.439 -2.3204  1.5135  0.5074
  836MOL0     H10293   3.324   3.239   2.591 -2.1339 -0.8485  0.5622
  836MOL0     H10294   3.396   3.154   2.728 -0.3721 -0.0822  0.4428
  836MOL0     H10295   3.258   3.037   2.482  1.0561  0.4276  0.0362
  836MOL0     H10296   3.328   2.936   2.604 -1.6171 -1.3625 -0.7310
  836MOL0     H10297   3.082   3.111   2.658 -0.7195 -0.4547  0.8201
  836MOL0     H10298   3.175   3.034   2.780  1.7946 -0.3124 -0.2757
  836MOL0     H10299   3.147   2.803   2.682  0.1703  0.1361 -2.6610
  836MOL0     H10300   3.066   2.877   2.552  3.1181  1.5978 -0.8172
  836MOL0     H10301   2.911   2.781   2.707  1.4355 -1.4718  2.5113
  836MOL0     H10302   2.972   2.881   2.843 -1.1012  3.0486 -0.2951
  836MOL0     H10303   2.835   3.004   2.587 -1.1142 -2.8523 -0.2251
  836MOL0     H10304   2.890   3.086   2.721  0.1935  1.1869 -1.1891
  836MOL0     H10305   2.664   3.109   2.901 -0.6260  0.2171 -0.2095
  836MOL0     H10306   2.442   3.057   3.009 -0.5278  2.4898 -0.5859
  836MOL0     H10307   2.359   2.909   2.949  0.2806  0.5099  0.5755
  836MOL0     H10308   2.387   3.153   2.774  0.6322 -1.0098 -0.6000
  836MOL0     H10309   2.262   3.131   2.890 -3.0013 -2.4990 -0.0100
  836MOL0     H10310   2.173   3.070   2.677 -1.6572  0.4420  0.8028
  836MOL0     H10311   2.334   3.014   2.622 -1.7435  2.1008 -1.9543
  836MOL0     H10312   2.296   2.796   2.722 -0.0720  0.6659  1.3765
  836MOL0     H10313   2.157   2.844   2.618  1.3417  2.8115 -1.7036
  836MOL0     H10314   1.994   2.816   3.045 -0.4595  0.6086  0.8555
  836MOL0     H10315   1.785   2.905   3.096 -1.2679 -0.9477  0.0998
  836MOL0     H10316   1.352   2.973   2.859  0.8360  1.1432 -0.6710
  836MOL0     H10317   1.116   2.982   2.906  0.8754  2.0507 -2.0399
  836MOL0     H10318   0.952   2.855   3.023  1.9970  1.7858 -2.0063
  836MOL0     H10319   0.898   3.022   2.996 -2.6362  0.3729  0.3994
  836MOL0     H10320   0.752   3.010   3.203 -0.2241 -1.3998  0.4280
  836MOL0     H10321   0.807   2.834   3.228 -0.0780 -2.0790 -1.9315
  836MOL0     H10322   0.714   2.769   3.016  0.0931 -2.3759  4.4749
  836MOL0     H10323   0.665   2.939   2.987 -0.6742 -1.3481 -1.6901
  836MOL0     H10324   0.514   2.752   3.162 -1.5618  0.6508  0.3099
  836MOL0     H10325   0.516   2.933   3.183  0.4208 -0.4882  1.3726
  836MOL0     H10326   0.428   2.756   2.950 -0.3711 -1.5144  1.4631
  836MOL0     H10327   0.447   2.928   2.932 -1.2025  0.4193  0.3254
  836MOL0     H10328   0.266   2.970   3.110 -1.4222 -0.6927  1.8035
  836MOL0     H10329   0.307   2.809   3.170 -2.8219 -1.1278 -0.6019
  836MOL0     H10330   0.174   2.867   2.899  0.2095  0.9892  0.3332
  836MOL0     H10331   0.195   2.716   2.983  3.1749  0.4457  1.9890
  836MOL0     H10332   0.033   2.959   3.086  0.1202  0.0366 -1.6650
  836MOL0     H10333   0.049   2.818   3.177  0.3243 -0.4711  0.0658
  836MOL0     H10334   1.202   3.022   3.325 -1.8931  0.1555 -0.8909
  836MOL0     H10335   1.451   3.011   3.269 -1.5624  2.4946  2.1888
  836MOL0     H10336   1.743   3.080   2.706 -0.8348  2.2811  2.3921
  836MOL0     H10337   1.976   2.976   2.637  0.2761 -0.7844 -0.5269
  836MOL0     H10338   3.793   3.419   2.603  0.7926  1.5497  1.1814
  836MOL0     H10339   4.022   3.504   2.657 -2.3630 -0.1506  1.1215
  836MOL0     H10340   4.483   3.471   2.609  3.2223 -2.2211 -1.0537
  836MOL0     H10341   4.694   3.596   2.684 -0.6638  3.0843  0.4812
  836MOL0     H10342   4.932   3.626   3.052 -0.7910 -1.7314  0.4344
  836MOL0     H10343   4.768   3.619   3.115 -3.0532  2.5524  0.1652
  836MOL0     H10344   4.718   3.834   3.022  1.0839 -1.1648 -1.9112
  836MOL0     H10345   4.807   3.828   3.167  0.9557 -3.7315  1.3377
  836MOL0     H10346   5.025   3.883   3.028  1.2375  2.5507 -1.5814
  836MOL0     H10347   4.901   4.003   2.992  1.5633  1.1649 -0.8012
  836MOL0     H10348   5.016   3.945   2.812  2.4416 -1.8722  0.0888
  836MOL0     H10349   4.979   3.773   2.827  1.2513  0.4742  3.1374
  836MOL0     H10350   4.605   3.888   2.675  0.5363  1.5230  0.8971
  836MOL0     H10351   4.582   3.518   3.090 -3.5259 -3.3487  0.1728
  836MOL0     H10352   4.394   3.440   3.028  0.0594  3.9494  1.1945
  837MOL0     O10353   2.175   6.609   2.529 -0.2624  0.9404  0.2508
  837MOL0     C10354   2.272   6.641   2.458  0.2938 -0.2229 -0.4698
  837MOL0     O10355   2.336   6.563   2.368  0.0051  0.1330  0.0784
  837MOL0     C10356   2.273   6.446   2.320 -0.2060  0.2558 -0.8104
  837MOL0     C10357   2.350   6.330   2.294 -0.2885 -0.5360  0.4092
  837MOL0     C10358   2.291   6.230   2.228  0.0888  0.1290  0.0799
  837MOL0     C10359   2.157   6.231   2.191  0.0655  0.1670 -0.1766
  837MOL0     O10360   2.131   6.115   2.109  0.0651 -0.1204  0.0478
  837MOL0     C10361   2.002   6.059   2.121  0.4659  1.1029  0.0334
  837MOL0     C10362   2.002   5.978   2.248 -0.3094  0.2732  0.6276
  837MOL0     C10363   1.892   5.874   2.235  0.6768 -0.1564  0.0892
  837MOL0     C10364   1.902   5.763   2.347 -0.6603 -0.4613  0.0634
  837MOL0     C10365   1.781   5.661   2.343  0.4448 -0.2777 -0.6421
  837MOL0     C10366   1.759   5.588   2.215 -0.5956  0.6176  0.2085
  837MOL0     C10367   1.636   5.495   2.226  0.1692 -0.0286 -0.4218
  837MOL0     C10368   1.647   5.382   2.340  1.2546  0.2628  0.1451
  837MOL0     N10369   1.541   5.282   2.325  0.3189  0.3700 -0.7053
  837MOL0     C10370   1.534   5.185   2.231 -0.7672 -0.3690 -0.1317
  837MOL0     C10371   1.429   5.111   2.258  0.5230 -0.1097  0.1236
  837MOL0     C10372   1.371   5.001   2.167  0.3454 -0.1619 -0.5457
  837MOL0     C10373   1.216   4.983   2.170 -0.4423  0.5547 -0.2272
  837MOL0     C10374   1.175   4.871   2.277 -0.8230  0.1835  0.2571
  837MOL0     C10375   1.027   4.862   2.312  0.3768 -0.2286  0.4956
  837MOL0     O10376   0.946   4.826   2.198  0.1817  0.2767  0.3457
  837MOL0     C10377   0.814   4.787   2.213 -0.6158 -0.8875  0.9869
  837MOL0     C10378   0.730   4.814   2.325 -0.7992 -0.4886  0.6831
  837MOL0     C10379   0.601   4.778   2.317  0.0008  0.5072  0.1676
  837MOL0     C10380   0.549   4.714   2.200  0.0792  0.5053  0.1800
  837MOL0     C10381   0.404   4.687   2.192 -0.0886  0.0863  0.3998
  837MOL0     O10382   0.368   4.588   2.105 -0.5772 -0.0826 -0.2826
  837MOL0     C10383   0.242   4.525   2.124  0.4094 -0.7664  0.2481
  837MOL0     C10384   0.129   4.602   2.100  0.1165  0.1255 -0.0088
  837MOL0     C10385  -0.003   4.552   2.102 -0.5758 -0.5688 -0.3116
  837MOL0     C10386  -0.019   4.418   2.130  0.8552  0.1001  0.8392
  837MOL0     O10387  -0.152   4.379   2.146 -0.2792  0.4370 -1.0437
  837MOL0     C10388  -0.195   4.281   2.056  0.8939  0.0728 -0.1543
  837MOL0     C10389  -0.354   4.301   2.051 -1.1486 -0.0638  0.6091
  837MOL0     C10390  -0.397   4.438   1.993  0.6020  0.4178  0.1410
  837MOL0     C10391  -0.547   4.454   1.969  0.5259  0.4325  0.6136
  837MOL0     C10392  -0.560   4.589   1.915  0.4710 -1.0276  1.2082
  837MOL0     C10393  -0.703   4.631   1.880  0.4768  0.3757  0.1102
  837MOL0     C10394  -0.755   4.552   1.748  0.3768 -0.9245 -0.4311
  837MOL0     C10395  -0.910   4.541   1.730  0.1190 -0.1472 -0.0486
  837MOL0    Cl10396  -0.961   4.542   1.562 -0.2887  0.2741 -0.1634
  837MOL0     C10397   0.090   4.329   2.144 -0.4534  0.2717  0.4281
  837MOL0     C10398   0.222   4.387   2.130  0.5755  0.1762  0.0068
  837MOL0     O10399   0.330   4.760   2.262  0.6550 -0.2572 -0.3851
  837MOL0     C10400   0.640   4.676   2.097 -0.2763  0.3844  0.6744
  837MOL0     C10401   0.770   4.719   2.103  0.2520 -0.3357 -1.1936
  837MOL0     N10402   1.365   5.166   2.372  0.1732 -0.0951  0.2029
  837MOL0     N10403   1.441   5.266   2.413 -0.0998  0.0997 -0.0078
  837MOL0     C10404   2.081   6.344   2.204 -0.1567  0.5527  1.0127
  837MOL0     C10405   2.138   6.445   2.276  0.0266  0.2438  0.9008
  837MOL0     C10406   2.326   6.778   2.481 -0.5735  0.3094  0.7212
  837MOL0     C10407   2.292   6.865   2.593  1.4728  0.6350 -0.9923
  837MOL0     C10408   2.356   6.984   2.614  0.2134 -0.3167  0.2800
  837MOL0     C10409   2.455   7.030   2.521  0.0243  0.2993 -0.2835
  837MOL0     O10410   2.518   7.148   2.554 -0.1620 -0.3851 -0.2120
  837MOL0     C10411   2.641   7.189   2.493  0.4550 -0.7119  0.1472
  837MOL0     C10412   2.759   7.106   2.553 -0.0006 -0.7122 -0.0858
  837MOL0     C10413   2.875   7.190   2.608 -0.4235  0.5938  0.3710
  837MOL0     C10414   2.983   7.089   2.659 -0.0902  0.0858  0.8734
  837MOL0     C10415   3.049   7.009   2.555  0.1584 -0.2670 -0.3075
  837MOL0     C10416   3.080   6.944   2.455  1.1525  0.1935 -0.5759
  837MOL0     C10417   2.487   6.944   2.415 -0.1085  0.0358  0.2011
  837MOL0     C10418   2.423   6.826   2.390  0.2133  0.5563  0.0394
  837MOL0     H10419   2.442   6.306   2.347 -0.2085  0.3297  0.6835
  837MOL0     H10420   2.355   6.146   2.204 -0.1318  0.8501 -3.4978
  837MOL0     H10421   1.988   5.997   2.031 -0.6585 -0.9580  1.5499
  837MOL0     H10422   1.927   6.139   2.128 -2.7468 -1.1561 -3.8407
  837MOL0     H10423   1.982   6.042   2.334 -0.5254  0.1227  0.6921
  837MOL0     H10424   2.104   5.945   2.269  0.7528  1.1856 -2.5893
  837MOL0     H10425   1.901   5.818   2.142  2.2912 -1.8590  1.1866
  837MOL0     H10426   1.792   5.920   2.238 -0.3055 -2.0847  3.6416
  837MOL0     H10427   1.995   5.707   2.344 -2.1824 -3.6514  3.9008
  837MOL0     H10428   1.892   5.809   2.445  0.3840  3.2444 -1.3958
  837MOL0     H10429   1.688   5.718   2.352  2.5689  3.3164  0.4626
  837MOL0     H10430   1.797   5.589   2.424  0.7059 -2.8786 -2.8490
  837MOL0     H10431   1.841   5.522   2.185  0.4216  2.4117 -1.1642
  837MOL0     H10432   1.744   5.656   2.131  2.1048 -0.1845 -1.0429
  837MOL0     H10433   1.553   5.555   2.265  1.8629  1.0057  1.7795
  837MOL0     H10434   1.611   5.451   2.129  1.3895 -4.9334  1.1705
  837MOL0     H10435   1.638   5.437   2.434  0.9038 -0.4045  0.5132
  837MOL0     H10436   1.746   5.338   2.354  1.2953  1.0721  2.9504
  837MOL0     H10437   1.599   5.166   2.146 -0.5659 -0.2426 -0.0070
  837MOL0     H10438   1.416   4.903   2.180 -1.4648 -1.3667 -2.5413
  837MOL0     H10439   1.390   5.032   2.063 -0.4646 -0.1420 -0.6958
  837MOL0     H10440   1.196   4.943   2.070  0.5110 -3.6062  1.0534
  837MOL0     H10441   1.165   5.075   2.199 -1.7249  0.2130 -1.3032
  837MOL0     H10442   1.213   4.774   2.243  2.1936  1.3678 -0.0441
  837MOL0     H10443   1.228   4.899   2.368  0.8048 -0.4572 -0.4544
  837MOL0     H10444   0.986   4.961   2.337  0.0160 -0.6442  1.5924
  837MOL0     H10445   1.007   4.794   2.395 -3.6155 -1.8258 -1.5223
  837MOL0     H10446   0.773   4.852   2.417 -2.2406  1.5296  0.5740
  837MOL0     H10447   0.532   4.799   2.398 -0.9209  0.8715 -0.6843
  837MOL0     H10448   0.131   4.709   2.078 -0.7106  0.2617  0.5223
  837MOL0     H10449  -0.091   4.613   2.087  0.1926  0.2004 -2.0846
  837MOL0     H10450  -0.184   4.179   2.093 -0.8028 -0.1987 -0.3322
  837MOL0     H10451  -0.147   4.293   1.959  0.0608  1.4435 -0.4192
  837MOL0     H10452  -0.384   4.271   2.152 -1.7994  1.0268  0.7577
  837MOL0     H10453  -0.399   4.225   1.986  0.3256 -0.2281 -0.2521
  837MOL0     H10454  -0.336   4.436   1.902  2.0275 -1.0351  1.0682
  837MOL0     H10455  -0.362   4.514   2.063  1.2228 -0.5381  0.9132
  837MOL0     H10456  -0.571   4.382   1.891  0.2441  2.2331 -1.0452
  837MOL0     H10457  -0.605   4.445   2.061  0.6914 -1.0117  0.5950
  837MOL0     H10458  -0.491   4.597   1.830  1.7869 -2.3436  2.0925
  837MOL0     H10459  -0.521   4.660   1.989 -1.9963  1.0556  0.6196
  837MOL0     H10460  -0.704   4.738   1.859 -1.1732  0.7335  1.7602
  837MOL0     H10461  -0.762   4.607   1.969 -2.8961 -2.4566 -2.6008
  837MOL0     H10462  -0.715   4.602   1.660  0.9026  1.0133  0.8452
  837MOL0     H10463  -0.725   4.447   1.745 -4.3007 -2.4657 -1.8013
  837MOL0     H10464  -0.950   4.633   1.774  1.0036  0.2102  0.0308
  837MOL0     H10465  -0.949   4.450   1.775 -2.1073 -0.6744 -2.7805
  837MOL0     H10466   0.081   4.223   2.165  2.6353 -0.1915 -0.2502
  837MOL0     H10467   0.310   4.325   2.141 -0.0786 -0.5200  1.6808
  837MOL0     H10468   0.590   4.612   2.025  2.1036 -0.5797 -0.2311
  837MOL0     H10469   0.837   4.705   2.018 -0.8541  0.9415 -2.3209
  837MOL0     H10470   1.984   6.355   2.156 -0.0288 -0.5843  0.4599
  837MOL0     H10471   2.078   6.535   2.288  0.0423  0.4177 -0.2026
  837MOL0     H10472   2.223   6.828   2.668  4.7196 -3.6099  0.3195
  837MOL0     H10473   2.355   7.058   2.694 -0.0298  0.7033 -0.6287
  837MOL0     H10474   2.656   7.294   2.516 -2.1003 -0.1479 -0.4280
  837MOL0     H10475   2.644   7.184   2.384  0.4020  1.2291  0.0319
  837MOL0     H10476   2.717   7.044   2.632  0.6522 -1.9231 -0.6669
  837MOL0     H10477   2.804   7.056   2.467  1.4160  1.7108 -0.8773
  837MOL0     H10478   2.841   7.250   2.693 -0.6632  0.1366  0.5967
  837MOL0     H10479   2.916   7.253   2.528 -1.0134 -2.0419 -2.1361
  837MOL0     H10480   3.051   7.154   2.715  1.7180 -0.5553 -0.4658
  837MOL0     H10481   2.942   7.016   2.729  0.0116  2.1675  3.2306
  837MOL0     H10482   3.113   6.897   2.365  1.4215 -0.4829 -0.1299
  837MOL0     H10483   2.549   6.972   2.330 -1.2783  0.7118 -0.4598
  837MOL0     H10484   2.448   6.772   2.299  1.3094  0.8205  0.1800
  838MOL0     O10485   1.640   1.192   3.278  0.1849 -0.7916  0.3631
  838MOL0     C10486   1.664   1.218   3.161 -0.3075  0.1940  0.2707
  838MOL0     O10487   1.573   1.239   3.059  0.3148  0.2856 -0.1597
  838MOL0     C10488   1.437   1.213   3.095  0.3146  0.1982 -0.2084
  838MOL0     C10489   1.346   1.316   3.121  0.0293  0.1535 -0.2080
  838MOL0     C10490   1.210   1.289   3.158 -0.9898  0.6005 -0.4007
  838MOL0     C10491   1.166   1.155   3.159 -0.2278  0.8772  0.4001
  838MOL0     O10492   1.038   1.130   3.200 -0.6304  0.3286 -0.3044
  838MOL0     C10493   0.963   1.028   3.129 -1.0181  0.6654 -0.1020
  838MOL0     C10494   0.827   1.091   3.130  0.8108  0.3765 -0.3597
  838MOL0     C10495   0.720   0.992   3.077  0.2246  0.3297  0.1521
  838MOL0     C10496   0.578   1.054   3.109 -0.2525  0.0235  0.5288
  838MOL0     C10497   0.464   0.962   3.081 -0.6782 -0.6289  0.2837
  838MOL0     C10498   0.327   1.022   3.110  0.2467 -0.3118 -0.4423
  838MOL0     C10499   0.206   0.933   3.076 -0.1111 -0.2928  0.6869
  838MOL0     C10500   0.170   0.932   2.927  0.7504 -0.0290 -0.3345
  838MOL0     N10501   0.047   0.849   2.913  0.0643 -0.1191 -0.0988
  838MOL0     C10502   0.036   0.721   2.877  0.4632 -0.0007 -0.1931
  838MOL0     C10503  -0.101   0.697   2.871  0.3739  0.2877 -1.0054
  838MOL0     C10504  -0.157   0.561   2.829 -0.4228 -0.3989  0.1326
  838MOL0     C10505  -0.304   0.555   2.785  0.1877  0.1922  0.2391
  838MOL0     C10506  -0.392   0.528   2.904 -0.5869  0.0096  0.1464
  838MOL0     C10507  -0.539   0.551   2.880 -0.4094 -0.4978  0.4116
  838MOL0     O10508  -0.553   0.691   2.835 -0.2821  0.3035 -0.4170
  838MOL0     C10509  -0.679   0.726   2.789  1.0008 -0.1894 -0.1565
  838MOL0     C10510  -0.691   0.852   2.730  0.2764  0.5253 -0.0901
  838MOL0     C10511  -0.800   0.884   2.653  0.5669 -0.6130 -0.4679
  838MOL0     C10512  -0.910   0.793   2.654 -1.0660 -0.6942  1.2204
  838MOL0     C10513  -1.027   0.829   2.570 -0.2639  0.5668  0.2780
  838MOL0     O10514  -1.134   0.741   2.574  0.7607  0.4847 -0.0916
  838MOL0     C10515  -1.239   0.772   2.492 -0.9003  0.4580  0.3035
  838MOL0     C10516  -1.366   0.759   2.552 -0.1256  0.0002  0.1846
  838MOL0     C10517  -1.482   0.792   2.488  0.0667  0.2425  0.1173
  838MOL0     C10518  -1.476   0.830   2.349  0.2856  0.7209 -0.7306
  838MOL0     O10519  -1.592   0.847   2.277 -0.6878  0.1955 -0.6093
  838MOL0     C10520  -1.685   0.738   2.283 -0.0574  0.4803 -0.6506
  838MOL0     C10521  -1.817   0.787   2.353 -0.3457 -0.1148  0.3816
  838MOL0     C10522  -1.885   0.900   2.268 -0.9352 -0.3265  0.1296
  838MOL0     C10523  -2.014   0.939   2.334 -0.0450  0.8470 -0.0460
  838MOL0     C10524  -2.076   1.062   2.267 -0.3238  0.8773 -0.0532
  838MOL0     C10525  -2.175   1.154   2.330  0.8589 -0.2504 -0.1538
  838MOL0     C10526  -2.299   1.089   2.386  0.1918  0.6406  0.1505
  838MOL0     C10527  -2.426   1.174   2.403 -0.1949  0.3752  0.0878
  838MOL0    Cl10528  -2.463   1.242   2.242  0.1240 -0.1441  0.1572
  838MOL0     C10529  -1.352   0.837   2.288  0.0541  0.6226  0.2343
  838MOL0     C10530  -1.235   0.804   2.355  0.6712 -0.1339 -0.6187
  838MOL0     O10531  -1.025   0.930   2.501  0.4290  0.4432 -0.1536
  838MOL0     C10532  -0.917   0.677   2.736 -0.2009  0.0272  0.0389
  838MOL0     C10533  -0.789   0.639   2.787  0.1594  0.1172  0.1839
  838MOL0     N10534  -0.164   0.799   2.952 -0.2219 -0.5974 -0.4103
  838MOL0     N10535  -0.074   0.890   2.967 -0.3007  0.0955  0.2651
  838MOL0     C10536   1.258   1.052   3.158  0.0501  0.4013  0.6179
  838MOL0     C10537   1.391   1.082   3.106  0.3326  0.1096  0.2403
  838MOL0     C10538   1.808   1.225   3.115 -0.2793  0.8309  0.1802
  838MOL0     C10539   1.916   1.247   3.203  0.1777  0.2612  0.1044
  838MOL0     C10540   2.041   1.267   3.163 -0.0355 -0.4287  0.7152
  838MOL0     C10541   2.076   1.260   3.035  0.7734  0.8120 -0.3735
  838MOL0     O10542   2.209   1.267   3.006 -0.0166  0.0242 -0.6464
  838MOL0     C10543   2.258   1.228   2.883  0.2402 -0.1472  0.8999
  838MOL0     C10544   2.410   1.277   2.870 -0.2518 -0.1723  0.6734
  838MOL0     C10545   2.436   1.377   2.749  1.0009 -1.1279  0.3278
  838MOL0     C10546   2.454   1.322   2.608 -0.2542 -0.4251 -1.0871
  838MOL0     C10547   2.568   1.241   2.605 -0.6479 -0.1876 -0.8147
  838MOL0     C10548   2.683   1.206   2.602  0.3510  0.7920  0.1090
  838MOL0     C10549   1.978   1.238   2.937  1.5489 -0.3307  0.1873
  838MOL0     C10550   1.844   1.227   2.978 -0.3621  0.1757 -0.5289
  838MOL0     H10551   1.380   1.419   3.109  2.6046 -0.3426  1.8921
  838MOL0     H10552   1.140   1.371   3.166  1.0341  2.5985 -1.6971
  838MOL0     H10553   0.974   0.935   3.184 -2.3212  0.6779  0.2199
  838MOL0     H10554   0.995   1.002   3.027 -0.7747 -4.3283  1.0119
  838MOL0     H10555   0.836   1.180   3.067  0.1604 -0.2820 -1.4197
  838MOL0     H10556   0.796   1.131   3.227 -0.9887 -0.2692 -0.6327
  838MOL0     H10557   0.726   0.899   3.134  0.6659  1.2780  1.7196
  838MOL0     H10558   0.731   0.972   2.970 -1.4085  0.4905 -0.0740
  838MOL0     H10559   0.579   1.078   3.215 -0.4753 -2.8516  1.2561
  838MOL0     H10560   0.574   1.147   3.050  2.4406 -1.3776 -2.1519
  838MOL0     H10561   0.467   0.869   3.138  0.7070 -0.4059  0.6042
  838MOL0     H10562   0.471   0.933   2.975  1.2055  2.9345 -0.7191
  838MOL0     H10563   0.323   1.117   3.056  0.7287 -0.4213 -0.6793
  838MOL0     H10564   0.323   1.059   3.213 -1.3237  1.1173 -0.9800
  838MOL0     H10565   0.221   0.827   3.099  0.0811 -0.0099  1.9489
  838MOL0     H10566   0.121   0.960   3.139  0.5211 -1.8223  2.2784
  838MOL0     H10567   0.236   0.866   2.870 -1.3696 -1.6049 -1.1072
  838MOL0     H10568   0.150   1.030   2.882  1.0817 -0.4259 -1.3605
  838MOL0     H10569   0.112   0.649   2.849  0.4845 -0.3670  0.7725
  838MOL0     H10570  -0.130   0.489   2.907  1.6756  0.5622  0.3783
  838MOL0     H10571  -0.092   0.534   2.745 -0.3781 -2.1020  0.6646
  838MOL0     H10572  -0.326   0.473   2.715 -1.8495  0.9518 -0.0769
  838MOL0     H10573  -0.337   0.652   2.747 -1.7233  0.2062  1.7408
  838MOL0     H10574  -0.377   0.427   2.944 -1.7985 -0.7070 -1.1285
  838MOL0     H10575  -0.354   0.592   2.984 -0.9651  0.4590 -0.0269
  838MOL0     H10576  -0.594   0.544   2.974 -2.3531 -0.9929 -0.7028
  838MOL0     H10577  -0.577   0.484   2.802 -2.5491  1.4400 -0.2913
  838MOL0     H10578  -0.613   0.925   2.747  2.0684 -0.8199 -2.0482
  838MOL0     H10579  -0.797   0.977   2.597 -0.2653 -0.1756  0.2027
  838MOL0     H10580  -1.369   0.711   2.650 -1.6952  2.7406  1.5955
  838MOL0     H10581  -1.581   0.779   2.530  0.1393  1.0967  0.5768
  838MOL0     H10582  -1.647   0.656   2.345 -0.7326  0.8224  0.2396
  838MOL0     H10583  -1.701   0.694   2.185  0.1797 -0.8394 -0.1183
  838MOL0     H10584  -1.803   0.820   2.456 -1.0309  1.5710 -0.0275
  838MOL0     H10585  -1.878   0.697   2.351 -1.0265  0.3311 -1.3645
  838MOL0     H10586  -1.911   0.881   2.164  1.9864 -3.4904 -0.1875
  838MOL0     H10587  -1.815   0.984   2.266 -0.4569 -0.7230 -0.0670
  838MOL0     H10588  -2.078   0.850   2.330  0.6862  0.2645  0.7512
  838MOL0     H10589  -2.007   0.967   2.440 -1.6240 -2.5960  1.1136
  838MOL0     H10590  -2.110   1.017   2.174  1.3973 -3.5833  1.1774
  838MOL0     H10591  -1.994   1.131   2.244  0.0714  1.0018  1.5457
  838MOL0     H10592  -2.196   1.229   2.252  0.7331 -0.5594 -0.4175
  838MOL0     H10593  -2.134   1.209   2.416  1.4726 -1.6191  0.4467
  838MOL0     H10594  -2.321   1.002   2.325  2.8901  0.5931 -0.9023
  838MOL0     H10595  -2.269   1.048   2.483  1.3614  2.2130  0.5079
  838MOL0     H10596  -2.411   1.256   2.474  0.2962 -0.1773  0.6433
  838MOL0     H10597  -2.511   1.109   2.424  0.3041  0.2144  1.7308
  838MOL0     H10598  -1.348   0.856   2.182  0.0193 -0.5917  0.0016
  838MOL0     H10599  -1.140   0.809   2.304  0.1370  2.7390 -1.5808
  838MOL0     H10600  -1.000   0.607   2.741 -0.7035  0.7029  2.5707
  838MOL0     H10601  -0.792   0.541   2.835  0.1949  0.1899  0.3367
  838MOL0     H10602   1.224   0.949   3.160 -1.7543  0.9021 -1.0135
  838MOL0     H10603   1.468   1.009   3.083  0.2560  1.0531 -3.9645
  838MOL0     H10604   1.892   1.249   3.309 -0.9069 -2.3635 -0.0291
  838MOL0     H10605   2.113   1.300   3.237 -0.0566  1.8284 -0.2019
  838MOL0     H10606   2.210   1.286   2.803  1.2962  2.5016  2.0860
  838MOL0     H10607   2.254   1.120   2.870 -2.1936 -0.0882  0.6809
  838MOL0     H10608   2.435   1.332   2.961 -0.9725  0.4979  0.4787
  838MOL0     H10609   2.472   1.187   2.867 -1.0870 -0.7622 -2.9421
  838MOL0     H10610   2.522   1.442   2.770 -0.9908  0.9782  2.6070
  838MOL0     H10611   2.350   1.444   2.744  0.8293 -1.4444 -1.8262
  838MOL0     H10612   2.372   1.262   2.567 -1.8429  2.0601 -1.7384
  838MOL0     H10613   2.466   1.406   2.539 -0.9496  0.7863  0.2263
  838MOL0     H10614   2.785   1.176   2.588  0.4246  1.1190 -0.0455
  838MOL0     H10615   1.999   1.245   2.831  2.7557 -1.7236  0.2921
  838MOL0     H10616   1.767   1.223   2.901  0.6588  3.9974 -1.9593
  839MOL0     O10617   2.482   8.485   0.049 -0.3378 -0.4524 -0.4943
  839MOL0     C10618   2.533   8.559  -0.032 -0.1521 -0.8330  0.8056
  839MOL0     O10619   2.467   8.614  -0.139 -0.2076 -0.5480  0.6006
  839MOL0     C10620   2.349   8.553  -0.159 -0.5521 -0.7399  0.2114
  839MOL0     C10621   2.246   8.642  -0.194  0.4570  0.7988 -0.1886
  839MOL0     C10622   2.115   8.597  -0.201  0.1116 -0.6831  0.8692
  839MOL0     C10623   2.092   8.458  -0.212  0.7396 -0.5295 -0.1272
  839MOL0     O10624   1.960   8.413  -0.233 -0.0419  0.2472  0.0973
  839MOL0     C10625   1.944   8.328  -0.345  0.6343 -0.0967  0.1025
  839MOL0     C10626   1.798   8.319  -0.360 -0.0475  0.5243 -0.3968
  839MOL0     C10627   1.767   8.225  -0.480  0.5425  0.3613  0.4983
  839MOL0     C10628   1.750   8.092  -0.429  0.3572 -0.2967  0.4240
  839MOL0     C10629   1.707   7.987  -0.534  0.0003  0.2170 -0.3317
  839MOL0     C10630   1.818   7.947  -0.625  0.2146  0.2642  0.8324
  839MOL0     C10631   1.912   7.831  -0.569  0.6634 -0.2990 -0.0774
  839MOL0     C10632   2.043   7.827  -0.640 -0.7475 -0.7736  0.5547
  839MOL0     N10633   2.025   7.786  -0.773 -0.5164  0.1189 -0.0470
  839MOL0     C10634   1.967   7.664  -0.813 -0.1822  0.2280  0.5939
  839MOL0     C10635   1.966   7.673  -0.945  0.5973  0.1718  0.0859
  839MOL0     C10636   1.889   7.581  -1.032  0.1489 -0.0627 -0.0515
  839MOL0     C10637   1.741   7.590  -1.011  0.2044 -0.7442  0.1954
  839MOL0     C10638   1.650   7.486  -1.062  0.3129 -0.6909  0.2544
  839MOL0     C10639   1.540   7.543  -1.153 -0.3940 -0.1622 -1.0510
  839MOL0     O10640   1.479   7.424  -1.196 -0.1847 -0.4961  0.2204
  839MOL0     C10641   1.377   7.424  -1.287 -0.0543  0.2092  0.5869
  839MOL0     C10642   1.334   7.536  -1.353 -0.0582  1.2618  1.7280
  839MOL0     C10643   1.231   7.519  -1.448  0.0357  0.1600  0.4961
  839MOL0     C10644   1.185   7.400  -1.489 -0.8356  0.3934  1.0207
  839MOL0     C10645   1.102   7.379  -1.607  0.3092 -0.9037 -0.7253
  839MOL0     O10646   1.043   7.259  -1.618 -0.3498  0.5680  0.0002
  839MOL0     C10647   0.942   7.259  -1.712  0.0372 -0.3763 -0.2204
  839MOL0     C10648   0.964   7.210  -1.840 -0.5941 -0.2576 -0.1826
  839MOL0     C10649   0.856   7.217  -1.925  0.7429 -0.1423 -0.2493
  839MOL0     C10650   0.728   7.278  -1.891 -0.1137  1.9792  0.2228
  839MOL0     O10651   0.621   7.278  -1.976  0.2675 -0.3644  0.3365
  839MOL0     C10652   0.645   7.270  -2.114 -0.8345  0.0343  0.1738
  839MOL0     C10653   0.512   7.307  -2.186 -0.2012  0.3971 -0.4317
  839MOL0     C10654   0.547   7.419  -2.301  1.1656 -1.0735 -0.7864
  839MOL0     C10655   0.422   7.468  -2.382  0.3045  0.8216 -0.3645
  839MOL0     C10656   0.456   7.582  -2.477  0.9140  0.0639 -0.9857
  839MOL0     C10657   0.586   7.560  -2.564  0.1693  0.0685  1.0452
  839MOL0     C10658   0.564   7.445  -2.661  0.1662 -1.2615 -0.7513
  839MOL0     C10659   0.681   7.443  -2.765  0.9419  0.0778  0.1917
  839MOL0    Cl10660   0.841   7.421  -2.697 -0.2232  0.2819 -0.0739
  839MOL0     C10661   0.708   7.324  -1.765  0.1633  0.1000  0.1432
  839MOL0     C10662   0.815   7.314  -1.673  0.4565  0.0258 -0.1273
  839MOL0     O10663   1.083   7.483  -1.681 -0.1191 -0.0245 -0.0629
  839MOL0     C10664   1.221   7.285  -1.422  0.3597 -0.2033 -0.9146
  839MOL0     C10665   1.321   7.301  -1.326  0.5618 -0.2507  0.3398
  839MOL0     N10666   2.038   7.781  -0.994  0.3064  0.7376 -0.0972
  839MOL0     N10667   2.087   7.838  -0.887  0.2718  0.4580  0.0098
  839MOL0     C10668   2.193   8.366  -0.185 -0.2992 -0.3361  0.3104
  839MOL0     C10669   2.319   8.419  -0.164 -0.6896  0.0865  0.0080
  839MOL0     C10670   2.663   8.615  -0.016 -0.2729  0.2929  0.0226
  839MOL0     C10671   2.713   8.707  -0.108 -0.3744  1.0159  0.4230
  839MOL0     C10672   2.836   8.759  -0.087  0.7868  0.0659 -0.5560
  839MOL0     C10673   2.909   8.734   0.029  0.0760 -0.3152 -0.4783
  839MOL0     O10674   3.024   8.810   0.057 -0.2884 -0.0319  0.5478
  839MOL0     C10675   2.976   8.920   0.140  0.0634  0.3857 -0.8367
  839MOL0     C10676   2.955   9.040   0.057  0.8587 -0.1309 -0.1414
  839MOL0     C10677   3.073   9.099  -0.018  0.1574 -0.2173 -0.1334
  839MOL0     C10678   3.194   9.147   0.059 -0.3389 -0.3215  0.8512
  839MOL0     C10679   3.173   9.276   0.110  0.4836  0.0239 -0.1296
  839MOL0     C10680   3.162   9.379   0.173  0.3881  0.1894  1.0329
  839MOL0     C10681   2.850   8.648   0.120 -0.2703 -0.5548 -0.7036
  839MOL0     C10682   2.733   8.582   0.100  0.1781 -0.0692  0.7191
  839MOL0     H10683   2.250   8.750  -0.187 -0.9901  0.8665 -0.1108
  839MOL0     H10684   2.036   8.660  -0.240  3.0202  2.0856 -1.0217
  839MOL0     H10685   1.986   8.229  -0.325  0.8676  0.2051  1.1424
  839MOL0     H10686   1.983   8.373  -0.438  1.0268 -1.0661 -0.2148
  839MOL0     H10687   1.757   8.419  -0.375 -0.3146  0.5398  0.3475
  839MOL0     H10688   1.751   8.287  -0.266 -1.0532  3.3211  0.1487
  839MOL0     H10689   1.844   8.219  -0.557  1.2686 -0.5826  1.2612
  839MOL0     H10690   1.673   8.251  -0.530  1.1164 -3.2831 -3.0545
  839MOL0     H10691   1.836   8.058  -0.371  1.0893  2.4589  1.0702
  839MOL0     H10692   1.674   8.089  -0.351 -0.7500  2.2604 -0.4401
  839MOL0     H10693   1.629   8.036  -0.594  1.8188  0.6367 -2.4844
  839MOL0     H10694   1.666   7.893  -0.495  2.1350 -2.2615 -3.4967
  839MOL0     H10695   1.875   8.036  -0.654 -2.0387  1.1794 -1.0932
  839MOL0     H10696   1.770   7.907  -0.715 -1.7213  0.1056  1.8852
  839MOL0     H10697   1.927   7.855  -0.464 -0.8671  3.7430 -0.5934
  839MOL0     H10698   1.867   7.732  -0.572  2.2522 -1.0563 -1.8966
  839MOL0     H10699   2.115   7.762  -0.588 -0.7252  0.3691  2.0249
  839MOL0     H10700   2.091   7.925  -0.642  0.3225 -1.2806  0.4879
  839MOL0     H10701   1.907   7.598  -0.752  1.0001 -0.6547  0.8404
  839MOL0     H10702   1.920   7.480  -1.004  2.7757  0.4136 -0.9278
  839MOL0     H10703   1.909   7.589  -1.139 -0.3606 -1.2939 -0.2451
  839MOL0     H10704   1.713   7.690  -1.046  3.1766  0.7601  1.7096
  839MOL0     H10705   1.723   7.602  -0.904  3.6147  2.3526  0.6378
  839MOL0     H10706   1.706   7.416  -1.125 -0.1820  1.9437 -3.4170
  839MOL0     H10707   1.608   7.435  -0.975 -1.4881  2.4809  1.3801
  839MOL0     H10708   1.587   7.602  -1.233  0.5066  0.8967  0.2237
  839MOL0     H10709   1.476   7.604  -1.088 -0.0887 -1.3288  0.3879
  839MOL0     H10710   1.380   7.634  -1.343  2.4840  0.5128 -0.9312
  839MOL0     H10711   1.191   7.596  -1.513  1.4855  0.2034 -0.3799
  839MOL0     H10712   1.056   7.175  -1.887 -1.3546 -3.1279  0.2971
  839MOL0     H10713   0.870   7.175  -2.023 -2.1515 -0.5674 -0.5747
  839MOL0     H10714   0.663   7.164  -2.136  0.5504  0.8179 -2.8760
  839MOL0     H10715   0.718   7.344  -2.147 -2.3113  0.3592 -2.6330
  839MOL0     H10716   0.438   7.346  -2.115 -1.2414  0.0125 -1.2768
  839MOL0     H10717   0.463   7.217  -2.225 -3.6397  0.7522  2.5569
  839MOL0     H10718   0.616   7.369  -2.369  0.3170 -2.2132 -0.8336
  839MOL0     H10719   0.586   7.502  -2.241 -0.5566 -0.9846  0.2833
  839MOL0     H10720   0.370   7.394  -2.443 -1.9836  1.9917  0.0454
  839MOL0     H10721   0.350   7.506  -2.309 -0.7808 -1.2698 -0.2663
  839MOL0     H10722   0.494   7.655  -2.404  0.2985 -1.0657  0.5220
  839MOL0     H10723   0.369   7.610  -2.537 -0.1556  0.4873  0.6954
  839MOL0     H10724   0.684   7.551  -2.515 -0.2308 -2.4960  1.4919
  839MOL0     H10725   0.592   7.654  -2.621 -0.5306 -1.1612 -1.2066
  839MOL0     H10726   0.565   7.349  -2.608 -0.1377 -0.1388  1.3788
  839MOL0     H10727   0.474   7.452  -2.722  1.0617 -0.8602 -2.0667
  839MOL0     H10728   0.668   7.528  -2.832 -0.3521 -0.4945 -0.3010
  839MOL0     H10729   0.662   7.354  -2.825  1.8331 -0.7038  1.0307
  839MOL0     H10730   0.609   7.359  -1.736 -1.9731 -4.2609 -0.9397
  839MOL0     H10731   0.794   7.357  -1.575 -0.2146 -1.7796  0.5526
  839MOL0     H10732   1.185   7.183  -1.430 -1.5787  0.0537  2.3686
  839MOL0     H10733   1.345   7.205  -1.279 -0.1389 -1.0757 -0.9385
  839MOL0     H10734   2.192   8.258  -0.172  1.4904 -0.1183  3.3649
  839MOL0     H10735   2.408   8.359  -0.147  0.8317  2.5045  1.0617
  839MOL0     H10736   2.662   8.734  -0.200  1.1389 -0.6670 -0.9789
  839MOL0     H10737   2.879   8.822  -0.164  1.7956  1.0798  0.7867
  839MOL0     H10738   3.054   8.942   0.213 -0.7778 -0.2281  0.2662
  839MOL0     H10739   2.890   8.887   0.198 -0.0576  1.0593 -0.6340
  839MOL0     H10740   2.887   9.010  -0.023  0.9613 -1.3759  0.2174
  839MOL0     H10741   2.917   9.126   0.113 -0.2083 -0.4108 -0.4109
  839MOL0     H10742   3.046   9.187  -0.078  1.0397 -1.3805 -2.3633
  839MOL0     H10743   3.107   9.017  -0.082 -0.4159 -2.3181  2.1377
  839MOL0     H10744   3.228   9.079   0.137  1.3800  1.0044  1.3204
  839MOL0     H10745   3.276   9.161  -0.012 -0.1101  0.6715  1.2977
  839MOL0     H10746   3.155   9.476   0.218 -1.7656  0.1806  0.8122
  839MOL0     H10747   2.920   8.634   0.202  0.9079 -0.5186 -1.6801
  839MOL0     H10748   2.705   8.509   0.175 -0.3314  1.3300  1.9363
  840MOL0     O10749   4.240   8.567   4.076 -0.9006 -0.2044  0.3145
  840MOL0     C10750   4.308   8.559   3.975 -0.0598 -0.1057  0.5787
  840MOL0     O10751   4.267   8.495   3.861 -0.6548  0.4729  0.2940
  840MOL0     C10752   4.131   8.464   3.835  0.7249  0.1287  0.5281
  840MOL0     C10753   4.033   8.561   3.867 -0.0459 -0.9112  0.4960
  840MOL0     C10754   3.896   8.534   3.845 -0.4450  0.6279  0.0002
  840MOL0     C10755   3.850   8.401   3.802  0.1638 -0.8211 -0.6179
  840MOL0     O10756   3.718   8.363   3.777 -0.0588  0.0258 -0.5713
  840MOL0     C10757   3.617   8.439   3.847  0.2837 -0.3692 -0.3609
  840MOL0     C10758   3.488   8.372   3.826  0.3135  0.8216  0.1416
  840MOL0     C10759   3.389   8.459   3.749 -0.4982 -0.0297 -0.8069
  840MOL0     C10760   3.289   8.377   3.668 -0.4319 -0.0940  0.0638
  840MOL0     C10761   3.203   8.477   3.589 -0.5718 -0.4437 -0.3893
  840MOL0     C10762   3.072   8.412   3.550  0.0928  0.4373  0.8666
  840MOL0     C10763   2.967   8.419   3.658 -0.3777 -0.3934  0.7402
  840MOL0     C10764   2.854   8.313   3.641  0.3580 -0.8044 -0.7235
  840MOL0     N10765   2.749   8.339   3.743  0.6735  0.8375  0.6624
  840MOL0     C10766   2.657   8.438   3.743  0.8142  0.1128  0.4151
  840MOL0     C10767   2.612   8.446   3.869 -0.3521  0.2025 -0.0420
  840MOL0     C10768   2.511   8.538   3.925 -0.9924 -0.6145 -0.0760
  840MOL0     C10769   2.396   8.469   3.996 -0.0402 -0.3051  0.3288
  840MOL0     C10770   2.309   8.387   3.902 -0.1623 -0.3693 -1.0506
  840MOL0     C10771   2.195   8.319   3.978  0.2680  0.0948  0.1882
  840MOL0     O10772   2.069   8.383   3.954 -0.1661 -0.5821 -0.0083
  840MOL0     C10773   1.957   8.309   3.979  0.7470  0.2669 -0.8778
  840MOL0     C10774   1.954   8.181   4.028 -0.1768 -0.0699 -0.1633
  840MOL0     C10775   1.833   8.115   4.052 -0.3456  0.4394  0.7477
  840MOL0     C10776   1.713   8.176   4.024  0.1580 -0.2936  0.3551
  840MOL0     C10777   1.585   8.104   4.047  0.3435 -0.5524 -0.6443
  840MOL0     O10778   1.478   8.177   4.052  0.5340 -0.9378 -0.0496
  840MOL0     C10779   1.356   8.118   4.042  0.3539 -0.8490  0.8584
  840MOL0     C10780   1.333   8.004   3.973  0.4288  0.0434 -0.0221
  840MOL0     C10781   1.206   7.942   3.951  0.4893 -0.0082 -0.6253
  840MOL0     C10782   1.100   8.013   4.004 -0.0574 -0.0417 -0.4925
  840MOL0     O10783   0.971   7.965   3.981 -0.6491  0.2201 -0.2792
  840MOL0     C10784   0.936   7.868   4.074  1.3260  0.0108  0.3880
  840MOL0     C10785   0.786   7.831   4.053 -0.0125 -0.2611  0.6835
  840MOL0     C10786   0.764   7.740   3.934 -0.6398 -0.2703 -0.4543
  840MOL0     C10787   0.607   7.710   3.901  0.2031  0.7969  0.1118
  840MOL0     C10788   0.528   7.644   4.013 -0.5140  0.4743  0.6124
  840MOL0     C10789   0.563   7.496   4.023 -0.3545 -0.5811 -0.1347
  840MOL0     C10790   0.620   7.468   4.164 -0.8899 -0.0654  0.0416
  840MOL0     C10791   0.668   7.327   4.204 -0.1667 -0.8996  0.4204
  840MOL0    Cl10792   0.820   7.289   4.118  0.0082  0.0993 -0.7100
  840MOL0     C10793   1.119   8.131   4.071  0.3146 -0.3334  0.2242
  840MOL0     C10794   1.241   8.190   4.090  0.0420 -0.5115 -0.2191
  840MOL0     O10795   1.587   7.991   4.089  0.0799  0.7542 -0.2747
  840MOL0     C10796   1.716   8.301   3.963 -0.3164 -0.4360  0.3871
  840MOL0     C10797   1.838   8.366   3.944 -0.4259 -0.5715  0.0084
  840MOL0     N10798   2.690   8.360   3.951 -0.1104 -0.0739 -0.0178
  840MOL0     N10799   2.772   8.303   3.875  0.0052  0.1668  0.5342
  840MOL0     C10800   3.952   8.312   3.775 -0.4443 -0.0196 -0.2424
  840MOL0     C10801   4.093   8.341   3.784  0.4797  0.4931 -0.2533
  840MOL0     C10802   4.452   8.600   3.987 -0.1623 -1.0122  1.1794
  840MOL0     C10803   4.494   8.686   4.089 -0.3635 -0.0889  0.1338
  840MOL0     C10804   4.627   8.725   4.093 -0.0701 -0.1049 -0.1870
  840MOL0     C10805   4.719   8.680   3.992 -0.3557 -0.2375  0.1834
  840MOL0     O10806   4.857   8.715   3.983  1.3677 -0.2555  0.3243
  840MOL0     C10807   4.911   8.805   4.079  0.7824  0.2023  1.1053
  840MOL0     C10808   5.046   8.871   4.033  0.5432  0.7132 -0.1643
  840MOL0     C10809   5.083   8.983   4.141 -1.5579 -0.9434  0.2174
  840MOL0     C10810   5.228   9.044   4.099  0.9858  0.6222  0.2834
  840MOL0     C10811   5.271   9.148   4.187 -0.2045 -0.6298 -0.7524
  840MOL0     C10812   5.298   9.247   4.256  0.0170  0.3070  0.3591
  840MOL0     C10813   4.671   8.598   3.888  0.5724 -0.3629 -0.9176
  840MOL0     C10814   4.538   8.566   3.885 -0.3676  0.2503 -0.2018
  840MOL0     H10815   4.053   8.660   3.907 -0.7060  0.1122 -1.5584
  840MOL0     H10816   3.831   8.618   3.868 -0.3534  0.2652  1.7895
  840MOL0     H10817   3.621   8.543   3.815  2.1676 -0.3959 -0.3326
  840MOL0     H10818   3.641   8.444   3.954 -5.4344 -1.5599  1.3250
  840MOL0     H10819   3.434   8.360   3.920 -2.2969 -2.8298 -1.6170
  840MOL0     H10820   3.499   8.275   3.778  1.6716  1.0917 -0.1394
  840MOL0     H10821   3.450   8.530   3.692 -0.5017  1.4879  0.9811
  840MOL0     H10822   3.332   8.532   3.808  1.7156  1.3299 -0.2116
  840MOL0     H10823   3.341   8.307   3.602 -1.1635 -0.6558  0.0653
  840MOL0     H10824   3.222   8.324   3.736  0.2249 -0.6002  0.3270
  840MOL0     H10825   3.255   8.509   3.499  1.7196  2.8988  1.8545
  840MOL0     H10826   3.184   8.568   3.647 -1.4417 -0.0923 -1.2064
  840MOL0     H10827   3.102   8.309   3.527  1.5056  0.5513  2.0135
  840MOL0     H10828   3.050   8.463   3.456  4.9499 -1.3005 -1.5501
  840MOL0     H10829   3.012   8.428   3.757 -0.7917  5.2108  0.7047
  840MOL0     H10830   2.922   8.516   3.640  0.0542 -0.1460  0.9886
  840MOL0     H10831   2.889   8.209   3.641 -2.0829 -1.7894 -3.3174
  840MOL0     H10832   2.814   8.321   3.539  3.4503 -0.8683 -2.0636
  840MOL0     H10833   2.611   8.492   3.661  1.8155 -0.8426 -0.8036
  840MOL0     H10834   2.464   8.585   3.838 -0.3023  1.3288  0.5446
  840MOL0     H10835   2.555   8.619   3.983  0.5358 -0.4207 -1.4229
  840MOL0     H10836   2.339   8.541   4.056  0.9883 -1.1151  2.3743
  840MOL0     H10837   2.441   8.394   4.062 -0.7204 -2.9325 -1.9973
  840MOL0     H10838   2.276   8.446   3.816 -0.6747  0.2534 -0.4277
  840MOL0     H10839   2.371   8.307   3.859 -1.6775 -0.7186 -2.7148
  840MOL0     H10840   2.212   8.307   4.085 -0.1683 -1.5921  0.1104
  840MOL0     H10841   2.195   8.220   3.930 -1.8259  1.7644 -3.7542
  840MOL0     H10842   2.040   8.121   4.055 -1.4392 -2.2868 -0.8537
  840MOL0     H10843   1.834   8.013   4.091  1.2539  0.4319  0.7493
  840MOL0     H10844   1.412   7.942   3.933 -1.2061 -1.8023 -0.5186
  840MOL0     H10845   1.190   7.843   3.909 -4.3376 -0.3982  1.4691
  840MOL0     H10846   0.962   7.909   4.172  0.0182  0.8139  0.4336
  840MOL0     H10847   1.001   7.785   4.047  0.8344 -0.3008  0.1460
  840MOL0     H10848   0.720   7.917   4.035 -0.5216 -0.1346  2.9461
  840MOL0     H10849   0.748   7.781   4.143  2.5654 -1.9483  0.9399
  840MOL0     H10850   0.801   7.644   3.970 -3.4125 -0.1380  3.2707
  840MOL0     H10851   0.818   7.783   3.849 -0.4145  1.0168  0.3117
  840MOL0     H10852   0.565   7.805   3.866 -3.4913 -1.0955 -1.0240
  840MOL0     H10853   0.601   7.641   3.816 -0.4299  0.4100  0.4656
  840MOL0     H10854   0.422   7.656   3.988 -0.6451  2.1757  1.7719
  840MOL0     H10855   0.540   7.698   4.107  1.8241  0.1377  0.5672
  840MOL0     H10856   0.632   7.459   3.947  0.8938 -0.9052  1.1054
  840MOL0     H10857   0.467   7.447   4.005 -2.2142  1.1371  3.9204
  840MOL0     H10858   0.705   7.537   4.165  0.0123 -1.0071 -2.4819
  840MOL0     H10859   0.552   7.509   4.239  0.4474 -0.8354  1.7442
  840MOL0     H10860   0.595   7.248   4.186 -0.8277 -0.3045  0.4109
  840MOL0     H10861   0.689   7.342   4.310 -0.9893  2.4885  0.2405
  840MOL0     H10862   1.031   8.151   4.132  0.8037 -2.3723  1.6924
  840MOL0     H10863   1.268   8.280   4.144  3.2838 -0.6190 -1.4305
  840MOL0     H10864   1.627   8.348   3.923  1.6905  3.4732  0.0811
  840MOL0     H10865   1.849   8.467   3.906 -0.4828 -0.2149  0.9082
  840MOL0     H10866   3.928   8.209   3.750 -1.5127 -0.2089  1.3949
  840MOL0     H10867   4.174   8.274   3.759 -0.1036  0.2339 -1.5761
  840MOL0     H10868   4.437   8.714   4.177  0.2197 -0.2255  0.5694
  840MOL0     H10869   4.664   8.797   4.165 -0.1524 -0.4601  0.2083
  840MOL0     H10870   4.932   8.739   4.164 -0.3592 -0.9784  0.5137
  840MOL0     H10871   4.843   8.883   4.114 -0.3671 -0.6477  0.8291
  840MOL0     H10872   5.124   8.795   4.026  0.0626  0.2272 -0.3484
  840MOL0     H10873   5.042   8.929   3.941 -0.7726 -2.4142 -2.2748
  840MOL0     H10874   5.086   8.949   4.244  1.0297  0.2399  0.6156
  840MOL0     H10875   5.021   9.073   4.139  0.5271  0.5915 -1.5732
  840MOL0     H10876   5.302   8.963   4.107  1.4334  0.8646 -1.1124
  840MOL0     H10877   5.220   9.079   3.995 -1.6419 -0.5016  0.0415
  840MOL0     H10878   5.353   9.316   4.317 -1.3493  0.1568  1.8183
  840MOL0     H10879   4.743   8.558   3.817 -2.4429 -5.7182 -1.4482
  840MOL0     H10880   4.511   8.488   3.815 -2.6350 -0.1310  0.9852
  841MOL0     O10881   0.888   2.034   8.789 -0.4834  0.7631  0.3603
  841MOL0     C10882   0.934   2.129   8.851 -0.1924 -0.0543  0.0685
  841MOL0     O10883   0.853   2.245   8.880  0.1305  0.7326  0.1711
  841MOL0     C10884   0.724   2.241   8.833  0.4318  0.3662 -0.5951
  841MOL0     C10885   0.683   2.230   8.699 -0.0765 -1.1855  0.4753
  841MOL0     C10886   0.553   2.223   8.666  1.0113 -0.5937 -0.6434
  841MOL0     C10887   0.456   2.229   8.765 -0.3426  0.6511  0.3348
  841MOL0     O10888   0.323   2.209   8.722 -0.1744  0.2614  0.0561
  841MOL0     C10889   0.227   2.171   8.820 -0.2155 -0.0868  0.4372
  841MOL0     C10890   0.101   2.132   8.738  0.0501  0.0802 -1.2139
  841MOL0     C10891  -0.016   2.102   8.831 -0.2860 -0.9638  0.2556
  841MOL0     C10892  -0.143   2.045   8.763  0.5336 -0.1349  0.4031
  841MOL0     C10893  -0.237   1.969   8.853 -0.4729 -0.1632  0.6110
  841MOL0     C10894  -0.366   1.919   8.784  0.6979  0.3024  0.4327
  841MOL0     C10895  -0.344   1.796   8.680  0.2143 -0.0895  0.2588
  841MOL0     C10896  -0.475   1.737   8.623 -0.1634 -0.5119 -0.3277
  841MOL0     N10897  -0.568   1.678   8.725  0.0817 -0.1829 -0.1994
  841MOL0     C10898  -0.553   1.562   8.782  0.0811  0.7724 -0.4114
  841MOL0     C10899  -0.655   1.545   8.870  0.4057 -0.4370  0.3638
  841MOL0     C10900  -0.660   1.412   8.943  0.4979 -0.6157  0.9142
  841MOL0     C10901  -0.545   1.393   9.049 -0.7454  0.1817  0.2087
  841MOL0     C10902  -0.561   1.478   9.176 -0.3325  0.1206  0.3326
  841MOL0     C10903  -0.436   1.463   9.263  0.6858  0.6073 -0.4860
  841MOL0     O10904  -0.372   1.334   9.256  0.0672 -0.1217  0.8132
  841MOL0     C10905  -0.252   1.330   9.311 -0.3449 -0.3053  0.5054
  841MOL0     C10906  -0.178   1.212   9.286 -0.0752 -0.0461  0.5058
  841MOL0     C10907  -0.050   1.189   9.335 -0.3191 -0.6091 -0.0231
  841MOL0     C10908   0.024   1.288   9.395 -0.0417 -0.7668  0.2671
  841MOL0     C10909   0.161   1.279   9.437 -0.4310 -0.3633  0.2076
  841MOL0     O10910   0.219   1.383   9.499 -0.2657 -0.1811  0.2733
  841MOL0     C10911   0.352   1.387   9.540  0.5617 -0.6780 -0.4709
  841MOL0     C10912   0.439   1.281   9.560  0.2224  0.0131  0.7290
  841MOL0     C10913   0.568   1.306   9.595  0.2582  0.1489 -0.2639
  841MOL0     C10914   0.618   1.433   9.614  0.4712  0.1561  0.2522
  841MOL0     O10915   0.756   1.444   9.651  0.0620  0.5210  0.8583
  841MOL0     C10916   0.781   1.536   9.752  0.9775 -0.7977  0.0146
  841MOL0     C10917   0.918   1.507   9.822 -0.2489  0.4672  0.3811
  841MOL0     C10918   1.036   1.520   9.738  0.6814 -0.5855  0.0054
  841MOL0     C10919   1.054   1.648   9.659 -0.1179  0.4873 -0.0588
  841MOL0     C10920   1.199   1.667   9.628 -0.9094  0.0472  0.5087
  841MOL0     C10921   1.266   1.558   9.545  0.3440 -0.0582  0.3265
  841MOL0     C10922   1.188   1.513   9.419 -0.5042  0.1641  0.2559
  841MOL0     C10923   1.287   1.440   9.327 -0.1882  0.6245 -0.2729
  841MOL0    Cl10924   1.358   1.285   9.390 -0.0712  0.1624 -0.3555
  841MOL0     C10925   0.529   1.540   9.596 -0.5954 -0.3502 -1.2761
  841MOL0     C10926   0.402   1.514   9.560 -0.2424 -0.9234  0.9239
  841MOL0     O10927   0.214   1.173   9.403 -0.3371 -0.5815 -0.7724
  841MOL0     C10928  -0.044   1.402   9.423  0.5612  0.2870 -0.6463
  841MOL0     C10929  -0.184   1.429   9.384 -1.3698 -0.7989  0.1376
  841MOL0     N10930  -0.741   1.652   8.853  0.9917  0.0529 -0.6589
  841MOL0     N10931  -0.677   1.736   8.780 -0.3165 -0.2936 -0.1143
  841MOL0     C10932   0.494   2.218   8.905 -0.2859  1.2082 -0.2444
  841MOL0     C10933   0.628   2.228   8.933 -0.4005  1.0390  0.1317
  841MOL0     C10934   1.073   2.132   8.907  0.2805  0.7866  0.2891
  841MOL0     C10935   1.172   2.051   8.849  0.1381 -0.5853  0.3563
  841MOL0     C10936   1.302   2.054   8.889 -0.7190  0.0933  0.0350
  841MOL0     C10937   1.346   2.145   8.986  0.4831 -0.7225 -0.6215
  841MOL0     O10938   1.481   2.130   9.014 -0.7855  0.1364  0.7445
  841MOL0     C10939   1.531   2.237   9.097 -0.0170  0.5880  0.2642
  841MOL0     C10940   1.683   2.212   9.111 -0.3939  0.2534 -0.1299
  841MOL0     C10941   1.753   2.238   8.972  0.4082  0.1565  0.5230
  841MOL0     C10942   1.904   2.224   8.983 -0.5999 -0.4668  0.5171
  841MOL0     C10943   1.973   2.279   8.860 -0.9036  0.1171 -0.4285
  841MOL0     C10944   2.021   2.341   8.765  0.0664  0.0585 -0.2305
  841MOL0     C10945   1.249   2.235   9.038 -0.3854  0.2474  0.0599
  841MOL0     C10946   1.120   2.232   8.986 -0.3395  0.2862 -0.0750
  841MOL0     H10947   0.751   2.232   8.615  0.6471  0.3101  1.0519
  841MOL0     H10948   0.514   2.209   8.566 -1.5154 -2.0223  0.4518
  841MOL0     H10949   0.205   2.244   8.898 -3.1549 -1.1817  0.7720
  841MOL0     H10950   0.251   2.077   8.872 -3.9343 -0.3836  2.0129
  841MOL0     H10951   0.121   2.052   8.666 -0.6075 -2.0310  0.8232
  841MOL0     H10952   0.074   2.224   8.684  1.1269  0.6775 -0.7832
  841MOL0     H10953  -0.036   2.196   8.883  0.1196  0.1615 -1.5547
  841MOL0     H10954   0.017   2.030   8.907 -1.3802 -2.6950 -0.8489
  841MOL0     H10955  -0.189   2.135   8.720  0.8329  0.0057  0.3744
  841MOL0     H10956  -0.125   1.979   8.678 -3.2922 -0.4771 -0.3615
  841MOL0     H10957  -0.265   2.050   8.922  0.2974  2.0277 -1.5263
  841MOL0     H10958  -0.193   1.882   8.903 -3.2919 -2.9438 -1.4001
  841MOL0     H10959  -0.425   1.998   8.735 -0.2463 -0.4460  0.3230
  841MOL0     H10960  -0.424   1.879   8.867 -2.1382  3.4042  0.1672
  841MOL0     H10961  -0.281   1.832   8.598 -1.4314  4.0666  0.5719
  841MOL0     H10962  -0.296   1.719   8.741  1.5860  0.8176  0.3695
  841MOL0     H10963  -0.451   1.654   8.555 -0.1498 -2.1570  1.5673
  841MOL0     H10964  -0.528   1.822   8.581 -1.5122  1.6797  4.9590
  841MOL0     H10965  -0.484   1.481   8.758  0.8161  1.2842 -0.0536
  841MOL0     H10966  -0.653   1.324   8.878 -1.1329 -1.0761  1.3322
  841MOL0     H10967  -0.751   1.398   9.001  0.3782 -2.5700  0.3272
  841MOL0     H10968  -0.449   1.409   8.998  0.1270 -1.6051  1.1979
  841MOL0     H10969  -0.546   1.294   9.096  0.0255  0.8254  1.6661
  841MOL0     H10970  -0.567   1.581   9.138 -2.3411  0.7576  2.2071
  841MOL0     H10971  -0.645   1.457   9.243 -1.4867 -1.8358 -1.6085
  841MOL0     H10972  -0.472   1.475   9.365 -0.6478 -1.8509 -0.6048
  841MOL0     H10973  -0.360   1.538   9.238  2.4078 -0.7769  0.3336
  841MOL0     H10974  -0.222   1.141   9.218  1.7885 -1.4228  0.6557
  841MOL0     H10975  -0.004   1.092   9.320  0.6783  0.0931 -1.8694
  841MOL0     H10976   0.410   1.179   9.535  0.1567 -0.2114  1.6952
  841MOL0     H10977   0.634   1.222   9.611  1.4263  0.6256 -2.1410
  841MOL0     H10978   0.700   1.548   9.825  0.8093 -0.6948 -0.1872
  841MOL0     H10979   0.786   1.635   9.705 -1.2401 -1.1534 -1.1162
  841MOL0     H10980   0.912   1.408   9.870 -2.5665  1.6741  2.7945
  841MOL0     H10981   0.935   1.584   9.897  2.3903  1.8236 -1.4132
  841MOL0     H10982   1.045   1.445   9.658 -1.1407 -0.2650 -0.5642
  841MOL0     H10983   1.120   1.499   9.804 -2.2352 -2.9966  3.3427
  841MOL0     H10984   0.996   1.647   9.567  0.2680 -1.1146 -0.3182
  841MOL0     H10985   1.017   1.734   9.714 -1.3998  1.4475 -2.2954
  841MOL0     H10986   1.259   1.679   9.719 -1.3461 -3.7145  1.4558
  841MOL0     H10987   1.210   1.761   9.572  0.7652 -0.1820  0.4087
  841MOL0     H10988   1.298   1.469   9.600  0.3789  0.4200  1.0968
  841MOL0     H10989   1.365   1.601   9.526  2.5224 -3.7425  2.0439
  841MOL0     H10990   1.118   1.435   9.450 -0.4090  0.8629  2.4091
  841MOL0     H10991   1.138   1.591   9.362 -1.1641 -2.8667 -3.7925
  841MOL0     H10992   1.374   1.503   9.309  0.1640  0.8115  1.8013
  841MOL0     H10993   1.251   1.425   9.224  3.3731 -3.5618 -1.1940
  841MOL0     H10994   0.566   1.642   9.597  0.6149 -0.7667 -0.9247
  841MOL0     H10995   0.333   1.591   9.527  1.0907  0.0399  0.3311
  841MOL0     H10996  -0.002   1.487   9.476 -1.4075 -0.4649  2.3098
  841MOL0     H10997  -0.225   1.527   9.408  2.1092  0.4568  1.5957
  841MOL0     H10998   0.414   2.201   8.976 -1.1407 -1.0398 -1.6473
  841MOL0     H10999   0.660   2.209   9.035 -0.2970  2.4936  0.3953
  841MOL0     H11000   1.151   1.980   8.769  1.5927 -0.2448 -0.3608
  841MOL0     H11001   1.375   1.985   8.847  0.1306  1.9239 -1.6484
  841MOL0     H11002   1.477   2.236   9.191  0.8085  1.4391  0.7643
  841MOL0     H11003   1.505   2.333   9.051 -1.5575 -0.4453 -1.1737
  841MOL0     H11004   1.730   2.280   9.182  0.2474 -1.3679  1.0397
  841MOL0     H11005   1.692   2.108   9.142 -1.1421  0.1563 -0.2204
  841MOL0     H11006   1.733   2.334   8.923  1.9553  0.7467  0.9861
  841MOL0     H11007   1.716   2.153   8.913  2.3318 -2.1703  2.4552
  841MOL0     H11008   1.941   2.286   9.066 -0.8723 -2.1362  1.9498
  841MOL0     H11009   1.935   2.120   8.991  3.3117  0.4446 -0.3603
  841MOL0     H11010   2.051   2.405   8.685  0.0229  2.0706  1.2844
  841MOL0     H11011   1.268   2.313   9.111 -2.1114 -0.5279  1.4194
  841MOL0     H11012   1.050   2.312   9.010  1.1373  1.2180  1.3134
  842MOL0     O11013   0.296   4.071   5.598  0.3985 -0.5217 -0.1848
  842MOL0     C11014   0.342   4.078   5.484 -1.2469  1.2058 -0.4606
  842MOL0     O11015   0.275   4.065   5.366  0.4882  0.3088  0.1203
  842MOL0     C11016   0.142   4.025   5.364  0.4822  0.3181  0.1575
  842MOL0     C11017   0.110   3.946   5.254 -0.9457 -0.3682  0.0206
  842MOL0     C11018  -0.023   3.902   5.217  0.2366  0.2541 -0.1270
  842MOL0     C11019  -0.132   3.954   5.288 -0.0054  0.5803  0.3849
  842MOL0     O11020  -0.264   3.935   5.245 -0.6284 -0.5392 -0.1185
  842MOL0     C11021  -0.309   3.804   5.217 -0.2300 -0.0515 -0.1866
  842MOL0     C11022  -0.432   3.793   5.125  0.1373 -0.1466 -0.9398
  842MOL0     C11023  -0.563   3.818   5.207 -0.1114 -0.5556 -0.1587
  842MOL0     C11024  -0.688   3.819   5.109 -0.2566  0.1448  0.0981
  842MOL0     C11025  -0.822   3.845   5.193  0.4355 -0.3548 -0.3637
  842MOL0     C11026  -0.948   3.851   5.101  0.4724 -0.0236 -0.1765
  842MOL0     C11027  -1.090   3.857   5.160  0.5557  0.1779 -0.8463
  842MOL0     C11028  -1.123   4.006   5.202 -0.1604 -0.0027 -0.1734
  842MOL0     N11029  -1.189   4.089   5.105  0.4760 -0.1380 -0.3330
  842MOL0     C11030  -1.319   4.144   5.120  0.5131  0.5677 -0.6698
  842MOL0     C11031  -1.346   4.214   5.012 -0.8572 -0.0575 -0.1886
  842MOL0     C11032  -1.464   4.305   4.984  0.2116 -0.0593  0.2487
  842MOL0     C11033  -1.572   4.241   4.905  0.8636  0.4906 -0.5288
  842MOL0     C11034  -1.517   4.165   4.783  0.8996  0.0821  0.8837
  842MOL0     C11035  -1.625   4.081   4.707 -0.3939  0.6617  0.3871
  842MOL0     O11036  -1.709   4.006   4.798 -0.0588  0.4985 -0.2438
  842MOL0     C11037  -1.817   3.943   4.739  0.4994  0.0154 -0.6501
  842MOL0     C11038  -1.936   3.918   4.816 -1.0142  0.8173  0.2950
  842MOL0     C11039  -2.034   3.846   4.755  0.1728 -0.2363 -0.4143
  842MOL0     C11040  -2.029   3.787   4.626 -0.1729  0.3753 -0.1206
  842MOL0     C11041  -2.146   3.708   4.574 -0.0299  0.2201  0.2479
  842MOL0     O11042  -2.259   3.718   4.643 -0.2294 -0.8865  0.1182
  842MOL0     C11043  -2.393   3.701   4.597 -0.2095  0.0333 -0.5094
  842MOL0     C11044  -2.492   3.796   4.633  0.9524  0.1326  0.7872
  842MOL0     C11045  -2.618   3.784   4.590  0.9953  0.0442  0.1463
  842MOL0     C11046  -2.655   3.680   4.502  0.0885 -0.2110 -0.2099
  842MOL0     O11047  -2.777   3.664   4.447  0.4935 -0.1310 -0.1269
  842MOL0     C11048  -2.887   3.755   4.479  0.5625  0.0819  0.7901
  842MOL0     C11049  -2.998   3.720   4.377  0.3624  0.0045 -0.0662
  842MOL0     C11050  -3.123   3.812   4.401  0.0726 -0.1043  1.0888
  842MOL0     C11051  -3.233   3.806   4.284  0.0366 -0.3838 -1.0527
  842MOL0     C11052  -3.365   3.870   4.344 -0.1073  0.5831  0.1771
  842MOL0     C11053  -3.479   3.853   4.253 -0.9832 -0.7172  0.3697
  842MOL0     C11054  -3.616   3.880   4.333  0.5158 -0.1510  0.5832
  842MOL0     C11055  -3.735   3.834   4.245  0.0512  0.1938 -0.1470
  842MOL0    Cl11056  -3.892   3.862   4.316  0.1709 -0.1181  0.0067
  842MOL0     C11057  -2.559   3.593   4.458  0.2099  0.2682 -0.2199
  842MOL0     C11058  -2.431   3.595   4.516 -0.5866 -1.1775  0.4843
  842MOL0     O11059  -2.130   3.645   4.469 -0.5246 -0.8365  0.6452
  842MOL0     C11060  -1.924   3.820   4.547  0.2092  0.1104  0.7745
  842MOL0     C11061  -1.818   3.894   4.604  0.3168 -0.0643  0.0657
  842MOL0     N11062  -1.232   4.213   4.936 -0.3238 -0.7030  0.9832
  842MOL0     N11063  -1.152   4.130   4.985 -0.5894  0.1889  0.3806
  842MOL0     C11064  -0.109   4.038   5.395  0.7590 -0.0949  0.7404
  842MOL0     C11065   0.025   4.070   5.437 -0.5534 -0.8395 -0.3500
  842MOL0     C11066   0.486   4.099   5.467  0.0204  0.4214  0.3484
  842MOL0     C11067   0.556   4.113   5.349 -0.1665 -0.0046  0.3644
  842MOL0     C11068   0.693   4.124   5.350 -0.3771  0.4106 -0.9653
  842MOL0     C11069   0.769   4.136   5.461  0.3736  0.0350  0.0025
  842MOL0     O11070   0.904   4.143   5.436  0.2292  1.1707 -0.8530
  842MOL0     C11071   0.988   4.169   5.544  0.0807  0.2599  0.4760
  842MOL0     C11072   1.113   4.108   5.512  0.0136 -1.1911 -0.2634
  842MOL0     C11073   1.209   4.206   5.440  0.1906  0.4458 -0.1210
  842MOL0     C11074   1.342   4.126   5.414  0.4875  0.4458  0.4220
  842MOL0     C11075   1.437   4.221   5.368 -0.3860 -0.4959  0.3765
  842MOL0     C11076   1.515   4.293   5.321  0.7155 -0.0391  0.4057
  842MOL0     C11077   0.697   4.129   5.582 -0.3041  0.1071  0.2618
  842MOL0     C11078   0.560   4.111   5.582 -0.3008  0.1151 -1.2672
  842MOL0     H11079   0.198   3.912   5.200  1.6830  4.1801  0.8671
  842MOL0     H11080  -0.039   3.828   5.139 -1.6144  0.9035 -0.4196
  842MOL0     H11081  -0.333   3.735   5.298  0.1154 -2.1069 -1.7585
  842MOL0     H11082  -0.229   3.755   5.161  0.9013  1.9872 -0.4498
  842MOL0     H11083  -0.434   3.687   5.099  0.9732 -0.7171  1.1288
  842MOL0     H11084  -0.415   3.861   5.041  2.1468  0.5084 -0.0522
  842MOL0     H11085  -0.556   3.921   5.243 -1.4395  0.5927 -2.8793
  842MOL0     H11086  -0.570   3.750   5.293 -0.0585 -2.7037 -1.7804
  842MOL0     H11087  -0.678   3.890   5.027  1.0157  0.1002  0.1903
  842MOL0     H11088  -0.691   3.715   5.076 -0.0531  0.3253 -0.4883
  842MOL0     H11089  -0.808   3.946   5.233  1.6214  0.7623 -3.3204
  842MOL0     H11090  -0.832   3.775   5.277  2.6306 -1.6936 -1.1326
  842MOL0     H11091  -0.953   3.769   5.029  0.5883  0.1869 -0.4262
  842MOL0     H11092  -0.934   3.940   5.038 -0.4478  0.1610 -0.1358
  842MOL0     H11093  -1.158   3.813   5.087  1.4123 -0.4545 -1.2831
  842MOL0     H11094  -1.099   3.794   5.248  0.4096  0.8640 -0.3595
  842MOL0     H11095  -1.035   4.055   5.243 -1.2342  2.0694 -0.1964
  842MOL0     H11096  -1.197   4.000   5.283  0.3817 -0.1893  0.3189
  842MOL0     H11097  -1.391   4.121   5.198  0.7910  2.6787  0.2884
  842MOL0     H11098  -1.441   4.376   4.904 -0.2059 -1.4531 -1.1672
  842MOL0     H11099  -1.495   4.356   5.075 -1.2085  1.7694 -1.1955
  842MOL0     H11100  -1.655   4.310   4.887  0.2303  1.5048  4.5984
  842MOL0     H11101  -1.619   4.168   4.973 -1.3725  1.7807 -0.6001
  842MOL0     H11102  -1.450   4.227   4.723  2.5516 -0.0098  2.5245
  842MOL0     H11103  -1.450   4.089   4.823  2.4384 -0.4569 -2.4019
  842MOL0     H11104  -1.571   4.016   4.638 -2.0438  0.4336 -0.7478
  842MOL0     H11105  -1.689   4.143   4.645 -1.5716  1.8366  2.6508
  842MOL0     H11106  -1.937   3.958   4.917  1.0272 -2.0607  1.5745
  842MOL0     H11107  -2.118   3.809   4.813 -0.3540  1.0166 -0.3313
  842MOL0     H11108  -2.459   3.872   4.703  0.9750 -0.1340  1.0681
  842MOL0     H11109  -2.692   3.846   4.641  0.8191 -0.5787  0.6542
  842MOL0     H11110  -2.850   3.854   4.451 -1.0991  0.7562  0.8567
  842MOL0     H11111  -2.921   3.754   4.583  1.8883 -0.2153  1.2380
  842MOL0     H11112  -3.044   3.621   4.379  0.6072 -0.0976  1.6314
  842MOL0     H11113  -2.956   3.733   4.277 -2.4558  1.9852 -1.1179
  842MOL0     H11114  -3.088   3.915   4.398 -0.2712  0.0044  0.8530
  842MOL0     H11115  -3.170   3.790   4.498  0.8241 -0.0738  1.4713
  842MOL0     H11116  -3.209   3.853   4.189  1.6807 -1.0352 -0.9910
  842MOL0     H11117  -3.261   3.705   4.252 -2.6189  0.0481 -0.3462
  842MOL0     H11118  -3.354   3.976   4.369 -3.0340  0.4898  2.5508
  842MOL0     H11119  -3.396   3.812   4.432 -1.5073  2.2028  0.8087
  842MOL0     H11120  -3.472   3.751   4.214 -0.5302 -0.1597 -1.0490
  842MOL0     H11121  -3.474   3.926   4.172 -0.9031 -0.8250  0.2790
  842MOL0     H11122  -3.631   3.821   4.424  0.4667 -1.1816 -0.0892
  842MOL0     H11123  -3.610   3.987   4.356  2.0305 -0.0910  0.0415
  842MOL0     H11124  -3.722   3.727   4.228 -1.0834 -0.4808  2.7347
  842MOL0     H11125  -3.733   3.890   4.150  1.3019 -0.3959 -0.4839
  842MOL0     H11126  -2.574   3.518   4.380  1.4677 -0.7371  0.4660
  842MOL0     H11127  -2.357   3.520   4.489 -0.7450 -0.3974 -2.5775
  842MOL0     H11128  -1.918   3.773   4.450 -0.1352  1.9409 -0.1715
  842MOL0     H11129  -1.736   3.903   4.533 -0.7290 -1.9567 -1.4685
  842MOL0     H11130  -0.198   4.067   5.451 -1.2430 -4.2867  0.1492
  842MOL0     H11131   0.040   4.153   5.505  0.5773  0.0994 -1.6685
  842MOL0     H11132   0.513   4.101   5.250 -1.9758 -0.6194  1.2000
  842MOL0     H11133   0.752   4.114   5.260  0.0586 -0.6320 -0.5704
  842MOL0     H11134   0.953   4.107   5.628  0.9107  0.7794  1.2214
  842MOL0     H11135   0.990   4.271   5.582  0.8649  0.0714  0.9736
  842MOL0     H11136   1.159   4.073   5.605  2.8358  3.2003  0.2539
  842MOL0     H11137   1.102   4.023   5.443  0.5030  1.1099 -3.3692
  842MOL0     H11138   1.223   4.292   5.507 -0.4777 -1.7585  3.0817
  842MOL0     H11139   1.168   4.231   5.342  0.0552 -1.2661 -0.5408
  842MOL0     H11140   1.368   4.080   5.509 -3.0958  1.6676  2.1642
  842MOL0     H11141   1.330   4.040   5.347 -0.5730 -0.3968  1.6479
  842MOL0     H11142   1.583   4.357   5.268  1.2682 -1.4969 -0.7297
  842MOL0     H11143   0.753   4.126   5.674 -0.0448 -0.5145  0.0910
  842MOL0     H11144   0.507   4.112   5.677  2.1351  0.9886  0.1565
  843MOL0     O11145   4.715   4.779  11.015  0.5342  0.3425  0.3226
  843MOL0     C11146   4.747   4.743  11.123 -0.1213  0.2434  0.0919
  843MOL0     O11147   4.679   4.649  11.194  0.4941 -0.5400 -0.8289
  843MOL0     C11148   4.573   4.577  11.141 -0.2956  0.0777  0.9752
  843MOL0     C11149   4.584   4.504  11.022  0.5221  0.3150  0.3929
  843MOL0     C11150   4.480   4.421  10.978  0.2946  0.0609  0.9538
  843MOL0     C11151   4.352   4.416  11.045 -0.6305 -0.2043  0.5463
  843MOL0     O11152   4.243   4.337  11.006 -0.1017 -1.2191 -0.4482
  843MOL0     C11153   4.133   4.429  10.970 -0.4765 -0.1718 -0.0460
  843MOL0     C11154   4.048   4.351  10.862  0.5846 -0.2907  0.5778
  843MOL0     C11155   3.925   4.434  10.832  0.0645 -0.4104  0.3616
  843MOL0     C11156   3.856   4.402  10.703 -0.0118  0.0637  1.2077
  843MOL0     C11157   3.709   4.429  10.669 -0.3649  0.4873  0.3091
  843MOL0     C11158   3.674   4.579  10.641 -0.6928 -0.1406  0.5147
  843MOL0     C11159   3.531   4.595  10.613  0.4688 -0.4729 -0.9741
  843MOL0     C11160   3.440   4.567  10.731 -1.0334 -0.3534 -0.2193
  843MOL0     N11161   3.292   4.574  10.715  0.8233 -0.4245  0.2047
  843MOL0     C11162   3.223   4.482  10.648  0.5591 -0.1019  0.3323
  843MOL0     C11163   3.094   4.491  10.697 -0.1854 -0.6205 -0.1315
  843MOL0     C11164   2.975   4.414  10.650  0.4300  1.2738 -0.0125
  843MOL0     C11165   2.890   4.358  10.762 -0.1624  0.0016 -0.2081
  843MOL0     C11166   2.809   4.247  10.706  0.7352 -0.0307 -0.5334
  843MOL0     C11167   2.715   4.179  10.803 -0.0054 -0.1268  0.7896
  843MOL0     O11168   2.654   4.066  10.737 -0.3867 -0.0639 -0.0511
  843MOL0     C11169   2.565   3.988  10.814 -1.3239  0.2488  0.4100
  843MOL0     C11170   2.544   3.999  10.950 -0.4499 -0.9905  0.0828
  843MOL0     C11171   2.449   3.922  11.012  1.2852 -0.1229 -0.2798
  843MOL0     C11172   2.379   3.825  10.939  0.0677 -0.9156  0.3678
  843MOL0     C11173   2.285   3.725  11.002  0.6191  0.6273  0.2901
  843MOL0     O11174   2.240   3.632  10.916 -0.1806 -0.6071  0.8203
  843MOL0     C11175   2.145   3.543  10.949  0.4271  0.4700  0.3023
  843MOL0     C11176   2.011   3.570  10.994  0.1144  0.1532  0.2062
  843MOL0     C11177   1.918   3.471  11.026  0.1916 -0.3256 -0.2759
  843MOL0     C11178   1.945   3.342  10.984 -0.0447 -0.2442  0.9147
  843MOL0     O11179   1.838   3.257  10.996  0.4310 -0.5713 -0.8391
  843MOL0     C11180   1.863   3.114  10.998  0.1143 -0.6544  1.2610
  843MOL0     C11181   1.726   3.053  10.976 -1.1321  0.4241 -0.1706
  843MOL0     C11182   1.628   3.084  11.093  0.2392  0.4573 -1.3350
  843MOL0     C11183   1.488   3.027  11.052  0.2567  0.1340 -0.4666
  843MOL0     C11184   1.379   3.050  11.154 -0.7229 -0.7259 -0.3901
  843MOL0     C11185   1.246   3.000  11.105 -1.0879 -0.0288  0.5004
  843MOL0     C11186   1.150   3.002  11.223  0.6550  0.1785 -0.2216
  843MOL0     C11187   1.015   2.949  11.186 -0.8304 -0.3142 -0.4542
  843MOL0    Cl11188   0.918   2.909  11.329 -0.4207 -0.2436  0.3412
  843MOL0     C11189   2.071   3.309  10.926  0.0058 -0.1350 -0.4877
  843MOL0     C11190   2.176   3.411  10.917 -0.0763  0.5981 -0.1415
  843MOL0     O11191   2.254   3.731  11.121  0.6599 -0.1443  0.5729
  843MOL0     C11192   2.396   3.825  10.795  0.7210  0.5020  0.5177
  843MOL0     C11193   2.491   3.898  10.745 -0.6962 -0.9643 -0.1857
  843MOL0     N11194   3.095   4.592  10.799  0.6061  0.4910  0.0021
  843MOL0     N11195   3.218   4.641  10.807  0.7386 -0.3828  0.5935
  843MOL0     C11196   4.348   4.492  11.168  0.2022 -0.5960 -0.2249
  843MOL0     C11197   4.452   4.569  11.217 -0.4010 -0.4072  0.7834
  843MOL0     C11198   4.885   4.788  11.174  0.3384 -0.1947 -0.2612
  843MOL0     C11199   4.915   4.783  11.314 -0.4184  1.1036 -0.6109
  843MOL0     C11200   5.046   4.820  11.360 -0.6305  1.3392  0.4457
  843MOL0     C11201   5.152   4.836  11.272 -0.0252 -0.5023  0.2366
  843MOL0     O11202   5.274   4.882  11.321  0.1886  0.1413 -0.2947
  843MOL0     C11203   5.381   4.872  11.230 -0.2066 -0.2569  0.7704
  843MOL0     C11204   5.519   4.882  11.284 -0.2701 -0.1199 -0.3698
  843MOL0     C11205   5.545   5.021  11.335 -0.5081  0.0797  0.3431
  843MOL0     C11206   5.680   5.025  11.402 -0.8642 -0.8140  0.1367
  843MOL0     C11207   5.798   5.022  11.301 -0.5643 -0.8874 -0.1395
  843MOL0     C11208   5.889   5.025  11.214  1.4948  0.1242 -0.6526
  843MOL0     C11209   5.120   4.846  11.134 -0.6778  0.6935  0.1816
  843MOL0     C11210   4.987   4.816  11.089  0.2607 -0.0101 -0.0272
  843MOL0     H11211   4.681   4.494  10.975 -0.3952  1.2907 -1.8274
  843MOL0     H11212   4.499   4.366  10.886  0.0949 -0.3653  1.1663
  843MOL0     H11213   4.176   4.523  10.935  0.9193  0.3649  2.7598
  843MOL0     H11214   4.074   4.464  11.055 -2.7436 -1.0826 -1.1506
  843MOL0     H11215   4.016   4.252  10.894  0.0009 -0.1519  0.4297
  843MOL0     H11216   4.115   4.334  10.777 -1.4285 -1.5623 -0.8460
  843MOL0     H11217   3.957   4.538  10.832 -0.6018 -0.1754  2.2683
  843MOL0     H11218   3.850   4.430  10.912 -1.1757  0.5288 -0.7029
  843MOL0     H11219   3.927   4.440  10.628  0.7749 -4.6873 -0.8853
  843MOL0     H11220   3.863   4.294  10.686 -0.5031  0.0908  0.7983
  843MOL0     H11221   3.649   4.397  10.754  1.3013 -0.4515  1.1870
  843MOL0     H11222   3.683   4.368  10.582  0.1136 -1.8650  1.7332
  843MOL0     H11223   3.713   4.608  10.543 -0.7035 -4.7561 -1.0663
  843MOL0     H11224   3.710   4.651  10.715 -0.8828  1.5299 -0.9356
  843MOL0     H11225   3.510   4.697  10.580  0.0333  0.1358  1.0601
  843MOL0     H11226   3.507   4.519  10.537 -0.1358 -2.9194  1.5216
  843MOL0     H11227   3.476   4.637  10.807  0.7655 -1.7245  0.2437
  843MOL0     H11228   3.462   4.464  10.760  0.3764  0.8126  3.4114
  843MOL0     H11229   3.267   4.409  10.582 -0.3568 -1.1673  0.8726
  843MOL0     H11230   3.021   4.331  10.595  0.2930 -1.6434  3.7924
  843MOL0     H11231   2.921   4.480  10.583 -1.3636 -0.7119 -0.6305
  843MOL0     H11232   2.823   4.436  10.799 -3.2653 -2.9092  0.8040
  843MOL0     H11233   2.957   4.326  10.843  2.3744  2.8483 -1.0051
  843MOL0     H11234   2.760   4.269  10.610  0.0007 -1.8088 -0.6242
  843MOL0     H11235   2.879   4.169  10.674  1.0604  0.2730 -0.5644
  843MOL0     H11236   2.642   4.248  10.846  2.0146  1.9786  1.0469
  843MOL0     H11237   2.773   4.155  10.893  0.8099  1.1959  0.6374
  843MOL0     H11238   2.602   4.062  11.017  1.7293 -0.3589 -2.2308
  843MOL0     H11239   2.441   3.925  11.120  0.2518 -0.6947 -0.3254
  843MOL0     H11240   1.988   3.673  11.019 -0.3666 -0.3143  1.8463
  843MOL0     H11241   1.821   3.484  11.074 -0.4696 -2.0670 -1.0568
  843MOL0     H11242   1.912   3.087  11.091  0.3345 -1.0077  1.0430
  843MOL0     H11243   1.912   3.082  10.905  0.5457  1.4858  0.6910
  843MOL0     H11244   1.741   2.947  10.955  0.9945  0.9812 -1.8090
  843MOL0     H11245   1.690   3.095  10.882 -2.4503 -0.1203  0.0678
  843MOL0     H11246   1.608   3.192  11.096 -1.0687  0.2277 -1.1315
  843MOL0     H11247   1.674   3.033  11.178  1.9827 -0.2523 -2.6515
  843MOL0     H11248   1.455   3.079  10.962  0.4028 -2.6103 -2.1820
  843MOL0     H11249   1.498   2.923  11.021  1.5797  0.0271  0.2120
  843MOL0     H11250   1.374   3.158  11.168  0.3572 -0.6748 -0.3711
  843MOL0     H11251   1.407   2.997  11.246 -1.3260 -2.4463 -1.1577
  843MOL0     H11252   1.242   2.897  11.070 -0.6336 -0.6050  2.0581
  843MOL0     H11253   1.208   3.066  11.027 -0.6935 -0.9177 -0.4624
  843MOL0     H11254   1.186   2.944  11.309  1.2587  1.5929  0.5211
  843MOL0     H11255   1.143   3.106  11.254  0.3978  0.2709 -0.5912
  843MOL0     H11256   1.008   2.866  11.114 -3.4879 -0.1734 -0.4629
  843MOL0     H11257   0.968   3.037  11.142 -0.1961  0.9033  1.2244
  843MOL0     H11258   2.093   3.207  10.894 -3.4099 -0.2051 -3.1115
  843MOL0     H11259   2.277   3.391  10.884  0.8513  3.0389  0.9838
  843MOL0     H11260   2.347   3.764  10.720  2.0544 -0.1219  0.1455
  843MOL0     H11261   2.511   3.897  10.639 -0.5992 -2.2093 -0.1610
  843MOL0     H11262   4.269   4.477  11.241 -0.2387  1.0673 -0.3316
  843MOL0     H11263   4.451   4.612  11.317 -1.4932 -0.8199  0.9619
  843MOL0     H11264   4.841   4.753  11.388  2.4230 -0.5877  1.8085
  843MOL0     H11265   5.060   4.820  11.468  3.1151  0.4284  0.1145
  843MOL0     H11266   5.360   4.951  11.157 -1.1128  0.5804  1.8988
  843MOL0     H11267   5.372   4.776  11.177 -1.7162  0.8562 -1.1138
  843MOL0     H11268   5.519   4.817  11.373  0.4971 -0.3711 -0.5502
  843MOL0     H11269   5.598   4.845  11.218  0.1830 -0.0407  0.1181
  843MOL0     H11270   5.467   5.048  11.407 -1.0688  0.7622 -0.4891
  843MOL0     H11271   5.546   5.087  11.247 -0.4928 -0.3532  0.0136
  843MOL0     H11272   5.686   5.111  11.469  3.9201 -1.4450  0.8764
  843MOL0     H11273   5.679   4.942  11.473  1.7085 -1.9868 -1.0776
  843MOL0     H11274   5.963   5.023  11.136  1.1008  0.2986 -1.0355
  843MOL0     H11275   5.198   4.867  11.061  2.1303  2.3354  3.3791
  843MOL0     H11276   4.951   4.824  10.987 -2.4498 -0.2754  0.8066
  844MOL0     O11277   2.078   9.640   4.711  0.0109 -0.1522 -0.3700
  844MOL0     C11278   2.056   9.748   4.654 -0.7413 -0.8310  0.5106
  844MOL0     O11279   1.930   9.811   4.629 -1.4039 -0.4715 -0.0719
  844MOL0     C11280   1.807   9.773   4.676 -0.3764  0.8345  0.2566
  844MOL0     C11281   1.788   9.712   4.804  0.4829 -0.4942 -0.9172
  844MOL0     C11282   1.660   9.701   4.861 -0.1215 -0.7324 -0.1193
  844MOL0     C11283   1.543   9.730   4.778  0.1441 -0.6230 -0.0429
  844MOL0     O11284   1.416   9.719   4.824 -0.2781  0.5186 -0.0496
  844MOL0     C11285   1.307   9.782   4.753  0.1932 -0.4352  0.4002
  844MOL0     C11286   1.175   9.770   4.842 -0.7647 -0.1404  0.3156
  844MOL0     C11287   1.068   9.823   4.761  0.3954  0.6069 -0.3238
  844MOL0     C11288   0.941   9.841   4.854  0.8045 -0.5111 -0.1423
  844MOL0     C11289   0.824   9.902   4.774  0.2822 -0.0515  0.0171
  844MOL0     C11290   0.710   9.933   4.875  0.2816  0.5234  0.0895
  844MOL0     C11291   0.570   9.964   4.807 -0.0172 -0.4092 -0.2651
  844MOL0     C11292   0.516   9.848   4.733 -0.2927 -0.7833 -0.4911
  844MOL0     N11293   0.372   9.863   4.717 -0.1316  0.2157 -0.5102
  844MOL0     C11294   0.278   9.803   4.801 -0.8245 -0.2962 -0.1202
  844MOL0     C11295   0.164   9.860   4.766 -0.0206 -0.2177  0.0540
  844MOL0     C11296   0.035   9.813   4.818 -0.8343  0.4341  0.5176
  844MOL0     C11297  -0.092   9.895   4.796  0.1098 -0.1233 -1.0151
  844MOL0     C11298  -0.211   9.802   4.833 -0.2468 -0.4213  0.1386
  844MOL0     C11299  -0.346   9.851   4.809 -0.4201 -0.1872 -0.3609
  844MOL0     O11300  -0.360   9.979   4.883 -0.4361  0.6442 -0.1083
  844MOL0     C11301  -0.482  10.034   4.878 -0.5370  0.0052 -0.7831
  844MOL0     C11302  -0.572  10.011   4.774  0.3255 -0.4508  0.1204
  844MOL0     C11303  -0.704  10.054   4.788 -0.6626 -0.0286 -0.6798
  844MOL0     C11304  -0.750  10.126   4.898 -0.2769  0.2876 -0.7217
  844MOL0     C11305  -0.889  10.153   4.922  0.8764  0.3216  0.2468
  844MOL0     O11306  -0.971  10.126   4.818  0.3211  0.0076 -0.2684
  844MOL0     C11307  -1.104  10.122   4.844 -0.0138  0.4413  0.4206
  844MOL0     C11308  -1.184   9.996   4.829  0.1551  0.3682 -0.3738
  844MOL0     C11309  -1.318   9.994   4.850 -0.2736 -0.3468 -0.3326
  844MOL0     C11310  -1.391  10.113   4.889 -0.2395 -0.2848 -0.5220
  844MOL0     O11311  -1.531  10.120   4.896  0.7921 -0.1576 -0.0975
  844MOL0     C11312  -1.596  10.066   4.780 -0.4489 -1.3482  0.9243
  844MOL0     C11313  -1.738  10.120   4.794 -0.0475 -0.1657 -0.3111
  844MOL0     C11314  -1.812  10.118   4.667 -0.5888 -0.1991  0.2332
  844MOL0     C11315  -1.954  10.163   4.705  0.2539  0.0938 -0.1480
  844MOL0     C11316  -2.051  10.156   4.588  0.2630 -0.4669  0.6047
  844MOL0     C11317  -2.201  10.171   4.623 -0.7225  0.4420  0.6380
  844MOL0     C11318  -2.288  10.155   4.496 -1.1299 -0.4827  0.1915
  844MOL0     C11319  -2.436  10.149   4.531 -0.3679 -0.8266  0.2182
  844MOL0    Cl11320  -2.489  10.305   4.616 -0.5384  0.1691  0.0230
  844MOL0     C11321  -1.321  10.236   4.885  0.4523  1.1720 -0.0018
  844MOL0     C11322  -1.181  10.239   4.874  0.8157 -0.2314  0.7987
  844MOL0     O11323  -0.932  10.175   5.036 -0.0948 -0.2002  0.4119
  844MOL0     C11324  -0.654  10.151   4.997  0.1095  0.6765  0.1510
  844MOL0     C11325  -0.518  10.111   4.988 -0.0748 -0.7856  0.7846
  844MOL0     N11326   0.191   9.960   4.677 -0.0902 -0.4814 -0.3848
  844MOL0     N11327   0.313   9.962   4.644 -0.3518  0.4809 -0.3078
  844MOL0     C11328   1.567   9.773   4.647 -0.0458  0.2965  0.1734
  844MOL0     C11329   1.693   9.792   4.600  0.7332 -0.7383 -0.3832
  844MOL0     C11330   2.183   9.812   4.600  0.6047 -0.7525 -0.4037
  844MOL0     C11331   2.298   9.733   4.581  0.0084 -0.3920 -0.4743
  844MOL0     C11332   2.407   9.788   4.523 -0.1058  0.1331  0.1076
  844MOL0     C11333   2.405   9.914   4.475  0.2721 -0.4983 -0.5555
  844MOL0     O11334   2.518   9.955   4.409 -0.0569 -0.9388 -0.3022
  844MOL0     C11335   2.516  10.079   4.323  0.8828  0.3441 -0.6202
  844MOL0     C11336   2.635  10.075   4.225  0.2530  0.4267 -0.2404
  844MOL0     C11337   2.649   9.949   4.149 -0.1254 -0.0705  0.8677
  844MOL0     C11338   2.594   9.942   4.005 -0.1216 -0.0809 -0.1463
  844MOL0     C11339   2.637   9.812   3.952 -0.2948 -0.7761 -0.2522
  844MOL0     C11340   2.669   9.709   3.893 -0.5272 -0.0316 -0.9836
  844MOL0     C11341   2.297  10.002   4.504 -0.2586  0.4964  0.5234
  844MOL0     C11342   2.187   9.948   4.562 -0.6217 -0.5166 -0.5709
  844MOL0     H11343   1.870   9.695   4.873  0.4974  1.2506 -0.4568
  844MOL0     H11344   1.636   9.664   4.961 -2.3448  0.3890 -0.1638
  844MOL0     H11345   1.275   9.753   4.652  0.6748 -0.1219  0.1504
  844MOL0     H11346   1.328   9.889   4.741 -3.5744  0.2825 -1.1307
  844MOL0     H11347   1.190   9.827   4.934  1.8883  0.4933 -0.4146
  844MOL0     H11348   1.153   9.666   4.865  0.1781 -0.9943 -2.3342
  844MOL0     H11349   1.041   9.749   4.684 -1.8043  0.8351  0.1654
  844MOL0     H11350   1.090   9.917   4.711  1.6288  0.5203  0.0183
  844MOL0     H11351   0.906   9.743   4.886 -0.8201 -0.2912 -1.1275
  844MOL0     H11352   0.958   9.906   4.940  1.3948 -0.1921 -0.4884
  844MOL0     H11353   0.788   9.829   4.701  0.1935  0.7389 -0.7471
  844MOL0     H11354   0.854   9.993   4.723 -1.2175 -0.1351 -1.0894
  844MOL0     H11355   0.738  10.023   4.931  1.1896 -1.0961  2.3743
  844MOL0     H11356   0.703   9.855   4.951 -0.4510 -0.5082 -0.9886
  844MOL0     H11357   0.501   9.988   4.888  2.4498  0.3605  1.7472
  844MOL0     H11358   0.580  10.047   4.736 -1.9824  0.4063  0.3496
  844MOL0     H11359   0.536   9.751   4.780 -2.0706 -0.3079  1.3559
  844MOL0     H11360   0.576   9.844   4.642  3.0613  2.0652  1.3475
  844MOL0     H11361   0.289   9.715   4.863 -0.9616 -0.8493 -0.8608
  844MOL0     H11362   0.041   9.779   4.922  0.8304  0.2825  0.3880
  844MOL0     H11363   0.024   9.720   4.760 -0.0241  2.1827 -2.7090
  844MOL0     H11364  -0.104   9.936   4.695  2.5438  0.7702 -1.0224
  844MOL0     H11365  -0.100   9.974   4.871 -0.5872 -3.1402  2.3062
  844MOL0     H11366  -0.204   9.710   4.773 -1.9783  0.0439 -0.8804
  844MOL0     H11367  -0.192   9.779   4.938 -3.2176 -3.9462  0.0988
  844MOL0     H11368  -0.419   9.779   4.850  1.2637 -1.9794 -0.3676
  844MOL0     H11369  -0.358   9.861   4.701  1.2491  0.9796 -0.4668
  844MOL0     H11370  -0.545   9.952   4.687  0.4063  1.9643 -1.5874
  844MOL0     H11371  -0.778  10.020   4.716 -0.6652  1.0057 -1.1982
  844MOL0     H11372  -1.125   9.908   4.806  0.9602 -0.0105  2.7027
  844MOL0     H11373  -1.370   9.899   4.849 -0.7416 -0.0928 -1.0765
  844MOL0     H11374  -1.577   9.959   4.771  1.9646 -0.7852 -2.6862
  844MOL0     H11375  -1.553  10.116   4.693 -3.5887  1.7585  0.9363
  844MOL0     H11376  -1.735  10.222   4.835 -2.6770  0.1274 -0.6609
  844MOL0     H11377  -1.795  10.058   4.864  1.7495  1.8443  3.1964
  844MOL0     H11378  -1.827  10.014   4.638 -1.2585 -0.0551  0.0385
  844MOL0     H11379  -1.763  10.182   4.593  0.7421 -1.7894 -0.3149
  844MOL0     H11380  -1.991  10.089   4.777  0.1862 -1.0247 -1.3004
  844MOL0     H11381  -1.952  10.259   4.758 -3.4171  0.6529 -0.8062
  844MOL0     H11382  -2.048  10.053   4.553 -0.6924 -0.9969  1.9801
  844MOL0     H11383  -2.028  10.235   4.516  0.1930  0.2363  1.3340
  844MOL0     H11384  -2.227  10.266   4.670  1.1243  1.3979 -0.1511
  844MOL0     H11385  -2.225  10.088   4.690 -3.2355  0.4073 -0.2001
  844MOL0     H11386  -2.264  10.234   4.425 -3.5047 -1.7345 -2.1975
  844MOL0     H11387  -2.255  10.063   4.446 -1.3098 -0.8284  0.6941
  844MOL0     H11388  -2.455  10.051   4.576 -4.3106 -1.4972 -2.4277
  844MOL0     H11389  -2.488  10.150   4.435  3.4428  0.2517 -2.0689
  844MOL0     H11390  -1.380  10.326   4.899 -1.0436  0.2253 -0.0298
  844MOL0     H11391  -1.137  10.336   4.896 -0.1839  0.0921  1.4414
  844MOL0     H11392  -0.679  10.204   5.089 -1.1590 -0.7444  0.6635
  844MOL0     H11393  -0.445  10.130   5.067 -0.2456  1.0967  0.5317
  844MOL0     H11394   1.478   9.798   4.590  1.1993 -1.8504 -2.9659
  844MOL0     H11395   1.708   9.839   4.503  0.7433  0.9085  0.3779
  844MOL0     H11396   2.298   9.634   4.625 -2.2243  0.5865  2.0469
  844MOL0     H11397   2.497   9.731   4.502 -0.1247  0.9220 -2.4659
  844MOL0     H11398   2.531  10.173   4.377 -4.7388  0.2038  1.8438
  844MOL0     H11399   2.418  10.075   4.274  0.4931 -1.0971  0.2296
  844MOL0     H11400   2.628  10.163   4.161  0.1640  2.2974  2.1958
  844MOL0     H11401   2.727  10.085   4.284  1.7542  0.2481 -2.4169
  844MOL0     H11402   2.599   9.871   4.207 -1.6491  0.8887  0.9097
  844MOL0     H11403   2.757   9.931   4.153  0.9332  3.3665 -3.5811
  844MOL0     H11404   2.485   9.945   4.017 -0.6502 -3.1452 -2.6854
  844MOL0     H11405   2.625  10.019   3.934  0.1957  0.6048  0.7147
  844MOL0     H11406   2.706   9.630   3.833 -0.5898  1.0130 -2.4460
  844MOL0     H11407   2.299  10.108   4.482  0.1377  0.9017  2.4099
  844MOL0     H11408   2.100  10.009   4.586  0.6109  1.1837 -0.2906
  845MOL0     O11409   4.644  10.455   2.904  0.7737 -0.3676  0.2868
  845MOL0     C11410   4.702  10.346   2.892 -0.0555  1.0283  0.4896
  845MOL0     O11411   4.658  10.221   2.931  0.7589  0.1638 -0.2011
  845MOL0     C11412   4.560  10.225   3.029  0.5340 -0.8880  0.4339
  845MOL0     C11413   4.578  10.273   3.161  0.0505 -0.5753  0.5273
  845MOL0     C11414   4.478  10.250   3.253 -0.6730 -0.6583 -0.3133
  845MOL0     C11415   4.346  10.215   3.212 -1.4852 -0.8537  0.6549
  845MOL0     O11416   4.251  10.196   3.300 -0.9489 -0.4784 -0.2298
  845MOL0     C11417   4.116  10.165   3.273 -0.0224  0.6569  0.3663
  845MOL0     C11418   4.044  10.180   3.398 -0.2298 -0.6263  0.3018
  845MOL0     C11419   3.893  10.173   3.381  0.1655  0.6356  1.3177
  845MOL0     C11420   3.819  10.133   3.511  0.2107 -0.5320  0.6742
  845MOL0     C11421   3.670  10.136   3.479 -0.0886  0.5413 -0.1565
  845MOL0     C11422   3.588  10.081   3.592 -0.7201 -0.9009  0.5617
  845MOL0     C11423   3.440  10.048   3.561  0.8815  0.3338  0.8623
  845MOL0     C11424   3.365   9.990   3.683 -0.8568 -0.5329  0.4402
  845MOL0     N11425   3.229  10.024   3.679 -0.2055  0.4729  0.2350
  845MOL0     C11426   3.114   9.959   3.638  0.3726  0.3978  0.0620
  845MOL0     C11427   3.017  10.056   3.642  0.1586  0.1709 -0.2260
  845MOL0     C11428   2.872  10.045   3.620 -0.6229 -0.0328  0.0605
  845MOL0     C11429   2.826   9.906   3.585  0.4902 -0.3918  0.3300
  845MOL0     C11430   2.675   9.895   3.571 -0.6667 -0.4118 -0.3034
  845MOL0     C11431   2.608  10.013   3.482 -0.3545 -0.4600  0.3752
  845MOL0     O11432   2.466   9.998   3.471 -0.5304  0.3186 -0.7510
  845MOL0     C11433   2.407  10.073   3.369  0.0007  0.1733 -0.3594
  845MOL0     C11434   2.268  10.048   3.369  0.4638 -0.4700 -0.5176
  845MOL0     C11435   2.190  10.121   3.280 -0.0010  0.4184 -0.0982
  845MOL0     C11436   2.249  10.213   3.187 -0.7481 -0.2053 -0.5066
  845MOL0     C11437   2.169  10.301   3.095  0.5103  0.1165 -0.9833
  845MOL0     O11438   2.032  10.292   3.120 -0.4211  0.0544  0.1041
  845MOL0     C11439   1.953  10.345   3.030  0.0977 -0.7511  0.3786
  845MOL0     C11440   1.856  10.441   3.076 -1.2403  0.4519 -0.1989
  845MOL0     C11441   1.756  10.478   2.991 -0.8354  0.5495 -0.0266
  845MOL0     C11442   1.748  10.424   2.862  0.7676 -0.0759 -0.5056
  845MOL0     O11443   1.640  10.447   2.776  0.1083  0.1861  0.8198
  845MOL0     C11444   1.566  10.562   2.805 -0.4445 -0.1449 -0.3571
  845MOL0     C11445   1.446  10.571   2.712  0.4560 -0.3461 -0.4304
  845MOL0     C11446   1.387  10.707   2.684 -0.4439  0.4681 -0.3590
  845MOL0     C11447   1.255  10.694   2.610 -0.3779  0.2101  0.0906
  845MOL0     C11448   1.203  10.829   2.564 -1.6341  0.1820  0.1272
  845MOL0     C11449   1.071  10.816   2.498  0.8143 -0.0327  0.0545
  845MOL0     C11450   1.006  10.934   2.428 -0.6292 -0.2615  0.4982
  845MOL0     C11451   0.891  10.899   2.329  0.9844 -0.7072  0.2143
  845MOL0    Cl11452   0.764  10.804   2.411 -0.3063 -0.1732  0.3597
  845MOL0     C11453   1.845  10.341   2.819 -0.0162  0.1722  1.3319
  845MOL0     C11454   1.943  10.295   2.898 -0.3039 -0.0523 -0.0718
  845MOL0     O11455   2.227  10.369   3.004  0.1103  0.3767  0.0267
  845MOL0     C11456   2.389  10.222   3.188  0.7434  0.0565  0.2490
  845MOL0     C11457   2.470  10.159   3.274  0.6005 -0.1692  0.4013
  845MOL0     N11458   3.074  10.173   3.682  0.8567  0.2213 -0.8204
  845MOL0     N11459   3.203  10.157   3.699  1.2414 -0.3202  0.1544
  845MOL0     C11460   4.326  10.187   3.072  0.2392 -0.2499  0.8431
  845MOL0     C11461   4.433  10.191   2.983  0.1637 -0.1189 -0.3023
  845MOL0     C11462   4.839  10.344   2.840 -0.1462  0.5491 -0.3936
  845MOL0     C11463   4.914  10.459   2.820 -0.0927  0.2459 -0.4318
  845MOL0     C11464   5.038  10.454   2.768  0.3659 -0.8420 -1.0440
  845MOL0     C11465   5.099  10.329   2.745  0.6912 -0.4327  0.0223
  845MOL0     O11466   5.222  10.300   2.691 -0.7236  0.6196  0.2233
  845MOL0     C11467   5.327  10.367   2.737 -0.2644 -0.2361  0.7372
  845MOL0     C11468   5.452  10.272   2.726 -0.4361 -0.3632  0.4176
  845MOL0     C11469   5.589  10.337   2.774  0.7630  0.0018  0.7061
  845MOL0     C11470   5.591  10.359   2.921  0.2691 -0.4068 -0.3516
  845MOL0     C11471   5.730  10.401   2.953  0.0982  0.2986 -0.0152
  845MOL0     C11472   5.843  10.421   2.960  0.0407 -0.2143 -0.5606
  845MOL0     C11473   5.026  10.212   2.765 -0.4669  0.4294 -0.0877
  845MOL0     C11474   4.891  10.219   2.798  0.0957 -0.6687  0.6706
  845MOL0     H11475   4.668  10.318   3.204 -1.5662  0.2884  3.2513
  845MOL0     H11476   4.497  10.264   3.359  0.3319 -3.4158 -0.0410
  845MOL0     H11477   4.121  10.060   3.246  0.4583  0.7092  0.2370
  845MOL0     H11478   4.076  10.231   3.196  0.7112  1.1216  0.3700
  845MOL0     H11479   4.064  10.275   3.448  1.3453 -1.4244  1.2853
  845MOL0     H11480   4.076  10.102   3.467  2.4019  1.4379  1.6020
  845MOL0     H11481   3.874  10.099   3.303 -0.6375 -0.6517  2.6958
  845MOL0     H11482   3.864  10.274   3.349 -0.7642  1.3671  4.1979
  845MOL0     H11483   3.861  10.041   3.553  3.4026 -0.0815 -1.1658
  845MOL0     H11484   3.836  10.211   3.586 -1.0498  1.1145 -0.6676
  845MOL0     H11485   3.647  10.080   3.388 -0.7931 -0.8295  0.8322
  845MOL0     H11486   3.639  10.238   3.455 -3.0068 -0.1060  0.5191
  845MOL0     H11487   3.599  10.154   3.673  3.6705 -0.2860 -0.3326
  845MOL0     H11488   3.637   9.991   3.630  0.6389  0.0275  1.0817
  845MOL0     H11489   3.370  10.127   3.531  0.2585  0.0479  1.5099
  845MOL0     H11490   3.431   9.973   3.483 -1.6555 -1.7343  2.9418
  845MOL0     H11491   3.417  10.033   3.770  1.3309 -0.1402 -0.9844
  845MOL0     H11492   3.375   9.881   3.691  0.1112 -0.5940 -1.2087
  845MOL0     H11493   3.117   9.862   3.590  0.4533 -0.3512  1.5224
  845MOL0     H11494   2.847  10.117   3.541  1.0270  1.6065  0.9446
  845MOL0     H11495   2.822  10.074   3.712 -1.5993  2.0254 -1.0415
  845MOL0     H11496   2.854   9.836   3.665  0.9305 -0.0148  0.5115
  845MOL0     H11497   2.872   9.874   3.492 -1.9974 -2.6748 -0.2133
  845MOL0     H11498   2.653   9.797   3.529 -1.6402  0.3147 -1.5822
  845MOL0     H11499   2.634   9.908   3.672 -1.4855  2.1627 -0.8734
  845MOL0     H11500   2.656  10.000   3.385  0.5553 -2.1913  1.0131
  845MOL0     H11501   2.630  10.112   3.524  2.0240 -1.0234  0.5988
  845MOL0     H11502   2.205   9.991   3.436 -0.0195  1.5259  0.8462
  845MOL0     H11503   2.082  10.114   3.281 -0.2255  2.4600  2.8842
  845MOL0     H11504   1.871  10.482   3.175  1.8059 -3.1141  1.0612
  845MOL0     H11505   1.695  10.559   3.030  1.1261  0.8393  2.7426
  845MOL0     H11506   1.635  10.645   2.790 -1.0059  0.5544  0.7630
  845MOL0     H11507   1.525  10.576   2.906  1.2316 -0.7397  0.4393
  845MOL0     H11508   1.363  10.517   2.760 -1.0125 -1.2938 -3.7718
  845MOL0     H11509   1.464  10.523   2.616 -2.7023 -1.2120 -0.7021
  845MOL0     H11510   1.464  10.753   2.622 -0.0341  1.6146  0.9312
  845MOL0     H11511   1.376  10.760   2.780 -1.3113  1.3568 -0.9282
  845MOL0     H11512   1.272  10.642   2.516  1.0493  0.8075 -0.0068
  845MOL0     H11513   1.174  10.640   2.660 -1.7982  1.0717 -1.2140
  845MOL0     H11514   1.277  10.869   2.494  2.4645 -3.9000  1.6133
  845MOL0     H11515   1.191  10.896   2.650  1.1043 -0.1085  0.8174
  845MOL0     H11516   1.003  10.773   2.572  1.6388 -0.6027  0.4908
  845MOL0     H11517   1.084  10.749   2.413  0.3512  2.5465 -2.2158
  845MOL0     H11518   0.979  11.003   2.509  0.5731 -2.4966  2.9806
  845MOL0     H11519   1.087  10.981   2.372 -1.2611 -0.5589 -0.6822
  845MOL0     H11520   0.935  10.843   2.246 -1.4514  0.8288 -2.2705
  845MOL0     H11521   0.853  10.994   2.290  0.5277 -0.1150  2.0024
  845MOL0     H11522   1.844  10.302   2.718  3.2823  1.2802  0.7450
  845MOL0     H11523   2.017  10.228   2.855  0.0670  1.3160 -1.6537
  845MOL0     H11524   2.440  10.282   3.113  0.1776 -0.8060 -0.8611
  845MOL0     H11525   2.577  10.177   3.275  0.5954 -0.0834  1.7630
  845MOL0     H11526   4.226  10.176   3.033  0.3485 -1.0061  0.7541
  845MOL0     H11527   4.408  10.172   2.879 -1.2833 -1.2525  0.2158
  845MOL0     H11528   4.863  10.552   2.842 -1.9466 -0.8691  0.1882
  845MOL0     H11529   5.091  10.546   2.743  1.0097 -0.8404  0.2355
  845MOL0     H11530   5.313  10.406   2.838  2.9077  0.5972  0.9687
  845MOL0     H11531   5.349  10.453   2.673  0.8322 -1.5694 -0.7553
  845MOL0     H11532   5.432  10.193   2.798  0.3448 -0.2278  0.7964
  845MOL0     H11533   5.458  10.236   2.622  0.4044  0.8230  0.0304
  845MOL0     H11534   5.609  10.424   2.711 -1.7318  0.5703  0.5873
  845MOL0     H11535   5.667  10.261   2.761  0.2792 -0.6332  1.3981
  845MOL0     H11536   5.517  10.435   2.947 -0.0434 -0.0106 -2.2394
  845MOL0     H11537   5.566  10.267   2.976  0.1748 -1.0650 -1.4567
  845MOL0     H11538   5.949  10.436   2.961 -0.1016  0.8698 -0.6365
  845MOL0     H11539   5.073  10.115   2.753 -1.4740 -0.1742  0.6686
  845MOL0     H11540   4.823  10.135   2.795 -1.8109  0.8054  0.0642
  846MOL0     O11541   2.895   3.245   9.666  0.5420 -0.9251  0.0902
  846MOL0     C11542   2.914   3.364   9.656  0.5538 -0.2291 -0.1024
  846MOL0     O11543   2.820   3.461   9.623 -0.2860 -0.1192  0.0431
  846MOL0     C11544   2.679   3.434   9.627  0.3317 -0.1116  0.8291
  846MOL0     C11545   2.624   3.309   9.600  0.7245 -0.1405 -0.0063
  846MOL0     C11546   2.480   3.286   9.597  0.4960  0.4527  0.2103
  846MOL0     C11547   2.394   3.390   9.643  0.2401 -0.6876 -0.2356
  846MOL0     O11548   2.260   3.379   9.660 -0.1196 -0.6567  1.0061
  846MOL0     C11549   2.197   3.296   9.563 -0.2915 -0.6692  0.6842
  846MOL0     C11550   2.045   3.323   9.558  0.4627  1.0031  0.1884
  846MOL0     C11551   1.964   3.224   9.643 -0.0970 -0.3438  0.1165
  846MOL0     C11552   1.810   3.250   9.638 -0.1779  0.3207  0.8168
  846MOL0     C11553   1.754   3.202   9.506 -0.2022 -0.5132  0.5659
  846MOL0     C11554   1.706   3.054   9.513  0.2025  0.1579  0.1685
  846MOL0     C11555   1.582   3.021   9.600  0.0535 -0.6903  0.4856
  846MOL0     C11556   1.579   2.866   9.610 -0.2710  0.4294 -0.4457
  846MOL0     N11557   1.468   2.816   9.689 -0.0455 -0.0674  0.4860
  846MOL0     C11558   1.410   2.697   9.683  0.1430  0.2787 -0.1284
  846MOL0     C11559   1.303   2.710   9.769  0.5823  0.1752 -0.1708
  846MOL0     C11560   1.211   2.586   9.796  0.0366 -1.2080  0.2983
  846MOL0     C11561   1.061   2.629   9.764 -0.8185  0.6620  0.0172
  846MOL0     C11562   0.968   2.547   9.862  0.6101  0.5831  0.4409
  846MOL0     C11563   0.818   2.554   9.832 -0.4207  0.0189  0.8234
  846MOL0     O11564   0.742   2.451   9.899  0.1282  0.0422  0.4089
  846MOL0     C11565   0.607   2.437   9.869  1.2974  1.4360  0.3294
  846MOL0     C11566   0.535   2.512   9.785 -0.0282 -0.3887 -0.6932
  846MOL0     C11567   0.394   2.494   9.769  0.4742  0.3507  0.6389
  846MOL0     C11568   0.319   2.391   9.835 -0.5208  0.0129  0.0385
  846MOL0     C11569   0.179   2.361   9.813 -0.0124 -0.1650 -0.1649
  846MOL0     O11570   0.109   2.429   9.725  0.2475  0.0006  0.5099
  846MOL0     C11571  -0.017   2.395   9.708  0.2156 -0.7382 -0.4723
  846MOL0     C11572  -0.058   2.308   9.608  0.0859  0.4511  0.4250
  846MOL0     C11573  -0.197   2.278   9.598  0.0540 -0.1008  0.2720
  846MOL0     C11574  -0.288   2.323   9.690  0.3324  0.8625  0.3703
  846MOL0     O11575  -0.416   2.274   9.676  0.2966 -0.2316 -0.1795
  846MOL0     C11576  -0.527   2.366   9.669  0.0078 -0.2042 -0.3469
  846MOL0     C11577  -0.665   2.292   9.684  0.0936 -0.3539  0.1603
  846MOL0     C11578  -0.783   2.385   9.731  0.7400  0.1922  1.2462
  846MOL0     C11579  -0.809   2.511   9.637  0.0711 -0.1710 -0.4100
  846MOL0     C11580  -0.952   2.563   9.648 -0.1360  0.1560 -0.1254
  846MOL0     C11581  -1.042   2.462   9.565  0.3154 -0.0601 -1.8796
  846MOL0     C11582  -1.179   2.439   9.635 -0.0685 -1.1532  0.4663
  846MOL0     C11583  -1.241   2.312   9.600  1.1312  0.2936  0.8360
  846MOL0    Cl11584  -1.238   2.291   9.418  0.2360 -0.3331 -0.2065
  846MOL0     C11585  -0.242   2.391   9.801 -0.1251 -0.2082 -0.7255
  846MOL0     C11586  -0.115   2.440   9.797 -0.6813  0.2010 -0.3984
  846MOL0     O11587   0.135   2.274   9.887 -0.1869 -0.0487  0.2318
  846MOL0     C11588   0.400   2.318   9.927 -0.5299  0.3694 -0.2673
  846MOL0     C11589   0.534   2.347   9.949  0.4563  0.5922 -0.7034
  846MOL0     N11590   1.306   2.832   9.826 -0.6278  0.2560 -0.1411
  846MOL0     N11591   1.408   2.893   9.780  0.5767 -0.0702  0.3263
  846MOL0     C11592   2.454   3.511   9.674  0.7348 -0.0345  0.2893
  846MOL0     C11593   2.596   3.532   9.663  0.8530 -0.6334  0.0773
  846MOL0     C11594   3.052   3.415   9.690  0.1261 -0.0953  0.1368
  846MOL0     C11595   3.093   3.535   9.634  0.6741  0.4158 -0.0689
  846MOL0     C11596   3.227   3.577   9.640  0.9950 -0.5921  0.4814
  846MOL0     C11597   3.323   3.503   9.712  0.6382  0.6891  0.3927
  846MOL0     O11598   3.454   3.552   9.709 -0.2086  0.3035  0.2810
  846MOL0     C11599   3.552   3.474   9.778  0.0456 -0.1248  0.6296
  846MOL0     C11600   3.691   3.526   9.748 -0.5456 -0.7035 -0.0653
  846MOL0     C11601   3.790   3.470   9.844 -0.4426 -0.3045  0.1142
  846MOL0     C11602   3.929   3.518   9.817  0.2716  0.2047  0.5626
  846MOL0     C11603   4.036   3.461   9.900 -0.3341 -0.8340 -0.1481
  846MOL0     C11604   4.105   3.383   9.965  0.1482  0.3212  0.3948
  846MOL0     C11605   3.281   3.389   9.792  0.1404  0.2041  0.5784
  846MOL0     C11606   3.149   3.340   9.764  1.2213 -0.4982  0.0254
  846MOL0     H11607   2.674   3.219   9.565 -1.6410 -1.9367  0.9822
  846MOL0     H11608   2.447   3.189   9.562  0.1043  1.2271 -1.7214
  846MOL0     H11609   2.239   3.196   9.570  0.1097 -0.6561 -1.0848
  846MOL0     H11610   2.241   3.335   9.471 -0.3311  1.0904  1.3722
  846MOL0     H11611   2.021   3.311   9.452  2.3945  1.8874 -0.3942
  846MOL0     H11612   2.024   3.426   9.588 -0.0877  0.7238  0.7875
  846MOL0     H11613   1.997   3.242   9.746  0.3861 -2.2940  0.3471
  846MOL0     H11614   1.975   3.116   9.629  0.4295 -0.0578 -1.9043
  846MOL0     H11615   1.755   3.198   9.716  2.4663 -1.1037  1.8326
  846MOL0     H11616   1.781   3.352   9.664 -0.9453 -0.3307  2.6295
  846MOL0     H11617   1.827   3.222   9.427  0.1048  1.9003  1.3736
  846MOL0     H11618   1.671   3.270   9.482  2.0463  1.9770 -0.6254
  846MOL0     H11619   1.796   2.996   9.535  0.2761 -0.9582 -2.5907
  846MOL0     H11620   1.673   3.027   9.412 -1.5808  0.7249  0.5605
  846MOL0     H11621   1.597   3.073   9.695 -2.9902  1.1735  0.0995
  846MOL0     H11622   1.490   3.053   9.549  0.2749 -1.5778 -0.5080
  846MOL0     H11623   1.667   2.842   9.671  0.0762  1.4607 -0.5140
  846MOL0     H11624   1.586   2.820   9.511  1.2082  3.4318 -1.8889
  846MOL0     H11625   1.445   2.611   9.629  1.0921  1.4219 -1.3883
  846MOL0     H11626   1.223   2.553   9.900  0.7422 -1.7644  0.0438
  846MOL0     H11627   1.219   2.495   9.737 -1.0398 -2.9495  2.6415
  846MOL0     H11628   1.024   2.614   9.662 -1.0465  0.0538  0.1900
  846MOL0     H11629   1.051   2.738   9.776  2.2613  0.9532  0.7434
  846MOL0     H11630   0.993   2.440   9.871 -1.7201  0.1089  2.1264
  846MOL0     H11631   0.980   2.596   9.959 -1.3159  0.0009  1.0091
  846MOL0     H11632   0.811   2.531   9.725 -2.4614  1.3939  0.6047
  846MOL0     H11633   0.772   2.652   9.849 -0.1626  0.2482  0.2470
  846MOL0     H11634   0.587   2.590   9.730  2.3524 -1.7021 -0.4424
  846MOL0     H11635   0.345   2.564   9.702 -1.2453  0.0248  1.5045
  846MOL0     H11636   0.006   2.271   9.529  0.5960  0.6769  0.7252
  846MOL0     H11637  -0.224   2.214   9.515 -1.0283 -3.9246  3.3017
  846MOL0     H11638  -0.536   2.427   9.579 -2.8379  0.4793  0.2969
  846MOL0     H11639  -0.512   2.428   9.758  2.3843 -1.7098  0.4040
  846MOL0     H11640  -0.656   2.206   9.751  0.0579 -1.6076 -1.3957
  846MOL0     H11641  -0.682   2.245   9.587 -0.9890 -1.3371  0.8083
  846MOL0     H11642  -0.769   2.413   9.835 -0.0688 -0.9267  1.6784
  846MOL0     H11643  -0.873   2.322   9.732  0.4703  0.5789  1.6557
  846MOL0     H11644  -0.748   2.586   9.687 -0.9606  0.0216  0.6187
  846MOL0     H11645  -0.781   2.499   9.532  2.3358 -0.0616  0.1376
  846MOL0     H11646  -0.959   2.664   9.606 -0.8279 -0.4345 -1.5037
  846MOL0     H11647  -0.982   2.562   9.753  1.3116  2.9628  0.4156
  846MOL0     H11648  -0.998   2.362   9.553 -2.8078 -1.8445  0.1185
  846MOL0     H11649  -1.049   2.506   9.465 -4.1356 -0.8444 -2.1263
  846MOL0     H11650  -1.178   2.448   9.744 -0.3582 -2.7364  0.6240
  846MOL0     H11651  -1.233   2.528   9.601  0.5025 -0.8735  0.2828
  846MOL0     H11652  -1.346   2.301   9.629  1.2085 -1.4173  0.5856
  846MOL0     H11653  -1.188   2.227   9.644  0.5318 -0.2688  0.4896
  846MOL0     H11654  -0.310   2.414   9.882  0.6641  1.1738 -0.4370
  846MOL0     H11655  -0.096   2.515   9.873  1.8738 -0.6691 -0.0736
  846MOL0     H11656   0.366   2.236   9.989  0.8482  1.7291  2.4427
  846MOL0     H11657   0.599   2.292  10.016  1.6859  0.8127 -1.6753
  846MOL0     H11658   2.382   3.588   9.704  0.8646 -0.1443  0.8978
  846MOL0     H11659   2.630   3.630   9.696 -0.2543 -0.6168  1.2919
  846MOL0     H11660   3.024   3.590   9.571 -1.3307 -1.8078  0.0044
  846MOL0     H11661   3.260   3.673   9.600  0.0429 -1.0595 -1.5870
  846MOL0     H11662   3.563   3.370   9.748 -0.9726  0.8321 -3.6813
  846MOL0     H11663   3.525   3.475   9.884 -1.6252 -0.3841  0.2263
  846MOL0     H11664   3.720   3.520   9.643 -0.1118  0.1943 -0.0015
  846MOL0     H11665   3.688   3.633   9.768  2.6466 -0.8129  1.5887
  846MOL0     H11666   3.790   3.361   9.845  3.3189 -0.4710 -0.9759
  846MOL0     H11667   3.758   3.514   9.940 -2.5805  1.6001 -1.3610
  846MOL0     H11668   3.941   3.506   9.709  2.2296  2.2254  0.4810
  846MOL0     H11669   3.950   3.624   9.832  1.2303 -0.1081  1.6296
  846MOL0     H11670   4.170   3.323  10.025  2.8917  2.1222 -0.5773
  846MOL0     H11671   3.338   3.329   9.863  0.0998 -0.1643  0.3047
  846MOL0     H11672   3.109   3.244   9.796 -1.1418  0.6724  0.8085
  847MOL0     O11673   3.219   0.810   2.174  0.0988  0.0169 -0.4909
  847MOL0     C11674   3.245   0.908   2.112 -0.4965  0.1253  0.4314
  847MOL0     O11675   3.165   1.018   2.100 -0.4246 -0.1195  0.9335
  847MOL0     C11676   3.034   1.018   2.143 -1.1245  0.5722 -0.5809
  847MOL0     C11677   2.941   0.911   2.137  0.5293  0.2275  0.2643
  847MOL0     C11678   2.811   0.918   2.186 -1.0792  0.5706 -0.7002
  847MOL0     C11679   2.771   1.043   2.235  0.2065 -0.4645  0.4245
  847MOL0     O11680   2.638   1.054   2.270  0.6366 -0.3698 -0.3613
  847MOL0     C11681   2.564   1.144   2.184  1.1106  0.2368 -0.5947
  847MOL0     C11682   2.423   1.153   2.221  1.0289 -0.2480 -0.7098
  847MOL0     C11683   2.336   1.257   2.145  0.8048 -0.6416 -0.4007
  847MOL0     C11684   2.190   1.249   2.192 -0.2388  0.8075 -0.1408
  847MOL0     C11685   2.103   1.357   2.122  0.3102  0.1839  0.3051
  847MOL0     C11686   1.952   1.374   2.153  0.0561 -0.2143 -0.0605
  847MOL0     C11687   1.898   1.500   2.085 -0.5251  0.3918 -0.4277
  847MOL0     C11688   1.747   1.508   2.106 -0.0306 -0.4264 -0.7726
  847MOL0     N11689   1.701   1.602   2.001  0.7726 -0.6992 -0.0291
  847MOL0     C11690   1.656   1.560   1.873 -0.3495 -1.4699 -0.1477
  847MOL0     C11691   1.607   1.669   1.813  0.4050 -0.9564 -0.9586
  847MOL0     C11692   1.565   1.691   1.674 -0.0284  0.0586  0.0110
  847MOL0     C11693   1.459   1.798   1.651 -0.3892  0.3345 -0.4339
  847MOL0     C11694   1.403   1.795   1.513  1.0385 -0.2079 -0.1790
  847MOL0     C11695   1.314   1.915   1.492 -0.8200 -0.0744  0.6937
  847MOL0     O11696   1.190   1.911   1.568  0.4980  0.3105  0.8194
  847MOL0     C11697   1.077   1.984   1.535  0.0222  0.3003  0.0310
  847MOL0     C11698   1.062   2.070   1.423  1.0451  0.6686 -0.0845
  847MOL0     C11699   0.941   2.149   1.401 -0.6791  0.6927 -0.2666
  847MOL0     C11700   0.833   2.134   1.495 -0.1499 -0.0115 -0.3386
  847MOL0     C11701   0.712   2.216   1.475 -1.0892  0.1091 -0.0249
  847MOL0     O11702   0.700   2.290   1.367 -0.2212 -0.4531  0.9158
  847MOL0     C11703   0.572   2.313   1.311 -0.3080 -0.9794 -0.1518
  847MOL0     C11704   0.543   2.450   1.262  0.0585  0.4852  0.4515
  847MOL0     C11705   0.417   2.482   1.217  0.1863 -0.5334  0.0937
  847MOL0     C11706   0.310   2.377   1.202 -0.9050 -0.2104  1.0289
  847MOL0     O11707   0.177   2.395   1.155 -0.6695 -0.1708  0.8904
  847MOL0     C11708   0.132   2.535   1.148 -0.3098  0.0083 -0.2232
  847MOL0     C11709  -0.023   2.527   1.115  0.1327 -0.2924  0.3567
  847MOL0     C11710  -0.072   2.670   1.096 -0.7863  0.0487  0.0313
  847MOL0     C11711  -0.232   2.672   1.100  0.4986 -0.5514  0.4116
  847MOL0     C11712  -0.282   2.814   1.118 -0.8002  0.5521 -0.0039
  847MOL0     C11713  -0.427   2.830   1.083 -0.7395 -0.1971 -0.1800
  847MOL0     C11714  -0.462   2.984   1.081 -0.2027 -0.4360  0.4204
  847MOL0     C11715  -0.608   3.018   1.053 -0.0201  0.3278  0.2324
  847MOL0    Cl11716  -0.727   2.943   1.161 -0.1478  0.1202 -0.3008
  847MOL0     C11717   0.341   2.250   1.254 -0.3297  0.5270  0.4992
  847MOL0     C11718   0.469   2.219   1.304  0.2214 -0.6882  0.8769
  847MOL0     O11719   0.637   2.227   1.568  0.0051  0.0617  0.6106
  847MOL0     C11720   0.846   2.044   1.601 -1.1389  0.2744 -0.7265
  847MOL0     C11721   0.974   1.972   1.619  0.3147 -0.0898 -0.7530
  847MOL0     N11722   1.607   1.765   1.915 -0.4476 -0.5895  0.0547
  847MOL0     N11723   1.660   1.730   2.017 -0.6957 -0.1101 -0.1274
  847MOL0     C11724   2.854   1.154   2.236 -0.3024 -0.2743  1.2185
  847MOL0     C11725   2.984   1.140   2.190  0.4073 -0.1354 -0.3718
  847MOL0     C11726   3.390   0.923   2.060 -0.3984 -0.1561 -0.8305
  847MOL0     C11727   3.495   0.856   2.126 -0.2665  0.1399  0.1465
  847MOL0     C11728   3.626   0.875   2.087  1.1026  0.0198 -0.3381
  847MOL0     C11729   3.669   0.973   1.996 -0.1586 -0.3899  0.1000
  847MOL0     O11730   3.804   1.001   1.959  0.4687 -0.1621 -0.1768
  847MOL0     C11731   3.892   0.908   2.012  0.7152  0.2412  0.1530
  847MOL0     C11732   4.030   0.967   1.999  0.1870  0.5332 -0.3214
  847MOL0     C11733   4.054   1.029   1.859  0.2292  0.5508 -0.2969
  847MOL0     C11734   4.201   1.061   1.824  0.3367  0.2481 -0.1655
  847MOL0     C11735   4.252   1.175   1.899  0.8716  0.2862 -0.8802
  847MOL0     C11736   4.297   1.272   1.959  0.3692  0.2147  0.5384
  847MOL0     C11737   3.561   1.041   1.927 -0.2308 -0.0725 -0.3876
  847MOL0     C11738   3.425   1.012   1.957 -0.2419 -0.1780  0.6932
  847MOL0     H11739   2.966   0.814   2.096  1.1588  0.5075 -0.0367
  847MOL0     H11740   2.735   0.842   2.176 -1.7158  1.4632 -4.0516
  847MOL0     H11741   2.574   1.119   2.078 -0.9893  1.6313 -1.1856
  847MOL0     H11742   2.609   1.242   2.206  4.7466 -1.6799  1.5087
  847MOL0     H11743   2.415   1.171   2.329 -4.4200  1.2623 -1.0906
  847MOL0     H11744   2.374   1.056   2.211  0.6974 -0.3240  1.2339
  847MOL0     H11745   2.337   1.243   2.036 -1.4078 -2.0900 -0.2815
  847MOL0     H11746   2.378   1.356   2.164  3.9072 -1.3814 -2.5740
  847MOL0     H11747   2.148   1.149   2.180  2.0666 -0.8133  3.7192
  847MOL0     H11748   2.181   1.255   2.301 -1.2321  1.2914 -0.2358
  847MOL0     H11749   2.114   1.339   2.015 -1.1240  1.8462 -0.1561
  847MOL0     H11750   2.150   1.455   2.133  1.4699 -0.3955  0.7343
  847MOL0     H11751   1.931   1.390   2.259 -2.1449 -0.1195 -0.4813
  847MOL0     H11752   1.890   1.288   2.126 -0.4700 -0.6393  2.2216
  847MOL0     H11753   1.940   1.596   2.120  1.1021 -1.0397  1.8594
  847MOL0     H11754   1.922   1.492   1.978  0.2463 -2.4369 -0.1323
  847MOL0     H11755   1.728   1.539   2.209 -0.9305 -0.9242 -0.7846
  847MOL0     H11756   1.704   1.408   2.096  1.9471 -1.3871 -0.2981
  847MOL0     H11757   1.662   1.466   1.820 -0.5336 -1.3424 -0.3986
  847MOL0     H11758   1.539   1.599   1.621 -1.2650  1.0186 -1.1329
  847MOL0     H11759   1.653   1.718   1.616  2.1490 -5.0555  0.4074
  847MOL0     H11760   1.502   1.897   1.670 -0.7382  0.4786 -0.3920
  847MOL0     H11761   1.377   1.773   1.719 -0.0918  0.4593 -0.0210
  847MOL0     H11762   1.483   1.814   1.440  0.6314  0.5941 -0.4350
  847MOL0     H11763   1.349   1.703   1.487 -0.4323  0.3541  0.7781
  847MOL0     H11764   1.284   1.910   1.388 -3.5423  0.8566  1.3715
  847MOL0     H11765   1.372   2.005   1.516  0.7497 -1.7104  3.6804
  847MOL0     H11766   1.149   2.082   1.359  2.9453 -0.3231  2.1426
  847MOL0     H11767   0.920   2.207   1.312 -1.4839  0.1616 -0.4264
  847MOL0     H11768   0.614   2.531   1.270 -1.6492  2.2329 -0.9677
  847MOL0     H11769   0.419   2.589   1.196  1.1041 -0.2062  1.7158
  847MOL0     H11770   0.188   2.572   1.062 -0.6425 -2.7897 -1.7626
  847MOL0     H11771   0.146   2.594   1.239 -0.7554  0.4065 -0.4063
  847MOL0     H11772  -0.075   2.472   1.195 -1.4941  0.3555 -0.2093
  847MOL0     H11773  -0.027   2.471   1.021  0.3382  0.8243 -0.3353
  847MOL0     H11774  -0.031   2.701   1.000 -2.1110 -1.3948 -1.0564
  847MOL0     H11775  -0.031   2.727   1.180  1.8990  0.2049 -1.3035
  847MOL0     H11776  -0.264   2.628   1.005  1.9787 -1.4076  0.2870
  847MOL0     H11777  -0.276   2.604   1.174  0.2942  0.9065  1.6907
  847MOL0     H11778  -0.220   2.876   1.052 -0.8813 -0.4958 -1.1054
  847MOL0     H11779  -0.257   2.841   1.221 -0.5516  0.9920 -0.1770
  847MOL0     H11780  -0.494   2.777   1.151  0.7335 -1.7456  0.1516
  847MOL0     H11781  -0.439   2.790   0.982  2.8051  0.4494 -0.9984
  847MOL0     H11782  -0.417   3.018   1.175 -0.4165  0.1534  0.3166
  847MOL0     H11783  -0.413   3.026   0.993 -2.5232  0.0483 -0.7075
  847MOL0     H11784  -0.637   2.993   0.950  0.3799  1.1353 -0.0869
  847MOL0     H11785  -0.631   3.125   1.057 -1.9676 -0.0962  2.1000
  847MOL0     H11786   0.261   2.176   1.250 -2.6780  2.9388  0.0954
  847MOL0     H11787   0.497   2.126   1.352  1.4396 -1.3883 -1.0728
  847MOL0     H11788   0.764   2.033   1.671 -0.0906 -0.8411  0.3530
  847MOL0     H11789   0.984   1.911   1.708 -1.5042 -1.5013 -1.4496
  847MOL0     H11790   2.831   1.255   2.267  2.8629  0.2687  2.1610
  847MOL0     H11791   3.060   1.217   2.186  1.4555 -1.1535 -0.7251
  847MOL0     H11792   3.479   0.788   2.208  0.4565 -0.1688  0.0363
  847MOL0     H11793   3.690   0.811   2.146 -0.5369  0.5537  2.1712
  847MOL0     H11794   3.874   0.812   1.962 -3.0911  0.1251  1.3663
  847MOL0     H11795   3.868   0.899   2.119 -0.6844 -0.9815 -0.2175
  847MOL0     H11796   4.039   1.042   2.078 -3.3143  0.1544  0.5981
  847MOL0     H11797   4.096   0.884   2.024 -1.4884 -1.3033 -1.6925
  847MOL0     H11798   3.994   1.120   1.863 -1.2806 -0.4327  1.6682
  847MOL0     H11799   4.000   0.969   1.785 -2.7967 -0.6204  2.6032
  847MOL0     H11800   4.278   0.984   1.830  0.5137  0.4629  0.4197
  847MOL0     H11801   4.188   1.082   1.718 -2.5497 -0.1580  0.0332
  847MOL0     H11802   4.343   1.358   2.002 -1.6866  2.2609 -1.0984
  847MOL0     H11803   3.598   1.118   1.860  1.1062 -0.8115 -0.5464
  847MOL0     H11804   3.348   1.060   1.897  0.9752  0.6748 -0.2311
  848MOL0     O11805   0.683   1.773   1.848  0.3199  0.5730 -0.2424
  848MOL0     C11806   0.645   1.752   1.965 -0.0588  0.6543  0.8465
  848MOL0     O11807   0.631   1.632   2.016  0.6780 -0.1153 -0.3356
  848MOL0     C11808   0.658   1.519   1.943  0.3764 -0.5292 -0.4728
  848MOL0     C11809   0.561   1.424   1.907  0.2917 -0.3025 -0.7932
  848MOL0     C11810   0.585   1.314   1.836  0.8374 -0.4688 -0.5859
  848MOL0     C11811   0.724   1.290   1.792  0.2536 -0.2740 -0.9422
  848MOL0     O11812   0.769   1.182   1.727  0.2314 -0.1652  0.0721
  848MOL0     C11813   0.676   1.081   1.677  0.7683 -0.0456 -0.0114
  848MOL0     C11814   0.727   1.021   1.549 -0.6164  0.2225  0.1319
  848MOL0     C11815   0.606   0.948   1.472 -0.2601 -0.4023 -0.2504
  848MOL0     C11816   0.478   1.030   1.455  0.1576 -0.2261  0.1250
  848MOL0     C11817   0.394   1.010   1.328  0.1772 -0.2815 -0.9324
  848MOL0     C11818   0.365   0.865   1.291 -1.3762 -0.5039 -0.4310
  848MOL0     C11819   0.236   0.847   1.218  0.4655  0.4851  0.2367
  848MOL0     C11820   0.231   0.916   1.080  0.6349  1.1163 -0.0373
  848MOL0     N11821   0.096   0.957   1.054  0.2891 -0.0460  1.2261
  848MOL0     C11822   0.004   0.858   1.041  0.2048 -0.0678 -0.6518
  848MOL0     C11823  -0.109   0.918   0.999 -0.4768 -0.5280  0.1965
  848MOL0     C11824  -0.238   0.850   0.964  1.4650  0.1524  0.2080
  848MOL0     C11825  -0.234   0.798   0.824  0.3383 -0.9631  0.0266
  848MOL0     C11826  -0.261   0.918   0.726 -0.0692 -0.4391 -0.4677
  848MOL0     C11827  -0.270   0.863   0.583  0.5517  0.6206 -0.6477
  848MOL0     O11828  -0.388   0.789   0.554 -0.8302 -0.0189  0.1046
  848MOL0     C11829  -0.502   0.843   0.506 -0.7573  0.2238  0.5734
  848MOL0     C11830  -0.599   0.895   0.595  0.8500 -0.3628  0.1202
  848MOL0     C11831  -0.720   0.951   0.543 -0.4341 -0.2905  0.2365
  848MOL0     C11832  -0.744   0.950   0.409 -0.8571 -0.9404  0.0854
  848MOL0     C11833  -0.864   1.010   0.351 -0.2319  0.2724  0.5468
  848MOL0     O11834  -0.853   1.063   0.222  0.8067 -0.2871  0.1773
  848MOL0     C11835  -0.970   1.099   0.150  0.1823  0.4109 -0.3009
  848MOL0     C11836  -0.952   1.174   0.032  0.4924  0.5033  0.5712
  848MOL0     C11837  -1.047   1.206  -0.059  0.1394 -0.1333  0.1735
  848MOL0     C11838  -1.180   1.195  -0.030  0.2131 -0.4380  1.0785
  848MOL0     O11839  -1.280   1.239  -0.107  0.3232  0.7168  0.0356
  848MOL0     C11840  -1.250   1.252  -0.243 -1.1228  0.5342 -0.3782
  848MOL0     C11841  -1.383   1.254  -0.315 -0.2708  0.1329 -0.4474
  848MOL0     C11842  -1.470   1.129  -0.299  0.1472 -0.2780  0.6450
  848MOL0     C11843  -1.596   1.152  -0.377  0.8865  0.1767 -0.2097
  848MOL0     C11844  -1.691   1.025  -0.368  0.0269 -0.0062 -0.9061
  848MOL0     C11845  -1.819   1.044  -0.443 -1.5154 -0.7012  0.1768
  848MOL0     C11846  -1.913   0.926  -0.426  0.3201  0.2005 -0.3274
  848MOL0     C11847  -2.041   0.927  -0.520 -0.8875 -0.1798 -1.2671
  848MOL0    Cl11848  -1.989   0.868  -0.681  0.4106 -0.2078  0.0336
  848MOL0     C11849  -1.208   1.131   0.088  0.4427  0.3020 -0.2458
  848MOL0     C11850  -1.108   1.090   0.178 -0.4237 -0.0334 -0.5696
  848MOL0     O11851  -0.973   0.976   0.398  0.3060  0.0494 -0.4128
  848MOL0     C11852  -0.647   0.898   0.328  0.0083 -0.3889  0.6272
  848MOL0     C11853  -0.523   0.848   0.371 -0.2256 -0.6928 -0.1195
  848MOL0     N11854  -0.075   1.055   0.986  0.0004  0.0917  0.2296
  848MOL0     N11855   0.045   1.081   1.029  0.9487  0.0303  0.9329
  848MOL0     C11856   0.824   1.382   1.824  0.6508 -0.3408  0.0403
  848MOL0     C11857   0.786   1.494   1.896  0.0347  0.9270 -0.5478
  848MOL0     C11858   0.616   1.869   2.053 -0.1710 -0.3033 -0.9322
  848MOL0     C11859   0.485   1.885   2.114 -0.9860  0.5048  0.4457
  848MOL0     C11860   0.467   1.995   2.196  0.9747 -0.2433  0.6421
  848MOL0     C11861   0.564   2.083   2.238 -0.2050 -0.2569  0.1516
  848MOL0     O11862   0.544   2.195   2.309  0.0514  0.1996  0.0852
  848MOL0     C11863   0.415   2.238   2.365 -0.0913 -0.9463  0.6059
  848MOL0     C11864   0.387   2.158   2.492  0.1764 -0.4176 -0.4415
  848MOL0     C11865   0.240   2.186   2.546 -0.0831 -0.7272  0.2006
  848MOL0     C11866   0.128   2.101   2.493 -0.1918  0.1625 -0.0550
  848MOL0     C11867   0.074   2.141   2.361 -0.5246  0.2862  0.7161
  848MOL0     C11868   0.033   2.179   2.250  0.0085 -0.4803 -1.1563
  848MOL0     C11869   0.689   2.062   2.183 -0.5443  0.1455  0.7074
  848MOL0     C11870   0.717   1.960   2.082 -0.8119  0.4448 -0.8124
  848MOL0     H11871   0.458   1.453   1.926  0.1652 -0.0232 -1.8114
  848MOL0     H11872   0.504   1.244   1.815 -0.7263  1.5975 -1.8907
  848MOL0     H11873   0.576   1.123   1.662  0.3630 -1.4279 -1.3748
  848MOL0     H11874   0.662   1.003   1.753  0.0111 -1.4314 -1.5049
  848MOL0     H11875   0.801   0.945   1.575  0.4890 -0.2487 -3.8554
  848MOL0     H11876   0.775   1.093   1.483 -0.6402  0.6031  0.5259
  848MOL0     H11877   0.577   0.862   1.533 -2.7181 -0.0294 -0.8028
  848MOL0     H11878   0.633   0.905   1.375 -0.6230 -3.0188  0.7341
  848MOL0     H11879   0.405   1.014   1.535 -1.4218 -0.0583 -1.2274
  848MOL0     H11880   0.503   1.137   1.450  0.7448 -0.3576  0.1144
  848MOL0     H11881   0.453   1.062   1.251 -0.5843 -1.5206 -2.3990
  848MOL0     H11882   0.299   1.063   1.338 -0.3853 -0.8608 -2.9515
  848MOL0     H11883   0.357   0.814   1.388 -1.8554 -1.1971 -0.8270
  848MOL0     H11884   0.449   0.825   1.234 -2.1361 -1.4527 -0.9176
  848MOL0     H11885   0.232   0.738   1.205 -0.0357  0.2495  2.0549
  848MOL0     H11886   0.152   0.870   1.284  1.0913  0.2752  1.1185
  848MOL0     H11887   0.261   0.842   1.005 -1.5042 -1.9477  1.8985
  848MOL0     H11888   0.289   1.008   1.072 -0.0574  1.3794 -3.8071
  848MOL0     H11889   0.026   0.753   1.057 -1.8124 -0.5658 -0.8609
  848MOL0     H11890  -0.325   0.912   0.981  0.7950 -0.8655  0.5726
  848MOL0     H11891  -0.251   0.767   1.034 -1.1408 -0.0453 -0.4064
  848MOL0     H11892  -0.307   0.717   0.822 -1.0131  0.2325 -2.2621
  848MOL0     H11893  -0.133   0.762   0.800  0.2266 -1.3494  0.1343
  848MOL0     H11894  -0.359   0.960   0.753  0.4450 -0.6499  1.9316
  848MOL0     H11895  -0.182   0.993   0.725 -1.6335  1.3308  0.4871
  848MOL0     H11896  -0.182   0.810   0.547  0.5484  1.8319 -2.5355
  848MOL0     H11897  -0.283   0.952   0.521  2.2360  0.6630 -0.9767
  848MOL0     H11898  -0.571   0.906   0.700  0.4375  0.3029  0.1703
  848MOL0     H11899  -0.776   1.007   0.618  0.4108 -1.2267  1.6066
  848MOL0     H11900  -0.854   1.200  -0.006 -0.7406  2.2355 -1.6225
  848MOL0     H11901  -1.019   1.251  -0.153  1.9561  0.8664  1.1520
  848MOL0     H11902  -1.192   1.166  -0.277 -0.7203  0.9586 -0.7689
  848MOL0     H11903  -1.197   1.345  -0.264 -1.0613  0.7403  0.6356
  848MOL0     H11904  -1.359   1.273  -0.420  0.7405  2.8387  0.1864
  848MOL0     H11905  -1.447   1.337  -0.287 -0.7728 -0.8764  1.5612
  848MOL0     H11906  -1.492   1.102  -0.196 -0.2915 -2.0051  0.1463
  848MOL0     H11907  -1.423   1.041  -0.346 -3.6187 -1.1120 -2.0864
  848MOL0     H11908  -1.657   1.237  -0.345 -1.7183 -0.9513 -1.8143
  848MOL0     H11909  -1.580   1.169  -0.484  1.6034 -0.6424 -0.2356
  848MOL0     H11910  -1.719   1.021  -0.262  3.9449 -2.4069  0.2539
  848MOL0     H11911  -1.636   0.936  -0.398 -1.9949 -1.6771  0.0949
  848MOL0     H11912  -1.801   1.057  -0.550 -1.6185  0.0222  0.2436
  848MOL0     H11913  -1.868   1.133  -0.403  0.2358 -0.2293  1.3699
  848MOL0     H11914  -1.870   0.830  -0.457 -0.9075 -1.3590  2.4485
  848MOL0     H11915  -1.943   0.919  -0.321  0.0473 -1.7903 -0.4932
  848MOL0     H11916  -2.074   1.031  -0.505 -2.4554 -1.1436  4.4648
  848MOL0     H11917  -2.126   0.863  -0.493  0.5568 -2.1936 -1.3642
  848MOL0     H11918  -1.309   1.108   0.120  0.3296 -0.2632 -0.9965
  848MOL0     H11919  -1.161   1.052   0.265 -2.0021  1.6288 -0.7292
  848MOL0     H11920  -0.662   0.888   0.221 -1.1111 -2.8165  0.9327
  848MOL0     H11921  -0.451   0.811   0.299 -1.1305 -2.2473 -0.2818
  848MOL0     H11922   0.923   1.360   1.785  1.1018  0.9582  0.3969
  848MOL0     H11923   0.863   1.560   1.936 -1.5059  1.3440  1.9377
  848MOL0     H11924   0.401   1.817   2.105 -2.0773  1.7380  0.9445
  848MOL0     H11925   0.366   2.014   2.232  0.1327 -2.8373 -0.1819
  848MOL0     H11926   0.330   2.220   2.299 -0.5065 -1.7899  1.3351
  848MOL0     H11927   0.414   2.343   2.395  2.5377 -0.2342 -1.4731
  848MOL0     H11928   0.396   2.052   2.467  2.0364 -0.5061  0.4490
  848MOL0     H11929   0.460   2.181   2.570 -0.1613  1.6321 -0.6681
  848MOL0     H11930   0.212   2.289   2.523  1.6559  0.0528  1.3720
  848MOL0     H11931   0.242   2.176   2.655 -1.0762 -0.5863  0.2452
  848MOL0     H11932   0.155   1.997   2.476  1.3792  0.7878 -1.6216
  848MOL0     H11933   0.043   2.103   2.562  0.2468 -2.4227  0.6671
  848MOL0     H11934   0.002   2.230   2.161  2.7035  1.7266 -0.9655
  848MOL0     H11935   0.766   2.131   2.216 -1.2451  1.4917 -0.3479
  848MOL0     H11936   0.817   1.950   2.039 -0.0941  1.0463  0.6428
  849MOL0     O11937   3.680   0.067   4.716 -0.0138  0.5027  0.1839
  849MOL0     C11938   3.619   0.164   4.745  0.8826  0.8936 -0.5094
  849MOL0     O11939   3.485   0.164   4.769 -0.5931  0.0338 -0.1469
  849MOL0     C11940   3.413   0.082   4.692 -0.4219  0.0238  0.1286
  849MOL0     C11941   3.377  -0.043   4.743 -0.3975 -0.7920 -0.5526
  849MOL0     C11942   3.319  -0.141   4.664 -0.3550 -0.2440  0.0365
  849MOL0     C11943   3.297  -0.109   4.525  0.5565 -0.5032 -0.8855
  849MOL0     O11944   3.245  -0.192   4.435 -0.6922  0.4916  0.7064
  849MOL0     C11945   3.257  -0.336   4.440  0.7597 -0.2117  0.1465
  849MOL0     C11946   3.185  -0.410   4.322  0.7825 -0.4491 -0.7391
  849MOL0     C11947   3.034  -0.367   4.317  0.2219  1.5933 -0.3120
  849MOL0     C11948   2.954  -0.450   4.425 -0.0346  0.2136 -0.3390
  849MOL0     C11949   2.798  -0.434   4.410 -0.0350  0.0276 -0.2991
  849MOL0     C11950   2.733  -0.499   4.526 -0.6160 -0.9413 -0.1740
  849MOL0     C11951   2.594  -0.557   4.487 -0.4383 -0.0059  0.1825
  849MOL0     C11952   2.602  -0.703   4.439 -0.1771 -0.8565  0.1268
  849MOL0     N11953   2.472  -0.750   4.400 -0.5267  0.0059  0.2201
  849MOL0     C11954   2.424  -0.738   4.266 -0.0870 -0.6737 -0.5335
  849MOL0     C11955   2.310  -0.819   4.267  0.1733  0.3917 -0.1225
  849MOL0     C11956   2.216  -0.839   4.145 -0.7427 -0.8862  0.1074
  849MOL0     C11957   2.066  -0.859   4.180  0.4005  0.3109 -0.5234
  849MOL0     C11958   2.001  -0.733   4.229 -0.6219 -0.1591  0.2014
  849MOL0     C11959   1.862  -0.746   4.296  0.8381  0.4838 -0.0380
  849MOL0     O11960   1.768  -0.663   4.233 -0.7655 -0.2421  0.3309
  849MOL0     C11961   1.635  -0.666   4.264  0.1989  0.7943  0.0304
  849MOL0     C11962   1.587  -0.738   4.371 -0.8107 -1.3508 -0.2183
  849MOL0     C11963   1.452  -0.742   4.399  0.2961 -0.1537 -0.5755
  849MOL0     C11964   1.359  -0.677   4.321 -0.3770 -0.6424  0.5186
  849MOL0     C11965   1.217  -0.698   4.335 -0.3201 -0.0077 -0.2597
  849MOL0     O11966   1.173  -0.750   4.453 -0.3818 -0.1125 -0.2394
  849MOL0     C11967   1.038  -0.781   4.461 -0.8533 -0.8431 -0.8054
  849MOL0     C11968   0.986  -0.901   4.432  0.4805 -0.2598 -0.7057
  849MOL0     C11969   0.847  -0.921   4.450 -1.0065 -0.2805  0.3769
  849MOL0     C11970   0.764  -0.816   4.499 -0.2632  0.5927  1.3859
  849MOL0     O11971   0.643  -0.844   4.541  0.8085 -0.4385  0.1132
  849MOL0     C11972   0.552  -0.882   4.440  0.5046 -0.7530  0.0436
  849MOL0     C11973   0.421  -0.921   4.505  0.3827 -0.0299  0.2345
  849MOL0     C11974   0.301  -0.907   4.402 -0.8299  0.0488  0.4628
  849MOL0     C11975   0.166  -0.930   4.476  0.0084 -0.0722 -0.4669
  849MOL0     C11976   0.043  -0.913   4.388 -0.1691 -0.3063 -0.0650
  849MOL0     C11977  -0.085  -0.949   4.468 -0.1863 -0.2417 -0.1871
  849MOL0     C11978  -0.204  -0.977   4.370 -0.2405 -0.1817  0.3503
  849MOL0     C11979  -0.325  -1.033   4.445  0.1940 -1.0265 -0.4786
  849MOL0    Cl11980  -0.464  -1.078   4.343 -0.1855 -0.1671 -0.0478
  849MOL0     C11981   0.821  -0.691   4.528 -0.1037 -0.2965 -0.5091
  849MOL0     C11982   0.957  -0.677   4.495  0.0986  0.5623  0.2615
  849MOL0     O11983   1.150  -0.680   4.229  0.2934 -0.6959 -0.5351
  849MOL0     C11984   1.411  -0.609   4.210 -0.7494 -0.2866  0.2486
  849MOL0     C11985   1.552  -0.594   4.188 -0.2413 -0.1074  0.0452
  849MOL0     N11986   2.305  -0.876   4.394  0.4373 -0.3057  0.2536
  849MOL0     N11987   2.395  -0.835   4.476 -0.7081 -0.0504  0.5504
  849MOL0     C11988   3.316   0.026   4.485  0.9098  0.6754 -0.8519
  849MOL0     C11989   3.372   0.120   4.569 -0.8154  0.6845 -0.3179
  849MOL0     C11990   3.689   0.267   4.809  0.4219 -0.7705  0.5756
  849MOL0     C11991   3.828   0.258   4.837 -0.5383  0.4942 -1.0361
  849MOL0     C11992   3.892   0.365   4.901 -0.0194 -0.1952 -0.3612
  849MOL0     C11993   3.830   0.486   4.922  0.4691 -0.9716 -0.2927
  849MOL0     O11994   3.905   0.583   4.969 -0.0036 -0.3674 -0.9476
  849MOL0     C11995   3.859   0.711   4.953 -0.0951 -0.8849  0.2041
  849MOL0     C11996   3.973   0.815   4.992 -0.7917  0.9224  0.1092
  849MOL0     C11997   4.064   0.823   4.865  0.4188 -0.1833  0.1991
  849MOL0     C11998   4.163   0.931   4.891 -0.0028 -1.3097 -0.7535
  849MOL0     C11999   4.257   0.953   4.782  0.2220 -0.4774 -0.0167
  849MOL0     C12000   4.333   0.980   4.690  0.1357 -0.5350 -0.0850
  849MOL0     C12001   3.694   0.498   4.888 -0.8175 -0.3931  0.0340
  849MOL0     C12002   3.627   0.388   4.845  0.6000 -0.1962  0.3059
  849MOL0     H12003   3.398  -0.055   4.848 -1.7574 -0.8126 -0.2634
  849MOL0     H12004   3.296  -0.236   4.711 -2.5765  0.6673  0.9486
  849MOL0     H12005   3.214  -0.371   4.534 -1.0820  0.8793 -0.2523
  849MOL0     H12006   3.363  -0.358   4.422  0.1524 -0.9849 -3.0374
  849MOL0     H12007   3.200  -0.517   4.339 -1.6273 -0.3512  3.6636
  849MOL0     H12008   3.241  -0.373   4.236  2.2888 -0.2411  0.2774
  849MOL0     H12009   2.990  -0.384   4.219  0.7380 -0.1598 -0.2612
  849MOL0     H12010   3.021  -0.260   4.334  0.3107  1.6480 -0.5820
  849MOL0     H12011   2.974  -0.557   4.434  0.1504  0.2771 -0.0168
  849MOL0     H12012   2.976  -0.407   4.523  1.2196 -3.6512  1.2775
  849MOL0     H12013   2.763  -0.472   4.314  1.0458  0.7323 -0.9943
  849MOL0     H12014   2.772  -0.328   4.413  1.0307  0.2815  0.6763
  849MOL0     H12015   2.737  -0.420   4.602 -1.4196  0.6956 -1.7702
  849MOL0     H12016   2.803  -0.579   4.552 -0.6693 -0.7828  0.4863
  849MOL0     H12017   2.541  -0.546   4.582  2.8181  2.3706  1.9507
  849MOL0     H12018   2.555  -0.501   4.401  2.5723 -0.4534 -1.6155
  849MOL0     H12019   2.655  -0.766   4.511  0.1868 -0.9275 -0.1975
  849MOL0     H12020   2.666  -0.704   4.351 -2.2556  0.6371 -1.4980
  849MOL0     H12021   2.461  -0.679   4.183 -1.3470  1.5474  0.3942
  849MOL0     H12022   2.248  -0.920   4.079  1.4623  3.2172 -4.5607
  849MOL0     H12023   2.227  -0.754   4.077 -2.0319 -1.6079 -1.0604
  849MOL0     H12024   2.059  -0.930   4.263  0.7798 -0.7144 -1.3336
  849MOL0     H12025   2.006  -0.905   4.100 -1.7849 -0.4113  1.4115
  849MOL0     H12026   2.078  -0.687   4.291  0.5418  0.7699 -1.8382
  849MOL0     H12027   1.994  -0.672   4.139  1.4278 -0.8049 -0.4472
  849MOL0     H12028   1.866  -0.706   4.398  1.0020  1.9869 -0.5991
  849MOL0     H12029   1.827  -0.850   4.295  3.7690 -0.6163  1.4174
  849MOL0     H12030   1.658  -0.791   4.433 -0.0318 -3.5911 -2.8606
  849MOL0     H12031   1.419  -0.809   4.478 -0.5006  2.2499  1.2491
  849MOL0     H12032   1.056  -0.980   4.405 -1.0338 -2.7973  2.2166
  849MOL0     H12033   0.810  -1.023   4.439 -1.1573  0.0394 -3.1711
  849MOL0     H12034   0.581  -0.968   4.379 -1.0970 -0.5400 -1.0681
  849MOL0     H12035   0.526  -0.797   4.376 -0.9081 -0.7987  0.5307
  849MOL0     H12036   0.405  -0.847   4.584  1.2252  2.1090 -1.5250
  849MOL0     H12037   0.423  -1.020   4.552  1.4353 -0.3103 -0.3753
  849MOL0     H12038   0.302  -0.972   4.314  0.4070  2.8781 -1.7953
  849MOL0     H12039   0.299  -0.804   4.365 -0.4987  0.3091  1.1585
  849MOL0     H12040   0.163  -1.032   4.516 -0.3763 -0.3045 -1.0665
  849MOL0     H12041   0.143  -0.855   4.553 -2.5700 -1.0438 -0.1945
  849MOL0     H12042   0.055  -0.968   4.294  3.2307 -0.2253  0.1661
  849MOL0     H12043   0.039  -0.813   4.343  0.1981  0.0289  0.6325
  849MOL0     H12044  -0.109  -0.870   4.538 -3.1611 -0.3530 -0.9477
  849MOL0     H12045  -0.072  -1.047   4.516  0.1703 -0.6041 -0.9989
  849MOL0     H12046  -0.232  -0.883   4.320  0.5010  0.9543  1.9825
  849MOL0     H12047  -0.178  -1.046   4.289 -0.2893 -0.3820  0.5064
  849MOL0     H12048  -0.351  -0.947   4.507  2.4078  0.3985 -1.3886
  849MOL0     H12049  -0.290  -1.114   4.509  1.4516  1.3571  2.1080
  849MOL0     H12050   0.759  -0.614   4.574 -0.3223 -1.0553  0.5086
  849MOL0     H12051   0.998  -0.576   4.499 -0.1288  0.6357  0.8554
  849MOL0     H12052   1.350  -0.562   4.133  0.7358  1.5550  0.1080
  849MOL0     H12053   1.601  -0.535   4.111 -2.9024  2.4762  0.1480
  849MOL0     H12054   3.298   0.059   4.384  0.6395  1.9864 -0.3957
  849MOL0     H12055   3.394   0.221   4.534  0.7804  0.2525 -0.6553
  849MOL0     H12056   3.888   0.169   4.828 -1.1509 -0.0812  0.3551
  849MOL0     H12057   3.998   0.356   4.924  0.5556  1.8685 -1.9334
  849MOL0     H12058   3.776   0.744   5.017 -0.7257  2.4469 -2.0758
  849MOL0     H12059   3.828   0.737   4.852 -1.9477 -0.8854  0.7316
  849MOL0     H12060   3.927   0.914   4.999 -1.6626  0.7621 -2.2886
  849MOL0     H12061   4.019   0.795   5.089 -1.6135  0.8369  0.4890
  849MOL0     H12062   4.003   0.853   4.780 -2.2423  0.2129  2.1359
  849MOL0     H12063   4.118   0.729   4.851  0.4731 -0.1170 -0.0437
  849MOL0     H12064   4.116   1.023   4.926  2.5086 -0.6972  1.3707
  849MOL0     H12065   4.223   0.902   4.978  1.9105  3.6797 -0.0573
  849MOL0     H12066   4.385   0.995   4.598 -1.3384  1.9725 -0.6303
  849MOL0     H12067   3.649   0.595   4.904  0.1934 -0.2370  2.3081
  849MOL0     H12068   3.525   0.414   4.819 -0.2059 -0.6504  2.7426
  850MOL0     O12069   5.081   9.583   8.304 -0.0572 -0.0615 -0.0711
  850MOL0     C12070   5.134   9.513   8.221 -0.1275  0.8317 -0.5778
  850MOL0     O12071   5.091   9.386   8.187  1.0093 -0.1370  0.5520
  850MOL0     C12072   4.959   9.366   8.204  0.1800 -0.7905  0.6186
  850MOL0     C12073   4.855   9.467   8.171 -0.0700 -0.2662  0.3269
  850MOL0     C12074   4.713   9.429   8.177 -0.2212  0.5416 -0.7334
  850MOL0     C12075   4.679   9.300   8.211 -0.3392 -0.0253 -0.1539
  850MOL0     O12076   4.551   9.266   8.224  0.3931 -0.0402  0.2371
  850MOL0     C12077   4.498   9.135   8.239 -0.3449  0.4416 -1.0366
  850MOL0     C12078   4.353   9.140   8.244 -0.3702 -0.5680  0.0230
  850MOL0     C12079   4.305   9.221   8.363  0.4812  0.4725 -0.3715
  850MOL0     C12080   4.156   9.263   8.338 -0.4884  0.1064 -0.1332
  850MOL0     C12081   4.104   9.362   8.443  0.4763  0.5990 -0.7120
  850MOL0     C12082   4.051   9.290   8.569 -0.2431  0.1736  0.7532
  850MOL0     C12083   3.905   9.273   8.562  0.9012  0.0401  0.3435
  850MOL0     C12084   3.847   9.158   8.650 -0.4763  0.2717  0.6596
  850MOL0     N12085   3.703   9.178   8.662  0.2930  0.4383 -0.7806
  850MOL0     C12086   3.646   9.263   8.752  1.2462 -0.1314  0.1436
  850MOL0     C12087   3.516   9.259   8.723  1.2180  0.9241 -0.1216
  850MOL0     C12088   3.406   9.318   8.802 -0.4371  0.6869  0.6969
  850MOL0     C12089   3.301   9.222   8.864 -0.9000 -0.1838 -0.7423
  850MOL0     C12090   3.196   9.173   8.762  1.0419  0.5508  0.4205
  850MOL0     C12091   3.055   9.219   8.801  0.6267 -0.0378  0.2311
  850MOL0     O12092   2.980   9.174   8.694  0.2543  0.1530 -0.0910
  850MOL0     C12093   2.851   9.138   8.706  0.0342 -0.9346 -0.0169
  850MOL0     C12094   2.818   9.014   8.646 -0.5888 -0.0343 -1.1784
  850MOL0     C12095   2.690   8.961   8.648 -1.2016  0.0201  0.3345
  850MOL0     C12096   2.586   9.041   8.692  0.2484 -0.8986  0.1114
  850MOL0     C12097   2.443   8.983   8.695 -0.6778 -0.0687 -0.2946
  850MOL0     O12098   2.361   9.082   8.701 -0.3742 -0.2863  0.0980
  850MOL0     C12099   2.224   9.057   8.708 -0.0319 -0.2094  0.7494
  850MOL0     C12100   2.157   8.970   8.800  0.7499 -0.1792 -0.2701
  850MOL0     C12101   2.016   8.967   8.809 -0.9793 -0.1972  0.2080
  850MOL0     C12102   1.943   9.064   8.737  1.0863 -0.0342  0.2784
  850MOL0     O12103   1.803   9.074   8.739 -0.2393  0.5482  0.1850
  850MOL0     C12104   1.742   8.996   8.844 -0.0730 -0.1092 -0.5130
  850MOL0     C12105   1.590   9.006   8.850  0.0943  0.5747  0.1758
  850MOL0     C12106   1.527   9.132   8.904  0.1807 -1.1652 -0.0890
  850MOL0     C12107   1.382   9.163   8.853  0.2558  0.2468 -0.1563
  850MOL0     C12108   1.280   9.057   8.887 -0.0889 -0.1532  0.6563
  850MOL0     C12109   1.210   9.076   9.027  0.7066  0.1472 -0.4421
  850MOL0     C12110   1.297   9.027   9.141  0.6862  0.5193 -0.2252
  850MOL0     C12111   1.214   8.992   9.259  1.3260 -0.4528  0.3760
  850MOL0    Cl12112   1.120   9.133   9.316  0.2226  0.6297 -0.2455
  850MOL0     C12113   2.008   9.155   8.654 -0.0216 -0.2055 -0.0642
  850MOL0     C12114   2.149   9.146   8.635  0.3012 -0.6091  0.2175
  850MOL0     O12115   2.418   8.865   8.666 -0.5928 -0.8936 -0.4201
  850MOL0     C12116   2.613   9.162   8.751 -0.2914  0.1608  0.5038
  850MOL0     C12117   2.744   9.203   8.762  0.4753  0.1543  0.2247
  850MOL0     N12118   3.497   9.173   8.612  0.8370 -0.4029 -0.3096
  850MOL0     N12119   3.613   9.129   8.581 -0.2305 -0.0229  0.4010
  850MOL0     C12120   4.784   9.207   8.237  0.4185  0.7375  0.5679
  850MOL0     C12121   4.919   9.236   8.230 -0.1186  0.8756 -0.0860
  850MOL0     C12122   5.268   9.550   8.175 -0.1001  0.2086  0.1563
  850MOL0     C12123   5.311   9.675   8.190 -0.5947  0.3572 -0.9133
  850MOL0     C12124   5.439   9.709   8.141 -0.0076  0.0085  0.5190
  850MOL0     C12125   5.521   9.614   8.077  0.7748 -0.4736  0.2950
  850MOL0     O12126   5.652   9.631   8.042 -0.6309 -0.9236 -0.4191
  850MOL0     C12127   5.708   9.762   8.053 -0.1671  0.6803  0.3824
  850MOL0     C12128   5.855   9.735   8.041 -0.0551 -0.0772 -0.4249
  850MOL0     C12129   5.928   9.867   8.022  0.5850  0.2401 -0.7988
  850MOL0     C12130   5.999   9.912   8.154 -0.3389  0.0637 -0.4246
  850MOL0     C12131   6.122   9.838   8.178 -0.2577  0.6626 -0.2451
  850MOL0     C12132   6.221   9.772   8.184  0.2296 -0.3353 -0.0003
  850MOL0     C12133   5.470   9.480   8.073 -0.1994 -0.0513 -0.6553
  850MOL0     C12134   5.343   9.453   8.112 -0.0086  0.3779  0.1122
  850MOL0     H12135   4.895   9.564   8.142 -1.7736  0.9266  1.7548
  850MOL0     H12136   4.637   9.504   8.155  0.1814  1.1019 -0.2279
  850MOL0     H12137   4.550   9.094   8.326  0.1909 -1.6872 -2.2692
  850MOL0     H12138   4.526   9.070   8.155  1.6932  1.0307 -0.8696
  850MOL0     H12139   4.317   9.037   8.248  0.1989 -0.8551 -1.4026
  850MOL0     H12140   4.320   9.184   8.149 -1.2464  2.0865  1.4692
  850MOL0     H12141   4.370   9.306   8.382  1.5073 -0.1338 -1.0422
  850MOL0     H12142   4.315   9.159   8.453  0.1288  0.2395 -0.4930
  850MOL0     H12143   4.142   9.306   8.238  2.6165 -2.6195 -1.9591
  850MOL0     H12144   4.098   9.171   8.339 -0.1234 -0.2303 -2.5459
  850MOL0     H12145   4.026   9.420   8.392  1.1010  0.9585 -1.2813
  850MOL0     H12146   4.185   9.428   8.475 -0.8222  1.5047  0.8495
  850MOL0     H12147   4.088   9.342   8.658  1.1505 -3.6046  2.5967
  850MOL0     H12148   4.100   9.192   8.570  0.7347  0.6426  0.4519
  850MOL0     H12149   3.858   9.363   8.604  1.8518  0.1742  1.1521
  850MOL0     H12150   3.879   9.270   8.455  0.6828  2.0490  0.2916
  850MOL0     H12151   3.897   9.176   8.746  4.1047  0.9769 -1.5680
  850MOL0     H12152   3.866   9.053   8.626  0.3864  0.1539  1.7685
  850MOL0     H12153   3.702   9.323   8.824 -0.1331  1.8638 -0.3620
  850MOL0     H12154   3.355   9.395   8.744 -1.5126 -0.0159  0.6891
  850MOL0     H12155   3.449   9.361   8.894 -1.7900 -0.5528  1.9493
  850MOL0     H12156   3.259   9.274   8.951  1.4293 -1.4190  1.2741
  850MOL0     H12157   3.357   9.139   8.908 -0.6607  1.0004  1.3251
  850MOL0     H12158   3.212   9.205   8.659  0.5454  1.0625  0.4968
  850MOL0     H12159   3.184   9.065   8.770  0.9424  0.6724  2.7416
  850MOL0     H12160   3.052   9.327   8.812 -0.6017  0.0241 -0.5617
  850MOL0     H12161   3.030   9.176   8.898  0.7975  1.7260  1.0981
  850MOL0     H12162   2.909   8.965   8.615  0.8592 -1.4334  4.2386
  850MOL0     H12163   2.668   8.864   8.606  0.4970 -0.5110  0.5694
  850MOL0     H12164   2.229   8.903   8.846  1.7639 -0.3942 -2.0781
  850MOL0     H12165   1.976   8.879   8.858  1.9435 -3.6011 -2.8642
  850MOL0     H12166   1.778   9.025   8.944 -1.1176 -0.0719 -0.1289
  850MOL0     H12167   1.762   8.890   8.828 -0.2135  0.1612 -2.7992
  850MOL0     H12168   1.551   8.922   8.908  3.7929 -2.4998 -1.4193
  850MOL0     H12169   1.544   9.008   8.751 -2.9218  1.8334  1.4791
  850MOL0     H12170   1.578   9.222   8.868 -1.7903 -0.1533 -0.5183
  850MOL0     H12171   1.526   9.134   9.013 -1.2914 -0.7224 -0.0829
  850MOL0     H12172   1.356   9.256   8.905  2.4429  0.2966  0.9522
  850MOL0     H12173   1.387   9.176   8.744  3.3244  2.8851  0.1482
  850MOL0     H12174   1.337   8.965   8.874  2.0981  1.5474 -3.6558
  850MOL0     H12175   1.203   9.054   8.809 -0.5511 -1.8030  1.1353
  850MOL0     H12176   1.122   9.013   9.020  0.3217  0.6604 -0.2707
  850MOL0     H12177   1.175   9.179   9.039  0.0978 -0.2663  1.7522
  850MOL0     H12178   1.349   8.936   9.109 -0.8490  0.0788 -1.6145
  850MOL0     H12179   1.366   9.108   9.169  2.7144 -1.5031  0.9401
  850MOL0     H12180   1.284   8.960   9.338  1.6886 -0.5963 -0.0024
  850MOL0     H12181   1.155   8.903   9.234 -0.3548  0.9166 -0.7525
  850MOL0     H12182   1.942   9.229   8.611 -0.1621 -0.9884 -1.2616
  850MOL0     H12183   2.204   9.209   8.565  0.6720 -2.0922 -0.8657
  850MOL0     H12184   2.539   9.227   8.797 -0.3473  0.2647  0.2675
  850MOL0     H12185   2.763   9.299   8.810 -2.3744  1.2126 -0.6063
  850MOL0     H12186   4.764   9.102   8.255  2.5569 -0.1349 -1.6091
  850MOL0     H12187   4.996   9.159   8.229 -0.6893  0.2745 -2.1003
  850MOL0     H12188   5.252   9.755   8.233 -0.8751  0.3496 -1.2791
  850MOL0     H12189   5.465   9.814   8.148  0.7551 -0.2554  2.5698
  850MOL0     H12190   5.676   9.795   8.152 -2.8331 -1.4793  0.3868
  850MOL0     H12191   5.663   9.809   7.965 -0.1859 -2.1260 -1.2416
  850MOL0     H12192   5.894   9.683   8.129 -2.1599  0.5500  0.9564
  850MOL0     H12193   5.881   9.662   7.963  1.9163 -0.2281  0.3069
  850MOL0     H12194   5.846   9.929   7.985 -0.4011 -2.0098 -2.6568
  850MOL0     H12195   5.997   9.861   7.937 -0.3372  0.9947 -1.6240
  850MOL0     H12196   6.028  10.018   8.154  0.7769 -0.2336 -0.9558
  850MOL0     H12197   5.930   9.898   8.238  0.0163  0.5633 -0.0485
  850MOL0     H12198   6.307   9.708   8.179 -0.6820 -1.5645 -0.3546
  850MOL0     H12199   5.536   9.403   8.034  2.2291  3.1548 -3.4990
  850MOL0     H12200   5.308   9.352   8.094  1.1540  0.1338 -0.9113
  851MOL0     O12201   1.026   1.949   2.936 -0.4421  0.3369  0.4284
  851MOL0     C12202   1.079   2.024   3.014  0.3827 -0.5882 -0.4201
  851MOL0     O12203   1.017   2.069   3.129 -0.6097 -0.1863 -0.6024
  851MOL0     C12204   0.889   2.039   3.159  0.5745  0.2877 -0.1416
  851MOL0     C12205   0.803   2.141   3.178 -0.4446 -0.6736 -0.0592
  851MOL0     C12206   0.671   2.130   3.216 -0.5778 -0.1618  0.5116
  851MOL0     C12207   0.621   1.999   3.234 -0.1728 -0.0195 -0.2010
  851MOL0     O12208   0.495   1.957   3.264  0.0894 -1.1888  0.0249
  851MOL0     C12209   0.385   2.058   3.258  0.3263  0.3069  0.5731
  851MOL0     C12210   0.254   1.980   3.261  0.4344 -0.2241  0.0866
  851MOL0     C12211   0.130   2.068   3.271  0.6096 -0.5544 -0.0667
  851MOL0     C12212   0.011   1.964   3.283 -0.3791 -0.1414  0.3531
  851MOL0     C12213  -0.117   2.038   3.284 -0.2837  0.0730  0.6273
  851MOL0     C12214  -0.232   1.952   3.244 -0.1091  0.7229 -0.1064
  851MOL0     C12215  -0.354   2.043   3.230  0.2906  0.0449  0.4143
  851MOL0     C12216  -0.488   1.971   3.206 -0.8213 -0.0318 -0.1579
  851MOL0     N12217  -0.595   2.063   3.186 -0.2563 -0.2742  0.2986
  851MOL0     C12218  -0.667   2.070   3.060  0.6387  0.4934 -0.6777
  851MOL0     C12219  -0.764   2.160   3.079 -0.3865  0.7707  0.2292
  851MOL0     C12220  -0.862   2.212   2.978 -0.8868 -0.1507  0.5959
  851MOL0     C12221  -0.814   2.349   2.925  0.3198 -0.3392 -0.7813
  851MOL0     C12222  -0.897   2.419   2.814  0.1001 -0.7513 -0.2339
  851MOL0     C12223  -0.949   2.329   2.702 -0.8057  0.3456  0.6451
  851MOL0     O12224  -1.032   2.399   2.605  0.0904  0.4140 -0.2874
  851MOL0     C12225  -1.043   2.355   2.474  0.1304  0.6153 -0.0044
  851MOL0     C12226  -1.140   2.413   2.399  0.5102  0.2741  0.2438
  851MOL0     C12227  -1.166   2.387   2.264  0.2397  0.3281  0.7051
  851MOL0     C12228  -1.089   2.286   2.204  0.6009  0.0829  0.6924
  851MOL0     C12229  -1.110   2.238   2.063  0.0023 -1.3504  0.6610
  851MOL0     O12230  -1.213   2.289   1.991  0.7721  0.4294 -0.0183
  851MOL0     C12231  -1.252   2.216   1.877  1.0598 -0.0462 -0.0729
  851MOL0     C12232  -1.336   2.290   1.796  0.4289 -0.2954  0.7459
  851MOL0     C12233  -1.398   2.245   1.684  0.3519  0.5791 -0.1978
  851MOL0     C12234  -1.380   2.107   1.653  0.6859  0.8930  0.1611
  851MOL0     O12235  -1.429   2.045   1.536  0.5938  0.0304 -0.5845
  851MOL0     C12236  -1.492   2.123   1.435 -0.5164  0.0427  0.7016
  851MOL0     C12237  -1.581   2.046   1.340 -0.3218 -0.0774 -0.0736
  851MOL0     C12238  -1.501   1.971   1.224  0.3368 -0.7122 -1.2060
  851MOL0     C12239  -1.612   1.904   1.139  0.0856  0.3848  0.3582
  851MOL0     C12240  -1.544   1.823   1.037  0.4973 -0.3457  0.0420
  851MOL0     C12241  -1.647   1.764   0.936 -1.1006  0.3236 -0.4324
  851MOL0     C12242  -1.584   1.671   0.834  0.8378  0.7164 -0.1959
  851MOL0     C12243  -1.696   1.613   0.753  1.0244 -0.3309 -0.5222
  851MOL0    Cl12244  -1.634   1.528   0.614 -0.6354 -0.2212  0.4279
  851MOL0     C12245  -1.302   2.036   1.733  0.0830 -1.3963  0.2055
  851MOL0     C12246  -1.239   2.094   1.844 -0.4381  0.4119 -0.6116
  851MOL0     O12247  -1.021   2.161   2.018 -1.0184  0.2748  0.3744
  851MOL0     C12248  -1.003   2.211   2.288  0.8283 -0.7894  0.4899
  851MOL0     C12249  -0.967   2.250   2.416 -0.1762  0.4322 -0.2689
  851MOL0     N12250  -0.761   2.194   3.213  0.1017 -0.8875  0.3033
  851MOL0     N12251  -0.659   2.137   3.272  0.2649 -0.2965 -0.7559
  851MOL0     C12252   0.717   1.887   3.224  0.3987  0.1428 -0.2041
  851MOL0     C12253   0.847   1.904   3.183  0.6143 -0.3425  0.1237
  851MOL0     C12254   1.217   2.079   2.978 -0.2259  0.1953  0.0519
  851MOL0     C12255   1.295   2.043   2.858  0.1626 -0.6443 -0.5667
  851MOL0     C12256   1.409   2.130   2.827  0.3528  1.1841  0.2258
  851MOL0     C12257   1.447   2.228   2.925 -0.0154  0.4131  0.3715
  851MOL0     O12258   1.555   2.308   2.905  0.5465 -0.1547 -0.0578
  851MOL0     C12259   1.659   2.250   2.833 -0.5052 -0.3997  0.1436
  851MOL0     C12260   1.790   2.295   2.877 -0.5511  0.2304  0.1453
  851MOL0     C12261   1.826   2.443   2.842 -0.3525 -0.2741  0.1379
  851MOL0     C12262   1.969   2.472   2.831  0.5504 -0.1333 -0.2072
  851MOL0     C12263   2.039   2.443   2.948  0.5475  0.0072  0.3041
  851MOL0     C12264   2.108   2.440   3.047  0.3498 -0.2151 -0.3199
  851MOL0     C12265   1.379   2.236   3.043  0.4893 -0.0080  0.2323
  851MOL0     C12266   1.260   2.175   3.069 -0.3158 -0.3138 -0.0311
  851MOL0     H12267   0.836   2.242   3.153 -1.6977 -0.4790 -1.0505
  851MOL0     H12268   0.612   2.220   3.233  0.0857  0.6188 -1.0962
  851MOL0     H12269   0.386   2.109   3.162  2.9922 -1.5148 -0.5000
  851MOL0     H12270   0.393   2.124   3.345  1.5969 -2.5796  2.8364
  851MOL0     H12271   0.239   1.924   3.354 -2.5923  0.0842 -0.1248
  851MOL0     H12272   0.245   1.930   3.164  2.4271  1.5460 -1.1025
  851MOL0     H12273   0.120   2.129   3.181  1.3207  0.1761  0.3438
  851MOL0     H12274   0.131   2.127   3.363 -2.1261 -0.3710 -0.0731
  851MOL0     H12275   0.016   1.903   3.192 -0.9645  0.9940 -0.4597
  851MOL0     H12276   0.021   1.901   3.372 -2.2404  1.2087  1.5913
  851MOL0     H12277  -0.116   2.123   3.214 -0.7239  0.7516  1.4388
  851MOL0     H12278  -0.143   2.069   3.385 -4.9843 -3.9377  0.9996
  851MOL0     H12279  -0.242   1.874   3.320  2.8149 -0.8503 -1.1821
  851MOL0     H12280  -0.212   1.910   3.145  0.5253  0.3084  0.1885
  851MOL0     H12281  -0.363   2.113   3.314  1.7037  1.0253 -0.2146
  851MOL0     H12282  -0.333   2.107   3.144  1.0364 -0.3700  0.2858
  851MOL0     H12283  -0.505   1.904   3.290  1.8399 -0.6905 -0.0511
  851MOL0     H12284  -0.491   1.912   3.114 -3.5519  1.9779 -1.4883
  851MOL0     H12285  -0.636   2.028   2.965  2.3484  2.4515 -1.0418
  851MOL0     H12286  -0.950   2.227   3.041  0.6172  0.9888  2.5305
  851MOL0     H12287  -0.888   2.146   2.895  0.9638  0.4812 -0.5512
  851MOL0     H12288  -0.710   2.359   2.892  0.3387  2.4531 -0.1653
  851MOL0     H12289  -0.819   2.417   3.011 -0.1338 -1.1135 -0.1825
  851MOL0     H12290  -0.989   2.456   2.860 -0.0114 -1.8216  0.4380
  851MOL0     H12291  -0.843   2.509   2.783 -1.3397  1.0781  2.2272
  851MOL0     H12292  -1.002   2.245   2.749 -1.2278 -0.4823 -1.2427
  851MOL0     H12293  -0.862   2.274   2.665 -0.8675  0.3823  0.4495
  851MOL0     H12294  -1.202   2.486   2.449  0.3094 -1.0915  2.1173
  851MOL0     H12295  -1.244   2.441   2.211 -1.4421 -3.2077 -0.7782
  851MOL0     H12296  -1.333   2.396   1.819  2.6759 -0.0031 -0.6235
  851MOL0     H12297  -1.447   2.321   1.622  0.1055 -0.7689 -1.7339
  851MOL0     H12298  -1.413   2.173   1.379  1.1037 -0.9983  1.9795
  851MOL0     H12299  -1.550   2.199   1.488 -0.6920  1.0918 -0.8965
  851MOL0     H12300  -1.651   2.115   1.292 -0.1984  0.1957  0.1425
  851MOL0     H12301  -1.644   1.982   1.404 -0.5617  0.8301  0.6101
  851MOL0     H12302  -1.423   1.908   1.267 -0.9167 -2.1817 -1.0078
  851MOL0     H12303  -1.456   2.049   1.162 -1.5385  1.0241 -0.5070
  851MOL0     H12304  -1.673   1.835   1.199 -0.0204  0.5502  0.4398
  851MOL0     H12305  -1.667   1.988   1.097  1.2286  0.6400 -0.6735
  851MOL0     H12306  -1.489   1.743   1.087  1.0475 -1.5359 -2.3026
  851MOL0     H12307  -1.469   1.873   0.974 -1.2444  0.7550 -1.2748
  851MOL0     H12308  -1.699   1.846   0.886  2.6309  1.5314 -2.7311
  851MOL0     H12309  -1.707   1.696   0.998  0.9231 -2.1969 -1.1152
  851MOL0     H12310  -1.515   1.726   0.769  0.2870 -1.4637 -2.8100
  851MOL0     H12311  -1.527   1.599   0.893  1.9888  1.3112 -0.5604
  851MOL0     H12312  -1.753   1.694   0.705 -0.0122 -0.2507  0.8010
  851MOL0     H12313  -1.763   1.548   0.810  2.0566 -1.3730 -0.4786
  851MOL0     H12314  -1.289   1.929   1.717  2.4588 -1.3039  1.1646
  851MOL0     H12315  -1.178   2.027   1.904 -1.6463 -0.4130 -0.2596
  851MOL0     H12316  -0.944   2.127   2.254 -1.3456 -2.2171  0.0865
  851MOL0     H12317  -0.902   2.187   2.476 -0.4139  1.6175  1.2922
  851MOL0     H12318   0.679   1.793   3.262 -0.2563 -0.8140 -2.9790
  851MOL0     H12319   0.926   1.831   3.175  0.7950 -0.5045  2.7273
  851MOL0     H12320   1.256   1.972   2.786 -2.2578 -0.1709  0.1939
  851MOL0     H12321   1.451   2.116   2.728 -1.5388 -0.2744 -0.4348
  851MOL0     H12322   1.641   2.284   2.731 -1.7499  0.5833  0.6645
  851MOL0     H12323   1.660   2.141   2.829 -4.8581 -0.6197  0.1742
  851MOL0     H12324   1.798   2.291   2.986 -1.5786  0.6664  0.2497
  851MOL0     H12325   1.872   2.235   2.837  0.2690 -0.6746  2.9124
  851MOL0     H12326   1.795   2.516   2.917  2.5297  3.9428 -2.3694
  851MOL0     H12327   1.785   2.475   2.746  3.4400 -2.3155 -2.3952
  851MOL0     H12328   2.012   2.423   2.743  0.4295  2.2757 -1.6974
  851MOL0     H12329   1.991   2.577   2.811  0.6399  0.5657  2.9860
  851MOL0     H12330   2.160   2.430   3.140  2.1248 -1.2124 -1.3614
  851MOL0     H12331   1.422   2.298   3.121 -1.2659  0.4695  0.8667
  851MOL0     H12332   1.203   2.197   3.159  0.5450  0.5241  0.3205
  852MOL0     O12333   1.700   1.701   0.624  0.1659  0.2031 -0.0628
  852MOL0     C12334   1.748   1.595   0.663  0.6593  0.0306  0.7108
  852MOL0     O12335   1.683   1.488   0.705  0.9191 -0.6059  0.6431
  852MOL0     C12336   1.541   1.483   0.688  0.2159  0.2165 -0.2699
  852MOL0     C12337   1.466   1.594   0.716  1.1612 -0.3287  0.4476
  852MOL0     C12338   1.323   1.579   0.699 -0.1012  0.1269  0.8561
  852MOL0     C12339   1.263   1.455   0.662 -0.1246 -0.8612 -0.4797
  852MOL0     O12340   1.127   1.439   0.644  0.2624  0.2500 -0.5596
  852MOL0     C12341   1.042   1.555   0.629  0.2121  0.4373  0.0193
  852MOL0     C12342   0.899   1.512   0.639  0.3976  0.3377 -0.6371
  852MOL0     C12343   0.801   1.628   0.643 -0.7853  0.1148 -0.6754
  852MOL0     C12344   0.655   1.589   0.673  0.0789  0.1372  0.0722
  852MOL0     C12345   0.604   1.477   0.581 -0.0013 -0.1633  0.1441
  852MOL0     C12346   0.446   1.457   0.566 -0.7052 -1.3537  0.3657
  852MOL0     C12347   0.389   1.541   0.453  0.8695 -1.2062 -0.3053
  852MOL0     C12348   0.241   1.494   0.429 -0.2636 -0.2006 -0.0095
  852MOL0     N12349   0.233   1.380   0.337  0.0443  0.8515  1.1572
  852MOL0     C12350   0.186   1.372   0.206  0.5028 -0.5480 -0.0161
  852MOL0     C12351   0.213   1.251   0.156 -0.0112 -0.2332  0.7937
  852MOL0     C12352   0.196   1.194   0.012 -0.5405  0.3294  0.5384
  852MOL0     C12353   0.233   1.298  -0.100  0.4257  0.3158  0.3133
  852MOL0     C12354   0.211   1.246  -0.251 -0.1728  0.4828  0.5916
  852MOL0     C12355   0.283   1.102  -0.290  0.2254 -0.0494 -0.1125
  852MOL0     O12356   0.281   1.050  -0.428 -0.3692 -0.8429  0.2951
  852MOL0     C12357   0.156   1.024  -0.483  0.4515 -0.4302 -0.3959
  852MOL0     C12358   0.042   0.989  -0.408 -1.2598 -0.3835 -0.2779
  852MOL0     C12359  -0.083   0.972  -0.463 -0.3386 -0.4960 -0.2847
  852MOL0     C12360  -0.100   0.972  -0.607 -0.0130  0.3932  0.4096
  852MOL0     C12361  -0.228   0.930  -0.670 -0.5797  0.0479 -0.0727
  852MOL0     O12362  -0.344   0.923  -0.594  0.7985 -0.2044  0.0576
  852MOL0     C12363  -0.463   0.895  -0.660  0.4928  1.0881  0.2327
  852MOL0     C12364  -0.531   0.999  -0.722 -0.2206 -0.3082  0.0545
  852MOL0     C12365  -0.662   0.976  -0.754 -0.7756 -0.3592  0.6005
  852MOL0     C12366  -0.721   0.853  -0.749  0.7087  0.5454 -0.2292
  852MOL0     O12367  -0.855   0.853  -0.791 -0.3480 -0.2370  0.1281
  852MOL0     C12368  -0.923   0.730  -0.798 -0.6380  1.5349  0.2122
  852MOL0     C12369  -0.978   0.679  -0.666 -0.4258  0.5030 -1.0876
  852MOL0     C12370  -1.132   0.660  -0.666 -0.3429  0.2439 -0.4696
  852MOL0     C12371  -1.192   0.627  -0.533  0.1056 -0.9577  0.7774
  852MOL0     C12372  -1.342   0.593  -0.552  0.1935  0.4788 -0.0809
  852MOL0     C12373  -1.423   0.641  -0.431  0.8307 -0.5150 -0.5620
  852MOL0     C12374  -1.577   0.605  -0.445  0.4078 -0.4843 -0.7644
  852MOL0     C12375  -1.614   0.459  -0.429 -0.1302  0.2266  0.0150
  852MOL0    Cl12376  -1.784   0.445  -0.475  0.1551 -0.1799 -0.0675
  852MOL0     C12377  -0.647   0.744  -0.709 -0.7425 -0.2420 -0.2958
  852MOL0     C12378  -0.519   0.771  -0.659 -1.4587 -0.3031 -1.0690
  852MOL0     O12379  -0.223   0.906  -0.788 -0.8643  0.1412  0.3009
  852MOL0     C12380   0.014   1.010  -0.685  0.1450  0.4070  0.1480
  852MOL0     C12381   0.135   1.029  -0.623 -0.4057 -0.3603 -0.2079
  852MOL0     N12382   0.266   1.179   0.265 -0.3701 -0.9104 -0.6080
  852MOL0     N12383   0.274   1.257   0.374 -0.0504 -0.0610 -0.4730
  852MOL0     C12384   1.351   1.347   0.655  0.1341  0.7300  0.0080
  852MOL0     C12385   1.485   1.357   0.669 -0.6818 -1.1912 -0.7325
  852MOL0     C12386   1.897   1.591   0.684  0.7289 -0.2267  0.8140
  852MOL0     C12387   1.947   1.500   0.779  0.7323  0.6140 -0.8047
  852MOL0     C12388   2.084   1.476   0.793 -0.5743  0.8768 -0.3279
  852MOL0     C12389   2.178   1.558   0.734  0.6202  1.3353  0.3939
  852MOL0     O12390   2.309   1.520   0.746 -0.0692 -0.0756  0.3392
  852MOL0     C12391   2.411   1.611   0.710 -0.0618  0.7499 -0.2049
  852MOL0     C12392   2.474   1.559   0.585 -0.4011 -0.2285 -0.5507
  852MOL0     C12393   2.518   1.412   0.606  0.6832 -0.7503 -1.0550
  852MOL0     C12394   2.627   1.364   0.509  0.3850  0.2396  0.1363
  852MOL0     C12395   2.600   1.395   0.371 -0.2497 -0.8288 -0.8988
  852MOL0     C12396   2.573   1.423   0.253  0.5784 -0.6537  0.0623
  852MOL0     C12397   2.130   1.655   0.640  0.6224 -0.1463 -0.2098
  852MOL0     C12398   1.991   1.669   0.619 -0.0267 -0.2763  0.3066
  852MOL0     H12399   1.500   1.694   0.746  3.3076 -0.5056 -1.1561
  852MOL0     H12400   1.256   1.663   0.711 -1.3515 -0.6733 -0.3012
  852MOL0     H12401   1.064   1.601   0.531  0.4243  0.8137  0.2385
  852MOL0     H12402   1.062   1.623   0.712  0.9315  0.3716 -0.0941
  852MOL0     H12403   0.898   1.464   0.737 -1.0430 -2.5050 -1.9293
  852MOL0     H12404   0.867   1.454   0.552 -0.9476  0.1913 -0.0738
  852MOL0     H12405   0.817   1.685   0.551 -0.6547 -0.9534 -1.3327
  852MOL0     H12406   0.843   1.687   0.724 -0.1951 -0.0422 -0.8612
  852MOL0     H12407   0.649   1.560   0.778 -0.2385 -0.4559 -0.1016
  852MOL0     H12408   0.587   1.675   0.670  0.0011  0.3506  3.8478
  852MOL0     H12409   0.655   1.380   0.592  0.0920 -0.2437 -0.9333
  852MOL0     H12410   0.633   1.495   0.477  0.1084 -1.9733 -0.1707
  852MOL0     H12411   0.395   1.479   0.660 -0.2874 -0.8693  0.4820
  852MOL0     H12412   0.431   1.351   0.542  0.8818 -1.4033 -0.5390
  852MOL0     H12413   0.370   1.647   0.473 -1.6438 -0.9813 -3.2423
  852MOL0     H12414   0.449   1.538   0.362 -0.1716  0.4973 -1.0982
  852MOL0     H12415   0.172   1.569   0.388  1.4835  1.8409  0.5693
  852MOL0     H12416   0.193   1.475   0.525 -0.8100 -1.5119 -0.5235
  852MOL0     H12417   0.143   1.454   0.150  0.7876  0.1800  0.8065
  852MOL0     H12418   0.093   1.159  -0.005  0.5753 -1.7150 -2.9320
  852MOL0     H12419   0.264   1.108   0.014  0.8373  1.3803  0.2055
  852MOL0     H12420   0.336   1.335  -0.099  0.1185  1.3344 -1.2908
  852MOL0     H12421   0.171   1.386  -0.077  0.4080 -0.1638  2.2979
  852MOL0     H12422   0.104   1.234  -0.271 -0.3114 -1.0675  2.0667
  852MOL0     H12423   0.248   1.328  -0.314  0.7144 -0.8857 -0.7293
  852MOL0     H12424   0.245   1.022  -0.225 -1.5770 -0.2061 -1.2803
  852MOL0     H12425   0.384   1.107  -0.250 -0.2493  0.6473  1.0298
  852MOL0     H12426   0.056   0.962  -0.304  1.4395 -0.3374 -0.5432
  852MOL0     H12427  -0.166   0.958  -0.396 -1.5273  2.7141 -0.9129
  852MOL0     H12428  -0.507   1.105  -0.725 -3.4834  0.5443  0.3778
  852MOL0     H12429  -0.716   1.067  -0.782 -0.4167 -0.5958 -0.9686
  852MOL0     H12430  -0.863   0.655  -0.850 -0.7895  1.7627 -0.2930
  852MOL0     H12431  -0.999   0.748  -0.875  2.6214 -1.8165 -4.3246
  852MOL0     H12432  -0.954   0.750  -0.587 -2.6946  2.2677 -1.8586
  852MOL0     H12433  -0.929   0.586  -0.636 -0.4431  0.5209 -1.0066
  852MOL0     H12434  -1.160   0.576  -0.730 -0.6209 -1.7015  2.0384
  852MOL0     H12435  -1.173   0.753  -0.706 -1.2558 -0.1711 -0.5270
  852MOL0     H12436  -1.149   0.537  -0.488 -0.8146 -1.1117  1.3769
  852MOL0     H12437  -1.177   0.715  -0.469 -0.9488 -0.9383  1.0088
  852MOL0     H12438  -1.360   0.485  -0.558  0.3605  0.3817  0.9454
  852MOL0     H12439  -1.384   0.646  -0.638 -2.9014 -2.0774 -0.3463
  852MOL0     H12440  -1.413   0.748  -0.416 -0.6969 -0.4682  0.3343
  852MOL0     H12441  -1.374   0.604  -0.341 -0.7017  0.4307  0.7118
  852MOL0     H12442  -1.625   0.672  -0.373  0.2576  0.2061 -1.4879
  852MOL0     H12443  -1.608   0.650  -0.540 -0.8878  2.4734  0.9104
  852MOL0     H12444  -1.615   0.421  -0.326  0.1467 -0.4345 -0.2188
  852MOL0     H12445  -1.565   0.385  -0.494 -1.5417 -0.1109 -0.7105
  852MOL0     H12446  -0.693   0.650  -0.681  2.0149 -1.5584  0.2141
  852MOL0     H12447  -0.462   0.692  -0.612 -1.5306  0.4874  0.4004
  852MOL0     H12448   0.000   1.013  -0.792 -0.1153  1.1625  0.1970
  852MOL0     H12449   0.212   1.068  -0.690  1.0915 -0.8239  1.1711
  852MOL0     H12450   1.317   1.250   0.618  0.0552  1.0995 -0.9126
  852MOL0     H12451   1.542   1.264   0.675 -0.3701 -0.9664 -0.0651
  852MOL0     H12452   1.880   1.439   0.839  0.1525  0.8713 -1.1820
  852MOL0     H12453   2.114   1.392   0.855 -3.0637  0.6136  0.6615
  852MOL0     H12454   2.486   1.603   0.790  1.6408 -3.1775 -1.9371
  852MOL0     H12455   2.387   1.717   0.694  0.5986  0.7989 -0.9811
  852MOL0     H12456   2.411   1.572   0.497 -1.6892 -3.3088 -0.2356
  852MOL0     H12457   2.570   1.610   0.578  1.1110 -2.3321  2.3220
  852MOL0     H12458   2.427   1.351   0.599 -0.6201  1.1128 -1.1592
  852MOL0     H12459   2.553   1.407   0.710 -1.5562 -1.9090 -0.2835
  852MOL0     H12460   2.723   1.412   0.532  1.2866 -2.1283  1.6321
  852MOL0     H12461   2.633   1.256   0.522 -2.1079 -0.0065 -0.3978
  852MOL0     H12462   2.568   1.452   0.150  3.5786 -0.8995 -0.2392
  852MOL0     H12463   2.188   1.716   0.572  0.0914  1.5155  0.7591
  852MOL0     H12464   1.952   1.743   0.550  0.5880  0.4698  0.7396
  853MOL0     O12465   6.908   1.490   0.353  0.1547  0.2822  0.2052
  853MOL0     C12466   6.976   1.552   0.435  0.1946 -1.3069  0.2752
  853MOL0     O12467   6.920   1.630   0.532 -0.6323  0.2501 -0.2985
  853MOL0     C12468   6.789   1.663   0.517  1.1985 -0.5693  0.2434
  853MOL0     C12469   6.703   1.630   0.620  0.4361  0.0663  0.0616
  853MOL0     C12470   6.565   1.644   0.617  0.3864 -0.7177  0.5844
  853MOL0     C12471   6.508   1.700   0.500 -0.3905 -0.5337  0.0548
  853MOL0     O12472   6.380   1.727   0.491  0.4284  0.3979  0.0706
  853MOL0     C12473   6.288   1.687   0.593  0.3650  0.3464 -0.0998
  853MOL0     C12474   6.165   1.750   0.543 -0.7149  0.3173  0.3342
  853MOL0     C12475   6.051   1.728   0.640 -0.5282 -0.2196 -0.1148
  853MOL0     C12476   5.928   1.798   0.572  0.4542 -0.2912  0.0555
  853MOL0     C12477   5.801   1.805   0.656 -0.5795 -0.1361  0.1969
  853MOL0     C12478   5.713   1.916   0.582 -0.4672  0.5112 -0.0716
  853MOL0     C12479   5.645   1.861   0.455  0.2919  0.3015  0.7305
  853MOL0     C12480   5.557   1.738   0.483 -0.3452 -0.9289  0.1616
  853MOL0     N12481   5.460   1.746   0.585  0.4229  0.5275  0.5918
  853MOL0     C12482   5.343   1.822   0.576  0.4849 -0.3241  0.2174
  853MOL0     C12483   5.280   1.798   0.697 -0.0680 -0.3697  0.2347
  853MOL0     C12484   5.161   1.867   0.751 -0.1989  1.1427 -0.4592
  853MOL0     C12485   5.178   2.013   0.767  0.1929  0.1819 -1.1283
  853MOL0     C12486   5.045   2.085   0.809  0.7917 -0.2356  0.1384
  853MOL0     C12487   4.963   2.103   0.680 -0.4536  0.2953 -0.3796
  853MOL0     O12488   4.837   2.168   0.705 -0.2886 -0.1663 -0.0029
  853MOL0     C12489   4.721   2.104   0.735  1.2398  1.4396  0.0683
  853MOL0     C12490   4.711   1.962   0.745  0.1596  0.6155  0.1392
  853MOL0     C12491   4.581   1.905   0.757  0.2070  0.4233  0.0519
  853MOL0     C12492   4.462   1.986   0.785  0.0553  0.1053 -0.4220
  853MOL0     C12493   4.312   1.933   0.789 -0.3125 -0.3029  1.3810
  853MOL0     O12494   4.214   2.018   0.840  0.6459  0.2682 -0.3544
  853MOL0     C12495   4.082   1.981   0.851 -0.0812 -0.0839 -0.8772
  853MOL0     C12496   4.005   1.949   0.742  0.6707  0.2730 -0.2332
  853MOL0     C12497   3.867   1.935   0.763  0.3044  0.3977  0.2246
  853MOL0     C12498   3.812   1.958   0.882 -0.0450  0.2692 -0.6065
  853MOL0     O12499   3.673   1.946   0.896  0.0223  0.0316 -0.4949
  853MOL0     C12500   3.635   1.853   1.003  0.8341 -0.3250 -0.4822
  853MOL0     C12501   3.493   1.808   0.971  0.2268 -0.4932 -0.6796
  853MOL0     C12502   3.483   1.733   0.834 -0.4847 -0.2794  0.9233
  853MOL0     C12503   3.342   1.683   0.801  0.8197  0.5541  0.5284
  853MOL0     C12504   3.334   1.621   0.663 -0.2175  0.5727 -0.5804
  853MOL0     C12505   3.194   1.565   0.638 -0.4718  0.3920 -0.5123
  853MOL0     C12506   3.147   1.554   0.494  1.2901  0.4233  0.3005
  853MOL0     C12507   3.174   1.674   0.407 -0.5793  0.0520  0.3540
  853MOL0    Cl12508   3.079   1.672   0.267 -0.0164 -0.0871  0.2317
  853MOL0     C12509   3.890   1.996   0.988  0.5498 -0.3829 -0.0634
  853MOL0     C12510   4.028   2.007   0.975 -0.1340 -0.6398  0.4257
  853MOL0     O12511   4.292   1.821   0.748  0.2875  0.1987  0.0704
  853MOL0     C12512   4.483   2.124   0.795 -0.1443  0.7258 -0.7432
  853MOL0     C12513   4.605   2.183   0.764  0.0485 -0.0349  0.9882
  853MOL0     N12514   5.358   1.705   0.774  0.0097 -0.6665  0.3114
  853MOL0     N12515   5.467   1.679   0.706  0.2637  0.4606  0.0963
  853MOL0     C12516   6.590   1.739   0.396 -0.2254  0.0330 -0.0104
  853MOL0     C12517   6.728   1.719   0.399 -0.5459  0.0919  0.5199
  853MOL0     C12518   7.125   1.549   0.434  0.3283 -0.9504 -0.0331
  853MOL0     C12519   7.190   1.471   0.342  0.1913 -0.0333  0.2638
  853MOL0     C12520   7.331   1.470   0.352 -0.0220 -0.2017  0.2802
  853MOL0     C12521   7.405   1.534   0.452 -0.8216  0.3909 -0.1197
  853MOL0     O12522   7.541   1.536   0.438 -0.5107 -0.3692 -1.0281
  853MOL0     C12523   7.613   1.609   0.539 -0.0623  0.2775  0.5777
  853MOL0     C12524   7.759   1.586   0.506  0.3052 -1.1385 -0.1078
  853MOL0     C12525   7.819   1.449   0.546 -0.8747 -0.4038 -0.2120
  853MOL0     C12526   7.968   1.437   0.496 -0.6552 -0.1372  0.6602
  853MOL0     C12527   8.020   1.303   0.531 -0.1920 -1.1242 -0.3520
  853MOL0     C12528   8.062   1.202   0.582 -0.9974 -0.1297  0.3100
  853MOL0     C12529   7.333   1.593   0.552 -0.3838  0.8484 -0.3205
  853MOL0     C12530   7.195   1.619   0.539  0.6380 -0.1940  0.9807
  853MOL0     H12531   6.735   1.594   0.718 -0.4441 -1.0764 -0.0425
  853MOL0     H12532   6.520   1.612   0.710 -2.8184 -1.4248 -1.0865
  853MOL0     H12533   6.302   1.732   0.692  0.5658 -0.5627  0.2899
  853MOL0     H12534   6.274   1.579   0.591  0.7468  0.2962 -1.6944
  853MOL0     H12535   6.135   1.710   0.446 -1.4613  2.5215 -0.4148
  853MOL0     H12536   6.189   1.857   0.534 -0.5116  0.1899 -0.7088
  853MOL0     H12537   6.072   1.788   0.728 -0.5522  2.1876 -1.6512
  853MOL0     H12538   6.048   1.621   0.663  2.9758 -0.3602  0.2183
  853MOL0     H12539   5.965   1.900   0.557  2.1410 -0.6709  1.2348
  853MOL0     H12540   5.904   1.761   0.473 -1.9860  1.9390 -0.2782
  853MOL0     H12541   5.829   1.857   0.748  0.6844  0.1560 -0.3261
  853MOL0     H12542   5.752   1.708   0.673  0.9769 -1.1774 -0.9179
  853MOL0     H12543   5.779   1.992   0.539  1.5203 -1.6111 -0.9765
  853MOL0     H12544   5.639   1.976   0.636 -1.4211  1.6646 -2.5014
  853MOL0     H12545   5.577   1.942   0.424  2.0064  1.4895 -0.1430
  853MOL0     H12546   5.726   1.847   0.383  1.9775  1.2635  2.3556
  853MOL0     H12547   5.627   1.654   0.501  0.0438 -0.9764 -1.4397
  853MOL0     H12548   5.499   1.702   0.398 -0.6415 -1.8498  0.7321
  853MOL0     H12549   5.309   1.889   0.498  0.6292 -0.5046 -0.0034
  853MOL0     H12550   5.151   1.820   0.849  2.0027 -2.3615 -1.6994
  853MOL0     H12551   5.084   1.838   0.679  1.7477 -1.6350 -1.6170
  853MOL0     H12552   5.211   2.059   0.673 -0.7457  2.7443 -0.2980
  853MOL0     H12553   5.250   2.035   0.847 -0.1271  0.8106 -1.0053
  853MOL0     H12554   4.984   2.026   0.878  2.3942 -0.3151  1.5483
  853MOL0     H12555   5.071   2.183   0.850  0.8227  0.6059 -1.7795
  853MOL0     H12556   4.940   2.009   0.629 -1.4016 -0.9266  2.1165
  853MOL0     H12557   5.012   2.172   0.611 -0.7693  2.5272  1.5325
  853MOL0     H12558   4.793   1.900   0.711  0.0866  0.0855  0.9052
  853MOL0     H12559   4.551   1.801   0.744 -0.2273  0.2405  2.1520
  853MOL0     H12560   4.055   1.947   0.646  2.2570 -2.0372  0.5312
  853MOL0     H12561   3.808   1.900   0.679 -0.6487  0.5164  0.8301
  853MOL0     H12562   3.635   1.901   1.101  0.6208  0.0251 -0.6491
  853MOL0     H12563   3.705   1.769   0.996  3.0678  1.1571  2.0607
  853MOL0     H12564   3.420   1.889   0.981 -0.4432 -1.3184  2.2422
  853MOL0     H12565   3.455   1.735   1.044 -2.8042  1.5336 -0.0119
  853MOL0     H12566   3.554   1.650   0.826  2.3723  2.1602 -1.2189
  853MOL0     H12567   3.512   1.800   0.753  0.2475  0.1619  1.5303
  853MOL0     H12568   3.313   1.607   0.875  3.6191 -0.0649  1.1268
  853MOL0     H12569   3.271   1.766   0.809 -1.5395 -1.1863 -0.9438
  853MOL0     H12570   3.404   1.538   0.652  0.7661  1.5320 -1.6910
  853MOL0     H12571   3.363   1.699   0.593  0.1697  2.7294  1.8198
  853MOL0     H12572   3.119   1.614   0.700  1.4178  0.6564  1.6913
  853MOL0     H12573   3.196   1.458   0.662 -1.1453  0.5589  0.2987
  853MOL0     H12574   3.200   1.474   0.442  2.2053  0.6544  0.8513
  853MOL0     H12575   3.042   1.525   0.493  1.6945 -1.4035  2.3488
  853MOL0     H12576   3.282   1.690   0.395 -0.7044  0.8766  0.3037
  853MOL0     H12577   3.145   1.765   0.459  1.5153  1.3300 -0.5662
  853MOL0     H12578   3.840   2.022   1.081 -1.3066 -0.8726 -0.8874
  853MOL0     H12579   4.085   2.043   1.061 -1.9489 -1.1006  1.8988
  853MOL0     H12580   4.402   2.184   0.836  0.7196  0.9320  0.7438
  853MOL0     H12581   4.625   2.289   0.750  1.5910  0.1118  3.6334
  853MOL0     H12582   6.549   1.798   0.313 -0.3815  0.5632  0.4363
  853MOL0     H12583   6.801   1.745   0.322 -0.6521 -0.4411  0.2388
  853MOL0     H12584   7.140   1.420   0.261  1.8803  0.4722 -1.1516
  853MOL0     H12585   7.400   1.428   0.279  1.7009  2.1613  0.4134
  853MOL0     H12586   7.585   1.571   0.638 -1.0254 -1.9614 -0.4859
  853MOL0     H12587   7.599   1.717   0.536 -1.6774  0.1170  1.0216
  853MOL0     H12588   7.774   1.603   0.399 -2.5226 -2.1104 -0.7318
  853MOL0     H12589   7.813   1.668   0.556 -2.2844  0.4030  0.3430
  853MOL0     H12590   7.763   1.363   0.508  1.7134 -1.8242 -0.9960
  853MOL0     H12591   7.820   1.433   0.654  2.4171 -0.8151 -0.2153
  853MOL0     H12592   7.980   1.432   0.387 -3.1544 -1.7184  0.3769
  853MOL0     H12593   8.033   1.514   0.539  0.4582 -0.8154  0.2373
  853MOL0     H12594   8.103   1.110   0.619  2.5077  1.4388  0.7139
  853MOL0     H12595   7.376   1.631   0.644 -3.5690 -0.1758  1.7468
  853MOL0     H12596   7.140   1.667   0.618 -2.2631 -2.2459  0.3727
  854MOL0     O12597   2.676   9.699   9.984  0.3241  0.4088  0.2953
  854MOL0     C12598   2.640   9.751   9.878  0.1894  0.3184 -0.1465
  854MOL0     O12599   2.699   9.853   9.806 -0.2146 -0.2374  0.0094
  854MOL0     C12600   2.824   9.885   9.847  0.1643 -0.5233  0.9823
  854MOL0     C12601   2.839   9.997   9.938  0.0126  0.0745 -0.0784
  854MOL0     C12602   2.970  10.036   9.973 -0.0461  0.3295 -0.2166
  854MOL0     C12603   3.083   9.990   9.906 -0.5554 -0.2540 -0.1373
  854MOL0     O12604   3.197  10.056   9.931 -0.4778  0.4243 -0.2031
  854MOL0     C12605   3.273  10.093   9.819 -0.4337  0.1072  0.0936
  854MOL0     C12606   3.411  10.124   9.860  0.6679 -0.1729  0.7030
  854MOL0     C12607   3.428  10.265   9.923 -0.4081  0.2580 -0.0256
  854MOL0     C12608   3.578  10.265   9.958 -0.8870 -0.1217  0.4706
  854MOL0     C12609   3.644  10.401   9.998 -0.1168  0.0268 -0.4932
  854MOL0     C12610   3.576  10.470  10.109  0.3787 -0.0480  0.3129
  854MOL0     C12611   3.651  10.604  10.150  0.5810 -0.0593 -0.9270
  854MOL0     C12612   3.608  10.655  10.291  0.3624  0.4345 -0.1224
  854MOL0     N12613   3.477  10.719  10.287 -0.7675  0.3822 -0.3791
  854MOL0     C12614   3.444  10.822  10.200  0.1987  0.1292  0.0586
  854MOL0     C12615   3.319  10.862  10.244 -1.3229  0.1481 -0.4118
  854MOL0     C12616   3.241  10.969  10.174 -0.9819  0.0034  0.5567
  854MOL0     C12617   3.276  11.099  10.250 -0.1622  0.6098 -0.1858
  854MOL0     C12618   3.169  11.207  10.232  0.2736 -0.1278 -0.1168
  854MOL0     C12619   3.184  11.330  10.327  0.2630 -0.2326 -0.2677
  854MOL0     O12620   3.047  11.377  10.350  0.2288  0.1541 -0.2788
  854MOL0     C12621   2.983  11.441  10.237 -0.6850 -0.2722  0.0102
  854MOL0     C12622   2.848  11.452  10.252  0.7361  0.3303 -1.1875
  854MOL0     C12623   2.763  11.509  10.160 -0.0471  0.4638 -0.3850
  854MOL0     C12624   2.825  11.571  10.048 -0.5426 -0.1640 -0.5681
  854MOL0     C12625   2.754  11.659   9.958  0.4154  0.8875  0.6445
  854MOL0     O12626   2.637  11.712  10.011 -0.5723 -0.2498  0.7228
  854MOL0     C12627   2.543  11.745   9.920 -0.6915 -0.4254  0.4780
  854MOL0     C12628   2.517  11.672   9.801 -0.1298 -0.1570 -0.0887
  854MOL0     C12629   2.423  11.721   9.710  0.7671  0.3046  0.4899
  854MOL0     C12630   2.328  11.825   9.744 -0.2316  0.2871 -0.0276
  854MOL0     O12631   2.225  11.870   9.665  0.6769  0.0213  0.0003
  854MOL0     C12632   2.243  11.847   9.525 -0.5712 -0.1391  0.3779
  854MOL0     C12633   2.190  11.713   9.472  0.7891  0.9916  0.8212
  854MOL0     C12634   2.241  11.684   9.332 -0.2136  0.2907 -0.0452
  854MOL0     C12635   2.181  11.551   9.297 -0.1785 -0.2286 -0.3032
  854MOL0     C12636   2.205  11.514   9.150 -0.3643  0.0538  0.3067
  854MOL0     C12637   2.357  11.518   9.105  0.1312  0.1072  0.5537
  854MOL0     C12638   2.370  11.451   8.967  0.4182 -0.1937 -1.1239
  854MOL0     C12639   2.328  11.555   8.860 -0.5285  0.7630 -0.4767
  854MOL0    Cl12640   2.453  11.691   8.834 -0.2674 -0.0863  0.3833
  854MOL0     C12641   2.347  11.884   9.867 -0.4888  0.0275  1.0651
  854MOL0     C12642   2.448  11.848   9.947  0.1556 -0.7312 -0.7869
  854MOL0     O12643   2.805  11.698   9.851 -0.1371  0.7898  0.2219
  854MOL0     C12644   2.961  11.550  10.030 -0.5761  0.1358 -1.0692
  854MOL0     C12645   3.043  11.489  10.121  0.0645 -0.2268  0.2143
  854MOL0     N12646   3.285  10.785  10.355 -0.0740 -0.3701 -0.2800
  854MOL0     N12647   3.384  10.714  10.391  0.2183 -0.2454 -0.0317
  854MOL0     C12648   3.062   9.890   9.807 -0.4461 -0.5367  0.9619
  854MOL0     C12649   2.935   9.837   9.780  1.0565 -0.9775 -0.2907
  854MOL0     C12650   2.509   9.710   9.822  0.6324 -0.3770  0.3166
  854MOL0     C12651   2.466   9.756   9.695 -0.1295 -0.4169  0.1833
  854MOL0     C12652   2.344   9.717   9.637  0.0141  0.6960  0.5166
  854MOL0     C12653   2.266   9.623   9.703 -0.8196  0.0289  0.1253
  854MOL0     O12654   2.135   9.593   9.670 -0.7236 -1.0331  0.2086
  854MOL0     C12655   2.106   9.456   9.648 -0.2633  1.2062  0.3261
  854MOL0     C12656   1.965   9.445   9.598  0.1509 -0.8756 -0.5287
  854MOL0     C12657   1.911   9.317   9.651  0.0646 -0.2278 -0.4934
  854MOL0     C12658   1.981   9.190   9.598 -0.1680  0.0500 -0.0462
  854MOL0     C12659   1.954   9.164   9.453  0.3379 -0.1464 -0.8513
  854MOL0     C12660   1.919   9.128   9.341 -0.5200 -1.1283 -0.9250
  854MOL0     C12661   2.309   9.579   9.825  0.2388  0.2475 -0.2335
  854MOL0     C12662   2.432   9.617   9.886 -0.7611  0.0707 -0.3815
  854MOL0     H12663   2.761  10.039  10.000  2.0891  0.9679  2.0857
  854MOL0     H12664   2.980  10.115  10.047 -1.1107  1.4085 -1.1825
  854MOL0     H12665   3.245  10.191   9.780  2.9155  0.6256 -1.3539
  854MOL0     H12666   3.283  10.023   9.736  1.5142  0.8333 -0.3252
  854MOL0     H12667   3.470  10.124   9.768 -1.6972 -2.2448 -0.9438
  854MOL0     H12668   3.449  10.048   9.929 -1.1298 -1.6746  0.1381
  854MOL0     H12669   3.367  10.285  10.012  2.3238 -1.4509  2.4395
  854MOL0     H12670   3.407  10.350   9.857 -1.0040 -0.9685 -1.4670
  854MOL0     H12671   3.602  10.195  10.038 -1.0250 -0.2106  0.4324
  854MOL0     H12672   3.630  10.239   9.865  2.6953  0.2534  2.2018
  854MOL0     H12673   3.648  10.466   9.910  2.6118  1.3866  0.5333
  854MOL0     H12674   3.748  10.404  10.029  0.0192  0.8903 -0.9775
  854MOL0     H12675   3.577  10.403  10.195  0.1865  2.5394  2.4757
  854MOL0     H12676   3.470  10.482  10.086  0.6502 -1.9958 -2.4771
  854MOL0     H12677   3.757  10.581  10.161  0.4114  0.3007  2.2813
  854MOL0     H12678   3.630  10.676  10.070  1.9310 -0.0701 -1.3189
  854MOL0     H12679   3.685  10.724  10.325 -0.2137  0.5425  0.9910
  854MOL0     H12680   3.599  10.570  10.359  2.4198  1.6716  1.8065
  854MOL0     H12681   3.482  10.861  10.106  0.1438 -1.7957 -0.8043
  854MOL0     H12682   3.137  10.936  10.166 -0.9902  0.3480 -1.4956
  854MOL0     H12683   3.287  10.993  10.077  2.9045  0.6976  2.3859
  854MOL0     H12684   3.366  11.148  10.212  0.6250 -1.0073 -0.4813
  854MOL0     H12685   3.283  11.087  10.358 -0.1146 -0.0334 -0.2601
  854MOL0     H12686   3.177  11.240  10.128  1.5514  6.2624  1.5710
  854MOL0     H12687   3.078  11.154  10.262 -0.0432  0.6423  0.3129
  854MOL0     H12688   3.254  11.402  10.283  1.3031 -0.1062  1.4846
  854MOL0     H12689   3.232  11.298  10.420 -0.8553 -3.7131 -0.7458
  854MOL0     H12690   2.801  11.425  10.346 -1.4662  2.3220 -1.6345
  854MOL0     H12691   2.658  11.521  10.182  0.8140  0.3037  5.1490
  854MOL0     H12692   2.577  11.589   9.766  2.7899  2.1001 -0.7498
  854MOL0     H12693   2.422  11.671   9.613  1.4729 -2.9537  2.0087
  854MOL0     H12694   2.346  11.863   9.492 -0.8019 -2.6354 -1.9185
  854MOL0     H12695   2.187  11.924   9.471  2.7729  1.9331 -0.3905
  854MOL0     H12696   2.082  11.722   9.478  0.9088  1.8101  2.1702
  854MOL0     H12697   2.208  11.636   9.548 -2.2340  0.9277  1.5778
  854MOL0     H12698   2.349  11.669   9.334 -0.0107  1.1813 -2.0659
  854MOL0     H12699   2.212  11.767   9.268  1.4216  1.2709  0.4444
  854MOL0     H12700   2.227  11.469   9.352  2.9446 -0.1648 -2.5337
  854MOL0     H12701   2.073  11.550   9.314 -0.6339  2.1533 -2.3899
  854MOL0     H12702   2.152  11.588   9.088  0.2449  1.9934  1.9878
  854MOL0     H12703   2.163  11.417   9.123  1.3555  0.0524 -2.9366
  854MOL0     H12704   2.426  11.467   9.174  1.0974 -3.0068 -2.4378
  854MOL0     H12705   2.398  11.619   9.098 -2.9415  1.3667 -0.8209
  854MOL0     H12706   2.472  11.428   8.935  2.2147  2.3330  2.1004
  854MOL0     H12707   2.307  11.362   8.971  0.6003 -0.4128  4.0183
  854MOL0     H12708   2.231  11.602   8.876 -0.8268 -0.3403  1.2134
  854MOL0     H12709   2.311  11.504   8.765 -1.3947 -1.2628  0.6947
  854MOL0     H12710   2.281  11.965   9.898  0.3250  1.1622 -0.0690
  854MOL0     H12711   2.472  11.911  10.032 -0.8250  0.8933 -1.6582
  854MOL0     H12712   3.021  11.595   9.951  1.9410 -0.0942  0.5948
  854MOL0     H12713   3.148  11.476  10.098  0.6669 -2.2488  3.4981
  854MOL0     H12714   3.144   9.856   9.744  1.9503  2.8421  1.9608
  854MOL0     H12715   2.911   9.781   9.690 -0.7829  0.6430 -0.8629
  854MOL0     H12716   2.527   9.834   9.650 -0.6576 -1.1749 -1.9658
  854MOL0     H12717   2.294   9.754   9.548 -0.2521 -4.8018 -2.0232
  854MOL0     H12718   2.122   9.403   9.743 -2.5889  3.4487  2.1346
  854MOL0     H12719   2.179   9.423   9.574 -1.4870 -2.2825  0.4890
  854MOL0     H12720   1.902   9.526   9.638 -1.7146 -1.3735 -2.3005
  854MOL0     H12721   1.962   9.458   9.489  2.0420  4.2052 -0.2521
  854MOL0     H12722   1.802   9.312   9.641  0.0921  0.1801 -1.0455
  854MOL0     H12723   1.919   9.303   9.759  1.4075 -1.4773 -0.7300
  854MOL0     H12724   2.089   9.201   9.616 -0.1104  2.4016 -1.4777
  854MOL0     H12725   1.939   9.102   9.648 -0.9371  0.2214 -0.3892
  854MOL0     H12726   1.896   9.079   9.248 -0.2619 -1.6657 -0.7095
  854MOL0     H12727   2.243   9.518   9.885 -1.3793 -0.0999 -2.2647
  854MOL0     H12728   2.465   9.577   9.982  1.0808 -1.6328 -1.6458
  855MOL0     O12729   3.851  10.484   4.202 -0.0337  0.3526  0.1570
  855MOL0     C12730   3.850  10.535   4.317 -0.1454  0.0939 -0.0577
  855MOL0     O12731   3.957  10.567   4.392 -0.2175  0.2712  0.5601
  855MOL0     C12732   4.087  10.531   4.348 -0.3069 -0.2698  0.1798
  855MOL0     C12733   4.132  10.568   4.222  0.0085 -0.2508  0.4317
  855MOL0     C12734   4.271  10.538   4.192 -0.1256 -1.1018 -0.2560
  855MOL0     C12735   4.359  10.486   4.290  0.2643 -0.4507  0.5355
  855MOL0     O12736   4.486  10.452   4.258  0.2426 -0.0052 -0.1720
  855MOL0     C12737   4.585  10.482   4.355 -1.7871  0.5009 -1.1791
  855MOL0     C12738   4.728  10.482   4.295 -0.3569 -0.7689  0.3999
  855MOL0     C12739   4.753  10.614   4.221 -0.0621 -0.1598  1.0449
  855MOL0     C12740   4.760  10.735   4.311  0.2148 -0.0091  0.0730
  855MOL0     C12741   4.871  10.724   4.417 -0.9870  0.3535  0.5564
  855MOL0     C12742   4.929  10.858   4.437 -0.6602  0.1069  0.4837
  855MOL0     C12743   5.019  10.869   4.557  0.6499  0.2094 -0.4987
  855MOL0     C12744   4.949  10.933   4.677  0.0600  0.8439 -0.0481
  855MOL0     N12745   5.027  10.907   4.799 -0.1913  0.5111  0.1501
  855MOL0     C12746   5.143  10.958   4.838 -0.8966  0.2144 -0.0343
  855MOL0     C12747   5.183  10.885   4.949  0.2629 -0.3220  0.8040
  855MOL0     C12748   5.293  10.899   5.045 -0.2540 -0.1358 -0.8254
  855MOL0     C12749   5.432  10.917   4.978 -0.2949 -0.9084 -0.1128
  855MOL0     C12750   5.464  10.808   4.876 -0.8516  0.1036  0.8465
  855MOL0     C12751   5.470  10.668   4.943 -0.3238  0.6297 -0.6603
  855MOL0     O12752   5.522  10.566   4.861 -0.3095 -0.1739 -0.0155
  855MOL0     C12753   5.482  10.437   4.873  0.0427  0.5220 -0.0138
  855MOL0     C12754   5.393  10.387   4.975  0.3832  0.1070 -0.0736
  855MOL0     C12755   5.360  10.250   4.979 -0.1391  0.0183 -0.0493
  855MOL0     C12756   5.403  10.160   4.876  0.7614  0.4677 -0.1943
  855MOL0     C12757   5.342  10.020   4.864  0.3201 -0.5048 -0.3279
  855MOL0     O12758   5.227   9.986   4.943 -0.0244 -0.0038 -0.6481
  855MOL0     C12759   5.159   9.866   4.930 -0.2649 -0.1685  0.6387
  855MOL0     C12760   5.145   9.785   4.817  0.2146 -0.5431 -0.3148
  855MOL0     C12761   5.071   9.667   4.816 -0.8421  0.0813  0.2447
  855MOL0     C12762   5.018   9.614   4.933  0.6914 -1.1514 -1.2546
  855MOL0     O12763   4.950   9.496   4.948  0.5871  0.0327  0.1645
  855MOL0     C12764   4.908   9.429   4.834 -0.9642  0.3336 -0.0865
  855MOL0     C12765   4.815   9.319   4.876  0.7600  0.2452 -0.3682
  855MOL0     C12766   4.800   9.221   4.760 -0.0705 -0.2323 -0.0009
  855MOL0     C12767   4.690   9.110   4.781  0.2512 -0.0138 -0.2107
  855MOL0     C12768   4.555   9.167   4.841  0.7717  0.2400 -0.2486
  855MOL0     C12769   4.430   9.076   4.839  0.7148  0.7013  0.5697
  855MOL0     C12770   4.452   8.933   4.893  0.7361  0.6220 -0.4032
  855MOL0     C12771   4.341   8.842   4.847  0.4329 -0.2109  0.2226
  855MOL0    Cl12772   4.169   8.889   4.880 -0.1158  0.0761 -0.3766
  855MOL0     C12773   5.040   9.693   5.053 -0.0672  0.4469 -0.1651
  855MOL0     C12774   5.118   9.813   5.048 -0.4727  0.5853  0.6777
  855MOL0     O12775   5.399   9.935   4.795 -0.7678 -1.0518 -0.4205
  855MOL0     C12776   5.492  10.208   4.784 -0.4034 -0.2747 -0.2807
  855MOL0     C12777   5.542  10.343   4.789 -0.2028 -0.1591  0.4038
  855MOL0     N12778   5.089  10.786   4.978 -0.0685 -0.0630 -0.1810
  855MOL0     N12779   5.000  10.800   4.883  0.3662 -0.1266  0.2120
  855MOL0     C12780   4.305  10.463   4.419  0.9250  0.2539 -0.2451
  855MOL0     C12781   4.167  10.478   4.450 -0.1746 -0.2090  0.7855
  855MOL0     C12782   3.713  10.570   4.377  0.1470 -0.8163  0.9835
  855MOL0     C12783   3.595  10.550   4.312  0.4632  0.3285 -0.0054
  855MOL0     C12784   3.468  10.567   4.376 -0.3395 -0.2843 -0.3005
  855MOL0     C12785   3.454  10.614   4.502  0.6491  0.1706 -0.8677
  855MOL0     O12786   3.328  10.615   4.562 -0.4982 -0.7251  0.2067
  855MOL0     C12787   3.309  10.662   4.694  0.2476 -0.7511  0.9713
  855MOL0     C12788   3.177  10.631   4.742 -0.2094  0.3127  0.2204
  855MOL0     C12789   3.129  10.485   4.728  0.4183 -0.6012 -0.2434
  855MOL0     C12790   2.983  10.467   4.769 -0.8176  0.3391 -0.4110
  855MOL0     C12791   2.961  10.329   4.752  0.4945  0.3471  0.0080
  855MOL0     C12792   2.948  10.210   4.757 -0.2254  0.3374  0.2434
  855MOL0     C12793   3.575  10.634   4.569 -1.3895 -0.1442 -0.4996
  855MOL0     C12794   3.703  10.615   4.506 -0.3189 -0.3642 -0.7348
  855MOL0     H12795   4.062  10.600   4.145  0.0523 -2.7996 -0.7678
  855MOL0     H12796   4.296  10.557   4.088  1.6403 -1.5550  0.0627
  855MOL0     H12797   4.588  10.405   4.432  0.8416  0.6850 -0.9970
  855MOL0     H12798   4.561  10.565   4.422 -2.9349 -2.4813  2.4176
  855MOL0     H12799   4.744  10.404   4.220  0.7259 -0.1345 -0.0522
  855MOL0     H12800   4.806  10.471   4.371  1.0038 -2.6458 -1.1784
  855MOL0     H12801   4.675  10.635   4.147  0.4020 -0.1472  0.5467
  855MOL0     H12802   4.848  10.627   4.168  0.1051  1.6120  1.7349
  855MOL0     H12803   4.776  10.821   4.245  0.2451 -2.5073 -3.4662
  855MOL0     H12804   4.661  10.738   4.356 -0.7782 -1.0342 -1.8838
  855MOL0     H12805   4.949  10.661   4.375 -1.6432  0.4495 -0.8778
  855MOL0     H12806   4.836  10.678   4.510  1.3251 -2.4354  0.1865
  855MOL0     H12807   4.851  10.934   4.443 -1.8461 -0.7680 -2.1594
  855MOL0     H12808   4.998  10.878   4.354 -1.9655 -1.2334 -1.0044
  855MOL0     H12809   5.048  10.769   4.589 -0.1372 -1.4362 -4.3159
  855MOL0     H12810   5.113  10.913   4.524  1.1428 -1.2716 -1.1763
  855MOL0     H12811   4.845  10.900   4.682  0.7027 -1.1452  1.2459
  855MOL0     H12812   4.948  11.041   4.659  0.2103  0.5077 -2.3699
  855MOL0     H12813   5.189  11.040   4.783 -0.1808 -0.7055 -0.8354
  855MOL0     H12814   5.300  10.813   5.112  3.7417  0.0991 -0.6681
  855MOL0     H12815   5.279  10.983   5.114  1.2126 -0.1247 -0.4905
  855MOL0     H12816   5.510  10.911   5.054  0.7178  1.7770 -0.8274
  855MOL0     H12817   5.439  11.012   4.924 -0.1345 -0.9391 -0.1454
  855MOL0     H12818   5.390  10.803   4.796 -0.1447 -0.7008  0.2253
  855MOL0     H12819   5.555  10.830   4.821 -1.1467 -1.2676 -0.2682
  855MOL0     H12820   5.370  10.650   4.985 -0.0925  2.2628  0.7028
  855MOL0     H12821   5.545  10.671   5.022 -2.1922  1.7246  1.1865
  855MOL0     H12822   5.346  10.444   5.055 -1.3120 -1.4703  0.1194
  855MOL0     H12823   5.300  10.219   5.064 -1.8222  0.6429 -0.9608
  855MOL0     H12824   5.182   9.821   4.722 -1.7181  1.0950 -0.5321
  855MOL0     H12825   5.050   9.615   4.723 -1.2386 -0.4239  0.6126
  855MOL0     H12826   5.004   9.392   4.796 -0.7916  2.5888 -2.0821
  855MOL0     H12827   4.860   9.494   4.761  1.2064  2.1151 -0.0470
  855MOL0     H12828   4.719   9.367   4.898  0.7518  0.5363 -1.0264
  855MOL0     H12829   4.838   9.262   4.967  1.4152  0.1369 -0.5964
  855MOL0     H12830   4.896   9.169   4.752  0.5260  0.4800  1.9053
  855MOL0     H12831   4.769   9.270   4.667 -2.0366 -2.1591 -0.4381
  855MOL0     H12832   4.674   9.048   4.692  2.7537 -0.5633 -0.3688
  855MOL0     H12833   4.736   9.044   4.855  2.7854  1.9750  0.1418
  855MOL0     H12834   4.518   9.265   4.808 -3.1912 -0.2795  1.9989
  855MOL0     H12835   4.591   9.190   4.941  1.7149  0.3154 -0.5946
  855MOL0     H12836   4.408   9.052   4.734  0.9500  2.1414  0.1739
  855MOL0     H12837   4.347   9.116   4.897 -0.2311  0.5586 -0.6394
  855MOL0     H12838   4.547   8.889   4.860  2.2821 -0.4758  4.7006
  855MOL0     H12839   4.457   8.942   5.002  2.1306  0.6975 -0.4557
  855MOL0     H12840   4.347   8.757   4.915 -3.0443 -0.0070  0.9868
  855MOL0     H12841   4.353   8.812   4.742 -0.8957 -0.1196  0.0226
  855MOL0     H12842   5.015   9.663   5.154  1.4459  0.7923  0.3458
  855MOL0     H12843   5.133   9.872   5.138 -0.0706 -0.2516  1.1664
  855MOL0     H12844   5.533  10.146   4.705  0.8017 -0.4493  0.4534
  855MOL0     H12845   5.627  10.363   4.725  0.6417 -1.5569  1.0459
  855MOL0     H12846   4.360  10.412   4.497 -0.6721  0.1516  0.8575
  855MOL0     H12847   4.113  10.449   4.540  2.0330 -0.1528  2.2003
  855MOL0     H12848   3.610  10.524   4.208  0.1916 -0.4645  0.1493
  855MOL0     H12849   3.378  10.550   4.317 -0.1053  2.3237 -1.5521
  855MOL0     H12850   3.323  10.770   4.694 -4.0569  0.0311 -0.9379
  855MOL0     H12851   3.382  10.617   4.762  3.3928 -1.0057 -2.2899
  855MOL0     H12852   3.167  10.668   4.844  0.8773  0.8974  0.1257
  855MOL0     H12853   3.105  10.678   4.674 -1.1281  2.4392  2.5235
  855MOL0     H12854   3.184  10.423   4.799 -1.8427 -2.1500  0.2654
  855MOL0     H12855   3.155  10.445   4.630  1.9179  1.1621 -0.6330
  855MOL0     H12856   2.964  10.492   4.873 -1.5573  0.9279 -0.6838
  855MOL0     H12857   2.910  10.525   4.713 -1.9989 -0.6052  0.0935
  855MOL0     H12858   2.956  10.108   4.787  2.3932  1.1081  2.6096
  855MOL0     H12859   3.603  10.677   4.664  1.4779  0.0542 -1.3159
  855MOL0     H12860   3.794  10.647   4.555 -1.1451 -0.0366  0.6510
  856MOL0     O12861  10.374   7.448   4.164  0.3586  0.3135 -0.0641
  856MOL0     C12862  10.440   7.344   4.158 -0.7857 -0.2157  0.9186
  856MOL0     O12863  10.390   7.221   4.130  0.1759 -0.5593 -0.5107
  856MOL0     C12864  10.254   7.198   4.119  0.1935 -0.5888 -0.1106
  856MOL0     C12865  10.204   7.134   4.001  0.1943 -0.5093 -0.1666
  856MOL0     C12866  10.074   7.089   4.003 -1.2784  0.2215 -1.1757
  856MOL0     C12867   9.993   7.121   4.113 -0.0384 -0.4853 -0.2948
  856MOL0     O12868   9.860   7.077   4.114 -0.1920  0.3520  0.8664
  856MOL0     C12869   9.790   7.050   3.987 -0.4934 -0.1415  0.9252
  856MOL0     C12870   9.638   7.053   4.019  0.0297  0.2193 -0.2355
  856MOL0     C12871   9.561   6.977   3.906  0.4036 -1.0316 -0.3879
  856MOL0     C12872   9.408   7.006   3.924 -1.0722  0.2308 -1.1050
  856MOL0     C12873   9.321   6.955   3.810 -0.8113  0.4854  0.7957
  856MOL0     C12874   9.181   7.014   3.798  0.0460  0.1396 -0.3930
  856MOL0     C12875   9.109   6.959   3.680 -0.4701  0.5566  1.1677
  856MOL0     C12876   8.954   6.981   3.692  0.1417  0.4230  0.6957
  856MOL0     N12877   8.883   6.935   3.567 -0.4493  0.0062  0.2217
  856MOL0     C12878   8.851   7.011   3.457  0.6237 -0.7205  0.9096
  856MOL0     C12879   8.796   6.932   3.364  0.7414  0.2677  0.7883
  856MOL0     C12880   8.744   6.967   3.234 -0.6493 -0.7126  0.2830
  856MOL0     C12881   8.631   7.063   3.250 -0.0774 -0.2284  0.2347
  856MOL0     C12882   8.555   7.093   3.119 -1.0534  0.4409  0.3734
  856MOL0     C12883   8.420   7.151   3.146  0.1788  0.3429  0.5443
  856MOL0     O12884   8.328   7.154   3.035  0.3500  0.0029 -0.2255
  856MOL0     C12885   8.196   7.164   3.049 -0.4660  0.6203  0.6324
  856MOL0     C12886   8.117   7.114   2.946  0.0052  0.6876 -0.1470
  856MOL0     C12887   7.975   7.123   2.947  0.4136  0.1689  0.2174
  856MOL0     C12888   7.906   7.181   3.052  0.4154 -0.0961  0.2004
  856MOL0     C12889   7.760   7.183   3.069 -0.5153 -0.3818 -0.4258
  856MOL0     O12890   7.711   7.213   3.198 -0.0960 -0.3320 -0.3180
  856MOL0     C12891   7.583   7.239   3.223 -0.7701  0.0218 -0.2913
  856MOL0     C12892   7.522   7.184   3.333 -1.2917  0.4915  0.3732
  856MOL0     C12893   7.385   7.200   3.355  0.2687  0.7710 -0.2950
  856MOL0     C12894   7.304   7.285   3.288  0.4767  0.7368 -0.0683
  856MOL0     O12895   7.177   7.314   3.312 -0.6644 -0.5674 -0.1044
  856MOL0     C12896   7.128   7.268   3.438  0.1258 -0.1739  0.0965
  856MOL0     C12897   6.999   7.337   3.482  0.2090  0.3859 -0.2360
  856MOL0     C12898   6.872   7.266   3.421 -0.1979  0.4960 -0.4832
  856MOL0     C12899   6.749   7.354   3.420 -0.1562  0.5114  0.1672
  856MOL0     C12900   6.629   7.274   3.357 -0.2152 -0.5272 -0.1464
  856MOL0     C12901   6.498   7.316   3.425 -0.7904  0.5159  0.1995
  856MOL0     C12902   6.446   7.446   3.364 -0.6727 -0.3174 -0.3120
  856MOL0     C12903   6.295   7.451   3.390 -0.7285  0.0091 -0.4383
  856MOL0    Cl12904   6.191   7.331   3.299 -0.2519  0.0775 -0.2504
  856MOL0     C12905   7.360   7.344   3.178  0.0491  0.2260 -0.4594
  856MOL0     C12906   7.496   7.312   3.145 -0.2216  0.2703  0.4018
  856MOL0     O12907   7.694   7.164   2.972  0.6198 -0.8400  0.2769
  856MOL0     C12908   7.988   7.231   3.156 -0.1341 -0.1722 -0.4426
  856MOL0     C12909   8.130   7.223   3.155  0.4882  0.1629  0.9002
  856MOL0     N12910   8.799   6.800   3.420 -0.0354 -0.1015  0.3468
  856MOL0     N12911   8.852   6.801   3.541 -0.0639 -0.2746 -0.2223
  856MOL0     C12912  10.034   7.186   4.222  0.7954  0.4272  0.1575
  856MOL0     C12913  10.169   7.228   4.224 -0.5949 -0.6041  0.0887
  856MOL0     C12914  10.587   7.351   4.194  0.5604  0.5569  0.2198
  856MOL0     C12915  10.643   7.469   4.235 -0.0332 -0.8359 -0.1496
  856MOL0     C12916  10.774   7.468   4.278  0.5467  0.7543 -0.4633
  856MOL0     C12917  10.855   7.354   4.274 -0.0363 -0.2828 -0.5886
  856MOL0     O12918  10.988   7.371   4.317  0.2509  0.7708  0.0236
  856MOL0     C12919  11.066   7.259   4.286  0.0717 -0.2576 -0.7900
  856MOL0     C12920  11.221   7.282   4.307  0.4517  0.1108  0.2895
  856MOL0     C12921  11.291   7.336   4.181 -0.2029 -0.9201  0.5506
  856MOL0     C12922  11.420   7.408   4.209  0.2705 -0.3628  0.2451
  856MOL0     C12923  11.505   7.323   4.286  0.3182  0.0193 -0.5451
  856MOL0     C12924  11.589   7.285   4.364 -0.0348 -0.2779  0.6432
  856MOL0     C12925  10.797   7.233   4.228  0.3979 -0.7367 -0.3253
  856MOL0     C12926  10.662   7.229   4.187 -0.1168 -0.9470 -0.4827
  856MOL0     H12927  10.265   7.113   3.913 -0.0042 -1.7875 -0.0194
  856MOL0     H12928  10.040   7.024   3.923  0.8024  0.0290 -1.9621
  856MOL0     H12929   9.809   6.950   3.947 -0.2627 -0.4015  1.6769
  856MOL0     H12930   9.816   7.117   3.904  1.0276 -0.9844  0.6744
  856MOL0     H12931   9.607   7.158   4.024 -1.1231 -0.1534  1.3820
  856MOL0     H12932   9.629   6.994   4.111 -4.8172  2.1231  0.8113
  856MOL0     H12933   9.570   6.868   3.907 -1.9378 -1.2668  0.3294
  856MOL0     H12934   9.584   7.010   3.805 -1.3803 -1.5205 -0.9818
  856MOL0     H12935   9.372   6.970   4.021  0.4396  0.1018 -0.5749
  856MOL0     H12936   9.384   7.112   3.937  0.3752  0.6900 -2.0430
  856MOL0     H12937   9.307   6.849   3.836  1.8805  0.7097  3.8750
  856MOL0     H12938   9.374   6.976   3.716 -0.5466  1.2640  1.1178
  856MOL0     H12939   9.183   7.123   3.789 -1.3931  0.1774 -0.4842
  856MOL0     H12940   9.128   6.989   3.891 -0.0321  0.0488 -0.4626
  856MOL0     H12941   9.133   7.007   3.585 -1.3458  1.5585  1.4420
  856MOL0     H12942   9.123   6.851   3.674 -0.3305  0.4859  2.4419
  856MOL0     H12943   8.939   7.089   3.695 -0.1940  0.4100 -0.1416
  856MOL0     H12944   8.910   6.928   3.777  0.1616 -1.8928 -0.6338
  856MOL0     H12945   8.881   7.114   3.439 -0.5793 -0.8242 -2.1425
  856MOL0     H12946   8.713   6.877   3.180  0.2204 -1.1743  0.5172
  856MOL0     H12947   8.825   7.025   3.188 -0.7479  0.3863  1.4609
  856MOL0     H12948   8.663   7.157   3.296  4.3246 -1.6224  0.5568
  856MOL0     H12949   8.558   7.016   3.317 -0.5176 -0.3434 -0.3183
  856MOL0     H12950   8.612   7.153   3.047 -0.3726  0.2571  0.7524
  856MOL0     H12951   8.545   6.995   3.072 -0.5844  1.3287 -1.7310
  856MOL0     H12952   8.431   7.255   3.177  3.0173  0.4871 -0.6389
  856MOL0     H12953   8.377   7.090   3.226 -1.1124 -1.0362 -1.1166
  856MOL0     H12954   8.162   7.060   2.863 -2.2537 -0.2450 -0.8366
  856MOL0     H12955   7.928   7.075   2.862 -0.3918 -0.1284  0.8201
  856MOL0     H12956   7.585   7.130   3.403  0.4922  0.7568 -0.9570
  856MOL0     H12957   7.349   7.144   3.442 -1.2509 -1.8769 -2.4711
  856MOL0     H12958   7.204   7.283   3.516  0.5914  0.3320 -0.4488
  856MOL0     H12959   7.110   7.161   3.454 -0.0357 -0.5649 -2.4042
  856MOL0     H12960   6.996   7.441   3.445 -1.6828  2.1847  4.2538
  856MOL0     H12961   7.006   7.342   3.591  4.3249 -0.4804 -0.3133
  856MOL0     H12962   6.852   7.175   3.479 -1.4785  3.2085  3.8108
  856MOL0     H12963   6.902   7.239   3.319  0.0956 -0.5797 -0.1323
  856MOL0     H12964   6.734   7.391   3.522  0.7942  0.6487  0.2678
  856MOL0     H12965   6.779   7.446   3.369  1.5770  1.3112  2.4353
  856MOL0     H12966   6.628   7.165   3.369 -2.7030 -0.6095 -0.4238
  856MOL0     H12967   6.634   7.299   3.250  0.3437  1.2801  0.2595
  856MOL0     H12968   6.509   7.321   3.534 -0.0513 -1.5255  0.2556
  856MOL0     H12969   6.434   7.230   3.402  2.8479 -2.2955 -0.4485
  856MOL0     H12970   6.508   7.528   3.400  0.2312 -1.3123  0.4455
  856MOL0     H12971   6.461   7.437   3.256  1.6985  0.1601 -0.0598
  856MOL0     H12972   6.256   7.539   3.338 -0.4829 -1.3134 -3.0110
  856MOL0     H12973   6.270   7.448   3.497 -1.8235 -2.2759 -0.7062
  856MOL0     H12974   7.292   7.398   3.112 -1.9079  0.4801  1.6110
  856MOL0     H12975   7.539   7.355   3.055 -3.3753  0.6780 -1.0211
  856MOL0     H12976   7.945   7.274   3.246  1.5250 -0.6070  0.6023
  856MOL0     H12977   8.185   7.275   3.233  0.3577  1.3266  0.2272
  856MOL0     H12978   9.965   7.205   4.304 -2.0558 -1.1123 -1.7162
  856MOL0     H12979  10.203   7.289   4.306 -0.7220  2.3706 -1.9021
  856MOL0     H12980  10.581   7.559   4.230 -0.1864 -1.0215 -2.1679
  856MOL0     H12981  10.824   7.561   4.305  0.4384  0.2213  1.7392
  856MOL0     H12982  11.054   7.220   4.185  0.2858 -0.2429 -0.8227
  856MOL0     H12983  11.042   7.180   4.359 -1.3304  1.7000  0.9980
  856MOL0     H12984  11.236   7.345   4.396 -1.8583  3.1308 -1.2938
  856MOL0     H12985  11.268   7.184   4.320  1.5733  0.7229  1.0285
  856MOL0     H12986  11.226   7.420   4.155  0.7289  0.5805  2.7611
  856MOL0     H12987  11.302   7.254   4.109  0.5158 -1.5173  1.3188
  856MOL0     H12988  11.472   7.432   4.116  0.4766  1.1440  0.7315
  856MOL0     H12989  11.399   7.498   4.267 -0.2254 -0.1445 -0.2662
  856MOL0     H12990  11.650   7.237   4.437 -0.0473 -1.7436 -0.2551
  856MOL0     H12991  10.844   7.136   4.231  0.5095 -0.6548  1.3317
  856MOL0     H12992  10.615   7.139   4.149  1.3855 -1.8611 -0.2889
  857MOL0     O12993   1.497   0.970   0.641  0.0136  0.7820 -0.3564
  857MOL0     C12994   1.578   0.932   0.727  0.3077 -0.1425  0.5726
  857MOL0     O12995   1.554   0.926   0.855 -0.6117  1.0099  0.5585
  857MOL0     C12996   1.453   1.006   0.902  0.3697 -0.2707  0.8170
  857MOL0     C12997   1.467   1.139   0.928 -0.0390 -0.2577  0.3513
  857MOL0     C12998   1.356   1.220   0.961  0.4057 -0.3496  0.0987
  857MOL0     C12999   1.236   1.160   0.986  0.5306  0.5709  0.6193
  857MOL0     O13000   1.125   1.241   1.021  0.7575  0.1428  0.2836
  857MOL0     C13001   0.989   1.198   0.985  0.1510  0.9649 -0.0629
  857MOL0     C13002   0.886   1.283   1.051  0.0724  0.4041 -0.0541
  857MOL0     C13003   0.734   1.251   1.009 -0.6819  0.8260  0.0248
  857MOL0     C13004   0.635   1.347   1.073  0.3155 -0.3796 -0.7950
  857MOL0     C13005   0.494   1.299   1.056 -0.6651 -0.5270  0.0120
  857MOL0     C13006   0.402   1.400   1.136  0.6438 -0.6874 -0.9032
  857MOL0     C13007   0.249   1.361   1.129 -0.2130 -0.8087 -0.4039
  857MOL0     C13008   0.177   1.387   0.993 -0.0042  0.4589 -0.2310
  857MOL0     N13009   0.152   1.534   0.964 -0.1726 -0.0985  0.6683
  857MOL0     C13010   0.054   1.595   1.030  0.1304  0.2459  0.5185
  857MOL0     C13011   0.088   1.727   1.029  0.1041 -0.5986 -0.3525
  857MOL0     C13012   0.008   1.831   1.100  0.2345  0.0195  0.0657
  857MOL0     C13013  -0.083   1.907   0.999  0.2554  0.0720  0.5584
  857MOL0     C13014  -0.011   2.025   0.935  0.0236  0.9931 -0.0647
  857MOL0     C13015  -0.000   2.144   1.030  0.3389  0.1559 -0.1568
  857MOL0     O13016  -0.137   2.183   1.065 -0.3163 -0.8157  0.1083
  857MOL0     C13017  -0.209   2.268   0.981 -0.0398 -0.1682 -0.2902
  857MOL0     C13018  -0.336   2.297   1.031 -0.1629 -0.1167  0.1294
  857MOL0     C13019  -0.428   2.371   0.954 -0.0077  0.3590  0.2547
  857MOL0     C13020  -0.391   2.431   0.829  0.2467  0.5299 -0.8471
  857MOL0     C13021  -0.496   2.514   0.753  0.2623  0.6100  0.4009
  857MOL0     O13022  -0.605   2.545   0.828  0.7509  0.2582  0.7236
  857MOL0     C13023  -0.714   2.618   0.775 -0.0452  0.7646  0.4895
  857MOL0     C13024  -0.782   2.579   0.652 -0.0024 -0.5108 -0.8603
  857MOL0     C13025  -0.872   2.669   0.603 -0.0391 -0.4870  0.5903
  857MOL0     C13026  -0.902   2.787   0.674  0.7150  0.1089 -0.0834
  857MOL0     O13027  -1.003   2.871   0.630  0.0678 -0.5526 -0.5841
  857MOL0     C13028  -1.127   2.801   0.587 -0.7965  0.3905  0.1887
  857MOL0     C13029  -1.238   2.885   0.631 -0.3695 -0.5664 -0.5073
  857MOL0     C13030  -1.367   2.811   0.605  0.7435 -0.3175  1.1484
  857MOL0     C13031  -1.393   2.722   0.721  1.2318  0.5341 -0.2646
  857MOL0     C13032  -1.452   2.582   0.707  0.0758  0.6348  0.2397
  857MOL0     C13033  -1.582   2.571   0.619  0.4064  0.0970  0.0153
  857MOL0     C13034  -1.710   2.618   0.694  0.6104  0.1030  0.6604
  857MOL0     C13035  -1.836   2.602   0.605  0.3260 -0.2010  0.0920
  857MOL0    Cl13036  -1.869   2.421   0.598 -0.6930  0.5246 -0.0596
  857MOL0     C13037  -0.841   2.822   0.793  0.2854 -1.1979  0.2481
  857MOL0     C13038  -0.748   2.737   0.840  0.4415 -0.0298 -0.2518
  857MOL0     O13039  -0.472   2.557   0.644 -0.0829 -0.0159  0.0336
  857MOL0     C13040  -0.261   2.394   0.777  0.0709 -0.0810  0.0462
  857MOL0     C13041  -0.178   2.324   0.863  0.9237  0.7170 -0.0953
  857MOL0     N13042   0.200   1.742   0.946 -0.2560  0.4102 -0.0084
  857MOL0     N13043   0.237   1.627   0.896  0.8828 -0.1352 -0.3114
  857MOL0     C13044   1.229   1.023   0.969 -0.5675  0.2426  0.1765
  857MOL0     C13045   1.327   0.945   0.930 -0.4356  0.3536  0.2073
  857MOL0     C13046   1.710   0.877   0.683  0.0031 -0.8394 -0.4379
  857MOL0     C13047   1.729   0.858   0.539  0.5128  0.3327 -0.3869
  857MOL0     C13048   1.852   0.807   0.506  0.3797 -0.0497 -0.1456
  857MOL0     C13049   1.952   0.770   0.601 -0.1715 -0.1406  0.5174
  857MOL0     O13050   2.066   0.740   0.540 -0.2007 -0.4519 -0.5013
  857MOL0     C13051   2.171   0.682   0.614  0.8244 -0.4317 -0.1508
  857MOL0     C13052   2.289   0.665   0.517  0.2814  0.4275  0.3037
  857MOL0     C13053   2.344   0.800   0.467  0.5575 -0.4801  0.5383
  857MOL0     C13054   2.431   0.784   0.344 -1.0144 -0.0822  1.0189
  857MOL0     C13055   2.557   0.728   0.378  0.6603 -0.7167 -0.6758
  857MOL0     C13056   2.666   0.683   0.399 -0.1868 -0.1718  0.7825
  857MOL0     C13057   1.926   0.779   0.742 -0.2903  0.3689  0.2863
  857MOL0     C13058   1.800   0.835   0.783  0.7783  0.2086 -0.7464
  857MOL0     H13059   1.569   1.175   0.927  0.1590 -0.7281  1.6400
  857MOL0     H13060   1.362   1.325   0.985 -3.2026 -0.2688  1.2198
  857MOL0     H13061   0.976   1.094   1.017 -1.9639  1.6584  1.5218
  857MOL0     H13062   0.975   1.211   0.877  1.1178  1.2883 -0.1591
  857MOL0     H13063   0.910   1.387   1.028  1.6797  0.0812  0.0115
  857MOL0     H13064   0.886   1.271   1.159 -1.5239  2.7272  0.2689
  857MOL0     H13065   0.717   1.146   1.033 -0.4852  0.5746 -0.9205
  857MOL0     H13066   0.716   1.256   0.901 -0.0932 -1.2791 -0.2164
  857MOL0     H13067   0.667   1.340   1.178 -2.0105 -0.8550 -0.0693
  857MOL0     H13068   0.644   1.451   1.040  0.0557 -0.8185 -2.3131
  857MOL0     H13069   0.494   1.210   1.118 -0.1691  0.1485  1.0031
  857MOL0     H13070   0.466   1.288   0.951  1.9368 -3.2120 -0.5341
  857MOL0     H13071   0.415   1.504   1.106 -2.2756 -0.0873 -0.3841
  857MOL0     H13072   0.417   1.397   1.245 -0.2167  0.0696 -0.7547
  857MOL0     H13073   0.245   1.256   1.159  0.5750 -0.3835  1.2668
  857MOL0     H13074   0.196   1.416   1.207  1.6643 -1.4521  1.4253
  857MOL0     H13075   0.083   1.333   0.975 -0.8886  1.2083  1.8810
  857MOL0     H13076   0.254   1.348   0.926  1.2447  1.6710  0.4678
  857MOL0     H13077  -0.029   1.556   1.087  0.6737  2.9232  3.4625
  857MOL0     H13078   0.077   1.900   1.149 -1.3409  1.2895  0.6235
  857MOL0     H13079  -0.056   1.786   1.176 -0.4329  0.8505  0.0156
  857MOL0     H13080  -0.181   1.932   1.040 -0.3909  2.1953 -1.9868
  857MOL0     H13081  -0.108   1.832   0.924  2.8207 -2.4211  2.0210
  857MOL0     H13082   0.088   1.993   0.902  0.1639  1.9235 -0.5694
  857MOL0     H13083  -0.066   2.052   0.845  0.1809  2.0995  0.1650
  857MOL0     H13084   0.048   2.224   0.973 -0.7216  0.6971 -0.3178
  857MOL0     H13085   0.063   2.135   1.119  3.3777  0.5219 -2.1421
  857MOL0     H13086  -0.360   2.278   1.135  3.6399  1.3439  1.4319
  857MOL0     H13087  -0.523   2.391   1.004 -1.5785 -2.6217 -1.2850
  857MOL0     H13088  -0.740   2.498   0.594  1.0934  0.2626 -1.1902
  857MOL0     H13089  -0.898   2.637   0.503  1.0843 -0.9613  0.4364
  857MOL0     H13090  -1.136   2.708   0.644  1.7284 -1.2370 -1.8482
  857MOL0     H13091  -1.119   2.783   0.480 -2.6340 -0.7893  0.1968
  857MOL0     H13092  -1.227   2.976   0.571 -1.7194 -0.4455 -0.6094
  857MOL0     H13093  -1.228   2.916   0.736  0.3447 -0.5706 -0.5712
  857MOL0     H13094  -1.370   2.769   0.504 -0.0169  2.0259  0.1378
  857MOL0     H13095  -1.442   2.890   0.607 -1.1011 -2.0206  1.6082
  857MOL0     H13096  -1.304   2.702   0.782  3.0369  3.0565 -1.8460
  857MOL0     H13097  -1.460   2.780   0.785 -2.7564 -1.8864 -1.8625
  857MOL0     H13098  -1.475   2.526   0.798 -3.8320 -1.6669 -1.8725
  857MOL0     H13099  -1.379   2.526   0.648 -0.0115  0.8383 -0.0660
  857MOL0     H13100  -1.586   2.465   0.592  3.9708 -0.3984  0.8264
  857MOL0     H13101  -1.579   2.623   0.523 -2.1211  2.6193  1.1937
  857MOL0     H13102  -1.719   2.583   0.798  1.2980  0.3792  0.8206
  857MOL0     H13103  -1.697   2.725   0.711 -3.0150  0.4930  1.6804
  857MOL0     H13104  -1.816   2.652   0.510 -1.1451  3.7056  1.6611
  857MOL0     H13105  -1.911   2.667   0.651  1.6559  1.1228  0.4542
  857MOL0     H13106  -0.855   2.918   0.842  0.7417 -0.8756 -0.2422
  857MOL0     H13107  -0.690   2.759   0.929  1.0082 -2.2484 -0.0254
  857MOL0     H13108  -0.219   2.440   0.688 -0.1653  1.4203  0.6793
  857MOL0     H13109  -0.075   2.312   0.831  0.9036  0.7314 -0.1645
  857MOL0     H13110   1.136   0.982   1.008  0.1350 -2.8530 -1.1541
  857MOL0     H13111   1.317   0.837   0.926  2.8453 -0.0797  1.4388
  857MOL0     H13112   1.655   0.886   0.465 -1.3244  0.4851  1.3976
  857MOL0     H13113   1.867   0.799   0.399 -0.9947  1.3541 -0.4705
  857MOL0     H13114   2.136   0.590   0.660 -1.9109  0.5096 -0.1753
  857MOL0     H13115   2.188   0.757   0.692  0.0290 -0.4269  0.0271
  857MOL0     H13116   2.368   0.600   0.557  1.0657  1.8223  1.1293
  857MOL0     H13117   2.238   0.624   0.430  0.1097 -0.1244  0.6579
  857MOL0     H13118   2.389   0.860   0.547 -0.1539  0.7035  0.0717
  857MOL0     H13119   2.256   0.859   0.440  0.5154 -0.8339 -0.1385
  857MOL0     H13120   2.372   0.718   0.279  0.0307 -1.4303  1.3957
  857MOL0     H13121   2.460   0.884   0.311  0.4844 -0.1140  2.1231
  857MOL0     H13122   2.759   0.640   0.429 -1.1667 -2.7563  0.3955
  857MOL0     H13123   2.005   0.739   0.805 -0.3495 -1.1374 -0.5402
  857MOL0     H13124   1.788   0.842   0.890  3.0335  2.1279 -0.5309
  858MOL0     O13125   9.995   5.106   6.413  0.3464  0.6165  0.9844
  858MOL0     C13126   9.977   5.077   6.295  0.4766  0.3044  0.5273
  858MOL0     O13127   9.854   5.048   6.231  0.1921  0.1379 -0.3879
  858MOL0     C13128   9.737   5.049   6.304 -1.2753 -0.6738 -0.4607
  858MOL0     C13129   9.704   4.941   6.378  0.2734  0.5903  0.6602
  858MOL0     C13130   9.594   4.951   6.469  0.0166  0.4622  0.4579
  858MOL0     C13131   9.515   5.065   6.476 -0.4845 -0.3233  0.1505
  858MOL0     O13132   9.416   5.062   6.569  0.3948  0.1524 -0.1229
  858MOL0     C13133   9.378   5.180   6.639  0.9498  1.0348 -0.7442
  858MOL0     C13134   9.476   5.237   6.732  0.0544 -0.4929  0.4087
  858MOL0     C13135   9.505   5.160   6.858  0.7422 -0.0646  0.7787
  858MOL0     C13136   9.622   5.063   6.853  1.3369  0.0841  0.8499
  858MOL0     C13137   9.625   4.988   6.985  0.3072  0.8383  0.3093
  858MOL0     C13138   9.695   5.063   7.104  0.4602  0.2239  0.1980
  858MOL0     C13139   9.849   5.061   7.080 -0.4609  1.1137 -0.2016
  858MOL0     C13140   9.923   5.026   7.207  0.1604  0.1856  0.0780
  858MOL0     N13141   9.890   4.889   7.248  0.3214 -0.2112  0.2042
  858MOL0     C13142   9.905   4.774   7.166  0.2115 -0.4466 -0.5930
  858MOL0     C13143   9.867   4.669   7.249  0.9825  0.1480  0.0259
  858MOL0     C13144   9.837   4.526   7.212  0.0140 -0.9407 -0.0569
  858MOL0     C13145   9.682   4.498   7.194 -0.0283  0.0231  0.5773
  858MOL0     C13146   9.603   4.605   7.113  0.7110 -0.5141 -0.2513
  858MOL0     C13147   9.460   4.576   7.102  0.0420  0.2936  0.2369
  858MOL0     O13148   9.392   4.670   7.012 -0.3230  0.4641 -0.0531
  858MOL0     C13149   9.256   4.692   7.011 -1.0110 -0.1186 -1.2703
  858MOL0     C13150   9.222   4.804   6.941 -0.3966  0.3615 -0.6019
  858MOL0     C13151   9.092   4.835   6.917  0.6784  0.4963 -0.4034
  858MOL0     C13152   8.986   4.757   6.979  0.4426  0.2137 -0.4161
  858MOL0     C13153   8.850   4.799   6.964  0.0244  0.4121  0.4003
  858MOL0     O13154   8.752   4.709   7.000 -0.2035 -0.0096 -0.1014
  858MOL0     C13155   8.628   4.758   6.992 -0.0637  0.0510 -0.3133
  858MOL0     C13156   8.560   4.740   6.869 -0.3763 -0.2610 -0.2651
  858MOL0     C13157   8.428   4.790   6.856  0.2895 -0.4609  0.1041
  858MOL0     C13158   8.364   4.853   6.967  0.1948 -0.0846 -1.0894
  858MOL0     O13159   8.231   4.884   6.946 -0.2701  0.2691  0.4586
  858MOL0     C13160   8.147   4.918   7.060  0.2210  0.0869  0.2939
  858MOL0     C13161   8.009   4.950   7.016 -0.4214  0.3832  0.3396
  858MOL0     C13162   7.971   4.855   6.905 -0.0691  0.7033 -0.6781
  858MOL0     C13163   7.820   4.814   6.911  0.3458 -0.2594 -0.2838
  858MOL0     C13164   7.775   4.749   6.779 -0.5661 -0.3449 -0.0924
  858MOL0     C13165   7.621   4.730   6.768  0.8970  0.5238  0.8006
  858MOL0     C13166   7.598   4.699   6.621 -0.1684  0.5402  0.7278
  858MOL0     C13167   7.460   4.732   6.572  0.4849 -0.5935 -0.0022
  858MOL0    Cl13168   7.431   4.909   6.577 -0.0635 -0.3556  0.1195
  858MOL0     C13169   8.439   4.875   7.082 -0.3181  0.4808 -0.6430
  858MOL0     C13170   8.568   4.823   7.096  0.0199  0.2723  0.2346
  858MOL0     O13171   8.830   4.911   6.925 -0.0528  0.4318 -0.4060
  858MOL0     C13172   9.024   4.653   7.064  0.1995  0.3706  0.1340
  858MOL0     C13173   9.160   4.628   7.091 -0.5284  0.2912 -0.3119
  858MOL0     N13174   9.855   4.721   7.379  0.8574 -0.7833 -1.2147
  858MOL0     N13175   9.868   4.854   7.369 -0.3513 -0.3435  0.0603
  858MOL0     C13176   9.543   5.162   6.386  0.1843 -0.0116  0.3637
  858MOL0     C13177   9.654   5.161   6.304 -0.6340 -0.8156  0.0621
  858MOL0     C13178  10.105   5.065   6.208 -0.0967 -0.3743 -0.2419
  858MOL0     C13179  10.094   5.079   6.064  0.2733  0.1164 -0.1067
  858MOL0     C13180  10.204   5.081   5.981 -0.0222  0.4854  0.2165
  858MOL0     C13181  10.328   5.086   6.039 -0.2257 -0.0567 -0.1155
  858MOL0     O13182  10.425   5.101   5.944 -0.1761  0.7374 -0.1177
  858MOL0     C13183  10.559   5.126   5.977 -0.4130  0.3451  0.6035
  858MOL0     C13184  10.641   5.166   5.847 -0.2334  0.4880  0.3879
  858MOL0     C13185  10.705   5.050   5.769 -0.1552 -0.2720 -0.4975
  858MOL0     C13186  10.747   5.077   5.624  0.4801  0.7784 -0.6061
  858MOL0     C13187  10.860   5.165   5.613  0.4037  0.3298  0.6923
  858MOL0     C13188  10.947   5.247   5.625 -0.1402 -0.1136 -0.0886
  858MOL0     C13189  10.352   5.089   6.174 -0.7484  0.2933 -0.6886
  858MOL0     C13190  10.241   5.077   6.261  0.5369 -0.3550  0.4235
  858MOL0     H13191   9.765   4.852   6.368  0.8160  0.9003  1.1026
  858MOL0     H13192   9.582   4.867   6.537  2.6397 -1.7580 -1.5932
  858MOL0     H13193   9.286   5.160   6.694  2.1704  0.1103  1.0635
  858MOL0     H13194   9.358   5.255   6.562  1.0314  3.0143  1.0600
  858MOL0     H13195   9.431   5.333   6.756  0.4775  0.4596 -2.2619
  858MOL0     H13196   9.564   5.260   6.671 -0.5379 -1.4283 -0.8292
  858MOL0     H13197   9.412   5.117   6.895  1.0615  0.9164  2.8516
  858MOL0     H13198   9.538   5.232   6.933  0.8335  1.3490 -0.5586
  858MOL0     H13199   9.594   4.992   6.775 -3.8967 -0.7144  3.0024
  858MOL0     H13200   9.721   5.103   6.827  0.8405  0.3139 -0.8061
  858MOL0     H13201   9.673   4.893   6.961 -4.9275 -1.3981 -3.4199
  858MOL0     H13202   9.524   4.970   7.022 -1.3606  0.5459 -3.7820
  858MOL0     H13203   9.660   5.008   7.191 -1.5141  0.6138 -0.3057
  858MOL0     H13204   9.671   5.169   7.115 -2.8621 -0.4710  0.6336
  858MOL0     H13205   9.883   4.995   6.999  0.5569  3.4113 -1.7458
  858MOL0     H13206   9.880   5.161   7.048 -0.9875  0.8808 -1.5149
  858MOL0     H13207   9.900   5.104   7.281 -0.5904  2.2839 -2.2304
  858MOL0     H13208  10.028   5.040   7.181 -0.2142  0.9488 -1.1181
  858MOL0     H13209   9.909   4.787   7.058  0.2283  0.8460 -0.4520
  858MOL0     H13210   9.872   4.456   7.288 -0.5714  0.5143  1.6010
  858MOL0     H13211   9.884   4.490   7.119 -0.7897 -2.1762 -0.0106
  858MOL0     H13212   9.642   4.475   7.293 -0.9137 -0.2861  0.1539
  858MOL0     H13213   9.663   4.410   7.133 -1.3099  1.0977 -0.6454
  858MOL0     H13214   9.609   4.700   7.166 -1.1058 -0.2495 -0.4551
  858MOL0     H13215   9.647   4.611   7.012 -1.0072  0.1770 -0.9968
  858MOL0     H13216   9.416   4.581   7.202 -1.1033  1.4665 -0.2876
  858MOL0     H13217   9.439   4.479   7.057  1.1890 -0.2556  0.8476
  858MOL0     H13218   9.298   4.868   6.897  0.1544 -0.0162 -0.2026
  858MOL0     H13219   9.074   4.920   6.853  3.2905  0.9149 -0.6835
  858MOL0     H13220   8.610   4.688   6.788 -0.8680  1.6491 -1.8694
  858MOL0     H13221   8.371   4.769   6.766 -0.3234 -1.9742  0.7937
  858MOL0     H13222   8.182   5.008   7.111 -0.3748  1.7123 -1.9728
  858MOL0     H13223   8.151   4.832   7.127  2.7338  1.4960  2.1171
  858MOL0     H13224   7.992   5.055   6.991  1.4276  0.2324 -1.8209
  858MOL0     H13225   7.945   4.931   7.103 -2.7822 -0.8116 -1.5288
  858MOL0     H13226   8.023   4.760   6.920  0.8315  1.6683  3.7985
  858MOL0     H13227   8.001   4.890   6.806 -3.4686 -1.6137 -2.7657
  858MOL0     H13228   7.805   4.744   6.994 -2.6596  0.1776 -0.3550
  858MOL0     H13229   7.756   4.899   6.934 -1.2198 -1.2513 -0.8150
  858MOL0     H13230   7.821   4.650   6.770 -0.5749 -0.3649  0.0828
  858MOL0     H13231   7.816   4.808   6.696  2.3041 -0.3424  1.2185
  858MOL0     H13232   7.561   4.817   6.797 -0.0389 -0.4861  2.0432
  858MOL0     H13233   7.590   4.642   6.825 -0.5164  2.5160  3.3621
  858MOL0     H13234   7.664   4.751   6.551 -0.4348 -1.0977 -0.7896
  858MOL0     H13235   7.612   4.592   6.604 -0.0578  0.6207  0.3046
  858MOL0     H13236   7.386   4.679   6.633 -0.5984 -1.3177 -1.8432
  858MOL0     H13237   7.451   4.708   6.466  1.4509  1.3784 -0.5882
  858MOL0     H13238   8.406   4.919   7.175 -2.1151 -0.4448 -0.8006
  858MOL0     H13239   8.616   4.841   7.192 -0.2885 -3.8278  1.3338
  858MOL0     H13240   8.961   4.586   7.122  0.7108  0.1008  0.3790
  858MOL0     H13241   9.200   4.550   7.155  1.7980  0.6192 -1.2977
  858MOL0     H13242   9.469   5.239   6.370  0.1657 -0.2807 -0.9486
  858MOL0     H13243   9.674   5.242   6.235  1.5691  0.3431  1.9269
  858MOL0     H13244   9.996   5.078   6.017 -0.0163 -2.0306  0.4284
  858MOL0     H13245  10.186   5.090   5.874 -0.3668 -2.6876 -0.0922
  858MOL0     H13246  10.608   5.033   6.009  0.1334 -0.0828 -1.3828
  858MOL0     H13247  10.560   5.200   6.058 -0.6292 -0.9008  1.7916
  858MOL0     H13248  10.577   5.225   5.780  0.0893  0.0229 -0.3378
  858MOL0     H13249  10.722   5.231   5.883  1.1780 -0.0564 -1.6386
  858MOL0     H13250  10.637   4.965   5.763 -0.9596  0.2992  0.1466
  858MOL0     H13251  10.800   5.033   5.821  1.0385 -0.1027 -2.5285
  858MOL0     H13252  10.761   4.982   5.572 -0.8400 -0.1569  0.6468
  858MOL0     H13253  10.655   5.113   5.578 -0.1063  0.0131 -0.0618
  858MOL0     H13254  11.033   5.310   5.636  0.8004 -1.5337  1.0116
  858MOL0     H13255  10.453   5.081   6.214 -1.8237 -0.6730  2.0144
  858MOL0     H13256  10.257   5.078   6.369  0.4377 -1.2747  0.4600
  859MOL0     O13257   8.555   0.328   1.595 -0.0997  0.3680 -0.4339
  859MOL0     C13258   8.545   0.260   1.491  0.2842 -0.1295  1.3072
  859MOL0     O13259   8.437   0.239   1.417  0.4227  0.2903  0.6242
  859MOL0     C13260   8.319   0.309   1.442 -0.0832 -0.3309 -0.4996
  859MOL0     C13261   8.199   0.241   1.425 -0.3027 -0.4616 -0.8125
  859MOL0     C13262   8.077   0.315   1.415 -0.0763 -0.1637  0.2851
  859MOL0     C13263   8.077   0.452   1.435 -0.8814 -0.4119 -1.0202
  859MOL0     O13264   7.965   0.530   1.445 -0.0276  0.1288 -0.0500
  859MOL0     C13265   7.842   0.478   1.391  0.2015  0.0816  0.3376
  859MOL0     C13266   7.729   0.576   1.408  0.8011  0.9514 -0.2989
  859MOL0     C13267   7.581   0.515   1.381  0.0845 -0.5410 -0.0433
  859MOL0     C13268   7.477   0.625   1.407 -0.4473 -0.4144 -0.4547
  859MOL0     C13269   7.345   0.567   1.470 -0.6984  0.0217  0.3456
  859MOL0     C13270   7.260   0.679   1.546 -0.8630 -0.0549  0.6740
  859MOL0     C13271   7.228   0.798   1.457  0.1507  0.3146  0.3840
  859MOL0     C13272   7.152   0.910   1.537  0.4286 -0.5496  0.5271
  859MOL0     N13273   7.018   0.879   1.569 -0.6984  0.3376 -0.1797
  859MOL0     C13274   6.906   0.885   1.483 -0.7214  0.1194 -0.2696
  859MOL0     C13275   6.810   0.825   1.549  0.9368  0.2206  0.0722
  859MOL0     C13276   6.676   0.782   1.488  0.1514  0.0408 -0.6647
  859MOL0     C13277   6.565   0.824   1.592 -0.3879 -0.3671  0.0591
  859MOL0     C13278   6.434   0.849   1.514 -0.1751  0.4179 -0.8319
  859MOL0     C13279   6.319   0.854   1.617  1.5399  0.4499  0.5171
  859MOL0     O13280   6.198   0.865   1.533 -0.4056 -0.3049  0.5554
  859MOL0     C13281   6.079   0.869   1.589 -0.3039 -0.3109 -0.2216
  859MOL0     C13282   5.970   0.826   1.514 -0.1622 -0.4332 -0.2138
  859MOL0     C13283   5.836   0.858   1.566  0.2479 -0.1479 -0.2384
  859MOL0     C13284   5.817   0.945   1.677 -0.7590 -0.4816 -0.8462
  859MOL0     C13285   5.690   1.000   1.718 -0.2749 -0.5375  0.4355
  859MOL0     O13286   5.579   0.943   1.665 -0.0374 -0.2827  0.3388
  859MOL0     C13287   5.456   1.001   1.687  0.4532 -0.3989 -0.3481
  859MOL0     C13288   5.414   1.052   1.813 -0.7161  0.0131 -0.5359
  859MOL0     C13289   5.286   1.103   1.831  0.6187  0.1406 -0.7569
  859MOL0     C13290   5.194   1.098   1.728 -1.0439  0.6562  0.1211
  859MOL0     O13291   5.065   1.129   1.753  0.0837 -0.1048  0.0478
  859MOL0     C13292   5.033   1.261   1.804 -0.1004  0.1959  0.4168
  859MOL0     C13293   5.067   1.379   1.712 -0.3122  0.1602  0.6117
  859MOL0     C13294   4.967   1.493   1.738 -0.1373 -0.3102 -0.1289
  859MOL0     C13295   4.985   1.610   1.639  0.6620 -0.3451  0.9368
  859MOL0     C13296   4.868   1.710   1.661 -0.1989 -0.3507 -0.8591
  859MOL0     C13297   4.869   1.831   1.574  0.4969 -0.1648  0.2471
  859MOL0     C13298   4.741   1.917   1.594  0.1688 -0.4198 -0.4338
  859MOL0     C13299   4.766   2.062   1.564  0.6741  0.9474 -0.8329
  859MOL0    Cl13300   4.831   2.077   1.400  0.3542  0.3436  0.3323
  859MOL0     C13301   5.238   1.049   1.601  0.4373 -0.8305  0.1541
  859MOL0     C13302   5.365   1.015   1.576 -0.5640  0.4800 -0.1346
  859MOL0     O13303   5.692   1.110   1.777 -0.0553  0.5357 -0.1163
  859MOL0     C13304   5.928   0.979   1.754 -0.7337  0.5027  0.6493
  859MOL0     C13305   6.063   0.948   1.710  0.6945  1.6918 -1.0229
  859MOL0     N13306   6.854   0.785   1.677  0.5285 -0.0484 -0.2718
  859MOL0     N13307   6.977   0.825   1.684  0.0402 -0.0324  0.7997
  859MOL0     C13308   8.193   0.521   1.467  0.7236 -0.0019  0.7420
  859MOL0     C13309   8.313   0.449   1.450 -0.0536  0.3715  1.5530
  859MOL0     C13310   8.665   0.177   1.445 -0.2239 -0.4345  0.6981
  859MOL0     C13311   8.792   0.191   1.509 -0.0817 -0.1762  0.3362
  859MOL0     C13312   8.897   0.107   1.470  0.5124  0.0171  0.3831
  859MOL0     C13313   8.880   0.006   1.374 -0.5188  0.2335  0.3817
  859MOL0     O13314   8.974  -0.091   1.344 -0.1233 -0.5210  0.4634
  859MOL0     C13315   9.101  -0.096   1.410  0.8149  0.7428  0.3137
  859MOL0     C13316   9.197  -0.011   1.334  0.2867  0.5183  0.2774
  859MOL0     C13317   9.341  -0.054   1.361 -0.6183  0.5396 -0.1721
  859MOL0     C13318   9.405  -0.156   1.257 -0.0283  0.0520 -0.1845
  859MOL0     C13319   9.545  -0.194   1.288 -1.1941  0.4336  0.4303
  859MOL0     C13320   9.651  -0.239   1.314 -0.2804  0.2213 -0.2591
  859MOL0     C13321   8.759  -0.014   1.317  1.2061 -0.0818  0.1299
  859MOL0     C13322   8.657   0.078   1.347 -0.1269 -0.6430  0.7180
  859MOL0     H13323   8.204   0.136   1.396 -2.5671 -0.6847 -0.6060
  859MOL0     H13324   7.983   0.274   1.379 -1.3447  1.1340  1.9754
  859MOL0     H13325   7.811   0.387   1.443 -1.3056  0.4445  0.1183
  859MOL0     H13326   7.853   0.462   1.283  1.6314 -3.5220  0.8814
  859MOL0     H13327   7.739   0.665   1.345 -0.0708 -0.0697 -1.9644
  859MOL0     H13328   7.721   0.599   1.515  2.4235 -0.7196  0.2261
  859MOL0     H13329   7.557   0.430   1.445 -2.0396  0.8548  1.1332
  859MOL0     H13330   7.581   0.483   1.276  0.8081 -1.6679  0.2854
  859MOL0     H13331   7.515   0.703   1.473 -0.3836  0.5442 -1.5995
  859MOL0     H13332   7.435   0.677   1.320 -0.8138  2.5602  1.3541
  859MOL0     H13333   7.379   0.494   1.544  2.6089 -1.3659 -2.2695
  859MOL0     H13334   7.292   0.526   1.383  1.3936 -0.9394 -0.5286
  859MOL0     H13335   7.312   0.727   1.629  0.5533 -0.0023 -0.2181
  859MOL0     H13336   7.166   0.636   1.582 -1.3274  1.3106  1.1715
  859MOL0     H13337   7.318   0.854   1.430  0.3053  0.1102  0.4735
  859MOL0     H13338   7.173   0.769   1.367 -0.1885 -2.1535  1.2868
  859MOL0     H13339   7.148   1.002   1.477 -2.0501  0.1745  1.6829
  859MOL0     H13340   7.203   0.927   1.632 -2.0157  1.1472  1.6420
  859MOL0     H13341   6.892   0.930   1.385  0.0503  0.8066 -0.0801
  859MOL0     H13342   6.667   0.674   1.473 -0.4693  0.0982 -0.7296
  859MOL0     H13343   6.668   0.824   1.388 -0.5859  0.8792 -0.2614
  859MOL0     H13344   6.593   0.915   1.646 -2.4148  0.3327 -0.0174
  859MOL0     H13345   6.554   0.738   1.659  2.1137 -1.5499 -0.9145
  859MOL0     H13346   6.431   0.946   1.464  2.6827  0.5544 -0.9071
  859MOL0     H13347   6.421   0.765   1.446 -0.0593  1.0704 -1.6672
  859MOL0     H13348   6.330   0.951   1.667 -2.6721  2.4716 -1.9462
  859MOL0     H13349   6.318   0.768   1.685 -1.8888 -0.5480 -0.6036
  859MOL0     H13350   5.989   0.772   1.422 -0.3073 -1.7169  0.4922
  859MOL0     H13351   5.751   0.819   1.510 -1.1060 -0.3404  1.8465
  859MOL0     H13352   5.481   1.050   1.898 -1.0717  1.4250 -0.2015
  859MOL0     H13353   5.258   1.139   1.929  2.2493 -0.7091  0.0608
  859MOL0     H13354   5.079   1.271   1.903 -0.4992  0.6062  0.5677
  859MOL0     H13355   4.924   1.257   1.814 -0.1406 -1.8696 -0.2669
  859MOL0     H13356   5.060   1.340   1.609  2.0665  3.3240 -0.9236
  859MOL0     H13357   5.172   1.407   1.724  0.5527 -0.9778 -3.0145
  859MOL0     H13358   4.978   1.534   1.838  1.0511  0.3310 -0.5053
  859MOL0     H13359   4.862   1.462   1.737 -0.4019  0.4382  1.5763
  859MOL0     H13360   5.076   1.665   1.667  0.9065  0.7696 -1.7744
  859MOL0     H13361   4.986   1.574   1.536 -3.3638  2.2158 -0.2601
  859MOL0     H13362   4.863   1.751   1.762 -0.8234 -1.9774 -0.1920
  859MOL0     H13363   4.770   1.670   1.633  0.8462 -0.6505 -4.6240
  859MOL0     H13364   4.869   1.809   1.466 -4.5402  2.6716 -0.6136
  859MOL0     H13365   4.960   1.880   1.611 -0.2672  0.0774  1.8370
  859MOL0     H13366   4.661   1.872   1.534  0.5271 -1.5273 -0.1160
  859MOL0     H13367   4.702   1.921   1.696 -1.2479  1.4139 -0.9844
  859MOL0     H13368   4.836   2.099   1.639 -0.4796 -0.7768  1.2323
  859MOL0     H13369   4.671   2.114   1.582 -0.1511 -1.6756  4.4612
  859MOL0     H13370   5.170   1.047   1.516  2.9153 -0.5590 -1.9761
  859MOL0     H13371   5.411   0.998   1.479  1.4354  2.2400  0.4535
  859MOL0     H13372   5.932   1.039   1.844  1.3041  2.2451 -0.4974
  859MOL0     H13373   6.136   0.993   1.776 -1.8791  0.4960  2.9554
  859MOL0     H13374   8.198   0.624   1.500 -2.8816  0.9655 -1.2368
  859MOL0     H13375   8.404   0.507   1.459  0.1903  0.3476 -0.3196
  859MOL0     H13376   8.814   0.269   1.581  1.0523 -0.5882  0.4634
  859MOL0     H13377   8.985   0.124   1.530 -0.5279 -1.8434  2.5865
  859MOL0     H13378   9.141  -0.198   1.403  2.5290  1.2556  1.7895
  859MOL0     H13379   9.088  -0.078   1.517  0.8127  0.7641  0.3098
  859MOL0     H13380   9.174  -0.041   1.231 -0.4640 -3.3819  1.4045
  859MOL0     H13381   9.180   0.093   1.364  0.5697 -0.2351  3.2836
  859MOL0     H13382   9.342  -0.110   1.455 -2.8982 -2.1782 -1.5989
  859MOL0     H13383   9.396   0.040   1.364 -0.7065  0.6535 -1.4637
  859MOL0     H13384   9.353  -0.252   1.253  1.8591 -1.1532  2.0291
  859MOL0     H13385   9.407  -0.120   1.154  1.8854 -2.5717 -1.1856
  859MOL0     H13386   9.748  -0.285   1.310 -1.1217 -1.6056 -1.7192
  859MOL0     H13387   8.736  -0.092   1.245 -0.1350  1.2852 -0.9869
  859MOL0     H13388   8.562   0.073   1.293 -0.0149  0.6158  0.3782
  860MOL0     O13389   5.388   4.325   7.322 -0.3647  0.4427  0.3250
  860MOL0     C13390   5.375   4.419   7.243 -0.6744  0.0023 -1.0973
  860MOL0     O13391   5.261   4.444   7.168  0.2767 -0.9706  0.1546
  860MOL0     C13392   5.141   4.383   7.180  0.2324  0.2951 -0.4119
  860MOL0     C13393   5.049   4.379   7.072  0.8728  0.6763  0.2040
  860MOL0     C13394   4.919   4.317   7.087 -0.6378  0.8833  0.7163
  860MOL0     C13395   4.874   4.275   7.211  0.4701 -0.0343 -0.5330
  860MOL0     O13396   4.747   4.229   7.235 -0.6325 -0.1160  0.6193
  860MOL0     C13397   4.702   4.138   7.141  0.3703  0.6168  0.1813
  860MOL0     C13398   4.574   4.061   7.181  0.1858 -0.2430  0.4252
  860MOL0     C13399   4.462   4.162   7.219  0.2195  0.0181 -0.3623
  860MOL0     C13400   4.317   4.108   7.215 -0.4008 -0.0574  0.8541
  860MOL0     C13401   4.208   4.199   7.280  0.2997 -0.2862  0.3603
  860MOL0     C13402   4.198   4.334   7.210  0.3443  0.1266  0.4117
  860MOL0     C13403   4.066   4.399   7.232  0.2101  0.0351 -0.7168
  860MOL0     C13404   4.078   4.538   7.177  0.9782 -0.8441 -0.4007
  860MOL0     N13405   3.950   4.608   7.214  0.2039 -0.2319  0.6848
  860MOL0     C13406   3.935   4.708   7.304 -0.2988 -0.2689 -0.2289
  860MOL0     C13407   3.811   4.739   7.297 -0.2407 -0.7037 -0.1368
  860MOL0     C13408   3.754   4.837   7.394  0.4921 -0.0487 -0.2320
  860MOL0     C13409   3.784   4.798   7.538  0.3272 -0.9670 -0.2967
  860MOL0     C13410   3.730   4.663   7.585  1.0010  0.4100 -0.1069
  860MOL0     C13411   3.582   4.645   7.582  0.6544  0.0343  0.7592
  860MOL0     O13412   3.557   4.518   7.644  0.5840 -0.0641  0.1026
  860MOL0     C13413   3.434   4.466   7.653 -1.0600  0.4868  1.3266
  860MOL0     C13414   3.431   4.345   7.722 -0.2292  0.7536 -0.6980
  860MOL0     C13415   3.318   4.273   7.742 -0.1756  0.0336  0.2456
  860MOL0     C13416   3.195   4.341   7.701 -0.1967  0.6183  0.9378
  860MOL0     C13417   3.062   4.281   7.736 -0.6221 -0.8704  0.2597
  860MOL0     O13418   2.959   4.361   7.722  0.6043  0.5767  0.5934
  860MOL0     C13419   2.833   4.317   7.765  0.7736 -0.8489 -0.0684
  860MOL0     C13420   2.770   4.199   7.721  0.0364 -0.5304  1.5296
  860MOL0     C13421   2.645   4.155   7.769  0.4664  0.1230  0.0998
  860MOL0     C13422   2.584   4.232   7.869 -0.2854  0.3880  0.6433
  860MOL0     O13423   2.463   4.192   7.917  0.2811  0.1494 -0.9313
  860MOL0     C13424   2.372   4.295   7.969 -0.2248  0.4831  0.5011
  860MOL0     C13425   2.231   4.259   7.994  0.6166  0.6838  0.9662
  860MOL0     C13426   2.168   4.162   7.894  0.6411 -0.3368 -0.2755
  860MOL0     C13427   2.009   4.177   7.885 -0.3431  0.2062 -0.2140
  860MOL0     C13428   1.964   4.292   7.794 -0.4534 -0.7504  0.5554
  860MOL0     C13429   1.815   4.318   7.775  0.0294  0.2262 -0.5444
  860MOL0     C13430   1.780   4.422   7.658  0.0546 -0.1124 -0.2834
  860MOL0     C13431   1.782   4.570   7.692 -0.7833  0.7792  0.3042
  860MOL0    Cl13432   1.652   4.601   7.803  0.1667  0.4919 -0.2414
  860MOL0     C13433   2.650   4.347   7.918 -0.6244 -0.8154 -0.5591
  860MOL0     C13434   2.763   4.401   7.858 -0.7248 -0.1823  0.1045
  860MOL0     O13435   3.060   4.163   7.777 -0.3014 -0.1783 -0.2614
  860MOL0     C13436   3.197   4.471   7.628 -0.0124 -0.0194 -0.6252
  860MOL0     C13437   3.321   4.533   7.610  0.3267  0.3645  1.1580
  860MOL0     N13438   3.740   4.668   7.211 -0.2145  0.5558  0.2049
  860MOL0     N13439   3.828   4.578   7.171  0.4783  1.4106 -0.2967
  860MOL0     C13440   4.956   4.279   7.321 -0.8018 -0.1746  0.0163
  860MOL0     C13441   5.093   4.326   7.304  0.6275 -0.2936 -0.3320
  860MOL0     C13442   5.497   4.501   7.214  0.1965  0.4191  0.6760
  860MOL0     C13443   5.626   4.469   7.261 -0.5746  0.6189  0.1057
  860MOL0     C13444   5.738   4.557   7.242  0.2111  0.1455  0.2379
  860MOL0     C13445   5.717   4.675   7.171  0.2459  0.5849 -0.4926
  860MOL0     O13446   5.827   4.763   7.147 -0.1148  0.3595 -0.4096
  860MOL0     C13447   5.810   4.869   7.049 -0.0672 -0.4817  0.2353
  860MOL0     C13448   5.936   4.897   6.979 -0.0012 -0.4391  0.2632
  860MOL0     C13449   6.040   4.953   7.080 -0.1621  0.6886 -0.3055
  860MOL0     C13450   6.146   5.052   7.017  0.4996 -0.4581 -0.1855
  860MOL0     C13451   6.243   5.076   7.117  0.0233  0.4350 -1.0489
  860MOL0     C13452   6.319   5.111   7.209  0.7160  0.5387  0.4284
  860MOL0     C13453   5.586   4.704   7.131 -0.3664  0.2094  0.5068
  860MOL0     C13454   5.478   4.614   7.139 -0.2495  0.1848  0.8403
  860MOL0     H13455   5.066   4.428   6.977 -0.8887  1.8661  0.4497
  860MOL0     H13456   4.853   4.320   7.001 -0.1498 -3.1641 -0.0042
  860MOL0     H13457   4.774   4.068   7.098  1.6638  3.0868 -1.8724
  860MOL0     H13458   4.678   4.194   7.050  2.9766 -1.6254 -2.0787
  860MOL0     H13459   4.606   4.002   7.267  0.4256 -0.7231  0.0100
  860MOL0     H13460   4.558   3.991   7.098 -1.3263  1.4546 -0.8097
  860MOL0     H13461   4.478   4.247   7.151 -0.0685  0.3933  0.0371
  860MOL0     H13462   4.478   4.201   7.320 -0.8519 -2.7963  0.9918
  860MOL0     H13463   4.296   4.096   7.108 -1.5110 -3.5899  1.3296
  860MOL0     H13464   4.296   4.014   7.266 -1.8968  0.2637  0.8673
  860MOL0     H13465   4.236   4.225   7.382  0.4238 -0.7333  0.4447
  860MOL0     H13466   4.115   4.143   7.266  0.2036 -0.1793  0.5846
  860MOL0     H13467   4.212   4.310   7.104 -2.0549 -0.6834  0.2057
  860MOL0     H13468   4.280   4.396   7.246  0.7134 -1.4269  2.4097
  860MOL0     H13469   4.000   4.334   7.173  1.6152 -0.3204 -1.9666
  860MOL0     H13470   4.036   4.384   7.336  0.3978 -3.8617 -1.0619
  860MOL0     H13471   4.091   4.529   7.069 -2.2049 -2.7019 -0.7704
  860MOL0     H13472   4.160   4.579   7.237  1.4080 -2.6678  0.3181
  860MOL0     H13473   4.007   4.750   7.374 -2.3577  0.7401  1.3740
  860MOL0     H13474   3.646   4.842   7.382  0.5725 -0.6909 -1.2505
  860MOL0     H13475   3.805   4.932   7.373  0.8364 -0.1063  0.3149
  860MOL0     H13476   3.743   4.884   7.593 -3.9664 -0.6294 -3.5697
  860MOL0     H13477   3.892   4.807   7.557  0.1930  2.6053 -0.4455
  860MOL0     H13478   3.780   4.587   7.524 -2.2136  1.7230 -4.8920
  860MOL0     H13479   3.768   4.645   7.686 -1.3889 -0.4714  0.7063
  860MOL0     H13480   3.549   4.627   7.479  1.1287  1.5417  0.3234
  860MOL0     H13481   3.522   4.729   7.617  0.0013 -0.4961  0.9471
  860MOL0     H13482   3.530   4.309   7.749  0.1806  2.5931  0.5098
  860MOL0     H13483   3.320   4.176   7.792  2.0597 -0.4274 -0.5909
  860MOL0     H13484   2.820   4.148   7.639 -1.6216 -0.0259  0.1362
  860MOL0     H13485   2.600   4.069   7.720 -0.8745  1.3078 -0.8142
  860MOL0     H13486   2.360   4.367   7.888 -2.6068 -1.1477 -0.7013
  860MOL0     H13487   2.412   4.350   8.055 -1.4659  1.0820  0.7192
  860MOL0     H13488   2.180   4.355   7.981 -0.8147 -0.1684  0.1491
  860MOL0     H13489   2.222   4.214   8.093 -0.0513  0.0139  0.6098
  860MOL0     H13490   2.196   4.059   7.919 -0.9565 -1.1897 -1.7804
  860MOL0     H13491   2.207   4.200   7.800  2.3357 -0.7535  0.2229
  860MOL0     H13492   1.966   4.083   7.850  0.1679  0.1996 -0.8323
  860MOL0     H13493   1.969   4.203   7.984  1.2341  0.9932  0.2577
  860MOL0     H13494   2.015   4.274   7.699  1.5076 -4.4642  2.0887
  860MOL0     H13495   1.999   4.388   7.832  0.8094 -1.0136  0.1082
  860MOL0     H13496   1.770   4.356   7.867 -0.6127 -0.6973 -0.4661
  860MOL0     H13497   1.770   4.219   7.766 -3.5953  1.4239  1.8006
  860MOL0     H13498   1.844   4.404   7.571 -0.8616 -1.4885 -0.7107
  860MOL0     H13499   1.681   4.393   7.623 -0.1760  0.1056  0.1799
  860MOL0     H13500   1.773   4.634   7.604  2.7119  0.1947 -0.6471
  860MOL0     H13501   1.875   4.580   7.749 -0.7917  1.4584  0.2079
  860MOL0     H13502   2.606   4.411   7.995  1.2332 -0.9695  0.6953
  860MOL0     H13503   2.809   4.493   7.893  0.1052  0.4512 -2.3985
  860MOL0     H13504   3.104   4.518   7.600 -0.3599  0.5992  1.4194
  860MOL0     H13505   3.327   4.627   7.556  1.3838  1.0591  2.4151
  860MOL0     H13506   4.904   4.252   7.413 -0.1642 -1.7952 -0.0685
  860MOL0     H13507   5.149   4.341   7.396  0.5477  0.7624 -0.4543
  860MOL0     H13508   5.645   4.386   7.328  0.2493 -0.5415 -1.4945
  860MOL0     H13509   5.832   4.523   7.285  0.9735  1.0311 -0.6805
  860MOL0     H13510   5.769   4.960   7.093 -0.3472  0.1159 -1.2291
  860MOL0     H13511   5.741   4.831   6.974 -2.3149 -0.0332  1.9926
  860MOL0     H13512   5.971   4.807   6.928 -2.0983 -0.5337 -1.0764
  860MOL0     H13513   5.912   4.976   6.907 -0.3101 -0.6054  0.1842
  860MOL0     H13514   6.090   4.861   7.113 -0.9848 -0.9000 -3.1858
  860MOL0     H13515   5.992   5.001   7.167  2.2794  1.4363  0.7093
  860MOL0     H13516   6.187   4.994   6.933 -1.3076 -0.8640 -0.8271
  860MOL0     H13517   6.098   5.144   6.984  1.7785 -0.6362 -2.8422
  860MOL0     H13518   6.382   5.138   7.292 -1.1028 -2.0771  2.8501
  860MOL0     H13519   5.565   4.787   7.063 -0.4919 -0.1612  0.0921
  860MOL0     H13520   5.383   4.646   7.097  0.2882  0.5062 -0.1672
  861MOL0     O13521   3.135   2.415   1.675  0.4316  0.2036 -0.1186
  861MOL0     C13522   3.195   2.304   1.667 -0.7843  0.0604  0.5206
  861MOL0     O13523   3.137   2.186   1.688 -0.1210  0.1636 -0.0565
  861MOL0     C13524   3.002   2.175   1.725 -0.2875  0.1916  0.8728
  861MOL0     C13525   2.950   2.234   1.841 -0.3216  0.4084 -0.4861
  861MOL0     C13526   2.813   2.220   1.871  0.1482 -0.0212 -0.2549
  861MOL0     C13527   2.736   2.137   1.796  1.0280 -0.6453  0.1506
  861MOL0     O13528   2.606   2.123   1.844  0.5106 -0.2614 -0.0313
  861MOL0     C13529   2.543   1.995   1.815  0.4621  0.6714  0.0702
  861MOL0     C13530   2.430   1.963   1.907  0.3003 -0.2403  0.4472
  861MOL0     C13531   2.373   1.824   1.888  0.4890 -0.3458 -0.0410
  861MOL0     C13532   2.226   1.814   1.922 -0.2972  0.2766  0.2595
  861MOL0     C13533   2.156   1.693   1.853 -0.2490  0.3390 -0.4808
  861MOL0     C13534   2.177   1.679   1.699  0.1726  0.2327  0.6246
  861MOL0     C13535   2.080   1.554   1.647 -0.4547 -0.1619  0.7058
  861MOL0     C13536   1.930   1.601   1.640 -0.1154  0.4903  0.6162
  861MOL0     N13537   1.833   1.494   1.591  1.1043  0.1922  0.7468
  861MOL0     C13538   1.788   1.483   1.462  0.0038  0.0143  0.4552
  861MOL0     C13539   1.711   1.375   1.448  0.1870  0.4269  0.0970
  861MOL0     C13540   1.631   1.333   1.331 -0.2260  0.3466  0.2975
  861MOL0     C13541   1.488   1.289   1.359 -0.9999  0.0182  0.2789
  861MOL0     C13542   1.412   1.408   1.411 -0.2021  1.1179 -0.5636
  861MOL0     C13543   1.269   1.380   1.427 -0.2295  0.1400  0.1589
  861MOL0     O13544   1.216   1.481   1.515 -0.5593 -0.4267 -0.3428
  861MOL0     C13545   1.083   1.494   1.509 -0.2891  0.4304  0.0471
  861MOL0     C13546   0.990   1.402   1.455 -1.6414  0.1866 -0.1313
  861MOL0     C13547   0.864   1.437   1.470  0.3342  0.1355 -0.0582
  861MOL0     C13548   0.814   1.565   1.508  0.0331 -0.2187 -0.3521
  861MOL0     C13549   0.669   1.599   1.511  0.2911  1.0113 -0.1877
  861MOL0     O13550   0.635   1.728   1.525  0.4328 -0.2894 -0.2253
  861MOL0     C13551   0.502   1.768   1.501 -0.1638  0.1602 -0.2802
  861MOL0     C13552   0.406   1.710   1.411 -0.0651  0.6143 -0.4014
  861MOL0     C13553   0.278   1.765   1.390 -1.1442  0.0499 -0.7438
  861MOL0     C13554   0.244   1.879   1.455  0.1310  1.1065  0.2007
  861MOL0     O13555   0.117   1.920   1.427  0.6962 -0.5773  1.1205
  861MOL0     C13556   0.061   2.025   1.501 -0.6756 -0.0219 -0.6993
  861MOL0     C13557  -0.072   2.075   1.443 -1.1745 -0.0932 -0.0113
  861MOL0     C13558  -0.192   1.973   1.433  0.1025 -0.3022 -0.0153
  861MOL0     C13559  -0.318   2.042   1.365  0.1169  0.8024 -0.2683
  861MOL0     C13560  -0.438   1.959   1.352  0.0999  0.0473 -0.3338
  861MOL0     C13561  -0.508   1.937   1.491  0.7616  0.8136 -0.4405
  861MOL0     C13562  -0.636   1.857   1.465 -1.1945  0.4019  0.1662
  861MOL0     C13563  -0.704   1.825   1.598  0.4544 -0.4359  0.0685
  861MOL0    Cl13564  -0.863   1.745   1.568  0.4275  1.1292  0.2640
  861MOL0     C13565   0.336   1.939   1.541 -0.7111 -0.3568 -0.1190
  861MOL0     C13566   0.461   1.890   1.569  0.0695 -0.5520  0.1856
  861MOL0     O13567   0.590   1.507   1.492 -0.1534  0.1941  1.0079
  861MOL0     C13568   0.909   1.656   1.560 -0.0453 -0.1488  0.3576
  861MOL0     C13569   1.046   1.612   1.560 -0.1313 -1.0232  0.3217
  861MOL0     N13570   1.719   1.314   1.573 -0.0533  0.0011  0.5060
  861MOL0     N13571   1.790   1.383   1.652 -0.8165  0.6758  0.0645
  861MOL0     C13572   2.788   2.081   1.679  0.1321 -0.2872  0.8256
  861MOL0     C13573   2.922   2.100   1.639  0.0561  0.3561  0.1591
  861MOL0     C13574   3.344   2.312   1.654  0.1422  0.8236 -0.2883
  861MOL0     C13575   3.420   2.197   1.654 -0.4810 -0.2872  0.2655
  861MOL0     C13576   3.555   2.199   1.653 -0.1109 -0.0343  0.2029
  861MOL0     C13577   3.618   2.323   1.658 -0.2571  0.1149 -0.6304
  861MOL0     O13578   3.754   2.316   1.663  0.5202  0.8601  0.0308
  861MOL0     C13579   3.834   2.431   1.681 -0.2784  0.2393  0.2906
  861MOL0     C13580   3.981   2.394   1.674  0.2014  0.2754 -0.2355
  861MOL0     C13581   4.027   2.272   1.759  0.5059  0.1511 -0.0071
  861MOL0     C13582   4.184   2.231   1.765  0.4528  0.2828  0.4781
  861MOL0     C13583   4.262   2.356   1.808 -0.4766  0.5640  0.5055
  861MOL0     C13584   4.319   2.450   1.856  0.2687 -0.2068 -0.5525
  861MOL0     C13585   3.544   2.442   1.651 -0.5887  0.5116 -0.2966
  861MOL0     C13586   3.409   2.428   1.650  0.2212 -0.4001  0.2717
  861MOL0     H13587   3.018   2.292   1.902 -0.5137 -0.7994  0.9237
  861MOL0     H13588   2.763   2.269   1.954 -2.3495  0.6136 -1.9952
  861MOL0     H13589   2.610   1.911   1.834 -0.0390  0.1382 -0.5062
  861MOL0     H13590   2.512   1.997   1.710 -0.3922  1.7310  0.3200
  861MOL0     H13591   2.355   2.041   1.890 -0.0601 -0.8840 -1.1644
  861MOL0     H13592   2.463   1.981   2.010 -1.2387  2.2761  0.5760
  861MOL0     H13593   2.424   1.750   1.950  0.8577 -0.4213 -0.4319
  861MOL0     H13594   2.398   1.796   1.785  2.0443  0.4391  0.0894
  861MOL0     H13595   2.208   1.808   2.030 -0.2996  0.2839  0.2597
  861MOL0     H13596   2.180   1.910   1.897  1.8521  1.3532  0.1449
  861MOL0     H13597   2.051   1.711   1.878 -0.4285  1.0227 -1.6628
  861MOL0     H13598   2.190   1.600   1.899 -3.7131 -0.1620  1.4609
  861MOL0     H13599   2.283   1.661   1.677 -0.0598  1.1431 -1.5191
  861MOL0     H13600   2.158   1.777   1.655 -0.1642  1.2354  2.8905
  861MOL0     H13601   2.118   1.511   1.554 -0.3999 -0.0474  0.6747
  861MOL0     H13602   2.090   1.479   1.725  0.6211 -0.0371  0.7053
  861MOL0     H13603   1.928   1.678   1.562  1.0931  1.7390  1.7641
  861MOL0     H13604   1.894   1.628   1.740  0.4206 -1.3157  1.3268
  861MOL0     H13605   1.790   1.559   1.385 -1.5274 -0.3429  0.0161
  861MOL0     H13606   1.664   1.240   1.284 -2.7690 -0.5719  0.1862
  861MOL0     H13607   1.632   1.405   1.249  0.8401  0.1831  0.1574
  861MOL0     H13608   1.494   1.203   1.427 -1.4195  1.6073  2.4663
  861MOL0     H13609   1.460   1.265   1.256  0.4628  2.7425 -0.8603
  861MOL0     H13610   1.451   1.421   1.512 -2.4936 -2.0292  0.9101
  861MOL0     H13611   1.437   1.495   1.349  3.5397 -0.9623 -2.3251
  861MOL0     H13612   1.259   1.283   1.475  2.2413  1.1080  2.9035
  861MOL0     H13613   1.215   1.381   1.332 -3.6780  1.5048  1.9361
  861MOL0     H13614   1.015   1.303   1.419 -0.6519 -0.4562  2.1265
  861MOL0     H13615   0.793   1.361   1.438  0.0231  0.4889 -0.2191
  861MOL0     H13616   0.418   1.613   1.363 -0.0263  0.6115 -0.3865
  861MOL0     H13617   0.212   1.725   1.314 -1.7370 -1.9492  0.7256
  861MOL0     H13618   0.132   2.108   1.503  1.2947 -1.6279  0.8182
  861MOL0     H13619   0.052   1.975   1.598  0.2304  1.7062  0.3164
  861MOL0     H13620  -0.059   2.094   1.337 -2.1954 -1.5105 -0.4173
  861MOL0     H13621  -0.090   2.166   1.501  0.8939 -0.5588  1.4740
  861MOL0     H13622  -0.216   1.957   1.539 -0.0390  2.2747  0.4164
  861MOL0     H13623  -0.157   1.882   1.384 -0.7992 -1.6432  1.6881
  861MOL0     H13624  -0.343   2.132   1.422 -0.2124  0.1105  0.7219
  861MOL0     H13625  -0.291   2.068   1.263 -0.3347 -1.5239 -1.0503
  861MOL0     H13626  -0.420   1.864   1.300  1.6375  0.3661 -0.4407
  861MOL0     H13627  -0.513   2.009   1.290  0.8300  2.6688  0.7670
  861MOL0     H13628  -0.519   2.031   1.545  3.1148  0.5719  0.6184
  861MOL0     H13629  -0.440   1.881   1.557 -0.0523  2.2839  1.7606
  861MOL0     H13630  -0.703   1.919   1.404 -2.2969  0.0701  1.0167
  861MOL0     H13631  -0.611   1.765   1.410 -0.0755  0.1580  1.0397
  861MOL0     H13632  -0.715   1.911   1.665  1.5233 -2.1812  2.6679
  861MOL0     H13633  -0.642   1.750   1.650 -0.3173  0.6691  2.7771
  861MOL0     H13634   0.306   2.035   1.582  1.3372  0.3479 -0.1657
  861MOL0     H13635   0.527   1.928   1.646 -0.4704  0.1230  0.3182
  861MOL0     H13636   0.889   1.757   1.594  1.7040  0.2773  0.2340
  861MOL0     H13637   1.129   1.675   1.591  1.8289 -2.5907 -1.4627
  861MOL0     H13638   2.725   2.015   1.621  0.3166  1.1121 -1.0328
  861MOL0     H13639   2.966   2.050   1.554  1.6427 -1.1463  1.7657
  861MOL0     H13640   3.377   2.097   1.653  1.3324 -1.1148 -0.8905
  861MOL0     H13641   3.616   2.109   1.656  1.3093  0.9177  1.2208
  861MOL0     H13642   3.824   2.483   1.776  1.4294 -0.0044  0.6382
  861MOL0     H13643   3.817   2.509   1.606  3.1908  0.5480 -0.3436
  861MOL0     H13644   4.006   2.377   1.569 -1.5778  0.7113 -0.7509
  861MOL0     H13645   4.036   2.479   1.716 -0.1228  0.0515  0.6756
  861MOL0     H13646   3.958   2.188   1.742 -0.3134  0.7244  0.3660
  861MOL0     H13647   3.999   2.271   1.865 -2.2298 -4.0018 -0.5209
  861MOL0     H13648   4.188   2.156   1.844  1.4517 -0.7501 -0.5169
  861MOL0     H13649   4.221   2.202   1.666 -0.2899  3.2459 -0.8022
  861MOL0     H13650   4.356   2.545   1.890  1.5403  0.4102 -3.3694
  861MOL0     H13651   3.593   2.539   1.652  0.4364  0.0073 -0.2845
  861MOL0     H13652   3.358   2.524   1.651  2.2524  0.7425  1.8770
  862MOL0     O13653   3.633   3.177   8.200  0.1175  0.4692  0.0895
  862MOL0     C13654   3.648   3.110   8.100  0.4361  0.9320 -0.3443
  862MOL0     O13655   3.552   3.030   8.035  0.3423  0.1551  0.0806
  862MOL0     C13656   3.419   3.056   8.085  0.6135 -0.1612  0.2677
  862MOL0     C13657   3.359   3.179   8.100 -0.0340 -0.0399 -0.6464
  862MOL0     C13658   3.230   3.189   8.155 -0.0393  0.7254 -0.5236
  862MOL0     C13659   3.159   3.068   8.193  0.4679 -1.0681 -0.3979
  862MOL0     O13660   3.032   3.077   8.238  0.6200 -0.5219 -0.1040
  862MOL0     C13661   2.948   2.959   8.248 -0.1276  0.9409  0.6455
  862MOL0     C13662   2.796   2.992   8.271  0.0519 -0.2562  0.2585
  862MOL0     C13663   2.725   2.887   8.369 -0.1277  0.1292 -0.5695
  862MOL0     C13664   2.630   2.954   8.470 -0.7198  0.0194  0.3556
  862MOL0     C13665   2.536   2.851   8.537 -0.1688  0.5889 -0.0709
  862MOL0     C13666   2.423   2.839   8.440  0.1218  0.5337  0.0695
  862MOL0     C13667   2.312   2.773   8.517  0.5557 -0.4163 -0.3078
  862MOL0     C13668   2.203   2.763   8.419  0.0940 -0.6907 -0.0597
  862MOL0     N13669   2.092   2.677   8.464 -0.2272 -0.2904  0.2010
  862MOL0     C13670   1.992   2.726   8.548 -0.3667  0.2300 -0.0732
  862MOL0     C13671   1.905   2.620   8.547  0.7459 -0.8643 -0.8410
  862MOL0     C13672   1.780   2.611   8.627  0.6462  0.6677 -0.2988
  862MOL0     C13673   1.680   2.524   8.549 -0.0510  0.5918 -0.3349
  862MOL0     C13674   1.677   2.372   8.598  0.0508 -0.6027  0.4976
  862MOL0     C13675   1.619   2.281   8.496  0.2958  0.0540  0.7760
  862MOL0     O13676   1.518   2.347   8.417  0.1937  0.3453  0.1024
  862MOL0     C13677   1.388   2.349   8.455  0.1867 -0.4878  0.0318
  862MOL0     C13678   1.300   2.398   8.357 -0.3323  0.3867  0.5333
  862MOL0     C13679   1.165   2.426   8.379 -0.4137  1.2259 -0.3741
  862MOL0     C13680   1.113   2.380   8.500  0.0849 -0.3186  0.4776
  862MOL0     C13681   0.977   2.435   8.526 -0.0686  0.5679 -0.1717
  862MOL0     O13682   0.894   2.445   8.423 -0.3533  0.3147  0.0287
  862MOL0     C13683   0.771   2.509   8.424  0.5179 -1.0750 -0.5135
  862MOL0     C13684   0.691   2.522   8.544 -0.4752  0.4166  0.0160
  862MOL0     C13685   0.566   2.584   8.536  0.0369 -0.0356  0.3252
  862MOL0     C13686   0.509   2.628   8.415  0.1295  0.0021  0.1223
  862MOL0     O13687   0.390   2.683   8.392 -0.2595 -0.3297 -0.3322
  862MOL0     C13688   0.287   2.625   8.474  0.6857 -0.8061  0.0377
  862MOL0     C13689   0.151   2.642   8.405  0.0522 -0.1153  0.2985
  862MOL0     C13690   0.043   2.557   8.470 -0.0411 -0.1948 -0.5750
  862MOL0     C13691  -0.087   2.586   8.392 -1.0006  0.5186 -0.9553
  862MOL0     C13692  -0.182   2.481   8.434 -0.9858 -0.7383  0.3362
  862MOL0     C13693  -0.200   2.464   8.585  0.1077 -0.0990  0.4106
  862MOL0     C13694  -0.338   2.423   8.633  0.3612  0.0370 -0.1858
  862MOL0     C13695  -0.344   2.425   8.784 -0.3002  0.2801 -0.6810
  862MOL0    Cl13696  -0.482   2.323   8.849 -0.7684  0.0609  0.4176
  862MOL0     C13697   0.589   2.625   8.302 -0.7758 -0.4483 -0.5947
  862MOL0     C13698   0.723   2.574   8.311  0.4240 -0.5043  0.0625
  862MOL0     O13699   0.960   2.478   8.639  0.1098  0.3920 -0.4330
  862MOL0     C13700   1.202   2.335   8.606 -0.6365  0.0026 -0.0346
  862MOL0     C13701   1.336   2.317   8.585 -0.1330 -0.2563 -0.4105
  862MOL0     N13702   1.947   2.519   8.472 -0.0121 -0.4600 -0.8791
  862MOL0     N13703   2.058   2.554   8.415  0.0745 -0.1668 -1.0723
  862MOL0     C13704   3.228   2.948   8.192  0.5480 -0.0423  0.3933
  862MOL0     C13705   3.351   2.943   8.141 -0.1659  0.3467 -0.9660
  862MOL0     C13706   3.777   3.116   8.045 -1.2232 -0.2501  0.3476
  862MOL0     C13707   3.885   3.210   8.082  0.3178  0.5499 -0.5890
  862MOL0     C13708   4.005   3.219   8.015 -0.4886 -0.4445 -0.9749
  862MOL0     C13709   4.030   3.125   7.911  0.0619 -0.1151  0.0583
  862MOL0     O13710   4.156   3.116   7.841  0.4365 -0.2593 -0.1999
  862MOL0     C13711   4.248   3.228   7.852 -0.5984  0.5570 -0.0047
  862MOL0     C13712   4.329   3.224   7.726 -0.2924  0.1001  0.0183
  862MOL0     C13713   4.426   3.348   7.719  0.6909 -0.0339 -0.2527
  862MOL0     C13714   4.503   3.349   7.583 -0.5174 -0.4508 -0.3748
  862MOL0     C13715   4.595   3.455   7.562 -0.1825 -0.2065 -0.8835
  862MOL0     C13716   4.681   3.538   7.549  0.1308  0.2735  0.6232
  862MOL0     C13717   3.934   3.029   7.881  0.2404 -0.1927 -0.7050
  862MOL0     C13718   3.812   3.025   7.951 -0.5336  0.3092  0.1801
  862MOL0     H13719   3.400   3.272   8.062 -0.3030 -0.0548 -0.9828
  862MOL0     H13720   3.179   3.284   8.169  2.0575  2.2594 -2.5070
  862MOL0     H13721   2.982   2.900   8.334  1.4245 -0.8461 -1.0814
  862MOL0     H13722   2.958   2.893   8.161 -0.5158  2.0886 -0.2956
  862MOL0     H13723   2.740   3.005   8.178 -0.7574  1.7697  0.9816
  862MOL0     H13724   2.802   3.089   8.320 -0.5747  0.8212 -1.7186
  862MOL0     H13725   2.803   2.832   8.423 -0.4014  0.7579  0.4907
  862MOL0     H13726   2.664   2.827   8.301  1.5446  0.2156 -2.2525
  862MOL0     H13727   2.701   3.003   8.537 -2.3991  0.4727  1.8977
  862MOL0     H13728   2.560   3.030   8.433 -0.9772 -0.2752  0.2366
  862MOL0     H13729   2.500   2.900   8.628 -0.9598 -0.0140 -0.0549
  862MOL0     H13730   2.594   2.760   8.553  1.6930  1.1615 -2.7474
  862MOL0     H13731   2.447   2.787   8.347 -0.2872  4.6793 -2.6059
  862MOL0     H13732   2.383   2.936   8.409 -4.0968 -1.4477 -1.4141
  862MOL0     H13733   2.328   2.675   8.563  0.2974 -0.1980  0.2581
  862MOL0     H13734   2.277   2.830   8.604  0.4942  0.1472 -0.6997
  862MOL0     H13735   2.247   2.708   8.336  1.6752 -1.4490  1.2132
  862MOL0     H13736   2.174   2.862   8.383  1.6712 -0.8535 -1.9293
  862MOL0     H13737   1.984   2.827   8.587  1.6509  0.6322 -0.5538
  862MOL0     H13738   1.741   2.713   8.634 -1.7096 -0.1700 -0.1482
  862MOL0     H13739   1.801   2.566   8.725  0.1132  4.0478  1.5297
  862MOL0     H13740   1.693   2.527   8.440 -1.7435  0.5674 -0.5651
  862MOL0     H13741   1.580   2.566   8.554 -0.4454 -0.3019 -0.5707
  862MOL0     H13742   1.781   2.349   8.625 -0.1426 -0.2968  1.5558
  862MOL0     H13743   1.607   2.374   8.682 -2.2811  0.6163 -1.3586
  862MOL0     H13744   1.568   2.202   8.552 -3.7201  1.4627 -0.5522
  862MOL0     H13745   1.700   2.248   8.430 -0.3815 -0.9582  0.4333
  862MOL0     H13746   1.348   2.416   8.262 -0.7760  0.3931  0.3107
  862MOL0     H13747   1.110   2.482   8.304 -1.8380 -2.3442 -2.2334
  862MOL0     H13748   0.725   2.497   8.644 -1.9474  0.0367  0.4520
  862MOL0     H13749   0.513   2.587   8.631  2.2699  2.3586  1.6094
  862MOL0     H13750   0.294   2.688   8.563  0.0604 -1.2230  0.3907
  862MOL0     H13751   0.304   2.518   8.490 -0.0452 -1.2697 -1.9746
  862MOL0     H13752   0.165   2.605   8.303 -1.3060 -1.5597  0.6047
  862MOL0     H13753   0.137   2.749   8.390 -1.1562 -0.2831  0.1588
  862MOL0     H13754   0.031   2.577   8.577 -2.6772 -2.0974 -0.4144
  862MOL0     H13755   0.076   2.454   8.451 -2.1837 -0.5669 -2.6679
  862MOL0     H13756  -0.116   2.689   8.413  2.7284  1.2705  1.5723
  862MOL0     H13757  -0.065   2.587   8.285  2.0523 -2.4139 -0.5264
  862MOL0     H13758  -0.143   2.393   8.383  2.8490 -0.2012  1.9480
  862MOL0     H13759  -0.279   2.506   8.391  0.1397  1.3928 -1.1702
  862MOL0     H13760  -0.171   2.560   8.630  0.5591 -0.0779  0.0864
  862MOL0     H13761  -0.118   2.402   8.624  2.5739  1.8328 -1.4036
  862MOL0     H13762  -0.405   2.499   8.593 -0.0921 -0.0454  0.4093
  862MOL0     H13763  -0.358   2.323   8.593  6.1476 -1.0372 -1.3647
  862MOL0     H13764  -0.355   2.530   8.814  0.9024  0.1349  0.3362
  862MOL0     H13765  -0.254   2.377   8.823  1.0316  2.5172 -0.8404
  862MOL0     H13766   0.554   2.658   8.205 -0.4875  2.2434  0.1248
  862MOL0     H13767   0.778   2.580   8.218 -1.0154 -2.2056 -0.9529
  862MOL0     H13768   1.161   2.310   8.703  1.2874 -1.3823  0.4769
  862MOL0     H13769   1.389   2.277   8.671  0.6452 -1.5702 -1.4666
  862MOL0     H13770   3.191   2.851   8.222 -0.2901  0.2587  0.3781
  862MOL0     H13771   3.408   2.851   8.148  1.5058  1.3545 -0.7371
  862MOL0     H13772   3.870   3.286   8.157 -1.4234  0.4273 -0.7689
  862MOL0     H13773   4.077   3.296   8.040 -1.1782 -0.1145  0.0471
  862MOL0     H13774   4.317   3.214   7.936 -0.6644 -0.9378 -0.1887
  862MOL0     H13775   4.194   3.322   7.867 -1.3263  0.1926 -0.3127
  862MOL0     H13776   4.393   3.135   7.717  0.8530  0.9106  0.0032
  862MOL0     H13777   4.256   3.222   7.644  0.3374 -0.8914 -0.5412
  862MOL0     H13778   4.496   3.341   7.802  0.1640  0.6118  0.2571
  862MOL0     H13779   4.363   3.437   7.727  1.4980  0.5759 -0.5541
  862MOL0     H13780   4.560   3.256   7.575  0.3964  0.1764 -1.2442
  862MOL0     H13781   4.435   3.353   7.498 -0.8069 -0.6916 -0.1603
  862MOL0     H13782   4.755   3.616   7.546 -1.2616  1.6131 -0.3043
  862MOL0     H13783   3.945   2.958   7.800 -0.7183 -1.7929  0.4884
  862MOL0     H13784   3.740   2.964   7.898 -1.4451  2.9880 -1.9176
  863MOL0     O13785   9.035   7.042   7.864  0.4448 -0.6599 -0.4394
  863MOL0     C13786   9.006   7.130   7.945 -0.8978  0.7619 -0.2518
  863MOL0     O13787   8.962   7.109   8.068 -0.7798  1.0939  0.1402
  863MOL0     C13788   8.938   6.981   8.111 -0.1011 -0.5754  0.6847
  863MOL0     C13789   9.034   6.904   8.176  0.2566  0.1894 -0.4727
  863MOL0     C13790   8.994   6.773   8.209 -0.5275 -0.2879 -0.3455
  863MOL0     C13791   8.872   6.715   8.179  0.1569 -0.2725  0.1506
  863MOL0     O13792   8.855   6.596   8.241  0.5310  0.2763  0.6669
  863MOL0     C13793   8.731   6.527   8.207  0.6725 -0.1450 -0.0443
  863MOL0     C13794   8.621   6.569   8.301 -0.0036  0.1055  0.3667
  863MOL0     C13795   8.484   6.527   8.260  0.3756 -0.7571 -0.3185
  863MOL0     C13796   8.406   6.643   8.181 -0.1133  0.2566 -0.8955
  863MOL0     C13797   8.275   6.585   8.124  0.0195  0.2499  0.0559
  863MOL0     C13798   8.152   6.616   8.208  0.3259 -0.8097  0.5769
  863MOL0     C13799   8.011   6.560   8.147 -0.3037 -1.2870 -0.8452
  863MOL0     C13800   7.893   6.608   8.237 -0.6328  0.4790  0.0158
  863MOL0     N13801   7.900   6.536   8.361 -0.6046 -0.3945  0.7802
  863MOL0     C13802   7.937   6.594   8.481 -0.6677  0.2176  0.8362
  863MOL0     C13803   7.894   6.501   8.575  0.6445  0.1122  0.2768
  863MOL0     C13804   7.891   6.519   8.721 -0.7279  0.3663 -0.0827
  863MOL0     C13805   7.763   6.472   8.781  0.6950  0.3896 -0.2881
  863MOL0     C13806   7.658   6.574   8.761  0.2780 -0.0893  0.2618
  863MOL0     C13807   7.534   6.538   8.850 -0.2349  0.2281 -0.4008
  863MOL0     O13808   7.427   6.616   8.793 -0.2769  0.3429  0.6820
  863MOL0     C13809   7.306   6.562   8.811 -0.8301 -0.4318 -0.7953
  863MOL0     C13810   7.207   6.594   8.716 -0.2447  0.1605  0.2272
  863MOL0     C13811   7.072   6.567   8.744  0.7525  0.4440  0.6461
  863MOL0     C13812   7.033   6.498   8.860 -0.9278 -0.0051  0.1364
  863MOL0     C13813   6.891   6.477   8.894  0.0612  1.0089  0.1669
  863MOL0     O13814   6.863   6.439   9.019  0.4063  0.9271  0.3138
  863MOL0     C13815   6.727   6.433   9.061 -0.0348  0.4291  0.6459
  863MOL0     C13816   6.627   6.515   9.014 -0.0490  0.1503 -1.0343
  863MOL0     C13817   6.503   6.515   9.077  0.0037  0.6057 -0.4244
  863MOL0     C13818   6.476   6.438   9.186  0.9218 -0.2383 -0.1086
  863MOL0     O13819   6.349   6.452   9.231  0.4146  0.6445 -0.4477
  863MOL0     C13820   6.306   6.344   9.302  0.9818  0.2162 -0.0153
  863MOL0     C13821   6.151   6.354   9.307  0.7909 -0.1611  0.2966
  863MOL0     C13822   6.090   6.485   9.362 -0.3244  0.5943 -0.7088
  863MOL0     C13823   5.941   6.491   9.354  0.0943  0.1664 -0.5809
  863MOL0     C13824   5.879   6.498   9.216 -0.5418 -0.2171 -0.2180
  863MOL0     C13825   5.869   6.636   9.143 -0.2092 -0.2301 -0.5852
  863MOL0     C13826   5.985   6.693   9.082 -0.2555 -0.6869 -0.1584
  863MOL0     C13827   5.949   6.812   8.984 -0.2116 -0.1235  0.5671
  863MOL0    Cl13828   5.891   6.962   9.059 -0.3573  0.2965 -0.3296
  863MOL0     C13829   6.576   6.359   9.242 -0.0468 -0.5353  0.2771
  863MOL0     C13830   6.700   6.349   9.178 -0.5764  0.2646  0.0341
  863MOL0     O13831   6.816   6.473   8.799 -0.2300 -0.0454 -0.1318
  863MOL0     C13832   7.138   6.462   8.954 -0.1721  0.4699  1.0931
  863MOL0     C13833   7.267   6.503   8.930  0.8306 -0.5925 -0.4551
  863MOL0     N13834   7.855   6.387   8.500  0.4219  0.1843 -0.7905
  863MOL0     N13835   7.854   6.404   8.382  0.3636  0.2468 -0.0792
  863MOL0     C13836   8.781   6.794   8.111 -0.3524 -0.3521  0.1204
  863MOL0     C13837   8.818   6.924   8.067  0.4100  0.2626  0.4289
  863MOL0     C13838   9.040   7.278   7.907 -0.8477  0.0936 -0.1128
  863MOL0     C13839   9.042   7.313   7.771 -0.5517  0.1114  0.2914
  863MOL0     C13840   9.072   7.434   7.728 -0.5012 -0.7434  0.2941
  863MOL0     C13841   9.097   7.537   7.826  0.0550 -0.1321  0.5560
  863MOL0     O13842   9.122   7.665   7.798 -0.5399 -0.3912 -1.8761
  863MOL0     C13843   9.220   7.686   7.699  0.5959 -0.4388 -0.3120
  863MOL0     C13844   9.276   7.831   7.707  0.7557  0.2089  0.1624
  863MOL0     C13845   9.306   7.873   7.859  0.6698  0.0248  0.4622
  863MOL0     C13846   9.182   7.937   7.921 -0.0505 -0.9092 -0.2760
  863MOL0     C13847   9.202   7.943   8.069  0.3094  0.7779  0.1684
  863MOL0     C13848   9.233   7.973   8.184  1.1072  0.4422  0.6733
  863MOL0     C13849   9.086   7.507   7.959 -0.0916  0.1218  0.5833
  863MOL0     C13850   9.053   7.372   8.000 -0.7540 -0.3844  0.4451
  863MOL0     H13851   9.129   6.951   8.201 -0.1585  0.2287  1.1864
  863MOL0     H13852   9.070   6.702   8.240  0.8823  1.2024 -0.2608
  863MOL0     H13853   8.756   6.420   8.210  0.7288 -0.2769 -2.9176
  863MOL0     H13854   8.700   6.543   8.104 -1.6344  0.9592  0.7576
  863MOL0     H13855   8.620   6.679   8.299  0.8420  0.1566  1.5131
  863MOL0     H13856   8.639   6.541   8.405  2.0380 -1.6077 -0.3872
  863MOL0     H13857   8.425   6.509   8.351  0.0104 -0.5559 -0.5127
  863MOL0     H13858   8.506   6.439   8.199  1.2015 -0.5248 -0.3615
  863MOL0     H13859   8.379   6.725   8.248 -3.7280 -1.1165 -0.3984
  863MOL0     H13860   8.465   6.692   8.102  2.3146  0.6682  1.0563
  863MOL0     H13861   8.277   6.476   8.110  1.5536  0.4974 -1.9421
  863MOL0     H13862   8.264   6.630   8.025  1.6838 -0.2653 -0.4002
  863MOL0     H13863   8.145   6.725   8.213 -2.8271 -0.9536  1.1462
  863MOL0     H13864   8.168   6.579   8.309 -0.3319  0.7623  1.2833
  863MOL0     H13865   7.971   6.604   8.055 -2.1323 -1.2735 -0.0926
  863MOL0     H13866   8.014   6.452   8.133 -1.3702 -1.1671 -2.1752
  863MOL0     H13867   7.798   6.587   8.186  0.1730 -1.3108 -0.7993
  863MOL0     H13868   7.899   6.714   8.264 -2.5555  0.7550 -0.4966
  863MOL0     H13869   7.967   6.698   8.489  0.3684  0.1824 -1.7467
  863MOL0     H13870   7.910   6.622   8.753 -1.1407  0.0179  1.3596
  863MOL0     H13871   7.967   6.448   8.754 -1.1199 -1.4109 -2.6537
  863MOL0     H13872   7.780   6.467   8.888  0.0633 -0.8632 -0.2277
  863MOL0     H13873   7.730   6.376   8.740  1.4103  1.6806 -4.4591
  863MOL0     H13874   7.688   6.675   8.790 -2.2526  0.2229  2.0602
  863MOL0     H13875   7.624   6.567   8.657  3.6226 -0.1626 -0.9678
  863MOL0     H13876   7.554   6.548   8.957  0.2933  1.5342 -0.5980
  863MOL0     H13877   7.514   6.432   8.831  2.9199 -0.2645 -1.5782
  863MOL0     H13878   7.228   6.658   8.631 -1.5215  1.6981  1.0118
  863MOL0     H13879   6.989   6.605   8.686 -3.2679 -0.1291  5.3287
  863MOL0     H13880   6.630   6.582   8.929 -0.1356  1.2714 -0.1769
  863MOL0     H13881   6.424   6.584   9.050  1.5395  2.3039 -0.7567
  863MOL0     H13882   6.333   6.344   9.408 -0.4896  0.9518  0.3855
  863MOL0     H13883   6.322   6.250   9.247  0.9472 -1.6209  2.8895
  863MOL0     H13884   6.120   6.268   9.367 -3.3159 -0.3589 -1.7560
  863MOL0     H13885   6.114   6.322   9.209  0.9160 -1.4623  0.6462
  863MOL0     H13886   6.127   6.570   9.303  0.3157  0.6265 -0.2647
  863MOL0     H13887   6.115   6.509   9.465  0.2227  0.8161 -0.8873
  863MOL0     H13888   5.896   6.408   9.409  2.9492 -0.0168  1.7495
  863MOL0     H13889   5.913   6.580   9.411 -2.2418 -1.7651  1.5283
  863MOL0     H13890   5.779   6.455   9.230  0.6999 -3.7838 -1.2270
  863MOL0     H13891   5.930   6.430   9.148 -0.5503 -2.8038  2.1644
  863MOL0     H13892   5.838   6.708   9.219 -1.5567  1.6774 -2.7965
  863MOL0     H13893   5.785   6.621   9.074 -3.3032 -1.5646  3.0899
  863MOL0     H13894   6.045   6.738   9.161 -1.3725  0.3913  0.1033
  863MOL0     H13895   6.052   6.617   9.040  0.7450 -0.2526  0.6382
  863MOL0     H13896   5.863   6.785   8.921 -0.4558 -1.4879  1.4581
  863MOL0     H13897   6.030   6.822   8.911 -1.3108 -2.6845 -1.1308
  863MOL0     H13898   6.544   6.303   9.329 -0.5307  0.5597  0.8167
  863MOL0     H13899   6.777   6.276   9.203 -0.3942  0.8275  1.1862
  863MOL0     H13900   7.100   6.418   9.046 -1.7200 -0.3859  0.0979
  863MOL0     H13901   7.337   6.488   9.012 -1.6432 -0.2248  1.8481
  863MOL0     H13902   8.679   6.768   8.084 -0.5304 -1.4577  1.7127
  863MOL0     H13903   8.742   6.980   8.014  0.8809  1.7241  1.2316
  863MOL0     H13904   9.015   7.240   7.695 -0.6214  1.2872 -0.8360
  863MOL0     H13905   9.066   7.466   7.624 -0.9510 -0.4693  0.4019
  863MOL0     H13906   9.187   7.666   7.597  1.4853  1.2485 -0.9819
  863MOL0     H13907   9.309   7.628   7.726  3.2326  4.3012  2.6399
  863MOL0     H13908   9.366   7.835   7.645 -0.3621  0.1658 -1.5265
  863MOL0     H13909   9.201   7.895   7.660  1.8586  0.2295 -1.6395
  863MOL0     H13910   9.377   7.957   7.860 -1.9770  2.5516  4.3240
  863MOL0     H13911   9.344   7.784   7.909 -1.2367 -2.3280 -2.0321
  863MOL0     H13912   9.175   8.040   7.884 -0.5071 -0.5407  0.7914
  863MOL0     H13913   9.083   7.895   7.903 -1.9027  1.0688  3.9215
  863MOL0     H13914   9.260   8.019   8.277 -1.9950  0.7837  1.4874
  863MOL0     H13915   9.112   7.575   8.041 -0.1009 -0.4502  1.0679
  863MOL0     H13916   9.056   7.367   8.108 -0.0175  2.9063  0.6955
  864MOL0     O13917   0.272   6.688   8.319  0.5937  0.3960 -0.3856
  864MOL0     C13918   0.346   6.785   8.304 -0.3301 -0.3584  0.4480
  864MOL0     O13919   0.307   6.918   8.284  0.1508  0.6468  0.0171
  864MOL0     C13920   0.173   6.947   8.285  0.0851  0.3078  0.4943
  864MOL0     C13921   0.094   6.944   8.403 -1.0401  0.2984  0.8347
  864MOL0     C13922  -0.051   6.957   8.398 -0.3596 -0.0813 -0.3086
  864MOL0     C13923  -0.116   6.985   8.277  0.1889  1.0129  0.8488
  864MOL0     O13924  -0.248   6.995   8.251 -0.3852  0.3550 -0.1669
  864MOL0     C13925  -0.344   6.934   8.334  0.0721  1.0055 -0.6260
  864MOL0     C13926  -0.478   6.982   8.279  0.8471 -0.1158 -0.0516
  864MOL0     C13927  -0.502   6.935   8.136 -0.3176 -0.4400 -0.1443
  864MOL0     C13928  -0.651   6.962   8.113 -0.4349  0.2517 -0.3458
  864MOL0     C13929  -0.674   6.948   7.967  0.8603  0.3976  0.3781
  864MOL0     C13930  -0.828   6.958   7.936  0.1692  0.2620  0.0783
  864MOL0     C13931  -0.845   6.949   7.786 -0.5185 -0.4957  0.4312
  864MOL0     C13932  -0.969   6.883   7.736 -0.0094  0.8760 -0.1380
  864MOL0     N13933  -1.085   6.976   7.754  0.0285  0.1931 -0.0751
  864MOL0     C13934  -1.155   7.000   7.868  0.0649  0.0779  0.0176
  864MOL0     C13935  -1.226   7.117   7.846 -0.7777 -0.1191 -0.5397
  864MOL0     C13936  -1.294   7.198   7.950  0.4097  1.1163  0.0882
  864MOL0     C13937  -1.237   7.332   7.981 -0.4767 -0.3441 -1.2744
  864MOL0     C13938  -1.311   7.389   8.110  0.4127  0.2914  0.0956
  864MOL0     C13939  -1.260   7.534   8.140 -0.2611  0.0389  0.2912
  864MOL0     O13940  -1.293   7.567   8.277  0.5660  0.1050 -0.7394
  864MOL0     C13941  -1.195   7.587   8.373 -0.9533  0.9228 -0.2180
  864MOL0     C13942  -1.233   7.630   8.494  0.2305 -0.2869 -0.0044
  864MOL0     C13943  -1.138   7.667   8.587 -1.5032 -0.1205 -0.6720
  864MOL0     C13944  -1.002   7.656   8.564 -0.4362 -0.0947  0.4980
  864MOL0     C13945  -0.908   7.686   8.676 -0.4147 -0.3796 -0.3645
  864MOL0     O13946  -0.949   7.776   8.768  0.2985  0.2638  0.7718
  864MOL0     C13947  -0.861   7.814   8.869 -0.4486  0.1279 -0.0628
  864MOL0     C13948  -0.723   7.813   8.859 -0.2690  0.2052 -0.2026
  864MOL0     C13949  -0.642   7.853   8.959 -0.1175 -0.3852  0.7164
  864MOL0     C13950  -0.690   7.898   9.077  0.8748  0.4480  0.8413
  864MOL0     O13951  -0.613   7.925   9.187 -0.1414 -0.0914 -0.2032
  864MOL0     C13952  -0.466   7.925   9.173  0.3701  0.5014 -0.3725
  864MOL0     C13953  -0.407   8.004   9.286  0.3993 -0.3222 -0.8934
  864MOL0     C13954  -0.262   8.002   9.285 -0.3219 -0.5153 -0.1803
  864MOL0     C13955  -0.203   8.069   9.406 -0.5788 -0.1298  0.3961
  864MOL0     C13956  -0.050   8.076   9.397 -1.2000 -0.1195  0.2696
  864MOL0     C13957   0.017   8.197   9.472 -0.2019  0.1772  0.1290
  864MOL0     C13958  -0.021   8.204   9.627 -0.0522 -0.6650  0.3952
  864MOL0     C13959   0.058   8.315   9.689 -0.7523 -0.0117 -0.3583
  864MOL0    Cl13960   0.045   8.309   9.869  0.0317 -0.2606 -0.0288
  864MOL0     C13961  -0.831   7.897   9.093 -0.9523  0.4768  0.2146
  864MOL0     C13962  -0.918   7.853   8.986  0.0469  0.3453 -0.1315
  864MOL0     O13963  -0.799   7.619   8.671  0.4026  0.4499 -0.7572
  864MOL0     C13964  -0.962   7.593   8.444  0.8185  0.3165 -0.2085
  864MOL0     C13965  -1.058   7.565   8.350  0.3294  0.4355 -0.3148
  864MOL0     N13966  -1.197   7.161   7.716  0.4154  0.3438  0.4261
  864MOL0     N13967  -1.106   7.083   7.669 -0.5391  0.7896 -0.1154
  864MOL0     C13968  -0.034   6.998   8.165  0.1845 -0.1329 -0.0464
  864MOL0     C13969   0.101   6.987   8.174 -0.5025  0.1522  0.1522
  864MOL0     C13970   0.492   6.762   8.315  0.4891  0.5399  0.7457
  864MOL0     C13971   0.549   6.635   8.312 -0.4802  0.6308 -0.0148
  864MOL0     C13972   0.688   6.621   8.342  0.1764 -0.4398  0.0813
  864MOL0     C13973   0.770   6.733   8.358 -0.2918 -0.0440  0.0627
  864MOL0     O13974   0.900   6.728   8.400 -0.3611 -0.7212  0.3923
  864MOL0     C13975   0.979   6.620   8.347  0.5479 -0.1514 -0.1689
  864MOL0     C13976   1.119   6.671   8.326  0.1460 -0.6498 -0.2346
  864MOL0     C13977   1.190   6.680   8.457 -0.6705  0.0724  0.5576
  864MOL0     C13978   1.309   6.767   8.437 -0.4243  0.1870  0.3749
  864MOL0     C13979   1.400   6.740   8.548 -0.0487  0.2593 -1.0395
  864MOL0     C13980   1.462   6.695   8.638  0.0189 -0.5894  0.4149
  864MOL0     C13981   0.709   6.860   8.351 -0.0980 -0.0656 -0.2674
  864MOL0     C13982   0.572   6.876   8.330  0.5621  0.1394 -0.3385
  864MOL0     H13983   0.147   6.927   8.496 -0.4289 -0.0776  0.4304
  864MOL0     H13984  -0.109   6.959   8.489 -3.0165 -0.8764 -1.8705
  864MOL0     H13985  -0.327   6.973   8.435 -2.9409  2.7502 -0.6677
  864MOL0     H13986  -0.338   6.825   8.331 -0.2303  0.9684 -0.0166
  864MOL0     H13987  -0.481   7.091   8.281 -2.2738 -0.0800 -1.0487
  864MOL0     H13988  -0.564   6.961   8.343 -1.3879  0.8944 -2.5436
  864MOL0     H13989  -0.481   6.829   8.120  2.3910  0.0873 -0.5569
  864MOL0     H13990  -0.440   6.983   8.061 -0.6653 -3.4986 -2.5693
  864MOL0     H13991  -0.717   6.898   8.172  0.3004  0.0155  0.2407
  864MOL0     H13992  -0.668   7.067   8.140  0.6059  0.7790 -1.6023
  864MOL0     H13993  -0.631   6.854   7.930  0.3215 -0.3349  1.5497
  864MOL0     H13994  -0.631   7.029   7.908  1.1425  1.8856  2.4935
  864MOL0     H13995  -0.857   7.054   7.979  1.6310  1.6633 -1.8607
  864MOL0     H13996  -0.877   6.869   7.976  2.3942 -1.4254 -0.7416
  864MOL0     H13997  -0.851   7.048   7.738 -1.7214 -1.7209 -2.1620
  864MOL0     H13998  -0.762   6.895   7.740 -0.9918  1.2045 -2.6847
  864MOL0     H13999  -0.981   6.784   7.780  3.8841  0.7278  1.0102
  864MOL0     H14000  -0.966   6.871   7.628 -2.9836 -0.8671 -0.1287
  864MOL0     H14001  -1.159   6.940   7.958  0.3651  0.4499  0.2813
  864MOL0     H14002  -1.281   7.135   8.039 -2.5332 -1.1535 -0.9379
  864MOL0     H14003  -1.399   7.210   7.924  0.0642 -0.8110  0.4262
  864MOL0     H14004  -1.260   7.399   7.897  0.5887  1.4204 -0.2351
  864MOL0     H14005  -1.130   7.323   8.001 -0.3670 -1.5360 -2.3091
  864MOL0     H14006  -1.418   7.400   8.092  0.5293  1.9142  0.3036
  864MOL0     H14007  -1.296   7.323   8.196  0.8324  0.4506  0.1480
  864MOL0     H14008  -1.318   7.608   8.083  1.2253  0.6771 -0.4386
  864MOL0     H14009  -1.157   7.548   8.107 -0.5246 -0.6211 -0.8664
  864MOL0     H14010  -1.341   7.637   8.502  0.4132  2.1840  1.2560
  864MOL0     H14011  -1.163   7.696   8.689 -2.0841  2.0347 -1.3540
  864MOL0     H14012  -0.682   7.792   8.761 -3.1280  1.6871 -1.8574
  864MOL0     H14013  -0.535   7.862   8.939 -0.4503  1.1379 -0.5904
  864MOL0     H14014  -0.435   7.977   9.082  2.8151  2.6456  1.5145
  864MOL0     H14015  -0.425   7.824   9.167  0.9150  0.7866 -1.6774
  864MOL0     H14016  -0.453   7.968   9.378 -2.6389 -0.6886 -2.4462
  864MOL0     H14017  -0.445   8.106   9.281  1.1741  0.1622  1.7049
  864MOL0     H14018  -0.227   8.037   9.187  1.0449 -2.6885 -0.5347
  864MOL0     H14019  -0.233   7.896   9.289 -0.7310 -0.6401 -0.4185
  864MOL0     H14020  -0.235   8.173   9.417 -2.1359 -0.3709 -1.2309
  864MOL0     H14021  -0.237   8.011   9.492 -4.6541 -0.1756 -0.9817
  864MOL0     H14022  -0.016   8.081   9.293 -0.1748 -0.3510  0.5785
  864MOL0     H14023  -0.018   7.978   9.433  1.1557  0.3695 -0.3124
  864MOL0     H14024  -0.013   8.290   9.423 -0.6211  1.5927  2.8680
  864MOL0     H14025   0.124   8.178   9.460 -0.3708 -1.9109  1.3922
  864MOL0     H14026  -0.124   8.237   9.641  1.0426  1.6046  5.5744
  864MOL0     H14027   0.005   8.112   9.680  0.0365  0.7632  3.0140
  864MOL0     H14028   0.024   8.411   9.649 -2.7779  0.6776  2.6725
  864MOL0     H14029   0.164   8.307   9.667  0.0001  0.2181  2.7629
  864MOL0     H14030  -0.875   7.918   9.189  3.0596 -1.3695  2.7065
  864MOL0     H14031  -1.024   7.848   9.007  0.4189  1.3179  2.3370
  864MOL0     H14032  -0.856   7.574   8.430  0.2311 -1.1302 -3.6182
  864MOL0     H14033  -1.029   7.512   8.260  3.4925 -0.3687  1.0367
  864MOL0     H14034  -0.078   7.010   8.067  0.3195 -1.1425 -0.2446
  864MOL0     H14035   0.156   7.023   8.088 -1.6604 -0.4295 -0.8482
  864MOL0     H14036   0.483   6.549   8.300 -1.3219  1.0445  1.3631
  864MOL0     H14037   0.736   6.526   8.366 -1.1617 -0.2918  4.0581
  864MOL0     H14038   0.936   6.587   8.252  2.3751  0.2062 -1.1576
  864MOL0     H14039   0.976   6.537   8.418  0.1330  1.3956  1.7108
  864MOL0     H14040   1.167   6.616   8.246 -1.9499 -1.7962 -0.7806
  864MOL0     H14041   1.101   6.772   8.288  1.1750 -1.2625 -2.4578
  864MOL0     H14042   1.209   6.576   8.487  0.8976  0.6304  1.6759
  864MOL0     H14043   1.127   6.723   8.536 -1.4778  2.0807 -1.0817
  864MOL0     H14044   1.356   6.741   8.343  0.5071 -0.7288  1.0759
  864MOL0     H14045   1.278   6.872   8.446  0.7171  0.4860  1.0178
  864MOL0     H14046   1.524   6.656   8.717 -0.1957  0.6683  1.2302
  864MOL0     H14047   0.782   6.939   8.360  1.3863 -1.3693 -0.4656
  864MOL0     H14048   0.531   6.974   8.350  2.1254  0.6493  0.5016
  865MOL0     O14049   0.469   1.807   2.438 -0.9021  0.1318  0.0368
  865MOL0     C14050   0.535   1.713   2.481  0.4110 -0.4427  0.4601
  865MOL0     O14051   0.490   1.584   2.484  0.2261  0.2859 -0.4225
  865MOL0     C14052   0.356   1.548   2.441 -0.4543  0.6347 -0.2605
  865MOL0     C14053   0.275   1.605   2.342 -0.1300  0.0127 -0.1225
  865MOL0     C14054   0.153   1.548   2.309 -0.0713 -0.2684 -0.3903
  865MOL0     C14055   0.112   1.432   2.368 -0.2319  0.0257  0.7511
  865MOL0     O14056  -0.005   1.380   2.334 -0.1601 -0.2819 -0.5387
  865MOL0     C14057  -0.054   1.396   2.196 -0.1967 -0.1370 -0.3584
  865MOL0     C14058  -0.202   1.361   2.200 -0.0141 -0.8463  0.0715
  865MOL0     C14059  -0.249   1.370   2.052 -0.4609 -0.0737  0.5577
  865MOL0     C14060  -0.395   1.320   2.035  0.3553 -0.0900 -0.5490
  865MOL0     C14061  -0.415   1.293   1.891  0.3076  0.5971  0.7780
  865MOL0     C14062  -0.544   1.212   1.862  0.0131 -0.6125 -0.0303
  865MOL0     C14063  -0.584   1.255   1.720  0.3428  0.3740  0.2215
  865MOL0     C14064  -0.714   1.177   1.678  0.4845 -0.2168 -0.2022
  865MOL0     N14065  -0.768   1.227   1.543  0.3592 -0.4301 -0.0943
  865MOL0     C14066  -0.686   1.268   1.447  0.2434  1.2909 -0.0558
  865MOL0     C14067  -0.776   1.322   1.357  0.0515 -0.0726  0.3212
  865MOL0     C14068  -0.751   1.397   1.234  0.7854  0.3443 -0.3864
  865MOL0     C14069  -0.715   1.324   1.109  0.4503  0.2142  0.2903
  865MOL0     C14070  -0.813   1.205   1.077  0.2829 -0.2178  0.1233
  865MOL0     C14071  -0.767   1.147   0.945  0.8129 -0.5457 -0.8956
  865MOL0     O14072  -0.801   1.227   0.838 -0.4603  0.2311  0.3363
  865MOL0     C14073  -0.922   1.214   0.772  0.5826 -0.1000  0.0542
  865MOL0     C14074  -1.041   1.162   0.830  0.4706 -0.8029 -0.8081
  865MOL0     C14075  -1.162   1.159   0.764 -0.1864  0.4205  0.2203
  865MOL0     C14076  -1.173   1.188   0.631  0.2966  0.4280  0.3889
  865MOL0     C14077  -1.302   1.177   0.565 -0.7682  0.6615  0.2305
  865MOL0     O14078  -1.409   1.118   0.638  0.3561 -0.3963 -0.5704
  865MOL0     C14079  -1.527   1.119   0.576  0.0912  0.0097 -0.2838
  865MOL0     C14080  -1.628   1.035   0.628 -0.2688 -0.2605 -0.2356
  865MOL0     C14081  -1.760   1.037   0.594  0.1420  0.7043  0.6532
  865MOL0     C14082  -1.806   1.133   0.498  0.3789  0.2552 -0.4260
  865MOL0     O14083  -1.942   1.132   0.475 -0.1982 -0.6124  0.2734
  865MOL0     C14084  -2.020   1.256   0.493  0.9736 -0.3167  0.9571
  865MOL0     C14085  -2.169   1.234   0.443 -0.0324 -0.3087 -0.3571
  865MOL0     C14086  -2.181   1.183   0.299  0.3689 -0.1480 -0.3457
  865MOL0     C14087  -2.334   1.163   0.271 -0.1788  0.3086  0.4792
  865MOL0     C14088  -2.372   1.124   0.132 -0.6582  0.2506 -0.4085
  865MOL0     C14089  -2.279   1.015   0.075  0.2412  0.4406  0.1849
  865MOL0     C14090  -2.333   0.959  -0.049 -0.3155  0.1299 -0.3364
  865MOL0     C14091  -2.229   0.886  -0.121 -0.5540  0.3856 -0.2480
  865MOL0    Cl14092  -2.262   0.861  -0.289  0.2136  0.2401 -0.5265
  865MOL0     C14093  -1.710   1.220   0.446  0.9441  0.0294  0.5023
  865MOL0     C14094  -1.574   1.211   0.485  0.2235  0.5553 -0.1616
  865MOL0     O14095  -1.293   1.203   0.444  0.8193 -0.2906  0.3772
  865MOL0     C14096  -1.055   1.228   0.575  0.6248 -0.9852  0.2244
  865MOL0     C14097  -0.932   1.239   0.637  0.2900 -0.5554 -0.9447
  865MOL0     N14098  -0.901   1.318   1.409  0.0433 -0.1536 -1.1987
  865MOL0     N14099  -0.895   1.253   1.522  0.4853  0.0358  0.4898
  865MOL0     C14100   0.186   1.376   2.464 -0.2547  0.1402 -0.5135
  865MOL0     C14101   0.312   1.425   2.494 -0.5079  0.1458 -0.9329
  865MOL0     C14102   0.669   1.750   2.513 -0.2180  0.1138 -0.0458
  865MOL0     C14103   0.736   1.864   2.470 -0.0734 -0.8245  0.0005
  865MOL0     C14104   0.877   1.871   2.483 -0.0614 -0.5965 -0.1815
  865MOL0     C14105   0.949   1.770   2.547 -0.4837  0.1155 -0.2513
  865MOL0     O14106   1.089   1.756   2.542  0.2318 -0.1854 -0.1954
  865MOL0     C14107   1.154   1.838   2.448 -0.4352  0.5668 -0.1619
  865MOL0     C14108   1.286   1.786   2.410 -1.0953  0.0916  1.0873
  865MOL0     C14109   1.268   1.638   2.358  0.8489 -0.7231 -0.8340
  865MOL0     C14110   1.391   1.588   2.283 -0.2099  1.0776 -0.0259
  865MOL0     C14111   1.375   1.445   2.264 -0.5818  0.4625  1.3774
  865MOL0     C14112   1.345   1.331   2.244 -0.4065  1.0166  0.2350
  865MOL0     C14113   0.875   1.659   2.601 -0.2912 -0.8757  0.1222
  865MOL0     C14114   0.738   1.655   2.583  0.2398 -0.2125 -0.6657
  865MOL0     H14115   0.290   1.701   2.293 -0.9280  0.8712  1.2546
  865MOL0     H14116   0.091   1.606   2.241  0.2640 -2.0724 -2.3458
  865MOL0     H14117  -0.000   1.318   2.141 -2.6166 -1.9504 -0.3416
  865MOL0     H14118  -0.029   1.489   2.144  3.0144 -0.3010  0.7102
  865MOL0     H14119  -0.265   1.431   2.257 -0.3841  0.1905 -1.5434
  865MOL0     H14120  -0.225   1.256   2.217  0.7220 -1.2114 -1.1014
  865MOL0     H14121  -0.185   1.301   1.996  0.5963  1.7192 -0.5483
  865MOL0     H14122  -0.241   1.471   2.011  1.2210 -0.4168 -0.0155
  865MOL0     H14123  -0.421   1.225   2.084 -2.2773 -0.6591 -2.7473
  865MOL0     H14124  -0.462   1.392   2.081 -0.5913 -1.5066  0.3776
  865MOL0     H14125  -0.332   1.225   1.867  0.1827  0.3568  1.0306
  865MOL0     H14126  -0.405   1.381   1.827  3.5084 -1.7557 -2.3872
  865MOL0     H14127  -0.632   1.235   1.923  1.4795  1.6254  1.4469
  865MOL0     H14128  -0.527   1.105   1.870  1.1123 -0.5722 -1.5041
  865MOL0     H14129  -0.600   1.363   1.709 -0.5196  0.2544  0.2365
  865MOL0     H14130  -0.503   1.217   1.657 -0.6079 -2.8463  0.7678
  865MOL0     H14131  -0.802   1.204   1.737 -1.0252  0.9217 -2.7906
  865MOL0     H14132  -0.703   1.068   1.682 -2.4190 -0.5655  3.1934
  865MOL0     H14133  -0.578   1.255   1.450 -0.0702 -2.0495  0.5914
  865MOL0     H14134  -0.661   1.459   1.240  1.9901 -0.7758 -3.9047
  865MOL0     H14135  -0.840   1.455   1.208 -0.0847 -1.8084 -2.6018
  865MOL0     H14136  -0.613   1.289   1.126  0.5754  0.9737  1.1534
  865MOL0     H14137  -0.711   1.393   1.024  1.6195 -0.3637 -0.1352
  865MOL0     H14138  -0.790   1.134   1.158 -0.1046 -0.8586 -0.3201
  865MOL0     H14139  -0.918   1.233   1.074 -0.2231 -2.0383 -0.5407
  865MOL0     H14140  -0.811   1.046   0.940  0.8954 -0.5470 -1.7772
  865MOL0     H14141  -0.658   1.141   0.944  0.8897 -0.4627  1.8211
  865MOL0     H14142  -1.058   1.135   0.933 -0.2297  2.4550  0.0487
  865MOL0     H14143  -1.247   1.116   0.815 -0.7748  1.5739  0.2469
  865MOL0     H14144  -1.602   0.969   0.710  3.5648 -0.5693 -1.4857
  865MOL0     H14145  -1.837   0.974   0.637  0.2564  0.9079  1.1611
  865MOL0     H14146  -1.981   1.345   0.443 -1.9894  1.1172  1.0373
  865MOL0     H14147  -2.030   1.280   0.599 -1.1579  0.0494  0.7166
  865MOL0     H14148  -2.227   1.326   0.458 -1.6838 -1.5219  1.0452
  865MOL0     H14149  -2.210   1.166   0.517 -0.7804 -0.0544 -0.5301
  865MOL0     H14150  -2.139   1.082   0.299 -3.3224 -1.8805  0.8994
  865MOL0     H14151  -2.136   1.252   0.227  1.0614  0.9965  1.1399
  865MOL0     H14152  -2.352   1.077   0.335  0.0084 -0.9325 -1.0904
  865MOL0     H14153  -2.397   1.250   0.293  1.1307  2.4617 -3.3734
  865MOL0     H14154  -2.362   1.212   0.067 -0.2823  0.5589  0.0588
  865MOL0     H14155  -2.479   1.101   0.132 -0.2347 -1.9386  0.6328
  865MOL0     H14156  -2.257   0.944   0.156 -1.0563  0.1431  0.2974
  865MOL0     H14157  -2.179   1.051   0.049  0.4660 -1.0692 -1.2227
  865MOL0     H14158  -2.422   0.897  -0.038 -1.2087  1.7692  2.6049
  865MOL0     H14159  -2.352   1.042  -0.118  1.7809  0.3534 -0.7080
  865MOL0     H14160  -2.195   0.800  -0.062  2.7112  0.2916 -2.0179
  865MOL0     H14161  -2.137   0.945  -0.126 -0.2373 -0.1391 -0.6359
  865MOL0     H14162  -1.751   1.297   0.382  0.1992  1.0545  2.1450
  865MOL0     H14163  -1.506   1.284   0.443  3.0553 -1.4579  0.6135
  865MOL0     H14164  -1.052   1.246   0.468 -1.3311 -1.7533  0.0099
  865MOL0     H14165  -0.839   1.264   0.587  1.1761 -0.4319  0.6991
  865MOL0     H14166   0.169   1.286   2.523  2.4698  0.4384  0.8740
  865MOL0     H14167   0.369   1.388   2.578  0.5750  1.9166 -0.8234
  865MOL0     H14168   0.674   1.944   2.430 -1.7041 -2.3455 -0.6279
  865MOL0     H14169   0.923   1.965   2.456 -2.6592  0.7729 -0.0362
  865MOL0     H14170   1.167   1.939   2.486  1.0316  0.1113  0.6156
  865MOL0     H14171   1.096   1.843   2.355 -1.1433 -1.9091  0.0581
  865MOL0     H14172   1.321   1.843   2.324  0.3655  0.4403  1.8899
  865MOL0     H14173   1.358   1.793   2.492 -1.3310 -0.7686  1.3810
  865MOL0     H14174   1.176   1.629   2.300  0.3660  0.6372 -0.3240
  865MOL0     H14175   1.244   1.581   2.449 -1.0982  0.7668 -0.3418
  865MOL0     H14176   1.388   1.632   2.183 -0.6362  2.6510  0.6390
  865MOL0     H14177   1.484   1.608   2.338  0.4834 -2.9883  0.6142
  865MOL0     H14178   1.320   1.228   2.226 -2.2920  1.5067 -0.1091
  865MOL0     H14179   0.926   1.568   2.628  1.1230  0.1830  1.1386
  865MOL0     H14180   0.683   1.567   2.616  0.8304  0.3001  1.8713
  866MOL0     O14181   9.287   2.714   2.407 -0.5513  0.1382 -0.3325
  866MOL0     C14182   9.339   2.824   2.384  0.2068  0.6687 -0.7207
  866MOL0     O14183   9.315   2.895   2.274  0.2104  0.0604  0.4470
  866MOL0     C14184   9.216   2.856   2.185  0.1906 -0.3164 -0.1573
  866MOL0     C14185   9.245   2.821   2.055 -0.4717 -0.1472  0.5548
  866MOL0     C14186   9.149   2.795   1.956  0.1153 -0.3091 -1.4148
  866MOL0     C14187   9.013   2.814   1.994  0.4241  0.2280  0.6489
  866MOL0     O14188   8.906   2.800   1.909  0.0343  0.0366  0.2816
  866MOL0     C14189   8.922   2.727   1.790 -0.7571 -0.0266  0.5211
  866MOL0     C14190   8.818   2.762   1.689  0.1088  0.5835  0.3621
  866MOL0     C14191   8.678   2.723   1.739 -1.1751 -0.3021  0.2384
  866MOL0     C14192   8.575   2.770   1.638  0.3431  0.2128  0.0400
  866MOL0     C14193   8.443   2.698   1.649 -0.2306  0.0986 -0.2206
  866MOL0     C14194   8.379   2.705   1.789  0.0331  0.1292 -0.5109
  866MOL0     C14195   8.344   2.847   1.837  0.3524  0.0810  0.4027
  866MOL0     C14196   8.236   2.916   1.758  0.2155 -0.7877 -0.9766
  866MOL0     N14197   8.106   2.854   1.736  0.3298 -0.2570 -0.1531
  866MOL0     C14198   7.995   2.842   1.825 -0.1248 -0.0886  0.0818
  866MOL0     C14199   7.917   2.749   1.757  0.0513  0.7144 -0.3996
  866MOL0     C14200   7.784   2.706   1.819  0.2240 -0.5108 -0.0205
  866MOL0     C14201   7.670   2.749   1.730  0.2203  0.3070  0.2313
  866MOL0     C14202   7.660   2.900   1.709  0.2638 -0.2308  0.2764
  866MOL0     C14203   7.543   2.948   1.632  0.8219 -0.3895 -0.0084
  866MOL0     O14204   7.415   2.904   1.679 -0.3218 -0.3667  0.6101
  866MOL0     C14205   7.292   2.949   1.638 -0.9585 -0.3502 -0.2099
  866MOL0     C14206   7.194   2.882   1.689  0.2770  0.4606  0.1052
  866MOL0     C14207   7.062   2.926   1.662 -0.0392 -1.1463  0.1576
  866MOL0     C14208   7.039   3.044   1.588 -0.7415 -0.6340 -0.4724
  866MOL0     C14209   6.900   3.086   1.544  0.1887 -0.9091  0.0413
  866MOL0     O14210   6.811   2.981   1.530 -0.1861 -0.2638 -0.0774
  866MOL0     C14211   6.679   3.001   1.499 -0.0592  0.4915 -0.5389
  866MOL0     C14212   6.632   3.068   1.384 -0.5782 -0.5696 -0.3585
  866MOL0     C14213   6.493   3.062   1.339 -0.1533 -0.6575  0.1863
  866MOL0     C14214   6.392   2.990   1.412 -1.2829  0.3575 -0.0561
  866MOL0     O14215   6.266   2.969   1.369  0.1953 -0.0743  1.1910
  866MOL0     C14216   6.220   3.065   1.270  0.2865 -0.6299  0.1079
  866MOL0     C14217   6.069   3.070   1.272 -0.6268 -0.0561 -0.5450
  866MOL0     C14218   6.015   3.120   1.399 -0.3273 -0.3762  0.4048
  866MOL0     C14219   5.856   3.133   1.392  0.0677  0.0354 -0.3825
  866MOL0     C14220   5.796   3.232   1.488  0.7129  0.1196 -0.0286
  866MOL0     C14221   5.651   3.205   1.517  0.9912 -0.7893  0.2119
  866MOL0     C14222   5.594   3.297   1.620  1.6827  0.9099 -0.6055
  866MOL0     C14223   5.532   3.418   1.570  1.0103  1.0371 -0.1395
  866MOL0    Cl14224   5.618   3.499   1.440 -0.1199 -0.0430  0.4203
  866MOL0     C14225   6.435   2.923   1.525 -0.2432 -0.5770 -0.9003
  866MOL0     C14226   6.573   2.927   1.561 -0.0574 -0.1876  0.5572
  866MOL0     O14227   6.868   3.205   1.551  0.1330  0.1907  0.0245
  866MOL0     C14228   7.151   3.112   1.530 -0.5585 -0.9534 -0.6679
  866MOL0     C14229   7.278   3.060   1.561 -0.0946 -0.6382  0.0612
  866MOL0     N14230   7.973   2.719   1.639  0.3986  0.6653  0.1147
  866MOL0     N14231   8.084   2.778   1.625  0.0164 -0.9708 -0.3355
  866MOL0     C14232   8.985   2.866   2.119  0.4247 -0.5355 -0.5070
  866MOL0     C14233   9.080   2.879   2.219  0.2877 -0.1510 -0.8003
  866MOL0     C14234   9.427   2.888   2.487  0.1511 -0.1201  0.0412
  866MOL0     C14235   9.444   2.828   2.611 -0.0685 -0.1841 -0.4903
  866MOL0     C14236   9.536   2.866   2.712 -0.0862  0.3407 -0.1947
  866MOL0     C14237   9.602   2.990   2.690  0.1452  0.2744  0.5753
  866MOL0     O14238   9.677   3.032   2.790 -0.6276  0.1582  0.3931
  866MOL0     C14239   9.763   3.141   2.765 -0.3497 -0.1901  0.0471
  866MOL0     C14240   9.851   3.189   2.883  0.5838 -0.0763 -0.2686
  866MOL0     C14241   9.774   3.218   3.019  0.4257  0.2168  0.4093
  866MOL0     C14242   9.854   3.204   3.141  0.6303  0.2772  0.5417
  866MOL0     C14243   9.961   3.301   3.149 -0.3194  0.0261  0.0483
  866MOL0     C14244  10.056   3.377   3.149  1.0108  0.3839  0.2218
  866MOL0     C14245   9.572   3.059   2.570  0.8515 -0.8306  0.6509
  866MOL0     C14246   9.495   3.007   2.465  0.4251 -0.3153 -0.7881
  866MOL0     H14247   9.350   2.825   2.030 -0.7653  0.6288 -0.6523
  866MOL0     H14248   9.192   2.761   1.863  2.2986 -1.5575 -0.0477
  866MOL0     H14249   8.928   2.619   1.807  3.3434 -0.9123 -4.1418
  866MOL0     H14250   9.017   2.739   1.737 -2.1935 -1.0516 -2.4973
  866MOL0     H14251   8.854   2.704   1.604 -0.5971 -0.2277  0.5994
  866MOL0     H14252   8.824   2.868   1.665 -2.0742  0.2610 -2.1092
  866MOL0     H14253   8.654   2.771   1.835  1.2406  1.0892  0.2236
  866MOL0     H14254   8.682   2.617   1.763 -0.7031  0.0214  1.7181
  866MOL0     H14255   8.562   2.879   1.633  2.3857  0.4705 -0.2367
  866MOL0     H14256   8.596   2.731   1.539 -0.1286  2.6758 -1.1193
  866MOL0     H14257   8.454   2.594   1.618 -2.1591  0.5370 -2.7540
  866MOL0     H14258   8.361   2.741   1.591 -0.9209 -0.0213  0.6450
  866MOL0     H14259   8.449   2.667   1.864  0.3707 -0.6893 -1.2095
  866MOL0     H14260   8.285   2.649   1.794  0.9871 -1.4397  0.7284
  866MOL0     H14261   8.309   2.839   1.940 -0.8803 -2.8852 -0.1372
  866MOL0     H14262   8.430   2.915   1.843  0.5137  0.2393 -2.5226
  866MOL0     H14263   8.286   2.943   1.664 -0.8239  0.8556 -1.0821
  866MOL0     H14264   8.219   3.013   1.803  0.7496 -2.1888  2.5660
  866MOL0     H14265   7.976   2.871   1.928 -0.2764 -1.3548  0.4222
  866MOL0     H14266   7.775   2.754   1.917 -0.2343 -0.1650 -0.2287
  866MOL0     H14267   7.783   2.598   1.831 -1.1467 -0.6464 -1.0864
  866MOL0     H14268   7.580   2.705   1.773  1.5956 -2.5041  0.4878
  866MOL0     H14269   7.681   2.701   1.632 -4.5988 -0.1421 -0.3328
  866MOL0     H14270   7.667   2.947   1.807 -1.1961 -1.0039  0.7747
  866MOL0     H14271   7.744   2.927   1.645 -0.4593  0.2299 -0.4957
  866MOL0     H14272   7.555   2.914   1.528 -0.4287  2.3580 -1.1524
  866MOL0     H14273   7.537   3.055   1.649 -1.6117 -0.9078  3.3819
  866MOL0     H14274   7.219   2.797   1.751  1.6297  0.0859 -0.9032
  866MOL0     H14275   6.969   2.885   1.702 -0.3694 -0.6334 -0.0725
  866MOL0     H14276   6.700   3.131   1.326  3.4611 -3.3451  0.9269
  866MOL0     H14277   6.477   3.110   1.243  0.9931 -0.4468  0.0864
  866MOL0     H14278   6.248   3.039   1.167  0.0427 -2.4724  0.4717
  866MOL0     H14279   6.258   3.166   1.290  0.5053 -0.7660  0.3931
  866MOL0     H14280   6.046   2.965   1.252  0.3845  0.1541 -3.2364
  866MOL0     H14281   6.013   3.128   1.198 -0.2031  1.2838  0.1603
  866MOL0     H14282   6.061   3.216   1.424  0.3895 -0.5677 -0.1562
  866MOL0     H14283   6.052   3.075   1.492  3.3418  2.4388  0.5807
  866MOL0     H14284   5.816   3.167   1.296 -2.1140 -0.7562  0.1803
  866MOL0     H14285   5.813   3.036   1.420  0.9796 -0.3837 -0.3835
  866MOL0     H14286   5.812   3.336   1.459  1.8603 -0.3974 -1.3872
  866MOL0     H14287   5.855   3.222   1.580 -0.4088 -0.6698  0.6293
  866MOL0     H14288   5.651   3.103   1.558  2.5429 -0.1822  1.8456
  866MOL0     H14289   5.600   3.200   1.420  1.0228 -0.9700  0.2046
  866MOL0     H14290   5.529   3.238   1.686  0.5906  0.4406 -2.0518
  866MOL0     H14291   5.670   3.334   1.689  1.0857  1.8048 -0.4122
  866MOL0     H14292   5.537   3.485   1.657 -1.4188 -2.2628  2.8597
  866MOL0     H14293   5.426   3.409   1.547  1.0976  0.3789 -0.2903
  866MOL0     H14294   6.354   2.875   1.579 -0.9059  1.4344 -0.0301
  866MOL0     H14295   6.615   2.867   1.641  0.3764 -1.8362 -0.8612
  866MOL0     H14296   7.129   3.186   1.453  2.6657 -1.2497 -2.0210
  866MOL0     H14297   7.367   3.103   1.515 -0.7947  1.4419  0.5845
  866MOL0     H14298   8.883   2.897   2.138  1.1634  1.7825  0.1459
  866MOL0     H14299   9.055   2.933   2.310  1.3883  0.1328 -0.6484
  866MOL0     H14300   9.392   2.743   2.653 -0.6300  0.6540  0.5741
  866MOL0     H14301   9.555   2.816   2.806  1.0227  1.0974  0.0052
  866MOL0     H14302   9.703   3.229   2.739  1.6770  1.2575  0.0386
  866MOL0     H14303   9.825   3.130   2.675 -1.1431 -0.0055 -0.5276
  866MOL0     H14304   9.924   3.114   2.914  0.2172  1.1972  4.4930
  866MOL0     H14305   9.912   3.268   2.837  1.3304  1.0019  2.4012
  866MOL0     H14306   9.695   3.143   3.028  0.9977 -0.5989 -0.9759
  866MOL0     H14307   9.720   3.312   3.002  1.4686  1.1599  2.0387
  866MOL0     H14308   9.781   3.230   3.218 -1.5730  2.0690 -1.9518
  866MOL0     H14309   9.879   3.099   3.157  0.1625 -0.3783 -2.3675
  866MOL0     H14310  10.139   3.445   3.149  1.1048  0.3121 -1.2356
  866MOL0     H14311   9.616   3.158   2.566 -1.0055 -0.0124 -1.6362
  866MOL0     H14312   9.485   3.062   2.372 -1.3354 -0.3388 -0.6558
  867MOL0     O14313   7.600   6.714   0.543 -0.0743 -0.1712 -0.1181
  867MOL0     C14314   7.564   6.595   0.558 -0.1634 -0.0062 -0.0953
  867MOL0     O14315   7.437   6.553   0.583  0.2839 -0.2525 -0.3856
  867MOL0     C14316   7.344   6.651   0.575  0.5889  0.6062 -1.0125
  867MOL0     C14317   7.317   6.737   0.684 -0.2700  0.1345  0.1054
  867MOL0     C14318   7.202   6.813   0.676  0.0778 -0.4777 -0.1399
  867MOL0     C14319   7.127   6.815   0.564 -0.4738 -0.5338  0.4903
  867MOL0     O14320   7.025   6.911   0.555  0.5308 -0.5273 -0.7303
  867MOL0     C14321   7.064   7.039   0.498  0.4964  0.5960  0.4027
  867MOL0     C14322   7.093   7.133   0.619 -0.9139  0.0232  0.1480
  867MOL0     C14323   6.962   7.180   0.686  0.0947 -0.2471  0.3086
  867MOL0     C14324   6.855   7.248   0.599  0.4153 -0.4564  0.0385
  867MOL0     C14325   6.732   7.281   0.682  0.5820 -1.3907  0.3885
  867MOL0     C14326   6.615   7.320   0.585 -1.0325 -0.5434  0.3131
  867MOL0     C14327   6.488   7.377   0.661 -0.1731  0.5660 -0.3777
  867MOL0     C14328   6.370   7.355   0.579  0.0841 -0.4562  0.1895
  867MOL0     N14329   6.246   7.399   0.636  0.1412 -0.5867  0.9599
  867MOL0     C14330   6.191   7.381   0.761 -0.0941  0.3214 -0.0953
  867MOL0     C14331   6.089   7.468   0.775  0.2726 -0.8406 -0.1564
  867MOL0     C14332   6.004   7.477   0.902  0.5781  0.1343 -0.8548
  867MOL0     C14333   5.847   7.486   0.866 -0.0139  0.0348  0.2502
  867MOL0     C14334   5.767   7.493   0.994 -0.7402 -0.0099  0.5822
  867MOL0     C14335   5.619   7.541   0.975  0.5422 -0.1874 -0.0437
  867MOL0     O14336   5.535   7.497   1.085  0.5544  0.1715  0.0066
  867MOL0     C14337   5.403   7.553   1.083 -0.2334  0.1934 -0.5044
  867MOL0     C14338   5.347   7.646   0.991 -0.1206 -0.1297  0.5781
  867MOL0     C14339   5.210   7.675   0.993 -0.4129 -0.0058 -0.3050
  867MOL0     C14340   5.122   7.615   1.082 -0.0908 -0.2953  0.1043
  867MOL0     C14341   4.973   7.657   1.091  1.1776  0.5101 -0.4813
  867MOL0     O14342   4.929   7.754   1.009  0.0531  0.7507  0.5407
  867MOL0     C14343   4.794   7.777   1.014  0.2147 -0.3968  0.4510
  867MOL0     C14344   4.728   7.784   0.897  0.3637 -0.3097  0.2116
  867MOL0     C14345   4.589   7.786   0.900  0.1642  0.3806 -0.5206
  867MOL0     C14346   4.510   7.793   1.014 -0.2978  0.9615 -0.5831
  867MOL0     O14347   4.378   7.775   1.016  0.1613 -0.3098  0.0064
  867MOL0     C14348   4.312   7.688   0.918 -0.2187  0.0639  0.8288
  867MOL0     C14349   4.193   7.621   0.983 -0.3967  0.8450 -0.2925
  867MOL0     C14350   4.070   7.698   0.939  0.3847 -0.2660 -0.7408
  867MOL0     C14351   3.944   7.657   1.019  0.2682 -0.8400 -0.5861
  867MOL0     C14352   3.814   7.701   0.942 -0.2936  0.0420  0.2197
  867MOL0     C14353   3.812   7.847   0.895 -0.1795  0.2958 -0.2953
  867MOL0     C14354   3.671   7.881   0.868  0.3914 -0.3303  0.6011
  867MOL0     C14355   3.653   8.009   0.787  0.0108  0.0990  1.0373
  867MOL0    Cl14356   3.747   8.151   0.850  0.0594  0.5913 -0.5128
  867MOL0     C14357   4.584   7.810   1.130 -0.4896 -0.0325 -1.1682
  867MOL0     C14358   4.726   7.801   1.132 -0.6772 -0.2553 -0.8922
  867MOL0     O14359   4.907   7.610   1.187 -0.2698 -0.3826 -0.1729
  867MOL0     C14360   5.173   7.508   1.161 -0.0629 -0.0553 -0.1701
  867MOL0     C14361   5.314   7.488   1.168  0.1527  0.3789  0.1114
  867MOL0     N14362   6.072   7.537   0.657 -0.1505  0.4830 -0.5783
  867MOL0     N14363   6.169   7.492   0.577 -0.4477 -0.2527  0.6812
  867MOL0     C14364   7.149   6.730   0.454 -0.4009 -0.0430  0.0726
  867MOL0     C14365   7.263   6.647   0.462  0.2279 -0.2633  0.6032
  867MOL0     C14366   7.668   6.490   0.538 -0.5014  0.3335  0.4626
  867MOL0     C14367   7.788   6.524   0.467 -0.2442  0.8609 -0.3178
  867MOL0     C14368   7.877   6.428   0.425  0.3455 -0.6910  0.7640
  867MOL0     C14369   7.852   6.293   0.453  0.4432 -0.1350  0.1405
  867MOL0     O14370   7.951   6.205   0.422  0.0916  0.0987  0.4368
  867MOL0     C14371   7.922   6.065   0.437 -0.6694  0.3844 -0.2946
  867MOL0     C14372   8.036   5.978   0.385 -0.4073  0.0489  0.3462
  867MOL0     C14373   8.176   6.034   0.434 -0.5126 -0.2718  0.1013
  867MOL0     C14374   8.293   5.934   0.442 -0.0523  0.3065 -0.7554
  867MOL0     C14375   8.413   6.004   0.453 -0.1770  0.1616 -0.2822
  867MOL0     C14376   8.524   6.045   0.439  0.2639  0.1578  0.7855
  867MOL0     C14377   7.734   6.261   0.519  0.5408 -0.1371  0.2739
  867MOL0     C14378   7.644   6.357   0.569 -0.9479  0.7056  0.5242
  867MOL0     H14379   7.375   6.722   0.775 -1.6413 -0.2247  0.9509
  867MOL0     H14380   7.157   6.868   0.758  0.1601 -0.2277 -0.2591
  867MOL0     H14381   6.989   7.077   0.428  0.7215  0.8162  0.2758
  867MOL0     H14382   7.160   7.036   0.444  0.7850  1.0705  0.8752
  867MOL0     H14383   7.137   7.227   0.587 -0.7707  1.2635  3.5743
  867MOL0     H14384   7.151   7.089   0.701 -1.6816  1.6565  1.6429
  867MOL0     H14385   6.990   7.249   0.766  1.0013 -1.0144  0.6824
  867MOL0     H14386   6.916   7.097   0.741  0.8876  0.4082  2.0490
  867MOL0     H14387   6.895   7.335   0.546  0.0756 -0.5610 -0.3892
  867MOL0     H14388   6.826   7.174   0.524 -2.7355  0.4318  0.2268
  867MOL0     H14389   6.756   7.365   0.748  0.4096  0.5634 -1.9069
  867MOL0     H14390   6.695   7.192   0.733  0.6221 -1.7205 -0.1550
  867MOL0     H14391   6.591   7.223   0.540  1.1861 -0.5836 -0.9353
  867MOL0     H14392   6.649   7.395   0.513  0.6630 -0.8132  0.7867
  867MOL0     H14393   6.484   7.318   0.753  1.8850  3.3782  1.7099
  867MOL0     H14394   6.494   7.484   0.683 -1.9860  0.4493  0.9375
  867MOL0     H14395   6.359   7.249   0.555  0.5788 -0.2546 -0.9988
  867MOL0     H14396   6.386   7.401   0.481  0.8604 -3.4897 -1.2208
  867MOL0     H14397   6.231   7.323   0.844 -0.2911  0.9058  0.4126
  867MOL0     H14398   6.040   7.557   0.968  0.5457 -1.4995  1.2486
  867MOL0     H14399   6.020   7.387   0.961 -2.5116  2.4805  4.2435
  867MOL0     H14400   5.824   7.404   0.797  0.3084  1.1929 -1.2993
  867MOL0     H14401   5.845   7.581   0.813  1.3930  1.7115  3.0001
  867MOL0     H14402   5.771   7.388   1.022  1.2123  0.3852  1.9575
  867MOL0     H14403   5.825   7.544   1.072  0.9676 -1.1579  0.1211
  867MOL0     H14404   5.574   7.500   0.883  1.3301  1.5856 -1.2685
  867MOL0     H14405   5.624   7.648   0.953 -1.8908  0.0950  0.4087
  867MOL0     H14406   5.413   7.683   0.913 -0.7307  1.0140  0.5845
  867MOL0     H14407   5.185   7.753   0.922 -0.7873 -1.3498 -1.6886
  867MOL0     H14408   4.784   7.763   0.806 -2.4618 -0.4623 -1.6281
  867MOL0     H14409   4.548   7.775   0.800  0.7171 -2.4960 -0.5216
  867MOL0     H14410   4.383   7.608   0.892 -1.0389 -0.1959 -0.7144
  867MOL0     H14411   4.288   7.724   0.817 -0.9385  2.1175  1.6818
  867MOL0     H14412   4.206   7.608   1.091 -2.0276 -3.4712 -0.4105
  867MOL0     H14413   4.178   7.516   0.955 -1.8276  0.9808 -0.1252
  867MOL0     H14414   4.056   7.676   0.832  4.2971 -1.9867 -1.0624
  867MOL0     H14415   4.080   7.806   0.952 -0.8328 -0.3873  1.7450
  867MOL0     H14416   3.948   7.550   1.042  0.3497 -0.6978  0.0914
  867MOL0     H14417   3.940   7.714   1.112 -0.0140  1.9147 -2.1841
  867MOL0     H14418   3.731   7.665   1.004 -0.9029 -3.1729 -2.1538
  867MOL0     H14419   3.799   7.641   0.852  1.2500  0.7194 -0.5406
  867MOL0     H14420   3.872   7.859   0.804  0.6679 -3.3857 -0.3987
  867MOL0     H14421   3.848   7.912   0.975 -0.0866 -0.8053  0.5873
  867MOL0     H14422   3.621   7.808   0.804 -0.0592 -0.9921  1.7027
  867MOL0     H14423   3.614   7.880   0.960  1.4021  0.9345  1.2785
  867MOL0     H14424   3.548   8.037   0.785 -0.1542 -0.2474  2.9377
  867MOL0     H14425   3.694   7.991   0.687  1.2573  0.1583  1.5224
  867MOL0     H14426   4.531   7.821   1.224  2.0712  0.0078  0.3635
  867MOL0     H14427   4.785   7.808   1.223  2.5273 -0.6062 -2.7808
  867MOL0     H14428   5.115   7.453   1.235 -0.0400 -1.0417 -0.8765
  867MOL0     H14429   5.348   7.408   1.233 -1.1059 -1.0900 -0.9858
  867MOL0     H14430   7.083   6.738   0.369 -0.0808 -0.2067 -0.1956
  867MOL0     H14431   7.262   6.564   0.392  1.0014  1.0821 -1.0872
  867MOL0     H14432   7.798   6.627   0.437 -2.5395  1.2830  0.1841
  867MOL0     H14433   7.969   6.462   0.377  0.4877 -0.3383  1.2769
  867MOL0     H14434   7.826   6.043   0.390 -2.4586 -0.4077  3.3627
  867MOL0     H14435   7.919   6.057   0.546 -1.8266  2.8732 -0.0814
  867MOL0     H14436   8.032   5.873   0.413  0.4627 -0.2547 -0.6000
  867MOL0     H14437   8.023   5.972   0.276  2.6436  0.9934 -0.1888
  867MOL0     H14438   8.157   6.085   0.529 -1.3397  0.5377 -0.4764
  867MOL0     H14439   8.197   6.116   0.364 -0.0742 -1.6286 -1.4242
  867MOL0     H14440   8.281   5.877   0.534 -0.3633 -1.0349 -1.6019
  867MOL0     H14441   8.289   5.870   0.353 -0.8143  1.0825 -1.3104
  867MOL0     H14442   8.627   6.073   0.424  0.8281 -1.9737  0.3263
  867MOL0     H14443   7.726   6.156   0.542  1.4693 -0.7980 -2.1557
  867MOL0     H14444   7.551   6.328   0.616 -1.6057 -1.3156 -1.8095
  868MOL0     O14445   7.304   4.913   4.467 -0.4616 -0.2304  0.8681
  868MOL0     C14446   7.206   4.874   4.398 -0.3079  0.0806 -0.0209
  868MOL0     O14447   7.226   4.827   4.267 -0.1410 -0.8864  0.2488
  868MOL0     C14448   7.351   4.826   4.210 -0.5707 -0.1459 -0.2125
  868MOL0     C14449   7.465   4.778   4.274 -0.4738 -0.6604  0.4387
  868MOL0     C14450   7.591   4.768   4.205 -0.2848  0.0271 -0.8512
  868MOL0     C14451   7.592   4.810   4.071  0.0177  0.0175  0.2308
  868MOL0     O14452   7.706   4.813   3.998  0.2170  0.6672  0.3205
  868MOL0     C14453   7.706   4.704   3.905  0.6262 -0.3944  0.8776
  868MOL0     C14454   7.845   4.697   3.839  0.5278  0.1395 -0.1499
  868MOL0     C14455   7.947   4.628   3.929 -0.2552 -1.5778  0.4998
  868MOL0     C14456   8.080   4.668   3.875 -0.3152  0.0454  0.3464
  868MOL0     C14457   8.202   4.579   3.924 -0.4828 -0.9028 -0.2142
  868MOL0     C14458   8.202   4.437   3.860  0.3671  0.6225 -0.7143
  868MOL0     C14459   8.309   4.343   3.922 -0.2611 -0.6367 -0.1785
  868MOL0     C14460   8.455   4.385   3.905  0.6880  0.6161 -0.1588
  868MOL0     N14461   8.497   4.404   3.767  0.0342  0.5910 -0.1548
  868MOL0     C14462   8.514   4.292   3.689 -1.3783 -0.2356 -0.3291
  868MOL0     C14463   8.550   4.346   3.569  0.3733 -0.1016 -0.7871
  868MOL0     C14464   8.579   4.271   3.443  0.0644 -0.8181  1.0045
  868MOL0     C14465   8.441   4.256   3.368 -0.6777  0.1416 -1.1739
  868MOL0     C14466   8.465   4.175   3.237  0.0456 -0.0014 -1.0535
  868MOL0     C14467   8.324   4.142   3.186  0.6433 -0.2401  0.1004
  868MOL0     O14468   8.332   4.051   3.074  0.4484  0.7187  0.3761
  868MOL0     C14469   8.227   4.041   2.980  0.1817  0.8712 -0.0702
  868MOL0     C14470   8.243   4.006   2.846  0.4862 -0.1983 -0.5494
  868MOL0     C14471   8.132   3.992   2.765  0.7275 -0.3139  0.1418
  868MOL0     C14472   7.999   4.021   2.813  0.3481  0.7648  0.0713
  868MOL0     C14473   7.881   4.003   2.722 -0.2088  0.6202 -0.3802
  868MOL0     O14474   7.764   4.006   2.791  0.0476 -0.5187 -0.0284
  868MOL0     C14475   7.650   3.983   2.724 -0.7592  0.1105 -0.2260
  868MOL0     C14476   7.615   3.853   2.700  0.1827  0.0147 -1.3936
  868MOL0     C14477   7.491   3.817   2.638 -0.2380 -0.4165  0.3652
  868MOL0     C14478   7.408   3.919   2.593 -0.5917 -0.8091  0.0416
  868MOL0     O14479   7.296   3.873   2.533  0.1824 -0.8944 -0.1298
  868MOL0     C14480   7.175   3.957   2.563 -0.2892 -0.2491  0.7932
  868MOL0     C14481   7.104   3.995   2.441 -0.3672  0.1337  1.2630
  868MOL0     C14482   6.947   3.992   2.457  0.1572 -0.4000 -0.0040
  868MOL0     C14483   6.883   3.865   2.523  0.4869  1.1794  0.0147
  868MOL0     C14484   6.732   3.854   2.500  0.3728 -0.8144  0.4146
  868MOL0     C14485   6.636   3.959   2.555 -0.8154  0.9120 -0.3007
  868MOL0     C14486   6.489   3.916   2.557 -0.4202 -0.1928 -0.0323
  868MOL0     C14487   6.379   4.020   2.584 -0.9661  0.7011  0.3811
  868MOL0    Cl14488   6.223   3.955   2.625 -0.1502  0.0061 -0.1824
  868MOL0     C14489   7.448   4.057   2.613  0.1782 -0.2360  0.6685
  868MOL0     C14490   7.571   4.080   2.673 -0.1487 -0.3047  1.4421
  868MOL0     O14491   7.898   3.971   2.608  0.1960 -0.3550  0.4134
  868MOL0     C14492   7.986   4.044   2.950  0.3112 -0.1431  0.5194
  868MOL0     C14493   8.097   4.059   3.026  0.2362 -0.5762 -0.6136
  868MOL0     N14494   8.553   4.485   3.581  0.4757  0.6733 -0.2207
  868MOL0     N14495   8.510   4.515   3.695 -0.1063 -0.5411 -0.3963
  868MOL0     C14496   7.471   4.863   4.014  0.2613  0.0019 -0.0743
  868MOL0     C14497   7.350   4.870   4.082  0.7418 -0.1553 -0.1752
  868MOL0     C14498   7.072   4.877   4.457 -0.3639 -0.1596  0.0377
  868MOL0     C14499   7.049   4.932   4.581  0.1493  0.8459 -0.9843
  868MOL0     C14500   6.918   4.928   4.636  0.8387  1.0953 -0.6866
  868MOL0     C14501   6.804   4.870   4.565  0.0243 -0.7585 -0.7070
  868MOL0     O14502   6.677   4.858   4.626  0.0566  0.0020  0.7724
  868MOL0     C14503   6.623   4.730   4.632 -0.5590 -0.8120  0.0840
  868MOL0     C14504   6.506   4.714   4.724  0.4959 -1.0187 -0.1389
  868MOL0     C14505   6.383   4.788   4.664 -0.3127 -0.5911  1.2187
  868MOL0     C14506   6.263   4.791   4.751 -0.3802  0.7477 -0.2220
  868MOL0     C14507   6.205   4.665   4.775 -0.0984  0.1866 -0.3514
  868MOL0     C14508   6.161   4.551   4.775  0.2398  1.1689 -1.1282
  868MOL0     C14509   6.832   4.836   4.433  0.5793  0.2688  0.1104
  868MOL0     C14510   6.963   4.829   4.382 -0.4728  0.3276 -0.6501
  868MOL0     H14511   7.462   4.741   4.376 -1.3503 -1.6266  0.0802
  868MOL0     H14512   7.671   4.712   4.250 -0.4386  1.0817  0.8297
  868MOL0     H14513   7.634   4.720   3.825  2.4053  0.3271 -0.6494
  868MOL0     H14514   7.681   4.612   3.959 -1.0870 -1.3573 -1.3922
  868MOL0     H14515   7.878   4.799   3.816 -2.2487  0.7612 -1.7640
  868MOL0     H14516   7.838   4.644   3.744  3.2313  2.5051 -1.8687
  868MOL0     H14517   7.937   4.523   3.900 -1.4625 -1.3456  0.0167
  868MOL0     H14518   7.945   4.664   4.032  2.8161  3.2481 -0.7469
  868MOL0     H14519   8.089   4.648   3.768  0.7422 -0.8711  0.5841
  868MOL0     H14520   8.089   4.774   3.901 -0.8058  0.5871 -1.5175
  868MOL0     H14521   8.187   4.570   4.032 -0.4387  1.3338  0.0275
  868MOL0     H14522   8.298   4.623   3.896 -1.4880  0.3472 -1.9191
  868MOL0     H14523   8.204   4.438   3.750 -1.3400 -2.1586 -0.8692
  868MOL0     H14524   8.107   4.384   3.870  1.6678 -1.5814  1.0931
  868MOL0     H14525   8.295   4.321   4.029 -1.0719 -1.4054 -0.4365
  868MOL0     H14526   8.313   4.244   3.876  3.6224 -0.1873 -1.1492
  868MOL0     H14527   8.517   4.310   3.954 -0.9786 -0.4329  0.4167
  868MOL0     H14528   8.477   4.477   3.961 -0.7412  0.3057  0.9689
  868MOL0     H14529   8.513   4.186   3.714  0.2532 -0.4371 -0.9942
  868MOL0     H14530   8.618   4.169   3.454  0.8467 -0.5178  1.1291
  868MOL0     H14531   8.653   4.322   3.380  0.1319 -1.2368  0.7438
  868MOL0     H14532   8.398   4.352   3.339  1.2707  1.4263  0.0160
  868MOL0     H14533   8.378   4.209   3.445  0.0587  0.8577 -0.1040
  868MOL0     H14534   8.507   4.228   3.152 -0.7703 -1.3598 -2.3429
  868MOL0     H14535   8.510   4.077   3.258 -0.5753  0.0669  0.7960
  868MOL0     H14536   8.279   4.237   3.154  1.9349  1.4662  2.9868
  868MOL0     H14537   8.267   4.082   3.257  0.2774 -1.8151 -1.4631
  868MOL0     H14538   8.341   3.987   2.803  0.7757 -1.0016  0.4230
  868MOL0     H14539   8.145   3.971   2.659 -2.0864 -3.5566  0.2859
  868MOL0     H14540   7.680   3.776   2.740 -0.4870  1.2738  2.5895
  868MOL0     H14541   7.465   3.712   2.624 -2.9290  0.2238  0.1374
  868MOL0     H14542   7.195   4.043   2.628  3.2461  0.1940 -0.6353
  868MOL0     H14543   7.107   3.886   2.612  2.3557 -1.7976  2.4715
  868MOL0     H14544   7.139   3.933   2.358 -2.1289  0.3110  0.3334
  868MOL0     H14545   7.126   4.100   2.418  1.3180 -0.2876  0.7976
  868MOL0     H14546   6.899   4.001   2.359 -1.6940 -2.9614  0.5713
  868MOL0     H14547   6.914   4.079   2.514 -0.1132  1.4706 -2.8316
  868MOL0     H14548   6.923   3.777   2.472 -3.0679 -1.1713  0.9401
  868MOL0     H14549   6.888   3.859   2.632 -2.0490 -1.0595  0.0931
  868MOL0     H14550   6.708   3.751   2.531 -0.4973 -0.3316  1.3980
  868MOL0     H14551   6.722   3.853   2.391  0.0516 -2.4049  0.4256
  868MOL0     H14552   6.646   4.041   2.483  1.5148  0.5717 -0.4335
  868MOL0     H14553   6.669   3.993   2.654  0.5628  0.4978 -0.5915
  868MOL0     H14554   6.458   3.865   2.465 -3.0203 -0.6993  1.0347
  868MOL0     H14555   6.494   3.846   2.641  3.7875  1.0467  1.0024
  868MOL0     H14556   6.359   4.087   2.501  3.6859  4.0506  1.5596
  868MOL0     H14557   6.408   4.088   2.664  0.7312  0.8044 -0.2902
  868MOL0     H14558   7.382   4.142   2.595 -2.5829 -2.1491  1.0675
  868MOL0     H14559   7.607   4.182   2.678  1.2237 -0.4954 -2.0562
  868MOL0     H14560   7.882   4.049   2.983 -0.9726  0.9642 -3.1797
  868MOL0     H14561   8.086   4.074   3.133  1.4393  0.0815 -0.5677
  868MOL0     H14562   7.482   4.906   3.915 -1.0003  0.7396  0.0798
  868MOL0     H14563   7.254   4.901   4.044  2.5612  4.0082 -1.9465
  868MOL0     H14564   7.128   4.980   4.637  0.3698 -0.2543 -0.3210
  868MOL0     H14565   6.901   4.986   4.727  0.3103 -0.6319  0.3513
  868MOL0     H14566   6.707   4.665   4.660  0.8654  0.9230  0.0149
  868MOL0     H14567   6.589   4.696   4.534 -1.7402 -0.7235  0.4558
  868MOL0     H14568   6.490   4.606   4.734 -2.9110 -0.5088  0.9944
  868MOL0     H14569   6.537   4.757   4.820  0.1589 -0.4078 -0.2990
  868MOL0     H14570   6.360   4.748   4.564  0.2596 -2.1074  1.6604
  868MOL0     H14571   6.417   4.890   4.645 -1.1549 -0.7922 -2.0977
  868MOL0     H14572   6.301   4.850   4.835  0.1997  3.7615 -2.4388
  868MOL0     H14573   6.194   4.867   4.711 -0.2287  0.5769 -0.8166
  868MOL0     H14574   6.134   4.448   4.771 -2.3435  1.7794 -1.1517
  868MOL0     H14575   6.754   4.791   4.373  1.0419 -0.8865  0.3383
  868MOL0     H14576   6.983   4.795   4.281  0.3757  0.5754 -0.5710
  869MOL0     O14577   5.771   0.091   8.978 -0.9169 -0.1069  0.2004
  869MOL0     C14578   5.845   0.029   8.913  0.0779  0.5270  0.8611
  869MOL0     O14579   5.810  -0.073   8.816  0.4078  0.3884  0.4462
  869MOL0     C14580   5.691  -0.084   8.748  0.4568  1.3246 -0.4521
  869MOL0     C14581   5.561  -0.051   8.797 -0.2515  0.6535  0.9587
  869MOL0     C14582   5.462  -0.044   8.706 -0.0804  0.8284  0.6521
  869MOL0     C14583   5.464  -0.089   8.573 -0.1687  0.0113  0.0525
  869MOL0     O14584   5.354  -0.085   8.504  0.8324 -0.0359 -0.0247
  869MOL0     C14585   5.369  -0.087   8.363 -0.0363  0.4869 -0.5859
  869MOL0     C14586   5.245  -0.026   8.296  0.3890  0.3500 -0.6798
  869MOL0     C14587   5.205   0.117   8.323 -0.2237  0.1306  0.0236
  869MOL0     C14588   5.320   0.203   8.280 -0.2841 -0.4427  0.2289
  869MOL0     C14589   5.264   0.351   8.284 -0.0186 -0.1957 -0.8811
  869MOL0     C14590   5.173   0.383   8.168  0.7214  0.4746 -0.2349
  869MOL0     C14591   5.128   0.527   8.169  0.2961 -0.7556  0.4134
  869MOL0     C14592   5.224   0.601   8.070 -0.2273  0.1298  1.0414
  869MOL0     N14593   5.203   0.559   7.934  0.2496 -0.4033 -0.2814
  869MOL0     C14594   5.085   0.515   7.874  0.2081 -0.7906 -0.5004
  869MOL0     C14595   5.122   0.445   7.766  0.8129  0.5200 -0.4449
  869MOL0     C14596   5.043   0.404   7.652 -0.6573 -0.3220 -0.1752
  869MOL0     C14597   5.002   0.528   7.577 -0.0451 -0.4983  0.5165
  869MOL0     C14598   4.928   0.484   7.453 -0.3781  0.7303 -0.7148
  869MOL0     C14599   4.809   0.390   7.469  0.3925 -0.0783  0.2987
  869MOL0     O14600   4.705   0.467   7.535  0.1799 -0.4664  0.4161
  869MOL0     C14601   4.578   0.405   7.539 -0.4822 -0.2120 -0.0736
  869MOL0     C14602   4.529   0.307   7.445 -0.2511 -0.5599 -0.5210
  869MOL0     C14603   4.393   0.256   7.463 -0.2420  0.0871 -1.1552
  869MOL0     C14604   4.316   0.284   7.579  0.1567 -0.8234  0.1907
  869MOL0     C14605   4.182   0.224   7.596 -1.1450  0.0377  0.0161
  869MOL0     O14606   4.131   0.159   7.486 -0.1387 -0.2798 -0.1648
  869MOL0     C14607   4.015   0.083   7.482  0.1299 -0.3901 -0.6190
  869MOL0     C14608   3.948   0.035   7.599 -0.4465  0.3317  0.1644
  869MOL0     C14609   3.825  -0.033   7.596 -0.6506  0.1965 -0.0739
  869MOL0     C14610   3.772  -0.078   7.475  0.4858  0.2248  0.6904
  869MOL0     O14611   3.668  -0.164   7.478 -0.0369  0.7570 -0.2023
  869MOL0     C14612   3.613  -0.224   7.360 -0.0300  0.0464 -0.3424
  869MOL0     C14613   3.466  -0.244   7.370 -0.2631 -0.1067  0.5045
  869MOL0     C14614   3.406  -0.325   7.248 -0.4588 -0.3108 -0.3237
  869MOL0     C14615   3.252  -0.332   7.263 -0.1701  0.5318 -0.1564
  869MOL0     C14616   3.175  -0.414   7.148  0.1777 -0.0529  0.5725
  869MOL0     C14617   3.185  -0.359   6.993  0.7848 -0.7181 -0.9071
  869MOL0     C14618   3.075  -0.403   6.903 -0.2874 -0.0233 -0.2755
  869MOL0     C14619   3.116  -0.542   6.842  0.1614  0.0438 -1.1646
  869MOL0    Cl14620   3.278  -0.539   6.760 -0.0174 -0.1135 -0.1424
  869MOL0     C14621   3.829  -0.023   7.349  0.6293  0.4945  0.3515
  869MOL0     C14622   3.954   0.052   7.359 -0.7085 -0.4066 -0.7451
  869MOL0     O14623   4.118   0.256   7.692  0.9543 -0.3375 -0.4306
  869MOL0     C14624   4.363   0.387   7.666  0.0856  1.1765 -0.4290
  869MOL0     C14625   4.495   0.437   7.649  0.0651  0.0273  0.2800
  869MOL0     N14626   5.264   0.440   7.764  0.2264  0.3277 -0.0553
  869MOL0     N14627   5.308   0.505   7.861  0.0080 -0.6296 -0.4750
  869MOL0     C14628   5.590  -0.140   8.540  0.2886  0.5427  0.9006
  869MOL0     C14629   5.701  -0.139   8.619 -0.1829  0.1496  0.2586
  869MOL0     C14630   5.988   0.058   8.935 -0.6368  0.9655 -0.3854
  869MOL0     C14631   6.091  -0.038   8.911  0.2239  0.0115  0.8984
  869MOL0     C14632   6.231  -0.018   8.943 -0.0063  0.2554  0.4331
  869MOL0     C14633   6.268   0.082   9.025 -0.5589  0.0543  0.3685
  869MOL0     O14634   6.404   0.078   9.061  0.5032 -0.5643 -0.9155
  869MOL0     C14635   6.455   0.199   9.115  0.6209 -0.2135  0.0215
  869MOL0     C14636   6.607   0.204   9.139  0.4691  0.9274 -0.1309
  869MOL0     C14637   6.691   0.207   9.008  0.2019  0.2669 -0.2604
  869MOL0     C14638   6.838   0.204   9.044  0.0271  0.3203  0.5363
  869MOL0     C14639   6.890   0.089   9.116  1.2958 -0.3964  0.4422
  869MOL0     C14640   6.931   0.017   9.204 -0.1875  0.8859  0.5500
  869MOL0     C14641   6.173   0.185   9.056  0.0290  0.0716  0.3686
  869MOL0     C14642   6.037   0.170   9.010  0.0378  0.6930  0.4175
  869MOL0     H14643   5.551  -0.022   8.901  1.8840 -1.5572  1.8898
  869MOL0     H14644   5.366  -0.013   8.746 -0.0205  0.9388  0.7123
  869MOL0     H14645   5.392  -0.190   8.333  3.6216  0.8887  0.3476
  869MOL0     H14646   5.459  -0.034   8.333  0.6919 -1.6929 -2.6157
  869MOL0     H14647   5.159  -0.083   8.331  0.5174 -0.8269 -2.2023
  869MOL0     H14648   5.259  -0.047   8.190  2.1451 -2.4968 -0.0001
  869MOL0     H14649   5.177   0.142   8.426  1.9191 -0.6076  0.8234
  869MOL0     H14650   5.123   0.139   8.254  2.4215  0.9824 -3.0534
  869MOL0     H14651   5.401   0.180   8.350 -1.8133 -2.0027  1.5637
  869MOL0     H14652   5.363   0.178   8.183 -2.3436 -3.7623  0.0351
  869MOL0     H14653   5.347   0.422   8.274 -1.6729  1.7058 -1.7517
  869MOL0     H14654   5.204   0.361   8.375  0.6697  2.3651 -0.6318
  869MOL0     H14655   5.078   0.330   8.162  0.4013  1.1872 -1.6778
  869MOL0     H14656   5.229   0.345   8.082  1.8494 -2.9281  1.7642
  869MOL0     H14657   5.026   0.544   8.133  0.2438  0.5422  1.1287
  869MOL0     H14658   5.135   0.565   8.271  0.6062 -0.0136  0.1195
  869MOL0     H14659   5.328   0.584   8.098 -0.0129 -1.2918 -0.5065
  869MOL0     H14660   5.204   0.708   8.072 -2.6256 -0.1480 -1.9119
  869MOL0     H14661   4.980   0.522   7.900  0.1588 -1.5484 -0.4701
  869MOL0     H14662   4.955   0.352   7.690  0.7639 -1.1615  2.1532
  869MOL0     H14663   5.100   0.331   7.595  1.2316  1.9827 -1.4331
  869MOL0     H14664   5.093   0.586   7.554 -1.5422  0.9587 -2.3641
  869MOL0     H14665   4.927   0.578   7.638  0.2710  1.8420 -0.8803
  869MOL0     H14666   4.884   0.570   7.402 -0.8931  0.2219 -1.1401
  869MOL0     H14667   5.007   0.440   7.391  0.6772 -1.8638  2.1831
  869MOL0     H14668   4.839   0.296   7.517  1.1901 -0.9880 -1.8710
  869MOL0     H14669   4.780   0.354   7.370 -2.9408  0.5585  0.9151
  869MOL0     H14670   4.583   0.258   7.364  2.0276  0.3794  0.3515
  869MOL0     H14671   4.362   0.174   7.399 -1.9210 -0.1938 -0.0463
  869MOL0     H14672   3.988   0.059   7.697 -0.8808 -0.9701  0.6994
  869MOL0     H14673   3.773  -0.067   7.686 -1.2227 -0.7303 -0.7329
  869MOL0     H14674   3.662  -0.319   7.335  1.2173  0.3569  0.8056
  869MOL0     H14675   3.631  -0.156   7.276 -0.3586  0.9223  0.2794
  869MOL0     H14676   3.404  -0.156   7.390  0.3990  1.2328 -2.7959
  869MOL0     H14677   3.448  -0.313   7.453 -0.6749 -2.3342 -1.3354
  869MOL0     H14678   3.449  -0.425   7.250 -1.4377 -0.8049 -2.0739
  869MOL0     H14679   3.427  -0.272   7.155 -0.3085  3.6783  1.7422
  869MOL0     H14680   3.229  -0.379   7.360  0.9037 -0.9993 -0.6036
  869MOL0     H14681   3.204  -0.234   7.271 -0.6966  0.4261 -1.7465
  869MOL0     H14682   3.068  -0.407   7.173  0.6638 -1.7451  3.5746
  869MOL0     H14683   3.209  -0.517   7.159  2.0442  0.4749  0.1127
  869MOL0     H14684   3.289  -0.372   6.960  1.0220  0.5116 -0.7023
  869MOL0     H14685   3.169  -0.251   7.000 -1.9318 -1.1352  3.1264
  869MOL0     H14686   2.977  -0.406   6.950  0.5877  0.6743  1.7361
  869MOL0     H14687   3.069  -0.333   6.820  1.6125  1.6997  0.9342
  869MOL0     H14688   3.043  -0.577   6.769 -1.5443  1.8154 -0.3960
  869MOL0     H14689   3.119  -0.614   6.924 -2.4550 -0.5594 -1.5236
  869MOL0     H14690   3.799  -0.037   7.246  0.4813 -1.7175  0.6408
  869MOL0     H14691   3.995   0.118   7.283  0.7099  2.9787  2.6673
  869MOL0     H14692   4.304   0.411   7.754  1.0261  1.9483  0.0076
  869MOL0     H14693   4.539   0.502   7.724  3.4633 -2.3154  0.5473
  869MOL0     H14694   5.599  -0.187   8.442  2.1529  1.5346  0.5693
  869MOL0     H14695   5.790  -0.175   8.568 -1.2042  0.0509 -1.5366
  869MOL0     H14696   6.068  -0.126   8.852 -3.0794  0.6303  1.1012
  869MOL0     H14697   6.305  -0.093   8.918 -0.6838 -0.1845 -0.3363
  869MOL0     H14698   6.411   0.230   9.210  2.1334  0.7684  0.4362
  869MOL0     H14699   6.452   0.280   9.042 -0.1456  0.2995  0.6091
  869MOL0     H14700   6.634   0.286   9.206 -0.3890 -0.0463  1.4692
  869MOL0     H14701   6.636   0.110   9.188  0.0153 -1.4278 -3.9213
  869MOL0     H14702   6.672   0.298   8.952  3.5313 -0.1646 -2.3983
  869MOL0     H14703   6.665   0.118   8.951 -1.5149  0.2690  0.4768
  869MOL0     H14704   6.892   0.192   8.949 -1.7000  2.1663 -0.7652
  869MOL0     H14705   6.878   0.296   9.089 -0.5136  0.7698  0.1105
  869MOL0     H14706   6.946  -0.054   9.283 -1.5363 -1.0550 -0.8661
  869MOL0     H14707   6.196   0.271   9.119  0.8550  0.8254 -0.9071
  869MOL0     H14708   5.958   0.237   9.041  0.2413  1.6249 -1.0124
  870MOL0     O14709   0.449   3.722   8.760 -0.0557  0.5636 -0.8497
  870MOL0     C14710   0.486   3.631   8.827  0.2370  0.4814 -0.1312
  870MOL0     O14711   0.431   3.506   8.827  0.4916  0.2816 -0.0331
  870MOL0     C14712   0.313   3.473   8.755  0.5556 -1.1198  0.3434
  870MOL0     C14713   0.191   3.518   8.805  0.2734 -1.1126 -0.0791
  870MOL0     C14714   0.070   3.470   8.753 -0.6466  0.0922  0.5659
  870MOL0     C14715   0.068   3.384   8.644 -0.5738  1.3653  0.2057
  870MOL0     O14716  -0.040   3.321   8.592  0.7909 -0.5887  0.7597
  870MOL0     C14717  -0.166   3.368   8.630 -0.0867 -0.8263  0.6290
  870MOL0     C14718  -0.271   3.290   8.554  0.2749  0.2057 -0.5639
  870MOL0     C14719  -0.396   3.361   8.536 -0.1052  0.4502 -0.1594
  870MOL0     C14720  -0.510   3.260   8.539 -0.2415  0.0804 -0.4192
  870MOL0     C14721  -0.638   3.327   8.514 -0.4326 -0.6519 -0.0832
  870MOL0     C14722  -0.662   3.365   8.367 -0.7376 -0.1542  0.2353
  870MOL0     C14723  -0.783   3.455   8.353  0.1929 -0.0510  0.2031
  870MOL0     C14724  -0.829   3.471   8.207  0.4878 -0.2243  0.5105
  870MOL0     N14725  -0.897   3.347   8.163 -0.3379 -0.8873 -0.1345
  870MOL0     C14726  -1.019   3.298   8.204  0.3488 -1.0072  0.1604
  870MOL0     C14727  -1.028   3.178   8.139 -0.0454  0.3933  0.4815
  870MOL0     C14728  -1.153   3.101   8.138 -0.4869  0.4000 -0.5020
  870MOL0     C14729  -1.231   3.135   8.013 -0.3664  0.1448 -0.2760
  870MOL0     C14730  -1.353   3.034   8.004 -0.8582  0.8126  0.2452
  870MOL0     C14731  -1.422   3.027   7.874 -0.1969 -0.1279  0.2534
  870MOL0     O14732  -1.563   3.006   7.899  0.1565  0.2578 -0.8584
  870MOL0     C14733  -1.651   3.055   7.799 -0.3117 -0.3497 -0.4932
  870MOL0     C14734  -1.781   3.076   7.837 -1.0056 -0.2838 -0.0835
  870MOL0     C14735  -1.883   3.110   7.745 -0.3234  0.5854 -0.3623
  870MOL0     C14736  -1.848   3.126   7.613  0.1493  0.1521  0.8754
  870MOL0     C14737  -1.950   3.183   7.522 -0.0986  0.5686  0.2618
  870MOL0     O14738  -2.069   3.227   7.581  0.4116  0.1735  0.3801
  870MOL0     C14739  -2.138   3.330   7.516 -0.3744 -0.3672 -0.1355
  870MOL0     C14740  -2.072   3.437   7.458 -0.1118  0.0364 -0.2313
  870MOL0     C14741  -2.145   3.549   7.410  0.1043  0.6574 -0.1607
  870MOL0     C14742  -2.283   3.551   7.420 -0.1068  0.8693 -0.4425
  870MOL0     O14743  -2.374   3.638   7.359  0.1864  0.6065 -0.1820
  870MOL0     C14744  -2.338   3.766   7.322 -0.0337  0.2658 -0.5474
  870MOL0     C14745  -2.324   3.785   7.171 -0.1005  0.4309  0.4610
  870MOL0     C14746  -2.224   3.684   7.107  0.3358  0.2279  0.3213
  870MOL0     C14747  -2.198   3.698   6.955 -1.1789  0.0224 -0.0101
  870MOL0     C14748  -2.218   3.564   6.878 -0.0061  0.0904  0.4080
  870MOL0     C14749  -2.112   3.456   6.923  0.3100 -0.9144  0.9733
  870MOL0     C14750  -1.974   3.488   6.879 -0.2610  0.5173 -0.0093
  870MOL0     C14751  -1.880   3.371   6.896 -0.0108 -0.0876  0.4463
  870MOL0    Cl14752  -1.723   3.413   6.832  0.4317 -0.1409  0.0593
  870MOL0     C14753  -2.349   3.439   7.475  0.3109 -0.4633  1.0944
  870MOL0     C14754  -2.276   3.336   7.524  0.0211 -0.1020  0.0882
  870MOL0     O14755  -1.921   3.189   7.405  0.3904  0.4673 -0.0725
  870MOL0     C14756  -1.719   3.106   7.565  0.7092  0.4431  0.3060
  870MOL0     C14757  -1.627   3.062   7.660  0.0862  0.1067 -0.4308
  870MOL0     N14758  -0.918   3.170   8.051 -1.0092 -0.0558 -0.8179
  870MOL0     N14759  -0.839   3.266   8.073 -0.2874 -0.0432  0.2868
  870MOL0     C14760   0.192   3.333   8.596 -0.3212  0.4952  0.0528
  870MOL0     C14761   0.320   3.377   8.655 -0.8007 -0.0728  0.3736
  870MOL0     C14762   0.606   3.641   8.905 -0.0920 -0.3199  0.3142
  870MOL0     C14763   0.672   3.542   8.970 -0.5197  0.7752 -0.3097
  870MOL0     C14764   0.792   3.548   9.050  0.3096  0.0031 -0.2000
  870MOL0     C14765   0.839   3.678   9.078  0.1437  0.2860  0.1491
  870MOL0     O14766   0.951   3.707   9.145 -0.6699  0.1240  0.1001
  870MOL0     C14767   1.068   3.620   9.166  0.3885  1.1426  0.5781
  870MOL0     C14768   1.195   3.689   9.180 -0.0815  1.1056  0.3880
  870MOL0     C14769   1.315   3.602   9.217 -0.5827 -0.2956  0.3553
  870MOL0     C14770   1.444   3.680   9.262 -0.0173 -0.1970 -0.0202
  870MOL0     C14771   1.429   3.764   9.378  0.2999 -0.6885 -0.6383
  870MOL0     C14772   1.399   3.809   9.487  0.2188  0.0386  0.9573
  870MOL0     C14773   0.769   3.787   9.037 -0.1244 -0.5072 -0.4310
  870MOL0     C14774   0.660   3.770   8.946  0.0902 -0.5879  0.8864
  870MOL0     H14775   0.183   3.591   8.885  0.8091 -1.9136  0.7316
  870MOL0     H14776  -0.024   3.495   8.802 -0.9206  2.0130 -0.8672
  870MOL0     H14777  -0.183   3.467   8.589  1.6080 -1.0714 -0.8097
  870MOL0     H14778  -0.178   3.365   8.739 -1.1005  1.1873  0.6120
  870MOL0     H14779  -0.288   3.196   8.606 -3.2556 -0.1523 -2.1271
  870MOL0     H14780  -0.224   3.273   8.457  1.0047  0.0077 -0.1869
  870MOL0     H14781  -0.392   3.391   8.431 -1.7088 -1.4291 -0.8320
  870MOL0     H14782  -0.414   3.437   8.613  2.1646  1.3823 -0.4677
  870MOL0     H14783  -0.493   3.176   8.470  1.9472  0.8544 -0.9263
  870MOL0     H14784  -0.511   3.217   8.639 -3.2450 -1.5503 -1.0413
  870MOL0     H14785  -0.649   3.423   8.567  1.9798  1.0466 -2.4208
  870MOL0     H14786  -0.719   3.255   8.531  1.4953 -3.7684 -2.8972
  870MOL0     H14787  -0.670   3.273   8.309 -1.9312  0.4722 -0.6334
  870MOL0     H14788  -0.581   3.425   8.325  1.4630 -0.0350  4.1135
  870MOL0     H14789  -0.872   3.412   8.400 -1.4358 -1.5965 -3.7769
  870MOL0     H14790  -0.743   3.543   8.405 -0.0316 -0.3523  0.8949
  870MOL0     H14791  -0.748   3.483   8.135  1.1686  0.7357  1.4212
  870MOL0     H14792  -0.899   3.555   8.193  1.0310  0.1087 -0.2650
  870MOL0     H14793  -1.088   3.347   8.272 -0.2714 -1.0885 -0.3994
  870MOL0     H14794  -1.204   3.132   8.230  1.1719  0.6128  0.3922
  870MOL0     H14795  -1.128   2.995   8.142  2.1421  0.8739 -2.0904
  870MOL0     H14796  -1.160   3.131   7.930 -1.4140  2.5290 -1.3979
  870MOL0     H14797  -1.266   3.238   8.021  0.0094  0.2034  0.7441
  870MOL0     H14798  -1.324   2.933   8.035  0.3672  1.0023 -0.2583
  870MOL0     H14799  -1.421   3.058   8.087 -1.7543  0.3112 -0.3264
  870MOL0     H14800  -1.388   2.944   7.810 -1.1075 -1.1080  1.0154
  870MOL0     H14801  -1.415   3.122   7.820  2.1151 -0.4131 -0.0483
  870MOL0     H14802  -1.809   3.060   7.941  0.0949 -2.3757 -0.0705
  870MOL0     H14803  -1.983   3.125   7.784 -0.8914  0.9351 -1.8919
  870MOL0     H14804  -1.964   3.441   7.449 -0.2502  2.3566 -1.5162
  870MOL0     H14805  -2.101   3.636   7.362  0.6365 -0.6481 -2.1870
  870MOL0     H14806  -2.246   3.803   7.369  0.4733 -0.4253 -0.9793
  870MOL0     H14807  -2.415   3.840   7.346 -1.6451 -0.7319 -2.4018
  870MOL0     H14808  -2.279   3.884   7.159  2.6651 -0.5601  1.8857
  870MOL0     H14809  -2.426   3.771   7.133  0.2388  1.9173 -1.0708
  870MOL0     H14810  -2.249   3.584   7.143  0.1613  0.8976  2.1665
  870MOL0     H14811  -2.122   3.687   7.147  0.6455 -0.6705 -0.3780
  870MOL0     H14812  -2.262   3.772   6.906 -0.0940  1.5568  0.7974
  870MOL0     H14813  -2.100   3.738   6.927 -0.9637 -2.0090 -2.5994
  870MOL0     H14814  -2.196   3.585   6.773  2.8137 -0.7573  0.7423
  870MOL0     H14815  -2.320   3.528   6.897 -0.4873  0.8065 -0.7025
  870MOL0     H14816  -2.141   3.358   6.883 -1.5250  0.0639 -0.2374
  870MOL0     H14817  -2.122   3.433   7.030 -1.2367 -0.1712  1.0211
  870MOL0     H14818  -1.969   3.512   6.772  2.9665 -0.5116 -0.1956
  870MOL0     H14819  -1.942   3.575   6.936 -0.8887  0.1051  1.0028
  870MOL0     H14820  -1.915   3.283   6.841  0.8896  0.3586 -0.8936
  870MOL0     H14821  -1.864   3.346   7.001 -1.0026  0.6656  0.8070
  870MOL0     H14822  -2.457   3.442   7.469  0.3876  0.1053 -3.3451
  870MOL0     H14823  -2.328   3.263   7.585  1.2182 -2.0226 -1.0667
  870MOL0     H14824  -1.684   3.118   7.463 -0.2670 -3.5039 -0.6754
  870MOL0     H14825  -1.526   3.037   7.628  0.3790 -0.5571  0.9540
  870MOL0     H14826   0.207   3.264   8.514  1.7152 -1.1799  1.6963
  870MOL0     H14827   0.412   3.325   8.632 -1.3872 -1.0878  0.2439
  870MOL0     H14828   0.629   3.443   8.961 -2.0926  0.7568  4.4662
  870MOL0     H14829   0.830   3.472   9.118  0.0628  2.3983  2.8303
  870MOL0     H14830   1.077   3.545   9.087 -1.4596  1.2138  0.2595
  870MOL0     H14831   1.046   3.575   9.263 -3.5378 -0.4183 -0.8130
  870MOL0     H14832   1.217   3.735   9.084  3.0992  0.5398  0.7255
  870MOL0     H14833   1.166   3.765   9.253 -1.1799  1.4536 -0.3988
  870MOL0     H14834   1.323   3.534   9.132 -3.9158 -0.2839 -0.0991
  870MOL0     H14835   1.283   3.541   9.302 -0.3632  0.7404  1.2050
  870MOL0     H14836   1.522   3.612   9.297  1.7488  2.8431  2.5007
  870MOL0     H14837   1.482   3.743   9.182 -2.2896  1.3569  0.0535
  870MOL0     H14838   1.393   3.856   9.583  1.4975 -1.0275  1.5870
  870MOL0     H14839   0.806   3.886   9.063 -2.8388  0.9071 -1.5682
  870MOL0     H14840   0.612   3.862   8.914 -1.0777 -1.3904  0.2193
  871MOL0     O14841   2.406   2.949   3.827 -0.1869  1.0599 -0.8757
  871MOL0     C14842   2.443   2.840   3.864  0.1252 -0.0374  0.5457
  871MOL0     O14843   2.398   2.775   3.976  0.4925 -0.0676  0.4693
  871MOL0     C14844   2.303   2.847   4.050 -0.7082 -0.4541  0.0409
  871MOL0     C14845   2.313   2.875   4.182 -0.2253 -0.7611 -0.0409
  871MOL0     C14846   2.221   2.960   4.252 -0.2738  0.7009  0.2174
  871MOL0     C14847   2.101   3.003   4.184  0.0681  0.6625 -0.0150
  871MOL0     O14848   2.025   3.081   4.262 -0.8439 -0.0980 -0.5538
  871MOL0     C14849   1.927   3.163   4.197  0.4062  0.5494 -0.2672
  871MOL0     C14850   1.843   3.237   4.291 -0.5691 -1.2458 -0.2037
  871MOL0     C14851   1.720   3.325   4.233 -0.5357  0.3539 -0.2904
  871MOL0     C14852   1.636   3.385   4.345 -0.0179 -0.1463  0.0012
  871MOL0     C14853   1.529   3.464   4.278 -1.3534  0.1985 -0.5513
  871MOL0     C14854   1.466   3.575   4.356  0.1529  0.2044 -1.3994
  871MOL0     C14855   1.433   3.543   4.506 -0.1120  0.3347  0.5580
  871MOL0     C14856   1.340   3.431   4.545  0.2799 -0.0196 -0.3630
  871MOL0     N14857   1.216   3.437   4.471  0.6730  0.1084  0.2942
  871MOL0     C14858   1.103   3.511   4.511  0.0523  0.5146  0.4729
  871MOL0     C14859   1.011   3.507   4.404 -0.4614 -0.6085 -0.0885
  871MOL0     C14860   0.872   3.573   4.396 -0.3614 -0.5516  0.9250
  871MOL0     C14861   0.787   3.516   4.285  0.0616  0.7541  0.1522
  871MOL0     C14862   0.671   3.613   4.249 -0.5943 -0.7742 -0.2287
  871MOL0     C14863   0.543   3.561   4.189  0.1459 -0.4200  0.5426
  871MOL0     O14864   0.461   3.498   4.290  0.3599  1.0057  0.2292
  871MOL0     C14865   0.355   3.428   4.238  0.1695  0.3462  1.0180
  871MOL0     C14866   0.376   3.309   4.164 -0.6377  0.2224 -0.6137
  871MOL0     C14867   0.284   3.251   4.086  0.2202 -0.4950  0.9734
  871MOL0     C14868   0.153   3.305   4.088  0.7457 -0.6036 -0.0144
  871MOL0     C14869   0.044   3.254   4.003  0.4208  0.1402  0.3631
  871MOL0     O14870  -0.071   3.236   4.069 -0.0321 -0.5875  0.4771
  871MOL0     C14871  -0.191   3.200   4.001 -0.3898  0.6218 -0.2223
  871MOL0     C14872  -0.213   3.074   3.945 -0.4835  0.1832  1.0501
  871MOL0     C14873  -0.337   3.041   3.895  0.0315  0.2225 -0.2668
  871MOL0     C14874  -0.448   3.134   3.907  0.3630  0.0063  0.3363
  871MOL0     O14875  -0.572   3.115   3.850 -0.1563  0.1365 -0.4714
  871MOL0     C14876  -0.628   2.976   3.847 -0.8446  0.9840  0.2413
  871MOL0     C14877  -0.763   2.983   3.776  0.0751 -0.4260 -0.6853
  871MOL0     C14878  -0.855   2.867   3.818  0.3609  0.0313 -0.0732
  871MOL0     C14879  -0.981   2.854   3.724 -0.0157 -1.1641 -0.1927
  871MOL0     C14880  -1.069   2.988   3.703  0.4539  0.0215  0.0357
  871MOL0     C14881  -1.178   2.958   3.597 -0.1092  0.7671 -0.4360
  871MOL0     C14882  -1.268   3.074   3.575 -0.6359 -0.2363  0.2806
  871MOL0     C14883  -1.230   3.155   3.445 -0.2323  0.2500 -0.2253
  871MOL0    Cl14884  -1.078   3.247   3.502  0.2328 -0.1740  0.0033
  871MOL0     C14885  -0.432   3.247   3.972  0.2100 -0.8678 -0.7398
  871MOL0     C14886  -0.305   3.286   4.023  0.1986 -0.6096 -0.6495
  871MOL0     O14887   0.066   3.225   3.885  0.3787  0.6917 -0.9316
  871MOL0     C14888   0.119   3.408   4.180 -0.1415  0.0028  0.3232
  871MOL0     C14889   0.227   3.481   4.239  0.1890  0.7503 -0.6794
  871MOL0     N14890   1.077   3.427   4.302  0.1272 -0.5323 -1.0975
  871MOL0     N14891   1.196   3.388   4.341 -0.9031 -0.3203 -0.3793
  871MOL0     C14892   2.084   2.961   4.052 -0.5898  0.3572 -0.6561
  871MOL0     C14893   2.181   2.881   3.992  1.0533 -0.5141  0.4198
  871MOL0     C14894   2.545   2.769   3.775  0.5777  0.3021  0.3227
  871MOL0     C14895   2.622   2.834   3.676 -0.1432 -0.0031  0.6964
  871MOL0     C14896   2.720   2.768   3.615  0.3314  0.4968  0.0558
  871MOL0     C14897   2.737   2.631   3.641  0.3833  0.0267  0.4337
  871MOL0     O14898   2.826   2.544   3.580  0.3643  1.1089  0.0411
  871MOL0     C14899   2.874   2.580   3.444  0.1949 -0.3384  0.1666
  871MOL0     C14900   2.944   2.464   3.383  0.0261 -1.0605 -1.0977
  871MOL0     C14901   3.068   2.414   3.463  0.1942 -0.9436  1.0991
  871MOL0     C14902   3.207   2.485   3.443  0.0808 -0.3384 -0.1847
  871MOL0     C14903   3.275   2.461   3.316 -1.1600  0.5329 -0.3919
  871MOL0     C14904   3.358   2.428   3.231  0.4664  0.4599 -0.4605
  871MOL0     C14905   2.672   2.562   3.746  0.0424 -0.0734 -0.5410
  871MOL0     C14906   2.573   2.637   3.815 -1.4015 -0.9537 -0.6739
  871MOL0     H14907   2.412   2.857   4.222 -0.0552 -1.2513 -0.6630
  871MOL0     H14908   2.243   2.995   4.352 -1.6389  1.5816  0.2320
  871MOL0     H14909   1.861   3.102   4.135  0.0863  1.2336 -0.6094
  871MOL0     H14910   1.969   3.227   4.119  2.6711 -1.7891 -1.0998
  871MOL0     H14911   1.905   3.303   4.352 -1.2962 -0.0691 -0.7103
  871MOL0     H14912   1.790   3.162   4.352 -2.0313  0.9760  1.4309
  871MOL0     H14913   1.657   3.258   4.173 -0.4997  0.4985 -0.4906
  871MOL0     H14914   1.754   3.401   4.163 -1.5233  0.1187 -1.0408
  871MOL0     H14915   1.598   3.306   4.411  1.5410 -0.2306  0.8354
  871MOL0     H14916   1.709   3.445   4.400  0.6285 -0.9084 -0.0033
  871MOL0     H14917   1.448   3.391   4.271 -0.7607 -0.4559 -0.7089
  871MOL0     H14918   1.555   3.494   4.176  0.2298  1.7006  0.2338
  871MOL0     H14919   1.364   3.605   4.329 -0.4950 -0.7121 -0.1069
  871MOL0     H14920   1.521   3.668   4.339 -2.0543  1.6335 -1.1786
  871MOL0     H14921   1.529   3.542   4.559  0.1402 -0.7251  0.1114
  871MOL0     H14922   1.382   3.635   4.536  1.8660  1.8634 -0.5603
  871MOL0     H14923   1.305   3.435   4.649 -1.2985 -3.5000 -0.6155
  871MOL0     H14924   1.393   3.336   4.531 -0.4446 -1.3201  4.0861
  871MOL0     H14925   1.086   3.564   4.605 -1.3019  0.0813  0.5011
  871MOL0     H14926   0.887   3.676   4.363 -1.8374 -0.7405 -0.4989
  871MOL0     H14927   0.815   3.566   4.489 -2.0601  0.0673 -0.0130
  871MOL0     H14928   0.744   3.416   4.298 -0.4194  0.7505 -1.3547
  871MOL0     H14929   0.840   3.495   4.192  0.5123 -0.7513  0.7166
  871MOL0     H14930   0.640   3.667   4.339 -2.5938  0.8210 -1.7545
  871MOL0     H14931   0.720   3.675   4.173 -1.7637  0.2659 -0.1742
  871MOL0     H14932   0.562   3.486   4.112 -1.6530  0.0134 -0.3890
  871MOL0     H14933   0.486   3.649   4.156 -2.1456 -1.5633  1.2497
  871MOL0     H14934   0.478   3.275   4.162  0.2658  2.5393  0.8580
  871MOL0     H14935   0.311   3.168   4.021 -0.0248 -0.9779  1.4755
  871MOL0     H14936  -0.125   3.011   3.941  0.3450  1.3128  0.7140
  871MOL0     H14937  -0.350   2.942   3.852 -1.9675 -0.1633  1.0788
  871MOL0     H14938  -0.643   2.936   3.947 -0.6386  3.4651  1.3236
  871MOL0     H14939  -0.553   2.916   3.794 -2.1874  0.4422 -1.1387
  871MOL0     H14940  -0.729   2.970   3.673  0.6946 -4.9081 -0.1151
  871MOL0     H14941  -0.804   3.084   3.788  1.5788  0.2735 -1.1295
  871MOL0     H14942  -0.889   2.890   3.919  4.6145 -2.3269  2.1304
  871MOL0     H14943  -0.801   2.772   3.820  2.2641  1.0664 -0.5678
  871MOL0     H14944  -0.951   2.819   3.624  0.0676 -3.6980  0.6460
  871MOL0     H14945  -1.056   2.779   3.749 -1.1662 -0.1911 -0.6271
  871MOL0     H14946  -1.008   3.072   3.668  0.0388  0.3567  0.1016
  871MOL0     H14947  -1.113   3.011   3.801 -0.3235 -1.6885  0.1184
  871MOL0     H14948  -1.232   2.871   3.637  2.3885 -1.8458 -2.3142
  871MOL0     H14949  -1.135   2.928   3.501 -0.9721 -0.3412 -0.4920
  871MOL0     H14950  -1.371   3.043   3.555 -0.6744 -1.3391  1.9974
  871MOL0     H14951  -1.270   3.141   3.661 -1.7119 -0.6085  0.5677
  871MOL0     H14952  -1.311   3.223   3.417 -1.2576 -1.0889 -0.6519
  871MOL0     H14953  -1.203   3.087   3.364 -0.1910  1.7661 -1.5328
  871MOL0     H14954  -0.505   3.326   3.989 -0.3897 -1.4865 -0.3911
  871MOL0     H14955  -0.302   3.362   4.100 -1.9285  1.3508 -2.3560
  871MOL0     H14956   0.019   3.450   4.186  0.0986  0.4078  1.8366
  871MOL0     H14957   0.206   3.570   4.298 -0.4829  2.5935 -3.4784
  871MOL0     H14958   1.990   2.984   4.002 -0.8278 -2.7470 -1.8416
  871MOL0     H14959   2.153   2.855   3.891 -2.5113  1.7702  0.6376
  871MOL0     H14960   2.592   2.933   3.642  0.8273  0.6371  1.6582
  871MOL0     H14961   2.778   2.822   3.540  1.0053  2.2176  1.7168
  871MOL0     H14962   2.934   2.671   3.445  0.5184 -0.5478 -0.0671
  871MOL0     H14963   2.778   2.592   3.393 -1.1515 -2.3896  2.0044
  871MOL0     H14964   2.865   2.391   3.363 -0.4798 -0.3836 -1.6873
  871MOL0     H14965   2.988   2.501   3.290 -0.0527  0.8629 -0.4344
  871MOL0     H14966   3.085   2.311   3.433  0.2815 -0.2074 -1.5872
  871MOL0     H14967   3.051   2.406   3.571  0.1696  0.2943  1.2013
  871MOL0     H14968   3.186   2.590   3.464 -1.2457 -0.4167 -0.9825
  871MOL0     H14969   3.267   2.460   3.531  0.0427  3.9837  1.2635
  871MOL0     H14970   3.419   2.395   3.150  1.8806  1.2711  0.2349
  871MOL0     H14971   2.685   2.458   3.771  1.0542 -0.1081 -1.1420
  871MOL0     H14972   2.517   2.590   3.895  0.6727 -0.9992  0.8465
  872MOL0     O14973   2.701   1.655   4.524  1.0817 -0.3355 -0.3124
  872MOL0     C14974   2.799   1.604   4.576  0.3477  0.0841 -0.8444
  872MOL0     O14975   2.797   1.480   4.631 -0.0081 -0.1857 -0.2333
  872MOL0     C14976   2.680   1.418   4.667 -0.0843  0.9442 -0.7523
  872MOL0     C14977   2.636   1.436   4.802 -1.5188  1.6610  0.1814
  872MOL0     C14978   2.529   1.366   4.854  0.7451 -0.0519  0.0311
  872MOL0     C14979   2.459   1.277   4.781  0.8321  0.7280 -0.3002
  872MOL0     O14980   2.352   1.206   4.821 -0.2579 -0.2469 -0.7136
  872MOL0     C14981   2.330   1.171   4.964 -0.1119  0.1436  0.0433
  872MOL0     C14982   2.203   1.087   4.980  0.4459  0.0734 -0.7344
  872MOL0     C14983   2.072   1.167   4.960 -0.7658 -0.6159 -0.2602
  872MOL0     C14984   1.944   1.085   4.966  0.2812 -0.0076 -0.3324
  872MOL0     C14985   1.827   1.178   4.996 -0.1555 -0.1404  0.0702
  872MOL0     C14986   1.705   1.101   5.034 -0.1399 -0.2246 -0.2075
  872MOL0     C14987   1.630   1.043   4.916  0.6685  0.3983 -0.0127
  872MOL0     C14988   1.487   0.989   4.928 -0.3743 -0.1743  0.5496
  872MOL0     N14989   1.389   1.096   4.945  0.3286  0.2399 -0.0284
  872MOL0     C14990   1.329   1.152   4.837  0.2576 -0.4054  0.6843
  872MOL0     C14991   1.244   1.240   4.892  0.3712  0.5507  0.2829
  872MOL0     C14992   1.175   1.349   4.817  0.2386  0.1374  0.6897
  872MOL0     C14993   1.044   1.398   4.872  0.4228  0.2762 -1.1597
  872MOL0     C14994   0.952   1.445   4.757  0.0446 -0.4991 -0.1912
  872MOL0     C14995   0.805   1.457   4.804  1.0690  0.3153  0.1209
  872MOL0     O14996   0.749   1.555   4.712 -0.2256  0.4026 -0.4353
  872MOL0     C14997   0.610   1.568   4.709  0.1079  0.0565 -0.1668
  872MOL0     C14998   0.559   1.678   4.637  0.3817  0.2402 -0.4113
  872MOL0     C14999   0.420   1.711   4.630 -0.3657  0.6738  0.4040
  872MOL0     C15000   0.329   1.626   4.698  0.3918 -0.1076 -0.9914
  872MOL0     C15001   0.182   1.655   4.708  0.2940  0.1511 -0.5069
  872MOL0     O15002   0.107   1.562   4.775  0.0576 -0.2187 -0.3002
  872MOL0     C15003  -0.028   1.567   4.784 -0.5035  0.1645 -0.6438
  872MOL0     C15004  -0.111   1.590   4.669  0.2388  0.3858 -0.8067
  872MOL0     C15005  -0.243   1.559   4.689  0.4087 -0.5259  0.2719
  872MOL0     C15006  -0.303   1.543   4.811 -0.4906  0.5969 -0.3630
  872MOL0     O15007  -0.438   1.524   4.814 -0.5297  0.3982  0.0433
  872MOL0     C15008  -0.489   1.439   4.908  0.7656  0.1157 -0.2803
  872MOL0     C15009  -0.638   1.461   4.923 -0.1171 -0.7320 -0.1856
  872MOL0     C15010  -0.710   1.409   4.797 -0.0368  0.2027  0.8557
  872MOL0     C15011  -0.860   1.420   4.809  0.0051  0.3622  1.0487
  872MOL0     C15012  -0.935   1.343   4.700  0.7159  0.7482 -0.7050
  872MOL0     C15013  -0.895   1.398   4.563 -0.2297  0.6175 -0.0447
  872MOL0     C15014  -0.993   1.354   4.458 -1.0239 -0.8036 -0.7109
  872MOL0     C15015  -0.968   1.419   4.320  0.0969 -0.7305 -0.1552
  872MOL0    Cl15016  -1.121   1.385   4.219 -0.9040  0.4678 -0.0793
  872MOL0     C15017  -0.218   1.533   4.921  0.2107 -0.7118  0.4897
  872MOL0     C15018  -0.076   1.549   4.912 -0.3014  0.4561  0.7355
  872MOL0     O15019   0.144   1.757   4.665 -0.6968 -1.0504  0.2169
  872MOL0     C15020   0.376   1.515   4.771  0.1329 -0.5963  0.1089
  872MOL0     C15021   0.511   1.482   4.769 -0.0986  0.0985 -0.0927
  872MOL0     N15022   1.242   1.229   5.031  0.2892  0.1431 -0.4474
  872MOL0     N15023   1.323   1.138   5.055 -0.6983  0.7093 -0.4831
  872MOL0     C15024   2.498   1.263   4.638  0.7098 -1.1926  0.0523
  872MOL0     C15025   2.606   1.331   4.583 -0.7394 -0.6372  0.4452
  872MOL0     C15026   2.925   1.685   4.589  0.5493 -0.6980 -0.5143
  872MOL0     C15027   3.030   1.629   4.665  0.9511 -0.4395 -0.2338
  872MOL0     C15028   3.152   1.695   4.689  0.5531 -0.2756 -0.1245
  872MOL0     C15029   3.174   1.825   4.636 -0.4240 -0.1766 -0.7411
  872MOL0     O15030   3.294   1.892   4.650  0.2732 -0.3166  0.1163
  872MOL0     C15031   3.419   1.820   4.634 -0.7920  0.0095 -0.0428
  872MOL0     C15032   3.508   1.919   4.563  0.2457 -0.2354 -0.8324
  872MOL0     C15033   3.521   2.061   4.626  0.6366 -0.2029 -1.0538
  872MOL0     C15034   3.553   2.165   4.520 -0.9570  0.3726 -0.4070
  872MOL0     C15035   3.542   2.301   4.563  0.0295 -0.5857  0.0568
  872MOL0     C15036   3.535   2.418   4.603 -0.1263  0.0112  0.2102
  872MOL0     C15037   3.068   1.884   4.572 -0.3092 -0.6708  0.2506
  872MOL0     C15038   2.946   1.817   4.545 -0.4917 -0.5800 -0.0367
  872MOL0     H15039   2.687   1.507   4.866  2.7294 -2.3854  1.7539
  872MOL0     H15040   2.510   1.384   4.960 -1.9052  0.1603 -0.3998
  872MOL0     H15041   2.312   1.256   5.031  0.4845  1.6159 -1.5810
  872MOL0     H15042   2.411   1.104   4.993 -0.7026 -1.4417 -1.7434
  872MOL0     H15043   2.212   1.052   5.084 -1.1150 -1.1974 -0.9817
  872MOL0     H15044   2.215   1.002   4.911  1.8432  0.8780 -1.5288
  872MOL0     H15045   2.092   1.219   4.867  3.7149  0.3157  1.0134
  872MOL0     H15046   2.068   1.244   5.038 -1.6899 -2.0148  1.1501
  872MOL0     H15047   1.925   1.034   4.871 -1.8960 -1.0135  0.5682
  872MOL0     H15048   1.947   1.009   5.044  0.1770 -0.2152 -0.5301
  872MOL0     H15049   1.812   1.262   4.927 -1.9469  2.1115  2.9819
  872MOL0     H15050   1.859   1.234   5.085 -1.6332  0.1065  0.4647
  872MOL0     H15051   1.633   1.162   5.089 -1.3076  0.1577 -2.0690
  872MOL0     H15052   1.730   1.020   5.103 -2.1545 -0.7343  0.0002
  872MOL0     H15053   1.635   1.123   4.841 -1.5016  0.1248 -0.5378
  872MOL0     H15054   1.682   0.958   4.871 -1.0832 -1.1505  0.7185
  872MOL0     H15055   1.474   0.932   5.020 -1.5338  1.8455  1.6923
  872MOL0     H15056   1.472   0.926   4.840  0.1599  0.7400 -0.2190
  872MOL0     H15057   1.349   1.139   4.731  0.6298  0.0447  0.6934
  872MOL0     H15058   1.152   1.312   4.717  2.1696  0.1036  0.2195
  872MOL0     H15059   1.242   1.434   4.803 -0.0314  0.3711  0.8049
  872MOL0     H15060   1.075   1.480   4.937 -0.3564 -0.7021  0.4940
  872MOL0     H15061   0.998   1.315   4.926 -0.3214  1.1213 -0.4500
  872MOL0     H15062   0.981   1.540   4.711 -0.0992  0.1363  1.0063
  872MOL0     H15063   0.957   1.374   4.674 -0.0468 -0.2469 -0.4160
  872MOL0     H15064   0.792   1.494   4.906 -2.6140  0.4245 -0.2445
  872MOL0     H15065   0.770   1.355   4.785  1.3993 -0.0874  1.5675
  872MOL0     H15066   0.631   1.736   4.581  1.3756 -1.9469 -1.5545
  872MOL0     H15067   0.397   1.794   4.565  0.1033 -1.6048 -2.9581
  872MOL0     H15068  -0.086   1.623   4.568 -1.9305  0.8073 -1.2563
  872MOL0     H15069  -0.299   1.561   4.596 -0.2508 -2.3549  0.5963
  872MOL0     H15070  -0.447   1.449   5.009  2.9597 -1.6179 -0.9205
  872MOL0     H15071  -0.463   1.335   4.887 -3.1546 -1.4374  1.6996
  872MOL0     H15072  -0.653   1.567   4.946  1.9039 -0.3165 -0.6428
  872MOL0     H15073  -0.684   1.411   5.009 -0.8937  2.0006  1.0899
  872MOL0     H15074  -0.679   1.305   4.780  0.8232  0.7920 -1.5997
  872MOL0     H15075  -0.671   1.476   4.720 -0.3322 -1.9364 -1.3055
  872MOL0     H15076  -0.894   1.380   4.905  1.1911 -1.3862  0.7825
  872MOL0     H15077  -0.891   1.525   4.812  0.6767  0.9915 -4.1446
  872MOL0     H15078  -1.038   1.369   4.728  1.5785  1.6219  1.9500
  872MOL0     H15079  -0.912   1.236   4.702 -0.4977  0.3928 -2.6213
  872MOL0     H15080  -0.795   1.363   4.536 -0.3202  1.1584 -1.1513
  872MOL0     H15081  -0.897   1.507   4.572 -2.9204  0.7050 -0.6461
  872MOL0     H15082  -0.999   1.246   4.469 -1.2243 -0.9258 -1.8759
  872MOL0     H15083  -1.094   1.382   4.489 -0.7290  1.2907 -1.4811
  872MOL0     H15084  -0.878   1.380   4.271  1.5745  2.6434 -0.3553
  872MOL0     H15085  -0.962   1.527   4.334  0.9639 -0.8952  0.9464
  872MOL0     H15086  -0.261   1.522   5.020 -2.7089  0.7587 -0.4672
  872MOL0     H15087  -0.027   1.548   5.009 -1.5262 -0.2074  1.3770
  872MOL0     H15088   0.310   1.451   4.830  0.6742 -1.2946 -0.0232
  872MOL0     H15089   0.548   1.391   4.815  3.8466  1.3402 -0.4312
  872MOL0     H15090   2.428   1.202   4.582 -1.7297 -1.9345  3.6268
  872MOL0     H15091   2.638   1.299   4.484 -0.4918  1.9384 -0.4007
  872MOL0     H15092   3.005   1.537   4.716  0.6012 -0.9488 -1.2924
  872MOL0     H15093   3.229   1.654   4.754 -0.8617 -0.0827  1.7712
  872MOL0     H15094   3.407   1.724   4.584 -0.3766 -1.5304  2.6588
  872MOL0     H15095   3.470   1.801   4.729  1.3586 -1.8675 -1.4586
  872MOL0     H15096   3.610   1.881   4.555  1.0935  1.8477 -0.5364
  872MOL0     H15097   3.462   1.931   4.465  0.4733 -1.0864 -1.0529
  872MOL0     H15098   3.604   2.058   4.698 -1.4107 -3.4109  1.4650
  872MOL0     H15099   3.438   2.090   4.691  0.0129  0.5168 -2.1492
  872MOL0     H15100   3.653   2.146   4.480 -0.8911 -1.1334  0.3706
  872MOL0     H15101   3.482   2.165   4.437 -1.4183  2.1343 -0.0501
  872MOL0     H15102   3.535   2.517   4.644  0.3659 -0.4058  1.2831
  872MOL0     H15103   3.083   1.984   4.531 -2.3973 -0.2999  0.2898
  872MOL0     H15104   2.866   1.872   4.496 -2.6822 -1.1787  2.6367
  873MOL0     O15105   1.310   1.434   6.245  0.0102  0.1875  0.7198
  873MOL0     C15106   1.317   1.328   6.305  0.0049 -0.1862 -0.3539
  873MOL0     O15107   1.219   1.233   6.311 -0.0911  0.2385  0.2850
  873MOL0     C15108   1.091   1.262   6.267 -0.4948 -0.5318 -0.3230
  873MOL0     C15109   1.013   1.152   6.234  0.7304 -0.1444 -0.3632
  873MOL0     C15110   0.879   1.171   6.190 -0.1835  0.2301 -0.5984
  873MOL0     C15111   0.816   1.299   6.186  0.2823  0.3221  0.5786
  873MOL0     O15112   0.687   1.323   6.137 -0.3460 -0.9581 -0.9052
  873MOL0     C15113   0.621   1.230   6.054 -0.0894  0.0274 -0.5152
  873MOL0     C15114   0.481   1.275   6.015 -0.1181 -0.3434  0.2155
  873MOL0     C15115   0.413   1.163   5.937 -0.0570  0.4568  0.0945
  873MOL0     C15116   0.282   1.217   5.881 -0.2264  0.7210 -0.2376
  873MOL0     C15117   0.178   1.101   5.855  0.1920 -0.7242 -0.9432
  873MOL0     C15118   0.046   1.161   5.812 -0.2730 -0.3859  0.9117
  873MOL0     C15119  -0.065   1.057   5.817  0.8498  0.4811  0.0096
  873MOL0     C15120  -0.203   1.119   5.794  0.7508 -0.6240  0.1188
  873MOL0     N15121  -0.321   1.032   5.816  0.4122 -0.4002  0.2427
  873MOL0     C15122  -0.432   1.023   5.737 -0.0354  0.5885 -0.2972
  873MOL0     C15123  -0.494   0.905   5.776  0.4934 -0.2134 -0.9121
  873MOL0     C15124  -0.629   0.847   5.733 -0.1921 -0.1748  0.4870
  873MOL0     C15125  -0.612   0.712   5.661 -0.5025 -0.0540 -0.2143
  873MOL0     C15126  -0.732   0.676   5.575  0.1471  0.3019 -0.4549
  873MOL0     C15127  -0.850   0.629   5.659  0.0639  0.5548  0.4226
  873MOL0     O15128  -0.955   0.577   5.576  0.6165 -0.6259 -0.3256
  873MOL0     C15129  -1.048   0.652   5.511  0.4034 -0.0120 -0.6915
  873MOL0     C15130  -1.079   0.796   5.529 -1.1678  0.6433  0.0024
  873MOL0     C15131  -1.200   0.860   5.483  0.7661  0.3416  0.2074
  873MOL0     C15132  -1.288   0.783   5.400 -0.3513  0.0612 -0.9840
  873MOL0     C15133  -1.409   0.837   5.343 -0.7433 -0.0859 -0.3485
  873MOL0     O15134  -1.427   0.968   5.340 -0.5391  0.9753  0.1454
  873MOL0     C15135  -1.547   1.020   5.296  0.6209  0.3303 -0.0692
  873MOL0     C15136  -1.620   1.083   5.388  0.8566 -0.7495 -0.2448
  873MOL0     C15137  -1.739   1.151   5.348  0.0124  0.7205  0.6240
  873MOL0     C15138  -1.788   1.141   5.215 -0.2242  0.0718  0.4306
  873MOL0     O15139  -1.906   1.210   5.181 -0.6725  0.4517 -0.3082
  873MOL0     C15140  -1.979   1.182   5.067  1.0990 -0.1676  0.3348
  873MOL0     C15141  -2.125   1.222   5.082  0.4498 -0.5066  0.5603
  873MOL0     C15142  -2.227   1.189   4.968  1.0329 -0.1145 -0.4103
  873MOL0     C15143  -2.358   1.274   4.989  0.4518  0.0725  0.2588
  873MOL0     C15144  -2.475   1.207   4.927  0.9988 -0.8764  0.5313
  873MOL0     C15145  -2.609   1.266   4.975  0.3039 -0.1955 -0.2491
  873MOL0     C15146  -2.725   1.189   4.918 -0.0617 -0.0475  0.3985
  873MOL0     C15147  -2.853   1.269   4.946 -0.0206  0.3519  0.0210
  873MOL0    Cl15148  -3.001   1.180   4.886 -0.1986  0.0812 -0.2797
  873MOL0     C15149  -1.713   1.069   5.125  0.8587  0.2393 -0.3687
  873MOL0     C15150  -1.597   1.006   5.165  0.3413 -0.1746  0.0153
  873MOL0     O15151  -1.498   0.753   5.316 -0.0275 -1.1240  0.0173
  873MOL0     C15152  -1.259   0.641   5.389  0.3032  0.4541  0.2820
  873MOL0     C15153  -1.138   0.577   5.431  0.8576  0.5883 -0.0309
  873MOL0     N15154  -0.426   0.857   5.878  0.3144 -0.1822  0.5843
  873MOL0     N15155  -0.323   0.926   5.898  0.9951  0.8418 -0.3029
  873MOL0     C15156   0.895   1.411   6.224  0.1132  1.0026  0.1217
  873MOL0     C15157   1.027   1.395   6.251  0.8913 -0.1210  0.4899
  873MOL0     C15158   1.442   1.302   6.372  0.1391  0.5922  0.0156
  873MOL0     C15159   1.478   1.165   6.391 -0.9032 -0.6389  0.1095
  873MOL0     C15160   1.593   1.125   6.445  1.5023  0.7075 -0.0011
  873MOL0     C15161   1.674   1.217   6.511 -0.0483 -0.5166  0.1388
  873MOL0     O15162   1.790   1.193   6.584  0.5846  0.1973 -0.1822
  873MOL0     C15163   1.805   1.059   6.645  0.0256  0.2723 -0.0996
  873MOL0     C15164   1.893   1.054   6.769 -0.3188 -0.4224  0.2967
  873MOL0     C15165   2.038   1.075   6.738  0.4445  0.2217 -0.2140
  873MOL0     C15166   2.131   1.039   6.851 -0.2623 -0.0989  0.2244
  873MOL0     C15167   2.130   0.893   6.861 -0.1439  0.1068 -0.4307
  873MOL0     C15168   2.125   0.774   6.867  0.4129  0.0510 -0.1054
  873MOL0     C15169   1.634   1.353   6.491  0.0741 -0.4849  0.5600
  873MOL0     C15170   1.520   1.400   6.425  0.1293  0.5128  0.5123
  873MOL0     H15171   1.054   1.051   6.231  1.0956 -0.0508  0.7787
  873MOL0     H15172   0.826   1.081   6.162 -1.0642  0.9333 -1.2458
  873MOL0     H15173   0.612   1.145   6.123  0.5733  0.9136  0.7160
  873MOL0     H15174   0.677   1.197   5.966  1.8260 -2.1538  1.3615
  873MOL0     H15175   0.496   1.365   5.954  0.1043  0.0356  0.8183
  873MOL0     H15176   0.418   1.302   6.101 -1.2721 -1.4790 -0.2489
  873MOL0     H15177   0.390   1.086   6.012 -0.1541  0.5104  0.1178
  873MOL0     H15178   0.490   1.127   5.867  0.9481 -1.2815  1.9694
  873MOL0     H15179   0.234   1.283   5.955 -0.3229 -0.6113  0.9256
  873MOL0     H15180   0.302   1.276   5.791 -1.2221 -0.8207 -1.5277
  873MOL0     H15181   0.154   1.047   5.947  2.0762 -1.0835 -0.6319
  873MOL0     H15182   0.214   1.024   5.787  2.9313 -1.4363  1.1594
  873MOL0     H15183   0.042   1.200   5.710  1.8743 -1.9636  0.1463
  873MOL0     H15184   0.031   1.250   5.874 -1.5345 -0.5686  0.8979
  873MOL0     H15185  -0.057   0.977   5.743 -1.3970 -0.8030  1.0221
  873MOL0     H15186  -0.067   1.008   5.914 -1.9497 -1.2030 -0.7698
  873MOL0     H15187  -0.211   1.165   5.695 -1.2032 -0.3596  0.3590
  873MOL0     H15188  -0.216   1.207   5.858  0.0157  0.7461 -1.8182
  873MOL0     H15189  -0.462   1.096   5.663  0.9264  0.5215 -0.7630
  873MOL0     H15190  -0.673   0.922   5.667  0.9940 -0.7372 -0.9853
  873MOL0     H15191  -0.699   0.853   5.818  0.4108  1.8329  0.9180
  873MOL0     H15192  -0.613   0.633   5.738 -1.2093  0.4272  0.2839
  873MOL0     H15193  -0.521   0.708   5.602  1.5645  1.3899  2.6613
  873MOL0     H15194  -0.763   0.760   5.512 -1.9042 -0.5403 -0.6424
  873MOL0     H15195  -0.705   0.590   5.513  0.6931  0.1226  0.0199
  873MOL0     H15196  -0.886   0.716   5.715 -1.9030 -0.4044  0.7358
  873MOL0     H15197  -0.821   0.550   5.730 -0.0503 -0.0910 -0.2365
  873MOL0     H15198  -1.010   0.864   5.580 -0.2439  0.0845 -0.4755
  873MOL0     H15199  -1.221   0.966   5.489 -0.5640  0.0230  2.3704
  873MOL0     H15200  -1.608   1.090   5.496  0.9601  0.1907 -0.3068
  873MOL0     H15201  -1.793   1.212   5.419  1.2019  1.3919  0.9769
  873MOL0     H15202  -1.983   1.073   5.052  1.8289 -0.6274  2.9338
  873MOL0     H15203  -1.926   1.219   4.979  3.0114 -2.2842  0.4946
  873MOL0     H15204  -2.121   1.331   5.089 -1.8207 -0.4071  1.5267
  873MOL0     H15205  -2.159   1.167   5.171  0.8616 -1.5297  0.1019
  873MOL0     H15206  -2.247   1.082   4.975 -2.0296  0.4576  1.4877
  873MOL0     H15207  -2.193   1.206   4.866 -0.9118 -0.4763 -1.1502
  873MOL0     H15208  -2.380   1.291   5.095  1.7523  1.8258  0.2956
  873MOL0     H15209  -2.338   1.374   4.948 -1.2208  0.9837  1.5302
  873MOL0     H15210  -2.471   1.098   4.938  0.3651 -1.2697 -2.4340
  873MOL0     H15211  -2.474   1.227   4.820  1.2593 -0.2003  0.6504
  873MOL0     H15212  -2.619   1.374   4.960  0.5007 -0.3224 -1.3272
  873MOL0     H15213  -2.596   1.254   5.083  0.8954 -0.4238 -0.3411
  873MOL0     H15214  -2.707   1.173   4.811  4.2439  0.5492  0.8909
  873MOL0     H15215  -2.730   1.090   4.963 -0.5941 -0.3881 -0.3849
  873MOL0     H15216  -2.844   1.372   4.909  1.5573 -0.3576 -1.7142
  873MOL0     H15217  -2.865   1.269   5.055  0.3861 -0.1834  0.0683
  873MOL0     H15218  -1.742   1.054   5.022  0.7015  0.3419 -0.3387
  873MOL0     H15219  -1.548   0.934   5.100 -0.4839 -1.8527  1.1768
  873MOL0     H15220  -1.334   0.581   5.339  0.4042 -0.1576  0.8455
  873MOL0     H15221  -1.116   0.472   5.415  3.8960  1.1038  0.1127
  873MOL0     H15222   0.859   1.513   6.228 -0.7314  0.6917  0.8240
  873MOL0     H15223   1.090   1.480   6.276 -1.0887  1.0109  1.8804
  873MOL0     H15224   1.422   1.084   6.345 -1.4945  0.0280 -0.3745
  873MOL0     H15225   1.607   1.018   6.452 -0.4339  0.2473 -2.1069
  873MOL0     H15226   1.830   0.976   6.578  5.2783  0.3047  1.4335
  873MOL0     H15227   1.705   1.035   6.683 -0.5016  2.9212  0.3726
  873MOL0     H15228   1.855   1.122   6.846  0.6716 -0.3911  0.7731
  873MOL0     H15229   1.875   0.957   6.816 -0.3044 -1.7028 -2.1770
  873MOL0     H15230   2.046   1.181   6.715 -1.7480  0.8973  1.8148
  873MOL0     H15231   2.068   1.025   6.645 -0.2080  1.7608 -1.2830
  873MOL0     H15232   2.231   1.078   6.828  0.0066 -1.7563 -1.6198
  873MOL0     H15233   2.101   1.080   6.948  0.7428 -2.0876  1.4369
  873MOL0     H15234   2.115   0.669   6.881 -0.9181  0.1947  0.1388
  873MOL0     H15235   1.696   1.424   6.546 -0.6806  0.0940  0.6754
  873MOL0     H15236   1.500   1.505   6.405 -2.5021  0.1004  0.6663
  874MOL0     O15237   8.380  11.152   0.845 -0.3828 -0.4552 -0.8267
  874MOL0     C15238   8.473  11.211   0.903  0.0476 -0.0536  0.4906
  874MOL0     O15239   8.474  11.338   0.942  0.7206  0.2118  0.4993
  874MOL0     C15240   8.351  11.408   0.932  0.1319  0.3586 -0.0253
  874MOL0     C15241   8.286  11.462   1.042  0.1777 -0.5796  0.2700
  874MOL0     C15242   8.155  11.504   1.038  0.0139 -0.4385  0.3809
  874MOL0     C15243   8.087  11.509   0.920 -0.1242 -0.1664 -0.0497
  874MOL0     O15244   7.961  11.550   0.916  0.1523 -0.2005  0.9554
  874MOL0     C15245   7.940  11.673   0.840 -0.5246  0.2837  0.3477
  874MOL0     C15246   7.858  11.771   0.920  0.2324  0.1974 -0.3118
  874MOL0     C15247   7.709  11.753   0.894  0.8146 -0.5334  0.5015
  874MOL0     C15248   7.629  11.870   0.955 -0.1099 -0.2952 -0.3676
  874MOL0     C15249   7.481  11.863   0.949 -0.6073  0.3757 -0.4508
  874MOL0     C15250   7.419  11.988   0.999  0.1063  0.3657 -0.4176
  874MOL0     C15251   7.272  11.978   1.028  0.1757  0.4863 -0.0514
  874MOL0     C15252   7.212  12.118   1.037 -0.0745  0.6504  0.9326
  874MOL0     N15253   7.064  12.122   1.066 -0.8271  0.1526 -0.0778
  874MOL0     C15254   6.982  12.227   1.022 -0.4459  0.2259 -0.5703
  874MOL0     C15255   6.860  12.197   1.071 -0.3606  1.5586 -0.2397
  874MOL0     C15256   6.742  12.272   1.033 -0.0153 -0.3845  0.1978
  874MOL0     C15257   6.611  12.233   1.097 -0.4340  0.6954 -1.0830
  874MOL0     C15258   6.492  12.328   1.064 -0.0477 -0.0570  0.3615
  874MOL0     C15259   6.355  12.292   1.132 -0.4195  0.9365 -0.6968
  874MOL0     O15260   6.256  12.368   1.067 -0.7406  0.3170 -0.2275
  874MOL0     C15261   6.123  12.345   1.087  0.0098  0.2665  1.4520
  874MOL0     C15262   6.039  12.439   1.007 -0.8209  0.2919 -0.8109
  874MOL0     C15263   5.899  12.420   1.011 -0.2619 -0.3443 -0.8904
  874MOL0     C15264   5.838  12.318   1.079  0.0296  0.2548 -0.5540
  874MOL0     C15265   5.694  12.295   1.071  0.3558 -0.3181 -0.0031
  874MOL0     O15266   5.644  12.221   1.173  0.2539 -0.6973  0.1868
  874MOL0     C15267   5.507  12.204   1.201  0.5909  0.0768  0.8898
  874MOL0     C15268   5.394  12.279   1.160  0.5499  0.4942  0.6297
  874MOL0     C15269   5.265  12.232   1.186 -0.5254 -0.0811  0.3899
  874MOL0     C15270   5.238  12.114   1.258 -0.2895 -0.0647  0.3684
  874MOL0     O15271   5.111  12.076   1.292  0.7459 -0.1853  0.2371
  874MOL0     C15272   5.096  11.990   1.402  0.7084  0.9482  0.1807
  874MOL0     C15273   4.937  11.975   1.438 -0.5667 -0.2719 -0.4332
  874MOL0     C15274   4.881  12.111   1.459 -0.1197 -0.5864 -0.1610
  874MOL0     C15275   4.745  12.105   1.532  0.2494  0.5688  0.0335
  874MOL0     C15276   4.660  12.230   1.507 -0.2456  0.0484  0.1401
  874MOL0     C15277   4.716  12.346   1.591 -0.1241 -0.4267 -0.2633
  874MOL0     C15278   4.660  12.485   1.541 -0.1483  0.6364  0.1104
  874MOL0     C15279   4.550  12.526   1.639  0.9887  0.2937 -0.4299
  874MOL0    Cl15280   4.623  12.556   1.801 -0.3103 -0.2115  0.3080
  874MOL0     C15281   5.350  12.045   1.304  0.1314 -0.3843 -0.2542
  874MOL0     C15282   5.477  12.085   1.268 -0.5034  0.2298  0.6622
  874MOL0     O15283   5.623  12.343   0.986  0.1430 -0.5160 -0.0753
  874MOL0     C15284   5.915  12.223   1.159  0.1566  0.5077  0.5414
  874MOL0     C15285   6.060  12.238   1.160 -0.3729  0.5865  0.2683
  874MOL0     N15286   6.865  12.084   1.153 -0.1753 -0.4975  0.2761
  874MOL0     N15287   6.994  12.040   1.154  0.7168  0.2173  0.0628
  874MOL0     C15288   8.145  11.468   0.797 -0.3509  0.2935  0.3988
  874MOL0     C15289   8.284  11.419   0.809 -0.5139 -0.5695 -0.0184
  874MOL0     C15290   8.604  11.142   0.911  0.1076 -0.5488  0.4685
  874MOL0     C15291   8.619  11.013   0.862  0.0561 -0.6786 -0.1317
  874MOL0     C15292   8.749  10.945   0.862 -0.0941  1.1473 -0.1094
  874MOL0     C15293   8.863  11.010   0.924  0.0980  0.6108  0.5432
  874MOL0     O15294   8.994  10.964   0.925 -0.0131 -0.0142  0.4134
  874MOL0     C15295   9.038  10.841   0.860 -0.8884 -0.4201  0.3098
  874MOL0     C15296   9.184  10.809   0.892 -0.4171 -0.4562 -0.3677
  874MOL0     C15297   9.266  10.934   0.890 -0.5158 -0.0164 -0.6161
  874MOL0     C15298   9.417  10.905   0.885  0.1544 -0.2859  0.1940
  874MOL0     C15299   9.459  10.812   0.985  0.3250 -0.0239 -0.9314
  874MOL0     C15300   9.496  10.720   1.058  0.1450 -0.3576  0.1596
  874MOL0     C15301   8.841  11.137   0.964  0.2929 -0.2530 -0.6242
  874MOL0     C15302   8.723  11.203   0.955 -0.6390 -0.6469 -0.3309
  874MOL0     H15303   8.339  11.463   1.137  0.4590 -0.6523  0.1172
  874MOL0     H15304   8.101  11.516   1.132  0.7490 -0.6442  0.8385
  874MOL0     H15305   7.891  11.649   0.745 -1.2273 -1.4589  1.1086
  874MOL0     H15306   8.033  11.728   0.823 -0.3742  0.5129  1.8557
  874MOL0     H15307   7.887  11.870   0.883 -0.5626  1.0769  1.2883
  874MOL0     H15308   7.868  11.764   1.029 -1.8167 -0.2155 -0.1199
  874MOL0     H15309   7.682  11.662   0.948  1.3590  0.3283  2.2951
  874MOL0     H15310   7.679  11.742   0.789  0.4212 -0.9052  0.6509
  874MOL0     H15311   7.639  11.878   1.063 -0.0556  2.0632 -0.4998
  874MOL0     H15312   7.675  11.964   0.924  0.5986  0.0771  1.6836
  874MOL0     H15313   7.455  11.775   1.007  1.5362 -1.9200 -2.7077
  874MOL0     H15314   7.449  11.837   0.848 -2.8705 -0.6782  0.4709
  874MOL0     H15315   7.443  12.072   0.933  1.8546  0.8811  0.7749
  874MOL0     H15316   7.465  12.018   1.094 -1.8198  0.2424  0.6074
  874MOL0     H15317   7.229  11.925   0.943  0.3649 -0.7339  0.5961
  874MOL0     H15318   7.254  11.922   1.121  0.1560 -0.1749 -0.4497
  874MOL0     H15319   7.221  12.157   0.936 -0.1462 -3.0126 -0.6341
  874MOL0     H15320   7.259  12.173   1.120  0.7791  0.9490  0.2725
  874MOL0     H15321   6.993  12.309   0.951 -4.5802  0.5446 -1.1083
  874MOL0     H15322   6.722  12.263   0.926 -0.7786 -0.4382  0.3369
  874MOL0     H15323   6.761  12.377   1.059  1.7643 -0.4129 -0.8228
  874MOL0     H15324   6.632  12.232   1.205 -1.7420 -2.4407 -0.7602
  874MOL0     H15325   6.577  12.132   1.075  1.0033 -0.1317  0.2588
  874MOL0     H15326   6.525  12.429   1.090  3.9075 -1.1744  0.4695
  874MOL0     H15327   6.477  12.317   0.956  4.2608  1.6476 -0.6357
  874MOL0     H15328   6.351  12.322   1.237 -4.3557  0.4060 -0.5301
  874MOL0     H15329   6.345  12.185   1.109 -0.1451  0.8180 -0.2657
  874MOL0     H15330   6.076  12.532   0.966 -0.0046  0.3485  0.0085
  874MOL0     H15331   5.835  12.489   0.957 -1.3855 -0.4843  0.2126
  874MOL0     H15332   5.413  12.377   1.120 -0.2870  0.2706 -0.3486
  874MOL0     H15333   5.200  12.306   1.141 -2.8826 -0.9494  2.1802
  874MOL0     H15334   5.147  12.022   1.493 -3.7971  0.6203  3.1014
  874MOL0     H15335   5.130  11.890   1.373 -2.3065 -0.6250  1.6401
  874MOL0     H15336   4.940  11.920   1.533  0.7266  1.9113  0.8628
  874MOL0     H15337   4.885  11.916   1.362 -0.3214 -1.1988  0.0958
  874MOL0     H15338   4.860  12.158   1.363 -2.1854  0.5840  0.8093
  874MOL0     H15339   4.956  12.163   1.519 -0.6126  0.4605 -0.4429
  874MOL0     H15340   4.693  12.014   1.502  3.1213 -1.1349 -0.2135
  874MOL0     H15341   4.763  12.100   1.640 -0.2636  1.1634  0.1524
  874MOL0     H15342   4.557  12.205   1.533  0.0672  0.8130  2.3252
  874MOL0     H15343   4.665  12.249   1.399  4.2838  0.9992  0.3169
  874MOL0     H15344   4.820  12.360   1.563  0.0033  1.8845  1.1156
  874MOL0     H15345   4.701  12.321   1.696  1.6319 -0.5258 -0.0149
  874MOL0     H15346   4.736  12.563   1.538 -1.4831  2.2942  3.4812
  874MOL0     H15347   4.613  12.480   1.442 -2.1644  0.6762  1.0046
  874MOL0     H15348   4.474  12.448   1.646 -0.7252  1.9844  1.0366
  874MOL0     H15349   4.513  12.624   1.606  0.0901 -0.2990 -1.2700
  874MOL0     H15350   5.341  11.955   1.363 -2.5657 -0.4020 -0.5619
  874MOL0     H15351   5.560  12.024   1.302 -1.8034 -1.7835  0.3852
  874MOL0     H15352   5.868  12.137   1.206 -2.0845  0.3852 -1.7424
  874MOL0     H15353   6.121  12.166   1.213  2.8674  1.5825 -1.8129
  874MOL0     H15354   8.087  11.461   0.706 -2.5403 -2.3361  1.8336
  874MOL0     H15355   8.327  11.372   0.720  1.1085 -1.0348  0.9661
  874MOL0     H15356   8.529  10.965   0.824 -2.2849  4.0504 -1.3600
  874MOL0     H15357   8.760  10.843   0.829 -1.4011  0.6738  0.8314
  874MOL0     H15358   9.028  10.853   0.752 -0.1309 -0.4355  0.2357
  874MOL0     H15359   8.983  10.752   0.893  0.4251 -0.5420  2.3072
  874MOL0     H15360   9.199  10.768   0.992  1.3962  1.2269  0.1263
  874MOL0     H15361   9.214  10.732   0.820 -0.4700  0.2730 -1.1811
  874MOL0     H15362   9.235  11.001   0.971 -2.1453 -2.2858  0.7563
  874MOL0     H15363   9.240  10.993   0.801  2.8804 -0.7444 -2.2589
  874MOL0     H15364   9.423  10.854   0.789 -0.8296 -0.4073  0.1852
  874MOL0     H15365   9.480  10.995   0.880  2.6472 -1.9659 -0.1569
  874MOL0     H15366   9.529  10.636   1.115 -1.4831 -0.3835  1.1027
  874MOL0     H15367   8.923  11.189   1.013  0.8468 -2.1685  0.5963
  874MOL0     H15368   8.719  11.297   1.008 -0.4774 -1.6634  1.5944
  875MOL0     O15369   8.067   2.410   2.482 -0.3255  0.4493  0.6020
  875MOL0     C15370   8.068   2.287   2.484 -0.4813 -0.6926 -0.3196
  875MOL0     O15371   7.966   2.201   2.482  0.2517 -0.7046 -0.7744
  875MOL0     C15372   7.837   2.243   2.503  0.2976 -0.6655  0.1827
  875MOL0     C15373   7.729   2.239   2.405 -0.4479  1.3215  0.0799
  875MOL0     C15374   7.598   2.248   2.441 -0.5543 -0.1390  0.6161
  875MOL0     C15375   7.570   2.268   2.582  0.5849  0.3123  0.3420
  875MOL0     O15376   7.441   2.276   2.620  0.9442  0.0782  0.3204
  875MOL0     C15377   7.409   2.399   2.698 -0.6693  0.1341 -0.6317
  875MOL0     C15378   7.256   2.397   2.708  0.2938  0.6531  0.0595
  875MOL0     C15379   7.191   2.426   2.569 -0.4196 -1.0013 -0.9408
  875MOL0     C15380   7.045   2.395   2.576 -0.2535 -0.2157 -0.3087
  875MOL0     C15381   6.965   2.503   2.639 -0.0829  0.7585 -1.1377
  875MOL0     C15382   6.821   2.465   2.661  0.5283  0.1308  0.4114
  875MOL0     C15383   6.734   2.437   2.530 -0.9107  1.1901 -0.2696
  875MOL0     C15384   6.593   2.391   2.565  0.9020  0.3886  0.0452
  875MOL0     N15385   6.511   2.473   2.653  0.2064 -0.7979 -0.1874
  875MOL0     C15386   6.448   2.585   2.605  0.2786 -0.3154  0.2908
  875MOL0     C15387   6.385   2.639   2.711  0.8326 -0.1282 -0.4983
  875MOL0     C15388   6.301   2.763   2.703  0.0895 -0.0767 -0.1212
  875MOL0     C15389   6.149   2.733   2.668 -0.4122  0.2442  0.8517
  875MOL0     C15390   6.093   2.646   2.787 -0.1240  0.3536 -0.3804
  875MOL0     C15391   5.945   2.648   2.800  0.2212  0.3762  0.0787
  875MOL0     O15392   5.872   2.526   2.778 -0.9156 -0.5424 -0.4178
  875MOL0     C15393   5.734   2.540   2.792  0.4300  0.8076  0.1683
  875MOL0     C15394   5.675   2.415   2.818  0.0262  0.5206 -0.8065
  875MOL0     C15395   5.539   2.405   2.843  0.3597  0.0996  0.1458
  875MOL0     C15396   5.452   2.516   2.846 -0.2725 -1.0120  0.6144
  875MOL0     C15397   5.312   2.511   2.887  0.0963  0.5141 -0.2390
  875MOL0     O15398   5.239   2.629   2.894  0.1079  0.2203 -0.1777
  875MOL0     C15399   5.102   2.628   2.933  0.0182  0.0843 -0.3571
  875MOL0     C15400   5.056   2.547   3.044 -0.2888 -0.2297  0.6092
  875MOL0     C15401   4.924   2.562   3.089  0.0484  0.2596  0.0259
  875MOL0     C15402   4.833   2.642   3.018  0.8805  0.0360 -0.0013
  875MOL0     O15403   4.706   2.648   3.078  0.3734 -0.8200 -0.0620
  875MOL0     C15404   4.619   2.752   3.021 -0.4924 -0.0742 -0.2009
  875MOL0     C15405   4.481   2.736   3.084 -0.1225  0.5154 -0.4965
  875MOL0     C15406   4.424   2.582   3.081 -0.6791  0.3020  0.3584
  875MOL0     C15407   4.311   2.564   3.176  0.5677  0.1666  0.2737
  875MOL0     C15408   4.271   2.414   3.207  0.7688 -0.1120 -0.2133
  875MOL0     C15409   4.151   2.414   3.300 -0.6851 -0.3799  0.0425
  875MOL0     C15410   4.028   2.453   3.226  0.2725  0.2702 -0.0468
  875MOL0     C15411   3.901   2.375   3.291 -0.4147 -0.5129 -0.0019
  875MOL0    Cl15412   3.767   2.416   3.168 -0.2824 -0.2508 -0.5435
  875MOL0     C15413   4.879   2.723   2.911  0.1903 -0.1203  0.1936
  875MOL0     C15414   5.013   2.721   2.873  0.4736  0.2901  0.2209
  875MOL0     O15415   5.272   2.399   2.906  0.1506 -0.0583  0.2866
  875MOL0     C15416   5.516   2.638   2.812 -0.0672  0.5910 -0.4232
  875MOL0     C15417   5.654   2.645   2.788  0.4908  0.0657 -0.2868
  875MOL0     N15418   6.399   2.558   2.823 -0.3696  0.2064  0.9923
  875MOL0     N15419   6.473   2.465   2.785  0.7273 -0.5115  0.0357
  875MOL0     C15420   7.666   2.271   2.681 -0.7258 -0.4879 -0.1074
  875MOL0     C15421   7.804   2.262   2.639  0.6267 -0.8341 -0.2035
  875MOL0     C15422   8.196   2.225   2.464  0.1667 -0.1634  0.3983
  875MOL0     C15423   8.308   2.316   2.472 -0.3867 -0.6966  0.3214
  875MOL0     C15424   8.435   2.278   2.468 -0.4412 -0.4988 -0.1367
  875MOL0     C15425   8.469   2.139   2.468  1.1282 -0.5174  0.1543
  875MOL0     O15426   8.593   2.083   2.469 -0.5694 -0.6795 -0.5872
  875MOL0     C15427   8.695   2.153   2.530  0.2399  0.0333  0.0320
  875MOL0     C15428   8.784   2.044   2.603  1.0876 -0.2298 -0.5492
  875MOL0     C15429   8.907   2.119   2.655  0.9582 -1.0808  0.3593
  875MOL0     C15430   8.995   2.040   2.747 -0.1454  0.0336  0.4500
  875MOL0     C15431   8.915   1.990   2.864 -0.8440 -0.6244 -0.1281
  875MOL0     C15432   8.852   1.951   2.960  0.2811  1.0432  0.6288
  875MOL0     C15433   8.363   2.044   2.451  0.3477  0.1212  0.5269
  875MOL0     C15434   8.233   2.085   2.441  0.2206 -0.1767 -0.2249
  875MOL0     H15435   7.754   2.216   2.302 -0.5941  2.0889 -0.1361
  875MOL0     H15436   7.515   2.238   2.371 -0.5206  0.3599  0.4976
  875MOL0     H15437   7.444   2.492   2.650  5.0693 -1.5239 -0.4592
  875MOL0     H15438   7.446   2.395   2.800  0.6606 -2.1729 -1.1399
  875MOL0     H15439   7.233   2.478   2.778  2.0271  1.5940 -0.3996
  875MOL0     H15440   7.222   2.304   2.753 -1.6676  0.8698 -0.8743
  875MOL0     H15441   7.230   2.361   2.490 -1.5579 -2.4998 -0.3216
  875MOL0     H15442   7.206   2.532   2.546 -0.5762 -0.5623  0.8445
  875MOL0     H15443   7.017   2.378   2.471  0.8266 -1.1959 -0.4676
  875MOL0     H15444   7.026   2.308   2.639  0.5828  0.5772  1.0776
  875MOL0     H15445   6.959   2.578   2.560  0.9887 -1.1293 -3.1186
  875MOL0     H15446   7.022   2.549   2.721  2.5261 -3.0337 -0.5456
  875MOL0     H15447   6.776   2.546   2.718 -1.1673  3.1059 -4.5307
  875MOL0     H15448   6.819   2.378   2.727 -0.7442  0.9049  1.4465
  875MOL0     H15449   6.719   2.529   2.473  1.2427  0.6886 -1.7947
  875MOL0     H15450   6.786   2.371   2.459 -3.5886  0.4233 -1.6493
  875MOL0     H15451   6.604   2.296   2.618 -2.0029  0.8625  1.7452
  875MOL0     H15452   6.531   2.377   2.476 -0.5308 -1.1980  1.2195
  875MOL0     H15453   6.443   2.627   2.505 -2.0840  0.3119  0.6007
  875MOL0     H15454   6.337   2.832   2.626 -1.1097  0.8617  0.1199
  875MOL0     H15455   6.306   2.821   2.796 -1.0539  1.0286 -0.7157
  875MOL0     H15456   6.145   2.667   2.581  1.2444  1.0689  0.1029
  875MOL0     H15457   6.084   2.821   2.654  0.0410  0.3167 -1.0485
  875MOL0     H15458   6.120   2.541   2.767 -1.9270 -0.5686  1.6420
  875MOL0     H15459   6.128   2.692   2.879  1.3432  1.2408 -1.3378
  875MOL0     H15460   5.901   2.723   2.735 -0.7743  0.9367  1.3477
  875MOL0     H15461   5.924   2.688   2.900  4.5282  1.8673  0.6159
  875MOL0     H15462   5.744   2.333   2.836  2.0204  2.3033  0.3235
  875MOL0     H15463   5.501   2.311   2.882 -0.6145  0.4055 -0.0379
  875MOL0     H15464   5.124   2.472   3.083  1.0958  0.1296 -0.9547
  875MOL0     H15465   4.877   2.491   3.156 -0.5618  0.8625  0.2506
  875MOL0     H15466   4.599   2.740   2.914 -0.9682 -1.0502 -0.0098
  875MOL0     H15467   4.651   2.853   3.051 -3.0926  0.8008 -0.0407
  875MOL0     H15468   4.412   2.805   3.035 -0.7085  0.5494  0.3470
  875MOL0     H15469   4.483   2.762   3.190 -1.4788  0.0811 -0.3432
  875MOL0     H15470   4.497   2.513   3.124 -0.1540 -0.5024 -1.6840
  875MOL0     H15471   4.402   2.531   2.987 -3.9812 -1.3798  1.8886
  875MOL0     H15472   4.328   2.622   3.267 -0.1550  0.5004  0.2062
  875MOL0     H15473   4.231   2.611   3.118  0.2204 -0.6792  0.0664
  875MOL0     H15474   4.355   2.356   3.246  0.2152 -1.6882 -1.2686
  875MOL0     H15475   4.253   2.364   3.112 -1.5621 -2.3129  1.2532
  875MOL0     H15476   4.175   2.478   3.386  1.3553 -1.0211 -0.0058
  875MOL0     H15477   4.135   2.313   3.338 -2.4229  0.6435  2.3246
  875MOL0     H15478   4.009   2.561   3.230  1.2713  0.4313  2.6662
  875MOL0     H15479   4.045   2.436   3.119 -0.5424  0.7570 -0.2669
  875MOL0     H15480   3.866   2.417   3.386  0.2000  3.0505 -1.2049
  875MOL0     H15481   3.913   2.267   3.287  1.2301 -0.3287 -0.7856
  875MOL0     H15482   4.820   2.807   2.875  0.5688  2.1421  4.3006
  875MOL0     H15483   5.056   2.791   2.802 -0.5816  2.4578  1.6083
  875MOL0     H15484   5.449   2.722   2.801 -1.1760 -0.3892 -1.4294
  875MOL0     H15485   5.692   2.742   2.759  1.5477  0.3603  1.9164
  875MOL0     H15486   7.641   2.279   2.787 -0.7083  4.3717 -0.2402
  875MOL0     H15487   7.880   2.258   2.717 -3.4890  1.0619  4.4385
  875MOL0     H15488   8.290   2.422   2.485  1.5033  0.0045 -1.9544
  875MOL0     H15489   8.516   2.349   2.485  0.6829 -1.7456 -0.0770
  875MOL0     H15490   8.652   2.216   2.608  0.1524  0.8504 -0.6714
  875MOL0     H15491   8.749   2.208   2.453 -2.1668  1.1435 -0.9329
  875MOL0     H15492   8.729   1.986   2.677  2.4520 -1.1637 -0.2236
  875MOL0     H15493   8.827   1.968   2.536  0.1012 -1.3234  0.0104
  875MOL0     H15494   8.880   2.212   2.706  2.7539  0.1534 -0.8432
  875MOL0     H15495   8.974   2.148   2.573  1.8200 -0.2979  1.3152
  875MOL0     H15496   9.031   1.947   2.702  1.7992 -0.0979  2.1602
  875MOL0     H15497   9.073   2.108   2.783  0.4934  0.9279 -2.3642
  875MOL0     H15498   8.823   1.900   3.050  0.3811  0.3018  0.2547
  875MOL0     H15499   8.393   1.943   2.428  2.7051  0.5045  1.6184
  875MOL0     H15500   8.149   2.023   2.411  0.9427 -0.2845 -2.1911
  876MOL0     O15501   7.716   7.468   0.565 -0.1874  0.2843 -0.6918
  876MOL0     C15502   7.721   7.582   0.532  0.1951  0.4449  0.9097
  876MOL0     O15503   7.821   7.675   0.568  0.0714  0.2234  0.4233
  876MOL0     C15504   7.927   7.614   0.638  0.7435 -0.2821 -1.0312
  876MOL0     C15505   7.933   7.639   0.777 -0.4912 -0.2180  0.2359
  876MOL0     C15506   8.041   7.593   0.851  1.3127  0.6520 -0.0931
  876MOL0     C15507   8.146   7.521   0.790  0.6077 -0.0399  1.1995
  876MOL0     O15508   8.250   7.461   0.857  0.2002 -0.0721  0.4483
  876MOL0     C15509   8.290   7.528   0.979  0.3039 -0.2561  0.1561
  876MOL0     C15510   8.420   7.469   1.043  0.3155 -0.4636 -0.2941
  876MOL0     C15511   8.544   7.469   0.951  0.1301  0.5310 -0.2501
  876MOL0     C15512   8.666   7.397   0.998  0.6529  0.4224  0.1096
  876MOL0     C15513   8.780   7.412   0.903  0.3320  0.0364 -0.6017
  876MOL0     C15514   8.909   7.356   0.952  0.8232  0.0920 -0.1157
  876MOL0     C15515   9.028   7.378   0.858 -0.8728 -0.0626  0.3757
  876MOL0     C15516   9.049   7.524   0.799 -0.3006  0.2867 -0.8889
  876MOL0     N15517   9.161   7.520   0.706 -0.2624 -0.4506 -0.9264
  876MOL0     C15518   9.260   7.425   0.686  0.7199  0.0567  0.0281
  876MOL0     C15519   9.331   7.469   0.579  0.4096 -0.6532  0.1884
  876MOL0     C15520   9.457   7.404   0.533  0.2647 -0.2227 -0.0999
  876MOL0     C15521   9.549   7.369   0.643 -0.6700  0.7451  0.1392
  876MOL0     C15522   9.598   7.495   0.710  0.6599 -0.1694 -0.4845
  876MOL0     C15523   9.667   7.460   0.841  0.2437  0.4360 -0.2607
  876MOL0     O15524   9.581   7.391   0.936 -0.4629  1.0188 -0.0986
  876MOL0     C15525   9.475   7.439   1.002  0.1767 -0.5866  0.1741
  876MOL0     C15526   9.442   7.573   0.999  0.5724  1.1384  0.1589
  876MOL0     C15527   9.327   7.626   1.063 -0.2895 -0.2235 -0.7846
  876MOL0     C15528   9.250   7.543   1.141  0.0669 -0.4371  0.1847
  876MOL0     C15529   9.127   7.597   1.218 -0.7629 -0.4340 -0.1480
  876MOL0     O15530   9.098   7.729   1.227 -0.2868 -0.3584  0.4174
  876MOL0     C15531   8.984   7.758   1.284  1.1001  0.2897 -0.7431
  876MOL0     C15532   8.975   7.772   1.429 -0.3550 -0.7081  0.2488
  876MOL0     C15533   8.855   7.774   1.495 -0.2523 -0.0611 -0.0261
  876MOL0     C15534   8.736   7.777   1.428  0.4280  0.4382  0.7283
  876MOL0     O15535   8.619   7.782   1.492  0.1454  0.1935  0.4021
  876MOL0     C15536   8.604   7.911   1.559 -0.3492  0.7188 -0.8592
  876MOL0     C15537   8.470   7.914   1.631 -0.1941  0.2445 -0.3285
  876MOL0     C15538   8.345   7.893   1.550  0.4285  0.6458  0.1309
  876MOL0     C15539   8.218   7.933   1.626 -0.4285 -0.3787  0.4608
  876MOL0     C15540   8.102   7.936   1.521 -0.7590 -0.5407  0.6098
  876MOL0     C15541   7.978   7.976   1.600 -0.0294  0.8691 -0.2340
  876MOL0     C15542   7.856   7.939   1.513 -0.9306  1.0104 -0.2111
  876MOL0     C15543   7.716   7.947   1.588  0.2050  0.8942  0.5589
  876MOL0    Cl15544   7.698   8.124   1.620 -0.4860 -0.1099  0.3782
  876MOL0     C15545   8.744   7.773   1.289 -0.0344  0.0922 -0.8512
  876MOL0     C15546   8.859   7.761   1.217 -0.3583  0.0874 -0.1769
  876MOL0     O15547   9.066   7.510   1.266  0.0523  0.3083 -0.1284
  876MOL0     C15548   9.270   7.402   1.143 -0.3923 -0.3647  0.3144
  876MOL0     C15549   9.384   7.354   1.074 -0.2601  0.1365 -0.6506
  876MOL0     N15550   9.286   7.590   0.540  0.3904 -0.0734 -0.5741
  876MOL0     N15551   9.187   7.615   0.614 -0.2073 -0.5930 -1.0889
  876MOL0     C15552   8.131   7.493   0.655  0.6060  0.4433 -0.2160
  876MOL0     C15553   8.021   7.534   0.588 -0.7168 -0.0230 -0.0557
  876MOL0     C15554   7.596   7.638   0.476  0.3016 -0.2974 -0.5539
  876MOL0     C15555   7.596   7.772   0.421 -0.3692  1.3834  0.4621
  876MOL0     C15556   7.477   7.816   0.359  0.0589 -0.0342  0.2123
  876MOL0     C15557   7.360   7.751   0.365  0.1136  0.1926  0.5953
  876MOL0     O15558   7.262   7.807   0.289 -0.3995  0.3325 -0.5678
  876MOL0     C15559   7.136   7.752   0.299  0.1776  0.3243  0.8563
  876MOL0     C15560   7.028   7.850   0.276  0.1054  0.5471  0.2272
  876MOL0     C15561   6.958   7.916   0.401 -0.9683 -0.0325  1.1305
  876MOL0     C15562   6.850   8.023   0.366  0.4343 -0.2245  0.1157
  876MOL0     C15563   6.750   8.041   0.477  0.0793  0.5828  0.4652
  876MOL0     C15564   6.667   8.062   0.556  0.2858  0.8018 -0.1756
  876MOL0     C15565   7.357   7.630   0.433  0.2290 -0.5192 -0.3533
  876MOL0     C15566   7.471   7.571   0.479 -0.3166  0.3698 -0.0354
  876MOL0     H15567   7.851   7.692   0.825 -0.6207 -1.5767  1.5933
  876MOL0     H15568   8.040   7.614   0.958  0.3657 -0.9505  0.2392
  876MOL0     H15569   8.214   7.533   1.057  0.4217  2.0121  0.2060
  876MOL0     H15570   8.311   7.634   0.963 -0.1702  0.0363  1.3991
  876MOL0     H15571   8.400   7.368   1.079 -1.5795 -0.4764 -1.2852
  876MOL0     H15572   8.442   7.530   1.131  1.6565  2.2968 -2.3888
  876MOL0     H15573   8.576   7.569   0.920  2.8945  0.5794  2.2756
  876MOL0     H15574   8.502   7.415   0.865 -1.2418  0.2130  0.5802
  876MOL0     H15575   8.697   7.429   1.097  3.7577 -4.3830  1.0364
  876MOL0     H15576   8.633   7.293   1.012 -0.3450  0.6370 -0.5242
  876MOL0     H15577   8.790   7.521   0.889 -0.9990  0.4790  1.4619
  876MOL0     H15578   8.759   7.364   0.807  1.8892 -0.7628 -0.5659
  876MOL0     H15579   8.897   7.248   0.959  0.5317  0.1388  0.1011
  876MOL0     H15580   8.925   7.395   1.053 -4.9233 -2.9746  2.4383
  876MOL0     H15581   9.119   7.347   0.910  1.1240  2.1225 -1.5598
  876MOL0     H15582   9.026   7.317   0.767  1.7802  0.5183 -0.1436
  876MOL0     H15583   9.063   7.598   0.879  1.2585  0.7954 -1.5754
  876MOL0     H15584   8.967   7.567   0.741  0.2986 -0.2787 -2.2052
  876MOL0     H15585   9.279   7.339   0.750 -0.9829  0.3305  0.9829
  876MOL0     H15586   9.511   7.476   0.471 -0.6569  1.0467  0.5200
  876MOL0     H15587   9.433   7.312   0.479 -3.3542  1.5010 -1.7561
  876MOL0     H15588   9.635   7.315   0.601 -2.5605  0.6007 -3.9913
  876MOL0     H15589   9.496   7.301   0.710  0.4023 -0.6154 -0.3487
  876MOL0     H15590   9.670   7.545   0.645  2.0151 -0.2851  0.8479
  876MOL0     H15591   9.515   7.564   0.725  0.1063 -0.0397 -3.5805
  876MOL0     H15592   9.701   7.560   0.870  1.2985  1.7924 -5.3383
  876MOL0     H15593   9.752   7.394   0.820 -0.4111 -0.4825 -0.0760
  876MOL0     H15594   9.497   7.651   0.947  3.2975  0.6139  2.0227
  876MOL0     H15595   9.303   7.732   1.060  2.4970  0.4818 -0.8820
  876MOL0     H15596   9.063   7.768   1.493 -0.5327  1.5068  0.7151
  876MOL0     H15597   8.841   7.770   1.603  1.2992 -3.0986  0.1749
  876MOL0     H15598   8.605   7.989   1.483  0.9867  1.4016 -0.1682
  876MOL0     H15599   8.692   7.936   1.619 -0.8999  2.0151 -0.5753
  876MOL0     H15600   8.467   8.002   1.696 -1.6272  2.5127 -3.2170
  876MOL0     H15601   8.467   7.829   1.699 -0.5478  0.9855  0.6047
  876MOL0     H15602   8.337   7.791   1.512  2.7529 -0.0965  1.4071
  876MOL0     H15603   8.356   7.953   1.459 -0.7425  1.2141  0.3440
  876MOL0     H15604   8.204   7.858   1.704  1.5212  0.7649  1.9946
  876MOL0     H15605   8.246   8.034   1.657  3.6614 -1.8233  2.2108
  876MOL0     H15606   8.074   7.844   1.467  0.3596  0.2152 -1.3588
  876MOL0     H15607   8.117   8.008   1.440 -2.6319  1.6301  2.0604
  876MOL0     H15608   7.986   8.082   1.624  1.1731  0.8058 -0.2675
  876MOL0     H15609   7.965   7.914   1.690 -1.8507  1.6910  0.1210
  876MOL0     H15610   7.857   8.003   1.424  2.1130  3.5491  1.4623
  876MOL0     H15611   7.867   7.834   1.483  2.3520  0.6223  1.8773
  876MOL0     H15612   7.710   7.887   1.679 -1.1492  0.8733  0.4715
  876MOL0     H15613   7.638   7.915   1.518  1.4895 -2.0187  0.2909
  876MOL0     H15614   8.645   7.773   1.243 -0.4991 -3.3392 -0.1194
  876MOL0     H15615   8.852   7.748   1.110 -1.9700 -1.2637  0.0536
  876MOL0     H15616   9.215   7.326   1.197 -0.8788 -1.2688 -1.3815
  876MOL0     H15617   9.393   7.246   1.060 -0.9948  0.1756 -1.5066
  876MOL0     H15618   8.210   7.430   0.616  1.6527  1.4970  0.1368
  876MOL0     H15619   8.005   7.499   0.486 -1.7985  0.2410  0.0181
  876MOL0     H15620   7.687   7.831   0.424  0.6024 -0.0753  1.0975
  876MOL0     H15621   7.480   7.910   0.305  1.1471  1.0103  2.0079
  876MOL0     H15622   7.112   7.709   0.397 -0.8515  0.0990  0.5204
  876MOL0     H15623   7.130   7.670   0.228  1.2775  1.2839 -0.4026
  876MOL0     H15624   7.071   7.932   0.218 -1.2418  0.5373 -0.8147
  876MOL0     H15625   6.948   7.805   0.216 -1.3246  0.7285  1.9123
  876MOL0     H15626   7.039   7.963   0.457  1.1959  0.3249 -2.0104
  876MOL0     H15627   6.919   7.830   0.456 -2.2005  0.5440  1.1885
  876MOL0     H15628   6.888   8.124   0.346  0.6846 -0.4637 -0.6323
  876MOL0     H15629   6.801   7.987   0.276  0.2565  1.2339 -0.4073
  876MOL0     H15630   6.583   8.088   0.617 -0.6078 -1.6300 -0.2383
  876MOL0     H15631   7.266   7.580   0.464 -0.0054  0.7490  1.1681
  876MOL0     H15632   7.454   7.478   0.533  2.7442 -0.7446 -0.7556
  877MOL0     O15633   3.697   2.719   1.497 -0.4027  0.7139  0.0619
  877MOL0     C15634   3.762   2.682   1.398 -0.4886  0.3750 -0.1228
  877MOL0     O15635   3.703   2.648   1.277 -0.4610  0.8488  0.5086
  877MOL0     C15636   3.567   2.666   1.273  0.5386 -0.2161 -0.7090
  877MOL0     C15637   3.499   2.795   1.256  0.2303  0.7325 -0.1741
  877MOL0     C15638   3.362   2.807   1.253  0.0293 -0.2146 -0.2332
  877MOL0     C15639   3.282   2.695   1.275 -0.1875 -0.5520  0.2658
  877MOL0     O15640   3.149   2.711   1.296  0.0691  0.2533  0.5763
  877MOL0     C15641   3.078   2.627   1.388  0.8732  0.2563 -1.1173
  877MOL0     C15642   2.965   2.571   1.306 -0.1907  0.4712 -0.5391
  877MOL0     C15643   2.886   2.456   1.373 -0.3630 -1.0008  0.3876
  877MOL0     C15644   2.762   2.425   1.287 -0.3395  0.6816 -0.0010
  877MOL0     C15645   2.676   2.311   1.336 -0.0510  0.2768  0.1537
  877MOL0     C15646   2.615   2.334   1.472  0.4514 -0.1902  0.2650
  877MOL0     C15647   2.495   2.234   1.493 -0.4019 -0.7896 -0.5386
  877MOL0     C15648   2.373   2.273   1.415  0.4488  0.1102 -0.3021
  877MOL0     N15649   2.267   2.176   1.427  0.2003 -0.4285 -0.0823
  877MOL0     C15650   2.146   2.195   1.497 -0.2596 -0.5362  0.0064
  877MOL0     C15651   2.082   2.075   1.473  0.3850  0.8900 -0.3419
  877MOL0     C15652   1.948   2.042   1.541 -0.9341 -0.0264 -0.3529
  877MOL0     C15653   1.970   2.041   1.695 -0.6799  0.6663  0.5111
  877MOL0     C15654   1.838   2.005   1.752  0.1567 -0.8280  0.0407
  877MOL0     C15655   1.841   1.969   1.899  0.4673 -0.0588  0.1097
  877MOL0     O15656   1.915   2.064   1.964  0.3412 -1.1518  0.1270
  877MOL0     C15657   1.959   2.039   2.089 -0.9614 -0.2464 -1.1506
  877MOL0     C15658   2.091   2.085   2.118 -0.1657 -0.8443 -0.3310
  877MOL0     C15659   2.133   2.084   2.247 -0.7211  0.1790  1.6667
  877MOL0     C15660   2.063   2.017   2.351  0.3875  0.3539 -0.5507
  877MOL0     C15661   2.110   2.006   2.490  0.5848 -0.6642  0.0228
  877MOL0     O15662   2.008   2.002   2.590 -1.0579 -0.5672 -0.1810
  877MOL0     C15663   2.054   2.003   2.723 -0.1401 -0.1101  0.1541
  877MOL0     C15664   2.009   1.909   2.819 -0.5959  0.2428  0.2482
  877MOL0     C15665   2.024   1.916   2.957  0.0094  0.6111 -0.3174
  877MOL0     C15666   2.092   2.028   3.006  0.2942  0.6032  0.2293
  877MOL0     O15667   2.124   2.051   3.142  0.6162 -0.9350 -0.0743
  877MOL0     C15668   2.057   1.968   3.239  0.9618  0.5556  0.2806
  877MOL0     C15669   2.090   1.998   3.388  0.2288  0.1256  1.0245
  877MOL0     C15670   1.987   2.077   3.462 -0.2559  0.9856 -0.4789
  877MOL0     C15671   1.948   2.211   3.403 -0.0106 -0.1350  1.1217
  877MOL0     C15672   1.805   2.247   3.430 -0.9354  0.5319 -0.6855
  877MOL0     C15673   1.707   2.191   3.327 -1.1286  0.3631 -0.1497
  877MOL0     C15674   1.668   2.038   3.340 -1.7663 -0.3015 -0.8328
  877MOL0     C15675   1.553   2.018   3.244  0.2784 -0.0711 -1.1079
  877MOL0    Cl15676   1.412   2.094   3.331  0.1654 -0.3239 -0.0629
  877MOL0     C15677   2.146   2.127   2.917  0.1922  0.0428  1.1713
  877MOL0     C15678   2.121   2.111   2.779  0.0926  0.3017 -0.3396
  877MOL0     O15679   2.230   1.995   2.513  0.1419 -0.1531 -0.0918
  877MOL0     C15680   1.934   1.973   2.322  0.0636  0.2692  0.0724
  877MOL0     C15681   1.882   1.984   2.192 -0.4251 -0.1885  0.0493
  877MOL0     N15682   2.170   1.992   1.398 -0.2614 -0.5174 -0.8093
  877MOL0     N15683   2.279   2.053   1.374 -0.2672 -0.1882 -0.9057
  877MOL0     C15684   3.351   2.576   1.293 -0.2103  0.4056  0.6384
  877MOL0     C15685   3.487   2.556   1.298 -0.4003 -0.1736 -0.1557
  877MOL0     C15686   3.905   2.697   1.402  0.2389  0.1751 -0.0578
  877MOL0     C15687   3.978   2.678   1.280  0.9463 -0.3221 -1.0446
  877MOL0     C15688   4.114   2.680   1.274  0.3337 -0.3103 -0.4372
  877MOL0     C15689   4.190   2.704   1.384 -0.3036 -1.3565 -0.6224
  877MOL0     O15690   4.327   2.735   1.371  0.7411 -0.8113 -0.0243
  877MOL0     C15691   4.424   2.722   1.476 -0.6632 -0.4920 -0.1539
  877MOL0     C15692   4.437   2.590   1.543  0.5718 -0.4733 -0.3004
  877MOL0     C15693   4.464   2.475   1.445  0.3807  0.1116 -0.1671
  877MOL0     C15694   4.479   2.340   1.515 -0.5230 -0.3471 -0.9984
  877MOL0     C15695   4.563   2.354   1.636  0.0232 -0.0889 -0.0845
  877MOL0     C15696   4.627   2.352   1.735  0.3147 -0.2371 -0.5630
  877MOL0     C15697   4.119   2.709   1.512 -0.3486 -0.4128  0.0756
  877MOL0     C15698   3.981   2.713   1.522  0.5866  0.4018 -0.3551
  877MOL0     H15699   3.570   2.875   1.238  0.7554 -0.2111 -2.6982
  877MOL0     H15700   3.330   2.903   1.215 -1.4000 -1.0014 -1.1003
  877MOL0     H15701   3.032   2.700   1.455 -0.9793 -0.3016 -1.7161
  877MOL0     H15702   3.127   2.549   1.447 -1.0985  0.2381  0.6164
  877MOL0     H15703   2.997   2.530   1.210  1.2334 -0.3591  0.2522
  877MOL0     H15704   2.893   2.653   1.298 -0.1976  0.2967 -3.7633
  877MOL0     H15705   2.860   2.492   1.473  3.5876  0.3530  1.1483
  877MOL0     H15706   2.942   2.363   1.385  0.3946 -0.8636 -1.6979
  877MOL0     H15707   2.692   2.509   1.278 -0.9554  0.1358 -0.4054
  877MOL0     H15708   2.789   2.397   1.185 -1.4821  0.5380 -0.2793
  877MOL0     H15709   2.729   2.216   1.343 -1.6338 -0.8269 -1.7499
  877MOL0     H15710   2.598   2.309   1.259 -0.6239  2.0744  0.6405
  877MOL0     H15711   2.568   2.433   1.477  2.7865  0.9327  1.3117
  877MOL0     H15712   2.685   2.323   1.555  1.2010 -1.6151 -0.5238
  877MOL0     H15713   2.535   2.133   1.479  3.9246  0.0460  3.6176
  877MOL0     H15714   2.463   2.233   1.598  2.2995 -2.2056  0.3678
  877MOL0     H15715   2.387   2.275   1.306 -0.6182 -0.8362 -0.4766
  877MOL0     H15716   2.343   2.375   1.439 -0.7126  0.3491 -2.4587
  877MOL0     H15717   2.107   2.280   1.552 -2.5332 -1.2352 -0.4164
  877MOL0     H15718   1.898   1.951   1.506 -0.1347 -1.1012  1.1465
  877MOL0     H15719   1.880   2.127   1.529 -0.5250  0.3239 -0.2360
  877MOL0     H15720   2.026   2.125   1.738  1.7708 -0.0319 -1.0789
  877MOL0     H15721   2.036   1.956   1.715 -2.0511 -0.1938  1.5715
  877MOL0     H15722   1.771   2.091   1.741  0.2465 -0.8246 -0.5265
  877MOL0     H15723   1.792   1.928   1.690  0.6990 -1.2380  0.1378
  877MOL0     H15724   1.867   1.864   1.916 -3.6779 -0.8914  2.7460
  877MOL0     H15725   1.738   1.981   1.934  0.2611  2.0324 -1.0777
  877MOL0     H15726   2.140   2.136   2.036  0.6002  0.2627  0.7721
  877MOL0     H15727   2.230   2.131   2.263  0.8989 -1.6805 -1.5994
  877MOL0     H15728   1.976   1.811   2.787  1.0933 -0.9165  1.9059
  877MOL0     H15729   1.997   1.835   3.024  3.0010  0.7367  1.1824
  877MOL0     H15730   2.096   1.867   3.225  1.3467  1.0156 -2.6947
  877MOL0     H15731   1.949   1.970   3.226  1.0469 -0.9107 -0.9587
  877MOL0     H15732   2.182   2.053   3.406 -0.0089  0.4154  1.3825
  877MOL0     H15733   2.105   1.898   3.430 -1.2998 -0.2442  0.7528
  877MOL0     H15734   2.041   2.098   3.555  0.4998 -1.3911 -0.3142
  877MOL0     H15735   1.902   2.011   3.481  0.9391 -0.3669  0.3702
  877MOL0     H15736   2.014   2.286   3.449 -1.2815  0.8226  1.4419
  877MOL0     H15737   1.955   2.216   3.294  0.5205  1.3007  1.1965
  877MOL0     H15738   1.811   2.355   3.414  0.8688  0.5620 -0.0483
  877MOL0     H15739   1.767   2.234   3.532 -1.0884  0.6772 -0.7240
  877MOL0     H15740   1.743   2.220   3.228 -1.5450  0.9786 -0.1303
  877MOL0     H15741   1.617   2.253   3.338 -2.0294 -1.1722  1.5068
  877MOL0     H15742   1.755   1.983   3.304  1.6894  3.8246  0.3758
  877MOL0     H15743   1.651   2.005   3.443 -0.7025 -0.0556 -0.5611
  877MOL0     H15744   1.538   1.910   3.237  1.3266 -0.6458  2.9606
  877MOL0     H15745   1.575   2.057   3.145  3.2398  0.4223 -0.3565
  877MOL0     H15746   2.212   2.203   2.957 -0.2825  2.0139 -1.5106
  877MOL0     H15747   2.157   2.190   2.713 -2.2874 -0.1089 -2.2562
  877MOL0     H15748   1.867   1.937   2.399  1.8300  1.2437  2.1881
  877MOL0     H15749   1.779   1.955   2.173 -1.0207  1.9625 -0.2161
  877MOL0     H15750   3.286   2.492   1.316 -1.2497  1.3022  1.0481
  877MOL0     H15751   3.530   2.465   1.338 -1.4399 -0.1625  1.0434
  877MOL0     H15752   3.934   2.659   1.183 -1.4842  0.0744 -0.1016
  877MOL0     H15753   4.166   2.674   1.179 -0.4804  0.6671 -0.9699
  877MOL0     H15754   4.398   2.800   1.548  1.5245  0.7168 -0.5975
  877MOL0     H15755   4.522   2.743   1.433 -0.2622  0.1760  1.0422
  877MOL0     H15756   4.521   2.592   1.612  0.3383 -0.1274 -0.0271
  877MOL0     H15757   4.345   2.567   1.598  1.1028  0.2134  0.8996
  877MOL0     H15758   4.555   2.490   1.386 -1.0019 -1.5134 -2.9063
  877MOL0     H15759   4.381   2.475   1.374  0.0275  0.5404  0.2408
  877MOL0     H15760   4.378   2.314   1.549  0.0818 -0.9836  0.3749
  877MOL0     H15761   4.513   2.254   1.456  0.4550 -0.7449  0.1033
  877MOL0     H15762   4.680   2.370   1.826 -0.7818  0.3421 -0.0300
  877MOL0     H15763   4.182   2.731   1.598  1.5955 -3.6156 -0.3672
  877MOL0     H15764   3.920   2.721   1.612 -0.3793  0.5837 -1.0172
  878MOL0     O15765  10.693   8.777   9.988  0.2130 -0.4663  0.6103
  878MOL0     C15766  10.755   8.858   9.921  0.9554 -0.7632  0.4486
  878MOL0     O15767  10.711   8.984   9.898 -0.0695 -0.4438 -0.1679
  878MOL0     C15768  10.594   9.022   9.969  0.3359  0.3059 -0.0890
  878MOL0     C15769  10.477   9.050   9.895 -0.2777 -0.1817  0.4296
  878MOL0     C15770  10.360   9.092   9.948 -0.1687  0.0876 -0.7853
  878MOL0     C15771  10.342   9.095  10.088  0.0862 -0.3328 -0.2752
  878MOL0     O15772  10.225   9.116  10.153 -0.3415  0.1276 -0.1576
  878MOL0     C15773  10.135   9.217  10.103 -1.5220 -0.8456 -0.4301
  878MOL0     C15774  10.019   9.220  10.191 -0.3388  0.4403 -0.5161
  878MOL0     C15775   9.913   9.129  10.136 -0.3977 -0.3530 -0.2515
  878MOL0     C15776   9.791   9.123  10.224  0.3710 -0.4745  0.7963
  878MOL0     C15777   9.667   9.058  10.151 -0.4379  0.5647 -0.1278
  878MOL0     C15778   9.563   9.035  10.256 -0.1149 -0.6627  0.3382
  878MOL0     C15779   9.447   8.962  10.211  0.3497 -0.1399 -0.0030
  878MOL0     C15780   9.356   8.943  10.334  0.2653 -0.7450  0.5969
  878MOL0     N15781   9.234   8.890  10.280  0.3798 -0.3671  0.3334
  878MOL0     C15782   9.216   8.800  10.174  0.6130  0.4978 -0.2483
  878MOL0     C15783   9.086   8.785  10.179  0.2157  0.7511 -0.5354
  878MOL0     C15784   9.026   8.669  10.102 -0.1921 -0.7478  0.9104
  878MOL0     C15785   8.869   8.688  10.128 -0.0343 -0.1698 -0.1469
  878MOL0     C15786   8.784   8.615  10.032  0.0800 -0.2042  0.2028
  878MOL0     C15787   8.637   8.619  10.062  0.1356 -0.1245 -0.4147
  878MOL0     O15788   8.591   8.754  10.078  0.6630 -0.0276 -0.7227
  878MOL0     C15789   8.458   8.787  10.099  0.1856  0.0351  0.2795
  878MOL0     C15790   8.420   8.914  10.139  0.1245 -0.5867 -1.1004
  878MOL0     C15791   8.290   8.942  10.169 -0.9227 -0.5854 -0.3849
  878MOL0     C15792   8.186   8.852  10.143 -0.8818  0.6126  0.6833
  878MOL0     C15793   8.047   8.886  10.182 -0.1083 -1.1485 -0.7573
  878MOL0     O15794   7.952   8.787  10.169 -0.2946  0.1581 -0.5780
  878MOL0     C15795   7.826   8.805  10.224  0.2974 -0.1970  1.4134
  878MOL0     C15796   7.712   8.756  10.152  0.0944 -0.4798  0.1867
  878MOL0     C15797   7.584   8.772  10.205 -0.1537  0.0511 -0.4235
  878MOL0     C15798   7.566   8.831  10.330  0.3148  0.3043 -0.8170
  878MOL0     O15799   7.430   8.836  10.380  0.0762  0.1021  0.3494
  878MOL0     C15800   7.380   8.925  10.478 -0.5552 -0.8640 -1.0865
  878MOL0     C15801   7.235   8.880  10.501 -0.0121 -0.6752 -0.1764
  878MOL0     C15802   7.148   8.904  10.375 -0.2960 -1.2789 -1.3419
  878MOL0     C15803   7.011   8.922  10.422 -0.3881 -0.0210 -0.0677
  878MOL0     C15804   6.926   8.918  10.300  1.7681 -0.8155 -0.4917
  878MOL0     C15805   6.774   8.935  10.340 -0.6847 -0.1546 -0.4234
  878MOL0     C15806   6.690   8.896  10.218 -0.1171 -0.3003 -0.8237
  878MOL0     C15807   6.536   8.895  10.253  0.4831 -0.0739 -0.9021
  878MOL0    Cl15808   6.488   8.749  10.353 -0.4308 -0.5138  0.5516
  878MOL0     C15809   7.682   8.872  10.402  0.3790 -0.4090  0.0435
  878MOL0     C15810   7.805   8.861  10.349 -0.0432 -0.2291  0.5630
  878MOL0     O15811   8.028   8.997  10.229  0.4114 -0.3500  0.0114
  878MOL0     C15812   8.221   8.731  10.084 -0.1756  0.8652 -0.4263
  878MOL0     C15813   8.359   8.697  10.073  1.0075 -0.1987  0.9806
  878MOL0     N15814   9.027   8.853  10.282  0.2795 -0.0255  0.0971
  878MOL0     N15815   9.117   8.913  10.346 -0.8524 -0.4292 -0.1564
  878MOL0     C15816  10.452   9.047  10.162  0.7294 -0.2665  0.2836
  878MOL0     C15817  10.574   9.023  10.103  0.1265  0.0041 -0.7529
  878MOL0     C15818  10.890   8.823   9.872 -0.4185  0.2019 -0.0668
  878MOL0     C15819  10.940   8.701   9.916 -0.1914  0.0449  0.3171
  878MOL0     C15820  11.070   8.670   9.873  0.1498 -0.0213  0.0882
  878MOL0     C15821  11.154   8.760   9.810 -0.0941 -1.0808  0.2437
  878MOL0     O15822  11.277   8.719   9.784 -0.0075 -0.6707 -0.0998
  878MOL0     C15823  11.392   8.812   9.810  0.8281  0.6228  0.0673
  878MOL0     C15824  11.515   8.766   9.727  0.0070  0.1860 -0.5248
  878MOL0     C15825  11.566   8.626   9.760 -0.2296 -1.2000 -0.4244
  878MOL0     C15826  11.646   8.620   9.889 -0.4477 -0.3053 -1.2929
  878MOL0     C15827  11.792   8.632   9.864 -0.7439  0.9467 -0.0043
  878MOL0     C15828  11.910   8.656   9.851 -0.2780 -0.1253  0.7258
  878MOL0     C15829  11.102   8.877   9.770  0.0438 -0.1370 -0.5217
  878MOL0     C15830  10.967   8.909   9.790  0.4387 -0.0940 -0.5253
  878MOL0     H15831  10.496   9.049   9.788 -0.8953  0.3873  0.3049
  878MOL0     H15832  10.282   9.134   9.886 -1.1977 -0.7527 -0.0967
  878MOL0     H15833  10.108   9.195   9.999 -0.5399 -2.7659 -0.3381
  878MOL0     H15834  10.180   9.317  10.102  1.0407 -1.8893  0.5596
  878MOL0     H15835   9.979   9.321  10.200 -0.3463  0.5472 -1.5966
  878MOL0     H15836  10.043   9.194  10.295 -3.2801 -0.7635 -0.0437
  878MOL0     H15837   9.953   9.029  10.117  0.6723  0.0632 -0.2190
  878MOL0     H15838   9.884   9.174  10.041  1.1430  5.2768  1.5572
  878MOL0     H15839   9.813   9.059  10.310 -1.6125 -4.4320 -1.3359
  878MOL0     H15840   9.760   9.221  10.262  1.7293  0.3534 -0.1547
  878MOL0     H15841   9.700   8.965  10.104 -0.5679  1.5583 -2.3238
  878MOL0     H15842   9.627   9.117  10.068 -1.6680  1.2003  0.8768
  878MOL0     H15843   9.533   9.133  10.295 -1.1735 -0.9115  0.1877
  878MOL0     H15844   9.613   8.978  10.335  2.0253  1.3749  0.5373
  878MOL0     H15845   9.391   9.018  10.136  0.6268 -0.7464 -0.6778
  878MOL0     H15846   9.483   8.867  10.169 -2.1695 -1.5000  0.6862
  878MOL0     H15847   9.345   9.044  10.376  0.7209 -0.4920  0.1222
  878MOL0     H15848   9.410   8.880  10.405  1.9042  2.0885  2.0628
  878MOL0     H15849   9.290   8.755  10.108  0.0532  1.9219 -1.9292
  878MOL0     H15850   9.067   8.574  10.136  2.4428  0.4234  1.3141
  878MOL0     H15851   9.049   8.685   9.997 -0.5359  1.7151  1.1273
  878MOL0     H15852   8.833   8.791  10.134 -0.3782 -0.2603 -0.5828
  878MOL0     H15853   8.858   8.651  10.230  1.5998 -2.6013 -0.7545
  878MOL0     H15854   8.806   8.667   9.939  1.2889 -0.2780  0.4305
  878MOL0     H15855   8.812   8.509  10.040 -1.4444 -0.6657 -0.2684
  878MOL0     H15856   8.612   8.558  10.149  0.1775 -0.8046 -0.8683
  878MOL0     H15857   8.584   8.573   9.978 -0.4738  1.7676 -1.1160
  878MOL0     H15858   8.494   8.990  10.161  0.5310 -1.7610  2.0485
  878MOL0     H15859   8.268   9.039  10.212 -0.8349 -0.3622 -0.8345
  878MOL0     H15860   7.721   8.703  10.057  0.0078  0.0004 -0.0941
  878MOL0     H15861   7.501   8.731  10.149 -0.5203 -0.8161  0.7159
  878MOL0     H15862   7.398   9.026  10.439  0.0636  0.3507  2.0521
  878MOL0     H15863   7.436   8.920  10.572 -2.0615 -0.5859 -0.1378
  878MOL0     H15864   7.195   8.952  10.573  0.2489 -0.2723 -0.4362
  878MOL0     H15865   7.229   8.776  10.536  1.1939 -0.1479  1.7658
  878MOL0     H15866   7.154   8.822  10.302 -0.1261 -0.2964 -2.4562
  878MOL0     H15867   7.184   8.990  10.319  2.0888 -1.9780 -0.9736
  878MOL0     H15868   6.993   8.843  10.496  1.2375  0.1378  0.5209
  878MOL0     H15869   7.003   9.012  10.484  1.3944 -0.9683  1.6428
  878MOL0     H15870   6.933   8.817  10.258  1.0586 -1.4399  0.8453
  878MOL0     H15871   6.957   9.002  10.236  0.3018 -1.2765 -1.8621
  878MOL0     H15872   6.745   9.030  10.386  0.7389  0.1940 -0.2274
  878MOL0     H15873   6.759   8.860  10.419 -0.3393 -2.3404 -2.3012
  878MOL0     H15874   6.706   8.983  10.153  3.7259  0.8692  1.4064
  878MOL0     H15875   6.718   8.806  10.162  0.8042  1.0344 -2.6149
  878MOL0     H15876   6.469   8.904  10.166 -1.0744 -0.3316  0.2313
  878MOL0     H15877   6.512   8.985  10.311 -0.6683 -1.8143  1.4957
  878MOL0     H15878   7.666   8.915  10.501 -0.6407  1.2978 -0.8168
  878MOL0     H15879   7.884   8.906  10.408  0.3138  0.7443 -0.6160
  878MOL0     H15880   8.151   8.650  10.067  0.1749  0.7519 -1.3350
  878MOL0     H15881   8.378   8.599  10.031  0.2452  0.3531 -0.7593
  878MOL0     H15882  10.432   9.019  10.265 -0.0967 -2.6170 -0.4304
  878MOL0     H15883  10.659   8.986  10.159 -0.8120 -1.6691 -0.3724
  878MOL0     H15884  10.898   8.618   9.972 -0.9113  0.0642 -0.1757
  878MOL0     H15885  11.118   8.578   9.905  2.2465  0.9828 -0.0073
  878MOL0     H15886  11.417   8.792   9.915  0.2150 -0.8878 -0.0483
  878MOL0     H15887  11.374   8.919   9.809  4.0639  1.2901  0.9344
  878MOL0     H15888  11.480   8.782   9.625  0.5538  0.7480 -0.6381
  878MOL0     H15889  11.603   8.831   9.739  0.2871  0.4073 -3.2126
  878MOL0     H15890  11.628   8.600   9.674  1.4184  1.6804 -0.2298
  878MOL0     H15891  11.487   8.551   9.772 -1.1923 -0.1182  0.2577
  878MOL0     H15892  11.613   8.698   9.959 -1.5020 -2.8521  1.2260
  878MOL0     H15893  11.622   8.524   9.935  0.2186  0.4123  0.6614
  878MOL0     H15894  12.013   8.674   9.828 -1.2661  0.8511 -4.2384
  878MOL0     H15895  11.167   8.947   9.718 -0.4009  3.1903  2.9374
  878MOL0     H15896  10.926   9.006   9.765 -0.9091 -0.8908 -1.5527
  879MOL0     O15897   4.468   7.715   0.580  0.0670 -0.8891 -0.1867
  879MOL0     C15898   4.529   7.617   0.545  1.0991  0.0650  0.4742
  879MOL0     O15899   4.500   7.491   0.575 -0.1024  0.1399  0.1650
  879MOL0     C15900   4.380   7.452   0.618  0.5425  0.1128 -0.4199
  879MOL0     C15901   4.249   7.491   0.575 -0.7061  0.5796 -0.7244
  879MOL0     C15902   4.137   7.440   0.636  0.1013  0.5016 -0.1952
  879MOL0     C15903   4.148   7.342   0.736 -0.2899  0.1625  0.4505
  879MOL0     O15904   4.044   7.291   0.805  0.0684  0.6314  0.4545
  879MOL0     C15905   3.976   7.198   0.715  0.4274 -0.4556 -0.0589
  879MOL0     C15906   3.843   7.156   0.783 -0.0966  0.3930 -0.2375
  879MOL0     C15907   3.732   7.260   0.819  0.7809  0.5966 -0.2001
  879MOL0     C15908   3.682   7.348   0.700 -0.9199 -0.1845 -0.0125
  879MOL0     C15909   3.533   7.373   0.705  0.3645  0.5003 -0.5345
  879MOL0     C15910   3.488   7.474   0.805 -1.0476 -0.1583  0.3631
  879MOL0     C15911   3.340   7.508   0.799  0.2000  0.0198 -0.0585
  879MOL0     C15912   3.306   7.600   0.921  0.1819  0.5349 -0.3004
  879MOL0     N15913   3.166   7.643   0.936 -0.2687  0.4359  0.8177
  879MOL0     C15914   3.101   7.734   0.864 -0.4056  0.2647  0.2379
  879MOL0     C15915   2.973   7.720   0.900 -0.5032  0.2249 -0.1928
  879MOL0     C15916   2.871   7.813   0.852 -0.1801 -0.3412  0.9640
  879MOL0     C15917   2.727   7.746   0.854  0.3708  0.3074 -0.2111
  879MOL0     C15918   2.612   7.852   0.829  0.5532 -0.1459 -0.5900
  879MOL0     C15919   2.467   7.799   0.820 -0.0546  0.4824  0.1248
  879MOL0     O15920   2.399   7.924   0.789 -0.0621  0.1236  0.2035
  879MOL0     C15921   2.265   7.926   0.758 -0.2642 -0.3976  0.3574
  879MOL0     C15922   2.167   7.844   0.828 -0.3583  0.4918  0.4146
  879MOL0     C15923   2.030   7.831   0.791 -0.8549  0.0345  0.0716
  879MOL0     C15924   1.981   7.912   0.691  0.7504 -0.2191  0.3103
  879MOL0     C15925   1.844   7.884   0.640 -0.1485 -0.0414  0.0141
  879MOL0     O15926   1.796   7.972   0.553 -0.4157 -0.0329 -0.2468
  879MOL0     C15927   1.706   7.926   0.463 -0.4358 -0.3758  0.5040
  879MOL0     C15928   1.571   7.920   0.495  0.1228  0.2007  0.4744
  879MOL0     C15929   1.487   7.867   0.397 -0.0587  0.8370 -0.9362
  879MOL0     C15930   1.531   7.834   0.267 -0.3075 -0.2304  1.2252
  879MOL0     O15931   1.452   7.778   0.170 -0.1041  0.0670 -0.5186
  879MOL0     C15932   1.335   7.710   0.203 -0.3391 -0.2569  0.0371
  879MOL0     C15933   1.296   7.608   0.091  0.3838 -0.3158  0.2048
  879MOL0     C15934   1.172   7.534   0.120 -0.1048  0.6569 -0.3929
  879MOL0     C15935   1.139   7.425   0.017  0.7080  0.2933 -0.6027
  879MOL0     C15936   0.987   7.394   0.026 -0.5063  0.3884  0.3699
  879MOL0     C15937   0.944   7.288  -0.077 -0.1470  0.4148 -0.9376
  879MOL0     C15938   0.936   7.343  -0.217 -0.8293  0.8307  0.4996
  879MOL0     C15939   0.812   7.285  -0.288 -0.6122 -0.6399  0.7623
  879MOL0    Cl15940   0.814   7.317  -0.469 -0.1544 -0.0448  0.0261
  879MOL0     C15941   1.662   7.859   0.236  0.1745 -1.1395  0.1381
  879MOL0     C15942   1.749   7.895   0.334 -0.1495  0.0509 -0.2753
  879MOL0     O15943   1.771   7.791   0.689 -0.7347 -0.3549  0.4269
  879MOL0     C15944   2.073   8.001   0.627  0.1238 -0.3421  1.0933
  879MOL0     C15945   2.212   8.012   0.657 -0.3816  0.3720  0.4705
  879MOL0     N15946   2.958   7.641   1.009  0.2230 -0.1839  0.9735
  879MOL0     N15947   3.077   7.592   1.025 -0.6541  0.6944 -0.0155
  879MOL0     C15948   4.274   7.314   0.789  0.5404  0.1132 -0.3975
  879MOL0     C15949   4.388   7.367   0.734 -0.0479  0.2770 -0.2940
  879MOL0     C15950   4.655   7.649   0.468 -0.3193  0.1234 -0.6025
  879MOL0     C15951   4.709   7.555   0.375  0.5137  0.2683 -0.0855
  879MOL0     C15952   4.827   7.590   0.304 -0.1296  0.0530  0.1865
  879MOL0     C15953   4.888   7.713   0.331 -0.7835  0.5221  0.2337
  879MOL0     O15954   4.999   7.731   0.259 -1.0173 -0.5126  0.2991
  879MOL0     C15955   5.118   7.785   0.322  0.3631  0.2270  0.4013
  879MOL0     C15956   5.239   7.713   0.263  0.0809  0.0903  0.9012
  879MOL0     C15957   5.249   7.719   0.105 -0.4526 -0.1505 -0.2205
  879MOL0     C15958   5.389   7.715   0.048  0.2283 -0.0375  0.7337
  879MOL0     C15959   5.446   7.579   0.057 -0.4675 -0.1626 -0.9728
  879MOL0     C15960   5.508   7.471   0.072  0.1057 -0.3853  0.3407
  879MOL0     C15961   4.839   7.800   0.423 -0.6328 -0.4967  0.0379
  879MOL0     C15962   4.720   7.771   0.494 -0.8044  0.0181 -0.0914
  879MOL0     H15963   4.249   7.568   0.500  0.9567  1.9228  0.5672
  879MOL0     H15964   4.032   7.467   0.626  0.6996  2.9440 -0.5130
  879MOL0     H15965   4.044   7.113   0.704 -1.4232 -2.5299  2.9371
  879MOL0     H15966   3.946   7.248   0.623  0.3622  0.6704  0.5485
  879MOL0     H15967   3.861   7.101   0.876 -0.4544  0.8070  0.0840
  879MOL0     H15968   3.798   7.081   0.717  0.8327 -0.5760  0.2027
  879MOL0     H15969   3.771   7.328   0.894 -0.9704  1.5187 -0.0766
  879MOL0     H15970   3.646   7.211   0.865 -0.5008  1.8585 -1.1615
  879MOL0     H15971   3.733   7.444   0.688 -0.5690 -0.1948  1.3291
  879MOL0     H15972   3.713   7.289   0.613 -0.1286 -0.3555  0.3815
  879MOL0     H15973   3.493   7.274   0.729  0.6294  0.5793  0.2504
  879MOL0     H15974   3.494   7.402   0.606 -2.7652  0.1072  0.4624
  879MOL0     H15975   3.535   7.572   0.795  0.2407 -0.6977  0.9370
  879MOL0     H15976   3.523   7.445   0.904  0.6330  1.3098  0.2397
  879MOL0     H15977   3.310   7.561   0.708 -1.4652 -1.9014 -0.7121
  879MOL0     H15978   3.283   7.415   0.796  1.2651 -0.7014  1.0556
  879MOL0     H15979   3.368   7.688   0.900  0.9214  0.1585  0.2685
  879MOL0     H15980   3.339   7.548   1.011 -0.1162 -0.8159 -0.9490
  879MOL0     H15981   3.146   7.795   0.787 -3.2176 -0.1245 -1.9101
  879MOL0     H15982   2.880   7.843   0.748 -2.3401 -3.3376 -0.2011
  879MOL0     H15983   2.880   7.902   0.916  1.7394  0.8786 -0.8412
  879MOL0     H15984   2.705   7.688   0.944 -1.6511  2.5027  0.8071
  879MOL0     H15985   2.723   7.677   0.769 -3.1712  0.5090 -0.3363
  879MOL0     H15986   2.614   7.938   0.897  4.2056 -1.5084  1.2799
  879MOL0     H15987   2.643   7.889   0.731  0.4744 -0.4011 -0.7105
  879MOL0     H15988   2.441   7.763   0.920 -0.1440 -0.0512 -0.0866
  879MOL0     H15989   2.462   7.727   0.737 -0.4352  0.5869  0.0510
  879MOL0     H15990   2.202   7.780   0.909 -2.1944  0.4213  1.2097
  879MOL0     H15991   1.966   7.768   0.852 -0.5714  0.3224  0.6759
  879MOL0     H15992   1.543   7.942   0.598  0.4847 -1.1227  0.8773
  879MOL0     H15993   1.387   7.840   0.429  1.7503 -3.1099  2.2489
  879MOL0     H15994   1.257   7.783   0.223  0.5830 -0.0579  3.5597
  879MOL0     H15995   1.348   7.650   0.294  0.0728 -3.1132 -1.7651
  879MOL0     H15996   1.374   7.531   0.091  0.5479 -0.1967  2.3169
  879MOL0     H15997   1.291   7.653  -0.009  1.1049 -1.7447 -0.5037
  879MOL0     H15998   1.094   7.610   0.115 -0.8689 -0.1546 -1.3202
  879MOL0     H15999   1.183   7.494   0.221 -1.5258  0.6602 -0.2256
  879MOL0     H16000   1.157   7.456  -0.086  2.2645 -3.8118 -1.7758
  879MOL0     H16001   1.213   7.346   0.033 -0.2625 -1.1015 -2.5581
  879MOL0     H16002   0.931   7.488   0.024  0.2236  0.8205 -0.1157
  879MOL0     H16003   0.970   7.340   0.120  0.2897 -0.0153  0.2963
  879MOL0     H16004   0.844   7.259  -0.045  0.5308  0.7328  1.7012
  879MOL0     H16005   1.006   7.198  -0.071 -0.3679  0.3721  1.3177
  879MOL0     H16006   0.931   7.452  -0.212  1.1392  1.0619 -1.1350
  879MOL0     H16007   1.032   7.322  -0.267  0.0362  0.4105  2.2481
  879MOL0     H16008   0.721   7.331  -0.248  0.2544  0.9643  0.9674
  879MOL0     H16009   0.808   7.176  -0.285 -1.1912 -0.7158 -1.3161
  879MOL0     H16010   1.698   7.853   0.134 -0.5837  0.1884 -0.2366
  879MOL0     H16011   1.852   7.910   0.304 -0.1477  0.3380 -0.1359
  879MOL0     H16012   2.029   8.063   0.549  0.0670 -1.0969  0.5093
  879MOL0     H16013   2.281   8.079   0.607  0.5535 -0.4100  0.6956
  879MOL0     H16014   4.297   7.244   0.869 -0.5481 -2.0950 -1.9058
  879MOL0     H16015   4.480   7.335   0.783 -0.9959  0.8829  2.0026
  879MOL0     H16016   4.670   7.457   0.349  1.4301  0.4163 -2.1477
  879MOL0     H16017   4.870   7.525   0.229  0.9636  1.0475 -0.0834
  879MOL0     H16018   5.117   7.773   0.431  0.6518 -4.6467  0.0775
  879MOL0     H16019   5.120   7.893   0.304 -4.1667  0.4200 -0.2558
  879MOL0     H16020   5.334   7.753   0.301  1.1596  0.0834 -1.5547
  879MOL0     H16021   5.231   7.608   0.290 -1.4720  0.0843  0.4874
  879MOL0     H16022   5.204   7.816   0.079  0.7919  0.7200  0.7510
  879MOL0     H16023   5.201   7.632   0.059  1.5715 -1.3930 -0.0896
  879MOL0     H16024   5.393   7.734  -0.060  3.0393 -1.7792  0.4340
  879MOL0     H16025   5.447   7.801   0.082 -1.0411  2.0306 -1.9467
  879MOL0     H16026   5.565   7.381   0.068 -0.5097 -0.7353 -1.3583
  879MOL0     H16027   4.887   7.896   0.439 -1.8451  0.2860 -0.8592
  879MOL0     H16028   4.679   7.850   0.556  2.3600  2.7044 -1.1403
  880MOL0     O16029   7.657  11.233   7.736 -0.4433 -1.6559  0.2115
  880MOL0     C16030   7.685  11.150   7.655  0.2350  0.3500  0.0318
  880MOL0     O16031   7.586  11.074   7.599 -0.2106  0.1415 -0.2352
  880MOL0     C16032   7.458  11.125   7.601 -0.0018  0.2765 -0.4500
  880MOL0     C16033   7.358  11.028   7.638 -0.4171 -0.1299 -0.5608
  880MOL0     C16034   7.227  11.064   7.644 -0.4405 -0.4581  0.0215
  880MOL0     C16035   7.188  11.194   7.626 -0.1804 -1.1412  0.3739
  880MOL0     O16036   7.062  11.238   7.647  0.7679 -0.3167 -0.1560
  880MOL0     C16037   6.952  11.147   7.671  0.1725  0.0591  0.7955
  880MOL0     C16038   6.819  11.207   7.680 -0.2084  0.8570  0.6038
  880MOL0     C16039   6.785  11.304   7.568  0.6987 -0.1149  0.5353
  880MOL0     C16040   6.805  11.244   7.425  0.3850 -0.7386 -0.7382
  880MOL0     C16041   6.809  11.341   7.309 -0.6771  0.2904  0.2743
  880MOL0     C16042   6.715  11.466   7.326 -0.0046  0.8732  0.5951
  880MOL0     C16043   6.711  11.554   7.204 -0.1838  0.3309  0.2778
  880MOL0     C16044   6.704  11.488   7.060 -0.4324  0.0022 -0.3292
  880MOL0     N16045   6.685  11.604   6.966 -0.2836 -0.3092  0.3676
  880MOL0     C16046   6.568  11.674   6.953  0.2019  0.0509 -0.2002
  880MOL0     C16047   6.612  11.772   6.867 -0.0325  0.1730  0.4988
  880MOL0     C16048   6.526  11.883   6.826  0.1660 -0.4977  0.0806
  880MOL0     C16049   6.488  11.866   6.679 -0.0283 -0.4175 -0.1287
  880MOL0     C16050   6.367  11.955   6.647 -0.0264  0.3416  0.5807
  880MOL0     C16051   6.238  11.908   6.719  0.5588  0.1328 -0.0002
  880MOL0     O16052   6.132  11.958   6.645  0.5471 -0.8856 -0.0879
  880MOL0     C16053   6.009  11.981   6.696 -0.6043  0.5711  0.0988
  880MOL0     C16054   5.915  12.015   6.600 -0.4108 -0.6453  0.7627
  880MOL0     C16055   5.784  12.043   6.630 -0.0152  0.1294 -0.0460
  880MOL0     C16056   5.736  12.041   6.764 -0.9786 -0.7042 -0.3390
  880MOL0     C16057   5.599  12.080   6.811  0.4928 -0.5451  0.4985
  880MOL0     O16058   5.501  12.101   6.719  0.1680 -0.1936  0.0062
  880MOL0     C16059   5.371  12.120   6.755  0.0924 -0.0386 -0.8530
  880MOL0     C16060   5.310  12.090   6.883  0.8825  0.0125 -0.3963
  880MOL0     C16061   5.173  12.071   6.887  0.0901 -1.0036 -0.1794
  880MOL0     C16062   5.093  12.098   6.774 -1.0617  0.2713 -0.3834
  880MOL0     O16063   4.963  12.074   6.760  0.3099 -0.2759 -0.0641
  880MOL0     C16064   4.893  11.985   6.833 -0.4976  0.2799 -0.0385
  880MOL0     C16065   4.755  11.965   6.766  0.2790 -0.3618  0.3190
  880MOL0     C16066   4.668  12.095   6.771 -0.2489 -0.5879 -0.6421
  880MOL0     C16067   4.521  12.052   6.782 -0.3806  0.8631  0.5131
  880MOL0     C16068   4.478  11.976   6.655 -0.6513  0.2907  0.5204
  880MOL0     C16069   4.329  11.981   6.626  0.3706 -0.2694  0.3447
  880MOL0     C16070   4.246  11.933   6.744 -0.4449 -0.4918 -0.3516
  880MOL0     C16071   4.105  11.913   6.709  1.3010 -0.2333 -0.1461
  880MOL0    Cl16072   4.009  12.058   6.749 -0.0832 -0.2163 -0.0017
  880MOL0     C16073   5.155  12.141   6.663 -0.0930 -0.1697 -0.4492
  880MOL0     C16074   5.289  12.152   6.644 -0.1141 -0.2242  0.5476
  880MOL0     O16075   5.587  12.098   6.932  0.0601  0.9971 -0.1032
  880MOL0     C16076   5.840  12.015   6.861 -0.0427 -0.5818 -0.9308
  880MOL0     C16077   5.970  11.986   6.826  0.6742 -0.7755 -0.2938
  880MOL0     N16078   6.745  11.758   6.840  0.7289  0.5167  0.3454
  880MOL0     N16079   6.792  11.655   6.901  0.7467 -0.0523  0.9428
  880MOL0     C16080   7.286  11.293   7.585 -0.7384  0.0314  0.2686
  880MOL0     C16081   7.427  11.259   7.575  0.4064 -0.5587  0.0386
  880MOL0     C16082   7.822  11.121   7.617  0.2569 -0.2584 -0.0964
  880MOL0     C16083   7.927  11.197   7.682 -0.6510 -0.0929  0.3966
  880MOL0     C16084   8.060  11.174   7.654  1.0080 -0.6809 -0.2480
  880MOL0     C16085   8.091  11.088   7.548 -0.4567 -0.3152 -0.7661
  880MOL0     O16086   8.222  11.054   7.537  0.0731 -0.0572 -0.1403
  880MOL0     C16087   8.295  11.151   7.461 -0.0989 -0.2794  0.0348
  880MOL0     C16088   8.411  11.178   7.552 -0.1970 -0.0963 -0.1649
  880MOL0     C16089   8.529  11.240   7.467 -0.2397 -0.0157  0.4306
  880MOL0     C16090   8.653  11.250   7.557  0.4515 -0.7954 -0.6428
  880MOL0     C16091   8.761  11.316   7.482 -0.2550  0.0109  0.5524
  880MOL0     C16092   8.857  11.356   7.423  0.0292  0.7349  0.0225
  880MOL0     C16093   7.996  11.011   7.490 -0.3652  0.2089  0.0008
  880MOL0     C16094   7.859  11.025   7.524  0.1531  0.2370  0.3387
  880MOL0     H16095   7.378  10.922   7.649  0.9095  0.1138 -0.5486
  880MOL0     H16096   7.158  10.984   7.666 -1.1816  0.1123 -0.1829
  880MOL0     H16097   6.975  11.082   7.756 -0.4320 -1.6912 -0.3106
  880MOL0     H16098   6.947  11.070   7.594 -3.0575 -0.3190  1.2579
  880MOL0     H16099   6.821  11.267   7.771 -1.9068  2.1687 -0.1654
  880MOL0     H16100   6.740  11.131   7.686  1.2097 -0.5542  2.1813
  880MOL0     H16101   6.847  11.391   7.589 -2.0914  1.8086  1.4255
  880MOL0     H16102   6.681  11.339   7.578  0.7330 -0.0838  0.7692
  880MOL0     H16103   6.899  11.190   7.419  0.2244 -0.9454 -1.5632
  880MOL0     H16104   6.720  11.178   7.406 -3.8375  3.8562  0.1058
  880MOL0     H16105   6.788  11.282   7.220 -1.7562 -0.9885  1.3393
  880MOL0     H16106   6.910  11.382   7.303 -1.0496  1.4499  1.3673
  880MOL0     H16107   6.753  11.534   7.404  0.2722  1.4539 -0.0354
  880MOL0     H16108   6.617  11.429   7.357  0.7161  0.6582  2.8165
  880MOL0     H16109   6.628  11.626   7.209 -0.4576  0.1259 -1.0399
  880MOL0     H16110   6.800  11.618   7.202  0.8971 -1.1001  0.6475
  880MOL0     H16111   6.618  11.421   7.050  0.4153 -0.9338 -1.9499
  880MOL0     H16112   6.793  11.435   7.024  0.0448 -0.9997  2.1300
  880MOL0     H16113   6.466  11.647   6.978  0.1047 -0.5318 -1.1710
  880MOL0     H16114   6.588  11.972   6.835  2.8489 -2.1351 -0.9725
  880MOL0     H16115   6.439  11.898   6.890 -0.2030 -4.8654  0.9641
  880MOL0     H16116   6.460  11.765   6.649 -0.8509  0.3130 -1.9736
  880MOL0     H16117   6.574  11.899   6.620  1.2858  0.4734  2.1552
  880MOL0     H16118   6.391  12.060   6.665 -0.1868  0.5438 -0.3343
  880MOL0     H16119   6.347  11.948   6.539 -2.2125 -0.8394  0.9991
  880MOL0     H16120   6.220  11.931   6.824 -2.6151 -2.2058  0.1196
  880MOL0     H16121   6.227  11.799   6.708 -0.4917  0.2003  0.2348
  880MOL0     H16122   5.939  12.023   6.495 -0.3670 -1.2747  0.7167
  880MOL0     H16123   5.719  12.070   6.548 -1.9693 -0.9037  1.0779
  880MOL0     H16124   5.373  12.054   6.964  1.0276  3.0146  0.9895
  880MOL0     H16125   5.135  12.030   6.980  0.5030 -0.3730  0.2754
  880MOL0     H16126   4.885  12.014   6.938  0.7348 -2.4481  0.9124
  880MOL0     H16127   4.947  11.891   6.819 -0.3782 -0.3225  3.5495
  880MOL0     H16128   4.708  11.881   6.817 -0.4329  0.0141  0.2978
  880MOL0     H16129   4.778  11.936   6.663  0.1617  0.3404  0.0895
  880MOL0     H16130   4.679  12.166   6.689 -0.9279  0.3711  0.0814
  880MOL0     H16131   4.689  12.149   6.864  1.4980 -1.0975 -0.6935
  880MOL0     H16132   4.510  11.983   6.867  0.1218  0.6958  0.4503
  880MOL0     H16133   4.455  12.133   6.812 -1.4831 -0.3635  1.5589
  880MOL0     H16134   4.509  11.871   6.661 -2.0120 -0.3665 -2.1221
  880MOL0     H16135   4.524  12.020   6.565  0.5476  0.4941  1.2100
  880MOL0     H16136   4.314  11.913   6.542 -1.1300 -0.2268  0.5438
  880MOL0     H16137   4.295  12.082   6.598  0.2540 -0.1510  0.8995
  880MOL0     H16138   4.284  11.833   6.771  0.7257 -0.1652 -0.7144
  880MOL0     H16139   4.262  12.001   6.828  0.1087 -3.6702  2.3756
  880MOL0     H16140   4.055  11.842   6.775 -1.4267 -1.2226 -3.0192
  880MOL0     H16141   4.099  11.873   6.607  1.7915 -1.0324  0.1248
  880MOL0     H16142   5.099  12.163   6.573 -0.0993 -1.8438 -0.8820
  880MOL0     H16143   5.332  12.175   6.547 -1.3709  0.6332  0.1597
  880MOL0     H16144   5.817  12.020   6.967 -4.7611  3.6959 -1.7325
  880MOL0     H16145   6.035  11.953   6.906  0.0468 -0.1985  0.4604
  880MOL0     H16146   7.257  11.396   7.569  1.4820  0.5739 -0.5944
  880MOL0     H16147   7.502  11.331   7.542 -1.5969  1.4813 -0.3028
  880MOL0     H16148   7.903  11.255   7.770 -1.1836 -1.2764  1.0638
  880MOL0     H16149   8.132  11.219   7.721  2.3814 -0.8157 -1.5776
  880MOL0     H16150   8.245  11.246   7.438  1.4247  0.7002  0.6631
  880MOL0     H16151   8.326  11.105   7.367 -3.2191 -0.4001 -1.0689
  880MOL0     H16152   8.382  11.241   7.637 -0.9533  0.1047 -0.5603
  880MOL0     H16153   8.448  11.081   7.587 -0.7147 -1.0837 -2.2077
  880MOL0     H16154   8.510  11.343   7.436 -0.4608  0.1820  1.2043
  880MOL0     H16155   8.545  11.173   7.382 -2.3871 -0.9463  0.6895
  880MOL0     H16156   8.636  11.316   7.642 -1.5479 -0.3628 -1.3289
  880MOL0     H16157   8.674  11.152   7.602 -1.7257  0.2316  3.0306
  880MOL0     H16158   8.951  11.378   7.376  0.8033  0.8183  1.5545
  880MOL0     H16159   8.032  10.945   7.411  0.9503 -2.1949  2.4289
  880MOL0     H16160   7.777  10.972   7.477  1.5858 -1.1571 -0.7105
  881MOL0     O16161   1.329   2.350   4.050 -0.4713  0.6547  0.0181
  881MOL0     C16162   1.344   2.315   3.937 -0.1664  0.4571  0.5255
  881MOL0     O16163   1.243   2.312   3.846  0.0689  0.0972  0.2850
  881MOL0     C16164   1.126   2.343   3.896 -0.1417  0.2223 -0.3194
  881MOL0     C16165   1.064   2.465   3.865  0.0204 -0.6564  0.4970
  881MOL0     C16166   0.936   2.496   3.915  0.0045 -0.1189 -0.2986
  881MOL0     C16167   0.870   2.403   3.996 -0.1923 -0.1218  0.7533
  881MOL0     O16168   0.752   2.429   4.059 -0.6300  0.2766 -0.1290
  881MOL0     C16169   0.646   2.506   3.997  0.2897 -0.7533 -0.3441
  881MOL0     C16170   0.604   2.452   3.858 -0.0985  0.2442 -0.1749
  881MOL0     C16171   0.581   2.292   3.856 -0.3184 -0.3506  0.6473
  881MOL0     C16172   0.465   2.247   3.943  0.8805  0.1525  0.1047
  881MOL0     C16173   0.332   2.295   3.888 -0.8226 -1.0988  0.8744
  881MOL0     C16174   0.206   2.255   3.965 -0.3006 -0.8954  0.5403
  881MOL0     C16175   0.081   2.316   3.915  0.3557 -1.5176 -1.0522
  881MOL0     C16176   0.060   2.281   3.776  0.2443 -0.4361  0.8750
  881MOL0     N16177  -0.075   2.322   3.724 -1.4057 -0.0633  0.8128
  881MOL0     C16178  -0.138   2.433   3.759 -0.0584 -0.3450  0.9175
  881MOL0     C16179  -0.271   2.423   3.724 -0.0961  0.2149 -0.4381
  881MOL0     C16180  -0.378   2.520   3.747  0.1164 -1.1318  0.4614
  881MOL0     C16181  -0.498   2.508   3.647 -0.2981  0.4964 -0.8284
  881MOL0     C16182  -0.582   2.639   3.645  0.1050 -0.2223 -0.0963
  881MOL0     C16183  -0.666   2.631   3.513 -0.7012  0.3568 -0.2301
  881MOL0     O16184  -0.745   2.751   3.501 -0.3331 -0.4021  0.6851
  881MOL0     C16185  -0.823   2.759   3.382 -0.3000 -0.0908 -0.0114
  881MOL0     C16186  -0.840   2.650   3.284 -0.3952  0.1547  1.0122
  881MOL0     C16187  -0.913   2.678   3.167 -0.7837 -0.6072  0.1415
  881MOL0     C16188  -0.979   2.806   3.148  0.0207 -0.1669  1.0186
  881MOL0     C16189  -1.056   2.837   3.029 -0.0454  0.6389 -1.2238
  881MOL0     O16190  -1.042   2.743   2.931  0.4319  0.2901 -0.7252
  881MOL0     C16191  -1.121   2.751   2.823  0.1895  0.5482 -0.4773
  881MOL0     C16192  -1.065   2.718   2.699 -0.1559  0.0716 -0.0369
  881MOL0     C16193  -1.139   2.724   2.582  0.7108 -0.4469  0.3857
  881MOL0     C16194  -1.272   2.764   2.576  0.4699  0.1741  0.8445
  881MOL0     O16195  -1.334   2.737   2.454 -0.0289 -0.2620 -0.1376
  881MOL0     C16196  -1.465   2.796   2.439 -0.5588  0.1146 -0.1170
  881MOL0     C16197  -1.498   2.787   2.287 -0.2967 -0.0375  0.9326
  881MOL0     C16198  -1.524   2.642   2.246  0.0653  0.0444 -0.5104
  881MOL0     C16199  -1.529   2.623   2.097  0.1039 -0.4661 -1.4268
  881MOL0     C16200  -1.574   2.476   2.066  0.4687 -0.1384  0.4232
  881MOL0     C16201  -1.624   2.471   1.916  0.1955  0.1156 -0.2252
  881MOL0     C16202  -1.786   2.470   1.911 -0.4400  0.0680  0.3658
  881MOL0     C16203  -1.827   2.464   1.767  1.2759 -0.1887  0.1319
  881MOL0    Cl16204  -1.995   2.493   1.727  0.3214 -0.0168 -0.4046
  881MOL0     C16205  -1.337   2.786   2.700  0.0537 -0.2311 -0.0155
  881MOL0     C16206  -1.265   2.775   2.823 -0.5050  1.0245 -0.0853
  881MOL0     O16207  -1.129   2.936   3.026 -0.0483 -0.1052 -0.1793
  881MOL0     C16208  -0.971   2.898   3.253 -0.0488 -0.2564  0.6453
  881MOL0     C16209  -0.892   2.873   3.364 -0.9950  0.8421  0.3911
  881MOL0     N16210  -0.284   2.291   3.675 -0.2583 -0.0924 -0.1063
  881MOL0     N16211  -0.164   2.233   3.668 -0.3593  0.4715  0.4791
  881MOL0     C16212   0.935   2.292   4.037 -0.4716 -0.1022  1.2579
  881MOL0     C16213   1.062   2.261   3.990  0.8946  0.0406  0.2661
  881MOL0     C16214   1.471   2.237   3.900  1.6039 -1.1488  0.7894
  881MOL0     C16215   1.585   2.231   3.984  0.7174 -0.0930  0.0001
  881MOL0     C16216   1.704   2.179   3.938  0.4729  0.2157  0.0245
  881MOL0     C16217   1.720   2.125   3.812  0.0115  0.6485 -1.0210
  881MOL0     O16218   1.843   2.079   3.776  0.0344 -0.3021 -0.1600
  881MOL0     C16219   1.876   1.939   3.803  0.1046  1.1020  0.5823
  881MOL0     C16220   2.023   1.939   3.829  1.0097  0.3915  0.3992
  881MOL0     C16221   2.058   1.786   3.817 -0.7502 -0.2151 -0.0624
  881MOL0     C16222   2.180   1.747   3.902 -0.0698  0.5170 -0.4859
  881MOL0     C16223   2.140   1.739   4.045 -0.6736  0.5018 -0.4067
  881MOL0     C16224   2.100   1.728   4.158 -0.0486  0.0087  0.5685
  881MOL0     C16225   1.603   2.117   3.735  0.1540  0.2736 -0.8691
  881MOL0     C16226   1.482   2.177   3.772  0.0028  0.3055 -0.2376
  881MOL0     H16227   1.115   2.530   3.795  1.4366 -1.1621  1.0186
  881MOL0     H16228   0.875   2.582   3.891 -2.7533 -1.6403  0.7598
  881MOL0     H16229   0.681   2.609   3.989 -1.9455  0.0763 -0.2438
  881MOL0     H16230   0.554   2.510   4.056  1.1245 -2.3494  1.1419
  881MOL0     H16231   0.689   2.478   3.794 -1.5951  2.6993 -1.3101
  881MOL0     H16232   0.524   2.509   3.810 -0.3012  1.2184  1.2718
  881MOL0     H16233   0.678   2.248   3.881 -0.2007 -1.2605 -1.2855
  881MOL0     H16234   0.549   2.263   3.756 -4.1055  2.5162  0.7756
  881MOL0     H16235   0.464   2.140   3.966 -0.0846  0.4835  1.7951
  881MOL0     H16236   0.471   2.291   4.043  0.9292 -2.2299  1.1946
  881MOL0     H16237   0.329   2.234   3.797 -0.8476  0.8961 -0.5201
  881MOL0     H16238   0.343   2.397   3.852  1.5525 -2.0386 -1.4131
  881MOL0     H16239   0.221   2.284   4.069  0.2452  1.5527 -0.1599
  881MOL0     H16240   0.200   2.146   3.960 -1.1021 -0.8086 -0.9925
  881MOL0     H16241  -0.006   2.296   3.979  0.4424 -2.9504 -1.3593
  881MOL0     H16242   0.098   2.424   3.924  0.2058 -1.5559 -0.2250
  881MOL0     H16243   0.078   2.174   3.763 -0.3510 -0.1508 -5.2480
  881MOL0     H16244   0.132   2.330   3.709 -0.9118  1.1200  0.7165
  881MOL0     H16245  -0.094   2.523   3.800  0.2584 -1.2692  2.6982
  881MOL0     H16246  -0.340   2.623   3.741 -1.1556 -0.7106 -1.1729
  881MOL0     H16247  -0.427   2.507   3.844 -2.7639 -1.0558 -0.8920
  881MOL0     H16248  -0.561   2.421   3.669  0.6493  0.6055  3.0952
  881MOL0     H16249  -0.455   2.498   3.547 -2.8282  1.3608 -2.0935
  881MOL0     H16250  -0.636   2.653   3.739 -0.2554  1.0273 -0.4688
  881MOL0     H16251  -0.515   2.725   3.637  0.7932 -0.5534  1.7624
  881MOL0     H16252  -0.737   2.550   3.531 -0.8880  1.0342  2.6150
  881MOL0     H16253  -0.608   2.607   3.424  2.8653  0.7425  1.7747
  881MOL0     H16254  -0.784   2.558   3.294  2.8336  2.0379  1.6687
  881MOL0     H16255  -0.920   2.601   3.091  0.1372  0.0481 -0.6209
  881MOL0     H16256  -0.959   2.699   2.688 -0.1768 -0.6919  1.0033
  881MOL0     H16257  -1.086   2.724   2.487  2.4102 -1.0924  1.2984
  881MOL0     H16258  -1.465   2.905   2.446 -3.3758  0.4435 -3.0018
  881MOL0     H16259  -1.544   2.761   2.506  0.7807 -0.6708  1.1118
  881MOL0     H16260  -1.416   2.827   2.227 -0.8433  1.0058  0.8518
  881MOL0     H16261  -1.586   2.849   2.266  0.8486  1.1261 -0.6797
  881MOL0     H16262  -1.621   2.612   2.285  0.7475  0.8699  2.0024
  881MOL0     H16263  -1.455   2.573   2.296 -0.6009  0.7636  1.5073
  881MOL0     H16264  -1.604   2.695   2.063 -1.1699 -1.8413 -1.6105
  881MOL0     H16265  -1.431   2.643   2.052  0.0142  0.6825 -1.1471
  881MOL0     H16266  -1.654   2.445   2.133 -1.2944  1.3759 -0.8966
  881MOL0     H16267  -1.492   2.405   2.082 -0.6931 -1.8108 -0.7174
  881MOL0     H16268  -1.576   2.390   1.859 -0.3681 -0.1261 -0.3571
  881MOL0     H16269  -1.601   2.565   1.863 -4.2436  2.8219  2.0977
  881MOL0     H16270  -1.834   2.392   1.972  1.0245  0.5193  2.1830
  881MOL0     H16271  -1.831   2.560   1.955 -2.0229 -1.9252  3.2016
  881MOL0     H16272  -1.801   2.363   1.734 -0.4002 -0.5026 -0.3003
  881MOL0     H16273  -1.787   2.547   1.708 -0.1609 -0.2058 -0.9214
  881MOL0     H16274  -1.446   2.794   2.702  0.1268  0.7686  1.0253
  881MOL0     H16275  -1.307   2.789   2.923  0.8680 -1.3223  0.8893
  881MOL0     H16276  -1.032   2.986   3.239 -1.3422 -1.0290  1.2180
  881MOL0     H16277  -0.878   2.954   3.434 -1.5715  1.6531 -0.4178
  881MOL0     H16278   0.880   2.222   4.100  0.1240 -0.1527  1.7276
  881MOL0     H16279   1.115   2.169   4.015 -0.9648 -1.0023  0.5494
  881MOL0     H16280   1.573   2.268   4.085  0.6965  0.0391 -0.0513
  881MOL0     H16281   1.788   2.179   4.006  1.0632 -1.1877 -0.6733
  881MOL0     H16282   1.852   1.871   3.721  0.0607 -2.3018  3.1858
  881MOL0     H16283   1.828   1.900   3.893  1.0051  0.6729  0.8870
  881MOL0     H16284   2.069   2.001   3.753 -1.8683  0.3528 -1.5178
  881MOL0     H16285   2.040   1.981   3.929 -5.3640  0.2769  2.0016
  881MOL0     H16286   2.096   1.765   3.717  2.7515  2.0620  0.5810
  881MOL0     H16287   1.983   1.722   3.864 -0.0483  0.7301  2.5581
  881MOL0     H16288   2.225   1.651   3.877  1.0577  1.0705 -0.6520
  881MOL0     H16289   2.258   1.823   3.905  2.3500 -1.8227  2.9499
  881MOL0     H16290   2.061   1.736   4.258 -0.8991  1.0018  0.1816
  881MOL0     H16291   1.601   2.074   3.635 -0.7722 -1.6362 -0.0660
  881MOL0     H16292   1.412   2.185   3.689 -2.2415 -1.4272  1.3825
  882MOL0     O16293  10.827   8.238   3.907 -0.1316 -0.2083 -0.4056
  882MOL0     C16294  10.881   8.215   3.799  0.2396  0.9007 -0.3397
  882MOL0     O16295  10.820   8.194   3.683 -0.7308  0.5411  0.3299
  882MOL0     C16296  10.683   8.222   3.678  0.2146  0.6573  0.4946
  882MOL0     C16297  10.636   8.292   3.572 -0.0485 -0.3025  0.6369
  882MOL0     C16298  10.495   8.325   3.553  0.3709 -0.2854 -0.7265
  882MOL0     C16299  10.408   8.272   3.647 -1.0142 -0.0829  0.5244
  882MOL0     O16300  10.273   8.306   3.629 -0.1494 -0.1407 -0.4226
  882MOL0     C16301  10.181   8.208   3.663 -0.3122  0.1442 -0.1687
  882MOL0     C16302  10.035   8.256   3.634 -0.5774  0.0480 -0.2707
  882MOL0     C16303   9.937   8.147   3.602  0.0325  0.5512  0.0215
  882MOL0     C16304   9.931   8.128   3.450 -0.0715  0.2982 -0.1351
  882MOL0     C16305   9.845   8.011   3.417 -0.3268 -0.2505  0.0008
  882MOL0     C16306   9.696   8.033   3.432  0.2127 -1.0050  0.1894
  882MOL0     C16307   9.607   7.926   3.369  0.0463 -0.0166 -0.1682
  882MOL0     C16308   9.571   7.824   3.479 -0.1593  0.4618  0.8904
  882MOL0     N16309   9.437   7.846   3.527 -0.4215 -0.5311 -0.1291
  882MOL0     C16310   9.331   7.809   3.459 -0.1528  0.2614  0.3724
  882MOL0     C16311   9.230   7.837   3.550  0.2638 -0.5386 -0.2253
  882MOL0     C16312   9.084   7.818   3.525  0.1511  0.7496 -0.8011
  882MOL0     C16313   9.002   7.835   3.655 -0.1755 -0.4761  0.1552
  882MOL0     C16314   8.849   7.870   3.629  0.2544  0.1025  0.4263
  882MOL0     C16315   8.777   7.740   3.591  0.1395  0.2311  0.2086
  882MOL0     O16316   8.634   7.752   3.621 -0.2321  0.1339  0.1169
  882MOL0     C16317   8.583   7.737   3.743 -0.5335  0.1151 -0.0672
  882MOL0     C16318   8.667   7.715   3.858  0.6661 -0.3657  0.4993
  882MOL0     C16319   8.612   7.705   3.987 -0.3652 -0.0676 -0.0849
  882MOL0     C16320   8.476   7.711   4.007  0.2234 -0.2069 -0.3148
  882MOL0     C16321   8.413   7.695   4.142  0.3599 -0.2490 -0.5630
  882MOL0     O16322   8.288   7.749   4.163  0.1932 -0.7368  0.1757
  882MOL0     C16323   8.225   7.757   4.287  0.5277 -0.9113  0.5166
  882MOL0     C16324   8.087   7.766   4.276  0.0472  0.0394 -0.0391
  882MOL0     C16325   8.013   7.788   4.394 -0.8305  0.8743  1.0147
  882MOL0     C16326   8.073   7.817   4.513  0.0038 -0.0828 -0.2615
  882MOL0     O16327   8.006   7.883   4.617  1.2370 -0.0141  0.0567
  882MOL0     C16328   7.864   7.876   4.605  0.3023 -0.4886 -0.7548
  882MOL0     C16329   7.801   7.942   4.728 -0.1695 -0.3458 -0.2159
  882MOL0     C16330   7.665   8.013   4.704  0.0775  0.3876  0.1777
  882MOL0     C16331   7.557   7.912   4.665 -0.4708 -0.0974  0.4855
  882MOL0     C16332   7.422   7.984   4.643  0.5560  1.0675  0.7788
  882MOL0     C16333   7.348   8.003   4.781  0.0433 -0.7733  0.3065
  882MOL0     C16334   7.205   8.036   4.747  0.0861  0.5127 -0.4689
  882MOL0     C16335   7.109   7.999   4.861 -0.2362 -0.0497  0.2154
  882MOL0    Cl16336   7.148   8.096   5.006 -0.0548  0.0096  0.3388
  882MOL0     C16337   8.215   7.801   4.522  0.1205  0.8999 -0.6479
  882MOL0     C16338   8.283   7.780   4.407 -0.0921 -0.1122 -0.1202
  882MOL0     O16339   8.475   7.634   4.226  0.2025 -0.3949 -0.5025
  882MOL0     C16340   8.396   7.733   3.892  0.5490  0.1837  0.1856
  882MOL0     C16341   8.447   7.743   3.760  0.4797 -0.4965  0.7399
  882MOL0     N16342   9.286   7.893   3.663  0.3702  0.0790 -0.0933
  882MOL0     N16343   9.413   7.893   3.651 -0.2363  0.4366 -0.0114
  882MOL0     C16344  10.451   8.187   3.749  1.0937 -0.5311  1.2475
  882MOL0     C16345  10.582   8.153   3.750 -0.6778 -0.2413  0.4876
  882MOL0     C16346  11.029   8.211   3.810  0.0548 -0.0926  0.7265
  882MOL0     C16347  11.090   8.205   3.936  0.2107  0.0827  0.0419
  882MOL0     C16348  11.228   8.210   3.949  0.5400  0.1850 -0.3332
  882MOL0     C16349  11.313   8.199   3.828  0.7882 -0.7473 -0.3975
  882MOL0     O16350  11.448   8.177   3.825 -0.3883 -0.1254 -0.2695
  882MOL0     C16351  11.512   8.189   3.954 -0.3153  0.1915  0.4167
  882MOL0     C16352  11.661   8.148   3.921  0.0120 -0.7925  0.3441
  882MOL0     C16353  11.737   8.236   3.811  0.1085  0.7987  0.0373
  882MOL0     C16354  11.705   8.384   3.843 -0.4069 -0.7413 -0.2879
  882MOL0     C16355  11.778   8.480   3.760 -0.2754 -0.2253 -0.4429
  882MOL0     C16356  11.825   8.567   3.689 -0.0406  0.0342  0.0888
  882MOL0     C16357  11.252   8.209   3.701 -0.0513 -0.0385 -0.1901
  882MOL0     C16358  11.117   8.215   3.697  0.2687 -0.2195  1.0134
  882MOL0     H16359  10.706   8.339   3.504 -0.7770 -0.7479 -0.4531
  882MOL0     H16360  10.449   8.388   3.478  1.7112  0.8829 -0.5937
  882MOL0     H16361  10.174   8.180   3.768  2.1564 -1.1462 -0.2711
  882MOL0     H16362  10.200   8.118   3.605  3.0278  1.0369 -0.6490
  882MOL0     H16363  10.023   8.335   3.558 -5.2858  2.7307  2.7297
  882MOL0     H16364   9.989   8.304   3.720  0.9883  1.2945 -0.0785
  882MOL0     H16365   9.835   8.179   3.625 -0.1029  0.2957 -0.2036
  882MOL0     H16366   9.954   8.053   3.656  0.0907  0.7508  0.3529
  882MOL0     H16367   9.905   8.218   3.392 -0.4827  0.4325  0.2626
  882MOL0     H16368  10.031   8.109   3.409  0.7985 -0.2184  2.0795
  882MOL0     H16369   9.874   7.928   3.483  1.3296  1.7662  1.9600
  882MOL0     H16370   9.873   7.984   3.315 -0.2973 -0.1054 -0.0296
  882MOL0     H16371   9.666   8.121   3.375 -1.3135 -1.9518 -0.5447
  882MOL0     H16372   9.673   8.039   3.538  1.1566 -1.3720  0.4268
  882MOL0     H16373   9.518   7.971   3.323 -0.0726 -1.1783 -1.1310
  882MOL0     H16374   9.656   7.873   3.286  1.1835  0.1096  0.4054
  882MOL0     H16375   9.645   7.824   3.561  3.2318  0.2765 -1.9198
  882MOL0     H16376   9.586   7.724   3.437  0.8243  0.7487  0.5289
  882MOL0     H16377   9.335   7.765   3.360 -0.0196  3.1985 -1.0256
  882MOL0     H16378   9.066   7.715   3.491  1.3774 -0.4177  1.7898
  882MOL0     H16379   9.055   7.885   3.443 -0.0083  1.0225 -0.5228
  882MOL0     H16380   9.054   7.919   3.702  0.8098 -0.0924 -1.5443
  882MOL0     H16381   9.019   7.745   3.714  0.7965 -0.7659 -0.5473
  882MOL0     H16382   8.807   7.903   3.724 -0.4998  2.6310 -0.6998
  882MOL0     H16383   8.833   7.950   3.557  0.8260 -0.4873 -0.3737
  882MOL0     H16384   8.820   7.656   3.646  1.1862  1.5070  1.3946
  882MOL0     H16385   8.781   7.717   3.484  1.8089  0.1788  0.2571
  882MOL0     H16386   8.774   7.708   3.840  0.5729 -1.3660  0.2949
  882MOL0     H16387   8.675   7.693   4.075 -2.3609 -2.2884  1.1618
  882MOL0     H16388   8.042   7.752   4.178 -0.2989 -0.1684  0.1463
  882MOL0     H16389   7.906   7.785   4.378 -0.5983 -0.3256 -0.4157
  882MOL0     H16390   7.821   7.776   4.597 -0.1613 -0.2962 -0.6957
  882MOL0     H16391   7.836   7.941   4.522 -1.0018 -0.9358 -0.6837
  882MOL0     H16392   7.870   8.016   4.769 -1.7491  2.5848 -2.4843
  882MOL0     H16393   7.794   7.861   4.802  2.8428 -1.3045 -0.8307
  882MOL0     H16394   7.672   8.084   4.621 -2.7166  0.5069 -0.0712
  882MOL0     H16395   7.629   8.066   4.792 -1.2963 -2.5539  1.5359
  882MOL0     H16396   7.581   7.846   4.581 -1.0709  1.6827 -1.1709
  882MOL0     H16397   7.552   7.849   4.754  0.2377 -0.0510  0.5593
  882MOL0     H16398   7.368   7.919   4.574  1.1988  0.0970  1.1738
  882MOL0     H16399   7.440   8.079   4.592  1.4880 -0.0152 -1.0005
  882MOL0     H16400   7.386   8.090   4.836  0.3724  0.1236 -1.2812
  882MOL0     H16401   7.350   7.910   4.838 -0.4963 -0.2501  1.1912
  882MOL0     H16402   7.193   8.142   4.721 -3.0589  0.1174 -1.0653
  882MOL0     H16403   7.164   7.982   4.660 -1.1282  1.3258 -0.4333
  882MOL0     H16404   7.130   7.895   4.888  1.5776 -0.4192 -2.2258
  882MOL0     H16405   7.003   7.999   4.835  0.1956 -0.2217 -1.7670
  882MOL0     H16406   8.253   7.835   4.618 -1.3124 -1.2798  0.7749
  882MOL0     H16407   8.392   7.782   4.399 -0.0802 -1.4773 -0.6742
  882MOL0     H16408   8.289   7.747   3.906  0.8530  2.6753  0.6176
  882MOL0     H16409   8.381   7.770   3.679  3.6953  2.3255 -1.1962
  882MOL0     H16410  10.366   8.152   3.807 -1.6475 -1.6884 -2.9679
  882MOL0     H16411  10.611   8.080   3.825 -4.4158 -1.2309  1.1652
  882MOL0     H16412  11.022   8.199   4.020 -0.5968  1.6306 -0.4329
  882MOL0     H16413  11.274   8.214   4.047 -1.6849  3.3574  0.7608
  882MOL0     H16414  11.469   8.124   4.031  0.0879  0.5325  0.9360
  882MOL0     H16415  11.503   8.289   3.996  2.2799  1.1168 -1.0187
  882MOL0     H16416  11.722   8.155   4.012 -3.1168  0.2227  2.5605
  882MOL0     H16417  11.660   8.043   3.890 -1.8992 -0.6730 -0.1424
  882MOL0     H16418  11.694   8.214   3.712 -1.7651  3.3174  0.2060
  882MOL0     H16419  11.845   8.216   3.815  0.1461  0.9067 -0.3913
  882MOL0     H16420  11.600   8.407   3.825  0.2421  2.7946 -0.2807
  882MOL0     H16421  11.725   8.410   3.947 -2.4964 -0.6512  0.1208
  882MOL0     H16422  11.869   8.655   3.647  1.6088 -0.1122  1.3951
  882MOL0     H16423  11.311   8.196   3.611 -0.1586 -0.4073 -0.2095
  882MOL0     H16424  11.073   8.219   3.598  1.1296 -3.8786  0.3236
  883MOL0     O16425   5.342  11.026   7.872 -0.1688  0.1627 -0.5231
  883MOL0     C16426   5.373  11.123   7.942  0.0251 -0.4031  0.4620
  883MOL0     O16427   5.304  11.231   7.964 -0.5436 -0.3420  0.1418
  883MOL0     C16428   5.171  11.244   7.936  0.6691  0.2355 -0.2490
  883MOL0     C16429   5.120  11.368   7.914  0.8213 -0.3953 -0.0829
  883MOL0     C16430   4.981  11.398   7.909  0.4001 -0.2987 -0.1719
  883MOL0     C16431   4.887  11.304   7.894 -0.3732  0.3907  0.1408
  883MOL0     O16432   4.757  11.350   7.874  0.1501 -0.1590 -0.1518
  883MOL0     C16433   4.649  11.255   7.857  0.0480 -0.1834  0.1653
  883MOL0     C16434   4.511  11.320   7.857  0.3879 -0.5787 -0.3467
  883MOL0     C16435   4.394  11.222   7.824  0.0927  0.2605 -0.0932
  883MOL0     C16436   4.396  11.158   7.682 -0.6776  0.5388 -0.4647
  883MOL0     C16437   4.288  11.055   7.668 -0.6019 -0.1526  0.0723
  883MOL0     C16438   4.236  11.031   7.526  0.1620 -0.3311  0.0473
  883MOL0     C16439   4.102  10.961   7.517  0.3541  0.6862  0.3958
  883MOL0     C16440   4.118  10.814   7.552  0.0810 -0.2345  0.4235
  883MOL0     N16441   4.214  10.734   7.473 -0.1791 -0.1307 -0.8211
  883MOL0     C16442   4.212  10.699   7.341  0.2217 -0.0231  0.3293
  883MOL0     C16443   4.332  10.646   7.314  0.3106 -0.3721  0.4068
  883MOL0     C16444   4.384  10.590   7.184 -0.8374  0.6224 -0.2390
  883MOL0     C16445   4.542  10.573   7.176  0.2930 -0.5383 -0.7732
  883MOL0     C16446   4.604  10.707   7.158  0.6285  0.0073  0.5503
  883MOL0     C16447   4.757  10.687   7.163 -0.3691 -0.2454 -0.7645
  883MOL0     O16448   4.821  10.816   7.179  0.2790 -0.2314  0.2015
  883MOL0     C16449   4.954  10.833   7.182 -0.6854  0.2930  0.4196
  883MOL0     C16450   5.045  10.730   7.197 -0.8680  0.7910 -0.1093
  883MOL0     C16451   5.182  10.756   7.213  0.7948 -0.0004  1.1198
  883MOL0     C16452   5.243  10.884   7.206  0.9115 -0.1968  0.1710
  883MOL0     C16453   5.387  10.910   7.198 -0.8506  0.4571 -0.8099
  883MOL0     O16454   5.425  11.044   7.177 -0.2432  0.3740 -0.3863
  883MOL0     C16455   5.549  11.098   7.204  0.4172  0.1288  0.2285
  883MOL0     C16456   5.650  11.034   7.283 -0.1065 -0.7423 -0.6177
  883MOL0     C16457   5.764  11.109   7.320  1.0380  1.0000  0.8259
  883MOL0     C16458   5.774  11.245   7.279 -0.9185 -0.1539  0.8162
  883MOL0     O16459   5.884  11.324   7.308 -0.6089 -0.1338 -0.2925
  883MOL0     C16460   5.984  11.278   7.414  0.3763 -0.2903  0.3903
  883MOL0     C16461   6.075  11.392   7.449  0.4471 -0.7372  0.1462
  883MOL0     C16462   6.181  11.354   7.547  0.0586 -0.0467  0.0977
  883MOL0     C16463   6.291  11.463   7.559  0.5490 -0.5162 -0.5601
  883MOL0     C16464   6.372  11.438   7.684  0.2280  0.8510  0.5296
  883MOL0     C16465   6.489  11.531   7.687  0.7300  0.0217  0.2431
  883MOL0     C16466   6.565  11.513   7.819 -0.9782 -0.8881 -0.3101
  883MOL0     C16467   6.690  11.611   7.811  0.3056 -0.3927 -0.0201
  883MOL0    Cl16468   6.631  11.785   7.826 -0.0011 -0.2554 -0.0550
  883MOL0     C16469   5.674  11.306   7.206  0.8000 -0.1001 -0.3039
  883MOL0     C16470   5.556  11.227   7.170 -0.8162 -0.8299 -0.3998
  883MOL0     O16471   5.462  10.815   7.216 -0.0663  0.3519 -0.0786
  883MOL0     C16472   5.143  10.988   7.198 -0.1824 -0.4574 -0.2077
  883MOL0     C16473   5.006  10.962   7.183  0.5421 -0.1692  0.1635
  883MOL0     N16474   4.406  10.650   7.428 -0.5373 -0.6176  1.0349
  883MOL0     N16475   4.331  10.700   7.524 -0.0200 -0.0034 -0.6393
  883MOL0     C16476   4.935  11.171   7.895 -0.5515 -0.0608 -0.6329
  883MOL0     C16477   5.073  11.145   7.919 -0.9589 -0.5070 -0.0529
  883MOL0     C16478   5.507  11.126   8.008 -0.4893 -0.5974 -0.5368
  883MOL0     C16479   5.573  11.244   8.040 -0.5148  0.7027 -1.1325
  883MOL0     C16480   5.696  11.234   8.110  0.5743 -0.8766  0.1745
  883MOL0     C16481   5.754  11.111   8.156  0.1576  0.5315  0.0169
  883MOL0     O16482   5.876  11.101   8.222 -0.2880 -0.2002  0.6731
  883MOL0     C16483   5.931  11.216   8.286 -0.6428 -0.0604  0.1254
  883MOL0     C16484   6.016  11.177   8.400 -0.0356  0.4684 -0.3458
  883MOL0     C16485   6.082  11.306   8.456  0.1794  0.0904  0.1622
  883MOL0     C16486   5.982  11.417   8.509 -0.2763  0.8598  0.0875
  883MOL0     C16487   6.046  11.492   8.624 -0.2552  0.9311 -0.3341
  883MOL0     C16488   6.108  11.552   8.704 -0.1497  0.0021 -0.1162
  883MOL0     C16489   5.693  10.993   8.119  0.0787  0.5638  0.5034
  883MOL0     C16490   5.570  11.003   8.051  0.0079  0.3647  0.0287
  883MOL0     H16491   5.188  11.453   7.909 -0.1884  0.4206 -0.2072
  883MOL0     H16492   4.946  11.498   7.931  1.3601  0.0477 -0.1893
  883MOL0     H16493   4.641  11.188   7.943 -1.2162  1.3009  1.2516
  883MOL0     H16494   4.659  11.200   7.762  1.8334  1.2399 -0.5342
  883MOL0     H16495   4.511  11.394   7.776 -0.7245  0.9376  0.9567
  883MOL0     H16496   4.492  11.382   7.945 -1.3301  0.2840 -1.2823
  883MOL0     H16497   4.298  11.271   7.839 -1.0424 -1.7113 -0.5805
  883MOL0     H16498   4.393  11.147   7.904  0.1456  3.0851  2.7700
  883MOL0     H16499   4.380  11.233   7.604  1.9224  1.9451  0.2268
  883MOL0     H16500   4.494  11.113   7.667 -0.1697  1.2532  0.5371
  883MOL0     H16501   4.202  11.095   7.723  0.7536  1.2414  1.2595
  883MOL0     H16502   4.311  10.960   7.717  0.0729  0.6824  1.4289
  883MOL0     H16503   4.315  10.992   7.461 -0.7005 -0.4200 -0.9814
  883MOL0     H16504   4.212  11.128   7.481  0.9066 -1.3437 -2.7029
  883MOL0     H16505   4.031  11.000   7.590  1.1459  1.0718  0.9720
  883MOL0     H16506   4.058  10.974   7.418  0.0218  1.1153  0.5994
  883MOL0     H16507   4.024  10.758   7.550 -1.1110  1.6572 -2.3153
  883MOL0     H16508   4.157  10.811   7.654  2.9280 -0.7551 -0.5720
  883MOL0     H16509   4.125  10.699   7.276  1.0702 -0.7208 -0.8441
  883MOL0     H16510   4.351  10.655   7.102 -1.9057 -0.2076 -0.4981
  883MOL0     H16511   4.333  10.495   7.165  0.0982  0.5778 -2.9114
  883MOL0     H16512   4.561  10.508   7.090  1.8947 -2.3312  0.8422
  883MOL0     H16513   4.583  10.518   7.261  2.2026 -1.5217 -2.2552
  883MOL0     H16514   4.573  10.757   7.066 -2.1883  1.0710  1.9664
  883MOL0     H16515   4.563  10.769   7.238  2.6185 -1.0931  2.5672
  883MOL0     H16516   4.796  10.636   7.074  0.4813 -0.7261 -0.1392
  883MOL0     H16517   4.781  10.620   7.246 -1.5354  0.2500 -0.0091
  883MOL0     H16518   5.006  10.629   7.187 -1.4608  0.9250  0.7899
  883MOL0     H16519   5.240  10.665   7.225 -1.4688 -1.1924  4.5432
  883MOL0     H16520   5.621  10.934   7.315 -2.7113  0.0382 -0.3289
  883MOL0     H16521   5.843  11.057   7.375  0.8016 -1.1576 -0.7481
  883MOL0     H16522   6.028  11.182   7.385 -0.7674 -1.4900  2.3566
  883MOL0     H16523   5.922  11.248   7.499 -3.1320  0.2662 -1.7715
  883MOL0     H16524   6.023  11.478   7.492  2.6080 -0.9906  3.7752
  883MOL0     H16525   6.126  11.409   7.354 -1.3276 -2.9033 -1.2947
  883MOL0     H16526   6.230  11.258   7.533 -1.4422 -1.0919  1.5315
  883MOL0     H16527   6.135  11.354   7.647  1.6112  2.6532  0.9092
  883MOL0     H16528   6.357  11.458   7.471 -0.2485  1.1754 -1.3034
  883MOL0     H16529   6.245  11.562   7.561  2.1005  0.2508  2.4085
  883MOL0     H16530   6.421  11.341   7.695  1.9010  1.3225 -2.0395
  883MOL0     H16531   6.301  11.440   7.767  0.6591  3.4799  0.9401
  883MOL0     H16532   6.450  11.632   7.681  0.2213 -0.2155 -0.6815
  883MOL0     H16533   6.560  11.508   7.607 -1.9261 -1.2704 -1.9012
  883MOL0     H16534   6.498  11.535   7.902 -0.8413  1.3834 -0.7288
  883MOL0     H16535   6.610  11.413   7.819 -1.5339 -1.2399 -3.4688
  883MOL0     H16536   6.743  11.594   7.717  0.0787 -1.0397 -0.0393
  883MOL0     H16537   6.760  11.606   7.895  1.4165 -0.4750 -0.9271
  883MOL0     H16538   5.682  11.409   7.172 -0.0337  0.4746  1.1767
  883MOL0     H16539   5.464  11.270   7.133 -0.1985  1.2919  0.3495
  883MOL0     H16540   5.191  11.085   7.211 -0.9300  0.3744 -2.9557
  883MOL0     H16541   4.932  11.041   7.193 -0.6533 -0.9001 -2.0973
  883MOL0     H16542   4.868  11.087   7.909  1.9569 -2.3804 -1.5459
  883MOL0     H16543   5.096  11.040   7.936  0.2662 -0.4706 -1.3376
  883MOL0     H16544   5.529  11.336   8.002 -1.3296  0.4336 -0.8453
  883MOL0     H16545   5.744  11.329   8.130 -2.6995  0.9676  0.0499
  883MOL0     H16546   5.852  11.283   8.320 -0.8145  0.1170 -0.6159
  883MOL0     H16547   5.995  11.279   8.223 -1.0171  0.3580  0.1661
  883MOL0     H16548   5.954  11.125   8.474 -0.8077  0.6087 -0.8867
  883MOL0     H16549   6.088  11.099   8.373  0.8482  1.4601 -0.9186
  883MOL0     H16550   6.150  11.341   8.378 -0.3503  0.5112 -0.1176
  883MOL0     H16551   6.149  11.276   8.537 -1.0865 -0.6534  0.9666
  883MOL0     H16552   5.960  11.481   8.423  2.7567 -0.3976 -1.7853
  883MOL0     H16553   5.901  11.361   8.557 -0.5070 -0.7225 -2.0248
  883MOL0     H16554   6.168  11.578   8.789 -0.8713  0.3964  0.2833
  883MOL0     H16555   5.735  10.900   8.157 -1.2531 -1.8394 -3.2943
  883MOL0     H16556   5.511  10.913   8.045 -0.0669  0.4095  0.0884
  884MOL0     O16557   0.379  10.511   6.001 -0.0405 -0.2893 -0.5343
  884MOL0     C16558   0.395  10.593   6.089 -0.8961  0.4765 -0.2125
  884MOL0     O16559   0.291  10.653   6.152  0.6220  0.5372 -0.7363
  884MOL0     C16560   0.160  10.613   6.130 -0.4520  0.3425 -0.2453
  884MOL0     C16561   0.094  10.549   6.235 -0.2275  0.3627  0.3247
  884MOL0     C16562  -0.039  10.517   6.222 -0.2524  0.1652 -0.3076
  884MOL0     C16563  -0.103  10.547   6.098  0.3621 -0.3893  0.5178
  884MOL0     O16564  -0.238  10.532   6.080 -0.1787  0.2524  0.7013
  884MOL0     C16565  -0.324  10.507   6.192 -0.7315  0.5497  0.9393
  884MOL0     C16566  -0.475  10.499   6.147 -0.3122 -0.4881  0.6348
  884MOL0     C16567  -0.551  10.427   6.270  0.5014  0.0936  0.1987
  884MOL0     C16568  -0.680  10.357   6.214 -0.6566  0.0296 -0.7001
  884MOL0     C16569  -0.765  10.292   6.321 -0.3296 -0.0010  0.3573
  884MOL0     C16570  -0.890  10.223   6.275 -0.2295  0.1267 -0.0173
  884MOL0     C16571  -1.005  10.311   6.211  0.2234  0.3966  0.2378
  884MOL0     C16572  -1.078  10.389   6.326 -0.2446  0.4105  0.5921
  884MOL0     N16573  -1.193  10.455   6.272  0.7207 -0.0707 -0.0960
  884MOL0     C16574  -1.291  10.400   6.189 -0.3489  0.6758 -0.0756
  884MOL0     C16575  -1.380  10.503   6.162 -0.5022 -0.5559  0.4895
  884MOL0     C16576  -1.509  10.520   6.083  0.7686  0.6358  0.1390
  884MOL0     C16577  -1.586  10.385   6.081  1.0682  0.6853  0.5197
  884MOL0     C16578  -1.722  10.409   6.021  0.9382  0.0969  0.4728
  884MOL0     C16579  -1.796  10.272   6.000 -0.7115 -0.2407  0.0638
  884MOL0     O16580  -1.903  10.285   5.911 -0.2699  0.6143 -0.1821
  884MOL0     C16581  -2.019  10.226   5.932  0.4903  0.0793  0.1741
  884MOL0     C16582  -2.040  10.135   6.035 -0.0282  0.0900 -0.2468
  884MOL0     C16583  -2.165  10.068   6.051  0.3474  1.0813 -0.1928
  884MOL0     C16584  -2.265  10.089   5.951  0.2171  0.8104 -0.3211
  884MOL0     C16585  -2.379  10.002   5.942  0.5740  0.1069  0.0597
  884MOL0     O16586  -2.465  10.033   5.835  0.0538 -0.0791 -0.2151
  884MOL0     C16587  -2.583   9.960   5.812  0.9869  0.5575 -0.5482
  884MOL0     C16588  -2.707  10.017   5.828  0.1367  0.3157 -0.2219
  884MOL0     C16589  -2.821   9.942   5.784 -0.6907  0.0094  0.7527
  884MOL0     C16590  -2.811   9.809   5.740 -0.7776  0.8225  0.2128
  884MOL0     O16591  -2.913   9.730   5.702  0.5246 -0.3005 -0.6928
  884MOL0     C16592  -3.001   9.772   5.601 -0.0324  0.5089  0.3940
  884MOL0     C16593  -3.095   9.657   5.556 -0.0682 -0.3255 -0.3019
  884MOL0     C16594  -3.197   9.616   5.666 -0.6395 -0.8756  1.2464
  884MOL0     C16595  -3.308   9.529   5.606  0.0280 -0.4389  0.6004
  884MOL0     C16596  -3.422   9.522   5.703  0.8574 -0.1651 -0.6359
  884MOL0     C16597  -3.550   9.462   5.637  0.1659 -0.1428 -0.3708
  884MOL0     C16598  -3.532   9.347   5.532 -0.1634 -0.0912  0.7666
  884MOL0     C16599  -3.663   9.274   5.505  0.9486  0.4348 -0.6583
  884MOL0    Cl16600  -3.704   9.185   5.649  0.1769  0.4174  0.2299
  884MOL0     C16601  -2.684   9.749   5.735  0.0732 -1.1193  0.4486
  884MOL0     C16602  -2.570   9.827   5.773  0.7024  0.3203  0.3285
  884MOL0     O16603  -2.390   9.902   6.005 -0.3591  0.0117  0.2911
  884MOL0     C16604  -2.235  10.178   5.852  0.7546 -0.3185 -0.0028
  884MOL0     C16605  -2.115  10.251   5.840  0.3742 -0.2872  0.4425
  884MOL0     N16606  -1.316  10.617   6.221  0.1563  0.5236  0.4143
  884MOL0     N16607  -1.215  10.584   6.288 -0.2390 -0.3707 -0.5192
  884MOL0     C16608  -0.034  10.609   5.990  0.6522  0.5844 -0.4803
  884MOL0     C16609   0.099  10.641   6.008  0.2735  0.1305 -0.4448
  884MOL0     C16610   0.535  10.621   6.136 -0.5131  0.5445  0.6138
  884MOL0     C16611   0.649  10.570   6.073  0.6604  0.7138  0.2405
  884MOL0     C16612   0.777  10.599   6.121 -0.1045 -0.4284  0.4819
  884MOL0     C16613   0.788  10.687   6.234  0.7590  1.1593  0.3551
  884MOL0     O16614   0.914  10.703   6.286 -0.5439 -0.1203 -0.5244
  884MOL0     C16615   0.934  10.623   6.404 -0.9903  0.9135 -0.0395
  884MOL0     C16616   1.040  10.687   6.500  0.9300 -0.2715 -0.3558
  884MOL0     C16617   1.175  10.715   6.439 -0.0210 -0.1854  0.0843
  884MOL0     C16618   1.281  10.750   6.548  0.3253  0.3431  0.2121
  884MOL0     C16619   1.406  10.701   6.502 -0.7346 -0.1559  0.4295
  884MOL0     C16620   1.522  10.669   6.465  1.0073  0.3634 -0.4560
  884MOL0     C16621   0.677  10.744   6.287  0.5345  0.0684  0.4369
  884MOL0     C16622   0.549  10.713   6.237  0.8985  0.7195 -0.5578
  884MOL0     H16623   0.145  10.511   6.323  0.6547  1.7894  0.4552
  884MOL0     H16624  -0.095  10.464   6.298  1.2303 -0.9493  0.0502
  884MOL0     H16625  -0.314  10.587   6.265 -0.2516  0.9609  0.4354
  884MOL0     H16626  -0.295  10.411   6.236  3.0048  2.2698  2.6555
  884MOL0     H16627  -0.473  10.441   6.055 -1.3948 -1.0069  0.9308
  884MOL0     H16628  -0.520  10.598   6.135  0.9272 -0.1328 -1.6270
  884MOL0     H16629  -0.575  10.508   6.340 -1.6361 -1.8311  1.8822
  884MOL0     H16630  -0.493  10.355   6.329  0.3284  0.2783  0.6032
  884MOL0     H16631  -0.734  10.442   6.171  0.3286  1.6643  1.1396
  884MOL0     H16632  -0.663  10.285   6.133  1.0379  0.2598 -0.5906
  884MOL0     H16633  -0.796  10.370   6.392 -0.3234 -0.6472  1.0839
  884MOL0     H16634  -0.703  10.219   6.374 -3.0939 -1.6457  1.5684
  884MOL0     H16635  -0.924  10.169   6.363 -0.8810 -1.5007 -1.2173
  884MOL0     H16636  -0.864  10.145   6.203  3.0827  1.2218 -0.1776
  884MOL0     H16637  -0.969  10.376   6.131 -2.1590  0.7846 -0.5953
  884MOL0     H16638  -1.069  10.236   6.163 -1.8389  3.1286 -1.5361
  884MOL0     H16639  -1.003  10.452   6.376 -1.3131  0.1700  2.5850
  884MOL0     H16640  -1.112  10.315   6.398 -0.7255  0.5764  0.5363
  884MOL0     H16641  -1.300  10.300   6.148  1.4862  0.8980 -1.1769
  884MOL0     H16642  -1.491  10.556   5.981 -2.0618 -1.3023 -1.2046
  884MOL0     H16643  -1.572  10.592   6.137 -0.3914  1.0012 -1.6062
  884MOL0     H16644  -1.597  10.352   6.185 -0.4854  1.2063  0.5465
  884MOL0     H16645  -1.525  10.318   6.020 -0.3526  0.7442 -1.0091
  884MOL0     H16646  -1.785  10.471   6.086 -0.8048 -1.6853  0.5917
  884MOL0     H16647  -1.717  10.455   5.922 -3.7467  2.3412  1.0068
  884MOL0     H16648  -1.825  10.256   6.104 -3.1787  1.6039 -0.2476
  884MOL0     H16649  -1.725  10.197   5.964  0.0224 -0.4420  1.8521
  884MOL0     H16650  -1.958  10.106   6.100 -0.1091  0.3809 -0.0119
  884MOL0     H16651  -2.181   9.986   6.119  1.7195 -2.9235 -4.2198
  884MOL0     H16652  -2.711  10.117   5.871 -2.1673 -0.1940  0.9375
  884MOL0     H16653  -2.916   9.993   5.791 -2.3927 -3.0690  1.5892
  884MOL0     H16654  -2.951   9.801   5.508 -0.9830  0.0572 -0.2739
  884MOL0     H16655  -3.074   9.848   5.633 -0.2780 -0.4730  2.3238
  884MOL0     H16656  -3.041   9.567   5.525 -0.9055 -0.4245 -1.5261
  884MOL0     H16657  -3.136   9.704   5.466 -0.5492  2.5642  1.2817
  884MOL0     H16658  -3.238   9.712   5.698 -2.2115  0.2797 -3.4544
  884MOL0     H16659  -3.142   9.556   5.739 -2.2262 -1.2712  2.1695
  884MOL0     H16660  -3.348   9.571   5.514 -0.0419 -0.1860  0.7451
  884MOL0     H16661  -3.273   9.427   5.587 -2.2086 -1.1617  0.0058
  884MOL0     H16662  -3.431   9.619   5.753  1.3348  0.1970 -1.2359
  884MOL0     H16663  -3.391   9.443   5.772 -0.6760 -2.8996 -2.8374
  884MOL0     H16664  -3.593   9.550   5.587 -1.2500 -0.1834  0.6976
  884MOL0     H16665  -3.619   9.424   5.713  0.2626 -0.7776 -0.5959
  884MOL0     H16666  -3.497   9.386   5.436 -1.5632 -2.8013 -0.9776
  884MOL0     H16667  -3.459   9.268   5.553  1.1386  1.2387  1.3848
  884MOL0     H16668  -3.666   9.203   5.422 -1.6768  0.8459 -1.0151
  884MOL0     H16669  -3.741   9.348   5.483  2.2057  1.4111 -2.0769
  884MOL0     H16670  -2.669   9.645   5.706  0.0187 -0.8109 -0.7260
  884MOL0     H16671  -2.471   9.786   5.761  0.6228 -0.4090  1.8561
  884MOL0     H16672  -2.310  10.191   5.774  0.6939 -2.7273 -0.4216
  884MOL0     H16673  -2.082  10.315   5.759  0.2456  0.6675  1.1385
  884MOL0     H16674  -0.078  10.630   5.894  1.9976  0.9134 -1.0466
  884MOL0     H16675   0.165  10.693   5.940  0.9563  1.1194  0.9303
  884MOL0     H16676   0.631  10.512   5.983  1.1573 -2.5761  2.0969
  884MOL0     H16677   0.873  10.577   6.074 -0.7782  0.2304 -1.2856
  884MOL0     H16678   0.970  10.523   6.375  0.9506  1.5485  0.0182
  884MOL0     H16679   0.839  10.602   6.453  0.2535 -0.8362  1.7934
  884MOL0     H16680   1.006  10.782   6.542  0.6230 -0.4233 -0.2605
  884MOL0     H16681   1.057  10.617   6.582 -2.7593 -2.4199 -1.2110
  884MOL0     H16682   1.168  10.801   6.373 -0.0765 -0.0344  0.2845
  884MOL0     H16683   1.210  10.626   6.385  1.1393  0.7084 -0.6799
  884MOL0     H16684   1.283  10.859   6.562 -5.8478  0.6610  1.5131
  884MOL0     H16685   1.254  10.708   6.645 -2.9595 -0.9425 -1.0804
  884MOL0     H16686   1.619  10.633   6.439  1.3681 -1.9566  3.3874
  884MOL0     H16687   0.696  10.815   6.367 -1.6722 -0.2069  1.2902
  884MOL0     H16688   0.470  10.768   6.287  2.7571  1.6928  1.4969
  885MOL0     O16689  11.049  10.147   6.331 -0.3125 -0.3058  0.2415
  885MOL0     C16690  11.037  10.105   6.215  0.1975 -0.3998 -0.3541
  885MOL0     O16691  11.126  10.082   6.125  0.2194 -0.1507  0.2692
  885MOL0     C16692  11.258  10.101   6.155 -0.3694  0.2823 -0.7261
  885MOL0     C16693  11.334  10.008   6.229  0.4406  0.1102 -0.1278
  885MOL0     C16694  11.465  10.016   6.260  0.5963  0.5968  0.6093
  885MOL0     C16695  11.537  10.135   6.228  0.7715  0.7312  1.5114
  885MOL0     O16696  11.663  10.162   6.278 -0.0784 -0.4931 -0.6044
  885MOL0     C16697  11.764  10.064   6.265 -0.0885 -0.2580  0.9482
  885MOL0     C16698  11.902  10.133   6.256 -0.0158  0.3124  0.0679
  885MOL0     C16699  11.940  10.179   6.396  0.0912 -0.3087  0.7560
  885MOL0     C16700  12.051  10.283   6.394  0.1578  0.0284  0.1006
  885MOL0     C16701  12.121  10.282   6.531  0.0784 -0.2989 -0.8676
  885MOL0     C16702  12.037  10.350   6.644 -0.1482 -0.9777 -0.4298
  885MOL0     C16703  12.124  10.386   6.770  0.6069  0.7969  0.5286
  885MOL0     C16704  12.076  10.519   6.830 -0.5905 -0.6508  0.3721
  885MOL0     N16705  11.937  10.540   6.836  0.1272  0.2257  0.2304
  885MOL0     C16706  11.847  10.458   6.896  0.0633  0.7953  0.0640
  885MOL0     C16707  11.723  10.507   6.865  0.0554  0.1380  0.3310
  885MOL0     C16708  11.599  10.445   6.903 -0.2931  0.0221  0.5796
  885MOL0     C16709  11.468  10.534   6.883  0.3378 -0.0858  0.3059
  885MOL0     C16710  11.351  10.473   6.956 -0.6115 -0.2097  0.5292
  885MOL0     C16711  11.223  10.555   6.928  0.0218 -0.0084 -0.2641
  885MOL0     O16712  11.103  10.506   6.995 -0.2508  0.0094 -0.0749
  885MOL0     C16713  10.979  10.565   6.972  0.6740 -0.0623  0.2794
  885MOL0     C16714  10.864  10.504   7.035  0.3932 -0.7403 -0.5063
  885MOL0     C16715  10.741  10.555   7.020  0.0688 -0.0790 -0.1324
  885MOL0     C16716  10.720  10.686   6.974  0.2826  0.9447  0.8130
  885MOL0     C16717  10.591  10.754   6.984 -0.0817 -0.6199  1.1733
  885MOL0     O16718  10.484  10.682   7.024  0.4823 -0.0015  0.2915
  885MOL0     C16719  10.351  10.731   6.998 -0.3004 -0.7041 -1.4580
  885MOL0     C16720  10.301  10.860   7.030 -0.2234  0.3922 -0.2059
  885MOL0     C16721  10.168  10.885   7.008 -1.6224 -0.1710  0.0456
  885MOL0     C16722  10.082  10.787   6.958  0.0034  0.0602 -0.5094
  885MOL0     O16723   9.946  10.804   6.938  0.1732  0.1431  0.1262
  885MOL0     C16724   9.901  10.930   6.897  0.4349 -1.0486  0.2925
  885MOL0     C16725   9.772  10.911   6.823  0.5702 -0.9430  0.6742
  885MOL0     C16726   9.716  11.047   6.772 -0.5946 -0.5047  0.0101
  885MOL0     C16727   9.562  11.043   6.750  0.8132 -0.5348 -0.8122
  885MOL0     C16728   9.532  11.189   6.710 -1.0048 -0.2898 -0.6091
  885MOL0     C16729   9.406  11.198   6.629 -0.1987 -0.1058 -0.0115
  885MOL0     C16730   9.287  11.136   6.692 -0.4043 -0.6543 -0.4290
  885MOL0     C16731   9.187  11.112   6.585  0.2617 -0.1874  0.1073
  885MOL0    Cl16732   9.045  11.038   6.654  0.0905  0.0018  0.3347
  885MOL0     C16733  10.125  10.658   6.940 -0.3563 -0.2174  0.1891
  885MOL0     C16734  10.267  10.636   6.942  0.8562 -0.0803 -0.1629
  885MOL0     O16735  10.587  10.872   6.949 -0.4295 -0.1113 -0.5368
  885MOL0     C16736  10.826  10.753   6.902  0.8496 -0.1794  1.3978
  885MOL0     C16737  10.953  10.688   6.901 -0.3386  0.4704 -0.8715
  885MOL0     N16738  11.751  10.624   6.795  0.3555  0.0601  0.5240
  885MOL0     N16739  11.873  10.637   6.763  0.0248 -0.7321 -0.3376
  885MOL0     C16740  11.467  10.236   6.148  0.2297 -0.1308 -0.5912
  885MOL0     C16741  11.329  10.213   6.117  0.7345 -0.5171  0.3034
  885MOL0     C16742  10.895  10.080   6.175 -0.2121 -0.6535 -0.4788
  885MOL0     C16743  10.861  10.083   6.039 -0.1805 -0.2101  0.4438
  885MOL0     C16744  10.738  10.047   5.999  0.2319 -1.6384 -0.2578
  885MOL0     C16745  10.641  10.012   6.101  0.3335 -0.6710 -0.4208
  885MOL0     O16746  10.511   9.986   6.064 -0.2958  0.2433 -0.0243
  885MOL0     C16747  10.486   9.948   5.926  0.3015 -0.5134  0.5115
  885MOL0     C16748  10.375   9.847   5.900 -1.7821 -0.2014  0.1738
  885MOL0     C16749  10.237   9.891   5.933 -0.5383 -0.0976 -0.2044
  885MOL0     C16750  10.217  10.038   5.885  0.6853  0.5027 -0.0459
  885MOL0     C16751  10.074  10.068   5.917  0.2370  0.0971 -0.5151
  885MOL0     C16752   9.956  10.100   5.918  0.0665  0.4798 -0.0069
  885MOL0     C16753  10.669  10.021   6.238  0.4774  0.3725  0.2522
  885MOL0     C16754  10.798  10.049   6.272  0.2341  0.2435  0.5753
  885MOL0     H16755  11.296   9.915   6.270  2.7281 -1.0336 -0.4001
  885MOL0     H16756  11.508   9.935   6.318  3.2299  0.9556 -0.6766
  885MOL0     H16757  11.743  10.010   6.172  5.6128  0.9498 -1.4032
  885MOL0     H16758  11.764   9.994   6.349  1.5837  0.6768  1.7608
  885MOL0     H16759  11.886  10.213   6.183  1.3012  1.3621  0.8992
  885MOL0     H16760  11.988  10.072   6.228  0.2382  0.3148  0.8177
  885MOL0     H16761  11.978  10.087   6.440  0.0384 -2.1000 -2.5713
  885MOL0     H16762  11.855  10.224   6.448  1.9651  2.3157  1.7291
  885MOL0     H16763  12.127  10.237   6.330 -0.9629 -3.7816  1.2297
  885MOL0     H16764  12.021  10.384   6.364 -0.4827 -0.1670  0.0545
  885MOL0     H16765  12.207  10.350   6.537 -2.2163  2.7823  4.7405
  885MOL0     H16766  12.150  10.180   6.558  2.4989  0.4094 -0.5567
  885MOL0     H16767  11.950  10.285   6.655 -1.9755  1.2407 -1.1220
  885MOL0     H16768  12.005  10.445   6.600  5.0091  0.3832 -1.9704
  885MOL0     H16769  12.119  10.305   6.844 -1.3819  0.8293  0.4837
  885MOL0     H16770  12.230  10.391   6.745  0.3313  2.4231 -0.4556
  885MOL0     H16771  12.130  10.592   6.770 -3.4040  0.3092 -1.1489
  885MOL0     H16772  12.112  10.543   6.931  0.2979  1.3704 -0.3724
  885MOL0     H16773  11.866  10.366   6.949 -0.5227  1.0673  0.7596
  885MOL0     H16774  11.601  10.414   7.008 -0.2121  1.6178  1.0839
  885MOL0     H16775  11.573  10.364   6.835 -0.0903  1.5750 -1.4371
  885MOL0     H16776  11.444  10.541   6.777  2.2864  0.1344 -0.1591
  885MOL0     H16777  11.499  10.630   6.925 -1.2206  0.8885 -0.6894
  885MOL0     H16778  11.333  10.371   6.923  1.3572 -0.4854  0.1973
  885MOL0     H16779  11.378  10.473   7.062  1.1000  1.8088  0.1680
  885MOL0     H16780  11.212  10.558   6.819 -1.1085 -0.5585 -0.1717
  885MOL0     H16781  11.239  10.655   6.969  2.1853 -1.5581  3.1030
  885MOL0     H16782  10.867  10.422   7.107 -3.7158  0.6825  1.6082
  885MOL0     H16783  10.658  10.496   7.055 -0.1999 -1.2245 -2.5141
  885MOL0     H16784  10.355  10.949   7.058 -0.9039  1.0827 -1.0579
  885MOL0     H16785  10.128  10.984   7.027  0.8516  0.8744  0.1567
  885MOL0     H16786   9.975  10.971   6.827  1.2522 -4.4241 -1.0296
  885MOL0     H16787   9.888  10.996   6.984  1.9270 -1.7885  1.1209
  885MOL0     H16788   9.690  10.864   6.878 -2.2810  0.2343 -2.1653
  885MOL0     H16789   9.795  10.839   6.743  1.3590 -0.7019  0.6842
  885MOL0     H16790   9.773  11.086   6.687 -2.7772  1.2799 -0.7314
  885MOL0     H16791   9.736  11.120   6.851  0.7219 -1.9682  1.1092
  885MOL0     H16792   9.546  10.987   6.657  0.7002 -0.0804 -1.0725
  885MOL0     H16793   9.506  11.003   6.834  1.8309 -2.9634 -1.2079
  885MOL0     H16794   9.610  11.244   6.657  1.7341  0.6612  3.8465
  885MOL0     H16795   9.536  11.250   6.801 -0.4272 -1.6667  0.3297
  885MOL0     H16796   9.423  11.150   6.532  2.7712  0.9262 -0.0964
  885MOL0     H16797   9.385  11.304   6.609 -0.4537  0.9545  4.6632
  885MOL0     H16798   9.313  11.034   6.723  0.5948  0.2034  1.6974
  885MOL0     H16799   9.246  11.190   6.778  1.5061  0.1842  0.0092
  885MOL0     H16800   9.234  11.058   6.502  2.2071  0.1983  0.9028
  885MOL0     H16801   9.158  11.206   6.537  3.0290  0.5240 -0.3504
  885MOL0     H16802  10.061  10.578   6.905  0.2207 -0.7837  0.4128
  885MOL0     H16803  10.310  10.542   6.911 -0.7406 -1.0837  0.5471
  885MOL0     H16804  10.815  10.851   6.858  0.0464 -0.9291 -0.1768
  885MOL0     H16805  11.038  10.726   6.845  1.6595 -4.2687 -1.5871
  885MOL0     H16806  11.514  10.327   6.112 -0.8158  1.0472  0.9021
  885MOL0     H16807  11.270  10.288   6.066 -1.8545  0.2768  4.0980
  885MOL0     H16808  10.939  10.086   5.964 -0.9092 -0.9904 -0.3715
  885MOL0     H16809  10.732  10.034   5.891 -0.2723  2.9055 -0.9838
  885MOL0     H16810  10.570   9.890   5.887 -0.1377 -1.4406  0.9422
  885MOL0     H16811  10.479  10.043   5.870  1.2754  0.5151  2.0561
  885MOL0     H16812  10.377   9.821   5.794 -1.2408 -2.2444  0.6374
  885MOL0     H16813  10.384   9.751   5.952 -1.4146  0.2901  1.0381
  885MOL0     H16814  10.207   9.896   6.038 -0.1956 -0.6103 -0.0818
  885MOL0     H16815  10.173   9.816   5.886  1.0783 -2.4428  1.1595
  885MOL0     H16816  10.282  10.107   5.939  0.3200  0.0736  0.9566
  885MOL0     H16817  10.222  10.035   5.776 -0.4182  0.1863 -0.0981
  885MOL0     H16818   9.854  10.130   5.931  0.4416  1.0856  1.7617
  885MOL0     H16819  10.584  10.006   6.304  1.4001 -1.6790  1.0636
  885MOL0     H16820  10.821  10.057   6.378  0.7825  1.3438  0.3835
  886MOL0     O16821   8.696  10.301   3.442 -0.2712  0.0228 -0.1261
  886MOL0     C16822   8.691  10.405   3.503  0.4883 -0.1026  0.2030
  886MOL0     O16823   8.582  10.490   3.516  0.0622 -0.7600  0.7239
  886MOL0     C16824   8.468  10.474   3.443  0.4321  0.6393 -0.3801
  886MOL0     C16825   8.345  10.466   3.512  0.0208  0.5226  0.8439
  886MOL0     C16826   8.225  10.449   3.438  0.1142  0.9521 -0.5813
  886MOL0     C16827   8.224  10.428   3.301 -0.9113 -0.2621  0.7281
  886MOL0     O16828   8.107  10.392   3.234 -0.8167  0.2894  0.1865
  886MOL0     C16829   8.102  10.390   3.096 -0.1650 -0.3881  0.3974
  886MOL0     C16830   7.952  10.380   3.041  0.2866  0.7818  0.3533
  886MOL0     C16831   7.881  10.254   3.094 -0.6377  0.6428 -0.1523
  886MOL0     C16832   7.730  10.267   3.086 -0.2535 -0.2774 -0.7007
  886MOL0     C16833   7.659  10.136   3.122 -1.3685  0.1254 -0.4353
  886MOL0     C16834   7.506  10.164   3.115 -0.3975  0.7921  0.3054
  886MOL0     C16835   7.444  10.028   3.122 -0.1105  0.2648 -0.7357
  886MOL0     C16836   7.291  10.016   3.112  0.0878  0.3092  0.2471
  886MOL0     N16837   7.228  10.055   2.980  0.5337 -0.5991  0.2073
  886MOL0     C16838   7.216   9.974   2.874 -0.4225  0.7430  0.1601
  886MOL0     C16839   7.149  10.047   2.779  1.0218 -0.0949 -0.9986
  886MOL0     C16840   7.111  10.014   2.637  0.1244 -0.4372  0.0868
  886MOL0     C16841   6.996   9.905   2.632 -0.6634  0.5354 -0.0922
  886MOL0     C16842   6.855   9.951   2.664  0.3291 -0.0999  0.7668
  886MOL0     C16843   6.807  10.059   2.581 -0.2930  0.4414 -0.2295
  886MOL0     O16844   6.815  10.023   2.433 -0.1881 -0.2573  0.0848
  886MOL0     C16845   6.709  10.042   2.347 -1.0966  0.9569  0.2066
  886MOL0     C16846   6.713   9.968   2.231  0.5810  0.5205  0.1907
  886MOL0     C16847   6.620   9.980   2.130 -0.9345  0.2180  0.3616
  886MOL0     C16848   6.512  10.070   2.149  0.9234  0.2525 -0.6632
  886MOL0     C16849   6.402  10.084   2.045 -0.0900  0.0149 -0.1931
  886MOL0     O16850   6.303  10.163   2.086  0.3025 -0.1456  0.2900
  886MOL0     C16851   6.190  10.199   2.013  0.5691  0.4965 -1.0512
  886MOL0     C16852   6.132  10.134   1.902  0.2864 -0.3464 -0.1543
  886MOL0     C16853   6.005  10.184   1.859  0.2397  0.0999  0.8816
  886MOL0     C16854   5.941  10.294   1.916 -0.5986 -0.9347  1.3595
  886MOL0     O16855   5.825  10.362   1.876 -0.0598  0.7653  0.3042
  886MOL0     C16856   5.735  10.266   1.815  0.3850  0.5188  0.4099
  886MOL0     C16857   5.610  10.339   1.789 -0.1239 -0.0605 -0.2932
  886MOL0     C16858   5.481  10.261   1.728  0.2320  0.0316  0.0164
  886MOL0     C16859   5.387  10.354   1.651 -0.0022 -0.0022 -0.2862
  886MOL0     C16860   5.243  10.312   1.610 -0.1552  0.1393  1.0200
  886MOL0     C16861   5.149  10.327   1.723 -0.8532  0.2016  0.3946
  886MOL0     C16862   5.004  10.265   1.704 -0.3993 -0.3585 -0.6163
  886MOL0     C16863   4.916  10.301   1.829  0.0916  0.0735 -0.1503
  886MOL0    Cl16864   4.760  10.229   1.798 -0.3919  0.0715  0.2039
  886MOL0     C16865   6.013  10.362   2.014 -0.1694 -0.0244  0.2986
  886MOL0     C16866   6.128  10.308   2.060 -0.6939  0.7038 -0.5007
  886MOL0     O16867   6.403  10.030   1.935 -0.5680  0.3206 -0.0790
  886MOL0     C16868   6.509  10.151   2.270 -0.1904 -0.4801  0.5076
  886MOL0     C16869   6.600  10.125   2.373  0.3537 -0.2145  0.1756
  886MOL0     N16870   7.104  10.167   2.840  0.0905  0.1116  0.3207
  886MOL0     N16871   7.153  10.171   2.959  0.0295 -0.4270  0.0507
  886MOL0     C16872   8.355  10.428   3.240  0.0426 -0.2003 -0.6627
  886MOL0     C16873   8.470  10.460   3.310 -0.2511 -0.7500  1.1155
  886MOL0     C16874   8.811  10.441   3.569 -0.3842  0.4199  0.0601
  886MOL0     C16875   8.938  10.374   3.548  0.1764  0.8637 -0.3718
  886MOL0     C16876   9.057  10.430   3.609  0.3995 -0.2115 -0.2062
  886MOL0     C16877   9.053  10.553   3.676  0.2828  0.6240  0.6686
  886MOL0     O16878   9.161  10.616   3.732 -0.1986 -0.3348 -0.0405
  886MOL0     C16879   9.288  10.549   3.727 -0.7083  0.3608  0.3570
  886MOL0     C16880   9.394  10.615   3.799 -0.5528 -0.3772  0.0096
  886MOL0     C16881   9.521  10.538   3.809 -0.0826 -0.0469  0.0929
  886MOL0     C16882   9.620  10.622   3.883 -0.1405 -0.7436 -0.4872
  886MOL0     C16883   9.741  10.550   3.924  0.1558 -0.6067  0.4112
  886MOL0     C16884   9.840  10.490   3.956  0.1621  0.5904 -0.4707
  886MOL0     C16885   8.927  10.609   3.701  0.1161 -0.0323 -0.4982
  886MOL0     C16886   8.806  10.551   3.656  0.0711  0.2099  1.1263
  886MOL0     H16887   8.349  10.486   3.619 -0.8081  0.9031  0.8165
  886MOL0     H16888   8.127  10.438   3.484  0.0082  2.8072 -0.2884
  886MOL0     H16889   8.168  10.310   3.058  3.5655  1.9905  1.3588
  886MOL0     H16890   8.142  10.480   3.048 -1.3932 -0.7145 -1.3758
  886MOL0     H16891   7.951  10.380   2.932  1.7899 -1.9797  0.2587
  886MOL0     H16892   7.917  10.480   3.070  3.5913  2.3906 -0.7188
  886MOL0     H16893   7.907  10.238   3.199 -1.6119  2.1878  0.3610
  886MOL0     H16894   7.909  10.167   3.034 -1.0879 -2.0281  3.1704
  886MOL0     H16895   7.693  10.349   3.147 -3.7658  2.8469 -6.2348
  886MOL0     H16896   7.710  10.299   2.984 -1.7974  0.9776 -0.0403
  886MOL0     H16897   7.684  10.097   3.221  1.5865  0.1835 -1.0867
  886MOL0     H16898   7.691  10.071   3.041 -1.7088 -0.7479  0.1164
  886MOL0     H16899   7.488  10.199   3.013  0.8331 -1.0325 -0.5998
  886MOL0     H16900   7.471  10.239   3.186 -1.9411  2.1449 -1.7595
  886MOL0     H16901   7.479   9.950   3.054  0.7511  0.1643 -0.1791
  886MOL0     H16902   7.455  10.000   3.227 -2.2289 -1.6080 -0.9409
  886MOL0     H16903   7.251  10.085   3.187 -1.4214 -1.1720  0.8831
  886MOL0     H16904   7.270   9.910   3.130  4.1691 -0.8886 -1.0720
  886MOL0     H16905   7.268   9.879   2.860  2.5313  2.2280  0.2210
  886MOL0     H16906   7.194   9.997   2.568  0.1096  0.1909 -0.0955
  886MOL0     H16907   7.066  10.106   2.598  2.3094  0.5779 -0.2335
  886MOL0     H16908   7.018   9.824   2.703 -0.7140 -0.8955 -1.6507
  886MOL0     H16909   7.005   9.864   2.531 -1.3443  3.2823 -1.3611
  886MOL0     H16910   6.782   9.869   2.666 -0.2202  0.3850  2.3246
  886MOL0     H16911   6.859   9.989   2.766  0.3640  1.0380  0.3517
  886MOL0     H16912   6.856  10.153   2.608 -0.9948  0.7631 -0.0580
  886MOL0     H16913   6.703  10.078   2.608 -0.6696 -2.1619  0.4410
  886MOL0     H16914   6.795   9.896   2.225  2.4998  2.7193 -1.5531
  886MOL0     H16915   6.629   9.929   2.035  1.8155 -0.1111  0.7161
  886MOL0     H16916   6.165  10.040   1.860  1.1499 -0.1887  0.1514
  886MOL0     H16917   5.953  10.130   1.780 -1.2679  0.8481  1.3297
  886MOL0     H16918   5.717  10.172   1.868  1.6137 -0.1927 -0.3821
  886MOL0     H16919   5.766  10.218   1.722 -0.0046 -1.6100  1.3280
  886MOL0     H16920   5.630  10.412   1.710  1.8728 -1.0075 -0.7225
  886MOL0     H16921   5.573  10.389   1.879 -0.1086  0.2680 -0.4655
  886MOL0     H16922   5.427  10.214   1.810  0.3050  1.4961  0.9343
  886MOL0     H16923   5.497  10.183   1.653 -2.5676 -0.8261  0.1936
  886MOL0     H16924   5.379  10.442   1.716  2.9741  0.7751 -0.7939
  886MOL0     H16925   5.437  10.384   1.558 -0.1060  0.9904 -0.0286
  886MOL0     H16926   5.243  10.209   1.575 -0.2258  0.3451  0.3998
  886MOL0     H16927   5.215  10.381   1.530  3.1361 -0.2006 -0.6048
  886MOL0     H16928   5.149  10.436   1.733  0.5208  0.0837  2.0329
  886MOL0     H16929   5.195  10.297   1.817 -1.4175  0.5821  0.7951
  886MOL0     H16930   4.956  10.291   1.610  0.4337 -1.6137 -1.4240
  886MOL0     H16931   5.023  10.157   1.699  0.6878 -0.1818 -0.5621
  886MOL0     H16932   4.893  10.407   1.841 -3.0329 -0.3164 -1.7374
  886MOL0     H16933   4.973  10.259   1.913  1.4886  1.2609 -0.4673
  886MOL0     H16934   5.982  10.452   2.066  0.2394 -0.9433  2.2085
  886MOL0     H16935   6.182  10.343   2.147  2.8951 -2.4584 -1.1732
  886MOL0     H16936   6.441  10.232   2.293 -1.0815 -1.5664  1.8605
  886MOL0     H16937   6.587  10.177   2.467  1.9416 -3.7378  2.5612
  886MOL0     H16938   8.375  10.402   3.137  1.0877 -0.1729 -0.4823
  886MOL0     H16939   8.561  10.467   3.251 -0.5070 -1.4444  0.6149
  886MOL0     H16940   8.949  10.285   3.487  1.7967 -0.4911  1.7411
  886MOL0     H16941   9.150  10.375   3.598  0.3709 -0.5386  1.0700
  886MOL0     H16942   9.314  10.528   3.622 -1.9962  2.0547 -0.3317
  886MOL0     H16943   9.280  10.448   3.769  2.2313 -0.0111  0.2701
  886MOL0     H16944   9.424  10.709   3.752  0.4749 -0.6554  0.0891
  886MOL0     H16945   9.353  10.638   3.898 -3.6587 -2.8840 -0.5207
  886MOL0     H16946   9.554  10.519   3.707 -1.1541  0.3466 -0.3435
  886MOL0     H16947   9.500  10.443   3.859 -3.1226 -0.7426 -2.1975
  886MOL0     H16948   9.648  10.704   3.816  2.5472 -2.0308 -1.0856
  886MOL0     H16949   9.578  10.670   3.972  3.1598  3.1138 -0.7055
  886MOL0     H16950   9.931  10.437   3.979  0.8325  1.4646 -1.0170
  886MOL0     H16951   8.932  10.710   3.742  0.3490 -0.6795  1.1120
  886MOL0     H16952   8.717  10.607   3.682  2.2909  3.6854  1.8620
  887MOL0     O16953  11.140   2.781   3.765 -0.2637 -0.7862 -0.3129
  887MOL0     C16954  11.221   2.867   3.721  0.3094 -0.3380  0.4099
  887MOL0     O16955  11.191   2.969   3.644  0.3109 -0.4542  0.0763
  887MOL0     C16956  11.061   2.991   3.596  0.0259 -0.3838  0.6083
  887MOL0     C16957  10.986   2.897   3.517  0.1379 -0.4672  0.5736
  887MOL0     C16958  10.863   2.946   3.460 -0.0782  0.2736 -1.2417
  887MOL0     C16959  10.822   3.080   3.476  0.1609  0.0004 -0.8096
  887MOL0     O16960  10.702   3.123   3.424  0.4504  0.0410 -0.0375
  887MOL0     C16961  10.657   3.064   3.304 -0.3052 -0.3879  0.0368
  887MOL0     C16962  10.554   3.166   3.238 -0.5348  0.0007  0.2570
  887MOL0     C16963  10.497   3.123   3.099  0.0965 -0.7010  0.2260
  887MOL0     C16964  10.386   3.233   3.065 -0.7005 -0.2948  0.4752
  887MOL0     C16965  10.364   3.223   2.906 -0.5264  0.4918 -0.0710
  887MOL0     C16966  10.247   3.309   2.863 -0.8101 -0.1709 -0.0414
  887MOL0     C16967  10.213   3.295   2.712 -0.1954 -0.1057  1.0559
  887MOL0     C16968  10.148   3.158   2.661  0.3990 -0.0489 -0.6538
  887MOL0     N16969  10.106   3.166   2.516 -0.7054  0.2984 -0.5537
  887MOL0     C16970  10.133   3.066   2.418 -1.2922  0.4753 -0.3197
  887MOL0     C16971  10.108   3.133   2.302  0.7686 -0.1880 -0.2927
  887MOL0     C16972  10.148   3.090   2.158  0.3512  0.2639  0.4790
  887MOL0     C16973  10.042   3.006   2.094 -0.3791  1.0176  0.7764
  887MOL0     C16974   9.908   3.065   2.082 -0.1106  0.4016 -1.0652
  887MOL0     C16975   9.820   2.973   1.999 -0.6105 -0.0848  0.3680
  887MOL0     O16976   9.683   2.995   2.035  0.2331  0.8668  0.7371
  887MOL0     C16977   9.587   2.957   1.944  0.2993 -0.1229 -0.1455
  887MOL0     C16978   9.615   2.864   1.846  0.2893 -0.3469 -0.5607
  887MOL0     C16979   9.521   2.827   1.758  0.0158  0.8970  0.3718
  887MOL0     C16980   9.390   2.894   1.752  0.1750 -0.5372 -0.1561
  887MOL0     C16981   9.290   2.853   1.645 -0.4783 -0.1940 -0.4403
  887MOL0     O16982   9.325   2.743   1.578 -0.6591  0.1799 -0.1586
  887MOL0     C16983   9.260   2.702   1.471  0.0609 -0.5187 -0.4802
  887MOL0     C16984   9.349   2.690   1.352  0.1585 -0.0723 -0.4124
  887MOL0     C16985   9.293   2.651   1.235 -0.3970 -0.0989  0.0817
  887MOL0     C16986   9.155   2.624   1.213 -0.7060 -0.6122  0.3264
  887MOL0     O16987   9.096   2.578   1.100  0.5035  0.1074 -0.4111
  887MOL0     C16988   9.130   2.639   0.979 -0.1470 -0.0834  0.2180
  887MOL0     C16989   9.049   2.575   0.860  0.0399 -0.0419  0.0595
  887MOL0     C16990   9.010   2.682   0.757  0.0972  0.3502  0.6937
  887MOL0     C16991   8.923   2.623   0.645 -0.3942 -0.5223 -0.0595
  887MOL0     C16992   8.893   2.732   0.537 -0.5859  0.3903 -0.1624
  887MOL0     C16993   8.810   2.680   0.424  0.2060  0.6137  0.1220
  887MOL0     C16994   8.663   2.650   0.459 -0.6116 -0.0672 -0.3645
  887MOL0     C16995   8.572   2.633   0.334 -0.6884  0.3047 -1.1614
  887MOL0    Cl16996   8.594   2.754   0.212  0.1466  0.2113 -0.0265
  887MOL0     C16997   9.082   2.617   1.330 -1.1126  0.2939 -0.5002
  887MOL0     C16998   9.123   2.661   1.460  0.3344  0.3740  1.1716
  887MOL0     O16999   9.189   2.919   1.627  0.4779  0.1612  0.6957
  887MOL0     C17000   9.363   2.991   1.847 -0.2622 -0.8810 -0.2519
  887MOL0     C17001   9.461   3.022   1.936 -0.1912 -0.4046 -0.5338
  887MOL0     N17002  10.061   3.262   2.336 -0.3135 -0.3979 -0.7791
  887MOL0     N17003  10.057   3.279   2.465  0.0242  0.3368 -0.8728
  887MOL0     C17004  10.904   3.175   3.537  0.6247  0.2902  0.4215
  887MOL0     C17005  11.024   3.124   3.593  0.3291  0.1103 -0.1742
  887MOL0     C17006  11.360   2.853   3.756  0.1534  0.6540 -0.1246
  887MOL0     C17007  11.458   2.949   3.726  0.3436 -0.0071  0.3782
  887MOL0     C17008  11.598   2.945   3.748 -0.5667  0.4938 -0.1029
  887MOL0     C17009  11.648   2.830   3.804 -0.5157 -1.1920  0.1766
  887MOL0     O17010  11.782   2.800   3.814  0.5674 -0.2246  0.4830
  887MOL0     C17011  11.880   2.876   3.740 -0.6868 -0.7606  0.0571
  887MOL0     C17012  11.917   3.019   3.793  0.0979  0.1746 -0.0089
  887MOL0     C17013  11.910   3.030   3.947 -0.3376  0.6084  0.7860
  887MOL0     C17014  11.999   2.921   4.005 -0.4676  0.6408 -0.4742
  887MOL0     C17015  12.118   2.975   4.070  0.0541 -0.3202  0.2625
  887MOL0     C17016  12.206   3.040   4.119  0.2462  0.1020  0.1966
  887MOL0     C17017  11.557   2.730   3.835 -0.2430 -0.0691 -0.3019
  887MOL0     C17018  11.417   2.745   3.819 -0.5520  0.0318 -0.3493
  887MOL0     H17019  11.010   2.792   3.530  3.3835  0.2960  1.7301
  887MOL0     H17020  10.789   2.877   3.419 -0.1776  0.7449 -1.8835
  887MOL0     H17021  10.619   2.967   3.339  1.4848 -0.1750  2.8965
  887MOL0     H17022  10.741   3.047   3.237 -1.8450 -1.8881 -1.6182
  887MOL0     H17023  10.600   3.264   3.229 -3.8395  1.6379 -0.4823
  887MOL0     H17024  10.472   3.174   3.310  1.1002  1.0614  2.0835
  887MOL0     H17025  10.467   3.019   3.086 -0.6018 -0.4256 -0.4319
  887MOL0     H17026  10.583   3.138   3.032 -0.8639  3.1960 -0.3543
  887MOL0     H17027  10.296   3.200   3.118 -0.6922 -2.0526 -0.5071
  887MOL0     H17028  10.427   3.329   3.095  0.7543 -1.0016  0.8394
  887MOL0     H17029  10.333   3.122   2.878 -2.0569  0.8239  0.3193
  887MOL0     H17030  10.455   3.253   2.853 -0.9677  1.8913 -0.0797
  887MOL0     H17031  10.266   3.414   2.885 -0.0654  0.5863 -3.6373
  887MOL0     H17032  10.156   3.274   2.913  0.2514 -0.7926  1.5566
  887MOL0     H17033  10.131   3.363   2.688  0.0407  0.7050  2.4254
  887MOL0     H17034  10.302   3.311   2.650 -0.1995  0.4814  1.1940
  887MOL0     H17035  10.069   3.114   2.723  0.5400  0.4657 -0.1016
  887MOL0     H17036  10.229   3.084   2.672  2.2149  1.7989 -0.9126
  887MOL0     H17037  10.173   2.967   2.438  1.6276  1.8045  1.1097
  887MOL0     H17038  10.241   3.033   2.162  1.2204  1.5190 -0.6687
  887MOL0     H17039  10.166   3.179   2.097  1.3641 -0.5782 -0.5143
  887MOL0     H17040  10.027   2.919   2.159 -0.7375  0.6514  0.2142
  887MOL0     H17041  10.072   2.965   1.997 -0.0378 -1.2566  1.7813
  887MOL0     H17042   9.864   3.069   2.182  0.5109 -0.1761 -0.7574
  887MOL0     H17043   9.914   3.165   2.038  2.6575 -0.6653 -3.4511
  887MOL0     H17044   9.845   2.869   2.019  0.5208  0.3008  1.0608
  887MOL0     H17045   9.842   2.988   1.892 -1.4217  0.9433  0.3265
  887MOL0     H17046   9.705   2.802   1.845  0.8747  0.4740 -0.0044
  887MOL0     H17047   9.555   2.750   1.690 -2.6123  1.5970 -1.9633
  887MOL0     H17048   9.455   2.710   1.363  0.4477 -1.6203 -0.1214
  887MOL0     H17049   9.363   2.648   1.152  1.2238  0.9274  1.3350
  887MOL0     H17050   9.237   2.633   0.961 -0.2090 -1.1176  0.1640
  887MOL0     H17051   9.096   2.743   0.987 -2.0911 -0.6194 -0.3750
  887MOL0     H17052   8.972   2.517   0.912  0.7774 -1.0955 -0.0017
  887MOL0     H17053   9.114   2.501   0.814 -2.5284 -2.6521  0.3267
  887MOL0     H17054   9.094   2.733   0.709 -0.2598  1.4343  1.1935
  887MOL0     H17055   8.939   2.751   0.804 -1.2230  0.0113 -0.7410
  887MOL0     H17056   8.968   2.537   0.594 -0.0300 -1.4352  1.7180
  887MOL0     H17057   8.833   2.587   0.698 -0.4615  0.8950  0.8301
  887MOL0     H17058   8.993   2.756   0.498 -0.4171 -1.2382 -0.7881
  887MOL0     H17059   8.849   2.815   0.594 -0.7267 -0.7955  1.5493
  887MOL0     H17060   8.858   2.594   0.376  3.5916  2.3625  0.1059
  887MOL0     H17061   8.819   2.756   0.346 -0.2142  0.9253  0.3719
  887MOL0     H17062   8.657   2.564   0.527  1.0118  1.0866  1.3274
  887MOL0     H17063   8.637   2.740   0.515  0.0603  0.7414 -1.3030
  887MOL0     H17064   8.470   2.610   0.365 -0.5127 -0.4784 -1.1310
  887MOL0     H17065   8.600   2.542   0.279 -2.4549  0.8784 -3.1196
  887MOL0     H17066   8.980   2.583   1.311 -0.5607 -0.2682 -2.8521
  887MOL0     H17067   9.061   2.671   1.548 -1.4005  3.5269 -0.2187
  887MOL0     H17068   9.276   3.055   1.848  0.5907  0.3848 -1.8552
  887MOL0     H17069   9.442   3.105   2.003  2.9724  0.1469 -0.1750
  887MOL0     H17070  10.880   3.281   3.535 -0.6151  0.0326 -2.2528
  887MOL0     H17071  11.071   3.191   3.664 -2.2431  3.0038 -0.9637
  887MOL0     H17072  11.417   3.038   3.678 -0.0910  0.7282  2.0342
  887MOL0     H17073  11.665   3.023   3.711  0.8053 -1.9150 -3.1347
  887MOL0     H17074  11.844   2.886   3.637 -2.4862  0.1231  0.7199
  887MOL0     H17075  11.974   2.820   3.733  1.4256  2.5383 -0.4101
  887MOL0     H17076  12.022   3.043   3.771  0.7931 -1.1357  1.6576
  887MOL0     H17077  11.855   3.095   3.746  0.2599  0.4057  0.1481
  887MOL0     H17078  11.807   3.020   3.983 -0.4804  0.8505  0.4517
  887MOL0     H17079  11.944   3.129   3.979  1.2835  0.2605  0.2468
  887MOL0     H17080  11.941   2.855   4.071  0.8958 -2.0644 -1.8172
  887MOL0     H17081  12.039   2.839   3.945 -2.1640 -0.4294 -0.2184
  887MOL0     H17082  12.284   3.099   4.164  0.1577 -0.4088  1.0468
  887MOL0     H17083  11.601   2.635   3.862  2.2777  1.3373  0.9129
  887MOL0     H17084  11.356   2.658   3.842 -2.1348  0.9371 -0.9766
  888MOL0     O17085   0.486   4.655   5.103  0.3769 -0.5802  0.4301
  888MOL0     C17086   0.551   4.548   5.100  0.0159 -1.5882  0.3367
  888MOL0     O17087   0.491   4.424   5.081  0.0979 -0.2432 -0.2135
  888MOL0     C17088   0.357   4.403   5.084  0.1675  0.4121  0.1647
  888MOL0     C17089   0.315   4.267   5.078 -0.7442  0.7238 -0.3108
  888MOL0     C17090   0.189   4.234   5.049 -0.2783  0.6464 -0.0834
  888MOL0     C17091   0.084   4.333   5.029 -0.4578  0.0726 -1.1941
  888MOL0     O17092  -0.044   4.319   4.999  0.9467  0.5858  0.1627
  888MOL0     C17093  -0.094   4.184   5.019  0.6282  0.0003 -0.5310
  888MOL0     C17094  -0.244   4.175   4.994  0.4394 -0.5330 -0.5671
  888MOL0     C17095  -0.321   4.262   5.082  0.3085 -0.4744 -0.5307
  888MOL0     C17096  -0.475   4.235   5.059 -0.3917  0.1482 -0.1936
  888MOL0     C17097  -0.560   4.344   5.112  0.7864 -0.3705  0.1650
  888MOL0     C17098  -0.691   4.292   5.174 -0.2235  0.5773 -0.4713
  888MOL0     C17099  -0.790   4.207   5.090 -0.0789 -0.5066  1.1417
  888MOL0     C17100  -0.836   4.280   4.961 -0.6301  0.0648  0.0034
  888MOL0     N17101  -0.879   4.423   4.979 -1.0032 -0.0780  0.1339
  888MOL0     C17102  -0.993   4.443   5.044  0.1386  0.7028  0.7988
  888MOL0     C17103  -1.005   4.577   5.052 -0.3457  1.1069 -0.4801
  888MOL0     C17104  -1.131   4.631   5.112 -1.0321 -0.1564 -0.3094
  888MOL0     C17105  -1.263   4.618   5.044 -0.3398  0.5912 -0.0825
  888MOL0     C17106  -1.362   4.726   5.094 -0.5006  0.2821  0.8050
  888MOL0     C17107  -1.501   4.704   5.054  0.0448 -0.2318 -0.2949
  888MOL0     O17108  -1.509   4.682   4.914 -0.0897 -1.1830 -0.6636
  888MOL0     C17109  -1.634   4.702   4.858  0.1100 -0.1900 -0.4780
  888MOL0     C17110  -1.750   4.670   4.934 -0.5176 -0.3629 -0.1204
  888MOL0     C17111  -1.876   4.686   4.867  0.0894  1.3124  0.2201
  888MOL0     C17112  -1.887   4.719   4.731  0.0579 -0.2257 -0.9486
  888MOL0     C17113  -2.026   4.730   4.676  0.4132  0.6348 -0.5499
  888MOL0     O17114  -2.141   4.707   4.761 -0.2671  0.9208 -0.0287
  888MOL0     C17115  -2.251   4.665   4.697  0.5525 -0.1574 -0.7484
  888MOL0     C17116  -2.249   4.570   4.591  0.1162 -0.1787 -0.3687
  888MOL0     C17117  -2.365   4.549   4.522  0.4609 -0.5488  0.0428
  888MOL0     C17118  -2.492   4.595   4.565 -0.0165  0.1450  0.6293
  888MOL0     O17119  -2.608   4.559   4.497 -0.2525 -0.7367 -0.0234
  888MOL0     C17120  -2.739   4.568   4.554  0.2719 -0.4681 -0.1377
  888MOL0     C17121  -2.838   4.552   4.442  0.0207  0.2830 -0.1392
  888MOL0     C17122  -2.980   4.573   4.505 -0.3325 -0.4848 -0.7695
  888MOL0     C17123  -3.087   4.539   4.399  0.0607 -0.0091 -0.8795
  888MOL0     C17124  -3.227   4.604   4.430 -0.0699  0.6461  0.1113
  888MOL0     C17125  -3.301   4.547   4.549  0.3133  0.0088  0.5272
  888MOL0     C17126  -3.436   4.603   4.574 -0.3595  0.2800  0.1270
  888MOL0     C17127  -3.515   4.542   4.696  0.0866 -0.2417 -0.3038
  888MOL0    Cl17128  -3.683   4.575   4.664  0.0610  0.2750 -0.0015
  888MOL0     C17129  -2.495   4.692   4.674 -0.5993 -0.4100 -0.1145
  888MOL0     C17130  -2.368   4.736   4.732 -0.5751 -0.4087  1.1923
  888MOL0     O17131  -2.032   4.746   4.556 -0.6055  0.1194  0.1120
  888MOL0     C17132  -1.765   4.742   4.664  0.0483  0.1675 -0.4485
  888MOL0     C17133  -1.642   4.744   4.729  0.3681  0.1601  0.5569
  888MOL0     N17134  -0.891   4.632   5.007 -0.2792 -0.2094 -0.2211
  888MOL0     N17135  -0.823   4.540   4.952  0.2395  0.5946 -0.6111
  888MOL0     C17136   0.121   4.470   5.029  0.1212 -0.8385  1.0501
  888MOL0     C17137   0.256   4.497   5.058 -0.3364 -0.8337 -0.7722
  888MOL0     C17138   0.690   4.553   5.135  0.3184  0.1953  0.5692
  888MOL0     C17139   0.767   4.665   5.099  0.8707 -0.5561  0.6052
  888MOL0     C17140   0.910   4.671   5.105  0.1359  0.1501 -0.1663
  888MOL0     C17141   0.974   4.557   5.154 -0.6431  0.6699  0.1699
  888MOL0     O17142   1.108   4.537   5.173  0.8517 -0.0580 -0.4461
  888MOL0     C17143   1.198   4.643   5.144 -0.2657  0.6542  0.5070
  888MOL0     C17144   1.334   4.583   5.124  0.1134  0.5365 -0.4415
  888MOL0     C17145   1.435   4.691   5.078  0.4332  0.2098 -0.8696
  888MOL0     C17146   1.579   4.635   5.082 -0.2064 -0.1068  0.3376
  888MOL0     C17147   1.680   4.742   5.077  0.1092  0.6505 -0.8223
  888MOL0     C17148   1.772   4.828   5.082  0.8634 -0.3033  0.5074
  888MOL0     C17149   0.901   4.448   5.190  0.5448 -0.3311 -0.8359
  888MOL0     C17150   0.762   4.440   5.184  0.3815 -0.1013 -0.6562
  888MOL0     H17151   0.372   4.181   5.112  1.3689  1.7827 -0.9890
  888MOL0     H17152   0.169   4.127   5.054 -4.0708  1.1561 -1.5158
  888MOL0     H17153  -0.068   4.169   5.124 -3.6087  0.7856  0.7982
  888MOL0     H17154  -0.040   4.120   4.948 -1.4521 -2.0176 -0.4074
  888MOL0     H17155  -0.277   4.075   5.023 -3.8247  0.0612 -2.5751
  888MOL0     H17156  -0.270   4.193   4.889  0.5279 -1.6811 -0.7974
  888MOL0     H17157  -0.299   4.366   5.057  1.9640 -0.7251 -0.2792
  888MOL0     H17158  -0.305   4.243   5.188 -0.2338 -0.6867 -0.4875
  888MOL0     H17159  -0.504   4.214   4.956 -0.3751  0.0899 -0.1870
  888MOL0     H17160  -0.510   4.142   5.106 -1.3217 -0.5275 -2.1063
  888MOL0     H17161  -0.577   4.412   5.028  3.3610  0.6499  0.3974
  888MOL0     H17162  -0.503   4.399   5.187 -0.8285  1.6273  0.0100
  888MOL0     H17163  -0.746   4.375   5.218 -0.5529  0.3206 -0.3942
  888MOL0     H17164  -0.660   4.227   5.257  1.8614  2.6624  0.5067
  888MOL0     H17165  -0.741   4.115   5.059  0.9610  0.0263  1.1628
  888MOL0     H17166  -0.881   4.189   5.149 -1.5372  2.9365  0.2193
  888MOL0     H17167  -0.913   4.220   4.914 -0.5986  0.6923 -0.8743
  888MOL0     H17168  -0.746   4.279   4.898  0.6013  1.0989  1.6381
  888MOL0     H17169  -1.064   4.363   5.065 -0.3444  0.4373 -1.5503
  888MOL0     H17170  -1.115   4.740   5.118 -0.9854 -0.0557 -1.8737
  888MOL0     H17171  -1.143   4.593   5.214  2.8547  0.6947  0.6412
  888MOL0     H17172  -1.303   4.517   5.059  0.8590 -0.0579 -1.0632
  888MOL0     H17173  -1.245   4.633   4.937 -4.3939  1.0209 -0.8811
  888MOL0     H17174  -1.359   4.720   5.203 -1.5952 -1.5735  0.7841
  888MOL0     H17175  -1.324   4.824   5.065 -0.5420 -0.0910 -0.6311
  888MOL0     H17176  -1.563   4.788   5.087 -1.6511 -1.8256  0.7628
  888MOL0     H17177  -1.545   4.617   5.104 -2.0249  1.2018  0.5174
  888MOL0     H17178  -1.753   4.640   5.038 -1.2900  2.0725  0.6189
  888MOL0     H17179  -1.958   4.645   4.925  1.6977 -2.9182 -0.1884
  888MOL0     H17180  -2.154   4.518   4.578  1.0947  1.0852  1.3678
  888MOL0     H17181  -2.356   4.479   4.439 -0.1894  0.2537 -0.7302
  888MOL0     H17182  -2.763   4.661   4.606 -2.3655 -0.8565 -0.5236
  888MOL0     H17183  -2.748   4.488   4.627  1.0074 -0.6460 -0.2341
  888MOL0     H17184  -2.823   4.449   4.408  2.8450  0.3458  0.6791
  888MOL0     H17185  -2.811   4.626   4.366 -0.5669  2.5391  1.7508
  888MOL0     H17186  -2.989   4.675   4.542 -1.7024 -1.3089  1.4258
  888MOL0     H17187  -3.001   4.507   4.590 -1.8338 -1.6953 -1.9961
  888MOL0     H17188  -3.054   4.581   4.304 -0.6237  0.0461 -1.0960
  888MOL0     H17189  -3.106   4.432   4.383 -1.0662 -0.0030  0.2605
  888MOL0     H17190  -3.292   4.598   4.342 -0.5858 -0.4925  0.5511
  888MOL0     H17191  -3.205   4.708   4.455 -0.2392  0.0580  2.9658
  888MOL0     H17192  -3.247   4.559   4.643 -0.6783  0.3739  1.0629
  888MOL0     H17193  -3.313   4.441   4.523  0.2734 -0.0504  0.7797
  888MOL0     H17194  -3.424   4.711   4.588  0.2587 -0.0218  2.4467
  888MOL0     H17195  -3.506   4.594   4.491 -0.9660  0.4702  0.6083
  888MOL0     H17196  -3.477   4.577   4.792  0.8372 -2.3716  0.2115
  888MOL0     H17197  -3.513   4.433   4.702  0.5111 -0.3142 -1.4581
  888MOL0     H17198  -2.582   4.740   4.717 -0.2440  0.3258 -0.2011
  888MOL0     H17199  -2.374   4.821   4.798 -3.7226  1.0339 -0.7540
  888MOL0     H17200  -1.751   4.767   4.560  2.5051 -1.7187 -0.6793
  888MOL0     H17201  -1.550   4.754   4.671  0.3376  0.6010  0.5816
  888MOL0     H17202   0.045   4.547   5.018  0.3776 -0.0973  3.8673
  888MOL0     H17203   0.273   4.604   5.046  1.1021 -0.8451  0.7348
  888MOL0     H17204   0.708   4.753   5.076  1.3983 -0.4924 -0.5776
  888MOL0     H17205   0.970   4.755   5.073  0.7732 -0.1074  0.3410
  888MOL0     H17206   1.196   4.726   5.216 -0.9422  1.1226 -0.0440
  888MOL0     H17207   1.171   4.680   5.045 -0.8897  1.1360  0.8535
  888MOL0     H17208   1.359   4.549   5.225  0.5535 -1.3486 -1.1433
  888MOL0     H17209   1.341   4.496   5.058  1.1537 -0.2166  0.6013
  888MOL0     H17210   1.447   4.775   5.147  2.4892  0.9492 -2.0273
  888MOL0     H17211   1.409   4.740   4.984  2.9190  1.3566 -1.0286
  888MOL0     H17212   1.601   4.580   5.174  1.5711  0.5995  0.3631
  888MOL0     H17213   1.591   4.563   5.001 -1.2339 -0.9459  0.8949
  888MOL0     H17214   1.850   4.901   5.076 -0.9055  1.7314  0.9535
  888MOL0     H17215   0.961   4.378   5.247  1.5375  2.4356  1.7650
  888MOL0     H17216   0.706   4.351   5.213 -0.9341  1.0758  0.5878
  889MOL0     O17217   3.194   7.972  11.077 -0.2684  0.1476  0.0035
  889MOL0     C17218   3.268   8.020  10.986 -0.5137  0.7356  0.0398
  889MOL0     O17219   3.280   7.974  10.859 -0.0982  0.0474 -0.0761
  889MOL0     C17220   3.196   7.869  10.823  0.2118  0.0204  0.2796
  889MOL0     C17221   3.058   7.888  10.792 -0.9507  0.0463  0.1741
  889MOL0     C17222   2.989   7.788  10.729  0.1640 -0.3981 -0.9934
  889MOL0     C17223   3.045   7.667  10.690  0.0210 -0.6592 -0.3010
  889MOL0     O17224   2.967   7.589  10.623  0.0876  0.3548  0.1613
  889MOL0     C17225   2.986   7.449  10.654  0.9925  0.1489  1.2448
  889MOL0     C17226   2.878   7.359  10.614  0.4620  0.1388 -0.5882
  889MOL0     C17227   2.768   7.359  10.723  0.7539  0.7189 -0.3978
  889MOL0     C17228   2.647   7.280  10.669  0.4948  0.7739  0.4659
  889MOL0     C17229   2.541   7.243  10.779 -0.4559  0.2147 -0.6391
  889MOL0     C17230   2.396   7.274  10.749 -0.2099  0.2896  0.7727
  889MOL0     C17231   2.355   7.193  10.629  0.3994  0.5675 -0.0327
  889MOL0     C17232   2.213   7.236  10.595 -0.6635 -0.7105  0.6944
  889MOL0     N17233   2.171   7.204  10.462 -0.1365  0.4541 -0.0121
  889MOL0     C17234   2.136   7.082  10.407  0.6887  0.0528  0.6175
  889MOL0     C17235   2.090   7.114  10.285  0.2096  0.0192  0.4394
  889MOL0     C17236   2.011   7.017  10.202  0.5544  0.3283  0.4498
  889MOL0     C17237   1.859   7.037  10.191  0.2064 -0.1875 -0.6801
  889MOL0     C17238   1.796   6.961  10.076  0.6613 -0.7122  0.0065
  889MOL0     C17239   1.637   6.967  10.108  0.6765  0.1890  1.2287
  889MOL0     O17240   1.578   6.863  10.030 -0.7280  0.6204  0.2355
  889MOL0     C17241   1.442   6.864   9.996 -0.2822 -0.2882  0.9097
  889MOL0     C17242   1.401   6.779   9.897  0.0558 -0.7433 -0.5934
  889MOL0     C17243   1.265   6.783   9.858 -0.3728 -0.5198  0.4246
  889MOL0     C17244   1.168   6.867   9.924 -0.3254  0.0677 -0.2667
  889MOL0     C17245   1.021   6.852   9.882  0.1917  0.0670 -0.0636
  889MOL0     O17246   0.992   6.771   9.770  0.0921 -0.1269  0.2839
  889MOL0     C17247   0.882   6.806   9.699  1.2929  0.0065  0.1380
  889MOL0     C17248   0.804   6.708   9.642  0.0915  0.1446  0.1141
  889MOL0     C17249   0.686   6.736   9.572  0.5119  0.1770 -0.7042
  889MOL0     C17250   0.641   6.865   9.559 -0.2828  0.6133  0.7548
  889MOL0     O17251   0.516   6.855   9.498 -0.1995 -0.7559  0.0722
  889MOL0     C17252   0.467   6.990   9.457 -0.2368  0.3085 -0.5715
  889MOL0     C17253   0.328   6.956   9.386 -0.7684 -0.8917  0.4795
  889MOL0     C17254   0.296   7.075   9.287  0.6990 -0.1169  0.5683
  889MOL0     C17255   0.141   7.061   9.255  0.2581 -0.2311  0.3346
  889MOL0     C17256   0.083   7.203   9.219 -0.0416 -0.2727  0.5952
  889MOL0     C17257  -0.072   7.203   9.225 -0.2700  0.2766  0.5068
  889MOL0     C17258  -0.138   7.081   9.149  0.5519 -0.2531 -0.2459
  889MOL0     C17259  -0.282   7.112   9.093  0.0631  0.7867 -0.0191
  889MOL0    Cl17260  -0.411   7.087   9.222  0.1360 -0.5668  0.0719
  889MOL0     C17261   0.723   6.966   9.598 -0.1040 -0.2649 -0.2282
  889MOL0     C17262   0.840   6.937   9.674  0.5610  0.2725 -0.4621
  889MOL0     O17263   0.931   6.891   9.953 -0.2973 -0.1617  0.2965
  889MOL0     C17264   1.211   6.942  10.032  0.5655  0.2994  0.0394
  889MOL0     C17265   1.349   6.951  10.063 -0.7265 -0.6313 -0.4653
  889MOL0     N17266   2.101   7.251  10.270 -0.0077  0.3401  0.3560
  889MOL0     N17267   2.141   7.304  10.377 -0.0552  0.7395  0.6620
  889MOL0     C17268   3.176   7.644  10.726  0.1606 -0.4474 -0.1688
  889MOL0     C17269   3.248   7.739  10.799 -0.1788 -0.0057  1.0072
  889MOL0     C17270   3.371   8.116  11.031  0.3827  0.0953  0.2170
  889MOL0     C17271   3.446   8.197  10.934  0.5005 -0.3266 -0.7104
  889MOL0     C17272   3.536   8.293  10.977 -0.1582  1.2465  0.5831
  889MOL0     C17273   3.558   8.322  11.113 -0.0673 -0.5542  0.3165
  889MOL0     O17274   3.638   8.428  11.164  0.0041 -0.6446 -0.0956
  889MOL0     C17275   3.769   8.435  11.110 -1.7343  0.0465 -0.0077
  889MOL0     C17276   3.814   8.576  11.115  0.0299 -0.5699 -1.0453
  889MOL0     C17277   3.936   8.608  11.202 -0.4068  0.9533 -0.4144
  889MOL0     C17278   4.010   8.735  11.169 -0.3985  0.1727 -0.6165
  889MOL0     C17279   4.152   8.721  11.190  0.4046 -0.3597 -1.3501
  889MOL0     C17280   4.271   8.715  11.189 -0.2624 -0.0036 -0.8146
  889MOL0     C17281   3.486   8.246  11.204 -0.3446 -0.5736  0.0908
  889MOL0     C17282   3.391   8.150  11.162  0.1816 -0.3873  0.1730
  889MOL0     H17283   3.008   7.980  10.823  2.5753  1.9892  0.5941
  889MOL0     H17284   2.885   7.812  10.713 -1.0312  0.3160  5.3960
  889MOL0     H17285   3.001   7.434  10.761 -0.6648 -0.0564  1.4736
  889MOL0     H17286   3.082   7.427  10.607  1.0265 -0.0665  1.4182
  889MOL0     H17287   2.921   7.258  10.606 -0.8930 -0.9580  3.4999
  889MOL0     H17288   2.825   7.389  10.523 -3.3640 -1.6966  0.8220
  889MOL0     H17289   2.749   7.462  10.757  2.2403  0.5898  0.9757
  889MOL0     H17290   2.792   7.297  10.810 -0.0023  0.6449 -0.2363
  889MOL0     H17291   2.596   7.348  10.601 -1.7587  0.6149  1.9009
  889MOL0     H17292   2.676   7.190  10.613  3.2278  0.0438  2.7746
  889MOL0     H17293   2.559   7.307  10.866 -2.3284 -1.9103  1.4253
  889MOL0     H17294   2.546   7.136  10.800  0.7391  0.5541  1.0153
  889MOL0     H17295   2.396   7.380  10.720  0.4414 -0.1057 -0.7571
  889MOL0     H17296   2.335   7.248  10.836 -1.3821 -2.5497 -0.7898
  889MOL0     H17297   2.423   7.198  10.544  1.3840  1.2856  0.7690
  889MOL0     H17298   2.367   7.089  10.660  2.6074 -0.1386 -2.8190
  889MOL0     H17299   2.203   7.345  10.594 -1.3412 -0.7423 -1.4298
  889MOL0     H17300   2.135   7.196  10.660 -2.0955  1.8375  0.6755
  889MOL0     H17301   2.138   6.985  10.456  3.3456 -0.7837 -0.9206
  889MOL0     H17302   2.039   6.917  10.236 -1.4308  0.0978  1.5405
  889MOL0     H17303   2.048   7.014  10.099 -2.5070 -0.8639 -0.7316
  889MOL0     H17304   1.827   7.140  10.171 -0.2828 -0.3948 -0.9645
  889MOL0     H17305   1.826   7.000  10.288  3.0932  1.4878  1.1171
  889MOL0     H17306   1.820   6.990   9.973  3.1444 -1.1275  0.4073
  889MOL0     H17307   1.831   6.858  10.089 -1.4203 -1.6574 -1.3459
  889MOL0     H17308   1.602   7.062  10.067  1.1074 -0.5898 -1.1030
  889MOL0     H17309   1.617   6.939  10.212 -1.7572 -4.3496 -0.1892
  889MOL0     H17310   1.480   6.720   9.853  2.6814  1.9250  0.2351
  889MOL0     H17311   1.235   6.731   9.767 -0.9403 -2.7397  1.8145
  889MOL0     H17312   0.847   6.610   9.656  1.3159  0.7497  0.7159
  889MOL0     H17313   0.616   6.658   9.545 -0.2237 -0.5786  2.9235
  889MOL0     H17314   0.540   7.029   9.385  1.3198 -0.6558  0.4403
  889MOL0     H17315   0.455   7.056   9.543  1.4363 -1.2000  0.8871
  889MOL0     H17316   0.254   6.938   9.464  0.1524  0.8584  1.8310
  889MOL0     H17317   0.335   6.865   9.325  1.2728  0.4893 -1.5189
  889MOL0     H17318   0.360   7.080   9.200  1.6549  1.3486  1.3298
  889MOL0     H17319   0.313   7.173   9.332  2.9516 -0.3913  0.3894
  889MOL0     H17320   0.132   6.993   9.169 -0.2235  1.7587 -1.2684
  889MOL0     H17321   0.084   7.024   9.340  0.9281 -1.0696  0.4345
  889MOL0     H17322   0.102   7.238   9.117 -0.9431 -0.2157  0.4410
  889MOL0     H17323   0.111   7.281   9.290 -2.0860 -0.4566  1.6652
  889MOL0     H17324  -0.109   7.290   9.170 -3.6179 -1.3115 -0.0427
  889MOL0     H17325  -0.108   7.205   9.329  0.5646 -1.2950  0.8508
  889MOL0     H17326  -0.074   7.066   9.061 -0.3635  2.2519 -1.4276
  889MOL0     H17327  -0.141   6.998   9.220 -0.2378  0.4225  0.5328
  889MOL0     H17328  -0.315   7.059   9.003  0.7454 -0.3104  0.3602
  889MOL0     H17329  -0.279   7.210   9.044 -0.4094 -0.4135 -2.6345
  889MOL0     H17330   0.694   7.069   9.580  0.2477  0.5278  3.0379
  889MOL0     H17331   0.905   7.016   9.712  1.2440 -0.3101 -0.3920
  889MOL0     H17332   1.132   6.996  10.083 -0.2291  0.7353 -1.5746
  889MOL0     H17333   1.385   7.015  10.142  0.5747  0.0838 -1.5787
  889MOL0     H17334   3.223   7.550  10.700 -1.6152 -1.7873  1.1997
  889MOL0     H17335   3.354   7.723  10.814  0.4573  1.7106 -1.1940
  889MOL0     H17336   3.449   8.185  10.826 -1.1487 -1.7387 -0.6416
  889MOL0     H17337   3.593   8.353  10.908 -1.6628  2.6513  0.5073
  889MOL0     H17338   3.795   8.395  11.011  1.9567 -0.6523  1.0999
  889MOL0     H17339   3.832   8.383  11.182  0.4961  1.7857 -0.5610
  889MOL0     H17340   3.830   8.616  11.014 -1.5038 -2.3924 -2.0705
  889MOL0     H17341   3.732   8.634  11.158 -0.7071  0.3565 -3.5147
  889MOL0     H17342   4.001   8.523  11.178 -0.4536  1.2730 -1.7877
  889MOL0     H17343   3.912   8.605  11.309  3.2971 -1.9891  0.5550
  889MOL0     H17344   4.001   8.772  11.067 -1.0512  2.0223  0.0782
  889MOL0     H17345   3.980   8.816  11.235 -1.1636 -0.5014 -0.1094
  889MOL0     H17346   4.378   8.719  11.195 -0.1393  0.3025 -2.7413
  889MOL0     H17347   3.501   8.288  11.303  2.8148  0.7119 -0.7978
  889MOL0     H17348   3.331   8.100  11.238  0.3680 -0.7312  0.0953
  890MOL0     O17349   8.525   2.810   4.786 -0.9230 -0.1326 -0.7735
  890MOL0     C17350   8.547   2.739   4.884  0.1643  1.1463  0.5881
  890MOL0     O17351   8.471   2.642   4.929  0.5252  0.3972 -1.0301
  890MOL0     C17352   8.358   2.605   4.863 -0.6546  0.4367  0.1188
  890MOL0     C17353   8.363   2.573   4.726  0.3887 -0.4306 -0.6487
  890MOL0     C17354   8.243   2.542   4.651  0.6586 -0.2103  0.2370
  890MOL0     C17355   8.119   2.534   4.721 -0.2386 -0.2990 -0.1046
  890MOL0     O17356   8.007   2.511   4.641  0.3475  0.2995 -0.4313
  890MOL0     C17357   7.874   2.486   4.698 -1.0908  0.1828  0.2499
  890MOL0     C17358   7.780   2.437   4.583  0.1952 -0.4227  0.4070
  890MOL0     C17359   7.643   2.374   4.620 -0.1969  0.2094 -0.6401
  890MOL0     C17360   7.547   2.475   4.682  0.5928 -0.1679 -0.5243
  890MOL0     C17361   7.407   2.414   4.728  0.0768  0.0311  0.9241
  890MOL0     C17362   7.338   2.367   4.596  0.1249 -0.8286 -0.5275
  890MOL0     C17363   7.193   2.342   4.606 -0.0041  1.0218 -0.6187
  890MOL0     C17364   7.128   2.325   4.466 -0.0973 -0.5975  0.0375
  890MOL0     N17365   6.982   2.301   4.466 -0.0254 -0.4016 -0.0110
  890MOL0     C17366   6.911   2.240   4.564  0.5972  0.0471  0.8486
  890MOL0     C17367   6.779   2.262   4.537  0.1128  0.4461  0.0202
  890MOL0     C17368   6.672   2.200   4.617  0.1246 -0.0691  1.7121
  890MOL0     C17369   6.648   2.053   4.584 -0.2597 -0.2527  0.0743
  890MOL0     C17370   6.520   1.988   4.650  0.2168 -0.1411 -0.3206
  890MOL0     C17371   6.512   2.001   4.800 -0.1101 -0.2861  0.9632
  890MOL0     O17372   6.431   1.902   4.859  0.6005 -0.0351 -0.0748
  890MOL0     C17373   6.299   1.938   4.869  0.6784  0.0042  0.6285
  890MOL0     C17374   6.211   1.927   4.760 -0.7175 -0.1981  0.6035
  890MOL0     C17375   6.083   1.991   4.755  0.4057 -0.1381 -0.3442
  890MOL0     C17376   6.044   2.073   4.865  0.0688  0.2277  0.2796
  890MOL0     C17377   5.926   2.164   4.847  0.2713  0.6082 -0.4097
  890MOL0     O17378   5.898   2.241   4.951  0.0035 -0.4016 -0.2341
  890MOL0     C17379   5.776   2.297   4.984  0.0987  0.8095  0.0747
  890MOL0     C17380   5.712   2.262   5.105  0.6157  0.2971 -0.2396
  890MOL0     C17381   5.591   2.323   5.138  0.3106 -0.2725  0.9498
  890MOL0     C17382   5.530   2.411   5.050  0.8287 -0.4051  0.3187
  890MOL0     O17383   5.419   2.490   5.080 -0.1477  0.0217 -0.3487
  890MOL0     C17384   5.362   2.472   5.213  0.3211 -0.3361  0.3904
  890MOL0     C17385   5.253   2.574   5.247 -0.0461 -0.2966 -0.1703
  890MOL0     C17386   5.158   2.530   5.360 -0.2985  0.1214 -0.8087
  890MOL0     C17387   5.046   2.634   5.359  0.2575  0.8028  0.1092
  890MOL0     C17388   4.951   2.573   5.464  0.3535  0.4773  0.8903
  890MOL0     C17389   4.809   2.649   5.475 -0.4116 -0.2970  0.1289
  890MOL0     C17390   4.819   2.780   5.545  0.2350 -0.6034 -0.3448
  890MOL0     C17391   4.706   2.793   5.653 -0.3929 -0.0057  0.4227
  890MOL0    Cl17392   4.708   2.655   5.774 -0.5269 -0.2952  0.0869
  890MOL0     C17393   5.600   2.443   4.930 -0.5500 -0.5257 -0.2950
  890MOL0     C17394   5.724   2.392   4.903 -0.1516 -0.2764 -0.1423
  890MOL0     O17395   5.863   2.157   4.745 -0.1839  0.3091  0.1900
  890MOL0     C17396   6.123   2.067   4.983  0.0223 -0.0677 -0.0720
  890MOL0     C17397   6.241   1.994   4.989  0.4309 -0.6615  0.4018
  890MOL0     N17398   6.770   2.323   4.413 -0.3388  0.5226 -0.5609
  890MOL0     N17399   6.895   2.355   4.377  0.6956  0.3269  0.1961
  890MOL0     C17400   8.119   2.563   4.856 -0.7317 -0.0379  0.5737
  890MOL0     C17401   8.236   2.598   4.924  0.0603 -0.1207 -0.6828
  890MOL0     C17402   8.683   2.761   4.940 -0.2209  0.3528  0.8164
  890MOL0     C17403   8.752   2.879   4.910 -0.4462 -0.5883 -0.0017
  890MOL0     C17404   8.884   2.898   4.956  0.1263 -0.1736 -0.2032
  890MOL0     C17405   8.955   2.795   5.028 -0.0058 -0.0615 -0.0498
  890MOL0     O17406   9.087   2.811   5.065  0.0017 -0.2536 -0.6952
  890MOL0     C17407   9.167   2.930   5.040  1.0939 -0.3164  0.0869
  890MOL0     C17408   9.292   2.902   5.114  0.1207 -0.0774 -0.2530
  890MOL0     C17409   9.389   3.023   5.104 -0.0326 -0.0864  0.5101
  890MOL0     C17410   9.392   3.105   5.229  0.5783 -0.8002  0.2675
  890MOL0     C17411   9.497   3.211   5.229 -0.5820  0.2516 -0.1662
  890MOL0     C17412   9.586   3.300   5.239 -0.4697  0.4659  0.4654
  890MOL0     C17413   8.892   2.675   5.047 -0.1918 -0.0239  0.2204
  890MOL0     C17414   8.755   2.654   5.007 -0.9265  0.2973 -0.2670
  890MOL0     H17415   8.456   2.578   4.670  1.7303 -1.7863  1.3437
  890MOL0     H17416   8.261   2.512   4.548  1.3147  1.4415 -0.1597
  890MOL0     H17417   7.839   2.584   4.731 -0.1967  1.7424 -3.0066
  890MOL0     H17418   7.886   2.411   4.777  1.4138 -2.0634 -2.0422
  890MOL0     H17419   7.842   2.368   4.525  2.7179  1.3019  0.8739
  890MOL0     H17420   7.768   2.523   4.516  0.8123 -0.2155  0.5509
  890MOL0     H17421   7.676   2.299   4.692  1.2574  2.0469  0.7050
  890MOL0     H17422   7.592   2.334   4.531 -2.5887  1.9891 -0.1612
  890MOL0     H17423   7.593   2.520   4.771  0.6268 -1.0546 -0.0833
  890MOL0     H17424   7.523   2.553   4.608 -1.6956 -0.7465 -0.4747
  890MOL0     H17425   7.352   2.496   4.776 -0.4080  0.2941 -0.0613
  890MOL0     H17426   7.411   2.323   4.788 -1.9435 -1.2943 -0.8041
  890MOL0     H17427   7.388   2.282   4.549  1.3712  0.2146 -1.1629
  890MOL0     H17428   7.338   2.454   4.529  0.4236  1.9991  2.8102
  890MOL0     H17429   7.175   2.250   4.662 -0.1865  0.8193 -1.0082
  890MOL0     H17430   7.154   2.430   4.657  0.3131  0.2458  1.0182
  890MOL0     H17431   7.180   2.243   4.415  2.1666  0.3048  0.7683
  890MOL0     H17432   7.148   2.406   4.395  3.2429  0.0137  1.5150
  890MOL0     H17433   6.961   2.200   4.652  2.3136  0.6766  0.2151
  890MOL0     H17434   6.582   2.255   4.587 -2.0443 -3.1903  2.0931
  890MOL0     H17435   6.688   2.212   4.724  1.6441 -2.0881  1.7724
  890MOL0     H17436   6.731   1.990   4.617 -0.2811 -0.7004 -0.7016
  890MOL0     H17437   6.644   2.048   4.475  1.8077 -0.1893 -0.0458
  890MOL0     H17438   6.433   2.034   4.603 -1.6783  0.0392  3.0180
  890MOL0     H17439   6.522   1.881   4.628 -1.5174 -0.1706 -0.4596
  890MOL0     H17440   6.483   2.101   4.833  1.0040 -0.4030  2.4439
  890MOL0     H17441   6.615   1.996   4.839  1.1707 -0.7729 -2.1998
  890MOL0     H17442   6.254   1.892   4.667 -0.4001  2.4437 -0.3431
  890MOL0     H17443   6.036   1.993   4.657  3.8988  3.1400 -2.2377
  890MOL0     H17444   5.760   2.193   5.174 -0.1733  0.6941  0.7277
  890MOL0     H17445   5.540   2.294   5.229 -1.2053 -0.0912  0.1818
  890MOL0     H17446   5.443   2.478   5.287  0.2004 -1.5523  0.6471
  890MOL0     H17447   5.327   2.369   5.225 -2.2723  0.5528  1.0675
  890MOL0     H17448   5.192   2.585   5.157 -0.0511  0.3037 -0.0955
  890MOL0     H17449   5.290   2.671   5.280 -0.2126 -1.0636  2.5728
  890MOL0     H17450   5.206   2.528   5.458 -2.6792  0.9660  0.4563
  890MOL0     H17451   5.118   2.429   5.346  1.3323 -0.4471 -1.5204
  890MOL0     H17452   5.076   2.737   5.381  2.3566  0.4353 -0.7841
  890MOL0     H17453   5.003   2.635   5.259  1.2482  2.1808 -0.3310
  890MOL0     H17454   5.004   2.577   5.560  2.2892  0.4807 -0.1344
  890MOL0     H17455   4.920   2.470   5.446  0.2902  0.9221 -2.0137
  890MOL0     H17456   4.731   2.586   5.519 -0.6084 -1.6933 -2.0572
  890MOL0     H17457   4.762   2.659   5.377 -2.4083 -0.3038  1.0208
  890MOL0     H17458   4.917   2.778   5.595 -0.3696  1.2128  1.0738
  890MOL0     H17459   4.813   2.862   5.472  1.3498 -1.2006 -1.1317
  890MOL0     H17460   4.620   2.794   5.585 -0.0472  1.0506 -0.0187
  890MOL0     H17461   4.720   2.893   5.696 -0.9918 -0.0246  0.6784
  890MOL0     H17462   5.569   2.517   4.858 -1.5907  1.0064  1.6337
  890MOL0     H17463   5.774   2.422   4.812 -0.3637 -0.8228 -0.4451
  890MOL0     H17464   6.086   2.130   5.063  0.3645 -0.3867  0.3438
  890MOL0     H17465   6.289   1.995   5.086  0.2271 -0.6487  0.5023
  890MOL0     H17466   8.029   2.551   4.916 -1.1461 -0.2269 -0.0818
  890MOL0     H17467   8.230   2.625   5.029 -0.9487 -1.8484 -0.2654
  890MOL0     H17468   8.716   2.958   4.846  2.0452  0.2821 -0.4671
  890MOL0     H17469   8.939   2.989   4.934  2.0861 -1.3890 -0.5904
  890MOL0     H17470   9.116   3.021   5.071 -2.2273 -1.3951 -1.7159
  890MOL0     H17471   9.197   2.940   4.935  0.7204  0.7829  0.0779
  890MOL0     H17472   9.263   2.875   5.216 -0.8827 -0.8843 -0.7295
  890MOL0     H17473   9.340   2.809   5.081 -0.0496 -1.2551  2.5724
  890MOL0     H17474   9.358   3.088   5.022 -1.9147 -1.0711  0.3904
  890MOL0     H17475   9.486   2.974   5.091  0.3343  0.5143  0.9792
  890MOL0     H17476   9.297   3.145   5.266 -0.1747 -2.2274 -0.0765
  890MOL0     H17477   9.413   3.034   5.309  1.7323 -1.5311 -0.6451
  890MOL0     H17478   9.674   3.358   5.260  2.2112 -2.6840 -0.9868
  890MOL0     H17479   8.948   2.613   5.116 -1.0253  2.0044  2.9079
  890MOL0     H17480   8.717   2.554   5.023  2.6632 -0.8646  2.4784
  891MOL0     O17481   4.051   9.184   0.008 -0.0454 -0.1478 -0.3319
  891MOL0     C17482   4.075   9.206  -0.108 -1.1714 -0.3675  0.7460
  891MOL0     O17483   3.995   9.181  -0.214  0.4859 -0.2626  0.3309
  891MOL0     C17484   3.868   9.137  -0.187  0.4917 -0.1007 -0.1968
  891MOL0     C17485   3.779   9.228  -0.126  0.3397  0.7864 -0.1939
  891MOL0     C17486   3.648   9.189  -0.108 -0.3307  0.8738 -0.7008
  891MOL0     C17487   3.602   9.059  -0.148  0.1143  0.4596 -0.1402
  891MOL0     O17488   3.474   9.024  -0.126 -0.3535  0.3999 -0.5275
  891MOL0     C17489   3.422   8.886  -0.123  0.6012  0.4872 -0.0770
  891MOL0     C17490   3.369   8.838  -0.257  0.4234  0.4836  0.4831
  891MOL0     C17491   3.352   8.678  -0.259  0.1187  0.6172  0.7053
  891MOL0     C17492   3.225   8.636  -0.182 -0.4143  0.0064  1.1839
  891MOL0     C17493   3.208   8.482  -0.184  0.1314 -0.8745 -0.0706
  891MOL0     C17494   3.068   8.452  -0.137  0.1467 -0.3623 -0.3631
  891MOL0     C17495   3.044   8.302  -0.121 -0.4772 -0.1319  0.3158
  891MOL0     C17496   2.894   8.275  -0.109 -0.6799  0.2685 -0.2832
  891MOL0     N17497   2.863   8.136  -0.128 -0.2854  0.2646 -0.1200
  891MOL0     C17498   2.922   8.027  -0.069  0.0712 -0.1210  0.0223
  891MOL0     C17499   2.875   7.924  -0.141  0.7160 -0.5011 -0.1980
  891MOL0     C17500   2.921   7.781  -0.129 -0.4560 -0.5209 -0.1810
  891MOL0     C17501   2.903   7.740   0.019 -0.5825  0.1054  0.0266
  891MOL0     C17502   2.767   7.718   0.078 -0.5117  0.4340  0.2611
  891MOL0     C17503   2.697   7.581   0.048  0.1097  0.8306 -0.4378
  891MOL0     O17504   2.564   7.585   0.103  0.1636 -0.5633 -0.4020
  891MOL0     C17505   2.477   7.479   0.071  0.4517 -0.5206  0.2082
  891MOL0     C17506   2.508   7.374  -0.009 -0.3049 -0.3189  0.2288
  891MOL0     C17507   2.405   7.285  -0.053  0.0050 -0.1758  0.4772
  891MOL0     C17508   2.271   7.306  -0.025 -0.3830 -0.5354  0.1243
  891MOL0     C17509   2.163   7.218  -0.076  0.0247 -0.0129 -0.1905
  891MOL0     O17510   2.041   7.257  -0.048 -0.4540 -0.0637  0.0798
  891MOL0     C17511   1.934   7.179  -0.101  0.0563  0.2117  0.2269
  891MOL0     C17512   1.893   7.162  -0.236 -0.4138  0.1796 -0.4803
  891MOL0     C17513   1.781   7.078  -0.269  0.3553 -0.0422 -1.4127
  891MOL0     C17514   1.692   7.027  -0.170  0.5893  0.1631  0.3945
  891MOL0     O17515   1.589   6.938  -0.191  0.7842 -0.0483 -0.0079
  891MOL0     C17516   1.557   6.889  -0.325 -0.2353 -0.3898 -0.3703
  891MOL0     C17517   1.435   6.795  -0.325  0.0895 -0.1060  0.1729
  891MOL0     C17518   1.466   6.648  -0.302  0.2378  0.3992  0.3245
  891MOL0     C17519   1.350   6.555  -0.299 -0.1640 -0.5076 -0.1484
  891MOL0     C17520   1.383   6.406  -0.282 -0.1185 -0.2175 -0.1019
  891MOL0     C17521   1.291   6.295  -0.346 -0.1378 -0.4223 -0.2612
  891MOL0     C17522   1.169   6.266  -0.252  0.4973  0.6196  0.2516
  891MOL0     C17523   1.082   6.157  -0.313  0.3805  0.7169 -0.9523
  891MOL0    Cl17524   1.013   6.181  -0.475 -0.4310 -0.1641 -0.1921
  891MOL0     C17525   1.723   7.062  -0.039  0.7220 -0.2797 -0.6618
  891MOL0     C17526   1.841   7.132  -0.008  0.0801  0.9546 -0.0224
  891MOL0     O17527   2.198   7.119  -0.140  0.4034 -0.4469  0.6265
  891MOL0     C17528   2.238   7.419   0.057 -0.9713  0.3605 -0.1142
  891MOL0     C17529   2.339   7.504   0.100  0.2954  0.1627 -0.8490
  891MOL0     N17530   2.794   7.967  -0.245 -0.2188 -0.1868  0.8591
  891MOL0     N17531   2.787   8.097  -0.238  0.2737 -0.5428  0.0955
  891MOL0     C17532   3.690   8.976  -0.214 -0.1644  0.2264  0.2838
  891MOL0     C17533   3.826   9.013  -0.240 -0.0544  0.4118  0.0363
  891MOL0     C17534   4.191   9.287  -0.137  0.5342 -0.3662  0.4817
  891MOL0     C17535   4.196   9.377  -0.246 -0.8970  0.3828 -0.0620
  891MOL0     C17536   4.313   9.446  -0.269  0.7148  0.3213 -0.6703
  891MOL0     C17537   4.420   9.454  -0.179 -0.0092  0.3249  0.0337
  891MOL0     O17538   4.525   9.541  -0.220  0.0523 -0.1300  0.0801
  891MOL0     C17539   4.617   9.568  -0.125  0.2336 -0.8805 -0.6228
  891MOL0     C17540   4.694   9.682  -0.187 -0.1230 -0.6418  0.2967
  891MOL0     C17541   4.616   9.820  -0.177 -0.5408  0.2285  0.1141
  891MOL0     C17542   4.718   9.932  -0.193  1.2421 -0.6446  0.6383
  891MOL0     C17543   4.641  10.051  -0.232 -0.6306 -0.4932 -0.0991
  891MOL0     C17544   4.582  10.144  -0.267 -0.4492 -0.2693  0.9363
  891MOL0     C17545   4.415   9.362  -0.076  0.1723  0.1485  0.6570
  891MOL0     C17546   4.298   9.282  -0.055  0.2709 -0.4008 -0.3421
  891MOL0     H17547   3.806   9.329  -0.098  2.5443  0.7818 -2.0181
  891MOL0     H17548   3.580   9.262  -0.065 -2.3492 -1.2304 -0.1165
  891MOL0     H17549   3.346   8.885  -0.044  1.8647 -0.6898  1.1673
  891MOL0     H17550   3.506   8.823  -0.094 -1.1601 -0.8960  2.4626
  891MOL0     H17551   3.422   8.876  -0.344  0.5120  0.5770  0.5782
  891MOL0     H17552   3.272   8.888  -0.270  0.5479  0.1914 -2.0985
  891MOL0     H17553   3.447   8.630  -0.234  0.4842  1.2335  0.5283
  891MOL0     H17554   3.326   8.647  -0.361 -1.5105 -2.2571  1.8663
  891MOL0     H17555   3.232   8.669  -0.077  1.0082 -1.0051  1.4440
  891MOL0     H17556   3.141   8.684  -0.232  0.8375  0.6743 -0.3395
  891MOL0     H17557   3.276   8.444  -0.107 -2.0041 -1.0260  1.8454
  891MOL0     H17558   3.232   8.440  -0.283  1.1249 -1.5770  0.4493
  891MOL0     H17559   2.995   8.496  -0.205  1.8345 -0.1484 -2.0893
  891MOL0     H17560   3.056   8.502  -0.040 -0.4972  0.4844 -0.8612
  891MOL0     H17561   3.070   8.254  -0.216 -0.8577 -1.1337  0.7026
  891MOL0     H17562   3.101   8.261  -0.037 -0.8102  1.8524  1.5647
  891MOL0     H17563   2.848   8.331  -0.190  1.3549 -1.0313 -2.4602
  891MOL0     H17564   2.852   8.326  -0.021 -2.6391 -1.5047 -0.1068
  891MOL0     H17565   3.009   8.022  -0.003 -1.5690 -0.3342  2.2768
  891MOL0     H17566   3.024   7.785  -0.166  0.1832  3.4711  1.5254
  891MOL0     H17567   2.851   7.723  -0.191 -0.2378 -0.3686 -0.5703
  891MOL0     H17568   2.947   7.825   0.072  1.5258 -1.3731  0.8020
  891MOL0     H17569   2.961   7.647   0.028 -2.9163 -1.9283 -3.5718
  891MOL0     H17570   2.764   7.733   0.186  0.8374  1.5789  0.1714
  891MOL0     H17571   2.701   7.796   0.038 -3.5122 -1.1217  1.8192
  891MOL0     H17572   2.762   7.507   0.095 -1.3697 -0.0663  0.2371
  891MOL0     H17573   2.689   7.568  -0.060 -0.2399  2.0977 -0.5811
  891MOL0     H17574   2.604   7.347  -0.053 -1.1454 -2.8688 -0.1882
  891MOL0     H17575   2.439   7.197  -0.107  0.4261  0.1289  0.2397
  891MOL0     H17576   1.978   7.182  -0.300 -1.1662  1.4692 -1.1094
  891MOL0     H17577   1.775   7.044  -0.372  0.4075  0.4633 -1.5845
  891MOL0     H17578   1.646   6.830  -0.346 -0.1249  0.1714 -1.5517
  891MOL0     H17579   1.537   6.974  -0.391 -1.9939 -1.0094 -0.6890
  891MOL0     H17580   1.385   6.799  -0.422 -1.3442  0.2058  0.8919
  891MOL0     H17581   1.364   6.827  -0.248  1.7557 -0.3976  1.8983
  891MOL0     H17582   1.508   6.636  -0.202 -0.4716 -2.4294  0.3809
  891MOL0     H17583   1.541   6.605  -0.370 -1.0986 -0.2099 -0.8164
  891MOL0     H17584   1.285   6.575  -0.213 -0.8999 -1.1011 -0.5538
  891MOL0     H17585   1.284   6.559  -0.386  0.2133  2.7935 -0.4232
  891MOL0     H17586   1.396   6.374  -0.178  2.0421 -3.7036 -1.2709
  891MOL0     H17587   1.484   6.402  -0.322 -0.4278 -0.7314 -0.8638
  891MOL0     H17588   1.356   6.207  -0.343  1.0595  0.4508  0.3090
  891MOL0     H17589   1.255   6.331  -0.443  0.0460  3.1266  0.8528
  891MOL0     H17590   1.211   6.230  -0.158  2.0951  1.1515 -0.2276
  891MOL0     H17591   1.122   6.360  -0.220 -0.6043 -0.5804  2.3318
  891MOL0     H17592   1.006   6.123  -0.242  1.5147 -2.5989 -1.1311
  891MOL0     H17593   1.145   6.069  -0.330  0.8144  0.6020  0.9613
  891MOL0     H17594   1.649   7.032   0.034  0.7107 -1.2853 -1.0832
  891MOL0     H17595   1.846   7.153   0.099  3.4140  1.5058 -0.1948
  891MOL0     H17596   2.137   7.441   0.091 -0.7817  1.8827 -0.4716
  891MOL0     H17597   2.311   7.592   0.158 -0.7655 -0.6752 -0.0470
  891MOL0     H17598   3.646   8.882  -0.246 -0.6772  0.8933 -1.0708
  891MOL0     H17599   3.892   8.939  -0.283  2.1504  1.9284  0.6516
  891MOL0     H17600   4.114   9.391  -0.316 -0.6546  0.1249 -0.4044
  891MOL0     H17601   4.314   9.508  -0.358 -1.0916  0.8721 -0.3536
  891MOL0     H17602   4.677   9.479  -0.102  0.4837 -0.4656  0.3787
  891MOL0     H17603   4.576   9.594  -0.027  0.1561 -0.8903 -0.6526
  891MOL0     H17604   4.788   9.691  -0.131  1.3846  0.5936 -2.2868
  891MOL0     H17605   4.720   9.672  -0.293  0.1512 -0.5580  0.3548
  891MOL0     H17606   4.557   9.815  -0.084 -0.5420 -2.2871  0.0685
  891MOL0     H17607   4.551   9.822  -0.264  1.1208 -1.0383 -1.2205
  891MOL0     H17608   4.770   9.952  -0.098 -1.3351  0.8748  1.8220
  891MOL0     H17609   4.792   9.915  -0.272 -2.0355  0.8114 -3.0592
  891MOL0     H17610   4.522  10.222  -0.308  1.4165  1.2256  0.9029
  891MOL0     H17611   4.500   9.364  -0.009  0.8446  1.0317 -0.1921
  891MOL0     H17612   4.300   9.215   0.030  1.4287  1.3727  1.1128
  892MOL0     O17613   0.428   6.342   2.687 -0.4522 -0.5174 -1.2219
  892MOL0     C17614   0.380   6.341   2.574 -0.0122 -0.0964 -0.2772
  892MOL0     O17615   0.402   6.432   2.475 -0.2916  0.9580 -0.2527
  892MOL0     C17616   0.497   6.527   2.501 -0.9355 -0.3366  0.4836
  892MOL0     C17617   0.606   6.520   2.585 -0.2612  0.3978 -0.1567
  892MOL0     C17618   0.692   6.627   2.621  0.5843 -0.1020 -0.3330
  892MOL0     C17619   0.675   6.745   2.549 -0.2371  0.4864  0.1329
  892MOL0     O17620   0.747   6.860   2.569 -0.1439 -0.0880 -0.5377
  892MOL0     C17621   0.841   6.867   2.672  0.0988  0.0647 -0.2666
  892MOL0     C17622   0.901   7.000   2.664 -0.2104  0.0831 -0.1259
  892MOL0     C17623   0.807   7.125   2.702 -0.6904  0.3480  0.7344
  892MOL0     C17624   0.886   7.262   2.676  0.5808  0.2458  0.5316
  892MOL0     C17625   0.799   7.378   2.729  0.2850 -0.3600 -0.1499
  892MOL0     C17626   0.887   7.510   2.724  0.5319 -0.8915 -0.2637
  892MOL0     C17627   0.798   7.627   2.768 -0.2187 -0.0153  0.2259
  892MOL0     C17628   0.760   7.616   2.909  0.4553 -0.7832  0.5927
  892MOL0     N17629   0.725   7.748   2.964  0.1368  0.4087 -0.1441
  892MOL0     C17630   0.811   7.843   3.019 -0.1206 -0.4873  0.6702
  892MOL0     C17631   0.730   7.944   3.055  0.1737 -0.3720 -0.3159
  892MOL0     C17632   0.766   8.085   3.104  0.3002 -0.2118 -0.4474
  892MOL0     C17633   0.827   8.170   2.991  0.9698 -0.2570 -0.4231
  892MOL0     C17634   0.729   8.209   2.892 -0.1204 -0.6498 -0.0180
  892MOL0     C17635   0.761   8.336   2.817  0.0281 -0.0933 -0.0451
  892MOL0     O17636   0.767   8.314   2.672  0.1193  0.4251 -0.9103
  892MOL0     C17637   0.651   8.342   2.604 -0.5213  0.3589 -0.1613
  892MOL0     C17638   0.518   8.347   2.664 -0.2539 -0.5428  0.0362
  892MOL0     C17639   0.400   8.367   2.587 -0.3354  0.5822  0.2562
  892MOL0     C17640   0.408   8.382   2.454 -0.1577 -0.4762  0.2397
  892MOL0     C17641   0.285   8.403   2.372  0.1860  0.2541  0.0847
  892MOL0     O17642   0.165   8.430   2.429  0.3188 -0.5153  0.1274
  892MOL0     C17643   0.062   8.502   2.363 -1.1268  0.4528 -1.3899
  892MOL0     C17644  -0.004   8.581   2.452  0.8977 -0.2036  0.8287
  892MOL0     C17645  -0.113   8.653   2.408 -0.2682 -0.1687  0.4368
  892MOL0     C17646  -0.154   8.636   2.279  0.3240  0.9691  0.0991
  892MOL0     O17647  -0.269   8.696   2.233  0.0716 -0.4772  0.3446
  892MOL0     C17648  -0.302   8.823   2.290  0.1949  0.2204 -0.3408
  892MOL0     C17649  -0.393   8.892   2.186 -0.1826 -0.2388 -0.9387
  892MOL0     C17650  -0.517   8.811   2.145  0.3259  0.3385 -0.6490
  892MOL0     C17651  -0.591   8.890   2.044 -0.3346 -0.6435 -0.2676
  892MOL0     C17652  -0.727   8.823   2.014  0.2039  0.3734  0.0722
  892MOL0     C17653  -0.809   8.910   1.914  0.0275  0.4641 -0.0654
  892MOL0     C17654  -0.919   8.824   1.849 -0.1325 -0.5240 -0.3136
  892MOL0     C17655  -1.030   8.775   1.953  0.3000  0.0366 -0.2957
  892MOL0    Cl17656  -1.132   8.932   1.975  0.3885  0.3387  0.2096
  892MOL0     C17657  -0.086   8.570   2.189  0.9170 -0.0867  0.4042
  892MOL0     C17658   0.027   8.498   2.231 -0.8348  0.0809  0.0966
  892MOL0     O17659   0.315   8.416   2.254 -0.3422  0.0546  0.1466
  892MOL0     C17660   0.542   8.368   2.390  0.8945 -0.1498 -0.0021
  892MOL0     C17661   0.658   8.351   2.464 -0.3992  0.2543 -0.6103
  892MOL0     N17662   0.602   7.908   3.035 -0.2922 -0.3851  0.1297
  892MOL0     N17663   0.598   7.796   2.981  0.4948 -0.2362 -0.9374
  892MOL0     C17664   0.576   6.749   2.448 -0.7595  0.0332 -0.5569
  892MOL0     C17665   0.488   6.643   2.425 -0.4257 -0.4597 -0.5897
  892MOL0     C17666   0.288   6.240   2.528 -0.6770 -0.1674  0.5242
  892MOL0     C17667   0.240   6.237   2.397  0.3671 -0.0777  0.4791
  892MOL0     C17668   0.137   6.151   2.359  0.4498 -0.0873 -0.4180
  892MOL0     C17669   0.086   6.061   2.447 -0.3356  0.6665  0.3012
  892MOL0     O17670  -0.002   5.971   2.392  0.0246  0.0608  0.0292
  892MOL0     C17671  -0.083   5.889   2.480 -0.2558 -0.3017  0.5949
  892MOL0     C17672  -0.207   5.843   2.406  0.6191 -0.4410 -0.3706
  892MOL0     C17673  -0.304   5.773   2.503 -0.3418  0.1708 -0.2029
  892MOL0     C17674  -0.439   5.750   2.436 -0.7360  0.5281 -0.7766
  892MOL0     C17675  -0.549   5.728   2.532 -0.5512  0.1336 -0.2852
  892MOL0     C17676  -0.651   5.715   2.595  0.0659 -0.3821 -0.7414
  892MOL0     C17677   0.142   6.052   2.572  0.2419  0.4485  0.7268
  892MOL0     C17678   0.237   6.138   2.614 -0.7314  0.2686 -0.0511
  892MOL0     H17679   0.630   6.428   2.635  1.5056  1.8681  1.8820
  892MOL0     H17680   0.772   6.617   2.693  1.6117  0.2371 -1.3993
  892MOL0     H17681   0.929   6.804   2.662  0.7978  1.2417 -2.0457
  892MOL0     H17682   0.790   6.865   2.769  1.4892  0.1271  0.4939
  892MOL0     H17683   0.949   7.010   2.567 -0.0100  1.2681  0.0877
  892MOL0     H17684   0.983   7.009   2.735 -0.6122 -1.7329  0.6330
  892MOL0     H17685   0.774   7.118   2.806  0.1440  1.0234  1.0615
  892MOL0     H17686   0.723   7.114   2.633  0.1272  2.4303 -0.6701
  892MOL0     H17687   0.982   7.270   2.727  1.6923 -1.8407 -1.0237
  892MOL0     H17688   0.903   7.268   2.568 -1.2954  1.7353  0.2611
  892MOL0     H17689   0.764   7.353   2.829 -0.5825  0.9834 -0.0936
  892MOL0     H17690   0.710   7.379   2.666 -1.3738 -2.9860  1.9154
  892MOL0     H17691   0.926   7.541   2.626  1.9302  1.4515  0.9356
  892MOL0     H17692   0.972   7.499   2.792  1.8444  0.7797 -1.5347
  892MOL0     H17693   0.859   7.718   2.767  0.2198 -0.3083 -0.5458
  892MOL0     H17694   0.712   7.638   2.700 -0.1957  0.9193  0.3336
  892MOL0     H17695   0.846   7.585   2.970  1.6399 -1.2912 -1.2508
  892MOL0     H17696   0.677   7.545   2.914 -1.1135  0.8780 -0.7620
  892MOL0     H17697   0.919   7.856   3.020 -0.2584  0.8777  0.5137
  892MOL0     H17698   0.844   8.080   3.180 -0.4571  3.4862  0.8042
  892MOL0     H17699   0.677   8.130   3.150  0.7222  0.4758 -0.2850
  892MOL0     H17700   0.916   8.124   2.949  0.5257 -1.0268 -0.5440
  892MOL0     H17701   0.864   8.261   3.040  0.6726 -1.4110  2.0901
  892MOL0     H17702   0.718   8.129   2.819 -0.8658  0.4782 -1.1850
  892MOL0     H17703   0.636   8.223   2.949 -0.3499 -3.5029  0.4466
  892MOL0     H17704   0.860   8.369   2.850 -0.1840  0.2340  0.2690
  892MOL0     H17705   0.698   8.421   2.848  2.4382  0.9869  2.2861
  892MOL0     H17706   0.501   8.342   2.771  1.6030  0.2612  0.4020
  892MOL0     H17707   0.304   8.366   2.637 -1.8216  1.1438 -2.4037
  892MOL0     H17708   0.037   8.588   2.552 -0.7471 -2.0070  1.7090
  892MOL0     H17709  -0.164   8.716   2.481 -0.8805 -0.3030  0.1303
  892MOL0     H17710  -0.213   8.882   2.313 -0.1379 -0.0459  1.8593
  892MOL0     H17711  -0.353   8.810   2.386  1.2167  1.1959  0.3641
  892MOL0     H17712  -0.337   8.908   2.093  0.6454  2.9740  0.0043
  892MOL0     H17713  -0.412   8.994   2.218 -0.0019  0.7206 -3.6098
  892MOL0     H17714  -0.581   8.799   2.233 -0.2248  1.9338 -0.7927
  892MOL0     H17715  -0.486   8.713   2.109  3.7366  0.5851  1.2079
  892MOL0     H17716  -0.610   8.995   2.070  1.4554  0.2027 -2.0532
  892MOL0     H17717  -0.534   8.878   1.951  0.4961  2.9055 -0.3850
  892MOL0     H17718  -0.782   8.813   2.108 -2.2370 -0.4008 -1.3625
  892MOL0     H17719  -0.699   8.725   1.976 -1.7491  0.1998 -1.0205
  892MOL0     H17720  -0.736   8.951   1.845 -0.0055 -0.4379 -0.6451
  892MOL0     H17721  -0.850   8.987   1.980  2.1321  0.0472  1.8561
  892MOL0     H17722  -0.982   8.884   1.783 -1.4648 -1.5510 -0.0272
  892MOL0     H17723  -0.873   8.739   1.798 -1.5280 -2.1764  1.0306
  892MOL0     H17724  -0.993   8.725   2.043 -0.6366 -0.8611 -0.3982
  892MOL0     H17725  -1.095   8.702   1.906 -0.0612 -0.8864  1.5712
  892MOL0     H17726  -0.122   8.571   2.087  0.3033 -0.2835  0.6125
  892MOL0     H17727   0.073   8.420   2.171  0.3343  2.3625 -2.1905
  892MOL0     H17728   0.551   8.380   2.283 -0.8839 -0.5267 -0.2311
  892MOL0     H17729   0.751   8.345   2.408 -0.6854  1.8449 -1.3000
  892MOL0     H17730   0.566   6.841   2.393 -1.3885 -0.1734 -0.7970
  892MOL0     H17731   0.405   6.650   2.356 -0.6234 -1.3746 -0.4575
  892MOL0     H17732   0.279   6.301   2.318  2.6415 -2.8862 -0.8760
  892MOL0     H17733   0.109   6.141   2.254 -1.1809 -0.9436  0.0659
  892MOL0     H17734  -0.112   5.953   2.564  0.2208  0.2788  0.3218
  892MOL0     H17735  -0.019   5.808   2.516  1.1728  0.7744  0.5440
  892MOL0     H17736  -0.254   5.930   2.359  0.5863  0.1787  0.7604
  892MOL0     H17737  -0.183   5.772   2.327  1.0737 -1.7931  0.9408
  892MOL0     H17738  -0.327   5.836   2.590 -0.3798  0.1991 -0.2336
  892MOL0     H17739  -0.259   5.680   2.537  0.3400 -0.3009 -2.2403
  892MOL0     H17740  -0.470   5.841   2.385 -1.8345  0.3333 -0.4952
  892MOL0     H17741  -0.424   5.665   2.369  0.5066 -0.7673  1.0474
  892MOL0     H17742  -0.734   5.695   2.660  2.3608  0.3628  2.6922
  892MOL0     H17743   0.113   5.980   2.648  0.7812  2.8542  3.3379
  892MOL0     H17744   0.296   6.124   2.704 -0.2878 -0.4472 -0.4545
  893MOL0     O17745   3.268   8.360  10.120 -0.2902  0.1496 -0.1721
  893MOL0     C17746   3.334   8.382  10.019  0.0416 -0.9740 -0.1693
  893MOL0     O17747   3.280   8.394   9.894  0.2206  0.3240  0.2444
  893MOL0     C17748   3.144   8.403   9.886 -0.4161  0.6064  0.3825
  893MOL0     C17749   3.070   8.310   9.813 -0.5733 -0.0724 -0.9380
  893MOL0     C17750   2.939   8.336   9.779  0.7421 -0.0418 -0.0929
  893MOL0     C17751   2.879   8.454   9.828 -0.7684 -0.0886  0.2920
  893MOL0     O17752   2.748   8.484   9.790 -0.0356 -0.7403 -0.1797
  893MOL0     C17753   2.658   8.368   9.789  0.1003 -0.4317 -0.5926
  893MOL0     C17754   2.512   8.412   9.788  0.4220 -0.1541  0.3426
  893MOL0     C17755   2.406   8.306   9.738  0.4370 -0.0668 -0.0215
  893MOL0     C17756   2.444   8.242   9.598  0.3020  1.0680 -0.3871
  893MOL0     C17757   2.311   8.240   9.520 -0.4675  0.6662  0.5904
  893MOL0     C17758   2.239   8.101   9.546 -0.5736  0.0053 -0.3777
  893MOL0     C17759   2.102   8.091   9.477  0.2935  0.3023 -0.1571
  893MOL0     C17760   2.096   8.008   9.351  1.1848  0.7418 -0.3056
  893MOL0     N17761   2.097   7.858   9.386 -0.8091 -0.0167 -0.7483
  893MOL0     C17762   1.991   7.775   9.353  0.2348  0.2426 -0.4334
  893MOL0     C17763   2.026   7.653   9.399  0.0084 -0.1521 -0.1292
  893MOL0     C17764   1.944   7.522   9.405  0.3421  0.3136  0.3672
  893MOL0     C17765   1.944   7.451   9.270  0.4883  0.1290 -0.4696
  893MOL0     C17766   1.852   7.532   9.171  0.2452  0.2523  0.1712
  893MOL0     C17767   1.789   7.447   9.066  0.3419  0.1085 -0.2706
  893MOL0     O17768   1.679   7.510   8.993  0.4645  0.1025  0.0556
  893MOL0     C17769   1.630   7.428   8.891  0.4469  0.5792  0.6996
  893MOL0     C17770   1.512   7.473   8.836  0.4103  0.3090 -0.0222
  893MOL0     C17771   1.456   7.402   8.731  0.5383  0.7727 -0.1994
  893MOL0     C17772   1.515   7.286   8.684  0.1625  0.2239  0.5092
  893MOL0     C17773   1.460   7.208   8.572  0.2267 -0.2628 -0.8328
  893MOL0     O17774   1.351   7.257   8.519  0.0252 -0.5050 -0.0708
  893MOL0     C17775   1.290   7.210   8.404  0.5739  0.7135  0.5142
  893MOL0     C17776   1.342   7.116   8.306  0.5309 -0.8632  0.4392
  893MOL0     C17777   1.268   7.069   8.205  0.6444  0.1716 -0.4302
  893MOL0     C17778   1.132   7.107   8.192  0.4218 -0.8267  0.6458
  893MOL0     O17779   1.072   7.067   8.075  0.1785  0.2098 -0.4653
  893MOL0     C17780   0.928   7.081   8.072  1.1325  0.9520  0.2152
  893MOL0     C17781   0.880   6.983   7.965  0.1394 -0.6853  1.5301
  893MOL0     C17782   0.876   6.838   8.027  0.4736 -0.1124  0.4672
  893MOL0     C17783   0.793   6.744   7.930 -0.3232 -0.1719 -0.4424
  893MOL0     C17784   0.794   6.599   7.986 -0.4437 -0.2462  0.7222
  893MOL0     C17785   0.742   6.484   7.889 -0.7799 -0.1371 -0.9663
  893MOL0     C17786   0.593   6.510   7.834 -0.9201  1.0157  0.0319
  893MOL0     C17787   0.474   6.500   7.927 -0.0948  0.3252 -0.7231
  893MOL0    Cl17788   0.324   6.504   7.832 -0.5647  0.1949  0.1172
  893MOL0     C17789   1.084   7.211   8.268 -0.4571 -0.0709 -0.8167
  893MOL0     C17790   1.156   7.261   8.380 -0.9392 -0.2000  0.6401
  893MOL0     O17791   1.513   7.103   8.548  0.2472 -0.2050  0.3914
  893MOL0     C17792   1.642   7.255   8.737  0.4929  0.5865 -0.4486
  893MOL0     C17793   1.697   7.324   8.843 -0.9589  0.1135 -0.2357
  893MOL0     N17794   2.155   7.657   9.446 -0.0122 -0.5478  0.1400
  893MOL0     N17795   2.201   7.783   9.438 -0.6499  0.2485  0.0448
  893MOL0     C17796   2.955   8.542   9.911  0.6085  0.5144 -0.3588
  893MOL0     C17797   3.086   8.513   9.938 -0.4525 -0.4080  0.3664
  893MOL0     C17798   3.481   8.397  10.040 -0.1423 -0.5828  0.2596
  893MOL0     C17799   3.547   8.373  10.164 -0.8992 -0.0141  0.6642
  893MOL0     C17800   3.680   8.377  10.175 -0.4419  0.1346 -0.7756
  893MOL0     C17801   3.767   8.428  10.075 -0.6103 -0.2088  0.7349
  893MOL0     O17802   3.901   8.443  10.094  0.1691 -0.4743  0.0898
  893MOL0     C17803   3.979   8.498   9.988  0.6719 -1.0372  0.0288
  893MOL0     C17804   4.116   8.528  10.051  0.0114 -0.7427 -0.1395
  893MOL0     C17805   4.188   8.395  10.089 -0.4272 -0.3894  0.1356
  893MOL0     C17806   4.316   8.401  10.176 -0.0747  0.0197  0.4568
  893MOL0     C17807   4.440   8.386  10.100  0.0452  0.1109 -1.6115
  893MOL0     C17808   4.539   8.367  10.036  0.2378 -0.0022 -0.3086
  893MOL0     C17809   3.707   8.454   9.956 -0.0848  0.5108  0.5082
  893MOL0     C17810   3.566   8.442   9.936  0.7863  1.0822  0.6129
  893MOL0     H17811   3.126   8.233   9.763  0.4709 -0.4732  0.7639
  893MOL0     H17812   2.889   8.269   9.710 -0.1160 -0.7935  1.2208
  893MOL0     H17813   2.670   8.292   9.866 -0.1540 -0.9566 -1.0643
  893MOL0     H17814   2.679   8.323   9.691  2.3454  2.4728 -1.6254
  893MOL0     H17815   2.511   8.498   9.721 -0.2181 -0.0368  0.5041
  893MOL0     H17816   2.474   8.444   9.886  0.4207  0.7396  0.0565
  893MOL0     H17817   2.312   8.361   9.732  0.7997  0.7095  1.0701
  893MOL0     H17818   2.389   8.227   9.812  2.1570  1.0964  1.7188
  893MOL0     H17819   2.519   8.294   9.538 -0.2456 -0.3049 -2.3488
  893MOL0     H17820   2.487   8.143   9.615  0.6151  1.3835  0.7568
  893MOL0     H17821   2.338   8.241   9.414  4.1836  0.4422  1.5303
  893MOL0     H17822   2.249   8.329   9.533 -2.3659 -0.0722 -2.4710
  893MOL0     H17823   2.220   8.090   9.653 -3.4346 -2.6533 -1.0104
  893MOL0     H17824   2.302   8.022   9.505  0.8561  2.6788 -3.8858
  893MOL0     H17825   2.031   8.046   9.547 -0.3009  0.9602 -0.3207
  893MOL0     H17826   2.076   8.196   9.456  1.7456  1.2339  2.2878
  893MOL0     H17827   2.181   8.030   9.287  1.2563 -1.9826 -1.3017
  893MOL0     H17828   1.995   8.015   9.308 -0.2689  0.5396  2.8135
  893MOL0     H17829   1.892   7.796   9.313  0.0867 -3.2332 -2.2778
  893MOL0     H17830   1.845   7.549   9.443  1.0277  1.1985  1.5964
  893MOL0     H17831   1.988   7.447   9.471  2.3206 -1.6582 -2.9400
  893MOL0     H17832   1.903   7.351   9.285 -0.1958  0.4985  0.1883
  893MOL0     H17833   2.043   7.436   9.225  1.3277 -2.4463  1.9529
  893MOL0     H17834   1.774   7.570   9.237  0.8944  1.0660  0.4962
  893MOL0     H17835   1.915   7.608   9.122 -0.0078  0.4185  0.1003
  893MOL0     H17836   1.757   7.351   9.108  1.7171 -0.3291 -0.1745
  893MOL0     H17837   1.871   7.427   8.997  1.2196 -3.9197  1.6300
  893MOL0     H17838   1.474   7.567   8.873  0.9357  0.7593 -0.6024
  893MOL0     H17839   1.362   7.438   8.690 -0.4938 -2.2633 -0.7424
  893MOL0     H17840   1.447   7.094   8.323  0.5936 -2.0800 -1.2264
  893MOL0     H17841   1.313   7.001   8.134  0.9697 -1.4227  1.2360
  893MOL0     H17842   0.913   7.185   8.042  0.1874  0.5598 -0.7585
  893MOL0     H17843   0.889   7.051   8.170  1.8442 -0.7044  0.0309
  893MOL0     H17844   0.939   6.982   7.873  0.1601 -3.1845  1.4866
  893MOL0     H17845   0.776   6.999   7.935  0.5272 -4.2019 -2.5331
  893MOL0     H17846   0.818   6.857   8.118 -0.6416  2.4309 -0.6743
  893MOL0     H17847   0.975   6.799   8.052  0.6498 -2.4604 -3.0688
  893MOL0     H17848   0.690   6.780   7.940 -0.5588 -1.3591  2.1208
  893MOL0     H17849   0.836   6.746   7.829 -1.5875 -0.4035 -0.9996
  893MOL0     H17850   0.726   6.608   8.072 -1.3610  1.0486 -0.0923
  893MOL0     H17851   0.894   6.561   8.010 -2.2444 -3.7003  3.7514
  893MOL0     H17852   0.739   6.386   7.937  0.6423 -0.5307 -1.6404
  893MOL0     H17853   0.802   6.485   7.798 -0.2505  0.2442 -0.6194
  893MOL0     H17854   0.591   6.609   7.788 -0.9922  1.2373  0.5110
  893MOL0     H17855   0.573   6.431   7.760  1.1572  3.2401 -3.1808
  893MOL0     H17856   0.467   6.585   7.996 -2.4028 -0.5528  0.2227
  893MOL0     H17857   0.479   6.409   7.988 -0.5025 -0.6005 -2.0292
  893MOL0     H17858   0.989   7.261   8.253 -0.3208  0.5027  0.1429
  893MOL0     H17859   1.116   7.331   8.453  1.3759  0.0216  1.7750
  893MOL0     H17860   1.712   7.182   8.697 -0.9550 -0.0468 -1.9709
  893MOL0     H17861   1.797   7.290   8.866 -0.7584  1.8636  1.8008
  893MOL0     H17862   2.896   8.622   9.954 -2.7536 -1.1871 -1.4749
  893MOL0     H17863   3.141   8.592   9.989 -0.9211 -0.7786  1.4801
  893MOL0     H17864   3.491   8.331  10.247  1.1694 -0.2475  2.0169
  893MOL0     H17865   3.742   8.342  10.257  0.6415 -0.6631 -1.9013
  893MOL0     H17866   3.942   8.591   9.945  0.0679 -1.7076 -0.9196
  893MOL0     H17867   3.994   8.424   9.910  0.9705  0.7143 -1.6529
  893MOL0     H17868   4.178   8.577   9.975 -0.8638  1.1848  0.3169
  893MOL0     H17869   4.106   8.590  10.141 -2.6018 -0.9029 -0.2527
  893MOL0     H17870   4.220   8.343   9.998  0.0654  0.9945 -0.5167
  893MOL0     H17871   4.119   8.332  10.145 -1.3199  0.8063  0.4276
  893MOL0     H17872   4.317   8.493  10.234  0.8362  1.1234 -1.2325
  893MOL0     H17873   4.308   8.319  10.249  0.8526  0.2465  0.8329
  893MOL0     H17874   4.630   8.367   9.979 -0.3353  1.9744 -1.3179
  893MOL0     H17875   3.763   8.495   9.872 -1.2580  1.7427  0.2889
  893MOL0     H17876   3.533   8.450   9.833 -1.9980 -0.0444  1.3442
  894MOL0     O17877   5.428   0.608   4.950  0.8026 -0.7975  0.1836
  894MOL0     C17878   5.495   0.581   5.048 -0.7138 -0.2785 -0.2876
  894MOL0     O17879   5.446   0.520   5.156  0.2392  0.0215 -0.4537
  894MOL0     C17880   5.329   0.447   5.139  0.7845  0.3103 -0.8874
  894MOL0     C17881   5.224   0.484   5.215  0.3312  0.6838  0.2797
  894MOL0     C17882   5.116   0.393   5.233 -0.2880  0.4266 -0.4178
  894MOL0     C17883   5.109   0.274   5.157  0.9294 -0.2603 -0.3976
  894MOL0     O17884   4.999   0.192   5.162 -0.6214 -0.7707  0.6151
  894MOL0     C17885   4.875   0.243   5.217  0.2242 -0.4219  0.1458
  894MOL0     C17886   4.763   0.143   5.188  0.4566  0.4459  0.9437
  894MOL0     C17887   4.748   0.112   5.030 -0.5303  0.0658  0.1523
  894MOL0     C17888   4.665  -0.018   5.019  0.1372  0.2883  0.2478
  894MOL0     C17889   4.603  -0.036   4.887  0.1505  0.0867 -0.5915
  894MOL0     C17890   4.525  -0.167   4.878 -0.0775  0.6444  0.0339
  894MOL0     C17891   4.612  -0.287   4.854  0.0463  0.1423  0.5683
  894MOL0     C17892   4.526  -0.415   4.824  0.2365 -0.2618 -0.5491
  894MOL0     N17893   4.597  -0.529   4.774 -0.2283  0.2257 -0.7387
  894MOL0     C17894   4.707  -0.587   4.840  0.3774  0.0489  0.3702
  894MOL0     C17895   4.715  -0.706   4.777 -0.8271  0.2833  0.4371
  894MOL0     C17896   4.816  -0.809   4.796  0.0906  0.1437  0.8487
  894MOL0     C17897   4.832  -0.852   4.939 -0.6292 -0.4597 -0.6039
  894MOL0     C17898   4.897  -0.989   4.949  0.2596  0.5935 -0.1937
  894MOL0     C17899   4.939  -1.025   5.085  0.0391 -0.5789 -1.1628
  894MOL0     O17900   4.817  -1.039   5.170 -0.3878  0.4452  0.5241
  894MOL0     C17901   4.752  -1.158   5.166  0.2747  0.1648 -0.0424
  894MOL0     C17902   4.790  -1.281   5.107 -0.7385  0.7300  0.7531
  894MOL0     C17903   4.714  -1.400   5.110  1.0235 -0.1264 -0.1401
  894MOL0     C17904   4.602  -1.403   5.192 -0.3768 -0.0213  0.1465
  894MOL0     C17905   4.532  -1.527   5.225 -0.5415  0.8443 -0.0766
  894MOL0     O17906   4.586  -1.634   5.174 -0.3094 -0.0667  0.0444
  894MOL0     C17907   4.530  -1.760   5.194 -0.6652 -0.5684 -0.0811
  894MOL0     C17908   4.614  -1.872   5.226  0.7885 -0.1045  0.1768
  894MOL0     C17909   4.558  -2.001   5.232  0.2591  0.3218 -0.2412
  894MOL0     C17910   4.423  -2.028   5.199  0.0915  0.1680 -0.5445
  894MOL0     O17911   4.393  -2.163   5.228  0.4032 -0.6766 -0.6481
  894MOL0     C17912   4.259  -2.192   5.281 -0.0871 -0.3353 -0.4899
  894MOL0     C17913   4.248  -2.198   5.429  0.7041  0.3599  0.4055
  894MOL0     C17914   4.251  -2.064   5.496 -0.1646 -0.8370 -0.4807
  894MOL0     C17915   4.330  -2.075   5.618 -0.3724 -0.2473  0.2346
  894MOL0     C17916   4.345  -1.931   5.682  0.3069 -0.1603 -0.2514
  894MOL0     C17917   4.223  -1.883   5.762 -0.5395 -0.0906  0.6793
  894MOL0     C17918   4.239  -1.745   5.828 -0.2628 -0.5489 -0.1779
  894MOL0     C17919   4.255  -1.626   5.741  0.6021 -0.1603  0.0150
  894MOL0    Cl17920   4.298  -1.481   5.841 -0.1903 -0.3104 -0.2735
  894MOL0     C17921   4.347  -1.924   5.159 -0.1445 -0.6234 -0.3030
  894MOL0     C17922   4.392  -1.790   5.163 -0.5968  0.4939 -0.0444
  894MOL0     O17923   4.433  -1.530   5.296 -0.6582 -0.0932  0.4236
  894MOL0     C17924   4.540  -1.278   5.231  0.0251 -0.5339 -0.2043
  894MOL0     C17925   4.619  -1.159   5.223  0.4163 -0.2469 -0.2779
  894MOL0     N17926   4.623  -0.712   4.675 -0.5986  0.3101  1.3254
  894MOL0     N17927   4.546  -0.606   4.675 -0.0193 -0.5056  0.0130
  894MOL0     C17928   5.217   0.239   5.080 -0.9293  0.0018 -0.0247
  894MOL0     C17929   5.325   0.322   5.074  0.2169 -1.1357 -0.3329
  894MOL0     C17930   5.635   0.627   5.055 -0.0891 -0.2556 -0.4153
  894MOL0     C17931   5.694   0.674   4.934 -0.0719 -0.4989 -0.2405
  894MOL0     C17932   5.826   0.712   4.929 -0.9935  0.3888  0.7138
  894MOL0     C17933   5.911   0.689   5.035 -0.6873  0.3470  0.2574
  894MOL0     O17934   6.039   0.738   5.019  0.7420 -0.1942  0.1616
  894MOL0     C17935   6.105   0.771   5.140  0.4270  0.0613 -0.3046
  894MOL0     C17936   6.047   0.901   5.201  0.8776 -0.7719 -0.5703
  894MOL0     C17937   6.087   0.941   5.347  0.4900  0.0987  0.4246
  894MOL0     C17938   5.993   0.875   5.450 -0.9089 -0.2190  1.0749
  894MOL0     C17939   6.009   0.933   5.586 -0.0281 -0.3213  0.0187
  894MOL0     C17940   6.030   0.954   5.702  0.3254  0.0400  0.3823
  894MOL0     C17941   5.857   0.640   5.152 -0.7830 -0.2013 -0.9044
  894MOL0     C17942   5.725   0.604   5.164 -0.5602 -0.4835 -0.5112
  894MOL0     H17943   5.213   0.576   5.272 -1.7329 -0.4325  1.8272
  894MOL0     H17944   5.040   0.425   5.303 -0.2416 -0.2373 -0.0575
  894MOL0     H17945   4.861   0.339   5.166  3.2089  0.2252  0.3674
  894MOL0     H17946   4.884   0.269   5.323  1.0589  0.5092 -0.1362
  894MOL0     H17947   4.671   0.187   5.225  1.6647  1.2931  3.1336
  894MOL0     H17948   4.775   0.050   5.243  0.6293 -0.1094 -0.0034
  894MOL0     H17949   4.844   0.107   4.978 -0.3229 -0.7097  0.5804
  894MOL0     H17950   4.682   0.189   4.989 -0.0224  1.2060  1.3841
  894MOL0     H17951   4.745  -0.090   5.038  1.6683  1.2190 -2.1911
  894MOL0     H17952   4.584  -0.022   5.092  0.7294  2.2200  1.0852
  894MOL0     H17953   4.684  -0.021   4.816  1.2587  2.1600  1.0033
  894MOL0     H17954   4.533   0.045   4.863  0.1748 -0.2908 -1.9768
  894MOL0     H17955   4.449  -0.151   4.801 -2.0733 -1.8416  1.3461
  894MOL0     H17956   4.474  -0.191   4.972 -1.1032  1.1717 -0.3745
  894MOL0     H17957   4.662  -0.254   4.763  1.9681 -1.4106  0.9981
  894MOL0     H17958   4.687  -0.304   4.932 -0.0019  1.4132  0.9163
  894MOL0     H17959   4.465  -0.386   4.739 -1.5901  1.3691  1.2025
  894MOL0     H17960   4.459  -0.438   4.908 -0.1226 -0.2851 -0.8414
  894MOL0     H17961   4.758  -0.555   4.930  1.5045  2.4351 -1.0299
  894MOL0     H17962   4.909  -0.768   4.754 -0.7475  2.1605  0.8238
  894MOL0     H17963   4.779  -0.889   4.732 -3.3970  1.9953  0.2809
  894MOL0     H17964   4.733  -0.851   4.986  0.9306  1.6336  3.0488
  894MOL0     H17965   4.896  -0.778   4.988  0.4139 -1.3270 -0.6105
  894MOL0     H17966   4.827  -1.055   4.898  1.1140 -1.7411  1.5010
  894MOL0     H17967   4.985  -0.995   4.884 -1.2407  0.3578 -2.2917
  894MOL0     H17968   4.995  -0.944   5.132 -3.2157  0.6568  0.9828
  894MOL0     H17969   4.993  -1.120   5.076 -1.3521 -1.6573  0.9645
  894MOL0     H17970   4.888  -1.278   5.061 -0.3147 -0.4094  1.5243
  894MOL0     H17971   4.750  -1.489   5.060  4.4924  0.9402  0.1640
  894MOL0     H17972   4.717  -1.852   5.255  1.2325  1.2829 -2.0772
  894MOL0     H17973   4.627  -2.083   5.250 -1.0163 -0.6946  0.1548
  894MOL0     H17974   4.245  -2.295   5.249  0.1802 -0.0189 -1.6738
  894MOL0     H17975   4.178  -2.129   5.244 -0.4208 -0.5152 -0.0764
  894MOL0     H17976   4.322  -2.268   5.469 -2.1282 -1.7945  2.2721
  894MOL0     H17977   4.158  -2.249   5.465  0.5818 -0.0176 -0.4138
  894MOL0     H17978   4.154  -2.022   5.526 -0.5696  0.2125 -3.0010
  894MOL0     H17979   4.295  -1.994   5.425 -2.6106 -0.1646 -1.4564
  894MOL0     H17980   4.301  -2.142   5.699  1.2571 -1.2654  0.0177
  894MOL0     H17981   4.435  -2.094   5.594 -1.1167 -1.0999 -2.7569
  894MOL0     H17982   4.373  -1.858   5.604  1.1661 -1.1837 -0.9339
  894MOL0     H17983   4.433  -1.930   5.747 -1.1673 -1.3807  1.8751
  894MOL0     H17984   4.196  -1.948   5.846  0.6268  3.6714  4.2493
  894MOL0     H17985   4.133  -1.875   5.700  0.6281  0.1103 -1.0783
  894MOL0     H17986   4.160  -1.726   5.901 -0.7206 -1.2048 -0.4904
  894MOL0     H17987   4.330  -1.744   5.887  0.0121  0.8831 -0.5798
  894MOL0     H17988   4.163  -1.606   5.685  0.1053  1.6043  1.3857
  894MOL0     H17989   4.339  -1.635   5.671  0.4231 -0.8928 -0.1104
  894MOL0     H17990   4.254  -1.945   5.108 -1.5594  0.6835  1.5857
  894MOL0     H17991   4.318  -1.715   5.138 -1.4292  0.3314  1.7518
  894MOL0     H17992   4.446  -1.277   5.284  0.7349 -0.3867  1.1015
  894MOL0     H17993   4.584  -1.065   5.265 -2.5575 -1.7768  0.9654
  894MOL0     H17994   5.229   0.141   5.035 -0.7076 -1.5766  3.1952
  894MOL0     H17995   5.413   0.286   5.021 -0.3050  1.2327 -3.0493
  894MOL0     H17996   5.636   0.694   4.843 -2.9285  1.0053  1.7286
  894MOL0     H17997   5.866   0.761   4.841  0.9411  1.2871  2.0096
  894MOL0     H17998   6.211   0.795   5.131  0.2796  1.7825  1.7141
  894MOL0     H17999   6.095   0.687   5.208  1.7452  2.2198  2.7875
  894MOL0     H18000   6.090   0.977   5.134  0.7519  0.7087  0.9484
  894MOL0     H18001   5.939   0.910   5.185  0.8184 -0.1898  0.1313
  894MOL0     H18002   6.084   1.049   5.362 -0.7334 -0.0873  1.6835
  894MOL0     H18003   6.191   0.911   5.355  0.3007 -0.5282  0.5989
  894MOL0     H18004   5.888   0.885   5.422 -1.1466 -4.5203 -0.3328
  894MOL0     H18005   6.015   0.769   5.463 -0.3458 -0.1880  0.4441
  894MOL0     H18006   6.037   0.962   5.809  1.4681 -1.4681  0.4508
  894MOL0     H18007   5.907   0.618   5.246 -2.2447 -2.7984 -0.6426
  894MOL0     H18008   5.685   0.557   5.253  1.9333 -2.8655 -0.5043
  895MOL0     O18009   3.452   7.492  10.646 -0.5090 -0.1156 -0.8933
  895MOL0     C18010   3.553   7.430  10.681 -0.3234  0.0874  0.6639
  895MOL0     O18011   3.548   7.298  10.725 -0.1327  0.7479  0.5117
  895MOL0     C18012   3.427   7.234  10.708  0.1765 -0.3057 -0.2818
  895MOL0     C18013   3.389   7.168  10.593  0.3486 -0.1175 -0.2455
  895MOL0     C18014   3.269   7.105  10.594 -0.2513  1.5841  0.1307
  895MOL0     C18015   3.185   7.102  10.701 -0.2807 -0.5846 -0.5328
  895MOL0     O18016   3.062   7.034  10.694  0.2769  0.0587  0.0859
  895MOL0     C18017   2.981   7.035  10.805 -0.3323  0.0843  0.1215
  895MOL0     C18018   2.850   6.949  10.786  0.3362  0.5286 -0.4737
  895MOL0     C18019   2.758   6.960  10.909  0.0156 -0.3364  0.0022
  895MOL0     C18020   2.636   6.865  10.896 -0.3598  0.1587  0.0563
  895MOL0     C18021   2.541   6.893  11.008  0.7583  0.4269 -0.2061
  895MOL0     C18022   2.413   6.814  11.006 -0.3816 -0.5736  0.2730
  895MOL0     C18023   2.311   6.864  10.902  0.0788 -0.6747  0.3545
  895MOL0     C18024   2.179   6.779  10.891 -0.5719 -0.5887 -0.5260
  895MOL0     N18025   2.089   6.830  10.789 -0.3126 -0.4364  0.6581
  895MOL0     C18026   2.028   6.754  10.689  0.4249 -0.1568 -0.8255
  895MOL0     C18027   1.945   6.837  10.626 -0.4985  0.2796 -0.4864
  895MOL0     C18028   1.848   6.797  10.515  0.6686  0.0583 -0.5584
  895MOL0     C18029   1.701   6.814  10.567  0.4869 -0.4357  0.8721
  895MOL0     C18030   1.605   6.748  10.465  0.7603 -0.3779  0.2652
  895MOL0     C18031   1.462   6.779  10.490 -1.2378 -0.5426  0.0910
  895MOL0     O18032   1.383   6.689  10.412 -0.4761 -0.7184  0.4277
  895MOL0     C18033   1.248   6.699  10.414 -0.2095 -0.2848 -0.9256
  895MOL0     C18034   1.205   6.643  10.295  0.4120  0.3466  0.0314
  895MOL0     C18035   1.063   6.645  10.279 -0.4597  0.5656  0.1137
  895MOL0     C18036   0.976   6.708  10.372  0.3624  0.3074 -0.2952
  895MOL0     C18037   0.824   6.700  10.346  0.2273  1.4527 -0.1255
  895MOL0     O18038   0.785   6.662  10.220  0.1126 -0.0496  0.8128
  895MOL0     C18039   0.655   6.679  10.164 -0.3555  1.0823  0.0384
  895MOL0     C18040   0.543   6.617  10.222 -0.3849 -0.7545 -0.5267
  895MOL0     C18041   0.422   6.636  10.159 -0.2340  0.1165  0.3773
  895MOL0     C18042   0.405   6.699  10.029 -0.2935  0.8510  0.5876
  895MOL0     O18043   0.280   6.727   9.966 -0.3903  0.4291 -0.5418
  895MOL0     C18044   0.165   6.673  10.030  0.6173  0.1919 -0.6078
  895MOL0     C18045   0.039   6.718   9.950 -0.5943  0.1791 -0.1449
  895MOL0     C18046  -0.090   6.660   9.999 -0.0630  0.1231  0.1938
  895MOL0     C18047  -0.207   6.746   9.963 -0.3822 -0.0459  0.1762
  895MOL0     C18048  -0.335   6.660   9.985 -0.7105 -0.1211 -0.2584
  895MOL0     C18049  -0.472   6.742   9.997  0.0883 -0.1611  0.6317
  895MOL0     C18050  -0.586   6.648  10.021  0.2222 -0.0069  0.1591
  895MOL0     C18051  -0.717   6.701   9.976  0.3902 -0.0739 -0.3004
  895MOL0    Cl18052  -0.857   6.604  10.027 -0.5157  0.3291  0.1981
  895MOL0     C18053   0.522   6.735   9.961  0.0035 -0.1134 -0.1392
  895MOL0     C18054   0.645   6.716  10.032 -0.6729 -0.4759 -0.5979
  895MOL0     O18055   0.751   6.728  10.444  0.0278 -0.1267  0.4111
  895MOL0     C18056   1.026   6.766  10.488 -0.5104  1.2474 -0.4736
  895MOL0     C18057   1.166   6.757  10.510 -0.1637  0.4096 -0.2108
  895MOL0     N18058   1.957   6.962  10.687 -0.0011  0.6065 -0.5728
  895MOL0     N18059   2.049   6.960  10.784  0.0524  0.2662  0.4344
  895MOL0     C18060   3.223   7.176  10.812 -0.1974 -0.3132 -0.2446
  895MOL0     C18061   3.339   7.251  10.814  0.4659 -0.8942  0.1885
  895MOL0     C18062   3.671   7.510  10.707  0.4503 -0.4646  0.1547
  895MOL0     C18063   3.694   7.631  10.639  1.0948  0.9192  0.0955
  895MOL0     C18064   3.806   7.702  10.665 -0.0229 -0.7399 -0.2612
  895MOL0     C18065   3.897   7.673  10.761  0.1969 -0.2882  0.1877
  895MOL0     O18066   4.006   7.761  10.767  0.3652  0.2977 -0.4686
  895MOL0     C18067   4.107   7.733  10.862  0.3753  0.2010  0.3347
  895MOL0     C18068   4.218   7.839  10.848  0.9629 -1.0578  0.6116
  895MOL0     C18069   4.313   7.812  10.974  0.0230  0.0234  0.9109
  895MOL0     C18070   4.460   7.853  10.944 -0.0173  0.2436  0.2130
  895MOL0     C18071   4.525   7.750  10.853  0.3081  0.0310 -1.1221
  895MOL0     C18072   4.600   7.662  10.810 -0.1350  0.5353 -0.0815
  895MOL0     C18073   3.862   7.564  10.849 -0.9542 -0.0849  1.3686
  895MOL0     C18074   3.752   7.482  10.819 -1.2816  0.1724  0.1011
  895MOL0     H18075   3.454   7.181  10.507 -0.6966  2.1078 -0.7736
  895MOL0     H18076   3.228   7.067  10.501 -2.0843 -0.7349  1.7466
  895MOL0     H18077   2.962   7.141  10.827 -0.6377  0.4421 -1.7119
  895MOL0     H18078   3.031   6.995  10.894 -0.0644  0.3673  0.1014
  895MOL0     H18079   2.874   6.844  10.771 -4.0457 -0.8846  0.7820
  895MOL0     H18080   2.791   6.986  10.702 -0.6209 -0.8271 -0.4436
  895MOL0     H18081   2.722   7.062  10.923  0.8321 -0.0970  0.4128
  895MOL0     H18082   2.812   6.937  11.001 -1.1918  1.3584  1.1902
  895MOL0     H18083   2.581   6.863  10.802 -0.1227 -2.4438 -0.0992
  895MOL0     H18084   2.680   6.765  10.888 -0.8691  0.0744 -2.8039
  895MOL0     H18085   2.520   6.999  10.990 -1.2343 -0.3170 -2.7634
  895MOL0     H18086   2.583   6.862  11.104 -0.9557 -2.8036 -0.3466
  895MOL0     H18087   2.367   6.820  11.105  1.0130  3.5211  0.8508
  895MOL0     H18088   2.433   6.710  10.978 -3.3090 -0.6958 -1.7558
  895MOL0     H18089   2.273   6.965  10.923 -1.9272 -1.4738  0.7983
  895MOL0     H18090   2.362   6.864  10.805  0.9885 -0.4432  0.8179
  895MOL0     H18091   2.120   6.785  10.984  0.0931  3.5784 -0.1919
  895MOL0     H18092   2.201   6.675  10.866 -0.9423 -1.6987  3.1221
  895MOL0     H18093   2.020   6.647  10.672  0.2069 -0.3633  0.5135
  895MOL0     H18094   1.854   6.691  10.490 -1.2021 -0.1963 -0.0226
  895MOL0     H18095   1.871   6.860  10.428 -3.5396  2.1485 -0.4110
  895MOL0     H18096   1.672   6.920  10.572  0.8659 -0.1507 -1.6752
  895MOL0     H18097   1.701   6.770  10.667 -0.6538 -1.4760  0.4307
  895MOL0     H18098   1.612   6.786  10.362 -1.0914  0.1803  0.3054
  895MOL0     H18099   1.618   6.639  10.465  1.0579 -0.3819  2.3143
  895MOL0     H18100   1.447   6.887  10.478 -1.1498 -0.7024 -1.6830
  895MOL0     H18101   1.462   6.758  10.597 -0.4293 -0.4799  0.1085
  895MOL0     H18102   1.279   6.606  10.224  0.8918  3.4657 -1.2549
  895MOL0     H18103   1.014   6.600  10.193 -0.9496  1.9439 -0.3458
  895MOL0     H18104   0.550   6.582  10.324  1.9966  0.7887 -0.1007
  895MOL0     H18105   0.335   6.583  10.199  0.0356 -0.2556  0.4823
  895MOL0     H18106   0.153   6.716  10.129  0.8236 -1.8705  0.3618
  895MOL0     H18107   0.179   6.566  10.047  1.6121  0.6226  1.5467
  895MOL0     H18108   0.059   6.681   9.849  1.2335 -2.4923  1.1016
  895MOL0     H18109   0.042   6.827   9.960  4.1890  0.0641  2.5973
  895MOL0     H18110  -0.103   6.646  10.106  1.2653  0.7221  0.4523
  895MOL0     H18111  -0.112   6.564   9.950 -2.0442 -1.2344  3.4224
  895MOL0     H18112  -0.214   6.841  10.016 -1.8349  1.4001 -2.3854
  895MOL0     H18113  -0.200   6.762   9.855 -1.3390 -3.1731 -0.4555
  895MOL0     H18114  -0.340   6.608  10.081 -0.5672  1.5348  0.6698
  895MOL0     H18115  -0.336   6.594   9.898 -2.3838  0.6048 -0.8355
  895MOL0     H18116  -0.489   6.790   9.901  2.6684 -0.6302 -0.1121
  895MOL0     H18117  -0.457   6.811  10.080  2.0039 -0.6367  0.7245
  895MOL0     H18118  -0.567   6.550   9.976  0.8729  1.7999 -3.9576
  895MOL0     H18119  -0.585   6.609  10.123  1.2121 -1.7431 -0.4724
  895MOL0     H18120  -0.716   6.720   9.868  1.9139  0.3903 -0.2308
  895MOL0     H18121  -0.731   6.800  10.020 -1.0606 -0.0556 -0.7296
  895MOL0     H18122   0.531   6.785   9.865  1.9038  1.4955  0.7940
  895MOL0     H18123   0.739   6.738   9.982 -0.7957 -0.9381 -1.0503
  895MOL0     H18124   0.977   6.809  10.575 -0.0435 -0.1898  0.5428
  895MOL0     H18125   1.220   6.793  10.596 -3.2292  2.6390  0.9661
  895MOL0     H18126   3.160   7.168  10.900 -1.4593  0.3724 -1.0599
  895MOL0     H18127   3.371   7.317  10.894 -1.0877  2.2095 -1.5600
  895MOL0     H18128   3.626   7.671  10.565 -0.5221  0.4592  1.2612
  895MOL0     H18129   3.838   7.786  10.604 -0.0118 -0.9691 -0.5740
  895MOL0     H18130   4.143   7.631  10.848  3.7517  1.1827  0.8961
  895MOL0     H18131   4.072   7.750  10.965  4.7050  1.6670  1.7956
  895MOL0     H18132   4.265   7.832  10.749 -2.4762 -2.0628 -1.1240
  895MOL0     H18133   4.167   7.936  10.852 -0.6152 -1.8377  0.3471
  895MOL0     H18134   4.318   7.711  11.014  0.4553 -0.0506  0.6755
  895MOL0     H18135   4.281   7.876  11.057  0.0778 -1.2483  1.9336
  895MOL0     H18136   4.459   7.951  10.896  1.9200 -0.4002 -1.2880
  895MOL0     H18137   4.510   7.874  11.039 -2.4692 -0.4063  1.7417
  895MOL0     H18138   4.660   7.589  10.758 -3.6545 -3.9177  1.4417
  895MOL0     H18139   3.923   7.545  10.937  0.6847  2.4928  0.8963
  895MOL0     H18140   3.727   7.396  10.880  3.7328 -1.3318  0.5572
  896MOL0     O18141   4.739   3.572  10.504 -0.0959 -0.0031  0.5162
  896MOL0     C18142   4.649   3.655  10.516  0.2472  0.6733  0.4494
  896MOL0     O18143   4.664   3.797  10.507  0.2888 -0.3790 -0.0940
  896MOL0     C18144   4.799   3.833  10.486 -0.9324  0.4122 -0.3493
  896MOL0     C18145   4.851   3.830  10.358  0.7422  0.9534  0.1205
  896MOL0     C18146   4.984   3.862  10.334  0.6299 -0.7220  0.1790
  896MOL0     C18147   5.073   3.884  10.445  0.4722  0.3837 -0.1300
  896MOL0     O18148   5.201   3.911  10.419  0.9192  0.1244 -0.2633
  896MOL0     C18149   5.301   3.929  10.517  0.4983  0.5372 -0.3596
  896MOL0     C18150   5.428   3.932  10.447  0.0204 -0.0731 -0.4903
  896MOL0     C18151   5.546   3.959  10.537 -0.6595  0.5559 -0.2566
  896MOL0     C18152   5.671   3.941  10.450  0.0924 -0.6045 -0.5324
  896MOL0     C18153   5.804   3.970  10.530  0.3860  0.7395  0.0131
  896MOL0     C18154   5.936   3.961  10.447  0.8724  0.2004 -0.2940
  896MOL0     C18155   6.065   3.954  10.523 -0.3245  0.3134 -0.1870
  896MOL0     C18156   6.093   3.811  10.569 -0.0184  0.1399  0.2865
  896MOL0     N18157   6.229   3.785  10.612 -0.1989 -0.0735 -0.2891
  896MOL0     C18158   6.346   3.816  10.541 -0.1679 -0.2678 -0.4162
  896MOL0     C18159   6.447   3.780  10.619 -0.6078  0.2197 -0.4043
  896MOL0     C18160   6.607   3.784  10.600 -0.4054 -0.0204 -0.2566
  896MOL0     C18161   6.673   3.876  10.707  0.1566  0.0139 -0.3567
  896MOL0     C18162   6.601   4.014  10.709  0.3915 -0.3624  0.5902
  896MOL0     C18163   6.589   4.085  10.574  0.0532 -0.1930 -0.0581
  896MOL0     O18164   6.548   4.220  10.605  0.1183 -0.1006 -0.7874
  896MOL0     C18165   6.416   4.245  10.574  0.1603 -0.1933  0.1702
  896MOL0     C18166   6.324   4.270  10.674  0.0758 -0.2015 -0.2215
  896MOL0     C18167   6.185   4.288  10.645 -0.1912 -0.2095 -0.6923
  896MOL0     C18168   6.133   4.291  10.511  0.0985 -0.1594 -0.0000
  896MOL0     C18169   5.986   4.309  10.487 -0.6896 -0.1751 -0.1317
  896MOL0     O18170   5.900   4.355  10.581 -0.1961  0.4568  0.1123
  896MOL0     C18171   5.761   4.375  10.552  0.2195 -0.3215  0.1770
  896MOL0     C18172   5.682   4.311  10.454  0.0440 -0.5002 -0.0169
  896MOL0     C18173   5.545   4.328  10.444 -0.0691  0.8441 -0.8065
  896MOL0     C18174   5.478   4.392  10.545  0.2364  0.0126  1.0118
  896MOL0     O18175   5.342   4.418  10.551  0.2893  0.3710 -0.0114
  896MOL0     C18176   5.255   4.331  10.473 -0.7053 -0.3225  0.9164
  896MOL0     C18177   5.120   4.341  10.534  0.3123  0.5016 -0.1436
  896MOL0     C18178   5.025   4.236  10.471 -0.2883 -0.5746 -0.8577
  896MOL0     C18179   4.983   4.280  10.325 -0.0711  0.7004  0.3314
  896MOL0     C18180   4.835   4.224  10.308 -0.3053  0.3834 -0.6288
  896MOL0     C18181   4.788   4.223  10.160  0.2902  0.4379 -0.3068
  896MOL0     C18182   4.638   4.201  10.139  0.6787 -0.6614  0.1474
  896MOL0     C18183   4.605   4.182   9.985  0.0717  0.2018 -0.1255
  896MOL0    Cl18184   4.428   4.169   9.983  0.6881 -0.1206  0.4563
  896MOL0     C18185   5.551   4.450  10.652 -0.4440 -0.2890 -0.7965
  896MOL0     C18186   5.689   4.448  10.653  0.4929 -0.0049  0.2041
  896MOL0     O18187   5.963   4.304  10.368 -0.2785 -0.1981 -0.6475
  896MOL0     C18188   6.228   4.282  10.412 -0.0236  0.0222 -0.8076
  896MOL0     C18189   6.367   4.260  10.443  0.4570  0.5259 -0.1265
  896MOL0     N18190   6.395   3.718  10.730 -0.0356  0.9160  0.1509
  896MOL0     N18191   6.264   3.719  10.727 -0.3452  0.4776  0.4179
  896MOL0     C18192   5.015   3.893  10.572 -0.1261  0.9320  0.1378
  896MOL0     C18193   4.876   3.881  10.588  0.1698 -0.8496 -0.0080
  896MOL0     C18194   4.517   3.593  10.558  0.2186  0.6313  0.7327
  896MOL0     C18195   4.419   3.680  10.614 -0.1888  1.2797  0.6090
  896MOL0     C18196   4.296   3.624  10.656  0.3944  0.4471 -0.1837
  896MOL0     C18197   4.275   3.485  10.649  0.4173  0.3702 -0.0850
  896MOL0     O18198   4.161   3.440  10.707 -0.0791 -0.3240 -1.1174
  896MOL0     C18199   4.148   3.293  10.720  0.2121 -0.6544 -0.6209
  896MOL0     C18200   4.022   3.259  10.797 -0.9183  0.9511  0.0824
  896MOL0     C18201   4.024   3.279  10.949 -0.7378  0.4298 -0.2325
  896MOL0     C18202   3.988   3.427  10.994  0.2424  0.5539 -0.9960
  896MOL0     C18203   3.979   3.430  11.148 -0.4414  0.2841  0.2847
  896MOL0     C18204   3.970   3.423  11.269  0.3451 -0.2562  0.9649
  896MOL0     C18205   4.380   3.407  10.597  0.7575  0.7246  0.9507
  896MOL0     C18206   4.492   3.458  10.541 -0.2865 -0.3278  0.0645
  896MOL0     H18207   4.791   3.795  10.275  0.2904 -0.5356  1.0274
  896MOL0     H18208   5.012   3.866  10.230 -0.0909 -2.2676 -0.0995
  896MOL0     H18209   5.306   3.838  10.577  2.6696  2.4411  2.6809
  896MOL0     H18210   5.298   4.023  10.574  0.5834  0.1484  0.2924
  896MOL0     H18211   5.438   4.011  10.371  3.6775 -0.4637 -0.5939
  896MOL0     H18212   5.435   3.836  10.395 -0.3208 -2.3115  3.3016
  896MOL0     H18213   5.550   3.893  10.623 -0.8147 -0.4320 -0.9967
  896MOL0     H18214   5.540   4.061  10.577 -0.6949 -0.0305  1.3132
  896MOL0     H18215   5.676   3.843  10.403  1.2532  0.2845 -2.3615
  896MOL0     H18216   5.673   4.016  10.370 -1.3162 -0.0729 -0.0992
  896MOL0     H18217   5.807   3.899  10.613 -0.8204  1.7464  0.9609
  896MOL0     H18218   5.802   4.070  10.576 -4.3711  0.1589  1.6068
  896MOL0     H18219   5.939   4.054  10.390 -0.3006  1.2332  1.2239
  896MOL0     H18220   5.936   3.876  10.378  0.1807  2.6150 -3.4388
  896MOL0     H18221   6.152   3.992  10.468  0.8958 -1.9346  0.0767
  896MOL0     H18222   6.050   4.016  10.612  2.3663 -2.5976  2.5665
  896MOL0     H18223   6.073   3.741  10.487 -1.6230 -2.1242  2.4734
  896MOL0     H18224   6.022   3.785  10.648  0.1249  0.8930  0.6638
  896MOL0     H18225   6.357   3.865  10.445  1.6686  2.7857  1.1928
  896MOL0     H18226   6.636   3.807  10.497 -0.5609  2.8272  0.2403
  896MOL0     H18227   6.639   3.681  10.616  1.4917  0.7997  1.9234
  896MOL0     H18228   6.781   3.884  10.689  0.1554  1.4002  0.1588
  896MOL0     H18229   6.660   3.832  10.806 -0.7460  1.0592  0.0052
  896MOL0     H18230   6.495   4.011  10.736 -1.0097  1.9308 -3.6448
  896MOL0     H18231   6.657   4.083  10.773  1.1651  0.8550 -1.3247
  896MOL0     H18232   6.507   4.033  10.524  0.6507 -2.0873  0.8566
  896MOL0     H18233   6.675   4.092  10.507  0.4195  1.0283  0.5052
  896MOL0     H18234   6.363   4.265  10.775  0.2450  0.6855 -0.2363
  896MOL0     H18235   6.108   4.286  10.721  2.4743 -3.6909  2.3334
  896MOL0     H18236   5.735   4.237  10.395 -0.7799  0.3160 -1.8661
  896MOL0     H18237   5.496   4.288  10.356  0.1946 -0.1642 -0.5052
  896MOL0     H18238   5.281   4.225  10.474 -0.3005 -0.4716 -3.5007
  896MOL0     H18239   5.258   4.378  10.374 -1.1497 -0.3645  0.8836
  896MOL0     H18240   5.077   4.440  10.512  0.2811  0.2142 -1.4007
  896MOL0     H18241   5.129   4.334  10.643  2.1486 -0.2349 -0.3128
  896MOL0     H18242   4.936   4.224  10.533  0.0282  0.1000 -0.2637
  896MOL0     H18243   5.078   4.141  10.467  0.2822 -0.2547 -1.0504
  896MOL0     H18244   4.989   4.385  10.297  1.3324  0.2874 -1.0837
  896MOL0     H18245   5.050   4.229  10.255 -1.3290 -2.3536  1.1553
  896MOL0     H18246   4.772   4.288  10.370  0.5236 -0.9672  1.7069
  896MOL0     H18247   4.813   4.125  10.347 -2.7813  1.8481  2.0720
  896MOL0     H18248   4.843   4.150  10.101 -1.1362  0.2036 -1.4116
  896MOL0     H18249   4.808   4.316  10.106 -1.4640  0.4994 -0.9117
  896MOL0     H18250   4.617   4.104  10.184  1.7627 -1.5265 -1.1408
  896MOL0     H18251   4.578   4.282  10.180 -0.3166 -0.5768 -1.3986
  896MOL0     H18252   4.650   4.093   9.941 -1.1064 -0.9806  0.9570
  896MOL0     H18253   4.647   4.264   9.927 -1.9486  0.9441 -0.6200
  896MOL0     H18254   5.500   4.500  10.734 -0.9892  0.2241 -1.4385
  896MOL0     H18255   5.743   4.483  10.741 -0.7407  1.2131  0.5067
  896MOL0     H18256   6.186   4.298  10.313 -1.1561  0.0390 -0.3357
  896MOL0     H18257   6.426   4.251  10.352 -0.1825 -3.3907 -0.3049
  896MOL0     H18258   5.082   3.913  10.655  1.2862  1.2000 -1.0212
  896MOL0     H18259   4.837   3.908  10.685 -0.4552 -1.2982 -0.1349
  896MOL0     H18260   4.436   3.784  10.641 -1.4826  2.8427 -3.7960
  896MOL0     H18261   4.226   3.685  10.712  1.6620 -0.6812  2.8443
  896MOL0     H18262   4.232   3.248  10.773 -0.4501 -2.1039 -0.7638
  896MOL0     H18263   4.138   3.250  10.620 -2.4328  1.6562 -1.4823
  896MOL0     H18264   3.946   3.328  10.759 -1.3196  0.5700  0.1770
  896MOL0     H18265   3.995   3.154  10.782  0.6135  0.4591  0.5724
  896MOL0     H18266   4.129   3.263  10.974 -0.5320  0.2468 -1.1811
  896MOL0     H18267   3.948   3.220  11.002  0.9077  0.2397  2.0826
  896MOL0     H18268   4.062   3.498  10.955  0.4639 -0.0485 -1.6991
  896MOL0     H18269   3.891   3.451  10.948 -0.8530 -1.6897  0.0159
  896MOL0     H18270   3.948   3.421  11.374 -2.5178 -0.8211  0.4156
  896MOL0     H18271   4.365   3.301  10.583 -2.5155  1.2724 -0.6418
  896MOL0     H18272   4.565   3.388  10.501 -0.8173 -0.5904 -0.4615
  897MOL0     O18273   4.481   5.783  11.107  0.0129 -0.0290 -0.2819
  897MOL0     C18274   4.470   5.856  11.017 -0.1653 -0.2152  0.4856
  897MOL0     O18275   4.360   5.911  10.971 -0.0902  0.4719  0.1575
  897MOL0     C18276   4.236   5.871  11.017  0.2418  0.6455 -0.3021
  897MOL0     C18277   4.189   5.741  11.016 -0.3481  0.2703  0.9183
  897MOL0     C18278   4.062   5.704  11.048  0.7969 -0.0592  0.8876
  897MOL0     C18279   3.969   5.801  11.081  0.3508 -0.2133 -0.7853
  897MOL0     O18280   3.841   5.761  11.126 -0.0748 -0.2338  0.7145
  897MOL0     C18281   3.804   5.622  11.106  0.5883  0.2831  0.4214
  897MOL0     C18282   3.664   5.609  11.146  0.3419  0.2803 -0.9187
  897MOL0     C18283   3.613   5.471  11.198 -0.1084  0.2486  0.8612
  897MOL0     C18284   3.468   5.463  11.201  0.6597 -0.1288  0.0159
  897MOL0     C18285   3.400   5.582  11.280 -0.4928 -0.3128  0.0436
  897MOL0     C18286   3.253   5.540  11.308  1.5165 -0.3757  0.1211
  897MOL0     C18287   3.160   5.491  11.202 -0.2398  0.6686 -0.4633
  897MOL0     C18288   3.018   5.466  11.260  0.1647 -0.2365 -0.0782
  897MOL0     N18289   2.989   5.328  11.310  0.2950  0.2255 -0.1309
  897MOL0     C18290   2.990   5.210  11.237  0.7394 -0.7755  0.3395
  897MOL0     C18291   2.962   5.112  11.332 -0.1486  0.4766 -0.0374
  897MOL0     C18292   2.937   4.967  11.306 -0.1772  0.2019 -0.2769
  897MOL0     C18293   2.786   4.926  11.303 -0.2245  0.2848 -0.4497
  897MOL0     C18294   2.703   4.953  11.437  0.3574 -0.8514  0.7649
  897MOL0     C18295   2.555   4.913  11.423 -0.0107  0.7523  0.6339
  897MOL0     O18296   2.541   4.769  11.424 -0.2026 -0.2511  0.7125
  897MOL0     C18297   2.411   4.723  11.425 -0.8673 -0.0879  0.4563
  897MOL0     C18298   2.398   4.594  11.465  0.0787  0.6342 -0.3554
  897MOL0     C18299   2.273   4.532  11.462  0.2686  0.4333 -0.3196
  897MOL0     C18300   2.155   4.611  11.436  0.4689  0.0974 -0.1194
  897MOL0     C18301   2.021   4.556  11.435  0.9612 -0.2512 -0.1258
  897MOL0     O18302   1.914   4.636  11.435 -0.6097  0.3686 -0.3040
  897MOL0     C18303   1.789   4.572  11.442  0.1264 -0.6562  0.5118
  897MOL0     C18304   1.697   4.582  11.332  0.3253  0.3148  1.1229
  897MOL0     C18305   1.573   4.511  11.350  0.1961 -0.0502 -0.5567
  897MOL0     C18306   1.545   4.429  11.462 -0.4095  0.9153  0.7436
  897MOL0     O18307   1.423   4.359  11.491 -0.2391  0.5681  0.9644
  897MOL0     C18308   1.310   4.393  11.407 -0.4796 -0.4444 -1.0632
  897MOL0     C18309   1.195   4.304  11.450  0.2607 -0.1966 -0.1865
  897MOL0     C18310   1.079   4.338  11.358 -0.5332 -0.5765 -0.4185
  897MOL0     C18311   0.960   4.246  11.394  0.0596  0.3427  1.1645
  897MOL0     C18312   0.829   4.304  11.331  0.5208 -0.1394  0.2882
  897MOL0     C18313   0.843   4.333  11.174  0.6320  0.0571 -0.3001
  897MOL0     C18314   0.697   4.335  11.127 -0.4292  0.3724 -1.1097
  897MOL0     C18315   0.691   4.339  10.978  0.3857 -0.4171  0.4697
  897MOL0    Cl18316   0.788   4.215  10.897 -0.3233 -0.1503 -0.4438
  897MOL0     C18317   1.635   4.430  11.568  0.7144 -0.7508  0.5336
  897MOL0     C18318   1.756   4.497  11.558  0.2284  0.1946  0.9505
  897MOL0     O18319   2.022   4.432  11.415  0.1016 -0.3214 -0.1916
  897MOL0     C18320   2.169   4.743  11.417 -0.0292 -0.4606 -0.2171
  897MOL0     C18321   2.291   4.798  11.395  0.3564 -0.7278  0.1935
  897MOL0     N18322   2.944   5.165  11.454 -0.7375 -0.0041 -0.0335
  897MOL0     N18323   2.972   5.292  11.442 -0.4351  0.1560 -1.4227
  897MOL0     C18324   4.006   5.934  11.080  0.4691  0.3775  0.5714
  897MOL0     C18325   4.136   5.966  11.045 -0.3776 -0.0187  0.8046
  897MOL0     C18326   4.587   5.895  10.936 -0.2930 -0.8173  0.0240
  897MOL0     C18327   4.579   5.986  10.828 -0.0622  0.1204  0.0035
  897MOL0     C18328   4.691   6.039  10.756 -0.1538 -0.1066  0.6176
  897MOL0     C18329   4.818   5.985  10.777 -0.2426 -0.1996 -0.0469
  897MOL0     O18330   4.930   6.040  10.705  0.4127  0.2408 -0.0593
  897MOL0     C18331   5.066   5.975  10.704  0.4166  0.3294 -0.4168
  897MOL0     C18332   5.165   6.071  10.653 -0.0287 -0.0953 -0.1817
  897MOL0     C18333   5.310   6.023  10.615  0.2790 -0.0979  0.3733
  897MOL0     C18334   5.389   6.109  10.516  0.2933  0.2834 -0.4569
  897MOL0     C18335   5.507   6.041  10.478 -0.1424 -0.0666  0.3989
  897MOL0     C18336   5.615   5.992  10.443  0.2437  0.0865  0.2022
  897MOL0     C18337   4.828   5.894  10.881 -0.2971  1.2074  0.2861
  897MOL0     C18338   4.714   5.844  10.957  0.3724 -0.1889 -0.7496
  897MOL0     H18339   4.252   5.659  10.981 -1.2051 -0.6441  1.4560
  897MOL0     H18340   4.033   5.600  11.034 -1.2124  0.3368  1.8264
  897MOL0     H18341   3.859   5.551  11.167  1.4007 -0.7991 -1.4665
  897MOL0     H18342   3.812   5.600  10.999  0.1998  1.8072  0.0566
  897MOL0     H18343   3.599   5.634  11.062  1.3968  1.4277 -1.4253
  897MOL0     H18344   3.644   5.678  11.228 -0.6457 -3.1269  1.9755
  897MOL0     H18345   3.651   5.447  11.298  3.2475  0.3289 -0.2655
  897MOL0     H18346   3.653   5.384  11.145 -0.1872 -0.8535  2.5375
  897MOL0     H18347   3.426   5.449  11.101 -0.6762 -0.6343  0.6234
  897MOL0     H18348   3.438   5.371  11.253 -1.5431  0.6146  0.1808
  897MOL0     H18349   3.393   5.672  11.219 -2.0724 -1.0602 -0.9357
  897MOL0     H18350   3.453   5.615  11.370  1.1846  1.9641 -1.6850
  897MOL0     H18351   3.194   5.626  11.344  0.2832 -1.1514  0.0204
  897MOL0     H18352   3.253   5.463  11.386 -0.7019  1.1666  1.7835
  897MOL0     H18353   3.168   5.553  11.111  1.4434  0.3488 -0.5654
  897MOL0     H18354   3.192   5.396  11.158  0.0049 -0.4711  2.0329
  897MOL0     H18355   2.958   5.476  11.170 -1.0435 -0.4664  0.6845
  897MOL0     H18356   2.985   5.544  11.329  1.7172  0.3411  0.0518
  897MOL0     H18357   2.999   5.190  11.131 -1.0759 -2.3241  0.4404
  897MOL0     H18358   2.978   4.907  11.388 -0.3801  1.0836  0.4854
  897MOL0     H18359   2.985   4.923  11.219 -0.9129 -0.6364 -0.2765
  897MOL0     H18360   2.782   4.817  11.289  1.4014 -0.0364  1.1728
  897MOL0     H18361   2.745   4.984  11.220 -1.3997 -1.8380 -1.4496
  897MOL0     H18362   2.749   4.893  11.517  1.7050 -2.5246 -1.1361
  897MOL0     H18363   2.710   5.059  11.463  2.4529 -0.8566  0.4696
  897MOL0     H18364   2.508   4.947  11.330 -1.2169 -0.9020  0.5848
  897MOL0     H18365   2.490   4.951  11.502  0.5367  2.3218  0.3627
  897MOL0     H18366   2.490   4.540  11.484 -1.6138 -1.4158  3.1192
  897MOL0     H18367   2.258   4.425  11.472 -2.0739  0.9034  2.6926
  897MOL0     H18368   1.724   4.633  11.240  1.0585 -0.9413  0.6025
  897MOL0     H18369   1.498   4.517  11.271 -2.6791 -1.0652  1.8888
  897MOL0     H18370   1.340   4.366  11.305  1.0117 -1.8909 -0.2916
  897MOL0     H18371   1.291   4.499  11.423  1.6173 -0.4989  3.1606
  897MOL0     H18372   1.162   4.329  11.552 -0.2804  0.0972 -0.4294
  897MOL0     H18373   1.220   4.199  11.436 -0.8475 -0.7535  1.6252
  897MOL0     H18374   1.108   4.326  11.253  1.5365  0.4258 -0.0098
  897MOL0     H18375   1.059   4.444  11.378  3.1210  0.8324 -3.0181
  897MOL0     H18376   0.983   4.142  11.366  0.0305  0.3393  1.1540
  897MOL0     H18377   0.950   4.236  11.502  0.5570 -0.6226  1.1362
  897MOL0     H18378   0.794   4.395  11.380 -1.4153 -1.3163  1.1807
  897MOL0     H18379   0.753   4.228  11.350  0.3034  0.1349  0.5368
  897MOL0     H18380   0.904   4.257  11.126  0.9748 -0.0309  0.2633
  897MOL0     H18381   0.893   4.430  11.162 -0.2338  0.3217 -2.1892
  897MOL0     H18382   0.638   4.247  11.154 -0.8667  1.3455  1.3570
  897MOL0     H18383   0.649   4.428  11.159 -0.3965 -0.1689  0.5849
  897MOL0     H18384   0.730   4.430  10.932 -0.4474 -1.7634 -3.2979
  897MOL0     H18385   0.586   4.323  10.952  1.2101 -3.8136 -1.5402
  897MOL0     H18386   1.595   4.385  11.659  0.6842  0.1425  0.9756
  897MOL0     H18387   1.826   4.483  11.640 -1.1238 -1.4699  1.8783
  897MOL0     H18388   2.088   4.813  11.397  1.9376  1.6278 -1.2883
  897MOL0     H18389   2.286   4.900  11.358 -1.0208 -1.5130 -1.9961
  897MOL0     H18390   3.940   6.018  11.097  0.8866  1.3903 -2.2274
  897MOL0     H18391   4.178   6.066  11.053 -0.1956  0.0005 -0.2562
  897MOL0     H18392   4.477   6.015  10.802 -0.5802 -0.3568  1.3976
  897MOL0     H18393   4.664   6.124  10.694 -1.6154 -1.3189 -0.4809
  897MOL0     H18394   5.051   5.892  10.634 -0.7030 -1.2210  1.5459
  897MOL0     H18395   5.082   5.930  10.802 -0.2943  1.7198  0.3628
  897MOL0     H18396   5.114   6.118  10.568 -3.3625  0.5661  1.9708
  897MOL0     H18397   5.179   6.154  10.723 -0.5672  1.2587 -1.6234
  897MOL0     H18398   5.292   5.929  10.563 -1.5684  1.4526 -2.0453
  897MOL0     H18399   5.373   6.009  10.704  0.2784  1.4112  0.6481
  897MOL0     H18400   5.325   6.125  10.428 -1.4454 -2.1296  0.2555
  897MOL0     H18401   5.406   6.203  10.569  1.0234  0.2798 -0.6646
  897MOL0     H18402   5.712   5.957  10.416 -0.1351 -0.5808 -0.2960
  897MOL0     H18403   4.927   5.854  10.899 -1.0143 -2.0440 -2.0940
  897MOL0     H18404   4.735   5.779  11.042  2.4927 -1.7731 -2.3578
  898MOL0     O18405   2.704   8.894   6.310  0.1634  0.2088  0.0267
  898MOL0     C18406   2.601   8.946   6.289  0.6612  0.8459 -0.0586
  898MOL0     O18407   2.549   9.055   6.353 -0.9674 -0.5022  0.5170
  898MOL0     C18408   2.608   9.096   6.468  0.0585 -0.7334  0.1353
  898MOL0     C18409   2.550   9.056   6.583 -0.4595  0.5208  0.1460
  898MOL0     C18410   2.602   9.108   6.708 -0.1044 -0.3039 -0.1735
  898MOL0     C18411   2.708   9.206   6.712  0.1235 -0.4362 -0.2355
  898MOL0     O18412   2.763   9.238   6.835  0.7244  0.5826  0.7050
  898MOL0     C18413   2.664   9.269   6.936  0.1361  0.7361 -0.0838
  898MOL0     C18414   2.719   9.344   7.057 -0.1174  0.7481 -0.3417
  898MOL0     C18415   2.754   9.479   7.001  0.3834  0.4792  0.0695
  898MOL0     C18416   2.793   9.582   7.102 -0.3855  0.2943 -0.1735
  898MOL0     C18417   2.830   9.711   7.034 -0.0276  1.0546  0.4647
  898MOL0     C18418   2.865   9.820   7.133 -0.0929 -0.4198 -0.0177
  898MOL0     C18419   2.863   9.962   7.064 -0.2597  0.2892 -0.0465
  898MOL0     C18420   2.928  10.070   7.151  0.5253 -1.1462 -0.3841
  898MOL0     N18421   2.869  10.077   7.288 -0.2441  0.2070  0.2301
  898MOL0     C18422   2.914  10.021   7.407  0.0039  0.0565  0.5301
  898MOL0     C18423   2.826  10.064   7.502 -0.3170  0.1875  0.6227
  898MOL0     C18424   2.848  10.033   7.644  0.2493  0.2681  0.6996
  898MOL0     C18425   2.871  10.159   7.718  0.3959 -0.3485 -0.8018
  898MOL0     C18426   2.743  10.235   7.758 -0.4076  0.8530  0.8110
  898MOL0     C18427   2.662  10.181   7.874 -0.3626 -0.6178  0.3899
  898MOL0     O18428   2.549  10.264   7.893 -0.0243 -0.4100 -1.0323
  898MOL0     C18429   2.463  10.232   7.994  0.2719 -0.5059  0.1279
  898MOL0     C18430   2.336  10.296   7.994  0.2851 -0.5986  0.0733
  898MOL0     C18431   2.242  10.266   8.094  0.3391 -0.3804  0.6301
  898MOL0     C18432   2.262  10.163   8.189 -0.4481 -0.8628 -0.4504
  898MOL0     C18433   2.161  10.123   8.283 -0.5036 -0.9157  0.4455
  898MOL0     O18434   2.187  10.023   8.376  0.1604 -0.4321  0.1656
  898MOL0     C18435   2.092  10.006   8.477 -0.1308 -0.3503 -0.0096
  898MOL0     C18436   1.959   9.979   8.464 -0.2538  0.1638 -0.2992
  898MOL0     C18437   1.874   9.976   8.581 -1.1732  0.2791 -0.3668
  898MOL0     C18438   1.933   9.970   8.706  0.0427  0.7593 -0.0657
  898MOL0     O18439   1.849   9.968   8.815  0.5156 -0.3752  0.5169
  898MOL0     C18440   1.832   9.847   8.887 -0.1067  0.3359 -0.1560
  898MOL0     C18441   1.940   9.857   8.992 -0.6364 -0.5032 -0.6420
  898MOL0     C18442   1.912   9.757   9.100 -0.2536  0.1768  0.2938
  898MOL0     C18443   1.810   9.805   9.209  0.5863 -0.6317  1.1008
  898MOL0     C18444   1.770   9.697   9.304 -0.9453  0.0558  0.1898
  898MOL0     C18445   1.689   9.585   9.233 -0.4115 -0.6713 -0.6859
  898MOL0     C18446   1.624   9.487   9.333 -0.0981 -0.6666  0.4418
  898MOL0     C18447   1.581   9.355   9.271  0.5635  0.2334  0.7172
  898MOL0    Cl18448   1.500   9.251   9.382  0.6746  0.3278  0.3729
  898MOL0     C18449   2.073   9.975   8.724  0.1538  0.0450  0.3932
  898MOL0     C18450   2.150   9.992   8.606  0.0831 -0.1191 -0.0027
  898MOL0     O18451   2.061  10.195   8.281  0.3392  0.1430 -0.4977
  898MOL0     C18452   2.388  10.105   8.191  0.1464  0.4828  0.5458
  898MOL0     C18453   2.491  10.141   8.098  0.8418 -0.5169  0.5521
  898MOL0     N18454   2.730  10.144   7.436  0.5692 -0.0601 -0.2479
  898MOL0     N18455   2.764  10.154   7.314 -0.0874 -0.0670  0.2273
  898MOL0     C18456   2.770   9.234   6.592 -0.6787 -0.4559  0.1296
  898MOL0     C18457   2.716   9.184   6.470  0.2758 -0.6502 -0.5942
  898MOL0     C18458   2.505   8.880   6.189 -0.0046  0.1449 -0.0822
  898MOL0     C18459   2.366   8.899   6.201  0.7980 -0.1589  0.4044
  898MOL0     C18460   2.278   8.827   6.110 -0.0795 -0.0342 -0.1812
  898MOL0     C18461   2.330   8.731   6.022  0.1180 -0.6061  1.1919
  898MOL0     O18462   2.250   8.658   5.940 -0.6816  0.3500  1.1388
  898MOL0     C18463   2.186   8.754   5.848 -0.7492 -1.6205  0.2433
  898MOL0     C18464   2.124   8.689   5.724  0.5851 -0.1884  0.5373
  898MOL0     C18465   1.979   8.628   5.740 -0.6130  0.0773  1.0037
  898MOL0     C18466   1.908   8.596   5.603  0.8058  0.2649 -0.1586
  898MOL0     C18467   1.974   8.478   5.538 -0.1942 -0.4857 -0.6275
  898MOL0     C18468   2.012   8.380   5.481  0.1852 -0.9400 -0.4361
  898MOL0     C18469   2.471   8.714   6.008 -0.1718 -0.1105  0.2944
  898MOL0     C18470   2.552   8.783   6.100 -0.0915 -0.4751  0.4181
  898MOL0     H18471   2.465   8.989   6.581 -1.0365  1.2524 -1.1293
  898MOL0     H18472   2.561   9.070   6.801  1.6579 -0.8335  0.4456
  898MOL0     H18473   2.626   9.173   6.974 -0.3562  0.5974 -0.9077
  898MOL0     H18474   2.575   9.322   6.902  1.3753  2.0387 -1.3759
  898MOL0     H18475   2.801   9.296   7.112 -1.4538 -0.2375  0.8789
  898MOL0     H18476   2.648   9.351   7.140 -0.6589 -2.1699 -0.4497
  898MOL0     H18477   2.677   9.516   6.933 -0.7660 -0.0606  1.0388
  898MOL0     H18478   2.843   9.456   6.941 -1.2499 -1.8107 -1.6907
  898MOL0     H18479   2.717   9.599   7.179  1.4890  2.1142  1.4083
  898MOL0     H18480   2.884   9.545   7.150 -0.7558  0.9319  1.0552
  898MOL0     H18481   2.741   9.742   6.979  1.4180  2.1694 -1.3434
  898MOL0     H18482   2.908   9.706   6.957  0.7738  1.5816  1.2097
  898MOL0     H18483   2.962   9.798   7.178 -0.3831  1.5070  1.6714
  898MOL0     H18484   2.792   9.819   7.214  0.3932  0.3714  0.4383
  898MOL0     H18485   2.924   9.944   6.976 -0.8525 -1.9512 -0.0762
  898MOL0     H18486   2.761   9.987   7.035  0.5313 -0.0465 -3.4776
  898MOL0     H18487   2.901  10.163   7.102  0.7436 -0.5190  0.6594
  898MOL0     H18488   3.037  10.070   7.159  0.4940 -0.2419  0.2158
  898MOL0     H18489   3.004   9.963   7.420 -0.4365 -1.1237 -1.3691
  898MOL0     H18490   2.934   9.967   7.653 -0.6272 -1.3540 -1.7249
  898MOL0     H18491   2.759   9.986   7.687 -0.0156 -0.4485 -0.5935
  898MOL0     H18492   2.928  10.232   7.660 -2.1472  0.6909 -2.1411
  898MOL0     H18493   2.931  10.137   7.807  0.8898 -2.4669 -1.5909
  898MOL0     H18494   2.757  10.338   7.790 -0.6571  0.0959  3.6727
  898MOL0     H18495   2.673  10.238   7.674 -0.1852  3.1524  0.6426
  898MOL0     H18496   2.730  10.182   7.960  1.1828  3.8128 -0.6254
  898MOL0     H18497   2.633  10.078   7.850 -1.8118  0.3256 -2.2803
  898MOL0     H18498   2.307  10.365   7.916 -0.3478  0.0421  0.8605
  898MOL0     H18499   2.153  10.328   8.090  0.2648 -0.4464  1.2614
  898MOL0     H18500   1.926   9.967   8.362 -1.1958 -2.3375  0.2231
  898MOL0     H18501   1.767   9.973   8.567 -1.3705 -0.5963  1.1509
  898MOL0     H18502   1.834   9.754   8.830 -1.0965 -0.7936  1.5626
  898MOL0     H18503   1.737   9.851   8.940 -0.5613 -1.3631 -0.7906
  898MOL0     H18504   1.945   9.958   9.034 -0.4779 -0.3781 -0.9619
  898MOL0     H18505   2.035   9.830   8.946  1.2968  1.7098  1.7034
  898MOL0     H18506   2.007   9.737   9.150  0.3590 -2.3399 -1.6629
  898MOL0     H18507   1.874   9.664   9.057 -0.0174 -0.1719  0.8314
  898MOL0     H18508   1.849   9.892   9.263  0.0545 -0.0462  0.5596
  898MOL0     H18509   1.715   9.836   9.163 -0.4924  0.2803  3.7786
  898MOL0     H18510   1.712   9.733   9.390 -0.4566 -1.2687  1.1014
  898MOL0     H18511   1.862   9.647   9.334 -2.9587 -4.4309 -0.2819
  898MOL0     H18512   1.750   9.532   9.159  0.6794 -1.8248  0.9764
  898MOL0     H18513   1.608   9.640   9.184 -2.0133 -0.9510  1.4979
  898MOL0     H18514   1.695   9.472   9.415  0.6353 -2.2545 -0.4341
  898MOL0     H18515   1.531   9.539   9.360  0.4862  1.9253 -2.0750
  898MOL0     H18516   1.671   9.299   9.244  0.6521  1.7118 -2.5793
  898MOL0     H18517   1.523   9.369   9.179  0.8934  0.1014  0.4896
  898MOL0     H18518   2.127   9.968   8.817 -0.1099  0.0018  0.5447
  898MOL0     H18519   2.256  10.003   8.627 -0.0997  0.1728  0.7996
  898MOL0     H18520   2.397  10.029   8.268  0.0070 -0.0588  0.0301
  898MOL0     H18521   2.591  10.100   8.108  1.7349  1.2652 -0.5053
  898MOL0     H18522   2.863   9.289   6.581 -1.0389  0.5961  1.9880
  898MOL0     H18523   2.761   9.216   6.377 -2.2066  3.2238 -0.6771
  898MOL0     H18524   2.324   8.965   6.277  0.5407 -1.1120  1.1201
  898MOL0     H18525   2.171   8.837   6.093 -0.1382 -2.6068 -1.8515
  898MOL0     H18526   2.249   8.836   5.814 -1.8362 -0.4793  0.9245
  898MOL0     H18527   2.103   8.803   5.898  0.4976 -0.2923  1.0878
  898MOL0     H18528   2.125   8.768   5.648  1.7024 -2.4994 -2.0238
  898MOL0     H18529   2.199   8.612   5.702  1.2366  0.3128  0.9523
  898MOL0     H18530   1.917   8.696   5.798  0.1840  2.6638 -1.0004
  898MOL0     H18531   1.987   8.531   5.789  0.1165 -0.4509 -0.1072
  898MOL0     H18532   1.806   8.564   5.628  0.4048  0.6850 -1.2101
  898MOL0     H18533   1.916   8.680   5.534 -0.0351  2.2348  2.0126
  898MOL0     H18534   2.057   8.296   5.432  3.1476  0.9418 -1.1931
  898MOL0     H18535   2.516   8.643   5.940  1.8809 -2.5264  3.8377
  898MOL0     H18536   2.658   8.762   6.103 -0.4034 -2.1859  0.4712
  899MOL0     O18537   9.420   1.797  10.142  0.1396 -1.2696 -0.6654
  899MOL0     C18538   9.470   1.694  10.098 -0.2288  0.9286 -0.0360
  899MOL0     O18539   9.393   1.585  10.056 -0.4234  0.0133  0.5277
  899MOL0     C18540   9.256   1.609  10.042  0.1806  0.5008 -0.4569
  899MOL0     C18541   9.206   1.697   9.942 -1.0688 -0.1473  0.2558
  899MOL0     C18542   9.069   1.696   9.933  0.0190 -0.7517  0.2652
  899MOL0     C18543   8.983   1.624  10.013 -0.0041  0.3726 -0.7775
  899MOL0     O18544   8.848   1.630  10.008 -0.2391 -0.5520  0.1393
  899MOL0     C18545   8.797   1.762   9.975 -0.3545 -0.5278  0.3400
  899MOL0     C18546   8.646   1.773  10.001 -0.8698 -0.2946  0.0548
  899MOL0     C18547   8.575   1.637   9.984 -0.2890  0.0698  0.0312
  899MOL0     C18548   8.572   1.553  10.116 -0.2786 -0.1356  0.2992
  899MOL0     C18549   8.559   1.405  10.094  0.4589 -0.2439 -1.1881
  899MOL0     C18550   8.544   1.337  10.231 -0.4611 -0.0531  0.2461
  899MOL0     C18551   8.571   1.191  10.211  0.2333  0.6382  0.7723
  899MOL0     C18552   8.474   1.115  10.296 -0.5690  0.4846  0.7301
  899MOL0     N18553   8.330   1.124  10.263  0.0314 -0.8246 -0.3997
  899MOL0     C18554   8.275   1.141  10.143 -0.2570  0.0846  0.5632
  899MOL0     C18555   8.144   1.163  10.173 -0.1010 -0.4492  0.2459
  899MOL0     C18556   8.035   1.186  10.065 -0.0568  0.3203  0.6310
  899MOL0     C18557   7.993   1.060   9.990 -0.3949  0.9278 -0.3312
  899MOL0     C18558   7.862   0.987  10.046  1.2292  0.1561  0.2024
  899MOL0     C18559   7.733   1.056   9.999  0.0581 -0.3689 -0.6030
  899MOL0     O18560   7.630   1.024  10.087 -0.4763  0.5498 -0.4579
  899MOL0     C18561   7.501   1.020  10.037  1.0779  0.0050 -0.3701
  899MOL0     C18562   7.448   1.091   9.931  0.0816  0.5768  0.7092
  899MOL0     C18563   7.312   1.082   9.896  0.0351 -0.5585  0.6081
  899MOL0     C18564   7.224   1.004   9.962 -0.0110 -0.2873  0.2052
  899MOL0     C18565   7.080   1.020   9.935 -1.0673  0.2350 -0.7419
  899MOL0     O18566   6.992   0.967  10.029 -0.2768  0.7819 -0.4239
  899MOL0     C18567   6.863   0.989  10.007  0.1684 -1.0289  0.8208
  899MOL0     C18568   6.803   1.096  10.077  0.3469 -0.7734 -0.2334
  899MOL0     C18569   6.676   1.119  10.059  0.0835  0.4794  0.7046
  899MOL0     C18570   6.596   1.045   9.972 -0.0631  0.1453 -0.8073
  899MOL0     O18571   6.460   1.062   9.973 -1.3545  0.1290 -0.0616
  899MOL0     C18572   6.390   1.145  10.058  0.0286  0.0410  0.1862
  899MOL0     C18573   6.244   1.154  10.006  0.1813  0.3500 -0.7963
  899MOL0     C18574   6.212   1.219   9.873  0.1179  0.0353  0.4709
  899MOL0     C18575   6.068   1.272   9.883 -0.4444 -0.7251 -0.2344
  899MOL0     C18576   6.020   1.327   9.748  0.1359  0.3775  0.1398
  899MOL0     C18577   5.950   1.210   9.674  0.4485  0.1526  0.0038
  899MOL0     C18578   5.803   1.183   9.722 -0.4848 -0.9028 -0.1474
  899MOL0     C18579   5.743   1.070   9.649 -0.3042  0.4692  0.2833
  899MOL0    Cl18580   5.573   1.046   9.697  0.4360 -0.2376  0.5154
  899MOL0     C18581   6.666   0.949   9.893  0.6030  0.0928 -0.1372
  899MOL0     C18582   6.796   0.913   9.913 -0.6554 -0.6483  0.3153
  899MOL0     O18583   7.048   1.065   9.829  0.3286  0.1542  0.4559
  899MOL0     C18584   7.274   0.927  10.067 -0.9682 -0.1132 -0.2127
  899MOL0     C18585   7.409   0.946  10.111 -1.1982 -0.5198  0.6108
  899MOL0     N18586   8.119   1.156  10.309  0.1344 -0.3658  0.2128
  899MOL0     N18587   8.230   1.137  10.359 -0.4022  0.0644 -0.3089
  899MOL0     C18588   9.039   1.530  10.102 -0.7515  0.1139  0.2879
  899MOL0     C18589   9.177   1.526  10.119  0.8454  0.3322  1.2819
  899MOL0     C18590   9.614   1.688  10.106 -0.1445  0.2588  0.4152
  899MOL0     C18591   9.681   1.616  10.000  0.0915 -0.0294 -0.0870
  899MOL0     C18592   9.815   1.596  10.005 -0.4143 -0.2807  0.3269
  899MOL0     C18593   9.887   1.647  10.115 -0.1133  0.1425  0.7128
  899MOL0     O18594  10.024   1.623  10.135  0.0167 -0.7891  0.4431
  899MOL0     C18595  10.076   1.488  10.112  0.1058  0.1343  0.4801
  899MOL0     C18596  10.228   1.478  10.131  0.4320 -0.2037 -0.4809
  899MOL0     C18597  10.283   1.335  10.107  1.3329 -1.0632  0.1447
  899MOL0     C18598  10.427   1.318  10.167 -0.9906 -0.0128 -0.4680
  899MOL0     C18599  10.521   1.429  10.151  0.2564  0.5273  0.8909
  899MOL0     C18600  10.605   1.516  10.127  0.4537  0.6134 -0.6564
  899MOL0     C18601   9.827   1.715  10.217 -1.1802 -0.4313  0.2698
  899MOL0     C18602   9.694   1.736  10.213  0.5514 -0.1214  0.2350
  899MOL0     H18603   9.266   1.757   9.874  0.1826  1.1467  2.3892
  899MOL0     H18604   9.029   1.768   9.862  0.6335 -0.2812  0.3838
  899MOL0     H18605   8.827   1.782   9.871  1.6875 -0.4180  0.9066
  899MOL0     H18606   8.844   1.844  10.031  1.6036 -1.8985  0.7991
  899MOL0     H18607   8.609   1.844   9.926 -2.7147 -2.0194 -0.7386
  899MOL0     H18608   8.639   1.815  10.102  0.5209 -0.2304  0.1408
  899MOL0     H18609   8.633   1.586   9.906  1.3971  0.0418  1.2583
  899MOL0     H18610   8.469   1.648   9.958 -1.8545 -2.8455  4.2690
  899MOL0     H18611   8.668   1.572  10.166  0.6460 -0.0747 -1.3976
  899MOL0     H18612   8.489   1.583  10.180  1.9957  0.6353  3.1184
  899MOL0     H18613   8.651   1.369  10.047  1.2131  0.9831 -0.7054
  899MOL0     H18614   8.474   1.389  10.027  1.1404  2.0285 -2.7340
  899MOL0     H18615   8.448   1.364  10.276 -0.0748 -1.3717  1.9696
  899MOL0     H18616   8.623   1.381  10.291  1.3982 -1.8258 -0.7664
  899MOL0     H18617   8.552   1.161  10.108  1.1793 -0.4115  0.8823
  899MOL0     H18618   8.674   1.166  10.240  0.6489  1.2488 -0.1314
  899MOL0     H18619   8.493   1.147  10.399 -0.3503 -1.1017  1.1995
  899MOL0     H18620   8.494   1.008  10.290  1.1520  0.8723 -1.2620
  899MOL0     H18621   8.325   1.145  10.047  1.1423 -0.7298  1.2277
  899MOL0     H18622   8.075   1.253   9.988  2.8195 -0.3384  1.4277
  899MOL0     H18623   7.957   1.247  10.110 -0.0716  0.3167  0.6107
  899MOL0     H18624   8.075   0.988   9.997 -1.8075 -0.6594  0.4657
  899MOL0     H18625   7.977   1.084   9.884  1.3972 -2.3467 -1.4789
  899MOL0     H18626   7.846   0.883  10.016 -1.1655  0.1112  1.4226
  899MOL0     H18627   7.866   0.982  10.155 -0.4606 -2.4525  0.2097
  899MOL0     H18628   7.703   1.014   9.902  3.0453 -1.6307 -1.1050
  899MOL0     H18629   7.747   1.164   9.990  4.2417 -0.7439 -0.6283
  899MOL0     H18630   7.517   1.152   9.874  2.1051  1.1105  3.4744
  899MOL0     H18631   7.279   1.127   9.803 -1.4301 -1.3411  0.7198
  899MOL0     H18632   6.868   1.153  10.141 -0.7647 -0.4880  0.6737
  899MOL0     H18633   6.627   1.191  10.124  0.2346  0.8032  0.4664
  899MOL0     H18634   6.426   1.248  10.059 -2.7427  1.1239 -0.6844
  899MOL0     H18635   6.395   1.104  10.159  1.5630 -0.8864 -0.2465
  899MOL0     H18636   6.202   1.211  10.089 -1.5731 -4.4378  1.9796
  899MOL0     H18637   6.202   1.054   9.995 -2.8195  1.4643 -0.2812
  899MOL0     H18638   6.210   1.145   9.792  0.2480 -1.2293  1.5948
  899MOL0     H18639   6.291   1.288   9.841 -0.1379 -0.5695 -1.6255
  899MOL0     H18640   5.992   1.202   9.921  0.6273  0.3564  4.3703
  899MOL0     H18641   6.066   1.352   9.957 -1.6494  0.7411 -1.7772
  899MOL0     H18642   6.104   1.372   9.692  0.4118  1.1056  1.1043
  899MOL0     H18643   5.948   1.407   9.766 -1.3380 -0.9218  0.1281
  899MOL0     H18644   6.012   1.122   9.692 -0.0815  0.0970  1.7584
  899MOL0     H18645   5.945   1.228   9.567  2.7709  1.2383  0.0416
  899MOL0     H18646   5.807   1.157   9.828  1.6265  0.6542  0.2070
  899MOL0     H18647   5.747   1.276   9.721  2.1630  0.8354  1.3116
  899MOL0     H18648   5.798   0.977   9.666 -0.2941  0.1227 -1.4408
  899MOL0     H18649   5.741   1.094   9.542  2.7442 -0.6986 -0.1475
  899MOL0     H18650   6.600   0.907   9.817 -1.0153  0.9573  0.7432
  899MOL0     H18651   6.843   0.841   9.847 -0.2782  0.8453 -1.0893
  899MOL0     H18652   7.212   0.866  10.131  2.3627  0.0775  3.5650
  899MOL0     H18653   7.440   0.890  10.198  1.2187 -0.9927 -0.4641
  899MOL0     H18654   8.973   1.472  10.166 -2.0459  0.4918 -0.6623
  899MOL0     H18655   9.234   1.465  10.189 -0.6342 -1.5440  0.9059
  899MOL0     H18656   9.630   1.587   9.908 -0.1025  1.1198 -0.3521
  899MOL0     H18657   9.869   1.541   9.929 -0.7404 -0.1640  0.0109
  899MOL0     H18658  10.041   1.438  10.022 -1.1679  0.0931  0.9870
  899MOL0     H18659  10.035   1.427  10.193 -0.0272 -0.8841 -0.3316
  899MOL0     H18660  10.266   1.550  10.058  0.0676 -0.0348 -0.5088
  899MOL0     H18661  10.255   1.516  10.230  3.1709  0.3976 -1.3874
  899MOL0     H18662  10.273   1.320   9.999 -1.8211  2.0881 -0.1913
  899MOL0     H18663  10.216   1.261  10.153 -0.9931  0.4128 -0.7076
  899MOL0     H18664  10.432   1.285  10.271  2.5711 -2.2795 -1.1493
  899MOL0     H18665  10.461   1.241  10.097 -0.0914  1.7465 -2.0540
  899MOL0     H18666  10.685   1.587  10.133  2.7051 -1.7547 -0.9781
  899MOL0     H18667   9.892   1.737  10.301  1.0036 -2.6866 -0.6820
  899MOL0     H18668   9.651   1.789  10.297  3.3667  0.2887  1.5326
  900MOL0     O18669   7.532   3.853   7.496 -0.6876 -0.8876 -0.5946
  900MOL0     C18670   7.579   3.962   7.481  0.0242 -0.6123 -0.7842
  900MOL0     O18671   7.515   4.083   7.493  0.3745 -0.4508  0.4313
  900MOL0     C18672   7.379   4.094   7.515  0.2355  0.6144 -0.2181
  900MOL0     C18673   7.316   4.211   7.482  0.0044 -1.0015 -0.3167
  900MOL0     C18674   7.178   4.229   7.501  1.0105 -0.1960 -0.5390
  900MOL0     C18675   7.107   4.134   7.572  0.6545  0.3273  0.3365
  900MOL0     O18676   6.976   4.129   7.587 -0.1558  0.0870  0.0161
  900MOL0     C18677   6.889   4.242   7.560 -0.3815 -0.6690 -0.1903
  900MOL0     C18678   6.750   4.200   7.596  0.5023 -0.1051  0.5338
  900MOL0     C18679   6.758   4.125   7.724 -0.5016 -1.3218  0.1413
  900MOL0     C18680   6.615   4.100   7.783 -0.0800 -0.0431 -0.0203
  900MOL0     C18681   6.542   4.224   7.843 -0.5631  0.6302 -0.6045
  900MOL0     C18682   6.422   4.181   7.937  0.2631 -0.2183 -0.0267
  900MOL0     C18683   6.285   4.158   7.870  0.0728 -1.2028 -0.5668
  900MOL0     C18684   6.238   4.300   7.825 -0.2880 -0.4754 -0.1324
  900MOL0     N18685   6.094   4.298   7.799  0.6238  0.6733  0.6465
  900MOL0     C18686   6.038   4.244   7.683  0.2959 -0.0740  1.0263
  900MOL0     C18687   5.901   4.256   7.693 -0.1566 -0.0343 -1.1357
  900MOL0     C18688   5.790   4.225   7.594  0.3905 -0.0293  0.1834
  900MOL0     C18689   5.647   4.235   7.644  0.0364  0.3812  0.0298
  900MOL0     C18690   5.594   4.109   7.710  0.9459 -0.8219  0.3093
  900MOL0     C18691   5.436   4.099   7.725 -0.4105  0.0462  0.6481
  900MOL0     O18692   5.377   4.214   7.782  0.3266 -0.4132 -0.4329
  900MOL0     C18693   5.241   4.210   7.818 -0.0154 -0.5635 -0.1378
  900MOL0     C18694   5.205   4.197   7.958  0.0676  0.4248 -0.3523
  900MOL0     C18695   5.074   4.184   7.998  1.1300  1.2767  0.4713
  900MOL0     C18696   4.971   4.191   7.901  0.3637  0.0931  0.4355
  900MOL0     C18697   4.827   4.172   7.936 -1.2638 -0.3496  0.1072
  900MOL0     O18698   4.796   4.117   8.059  0.0910 -0.3195  0.2959
  900MOL0     C18699   4.669   4.126   8.098  0.2132 -0.3762 -0.5736
  900MOL0     C18700   4.573   4.044   8.040 -0.1075  0.4538 -0.4092
  900MOL0     C18701   4.438   4.049   8.088  0.3406 -0.0870 -0.4175
  900MOL0     C18702   4.408   4.128   8.198 -0.2608 -0.3912 -0.0966
  900MOL0     O18703   4.284   4.133   8.235  0.1947  0.3213 -0.2682
  900MOL0     C18704   4.260   4.057   8.349  0.2157  0.5138  0.6647
  900MOL0     C18705   4.121   4.078   8.401  0.1445 -0.1648  0.6341
  900MOL0     C18706   4.111   4.048   8.546 -0.5254 -0.0490  0.5492
  900MOL0     C18707   3.967   4.061   8.588 -0.4926 -0.0666  0.1742
  900MOL0     C18708   3.886   3.951   8.518 -0.6989  0.1423 -0.4606
  900MOL0     C18709   3.764   3.895   8.599  0.0189  0.3018 -0.5417
  900MOL0     C18710   3.641   3.876   8.522 -0.1299  1.1966  0.1708
  900MOL0     C18711   3.502   3.872   8.598 -0.0828  1.1876  0.0504
  900MOL0    Cl18712   3.389   3.834   8.473  0.1413  0.5323  0.4299
  900MOL0     C18713   4.506   4.207   8.255  0.6072  0.8979 -0.2591
  900MOL0     C18714   4.636   4.204   8.204  0.2987  0.4251 -0.4314
  900MOL0     O18715   4.745   4.214   7.846  0.4126  0.0211 -0.2248
  900MOL0     C18716   5.011   4.208   7.759  0.8055 -0.5817  0.0439
  900MOL0     C18717   5.145   4.227   7.725 -0.0209 -0.1171  0.3392
  900MOL0     N18718   5.875   4.312   7.818  0.3174  0.3127 -0.1192
  900MOL0     N18719   5.992   4.337   7.882  0.0593  0.0786 -0.1766
  900MOL0     C18720   7.169   4.016   7.613 -0.1379  0.0051 -0.1817
  900MOL0     C18721   7.301   3.996   7.580  0.3331  0.7909 -0.2256
  900MOL0     C18722   7.713   3.957   7.434  0.0449  0.5957 -0.5962
  900MOL0     C18723   7.774   3.833   7.380 -0.2379 -0.7668  0.5874
  900MOL0     C18724   7.899   3.842   7.312 -0.0302 -0.0028 -0.7470
  900MOL0     C18725   7.970   3.962   7.306 -0.0061  0.3272  0.2044
  900MOL0     O18726   8.083   3.981   7.232  1.3016  0.1235  0.1265
  900MOL0     C18727   8.084   3.896   7.120 -0.3357 -0.5637  0.3706
  900MOL0     C18728   8.172   3.965   7.020  0.5821  0.3849  1.0766
  900MOL0     C18729   8.320   3.933   7.021 -0.0733  0.0937 -0.0988
  900MOL0     C18730   8.360   3.787   6.955  0.1889 -0.3009  0.0345
  900MOL0     C18731   8.501   3.780   6.946 -0.9182 -0.1075  0.5959
  900MOL0     C18732   8.621   3.761   6.932 -0.9431 -0.0293  0.2859
  900MOL0     C18733   7.925   4.064   7.382 -0.0838 -0.9322 -0.4023
  900MOL0     C18734   7.796   4.068   7.434 -0.2836  0.6456 -0.7166
  900MOL0     H18735   7.375   4.290   7.438 -0.8449  1.8802  3.2122
  900MOL0     H18736   7.118   4.316   7.474  1.3036  1.3219  3.0683
  900MOL0     H18737   6.890   4.260   7.452  1.2957 -3.3183 -0.7047
  900MOL0     H18738   6.919   4.330   7.618  0.4729 -1.5715  0.7762
  900MOL0     H18739   6.695   4.154   7.514  0.1902  0.2081  0.5652
  900MOL0     H18740   6.680   4.283   7.611 -1.9752 -2.1077  0.7389
  900MOL0     H18741   6.819   4.192   7.787 -0.5445  1.5266 -2.5967
  900MOL0     H18742   6.804   4.028   7.707 -1.0163 -1.3065 -1.4387
  900MOL0     H18743   6.544   4.070   7.705 -1.0805  2.7836 -0.3406
  900MOL0     H18744   6.629   4.025   7.861 -1.0321 -0.8685 -0.6167
  900MOL0     H18745   6.522   4.305   7.773 -2.9168  0.8531  0.2443
  900MOL0     H18746   6.611   4.259   7.920  0.0723  1.1349 -1.3898
  900MOL0     H18747   6.397   4.259   8.010 -2.9354 -1.1297 -0.0070
  900MOL0     H18748   6.437   4.088   7.993  1.4100 -0.3698 -0.5741
  900MOL0     H18749   6.290   4.082   7.791 -0.5901  0.2581 -2.0524
  900MOL0     H18750   6.218   4.123   7.949  0.7485  0.0670  0.6236
  900MOL0     H18751   6.302   4.335   7.744  0.3518 -2.2782 -0.4339
  900MOL0     H18752   6.250   4.379   7.901  2.8437  1.1141 -2.0891
  900MOL0     H18753   6.080   4.191   7.598 -1.3723  0.7954 -0.4407
  900MOL0     H18754   5.794   4.123   7.555  2.6084 -0.3884  1.2125
  900MOL0     H18755   5.808   4.289   7.507 -0.7094 -2.0664 -1.6651
  900MOL0     H18756   5.585   4.261   7.557  1.2939  1.1458 -0.6666
  900MOL0     H18757   5.646   4.314   7.719  1.2259 -0.9326  1.5030
  900MOL0     H18758   5.642   4.018   7.674  1.1966 -1.8669  3.0249
  900MOL0     H18759   5.638   4.110   7.810 -0.4828  0.8229  0.9890
  900MOL0     H18760   5.413   4.010   7.784 -0.2512  0.9629  2.1261
  900MOL0     H18761   5.392   4.080   7.626  1.7295 -1.0607 -0.1759
  900MOL0     H18762   5.281   4.164   8.028 -0.2658 -3.2352 -1.4802
  900MOL0     H18763   5.043   4.175   8.102  0.1632  0.6190  0.1370
  900MOL0     H18764   4.611   3.991   7.954  1.7009  1.9507 -0.5894
  900MOL0     H18765   4.353   4.006   8.035 -1.0138  3.9149 -1.8257
  900MOL0     H18766   4.331   4.076   8.430  1.2146  1.9848 -0.4964
  900MOL0     H18767   4.277   3.951   8.328  0.9469  0.8934 -0.7734
  900MOL0     H18768   4.050   4.016   8.346  1.7317 -0.6724 -0.9164
  900MOL0     H18769   4.095   4.182   8.381  0.4054  0.5266  3.4149
  900MOL0     H18770   4.168   4.121   8.605 -0.9954 -1.2367  2.5999
  900MOL0     H18771   4.149   3.948   8.568  0.2952  0.5957  2.2392
  900MOL0     H18772   3.957   4.045   8.695 -1.0783  2.0807  0.4859
  900MOL0     H18773   3.930   4.162   8.564  2.4465  1.0182 -0.2780
  900MOL0     H18774   3.956   3.870   8.497 -0.4155  0.7130 -1.8201
  900MOL0     H18775   3.853   4.002   8.426  3.8469  1.1854 -1.7683
  900MOL0     H18776   3.729   3.971   8.670  0.1395 -1.1711  1.1549
  900MOL0     H18777   3.785   3.802   8.652 -2.2360 -1.4914 -2.5709
  900MOL0     H18778   3.634   3.960   8.452 -0.1419  0.4996 -0.6704
  900MOL0     H18779   3.665   3.780   8.477  0.9133 -0.7363  4.3829
  900MOL0     H18780   3.479   3.970   8.641 -0.6535  1.3718 -0.6663
  900MOL0     H18781   3.516   3.790   8.669  0.6242  0.3629 -1.0042
  900MOL0     H18782   4.485   4.276   8.336 -4.4876 -1.9169  1.2433
  900MOL0     H18783   4.701   4.277   8.251 -0.0751 -0.0469  0.8735
  900MOL0     H18784   4.938   4.215   7.679 -1.3158 -1.8409  1.7449
  900MOL0     H18785   5.162   4.249   7.620  0.9403  3.2456  1.1060
  900MOL0     H18786   7.105   3.941   7.659 -0.9498  0.4938 -0.4791
  900MOL0     H18787   7.361   3.909   7.606  2.5864  1.8223 -1.6421
  900MOL0     H18788   7.719   3.740   7.374 -1.7987  0.1499  0.1978
  900MOL0     H18789   7.940   3.752   7.267 -1.7730 -0.8305 -0.7453
  900MOL0     H18790   7.987   3.881   7.072  0.6577  0.6809 -2.2694
  900MOL0     H18791   8.123   3.801   7.156 -2.0658 -0.9326  1.3689
  900MOL0     H18792   8.142   3.926   6.921 -0.4272  0.1558  1.4557
  900MOL0     H18793   8.163   4.073   7.029 -0.3309  0.1800  3.1077
  900MOL0     H18794   8.351   3.937   7.126 -2.2465  1.8258  0.5462
  900MOL0     H18795   8.380   4.012   6.976 -1.4017 -0.2046 -2.5519
  900MOL0     H18796   8.312   3.707   7.013 -0.6327 -0.0335 -0.2522
  900MOL0     H18797   8.323   3.780   6.852  0.4227  0.3922 -0.0994
  900MOL0     H18798   8.728   3.762   6.922 -1.0333  1.5667 -0.8125
  900MOL0     H18799   7.988   4.152   7.388 -3.0844  1.3029  3.7511
  900MOL0     H18800   7.766   4.160   7.484  1.9367 -0.7692  3.8056
  901MOL0     O18801   2.144   3.872   9.050 -0.3494 -0.1396 -0.3113
  901MOL0     C18802   2.180   3.986   9.073  0.5714 -0.4334 -0.5170
  901MOL0     O18803   2.099   4.096   9.087 -0.7418  0.8847  0.2331
  901MOL0     C18804   1.962   4.060   9.094  0.2209  0.3694  0.3086
  901MOL0     C18805   1.895   4.054   9.224 -0.4561 -0.1371  0.3014
  901MOL0     C18806   1.762   4.019   9.239 -0.4091  0.9759 -0.6813
  901MOL0     C18807   1.685   4.002   9.124  0.9233  0.6341 -0.4148
  901MOL0     O18808   1.552   3.983   9.138  0.0779 -0.4126  0.1003
  901MOL0     C18809   1.483   4.079   9.215  0.2284 -0.2403 -0.3111
  901MOL0     C18810   1.334   4.058   9.181  0.5292  0.2459  0.2454
  901MOL0     C18811   1.244   4.150   9.257 -0.4481  0.6717 -0.7593
  901MOL0     C18812   1.098   4.119   9.219  0.3255 -0.1149 -0.2509
  901MOL0     C18813   0.999   4.228   9.259  0.4685 -0.0135  0.3757
  901MOL0     C18814   0.856   4.188   9.230 -0.8274 -0.0158  0.1904
  901MOL0     C18815   0.759   4.294   9.281  0.8602  0.2666  0.2347
  901MOL0     C18816   0.609   4.249   9.282 -0.5590  0.0330 -0.0600
  901MOL0     N18817   0.564   4.229   9.138 -0.3759  0.0497  0.1436
  901MOL0     C18818   0.572   4.329   9.041  0.1974  0.2973  0.4673
  901MOL0     C18819   0.547   4.260   8.922  1.2252 -0.1733  0.2353
  901MOL0     C18820   0.527   4.311   8.781  0.2753 -0.2011 -0.0223
  901MOL0     C18821   0.385   4.371   8.769  0.5336  0.1202  0.2487
  901MOL0     C18822   0.298   4.259   8.724  0.0687  0.0459 -0.0553
  901MOL0     C18823   0.170   4.326   8.681 -0.4034  0.4374 -0.0071
  901MOL0     O18824   0.083   4.220   8.650  0.0659 -0.9877 -0.2955
  901MOL0     C18825  -0.034   4.256   8.590  0.3471  0.1352 -1.6763
  901MOL0     C18826  -0.101   4.146   8.548  0.3906  0.3596  0.3463
  901MOL0     C18827  -0.230   4.151   8.489 -0.3254  0.5499  0.1477
  901MOL0     C18828  -0.284   4.271   8.453 -0.0036 -1.1249 -0.1729
  901MOL0     C18829  -0.416   4.281   8.387  0.0007 -0.5895 -0.5328
  901MOL0     O18830  -0.452   4.396   8.332  0.0044  0.2114 -0.5521
  901MOL0     C18831  -0.571   4.406   8.265  0.5027  0.4037 -0.5068
  901MOL0     C18832  -0.670   4.488   8.318 -0.0248 -0.3373  0.0283
  901MOL0     C18833  -0.796   4.490   8.259 -0.6123  0.7929  0.4428
  901MOL0     C18834  -0.826   4.404   8.151 -0.2504 -1.0560 -0.5844
  901MOL0     O18835  -0.939   4.401   8.078  0.3473 -0.1332  0.0092
  901MOL0     C18836  -1.053   4.474   8.124  0.9432 -0.2382  1.2164
  901MOL0     C18837  -1.173   4.397   8.074  0.1177  0.2174 -0.4456
  901MOL0     C18838  -1.294   4.497   8.101  0.0542  0.5320 -0.0462
  901MOL0     C18839  -1.337   4.478   8.252  0.3412  0.3975  0.1654
  901MOL0     C18840  -1.480   4.544   8.263 -0.2771  0.3690  0.2027
  901MOL0     C18841  -1.469   4.692   8.259  0.4014 -0.3831  0.3243
  901MOL0     C18842  -1.602   4.755   8.286  0.1810  0.7696  0.6028
  901MOL0     C18843  -1.585   4.904   8.295  0.3899 -0.3247 -0.1783
  901MOL0    Cl18844  -1.745   4.975   8.309  0.0865  0.1853  0.0922
  901MOL0     C18845  -0.723   4.335   8.090 -0.2366  0.3311  0.1469
  901MOL0     C18846  -0.594   4.334   8.148  0.0198 -0.4593  0.0787
  901MOL0     O18847  -0.492   4.187   8.407 -0.5714 -0.8125 -0.4675
  901MOL0     C18848  -0.197   4.385   8.474 -0.5289 -0.5212 -0.1421
  901MOL0     C18849  -0.081   4.382   8.549 -0.0981  0.3480  0.1887
  901MOL0     N18850   0.546   4.122   8.953  0.3859  0.5564 -0.3166
  901MOL0     N18851   0.552   4.111   9.085  0.1679 -0.0469  0.3778
  901MOL0     C18852   1.747   4.011   9.001  0.0219 -0.2019  0.5320
  901MOL0     C18853   1.883   4.039   8.983  0.3568  0.6011  0.3673
  901MOL0     C18854   2.330   4.001   9.091  0.2134  0.0764 -0.4362
  901MOL0     C18855   2.421   3.921   9.034 -0.3985  0.3535  0.6985
  901MOL0     C18856   2.558   3.949   9.063 -0.2990  0.0254  0.7589
  901MOL0     C18857   2.601   4.054   9.139  0.2508 -0.2810  0.0535
  901MOL0     O18858   2.734   4.070   9.123  0.5783  0.2998  0.6267
  901MOL0     C18859   2.792   4.194   9.164  0.1715  0.2010 -0.6095
  901MOL0     C18860   2.940   4.176   9.184 -0.4703  0.2876  0.6981
  901MOL0     C18861   3.023   4.110   9.071  0.6854  0.6656 -0.3571
  901MOL0     C18862   3.027   4.200   8.947  0.3907  0.7760  0.5577
  901MOL0     C18863   3.116   4.133   8.842  0.2633  0.4116 -0.3450
  901MOL0     C18864   3.159   4.064   8.758 -0.7647 -0.1709 -0.1109
  901MOL0     C18865   2.509   4.130   9.212  0.7577 -0.4128  0.5950
  901MOL0     C18866   2.375   4.107   9.181 -1.0787 -0.1673 -0.3151
  901MOL0     H18867   1.960   4.064   9.311 -0.4861 -0.7211  0.3945
  901MOL0     H18868   1.720   4.012   9.338 -1.4198  3.0071 -0.9048
  901MOL0     H18869   1.521   4.176   9.182  0.2388  0.1110  0.6867
  901MOL0     H18870   1.492   4.059   9.322 -2.4918 -0.6414 -0.0854
  901MOL0     H18871   1.316   3.954   9.212 -1.6076  0.4386 -0.2309
  901MOL0     H18872   1.318   4.073   9.074 -0.9661  5.8645  0.9703
  901MOL0     H18873   1.278   4.253   9.240  1.7635  0.4477  1.6476
  901MOL0     H18874   1.259   4.129   9.364  1.4698  1.7548 -0.7670
  901MOL0     H18875   1.090   4.105   9.111  0.4392 -0.0977 -0.2616
  901MOL0     H18876   1.064   4.030   9.272  1.0468  0.1043  0.5943
  901MOL0     H18877   1.021   4.325   9.213 -2.1671  0.6254  0.3087
  901MOL0     H18878   1.007   4.243   9.367 -0.6457  2.1564  0.2103
  901MOL0     H18879   0.833   4.092   9.278 -0.4694  0.1034  0.6110
  901MOL0     H18880   0.847   4.171   9.123 -0.1340  0.0623  0.1156
  901MOL0     H18881   0.778   4.322   9.385 -3.9175 -0.3495  1.5215
  901MOL0     H18882   0.775   4.379   9.214  0.9849 -1.3052 -1.8204
  901MOL0     H18883   0.546   4.326   9.327 -1.2144  0.5670 -1.7819
  901MOL0     H18884   0.621   4.163   9.347  0.4829  0.7275  0.7071
  901MOL0     H18885   0.566   4.436   9.058 -0.6610  0.3258  0.0353
  901MOL0     H18886   0.534   4.223   8.716  1.1047  0.3757 -0.7433
  901MOL0     H18887   0.609   4.381   8.761  0.5837  0.3768  2.7975
  901MOL0     H18888   0.392   4.454   8.698 -0.5253 -0.4472 -0.5281
  901MOL0     H18889   0.340   4.406   8.863 -1.7449 -0.0762 -0.7184
  901MOL0     H18890   0.338   4.214   8.632 -2.4442  0.8221 -1.6325
  901MOL0     H18891   0.276   4.197   8.811  0.9141 -0.9963 -0.5558
  901MOL0     H18892   0.175   4.385   8.589 -3.9733  1.7137  0.4442
  901MOL0     H18893   0.125   4.392   8.757 -0.6654  0.4804 -0.1995
  901MOL0     H18894  -0.074   4.047   8.584 -1.8769 -0.0831  1.0101
  901MOL0     H18895  -0.293   4.066   8.464  0.2168 -0.5915  2.4283
  901MOL0     H18896  -0.650   4.555   8.400 -1.1991  0.0805 -0.0178
  901MOL0     H18897  -0.879   4.550   8.296 -2.2183  0.8773 -2.9186
  901MOL0     H18898  -1.042   4.576   8.085  4.1867 -0.4985  1.1966
  901MOL0     H18899  -1.052   4.479   8.233 -0.8356 -3.3595  1.4933
  901MOL0     H18900  -1.189   4.300   8.122  0.5961  0.4096  0.1127
  901MOL0     H18901  -1.164   4.379   7.967 -0.9307 -0.5066 -0.4308
  901MOL0     H18902  -1.380   4.461   8.045  0.3356  0.3753 -0.3799
  901MOL0     H18903  -1.272   4.601   8.076 -1.1810  1.4947  2.4963
  901MOL0     H18904  -1.331   4.374   8.285 -1.3068 -0.0152 -0.7566
  901MOL0     H18905  -1.266   4.533   8.315  0.8557  0.3577 -0.3669
  901MOL0     H18906  -1.531   4.513   8.355 -1.1272 -2.1592 -1.0154
  901MOL0     H18907  -1.542   4.509   8.180  2.6309  1.2401 -2.4898
  901MOL0     H18908  -1.430   4.723   8.162 -0.4292 -3.9624 -1.2994
  901MOL0     H18909  -1.396   4.727   8.333  1.8657 -1.4900 -0.5510
  901MOL0     H18910  -1.671   4.738   8.203  3.0239  0.0972 -1.7834
  901MOL0     H18911  -1.643   4.719   8.381 -0.7856 -0.2634 -0.1650
  901MOL0     H18912  -1.546   4.939   8.199 -1.2186 -1.7008 -1.3981
  901MOL0     H18913  -1.520   4.946   8.372 -1.0591  0.6030  0.5817
  901MOL0     H18914  -0.742   4.275   8.001  0.2778 -2.2819  1.6862
  901MOL0     H18915  -0.517   4.269   8.106 -0.0834 -0.0653 -0.7470
  901MOL0     H18916  -0.238   4.479   8.439 -3.2698 -1.3709  0.4844
  901MOL0     H18917  -0.031   4.477   8.563  2.0435 -0.6507 -0.2087
  901MOL0     H18918   1.678   3.994   8.919  1.2316  1.1825 -0.8355
  901MOL0     H18919   1.927   4.054   8.885  1.2499 -0.6188  0.5700
  901MOL0     H18920   2.396   3.847   8.959 -0.5238  1.7395 -0.6984
  901MOL0     H18921   2.627   3.895   8.999 -1.4346  0.1952 -0.6677
  901MOL0     H18922   2.748   4.232   9.257  2.0473  0.9696  0.0138
  901MOL0     H18923   2.779   4.273   9.090 -3.4724 -0.3095 -0.6969
  901MOL0     H18924   2.987   4.273   9.206 -1.6792  0.8333  0.9459
  901MOL0     H18925   2.942   4.111   9.272 -2.0187 -0.3265  0.3086
  901MOL0     H18926   2.986   4.010   9.045 -0.7408  1.4772 -1.6004
  901MOL0     H18927   3.123   4.094   9.112  0.2485 -0.1176  0.4244
  901MOL0     H18928   2.923   4.209   8.913  0.0533 -1.9161  0.6498
  901MOL0     H18929   3.075   4.289   8.987  1.4928  0.7059 -0.5487
  901MOL0     H18930   3.193   3.994   8.684 -1.2208  0.1637 -0.6436
  901MOL0     H18931   2.544   4.207   9.280 -2.8987  1.4688  0.5519
  901MOL0     H18932   2.309   4.180   9.226 -0.4425  0.1757  0.0729
  902MOL0     O18933   5.514   6.359   8.284 -0.7916 -0.7929  0.1504
  902MOL0     C18934   5.559   6.471   8.331  1.2036  0.4049  0.2692
  902MOL0     O18935   5.499   6.551   8.429  0.3231  0.3505 -0.5918
  902MOL0     C18936   5.385   6.499   8.488 -0.4953 -0.0303 -1.5385
  902MOL0     C18937   5.265   6.563   8.466 -0.6270 -0.2882 -0.0417
  902MOL0     C18938   5.155   6.520   8.539  0.2524 -0.3787 -0.2377
  902MOL0     C18939   5.158   6.415   8.634 -0.1257 -0.2252  0.6869
  902MOL0     O18940   5.046   6.366   8.695 -0.0624  0.0060 -0.1334
  902MOL0     C18941   4.928   6.447   8.709 -0.1517 -0.6093 -0.1460
  902MOL0     C18942   4.834   6.416   8.593 -0.2349 -0.3007 -0.5530
  902MOL0     C18943   4.803   6.264   8.581 -0.5501  0.3772  0.2801
  902MOL0     C18944   4.669   6.226   8.513 -0.0845 -0.4468  0.4443
  902MOL0     C18945   4.538   6.262   8.584 -0.1755  0.0024 -1.1064
  902MOL0     C18946   4.530   6.198   8.727 -0.1898 -0.6059  0.0700
  902MOL0     C18947   4.537   6.051   8.729 -1.0210  0.5438 -0.1938
  902MOL0     C18948   4.421   5.969   8.664  0.2926  0.3544 -1.2766
  902MOL0     N18949   4.294   6.021   8.712 -0.5255  0.1996 -0.4513
  902MOL0     C18950   4.203   5.970   8.799 -1.3684 -0.5204 -1.0879
  902MOL0     C18951   4.098   6.061   8.804  0.0804 -0.1582 -0.5141
  902MOL0     C18952   3.987   6.055   8.905  1.1091  0.1691  0.1687
  902MOL0     C18953   3.867   5.987   8.839 -0.0508  0.3814  0.1998
  902MOL0     C18954   3.751   6.037   8.923 -1.1762 -0.1481  0.3392
  902MOL0     C18955   3.631   5.960   8.879  1.2217  0.3758 -0.4241
  902MOL0     O18956   3.521   6.016   8.955 -0.0600 -0.5059  0.2651
  902MOL0     C18957   3.396   5.964   8.918  0.1948 -0.4351  0.7450
  902MOL0     C18958   3.381   5.846   8.844  0.3921 -0.3850  0.4335
  902MOL0     C18959   3.250   5.803   8.806 -0.0072  0.3534  0.0057
  902MOL0     C18960   3.138   5.886   8.833  0.2616 -1.1762  0.2727
  902MOL0     C18961   3.005   5.856   8.788  0.4151  0.1964  0.4292
  902MOL0     O18962   2.993   5.731   8.739  0.7948  0.3620 -0.4223
  902MOL0     C18963   2.869   5.678   8.742 -0.0832  0.0671 -0.0417
  902MOL0     C18964   2.760   5.702   8.831 -0.3077 -0.2011  0.1692
  902MOL0     C18965   2.635   5.636   8.818  0.1410  1.0471  0.0692
  902MOL0     C18966   2.618   5.540   8.716 -0.5096  1.1042  0.0944
  902MOL0     O18967   2.509   5.468   8.689 -0.0297  0.4267 -0.4804
  902MOL0     C18968   2.392   5.464   8.777  0.0686 -0.8604 -0.8047
  902MOL0     C18969   2.283   5.379   8.717 -0.1751 -0.5872  0.7836
  902MOL0     C18970   2.319   5.233   8.693 -0.5887 -0.5028 -0.8497
  902MOL0     C18971   2.229   5.134   8.619 -1.1072 -0.1953  0.5858
  902MOL0     C18972   2.086   5.131   8.669  0.3428 -0.4414 -0.8889
  902MOL0     C18973   2.009   5.009   8.624  0.4538 -0.2786 -0.4984
  902MOL0     C18974   1.870   5.016   8.691 -0.5777 -0.1908  0.2496
  902MOL0     C18975   1.802   4.871   8.671  0.1778 -0.6205 -0.0328
  902MOL0    Cl18976   1.715   4.866   8.534  0.2470  0.0360  0.2914
  902MOL0     C18977   2.739   5.505   8.638  0.7816  0.1491 -0.3872
  902MOL0     C18978   2.861   5.575   8.650  0.4410 -0.3249 -0.0822
  902MOL0     O18979   2.917   5.943   8.796 -0.6519  0.7309  0.3956
  902MOL0     C18980   3.159   6.006   8.907  0.3120  0.6347  0.7217
  902MOL0     C18981   3.285   6.048   8.944  0.8773  0.3697  0.5405
  902MOL0     N18982   4.132   6.165   8.720  0.0564  0.1434 -0.3218
  902MOL0     N18983   4.242   6.136   8.663 -0.5721 -0.0659 -0.0655
  902MOL0     C18984   5.275   6.352   8.648 -0.0738 -0.0763 -0.1372
  902MOL0     C18985   5.392   6.394   8.580  0.6918  0.0382 -0.4106
  902MOL0     C18986   5.690   6.514   8.285 -0.7868  0.4036 -0.4919
  902MOL0     C18987   5.759   6.440   8.183  0.2648 -0.6094  0.2781
  902MOL0     C18988   5.881   6.490   8.134 -0.8178  0.2758 -0.1121
  902MOL0     C18989   5.948   6.590   8.200 -0.2951 -0.4004 -0.1554
  902MOL0     O18990   6.066   6.630   8.155  0.5377 -0.8621  0.4664
  902MOL0     C18991   6.168   6.650   8.254 -0.6332  0.1350 -0.3958
  902MOL0     C18992   6.290   6.711   8.188 -0.0804 -0.0083 -0.1685
  902MOL0     C18993   6.260   6.861   8.139  0.4973 -0.6218  0.9057
  902MOL0     C18994   6.376   6.921   8.056  0.4516 -0.3898  0.5168
  902MOL0     C18995   6.499   6.912   8.141  0.1301 -0.7608 -0.0512
  902MOL0     C18996   6.604   6.893   8.202  1.2039  0.8321  0.5792
  902MOL0     C18997   5.881   6.657   8.310 -1.3143 -0.8893 -0.0810
  902MOL0     C18998   5.756   6.623   8.354 -0.4250  0.0340  0.5646
  902MOL0     H18999   5.250   6.654   8.411 -1.1530  2.0955  3.6672
  902MOL0     H19000   5.073   6.582   8.505  1.5451  1.9213  0.6079
  902MOL0     H19001   4.957   6.552   8.722  0.3119 -0.6294 -0.9388
  902MOL0     H19002   4.877   6.427   8.804  0.6427  1.7782  0.8546
  902MOL0     H19003   4.862   6.467   8.501 -3.3428  0.9698 -0.9043
  902MOL0     H19004   4.740   6.461   8.627 -1.7114 -2.9640 -0.8519
  902MOL0     H19005   4.815   6.215   8.678  0.8991 -1.8763 -0.9570
  902MOL0     H19006   4.885   6.227   8.519  0.9943  1.3946  1.6528
  902MOL0     H19007   4.659   6.290   8.425 -0.4160  1.6204  1.8845
  902MOL0     H19008   4.666   6.122   8.480 -1.3308  0.2676 -1.9219
  902MOL0     H19009   4.460   6.224   8.517 -2.6373  0.8851  1.0631
  902MOL0     H19010   4.527   6.371   8.592 -0.8740 -0.1786  3.3739
  902MOL0     H19011   4.438   6.229   8.778 -1.3498 -1.3858 -1.4678
  902MOL0     H19012   4.619   6.237   8.778  1.3849 -2.6348 -1.0121
  902MOL0     H19013   4.633   6.025   8.684 -1.8937  1.3414 -2.6784
  902MOL0     H19014   4.536   6.009   8.830  0.8522  1.5066  0.2738
  902MOL0     H19015   4.441   5.865   8.691  4.0266  0.6980 -2.1735
  902MOL0     H19016   4.434   5.974   8.555 -0.1125  1.3307 -1.2857
  902MOL0     H19017   4.209   5.877   8.853  1.0710 -2.3225 -4.1137
  902MOL0     H19018   3.969   6.151   8.953 -2.9733 -0.3838  0.0858
  902MOL0     H19019   4.018   5.988   8.986 -0.8149 -1.2769 -0.2089
  902MOL0     H19020   3.869   5.878   8.833 -2.1906  0.4149 -3.1776
  902MOL0     H19021   3.847   6.027   8.739 -0.4125  0.5672  0.3444
  902MOL0     H19022   3.771   6.027   9.030  2.0316 -2.1208 -0.3235
  902MOL0     H19023   3.760   6.142   8.893  0.3990 -0.9429 -2.3598
  902MOL0     H19024   3.638   5.858   8.915  1.0223  1.3971  2.8293
  902MOL0     H19025   3.609   5.975   8.773 -0.2042  3.0251  0.1323
  902MOL0     H19026   3.465   5.786   8.813 -0.7936 -0.4267 -3.1576
  902MOL0     H19027   3.232   5.711   8.751 -1.2192 -0.8941  2.3298
  902MOL0     H19028   2.780   5.773   8.910  0.8804 -0.1336 -0.1753
  902MOL0     H19029   2.552   5.675   8.876  0.8883  4.9697 -1.2114
  902MOL0     H19030   2.345   5.563   8.777  1.8770  0.1053  1.6882
  902MOL0     H19031   2.425   5.428   8.875 -1.1572 -2.3260 -0.9010
  902MOL0     H19032   2.266   5.424   8.619 -0.2305 -2.7051 -0.2112
  902MOL0     H19033   2.193   5.382   8.779  0.0656  0.9062  1.1011
  902MOL0     H19034   2.346   5.194   8.791  0.8339  0.8796 -0.6632
  902MOL0     H19035   2.413   5.229   8.637  1.1470  2.2778  1.6133
  902MOL0     H19036   2.224   5.158   8.512 -0.9160 -0.4089  0.5287
  902MOL0     H19037   2.276   5.035   8.627 -1.8438 -0.5445  0.7102
  902MOL0     H19038   2.027   5.220   8.644 -1.8677 -1.0906  1.5404
  902MOL0     H19039   2.092   5.117   8.777  2.2736 -2.3618 -1.1858
  902MOL0     H19040   2.054   4.911   8.644  0.5306 -0.2204 -0.3883
  902MOL0     H19041   1.986   5.018   8.518 -2.5151 -3.0964 -0.2659
  902MOL0     H19042   1.881   5.034   8.798  1.1381  2.9698 -0.3312
  902MOL0     H19043   1.800   5.091   8.653 -1.8177 -0.1301  2.4903
  902MOL0     H19044   1.739   4.864   8.761  2.4868 -0.8026  1.6704
  902MOL0     H19045   1.862   4.780   8.679 -0.0735 -0.8106 -0.3237
  902MOL0     H19046   2.732   5.426   8.563  0.2943 -1.4037  1.2192
  902MOL0     H19047   2.945   5.549   8.587  0.5264 -0.1576 -0.0363
  902MOL0     H19048   3.075   6.075   8.920  1.0487  2.3089 -2.3684
  902MOL0     H19049   3.304   6.144   8.990 -0.3892  0.1853  1.4803
  902MOL0     H19050   5.286   6.269   8.717 -0.5958  0.9877  1.2754
  902MOL0     H19051   5.487   6.344   8.596  0.2020 -1.3471 -1.6741
  902MOL0     H19052   5.709   6.355   8.139  0.5964 -1.0488  0.7359
  902MOL0     H19053   5.933   6.448   8.048 -1.5385  3.3085 -2.1858
  902MOL0     H19054   6.202   6.555   8.295 -0.6958  0.5028  0.5128
  902MOL0     H19055   6.136   6.714   8.336  2.1228 -1.2032  1.9154
  902MOL0     H19056   6.374   6.713   8.258 -1.5564  2.0246  1.7018
  902MOL0     H19057   6.325   6.641   8.111  1.7850  1.6829 -0.9465
  902MOL0     H19058   6.241   6.930   8.222 -0.5042 -2.5263  2.3468
  902MOL0     H19059   6.174   6.872   8.073 -0.0721 -1.3390  1.5053
  902MOL0     H19060   6.391   6.855   7.970  0.2919  3.2248 -2.5440
  902MOL0     H19061   6.350   7.020   8.017 -2.5185 -1.2102  0.1206
  902MOL0     H19062   6.678   6.872   8.276  0.8984 -0.7403  0.4844
  902MOL0     H19063   5.941   6.731   8.362 -1.8265 -0.6467  0.1724
  902MOL0     H19064   5.712   6.672   8.440  2.5461  1.7629  1.2102
  903MOL0     O19065   6.402   0.214  10.948  0.3326  0.2609 -0.2661
  903MOL0     C19066   6.456   0.287  11.030  0.3651  0.0131  0.7509
  903MOL0     O19067   6.399   0.398  11.097  0.2282 -0.1920  0.5650
  903MOL0     C19068   6.258   0.425  11.106 -0.3256  0.9209 -0.2676
  903MOL0     C19069   6.154   0.348  11.048  0.0465  0.1780  0.7914
  903MOL0     C19070   6.021   0.381  11.050 -0.5143 -0.0501  0.7038
  903MOL0     C19071   5.974   0.486  11.128 -0.5953  0.2723  0.3951
  903MOL0     O19072   5.840   0.505  11.138  0.2274  0.0476 -0.3278
  903MOL0     C19073   5.789   0.601  11.231  0.1210 -0.9013  0.8743
  903MOL0     C19074   5.640   0.624  11.204  0.4751  0.0250 -0.0325
  903MOL0     C19075   5.611   0.702  11.075 -0.2099 -0.1179  0.8018
  903MOL0     C19076   5.465   0.713  11.034 -0.4015  0.2317 -0.0455
  903MOL0     C19077   5.444   0.707  10.878 -0.0182 -0.8461 -0.5956
  903MOL0     C19078   5.436   0.851  10.824 -0.0327 -0.3572 -0.8552
  903MOL0     C19079   5.445   0.849  10.663  0.4818  0.5092 -0.1010
  903MOL0     C19080   5.352   0.745  10.587  1.0545 -0.1610 -0.2427
  903MOL0     N19081   5.210   0.801  10.589 -0.0169 -0.2039  0.4368
  903MOL0     C19082   5.162   0.883  10.486  0.5235 -0.1019 -0.2188
  903MOL0     C19083   5.029   0.889  10.518  0.6527 -0.7169  0.0377
  903MOL0     C19084   4.926   0.961  10.442  0.6110  0.4706  0.7939
  903MOL0     C19085   4.804   0.868  10.421 -0.3666 -0.0912 -0.0930
  903MOL0     C19086   4.697   0.943  10.353 -0.5024  0.2145 -0.2262
  903MOL0     C19087   4.569   0.852  10.361  0.0372 -0.4200  1.0807
  903MOL0     O19088   4.469   0.908  10.279 -0.8479 -0.0667 -0.0818
  903MOL0     C19089   4.344   0.888  10.310  0.8690  1.0503  0.1709
  903MOL0     C19090   4.260   0.971  10.232 -0.2420  0.1109  0.1025
  903MOL0     C19091   4.121   0.967  10.246 -0.9923 -0.3243 -0.3011
  903MOL0     C19092   4.065   0.878  10.346  0.3086  0.2047  0.4882
  903MOL0     C19093   3.916   0.872  10.356 -0.0452  0.0343 -0.7990
  903MOL0     O19094   3.850   0.988  10.312 -0.4678  0.3867 -0.1841
  903MOL0     C19095   3.716   0.991  10.289  0.4248  0.2332 -0.7169
  903MOL0     C19096   3.631   0.885  10.273  0.2246  0.1318  0.3111
  903MOL0     C19097   3.491   0.910  10.261 -0.8298  0.6474 -0.3020
  903MOL0     C19098   3.440   1.035  10.298  0.1474 -0.1744 -0.2819
  903MOL0     O19099   3.307   1.053  10.314 -0.2777  0.0633 -0.0685
  903MOL0     C19100   3.260   1.169  10.387  0.2227 -0.1495 -0.3673
  903MOL0     C19101   3.117   1.132  10.439  0.5937 -0.5808 -0.5661
  903MOL0     C19102   3.029   1.246  10.496 -0.4795  0.1842 -0.1280
  903MOL0     C19103   3.067   1.308  10.627  0.9916  0.0539  0.4829
  903MOL0     C19104   3.093   1.202  10.737 -0.6886 -0.2085  0.5756
  903MOL0     C19105   2.976   1.110  10.761  0.6589  0.8065  0.0146
  903MOL0     C19106   3.003   1.023  10.877 -0.6886  0.2915  0.1695
  903MOL0     C19107   2.917   0.901  10.911 -0.3878 -0.4715  0.2412
  903MOL0    Cl19108   2.926   0.749  10.807 -0.1310 -0.0157 -0.2700
  903MOL0     C19109   3.528   1.137  10.323  0.0487  0.3345  0.2533
  903MOL0     C19110   3.665   1.114  10.314  0.0188 -0.4975 -0.1358
  903MOL0     O19111   3.858   0.777  10.411  0.2118 -0.2348 -0.0926
  903MOL0     C19112   4.150   0.793  10.418 -0.0618 -0.6569  0.3622
  903MOL0     C19113   4.291   0.799  10.410  0.0627  1.1067  0.2854
  903MOL0     N19114   5.004   0.831  10.646  0.5124  0.2156 -0.1778
  903MOL0     N19115   5.107   0.769  10.684 -0.3496  0.3978  0.8047
  903MOL0     C19116   6.076   0.573  11.193  0.3352  0.1654  0.0793
  903MOL0     C19117   6.216   0.548  11.178  0.6345  0.6428  0.6987
  903MOL0     C19118   6.605   0.274  11.046 -0.0278  0.5635  0.2444
  903MOL0     C19119   6.676   0.190  10.955 -0.6533  0.1368 -0.4457
  903MOL0     C19120   6.817   0.177  10.976 -0.1334  0.1546  0.6319
  903MOL0     C19121   6.885   0.260  11.074 -0.6084  0.3922 -0.1181
  903MOL0     O19122   7.020   0.259  11.091  0.5194 -0.3209 -0.8046
  903MOL0     C19123   7.107   0.179  11.012  0.3267  0.7442  0.7857
  903MOL0     C19124   7.241   0.171  11.086  0.4604  0.1942 -0.6766
  903MOL0     C19125   7.325   0.303  11.070 -0.9382 -0.9687  0.5876
  903MOL0     C19126   7.469   0.281  11.115  0.1465  0.6526  0.0953
  903MOL0     C19127   7.529   0.201  11.002  0.0941  0.0914 -1.4933
  903MOL0     C19128   7.565   0.107  10.936 -0.2287 -0.2557 -0.1259
  903MOL0     C19129   6.814   0.342  11.152 -0.0840  0.1628 -0.1471
  903MOL0     C19130   6.676   0.344  11.140  0.8464 -0.6607 -0.3684
  903MOL0     H19131   6.180   0.258  10.994 -1.0442 -0.6193  1.5336
  903MOL0     H19132   5.951   0.324  10.990 -0.4669  1.6664 -1.1201
  903MOL0     H19133   5.837   0.700  11.231  0.8732 -1.2001 -1.3879
  903MOL0     H19134   5.798   0.557  11.330  2.2956 -1.3363  0.5480
  903MOL0     H19135   5.601   0.679  11.290  0.4794  0.6209 -0.4028
  903MOL0     H19136   5.589   0.528  11.197  1.3528 -0.3534 -1.8206
  903MOL0     H19137   5.686   0.666  11.005 -1.0304 -0.5788  0.1501
  903MOL0     H19138   5.633   0.807  11.096 -4.4116  1.3865 -1.2626
  903MOL0     H19139   5.419   0.624  11.079 -0.1861  0.6754  1.0948
  903MOL0     H19140   5.421   0.802  11.079 -0.5429  0.5729 -0.8415
  903MOL0     H19141   5.349   0.661  10.848 -0.6207 -1.6558  2.2927
  903MOL0     H19142   5.520   0.646  10.828  1.8764  0.6624  0.3189
  903MOL0     H19143   5.519   0.912  10.862 -0.8510 -0.4189  1.1234
  903MOL0     H19144   5.343   0.902  10.848  0.0968 -0.4024 -0.2572
  903MOL0     H19145   5.428   0.947  10.617 -0.9019  0.3757  0.0606
  903MOL0     H19146   5.548   0.817  10.646  0.0735  0.2159 -2.3107
  903MOL0     H19147   5.353   0.648  10.638 -2.6711  0.4308  1.2854
  903MOL0     H19148   5.390   0.744  10.485  2.7085  0.3541  0.3312
  903MOL0     H19149   5.201   0.928  10.396 -5.0730 -1.0237 -3.5771
  903MOL0     H19150   4.964   0.991  10.344  0.7585  2.6040  1.4623
  903MOL0     H19151   4.898   1.053  10.493  0.1175  0.5064  0.4682
  903MOL0     H19152   4.771   0.830  10.518  0.1267  0.6530  0.3727
  903MOL0     H19153   4.835   0.781  10.362 -0.5758 -0.9517  1.0340
  903MOL0     H19154   4.678   1.038  10.403 -1.1544 -0.8438  1.6881
  903MOL0     H19155   4.735   0.972  10.255 -0.7222  2.4397  0.2940
  903MOL0     H19156   4.538   0.829  10.463  1.0639 -2.4698  0.9906
  903MOL0     H19157   4.601   0.757  10.317 -0.9163 -0.1166 -0.3538
  903MOL0     H19158   4.301   1.043  10.163  0.1252  1.8242  2.0363
  903MOL0     H19159   4.060   1.037  10.190  0.4487  1.7787  0.6110
  903MOL0     H19160   3.671   0.787  10.251  1.6775  0.6141  0.6980
  903MOL0     H19161   3.423   0.832  10.230 -1.4202  1.9570 -2.5887
  903MOL0     H19162   3.259   1.254  10.318 -3.1303 -0.8610 -1.3720
  903MOL0     H19163   3.315   1.195  10.479 -2.0212 -1.4599  1.4326
  903MOL0     H19164   3.127   1.052  10.513 -1.0885 -1.5583 -1.3543
  903MOL0     H19165   3.059   1.087  10.358  3.0995 -2.1238 -1.6317
  903MOL0     H19166   2.932   1.197  10.507  0.8903 -2.1546  3.4437
  903MOL0     H19167   3.040   1.326  10.422  0.6467  1.0160  0.8935
  903MOL0     H19168   3.148   1.378  10.604 -1.1033  2.0267 -1.3864
  903MOL0     H19169   2.981   1.367  10.657 -0.5809 -0.5681 -2.4374
  903MOL0     H19170   3.119   1.258  10.827  1.2302  1.6367 -1.0120
  903MOL0     H19171   3.186   1.152  10.708 -0.6390  1.1824 -1.9202
  903MOL0     H19172   2.960   1.034  10.684  1.3311 -2.0357  2.4626
  903MOL0     H19173   2.887   1.172  10.774  0.5379  0.4424  1.0699
  903MOL0     H19174   3.103   0.982  10.859 -0.7602  0.5622 -0.9465
  903MOL0     H19175   3.013   1.082  10.969  3.2407 -3.0090  2.1705
  903MOL0     H19176   2.813   0.936  10.908  0.2421  1.8716  2.5950
  903MOL0     H19177   2.933   0.869  11.014  0.3692 -2.2756 -0.3878
  903MOL0     H19178   3.488   1.236  10.345  0.5226  0.9565 -1.4916
  903MOL0     H19179   3.739   1.193  10.326  0.9147 -1.5414  1.8300
  903MOL0     H19180   4.109   0.709  10.473 -0.1977 -1.2435 -0.6108
  903MOL0     H19181   4.351   0.733  10.471  1.2603  2.7654  0.9667
  903MOL0     H19182   6.041   0.655  11.255 -1.7200 -0.7457  0.1807
  903MOL0     H19183   6.301   0.607  11.210 -0.0399  1.5060  0.9575
  903MOL0     H19184   6.626   0.137  10.875  0.2867  1.0770 -1.6849
  903MOL0     H19185   6.876   0.125  10.902 -2.6394 -1.4844 -0.3425
  903MOL0     H19186   7.125   0.216  10.911  0.5116 -1.4975 -0.0571
  903MOL0     H19187   7.063   0.079  11.008 -2.0892  1.7648 -0.1198
  903MOL0     H19188   7.211   0.158  11.190  2.8817 -2.6958 -0.2239
  903MOL0     H19189   7.299   0.086  11.048 -1.2232 -1.0445 -0.6117
  903MOL0     H19190   7.280   0.384  11.128  0.8828 -0.6180  1.5605
  903MOL0     H19191   7.318   0.332  10.964  0.3862 -1.6719  0.2876
  903MOL0     H19192   7.520   0.377  11.130  0.0410  1.2550 -2.7496
  903MOL0     H19193   7.476   0.227  11.210 -0.3124 -1.9082 -1.2409
  903MOL0     H19194   7.583   0.025  10.870  0.8018  2.3651 -3.3879
  903MOL0     H19195   6.873   0.398  11.224  1.1088  1.7853 -2.2304
  903MOL0     H19196   6.620   0.403  11.213  2.7859  1.7018 -0.6538
  904MOL0     O19197   9.086   6.027   3.366 -0.2680 -0.0774  0.1502
  904MOL0     C19198   9.080   5.999   3.487 -0.3568  0.5037  0.0837
  904MOL0     O19199   8.973   5.953   3.549  0.5973 -0.2409  0.2943
  904MOL0     C19200   8.858   5.931   3.479  0.1035 -0.0869 -0.3707
  904MOL0     C19201   8.804   5.801   3.480 -1.1064  0.5268  0.0741
  904MOL0     C19202   8.691   5.761   3.411 -0.0281  0.0600 -0.9736
  904MOL0     C19203   8.626   5.857   3.331 -0.1131  0.0049  0.2215
  904MOL0     O19204   8.504   5.833   3.274  0.2666  0.0249  0.0435
  904MOL0     C19205   8.432   5.712   3.298 -0.2128 -0.4334 -0.5446
  904MOL0     C19206   8.304   5.707   3.221  0.5508  0.5446  0.2462
  904MOL0     C19207   8.250   5.562   3.211 -0.6335  1.3310  0.1115
  904MOL0     C19208   8.129   5.547   3.115  1.0099  0.2701 -0.1197
  904MOL0     C19209   8.131   5.627   2.989 -0.4274  0.3000  0.5197
  904MOL0     C19210   8.048   5.561   2.882 -0.0038  0.9290 -0.3806
  904MOL0     C19211   8.031   5.641   2.752  0.5562 -0.3105 -0.1665
  904MOL0     C19212   7.921   5.756   2.766 -0.8830  0.0867  0.0604
  904MOL0     N19213   7.783   5.726   2.756  0.1671  0.2820 -0.3837
  904MOL0     C19214   7.717   5.693   2.633 -0.4737  0.4185 -0.1941
  904MOL0     C19215   7.606   5.633   2.684 -1.0994 -0.0105  1.0372
  904MOL0     C19216   7.496   5.572   2.600 -0.5064  0.9203  0.0159
  904MOL0     C19217   7.357   5.635   2.621  0.2208 -0.2176 -0.1461
  904MOL0     C19218   7.269   5.600   2.497  0.4480 -0.1513  0.6525
  904MOL0     C19219   7.119   5.620   2.525  0.2732  0.3966  0.5884
  904MOL0     O19220   7.035   5.581   2.416  0.1006 -0.1117 -0.0369
  904MOL0     C19221   6.899   5.591   2.411  0.9346 -0.4940 -0.2844
  904MOL0     C19222   6.824   5.513   2.321  0.7414  0.2601  0.2055
  904MOL0     C19223   6.686   5.507   2.331 -0.9657 -0.0726  0.2309
  904MOL0     C19224   6.621   5.592   2.419  0.5747  0.7431 -0.0320
  904MOL0     C19225   6.478   5.579   2.434 -0.5137 -0.6840 -0.6543
  904MOL0     O19226   6.412   5.474   2.375  0.0565 -0.0727 -0.2330
  904MOL0     C19227   6.273   5.462   2.396  0.3609  0.7518 -0.7375
  904MOL0     C19228   6.187   5.565   2.359  0.3678 -0.0097 -0.7745
  904MOL0     C19229   6.046   5.544   2.360 -0.3251 -0.1132 -0.2009
  904MOL0     C19230   6.001   5.426   2.423 -1.1850  0.4523 -0.3521
  904MOL0     O19231   5.869   5.410   2.456 -0.1226 -1.0882  0.5856
  904MOL0     C19232   5.770   5.447   2.361 -0.3978 -0.6968  0.2793
  904MOL0     C19233   5.630   5.422   2.422  0.4041  0.9708 -0.5257
  904MOL0     C19234   5.527   5.420   2.307 -0.0270  0.3446  0.7155
  904MOL0     C19235   5.385   5.406   2.372 -0.8106  0.1234 -0.5861
  904MOL0     C19236   5.279   5.401   2.260 -0.8560  0.1949 -0.2145
  904MOL0     C19237   5.263   5.530   2.186 -1.1757 -0.0642  0.9133
  904MOL0     C19238   5.169   5.627   2.262 -0.2097  0.4900  0.2712
  904MOL0     C19239   5.099   5.704   2.160 -0.0718 -0.4173  0.8043
  904MOL0    Cl19240   4.968   5.814   2.219 -0.1316  0.0407  0.0094
  904MOL0     C19241   6.093   5.330   2.474 -0.5358 -0.1188 -0.2172
  904MOL0     C19242   6.229   5.345   2.456  0.2073 -0.2891  0.0943
  904MOL0     O19243   6.424   5.672   2.498  0.6952  0.1742 -0.3162
  904MOL0     C19244   6.693   5.675   2.505 -0.0638  0.0093 -0.4245
  904MOL0     C19245   6.834   5.675   2.505  0.3802  0.7104  0.0620
  904MOL0     N19246   7.604   5.640   2.822 -0.7656 -0.0770  0.3294
  904MOL0     N19247   7.699   5.706   2.866  0.5071  0.4305  0.0953
  904MOL0     C19248   8.677   5.988   3.327  0.2561 -0.0330 -0.4176
  904MOL0     C19249   8.792   6.025   3.400 -1.3011  0.0435 -0.7531
  904MOL0     C19250   9.198   6.020   3.573  0.0940 -0.0546  0.0276
  904MOL0     C19251   9.314   6.060   3.516  0.0986  0.0229  0.6894
  904MOL0     C19252   9.428   6.089   3.593  0.2620 -0.4835  0.0791
  904MOL0     C19253   9.416   6.087   3.736 -0.2479 -0.4095  0.2419
  904MOL0     O19254   9.516   6.111   3.821  1.2070 -0.1099 -0.4788
  904MOL0     C19255   9.635   6.191   3.777  0.1660 -0.1734  0.2243
  904MOL0     C19256   9.712   6.268   3.885 -0.3196  0.5374 -0.1788
  904MOL0     C19257   9.622   6.349   3.976  0.4727 -0.0586  0.5921
  904MOL0     C19258   9.663   6.494   3.964  0.5194 -0.8215 -0.3487
  904MOL0     C19259   9.544   6.578   3.998  0.5768 -0.0017  0.1660
  904MOL0     C19260   9.454   6.656   4.025  0.0771  0.4664  0.1067
  904MOL0     C19261   9.291   6.046   3.794 -0.2831  0.2167  0.0467
  904MOL0     C19262   9.189   6.006   3.708 -0.4998  0.3184  0.4462
  904MOL0     H19263   8.858   5.737   3.549 -1.1930  0.5340  0.1478
  904MOL0     H19264   8.653   5.659   3.417 -0.9416  0.4048 -0.6417
  904MOL0     H19265   8.408   5.709   3.405  1.7080 -0.5188 -0.0811
  904MOL0     H19266   8.490   5.624   3.269 -0.0357 -0.3890 -0.3322
  904MOL0     H19267   8.316   5.745   3.119 -1.5421 -2.6263 -1.3511
  904MOL0     H19268   8.222   5.764   3.267  0.5382 -0.3658  1.4123
  904MOL0     H19269   8.227   5.516   3.307 -0.1054  1.9581  0.5455
  904MOL0     H19270   8.331   5.501   3.170 -1.7142 -0.4219  0.4854
  904MOL0     H19271   8.130   5.441   3.088  1.0845 -0.3553  2.1296
  904MOL0     H19272   8.039   5.566   3.174  1.6123  1.7874  0.3567
  904MOL0     H19273   8.233   5.643   2.956 -0.6377 -0.7457 -0.7328
  904MOL0     H19274   8.087   5.725   3.006 -0.3838  0.8460 -2.1057
  904MOL0     H19275   7.952   5.524   2.918  1.8690 -3.1435  0.9950
  904MOL0     H19276   8.099   5.466   2.866 -0.6658  0.8232 -2.1039
  904MOL0     H19277   8.131   5.677   2.723  0.8076 -0.7779  0.1224
  904MOL0     H19278   8.011   5.576   2.666 -3.5738 -1.6811  1.5808
  904MOL0     H19279   7.942   5.830   2.689  0.0409 -0.3414 -0.1186
  904MOL0     H19280   7.936   5.805   2.862 -1.3043 -0.1508  0.2490
  904MOL0     H19281   7.760   5.705   2.534 -1.7358 -1.8753 -1.0926
  904MOL0     H19282   7.497   5.467   2.633 -0.2996 -0.5536 -4.1419
  904MOL0     H19283   7.524   5.585   2.495 -0.4619 -2.1594 -0.4466
  904MOL0     H19284   7.365   5.743   2.634  1.2275 -0.4912  1.9655
  904MOL0     H19285   7.312   5.589   2.709 -2.0381 -1.0453 -1.6387
  904MOL0     H19286   7.299   5.662   2.412 -0.5626 -1.6276 -0.8374
  904MOL0     H19287   7.290   5.497   2.468  3.6319  0.7319 -0.6441
  904MOL0     H19288   7.102   5.725   2.548 -1.4613  0.2090  0.2706
  904MOL0     H19289   7.086   5.563   2.612  1.4240  1.6420  1.8963
  904MOL0     H19290   6.885   5.445   2.264  0.8758  3.4064 -3.8790
  904MOL0     H19291   6.629   5.443   2.264  0.5651 -2.3670  0.9830
  904MOL0     H19292   6.232   5.659   2.330  2.9295 -0.1201  2.2622
  904MOL0     H19293   5.975   5.615   2.320 -0.4170  1.0551  1.8816
  904MOL0     H19294   5.778   5.382   2.273 -1.3645 -0.0442 -0.3148
  904MOL0     H19295   5.769   5.550   2.324  0.3613 -1.0291 -0.7166
  904MOL0     H19296   5.596   5.499   2.492 -0.7134 -2.4289  2.9804
  904MOL0     H19297   5.628   5.327   2.476  1.8955  0.7595 -0.7929
  904MOL0     H19298   5.547   5.338   2.237  0.9021 -0.2344  1.6317
  904MOL0     H19299   5.543   5.516   2.257  1.9662 -0.9342 -1.2600
  904MOL0     H19300   5.392   5.324   2.444 -0.1015  2.1965  1.8659
  904MOL0     H19301   5.364   5.489   2.440 -1.2295  0.9597 -1.7027
  904MOL0     H19302   5.191   5.372   2.318 -0.4062  0.5576  0.6853
  904MOL0     H19303   5.300   5.326   2.184 -2.6945 -0.5233 -0.0629
  904MOL0     H19304   5.223   5.492   2.092  1.3272  0.5169 -0.4899
  904MOL0     H19305   5.361   5.572   2.162 -0.6437 -2.3503 -1.4159
  904MOL0     H19306   5.087   5.564   2.299 -1.9228  1.7658 -1.1387
  904MOL0     H19307   5.222   5.682   2.340  2.8488 -0.9762 -0.6406
  904MOL0     H19308   5.051   5.636   2.090  0.9518 -2.0501  1.6392
  904MOL0     H19309   5.176   5.760   2.106  0.4512 -1.7675  0.0936
  904MOL0     H19310   6.071   5.246   2.538  1.6852 -0.6504 -0.0771
  904MOL0     H19311   6.293   5.271   2.502 -0.9590 -3.3685 -2.8326
  904MOL0     H19312   6.637   5.749   2.561 -0.4650  0.5496 -1.5149
  904MOL0     H19313   6.893   5.734   2.575  0.3679  0.9061 -0.0926
  904MOL0     H19314   8.631   6.061   3.261 -0.4958 -3.0555 -3.5388
  904MOL0     H19315   8.835   6.124   3.394  1.2481 -0.9804 -0.4592
  904MOL0     H19316   9.306   6.085   3.411  0.3844 -0.0920  0.6393
  904MOL0     H19317   9.517   6.121   3.539 -0.5471  1.7856 -0.0161
  904MOL0     H19318   9.597   6.267   3.708  1.0594  1.3983  1.3909
  904MOL0     H19319   9.704   6.129   3.718  1.7116  2.3681 -0.8435
  904MOL0     H19320   9.755   6.196   3.954  0.6650  0.5608 -0.7493
  904MOL0     H19321   9.803   6.320   3.853  2.3861 -0.7336  4.5509
  904MOL0     H19322   9.639   6.333   4.083  1.0297  3.0049  1.0548
  904MOL0     H19323   9.517   6.325   3.954 -0.1761  1.2984  1.9973
  904MOL0     H19324   9.743   6.513   4.037 -1.2571 -0.2708  1.5414
  904MOL0     H19325   9.681   6.516   3.858  1.5512 -0.1394 -0.0437
  904MOL0     H19326   9.376   6.726   4.047  0.4007  0.6611  0.6661
  904MOL0     H19327   9.286   6.043   3.902 -0.4509 -1.9269  0.0162
  904MOL0     H19328   9.090   5.986   3.747 -1.4049  0.2425 -1.7654
  905MOL0     O19329  10.803   0.168   9.188  0.1198 -0.4992 -0.5391
  905MOL0     C19330  10.829   0.121   9.080  0.1816  0.4748 -0.3615
  905MOL0     O19331  10.752   0.024   9.020 -1.4373  0.5118  0.1542
  905MOL0     C19332  10.637  -0.014   9.073  0.2955  0.3359 -0.0154
  905MOL0     C19333  10.612  -0.153   9.098 -0.1863  0.4795  0.1126
  905MOL0     C19334  10.492  -0.201   9.133 -0.5298  0.2404 -0.7100
  905MOL0     C19335  10.382  -0.115   9.148 -0.8512  0.2440 -0.5101
  905MOL0     O19336  10.263  -0.177   9.177 -0.6952  0.5415 -0.9991
  905MOL0     C19337  10.134  -0.109   9.185  0.6531  0.0464 -0.5961
  905MOL0     C19338  10.081  -0.052   9.052  0.2459 -0.1252  0.1593
  905MOL0     C19339  10.060  -0.155   8.941 -0.0711 -0.9912 -0.0671
  905MOL0     C19340   9.940  -0.253   8.957 -1.2344  0.3901  0.4197
  905MOL0     C19341   9.799  -0.198   8.936  0.0775  0.3135  0.7061
  905MOL0     C19342   9.698  -0.314   8.966  0.7446 -0.3701 -0.5870
  905MOL0     C19343   9.593  -0.328   8.854 -0.5470 -0.7172 -0.5059
  905MOL0     C19344   9.485  -0.219   8.878  0.0730 -0.0942 -0.2485
  905MOL0     N19345   9.381  -0.250   8.977 -0.2296 -0.0403  0.3908
  905MOL0     C19346   9.284  -0.350   8.956 -0.1646 -0.1796  0.2690
  905MOL0     C19347   9.185  -0.323   9.044 -0.1810 -0.2949 -0.4338
  905MOL0     C19348   9.059  -0.404   9.042 -0.0807  0.5958 -0.0682
  905MOL0     C19349   8.931  -0.326   9.028 -0.4820 -0.1083 -0.7070
  905MOL0     C19350   8.816  -0.423   9.049 -0.0497 -0.2365  0.0989
  905MOL0     C19351   8.682  -0.359   9.047  0.8048 -0.8743 -0.0313
  905MOL0     O19352   8.573  -0.460   9.058  0.4217 -0.3793  0.1162
  905MOL0     C19353   8.448  -0.417   9.043  0.2713 -0.2556  0.1475
  905MOL0     C19354   8.355  -0.513   9.081  0.1935  0.6784  0.2266
  905MOL0     C19355   8.216  -0.488   9.085  0.0659 -0.2534  0.4411
  905MOL0     C19356   8.164  -0.368   9.036 -0.1931  0.6260 -0.1249
  905MOL0     C19357   8.014  -0.349   9.034 -1.3755 -0.2219  0.5998
  905MOL0     O19358   7.967  -0.234   8.978  0.3031 -0.2156 -0.0559
  905MOL0     C19359   7.844  -0.239   8.923 -0.4831 -0.1019 -0.7746
  905MOL0     C19360   7.828  -0.268   8.792  0.0939  0.0156  0.6236
  905MOL0     C19361   7.692  -0.261   8.743 -0.3125  0.3668  0.3606
  905MOL0     C19362   7.586  -0.223   8.821 -0.2183 -0.4073 -0.0644
  905MOL0     O19363   7.462  -0.245   8.779  0.2158 -0.5003 -0.2843
  905MOL0     C19364   7.350  -0.209   8.862  0.1544  0.5731 -0.4619
  905MOL0     C19365   7.233  -0.275   8.790 -0.1350 -0.2427  1.3981
  905MOL0     C19366   7.105  -0.238   8.873 -0.0506 -0.9282 -0.5129
  905MOL0     C19367   6.964  -0.280   8.808 -0.3293  1.2775  0.0630
  905MOL0     C19368   6.859  -0.237   8.895 -0.3366 -0.0746  0.2011
  905MOL0     C19369   6.732  -0.327   8.867 -0.5712 -0.2504  0.6000
  905MOL0     C19370   6.609  -0.276   8.940  0.2627 -0.8814 -0.6462
  905MOL0     C19371   6.621  -0.210   9.082 -0.0809  0.0743  0.9367
  905MOL0    Cl19372   6.658  -0.323   9.209 -0.2824 -0.0331 -0.2665
  905MOL0     C19373   7.611  -0.187   8.960 -0.2843  0.7500  0.5640
  905MOL0     C19374   7.741  -0.195   9.006 -0.2193 -0.0394 -0.3252
  905MOL0     O19375   7.939  -0.444   9.056 -0.3283 -0.0271  0.4143
  905MOL0     C19376   8.252  -0.279   8.988 -0.0343 -0.6865  0.7823
  905MOL0     C19377   8.393  -0.295   8.995  0.1072 -0.0850 -0.3499
  905MOL0     N19378   9.215  -0.205   9.114  0.2992 -0.0862  0.2437
  905MOL0     N19379   9.340  -0.175   9.079 -0.2499 -1.0948 -0.2096
  905MOL0     C19380  10.404   0.019   9.147 -0.6221 -0.2357  0.7425
  905MOL0     C19381  10.533   0.073   9.108  0.1526  0.4890  0.1577
  905MOL0     C19382  10.942   0.171   9.010  0.2997 -0.0440 -0.0412
  905MOL0     C19383  11.037   0.256   9.073  0.0571  0.4522 -0.3380
  905MOL0     C19384  11.151   0.296   9.015  0.0900 -0.5300  0.0776
  905MOL0     C19385  11.179   0.267   8.888  0.4975  0.0349  0.9992
  905MOL0     O19386  11.292   0.296   8.818  0.4381  0.2482 -0.5638
  905MOL0     C19387  11.409   0.316   8.904  0.1710  0.0478 -0.6692
  905MOL0     C19388  11.450   0.191   8.980  0.5012  0.5517  1.0051
  905MOL0     C19389  11.481   0.065   8.896  0.0537 -0.3104  0.5908
  905MOL0     C19390  11.368   0.013   8.807 -0.0151 -0.7757 -0.5453
  905MOL0     C19391  11.400  -0.104   8.736 -0.8307 -0.7588  0.6177
  905MOL0     C19392  11.453  -0.196   8.673  0.1269  0.0831 -0.3733
  905MOL0     C19393  11.084   0.185   8.816 -0.3302  0.2038  0.2600
  905MOL0     C19394  10.962   0.140   8.874  0.2917  0.3512  0.1315
  905MOL0     H19395  10.700  -0.213   9.073  1.1048  2.3065  0.0839
  905MOL0     H19396  10.481  -0.307   9.152  3.2009 -0.7807 -3.2122
  905MOL0     H19397  10.137  -0.024   9.254 -0.1764 -1.9946  2.0814
  905MOL0     H19398  10.050  -0.163   9.228  2.1387  1.0280  4.0164
  905MOL0     H19399  10.151   0.026   9.020 -2.9168  2.2373 -1.6469
  905MOL0     H19400   9.981  -0.010   9.066  0.3811  1.6889 -3.3099
  905MOL0     H19401  10.147  -0.221   8.939 -0.4515 -1.4934 -0.0575
  905MOL0     H19402  10.057  -0.097   8.849  0.0851  0.0714  0.5776
  905MOL0     H19403   9.943  -0.333   8.882 -3.8102 -0.3313  1.0150
  905MOL0     H19404   9.949  -0.300   9.055  0.2785 -0.9502 -0.3021
  905MOL0     H19405   9.795  -0.164   8.832  0.8287  1.3717  1.0009
  905MOL0     H19406   9.779  -0.113   9.003  0.5536 -0.9863  2.5928
  905MOL0     H19407   9.652  -0.309   9.065 -1.0621  1.1201 -1.4440
  905MOL0     H19408   9.741  -0.414   8.961 -0.6621 -1.1404  1.4283
  905MOL0     H19409   9.648  -0.327   8.759  1.0111 -2.2114  0.3206
  905MOL0     H19410   9.546  -0.427   8.853 -0.1875 -0.8903 -0.3755
  905MOL0     H19411   9.428  -0.205   8.786 -1.8193 -2.2128  0.5212
  905MOL0     H19412   9.533  -0.124   8.902  0.9258 -0.8055  0.9923
  905MOL0     H19413   9.286  -0.431   8.883  5.1440  1.5501 -1.9919
  905MOL0     H19414   9.054  -0.454   9.139  0.8188  2.6814  1.1401
  905MOL0     H19415   9.071  -0.467   8.955 -1.1185 -0.6848  0.6775
  905MOL0     H19416   8.929  -0.267   8.936 -0.2984 -2.7164 -2.4814
  905MOL0     H19417   8.929  -0.256   9.112  1.4595 -2.5692  1.5764
  905MOL0     H19418   8.829  -0.506   8.979  2.6530  1.7801 -2.0205
  905MOL0     H19419   8.817  -0.470   9.148 -1.2391  2.1123  1.2974
  905MOL0     H19420   8.657  -0.290   8.965 -0.6753  0.5604  1.5300
  905MOL0     H19421   8.686  -0.297   9.137  1.4518  2.0262 -1.9079
  905MOL0     H19422   8.392  -0.613   9.095  2.1164  1.1549 -1.0936
  905MOL0     H19423   8.151  -0.568   9.118  0.3324 -0.0956  1.3642
  905MOL0     H19424   7.912  -0.286   8.725  0.2690 -0.4642  0.9651
  905MOL0     H19425   7.674  -0.288   8.639  2.6085  0.9928 -0.4080
  905MOL0     H19426   7.344  -0.100   8.869 -1.4891  0.4738  0.2254
  905MOL0     H19427   7.353  -0.250   8.964 -1.0951 -0.3350 -0.7534
  905MOL0     H19428   7.255  -0.382   8.787  0.4776 -0.2827 -4.4137
  905MOL0     H19429   7.221  -0.232   8.690 -0.8475  0.4679  1.7896
  905MOL0     H19430   7.115  -0.131   8.893  0.9461 -1.3710  1.6540
  905MOL0     H19431   7.113  -0.290   8.969  0.9563  1.8077  1.0112
  905MOL0     H19432   6.949  -0.244   8.706  1.6924 -0.3505 -0.8688
  905MOL0     H19433   6.961  -0.389   8.806  2.7459  1.0849  0.9950
  905MOL0     H19434   6.840  -0.131   8.878 -1.8010 -0.4852 -0.9246
  905MOL0     H19435   6.893  -0.243   8.999  0.5121  3.6672  0.2624
  905MOL0     H19436   6.756  -0.432   8.882 -2.2040 -0.4787  1.9802
  905MOL0     H19437   6.717  -0.320   8.759  2.6666  0.4368  0.1039
  905MOL0     H19438   6.557  -0.203   8.878 -3.2803 -0.4792  2.4336
  905MOL0     H19439   6.535  -0.356   8.949 -0.6805 -0.0039 -0.4576
  905MOL0     H19440   6.517  -0.176   9.094 -0.2422  1.2153 -2.7030
  905MOL0     H19441   6.686  -0.122   9.075 -0.6608  0.5103  0.8873
  905MOL0     H19442   7.531  -0.164   9.029 -0.3052 -1.4475  1.3594
  905MOL0     H19443   7.759  -0.167   9.110  0.5414 -0.3728 -0.3611
  905MOL0     H19444   8.213  -0.184   8.952  0.4837 -0.3067  1.2015
  905MOL0     H19445   8.470  -0.223   8.966 -0.2105 -0.8622 -3.5288
  905MOL0     H19446  10.321   0.088   9.162 -1.6454 -1.0867 -0.7858
  905MOL0     H19447  10.536   0.180   9.092 -1.9792  0.8739  1.8129
  905MOL0     H19448  11.027   0.302   9.170  4.7200  0.6868  0.2296
  905MOL0     H19449  11.202   0.357   9.089 -0.4937  0.1316 -0.0633
  905MOL0     H19450  11.411   0.403   8.970  1.7372  0.3161 -1.0279
  905MOL0     H19451  11.496   0.322   8.838 -0.7039 -3.5538 -2.4146
  905MOL0     H19452  11.549   0.213   9.022  2.3276 -0.9965 -2.1395
  905MOL0     H19453  11.366   0.177   9.049  1.1691  2.7572  2.3599
  905MOL0     H19454  11.522  -0.019   8.953 -1.7670 -1.1585  0.7194
  905MOL0     H19455  11.569   0.097   8.840 -1.1405  0.9589 -0.6478
  905MOL0     H19456  11.275  -0.002   8.863 -0.8393 -2.3461 -2.2250
  905MOL0     H19457  11.351   0.089   8.730  0.2387 -0.3052 -0.1404
  905MOL0     H19458  11.499  -0.279   8.623  0.2560 -0.4806  0.6468
  905MOL0     H19459  11.116   0.170   8.714  0.0132 -0.1989  0.4221
  905MOL0     H19460  10.885   0.084   8.822 -1.9482  0.8865  2.6860
  906MOL0     O19461   7.541   7.394   0.035  0.0087  0.0801  0.4918
  906MOL0     C19462   7.496   7.282   0.032  0.1542  0.1096 -1.0103
  906MOL0     O19463   7.426   7.237   0.132  0.4057 -0.0641 -0.1647
  906MOL0     C19464   7.314   7.305   0.169  1.1694 -0.2780 -0.6646
  906MOL0     C19465   7.266   7.304   0.303  0.7328  0.2110  0.7871
  906MOL0     C19466   7.140   7.360   0.334 -0.0923 -0.0299  0.0401
  906MOL0     C19467   7.051   7.418   0.243 -0.8537 -0.0929 -1.2083
  906MOL0     O19468   6.942   7.485   0.293  0.2823  0.0977  0.0232
  906MOL0     C19469   6.813   7.454   0.246  1.0176  0.4971 -0.1908
  906MOL0     C19470   6.745   7.582   0.231  0.1009  0.3232  0.6221
  906MOL0     C19471   6.594   7.561   0.225  1.0828  0.7687 -0.3661
  906MOL0     C19472   6.532   7.697   0.231 -0.4330  0.3401  0.0805
  906MOL0     C19473   6.377   7.684   0.267 -0.4445 -0.6860  0.8580
  906MOL0     C19474   6.287   7.806   0.246 -0.5605 -0.4817  0.5607
  906MOL0     C19475   6.140   7.775   0.274 -0.5403 -0.5987  0.1840
  906MOL0     C19476   6.084   7.670   0.190 -0.4500  0.7069  0.1165
  906MOL0     N19477   5.952   7.646   0.238 -0.0458  0.1024 -0.3383
  906MOL0     C19478   5.911   7.564   0.342  0.3700 -0.1828  0.3920
  906MOL0     C19479   5.787   7.609   0.374 -0.1874  0.0053  0.0820
  906MOL0     C19480   5.716   7.568   0.499  0.0232 -0.0650  0.1046
  906MOL0     C19481   5.591   7.479   0.477 -0.2005  0.6514  0.4850
  906MOL0     C19482   5.552   7.424   0.616 -0.0198 -0.4940  0.8773
  906MOL0     C19483   5.412   7.362   0.600 -0.1289 -0.5105 -0.2292
  906MOL0     O19484   5.313   7.465   0.593  0.6172  0.3168 -0.2181
  906MOL0     C19485   5.188   7.449   0.651  0.0171 -0.3265 -0.3314
  906MOL0     C19486   5.080   7.528   0.602  0.3297  0.3801  0.6061
  906MOL0     C19487   4.954   7.516   0.663  0.6101 -0.6693 -0.7836
  906MOL0     C19488   4.928   7.430   0.770  0.1884  0.1582  0.4826
  906MOL0     C19489   4.801   7.428   0.839  0.0571 -0.2178  0.8250
  906MOL0     O19490   4.770   7.334   0.931 -0.1300 -0.0585 -0.1097
  906MOL0     C19491   4.662   7.340   1.010 -0.0218  0.6798 -0.0662
  906MOL0     C19492   4.602   7.219   1.054 -0.4149  0.9654  0.4393
  906MOL0     C19493   4.483   7.205   1.118 -0.5301  0.0526 -0.6580
  906MOL0     C19494   4.408   7.320   1.147 -0.5768 -0.3249 -0.1656
  906MOL0     O19495   4.281   7.318   1.199 -0.2483 -0.0366 -0.5522
  906MOL0     C19496   4.192   7.206   1.196 -0.1328 -0.1138  0.3284
  906MOL0     C19497   4.055   7.268   1.197  0.2690  0.1550  0.8177
  906MOL0     C19498   3.949   7.164   1.166 -0.1307 -0.9657  0.0133
  906MOL0     C19499   3.820   7.234   1.187  0.0510 -0.0378 -0.3068
  906MOL0     C19500   3.696   7.152   1.178  0.1971 -0.0403 -0.8693
  906MOL0     C19501   3.565   7.216   1.238 -0.0155 -0.9049  0.9517
  906MOL0     C19502   3.456   7.117   1.238 -0.6572 -0.0794  0.0422
  906MOL0     C19503   3.316   7.179   1.217  0.1390  0.0281  0.3105
  906MOL0    Cl19504   3.299   7.260   1.054 -0.2232 -0.4296 -0.5589
  906MOL0     C19505   4.471   7.439   1.125  0.0198  0.4433  0.2498
  906MOL0     C19506   4.592   7.457   1.053  0.1431  1.4882  0.1834
  906MOL0     O19507   4.723   7.510   0.791 -0.5377  0.2075  0.0550
  906MOL0     C19508   5.032   7.345   0.805 -0.2189 -0.1589 -0.6137
  906MOL0     C19509   5.158   7.358   0.754 -0.4580  0.8705  0.5683
  906MOL0     N19510   5.747   7.706   0.286  0.3497  0.9146  0.4352
  906MOL0     N19511   5.842   7.711   0.191  0.2909 -0.2664 -0.1587
  906MOL0     C19512   7.096   7.418   0.112  0.3854  0.6772 -0.7048
  906MOL0     C19513   7.222   7.360   0.074 -0.0753  0.7206 -0.4506
  906MOL0     C19514   7.560   7.196  -0.068 -0.4072 -0.2464  0.9920
  906MOL0     C19515   7.518   7.065  -0.084  0.2157  0.2684 -0.1011
  906MOL0     C19516   7.591   6.980  -0.174  0.5203 -0.3612 -0.6599
  906MOL0     C19517   7.693   7.029  -0.258 -0.5674  0.4222  0.1862
  906MOL0     O19518   7.755   6.931  -0.341 -0.5225  0.0521  0.2725
  906MOL0     C19519   7.776   6.961  -0.479  0.7010 -0.1716  0.2670
  906MOL0     C19520   7.817   6.843  -0.568 -0.0993 -0.7054  0.9419
  906MOL0     C19521   7.822   6.865  -0.728 -0.6831  0.7077  0.2815
  906MOL0     C19522   7.940   6.955  -0.762 -0.7849  0.0123 -0.4644
  906MOL0     C19523   8.069   6.893  -0.740 -0.6266  0.3059 -0.0771
  906MOL0     C19524   8.179   6.845  -0.714  0.2833 -0.5464  1.0299
  906MOL0     C19525   7.717   7.166  -0.258 -0.2697 -0.4057  0.4673
  906MOL0     C19526   7.657   7.243  -0.158 -0.2976 -0.0424 -0.1540
  906MOL0     H19527   7.317   7.276   0.395  0.8348  0.9585  0.9708
  906MOL0     H19528   7.101   7.366   0.435 -1.0838  0.3758 -0.3544
  906MOL0     H19529   6.762   7.395   0.323 -0.2665  2.0238  0.1761
  906MOL0     H19530   6.808   7.399   0.151  1.2205  0.4686 -0.1867
  906MOL0     H19531   6.780   7.633   0.141  2.6660 -2.2287  0.0100
  906MOL0     H19532   6.765   7.642   0.321 -0.7057  1.4498  0.0718
  906MOL0     H19533   6.553   7.490   0.297  0.0027  0.8827 -0.8446
  906MOL0     H19534   6.573   7.520   0.125 -0.5536 -0.3942  0.3953
  906MOL0     H19535   6.573   7.744   0.321 -1.9405  1.6290  0.1240
  906MOL0     H19536   6.556   7.744   0.135  4.1205 -2.6806 -0.6117
  906MOL0     H19537   6.367   7.647   0.369  0.8229  2.4191  2.2372
  906MOL0     H19538   6.346   7.612   0.191  0.7191 -1.7297  1.3428
  906MOL0     H19539   6.307   7.850   0.148 -0.2863  0.0092  0.8305
  906MOL0     H19540   6.324   7.884   0.314 -3.6592 -0.0855  1.9837
  906MOL0     H19541   6.126   7.752   0.380 -3.0275  3.8066  1.0344
  906MOL0     H19542   6.078   7.860   0.245 -2.5966 -2.4693 -1.2636
  906MOL0     H19543   6.136   7.573   0.195 -0.8426  0.4698 -0.3827
  906MOL0     H19544   6.084   7.700   0.085  2.0055 -0.6553 -0.3555
  906MOL0     H19545   5.957   7.477   0.386  0.2075 -2.9927 -4.3555
  906MOL0     H19546   5.690   7.661   0.551  0.7502 -0.4828  1.2328
  906MOL0     H19547   5.784   7.516   0.567 -1.9850  0.1842  2.4400
  906MOL0     H19548   5.626   7.404   0.405  2.4750  1.8995  0.3524
  906MOL0     H19549   5.505   7.527   0.429 -1.6733 -3.5952 -1.6659
  906MOL0     H19550   5.623   7.351   0.656  0.9546  0.6896  1.3616
  906MOL0     H19551   5.542   7.498   0.696  1.9962 -1.1576  1.8011
  906MOL0     H19552   5.411   7.301   0.690 -0.1766  0.5148  0.4831
  906MOL0     H19553   5.400   7.298   0.512 -0.2316  1.5328 -1.7929
  906MOL0     H19554   5.090   7.600   0.522  0.7873 -0.3064  0.0371
  906MOL0     H19555   4.873   7.575   0.621  1.3857  0.8965 -0.1566
  906MOL0     H19556   4.660   7.127   1.044  0.7184  1.2418  3.4206
  906MOL0     H19557   4.455   7.101   1.132  2.1575 -0.4809  1.5621
  906MOL0     H19558   4.203   7.131   1.276  0.0245  1.3885  1.7776
  906MOL0     H19559   4.207   7.149   1.104  0.4024 -0.6386  0.7302
  906MOL0     H19560   4.050   7.338   1.112  0.4397 -0.5675  0.2073
  906MOL0     H19561   4.028   7.299   1.299 -5.8236 -0.9941 -0.0803
  906MOL0     H19562   3.955   7.081   1.237  1.3245  0.7977  2.0855
  906MOL0     H19563   3.963   7.127   1.064  0.5548 -1.7021  0.3575
  906MOL0     H19564   3.817   7.275   1.289 -1.5189 -4.5608  1.7229
  906MOL0     H19565   3.815   7.320   1.120 -0.9924 -2.5888 -3.8048
  906MOL0     H19566   3.704   7.066   1.245  0.3940 -0.3818 -1.3246
  906MOL0     H19567   3.687   7.107   1.079  1.3153 -1.0428 -0.5446
  906MOL0     H19568   3.538   7.293   1.165  1.1339 -0.3738  1.0621
  906MOL0     H19569   3.588   7.265   1.332  0.7394  0.6414 -0.0072
  906MOL0     H19570   3.477   7.042   1.161  0.1785  0.3923 -0.2044
  906MOL0     H19571   3.471   7.060   1.330  1.2426 -2.0617 -1.3850
  906MOL0     H19572   3.282   7.240   1.302 -1.4274 -3.5622  2.5395
  906MOL0     H19573   3.242   7.098   1.215  0.9130 -0.7679  1.7714
  906MOL0     H19574   4.429   7.533   1.158  0.3952  0.4111  0.8291
  906MOL0     H19575   4.629   7.558   1.042  1.1905  1.0924 -0.0453
  906MOL0     H19576   5.015   7.263   0.875  0.2732 -0.9675 -1.4188
  906MOL0     H19577   5.239   7.294   0.789 -0.5233 -0.0504 -0.8704
  906MOL0     H19578   7.051   7.490   0.045  0.8477  2.1285  0.4748
  906MOL0     H19579   7.257   7.375  -0.028 -0.7380 -0.6026 -0.9001
  906MOL0     H19580   7.441   7.009  -0.032 -0.3505  1.0122 -0.1144
  906MOL0     H19581   7.558   6.881  -0.205 -1.0919  0.1753 -0.7404
  906MOL0     H19582   7.861   7.030  -0.489 -1.5187  2.5259 -1.2855
  906MOL0     H19583   7.684   7.010  -0.512 -1.0562 -1.6893  2.6012
  906MOL0     H19584   7.912   6.798  -0.535  2.4149  2.1535 -1.8128
  906MOL0     H19585   7.739   6.766  -0.562  0.2080 -0.9657  1.7460
  906MOL0     H19586   7.731   6.916  -0.759 -0.1565  2.5620  1.5898
  906MOL0     H19587   7.830   6.774  -0.787 -1.1359  0.7363  0.1757
  906MOL0     H19588   7.955   6.969  -0.870  2.1676 -0.1701 -0.1642
  906MOL0     H19589   7.937   7.048  -0.705 -3.5594  1.4084 -2.6425
  906MOL0     H19590   8.275   6.806  -0.685 -0.3741 -1.3927  2.1897
  906MOL0     H19591   7.780   7.214  -0.332 -0.3870 -0.2555  0.4656
  906MOL0     H19592   7.676   7.349  -0.166  1.1899 -0.3654 -1.3132
  907MOL0     O19593   3.800   3.736   0.817 -0.0103  0.4346  0.4719
  907MOL0     C19594   3.754   3.851   0.814 -0.4552  0.2024  0.2313
  907MOL0     O19595   3.829   3.964   0.842 -0.5640  0.2251  0.9722
  907MOL0     C19596   3.960   3.958   0.872 -0.7799  1.2554  1.2013
  907MOL0     C19597   4.055   3.880   0.797 -0.9268  0.2069 -0.6770
  907MOL0     C19598   4.194   3.874   0.847  0.6697 -1.5069 -0.1013
  907MOL0     C19599   4.229   3.957   0.950  0.8411 -0.0564 -0.2931
  907MOL0     O19600   4.361   3.962   0.981  0.0009 -0.0923 -0.2273
  907MOL0     C19601   4.390   3.916   1.112  0.0059  0.1791  0.0732
  907MOL0     C19602   4.410   4.016   1.227 -0.0007  0.1895  0.2869
  907MOL0     C19603   4.436   3.947   1.370  0.4408  0.4478  0.1680
  907MOL0     C19604   4.337   3.829   1.406  0.1209  0.0601 -0.0562
  907MOL0     C19605   4.213   3.877   1.473  0.5442  0.4812  0.3117
  907MOL0     C19606   4.139   3.756   1.531  0.5400  0.0678  0.3524
  907MOL0     C19607   4.130   3.764   1.688 -0.5639  0.5235 -0.1856
  907MOL0     C19608   4.264   3.754   1.762  0.8946 -0.7711  0.5521
  907MOL0     N19609   4.333   3.626   1.763  0.3154 -0.3218  0.6962
  907MOL0     C19610   4.395   3.555   1.653  0.2546 -1.5663  0.0007
  907MOL0     C19611   4.463   3.450   1.705 -0.3079 -0.8617  0.3025
  907MOL0     C19612   4.545   3.351   1.624  0.1514 -0.4533 -0.3630
  907MOL0     C19613   4.474   3.290   1.493  0.1802  0.1348  0.0893
  907MOL0     C19614   4.374   3.187   1.535 -0.0370 -0.4181  0.0835
  907MOL0     C19615   4.311   3.109   1.421 -0.5137 -0.0156 -0.2057
  907MOL0     O19616   4.195   3.036   1.471  0.2013  0.3284  0.0757
  907MOL0     C19617   4.074   3.081   1.435 -0.2484 -0.0753 -0.4036
  907MOL0     C19618   4.013   3.189   1.497  0.9914  0.9592 -0.0437
  907MOL0     C19619   3.888   3.231   1.472 -0.2685 -0.1673  0.0135
  907MOL0     C19620   3.816   3.163   1.369  0.1969 -0.5371  0.3259
  907MOL0     C19621   3.681   3.214   1.329  0.7985 -0.4116 -1.0267
  907MOL0     O19622   3.600   3.264   1.429  0.0739  0.1746 -0.0842
  907MOL0     C19623   3.464   3.258   1.412  0.9139  0.5135  0.1332
  907MOL0     C19624   3.397   3.139   1.462  0.7127  0.3563 -0.8183
  907MOL0     C19625   3.254   3.136   1.462  0.2310  0.0016  0.1900
  907MOL0     C19626   3.186   3.243   1.398  0.5540 -0.6352  0.2701
  907MOL0     O19627   3.050   3.255   1.365  0.6845 -0.0694 -0.6153
  907MOL0     C19628   2.965   3.146   1.404 -0.2030  0.3124 -1.0083
  907MOL0     C19629   2.815   3.150   1.364  0.1038 -0.5323 -0.2584
  907MOL0     C19630   2.757   3.006   1.371 -0.1540 -0.3872 -0.4834
  907MOL0     C19631   2.614   3.003   1.330  0.1516 -0.5183 -0.2844
  907MOL0     C19632   2.555   2.861   1.320 -1.0788 -0.0833 -0.3344
  907MOL0     C19633   2.397   2.880   1.317  0.8454 -0.5601 -0.7390
  907MOL0     C19634   2.332   2.742   1.356  0.5293  0.3453  0.1039
  907MOL0     C19635   2.184   2.749   1.374  0.0662 -0.2984 -0.2411
  907MOL0    Cl19636   2.109   2.689   1.228 -0.0346  0.3358  0.3383
  907MOL0     C19637   3.261   3.350   1.338 -0.1966  0.5839  0.2168
  907MOL0     C19638   3.396   3.361   1.358 -0.3462  0.7928  0.6516
  907MOL0     O19639   3.648   3.179   1.216  0.1613  0.1342 -0.2064
  907MOL0     C19640   3.866   3.057   1.307  0.1164  0.0819 -0.2710
  907MOL0     C19641   4.005   3.020   1.336 -0.2404 -0.4871 -0.6609
  907MOL0     N19642   4.440   3.451   1.843  0.2451  0.2457 -0.0024
  907MOL0     N19643   4.358   3.548   1.872  0.6036  0.1783 -0.3009
  907MOL0     C19644   4.126   4.030   1.022 -1.4281 -0.5862 -0.2295
  907MOL0     C19645   3.998   4.033   0.980 -0.2914  0.3758  0.1767
  907MOL0     C19646   3.618   3.872   0.779 -0.1933  0.1957  0.2803
  907MOL0     C19647   3.536   3.980   0.826 -0.2729  0.0281 -0.0396
  907MOL0     C19648   3.401   3.990   0.775  0.1263 -0.1205  0.0337
  907MOL0     C19649   3.353   3.904   0.680  0.0546 -0.0917 -0.6427
  907MOL0     O19650   3.227   3.903   0.619 -0.1805 -1.0689 -0.3354
  907MOL0     C19651   3.128   4.002   0.661 -0.4341  0.2405  0.0819
  907MOL0     C19652   2.989   3.987   0.595  0.4447  0.1589  0.4375
  907MOL0     C19653   2.908   3.855   0.631 -0.4175  0.5485 -0.4925
  907MOL0     C19654   2.763   3.869   0.617 -0.0018  0.7597 -0.3264
  907MOL0     C19655   2.683   3.746   0.647  0.0380  0.1558 -0.6189
  907MOL0     C19656   2.607   3.656   0.675 -0.5613  0.8516  0.3825
  907MOL0     C19657   3.427   3.799   0.637 -0.3425  0.1912 -0.8204
  907MOL0     C19658   3.559   3.787   0.680 -0.4626 -0.1700 -0.1159
  907MOL0     H19659   4.042   3.826   0.704  0.1743 -0.9024 -0.2217
  907MOL0     H19660   4.266   3.807   0.801  0.8499 -0.6813 -1.0402
  907MOL0     H19661   4.487   3.864   1.104 -0.3675 -0.7700  1.3365
  907MOL0     H19662   4.312   3.847   1.147  0.0519  0.2228  0.2613
  907MOL0     H19663   4.328   4.087   1.237  0.3173  0.6764 -0.4576
  907MOL0     H19664   4.492   4.082   1.198  0.1412  1.6216  3.5065
  907MOL0     H19665   4.427   4.024   1.446 -1.0099 -1.5308  2.1181
  907MOL0     H19666   4.538   3.908   1.367 -0.6994 -2.8276 -0.8967
  907MOL0     H19667   4.302   3.770   1.321  0.3913 -0.7513  0.3885
  907MOL0     H19668   4.388   3.756   1.469 -0.9858 -1.7615 -1.1747
  907MOL0     H19669   4.142   3.926   1.406 -0.8614 -2.5639 -0.5780
  907MOL0     H19670   4.230   3.954   1.549 -1.4451  0.6325  0.6568
  907MOL0     H19671   4.190   3.667   1.492 -1.3993 -0.1842 -1.7823
  907MOL0     H19672   4.037   3.758   1.492  1.4688  3.1805 -2.3559
  907MOL0     H19673   4.087   3.862   1.709 -2.6581  0.5111 -3.6507
  907MOL0     H19674   4.064   3.689   1.734  0.7517 -0.4246  0.2109
  907MOL0     H19675   4.232   3.780   1.863 -0.7605 -2.1709  0.4319
  907MOL0     H19676   4.330   3.828   1.715 -0.4532 -0.2984 -0.6987
  907MOL0     H19677   4.406   3.586   1.549  0.2621  0.9795  0.6940
  907MOL0     H19678   4.579   3.267   1.685 -1.9433 -0.6763  0.5788
  907MOL0     H19679   4.638   3.402   1.598 -1.1719  1.2583 -2.0739
  907MOL0     H19680   4.548   3.242   1.428  0.4053  1.0554 -0.3464
  907MOL0     H19681   4.420   3.366   1.437 -1.6854  0.1862  1.8525
  907MOL0     H19682   4.428   3.106   1.585 -0.0189 -0.6227 -0.2649
  907MOL0     H19683   4.300   3.231   1.603 -1.5132 -2.5018 -0.0610
  907MOL0     H19684   4.392   3.044   1.387  1.5780  2.0447  0.5261
  907MOL0     H19685   4.280   3.180   1.344  2.2709  2.0942  0.4395
  907MOL0     H19686   4.054   3.250   1.577 -1.2789 -2.0030  3.7397
  907MOL0     H19687   3.850   3.320   1.521  1.3731  3.4910 -4.5468
  907MOL0     H19688   3.464   3.066   1.505  1.8150  1.3593 -0.7733
  907MOL0     H19689   3.204   3.050   1.507  0.1088 -0.4451 -0.7915
  907MOL0     H19690   2.960   3.156   1.513 -0.8851  1.0859 -1.0999
  907MOL0     H19691   3.008   3.050   1.375 -0.5423 -0.0518 -0.3256
  907MOL0     H19692   2.804   3.186   1.261 -0.0509  0.4328  0.0840
  907MOL0     H19693   2.760   3.210   1.438  0.9813  0.0992 -0.0941
  907MOL0     H19694   2.768   2.956   1.468 -1.7500  1.1035  0.5257
  907MOL0     H19695   2.813   2.937   1.307 -1.1396 -2.5413  0.8462
  907MOL0     H19696   2.567   3.065   1.406 -0.1279 -0.2617 -0.6654
  907MOL0     H19697   2.598   3.052   1.234 -0.1445 -1.6647 -0.8375
  907MOL0     H19698   2.591   2.805   1.406  0.3467  1.0853 -0.1146
  907MOL0     H19699   2.593   2.813   1.230 -3.7582  1.2735 -2.3356
  907MOL0     H19700   2.367   2.919   1.219 -0.3986  2.6575  0.7870
  907MOL0     H19701   2.359   2.953   1.388 -0.7284 -2.0324  0.0027
  907MOL0     H19702   2.346   2.667   1.278 -2.5049 -0.1871 -0.0535
  907MOL0     H19703   2.390   2.698   1.438  2.7472  0.9148 -1.0810
  907MOL0     H19704   2.150   2.849   1.403  0.7843  0.0997 -0.7549
  907MOL0     H19705   2.164   2.679   1.456 -2.1870  0.0434 -0.4200
  907MOL0     H19706   3.206   3.432   1.293  0.7866  1.2214  0.1449
  907MOL0     H19707   3.467   3.438   1.330  0.8092  0.4771  2.5646
  907MOL0     H19708   3.806   2.998   1.239 -1.0537  0.5323  0.3501
  907MOL0     H19709   4.048   2.942   1.274  2.0263  0.7181 -0.7104
  907MOL0     H19710   4.155   4.086   1.110  0.4815 -0.7418 -0.7136
  907MOL0     H19711   3.921   4.085   1.035 -1.5495 -0.0739 -1.1003
  907MOL0     H19712   3.572   4.043   0.907  1.3768 -3.4803  2.1800
  907MOL0     H19713   3.335   4.062   0.822  0.5275  1.1435 -1.2438
  907MOL0     H19714   3.163   4.105   0.648  1.2177 -0.3666 -0.4631
  907MOL0     H19715   3.117   3.982   0.768  0.2975  1.7004  0.4506
  907MOL0     H19716   2.930   4.073   0.628  1.2048  0.6953  0.4341
  907MOL0     H19717   2.988   3.983   0.486  1.8852 -0.2516  0.4168
  907MOL0     H19718   2.936   3.830   0.734  0.0987  0.8764 -0.5511
  907MOL0     H19719   2.952   3.773   0.575  1.4509 -0.0033  1.6353
  907MOL0     H19720   2.723   3.948   0.681  0.7215  1.6047 -0.8899
  907MOL0     H19721   2.743   3.896   0.513 -1.7045  2.6367  0.4139
  907MOL0     H19722   2.547   3.570   0.700 -0.7426  1.8610  3.8958
  907MOL0     H19723   3.390   3.736   0.556  1.5128 -2.2676  0.0842
  907MOL0     H19724   3.625   3.711   0.639  0.8650 -0.1089  1.7695
  908MOL0     O19725   9.233   4.417  10.017  0.5396 -0.4489  0.4187
  908MOL0     C19726   9.222   4.302  10.039  0.5652  0.4058  0.2537
  908MOL0     O19727   9.104   4.244  10.079 -0.8698 -0.2113 -0.0557
  908MOL0     C19728   8.996   4.311  10.127 -0.2850 -0.5641  0.0006
  908MOL0     C19729   8.876   4.240  10.129  0.7327  0.2473  0.2120
  908MOL0     C19730   8.749   4.297  10.161 -0.2566 -0.7450 -0.6888
  908MOL0     C19731   8.750   4.432  10.204 -0.4997 -0.5576  0.3734
  908MOL0     O19732   8.626   4.489  10.217  0.8286 -0.0056  0.2553
  908MOL0     C19733   8.601   4.625  10.268  0.5025  0.8339  0.0672
  908MOL0     C19734   8.455   4.670  10.241  0.1542 -0.1415 -0.1615
  908MOL0     C19735   8.354   4.648  10.361  0.5623  0.6075 -0.0114
  908MOL0     C19736   8.212   4.709  10.319  0.1812 -0.5718  0.4420
  908MOL0     C19737   8.108   4.711  10.429 -0.7590  0.0722 -0.3933
  908MOL0     C19738   7.976   4.684  10.370 -0.2647  0.4012  0.3017
  908MOL0     C19739   7.851   4.710  10.463 -0.1204  0.0580 -0.1142
  908MOL0     C19740   7.860   4.670  10.608 -0.0738 -1.1251  0.4430
  908MOL0     N19741   7.731   4.617  10.659  0.5533  0.9571 -0.3182
  908MOL0     C19742   7.616   4.699  10.670 -0.4493  0.3123 -0.0250
  908MOL0     C19743   7.529   4.611  10.718  0.3796 -0.1970 -0.2378
  908MOL0     C19744   7.377   4.622  10.730  0.2218 -0.4844  0.3788
  908MOL0     C19745   7.350   4.731  10.851 -0.3346 -0.2665  0.8586
  908MOL0     C19746   7.210   4.750  10.882  0.6556 -0.5478  0.9583
  908MOL0     C19747   7.176   4.898  10.913  0.3505  0.3866 -0.4873
  908MOL0     O19748   7.031   4.898  10.949 -0.1445  0.2835 -0.9258
  908MOL0     C19749   6.957   5.016  10.950 -0.8332  0.1926  0.2203
  908MOL0     C19750   6.820   5.004  10.969 -0.0144 -0.5060 -0.3965
  908MOL0     C19751   6.737   5.107  10.952 -0.0545  0.3530  0.1338
  908MOL0     C19752   6.785   5.236  10.927 -0.8724 -0.1862  0.5063
  908MOL0     C19753   6.690   5.347  10.918  0.4135  0.0091  0.5325
  908MOL0     O19754   6.563   5.328  10.978  0.3354  0.3727  0.5696
  908MOL0     C19755   6.458   5.415  10.953 -0.7157 -0.2993 -0.0072
  908MOL0     C19756   6.358   5.422  11.049  0.2791 -0.3576 -0.7750
  908MOL0     C19757   6.248   5.519  11.044 -0.3380 -0.2918  0.3248
  908MOL0     C19758   6.225   5.601  10.930 -0.0434  0.1996 -0.6027
  908MOL0     O19759   6.114   5.676  10.905 -0.2304  0.3334 -0.4479
  908MOL0     C19760   6.003   5.680  10.997 -1.0041  0.1856  0.1877
  908MOL0     C19761   6.025   5.741  11.136  0.0286 -0.5870  0.4104
  908MOL0     C19762   5.904   5.782  11.220 -0.2691 -0.0998  0.0010
  908MOL0     C19763   5.807   5.669  11.238  0.2984  0.1700 -0.1499
  908MOL0     C19764   5.715   5.699  11.363 -0.7225  0.7124 -0.4274
  908MOL0     C19765   5.624   5.574  11.403  0.1370 -0.2412  0.7185
  908MOL0     C19766   5.547   5.524  11.285  0.2430 -0.3755 -0.1009
  908MOL0     C19767   5.414   5.454  11.329  0.6936 -0.4322 -0.2424
  908MOL0    Cl19768   5.458   5.301  11.422  0.2318 -0.4724  0.2430
  908MOL0     C19769   6.327   5.593  10.832 -0.3387 -0.3545  0.1445
  908MOL0     C19770   6.442   5.510  10.844  0.2482 -0.6925  0.5210
  908MOL0     O19771   6.728   5.453  10.868 -0.6545  0.2792 -0.8483
  908MOL0     C19772   6.923   5.255  10.907  0.0354 -0.0315  0.2208
  908MOL0     C19773   7.012   5.144  10.915  0.0252 -0.4682 -1.0391
  908MOL0     N19774   7.599   4.489  10.746  0.1432 -0.1384 -0.2285
  908MOL0     N19775   7.719   4.494  10.718  0.1508 -0.0042  0.7783
  908MOL0     C19776   8.871   4.499  10.223 -0.0029  0.2873  0.6221
  908MOL0     C19777   8.988   4.439  10.181  0.4706 -0.3823 -0.3442
  908MOL0     C19778   9.345   4.213  10.025  0.1721  0.1076 -0.0319
  908MOL0     C19779   9.465   4.253   9.968  0.0309  0.0248  0.1350
  908MOL0     C19780   9.569   4.160   9.951 -0.5575  0.3031 -0.4909
  908MOL0     C19781   9.558   4.027  10.000 -0.1462  0.0271  0.2868
  908MOL0     O19782   9.657   3.940   9.993  0.0401  0.1468  0.0616
  908MOL0     C19783   9.788   3.991   9.992 -0.3312  0.0201  0.5925
  908MOL0     C19784   9.837   3.971   9.840  0.7768  0.4143  0.2140
  908MOL0     C19785   9.997   3.965   9.841  0.0885 -0.4862  0.3701
  908MOL0     C19786  10.045   3.831   9.879 -0.0693 -0.1837  0.7188
  908MOL0     C19787  10.187   3.836   9.881  0.0456  0.3503  0.1818
  908MOL0     C19788  10.308   3.821   9.880 -0.0539 -0.4282  0.2057
  908MOL0     C19789   9.446   3.993  10.063  0.1678  0.2182 -0.0629
  908MOL0     C19790   9.338   4.083  10.074 -0.0241  0.8408 -0.0718
  908MOL0     H19791   8.881   4.136  10.098  1.1671  1.0883 -2.8017
  908MOL0     H19792   8.652   4.249  10.167 -0.3110 -0.4873  1.3337
  908MOL0     H19793   8.667   4.695  10.216  0.6422  0.5908 -0.0868
  908MOL0     H19794   8.629   4.632  10.374  2.1373 -0.0038 -0.2778
  908MOL0     H19795   8.408   4.619  10.156  0.4738 -1.4029  0.3952
  908MOL0     H19796   8.459   4.779  10.235  1.5776 -0.1828 -0.4044
  908MOL0     H19797   8.380   4.700  10.453  4.8676  0.1205 -0.7521
  908MOL0     H19798   8.342   4.540  10.375 -0.8720  0.4795 -1.8198
  908MOL0     H19799   8.236   4.808  10.279 -0.3193 -0.3303  0.7238
  908MOL0     H19800   8.169   4.653  10.235  2.8980  1.2544 -2.3889
  908MOL0     H19801   8.108   4.815  10.463  3.6040  0.4823 -1.0478
  908MOL0     H19802   8.131   4.642  10.510  2.8133 -0.3222 -1.5532
  908MOL0     H19803   7.986   4.579  10.341 -0.7607  0.8444 -1.6388
  908MOL0     H19804   7.957   4.734  10.275 -1.0813 -0.6198 -0.0988
  908MOL0     H19805   7.831   4.817  10.451  2.2581  0.6578  0.8511
  908MOL0     H19806   7.770   4.656  10.413 -1.5999  1.3571  0.7871
  908MOL0     H19807   7.892   4.755  10.670  0.7668 -2.6102  2.1308
  908MOL0     H19808   7.940   4.596  10.607 -0.3498 -1.4903 -2.3527
  908MOL0     H19809   7.598   4.803  10.644 -0.9112  1.1630  3.2341
  908MOL0     H19810   7.335   4.523  10.746  3.1609 -1.9071  0.0440
  908MOL0     H19811   7.333   4.663  10.639  1.9798  0.0349 -0.2818
  908MOL0     H19812   7.391   4.826  10.814  0.7753 -1.1149 -0.1648
  908MOL0     H19813   7.406   4.702  10.940  0.3931 -3.0160 -0.3896
  908MOL0     H19814   7.157   4.729  10.789  2.7810  2.4107 -1.1150
  908MOL0     H19815   7.178   4.673  10.953  1.1125 -3.2640 -1.6143
  908MOL0     H19816   7.203   4.956  10.825  2.2828  1.4112  0.7221
  908MOL0     H19817   7.243   4.938  10.989  2.9315 -3.3062 -0.5254
  908MOL0     H19818   6.789   4.903  10.994  2.7778 -2.5074 -3.9984
  908MOL0     H19819   6.630   5.098  10.962 -0.6357  1.7345 -3.4896
  908MOL0     H19820   6.361   5.352  11.132  0.1078 -2.0341 -2.1265
  908MOL0     H19821   6.180   5.518  11.129 -0.6452  2.7335  0.2189
  908MOL0     H19822   5.964   5.578  11.008 -3.7024  1.1009 -0.3161
  908MOL0     H19823   5.925   5.728  10.939 -0.8210  0.1753 -0.0705
  908MOL0     H19824   6.080   5.833  11.113 -2.1583  0.6497 -0.1776
  908MOL0     H19825   6.091   5.674  11.192 -0.7496 -1.2248  0.5736
  908MOL0     H19826   5.836   5.856  11.177  0.5822  0.9128  0.3755
  908MOL0     H19827   5.933   5.812  11.321 -2.0300 -0.2145  0.5899
  908MOL0     H19828   5.753   5.641  11.147  0.4344 -1.3866  0.2328
  908MOL0     H19829   5.872   5.587  11.270  1.7812  1.4459  0.2673
  908MOL0     H19830   5.657   5.789  11.339 -1.0435  0.1109 -2.0577
  908MOL0     H19831   5.773   5.717  11.454  0.1254 -0.7783 -0.6465
  908MOL0     H19832   5.556   5.604  11.484  0.3112 -1.8856  1.5161
  908MOL0     H19833   5.682   5.489  11.441 -1.3054 -1.9736 -0.7607
  908MOL0     H19834   5.525   5.609  11.221 -0.6170 -2.3182 -2.5607
  908MOL0     H19835   5.612   5.452  11.235  2.1685  1.2377 -0.0255
  908MOL0     H19836   5.358   5.426  11.239  0.3105 -1.4218  0.2902
  908MOL0     H19837   5.361   5.526  11.392  2.0925 -1.0913  1.8163
  908MOL0     H19838   6.314   5.644  10.737  0.3278 -1.6872 -0.7003
  908MOL0     H19839   6.522   5.517  10.771  0.4247  0.8899  0.8247
  908MOL0     H19840   6.971   5.351  10.891 -1.1232  0.6422  0.7107
  908MOL0     H19841   7.120   5.159  10.911 -0.0499  1.6385  1.7222
  908MOL0     H19842   8.872   4.598  10.266  3.1304 -0.4653  2.6369
  908MOL0     H19843   9.080   4.497  10.181  0.3119 -0.0824  1.1345
  908MOL0     H19844   9.477   4.353   9.928 -0.9505  0.3078  0.5268
  908MOL0     H19845   9.659   4.189   9.897  0.3376 -2.6474 -0.7232
  908MOL0     H19846   9.842   3.937  10.069 -1.6862  1.6650  2.8170
  908MOL0     H19847   9.799   4.095  10.025 -0.8232 -0.1281  1.2510
  908MOL0     H19848   9.797   3.884   9.787 -2.3391  3.2205 -2.5550
  908MOL0     H19849   9.806   4.057   9.779 -0.4942 -0.3641 -0.2744
  908MOL0     H19850  10.042   4.037   9.911  1.1875 -1.7071  0.9522
  908MOL0     H19851  10.022   3.991   9.738 -1.0582  0.1476  0.2298
  908MOL0     H19852  10.017   3.790   9.976  2.1633 -1.5136  0.8693
  908MOL0     H19853  10.022   3.760   9.798  1.1498 -0.1756  0.3350
  908MOL0     H19854  10.413   3.801   9.876 -0.2291 -1.5420 -4.0742
  908MOL0     H19855   9.440   3.895  10.109 -0.8645 -0.8899 -2.3867
  908MOL0     H19856   9.241   4.055  10.114 -0.2734  2.1498  0.2747
  909MOL0     O19857   7.064  10.904   9.887  0.0101  0.5097  0.1201
  909MOL0     C19858   7.040  10.797   9.938  1.0809  0.3937 -0.0811
  909MOL0     O19859   7.133  10.702   9.967  0.7907  0.2162  0.0959
  909MOL0     C19860   7.270  10.726   9.969 -0.1010  1.0987  0.1418
  909MOL0     C19861   7.330  10.846  10.011 -0.8225 -0.2471  0.3827
  909MOL0     C19862   7.469  10.862  10.022  0.5789 -0.2954  0.9621
  909MOL0     C19863   7.546  10.745  10.000 -0.4639  0.1564 -0.9886
  909MOL0     O19864   7.682  10.750  10.000  0.3789  0.1747 -0.3940
  909MOL0     C19865   7.736  10.817  10.117 -0.0155  0.5973  0.7175
  909MOL0     C19866   7.886  10.811  10.109  0.4912 -0.3392 -0.6151
  909MOL0     C19867   7.952  10.930  10.179 -0.0634  0.0892 -0.9397
  909MOL0     C19868   8.099  10.902  10.222 -0.1662 -0.2705 -0.4749
  909MOL0     C19869   8.171  11.028  10.266 -0.3850 -0.4226  0.7126
  909MOL0     C19870   8.307  10.997  10.330 -0.1099 -0.0667  0.2715
  909MOL0     C19871   8.400  11.122  10.343  0.4438  0.3645  0.3384
  909MOL0     C19872   8.470  11.158  10.205  0.0634  0.4968  0.1401
  909MOL0     N19873   8.572  11.259  10.224  0.1318 -0.3119 -1.3510
  909MOL0     C19874   8.591  11.355  10.132 -0.8530 -1.3739 -0.2485
  909MOL0     C19875   8.688  11.438  10.194  0.2438  0.5742  0.0925
  909MOL0     C19876   8.743  11.565  10.138 -0.1998 -0.8407  0.1370
  909MOL0     C19877   8.637  11.668  10.099 -0.6497  0.4061  0.0653
  909MOL0     C19878   8.548  11.712  10.210  0.8351 -0.4533 -0.2829
  909MOL0     C19879   8.432  11.812  10.178 -0.7892  0.7573 -1.1090
  909MOL0     O19880   8.353  11.764  10.066  1.2417  0.5719  0.3673
  909MOL0     C19881   8.218  11.795  10.062 -0.4099 -0.6561 -0.1777
  909MOL0     C19882   8.166  11.901  10.134  0.4635 -0.1159  0.0178
  909MOL0     C19883   8.026  11.922  10.140 -0.5691 -1.4413 -0.3282
  909MOL0     C19884   7.938  11.845  10.068 -0.1265  0.3588  0.5478
  909MOL0     C19885   7.794  11.861  10.053  0.7965  0.9217 -0.3339
  909MOL0     O19886   7.738  11.844   9.928 -0.3768 -0.4291 -0.5650
  909MOL0     C19887   7.602  11.843   9.928  1.2627 -0.1860 -0.4095
  909MOL0     C19888   7.538  11.949   9.864 -0.0441  0.4633 -0.0592
  909MOL0     C19889   7.400  11.960   9.865 -0.5189 -0.6539 -0.1198
  909MOL0     C19890   7.316  11.865   9.920  0.3762  0.8238 -0.0675
  909MOL0     O19891   7.180  11.892   9.934 -0.3162 -0.3868 -0.9442
  909MOL0     C19892   7.090  11.787   9.967  0.3354  0.7258 -0.3013
  909MOL0     C19893   6.943  11.833   9.948  0.6094  0.1819 -0.4895
  909MOL0     C19894   6.838  11.725   9.955  0.2865  0.1914  0.1044
  909MOL0     C19895   6.688  11.772   9.964 -0.3005 -0.0706 -0.2779
  909MOL0     C19896   6.599  11.656   9.904  1.4130  0.0095 -0.6991
  909MOL0     C19897   6.579  11.659   9.749 -0.6553  0.0495 -0.2146
  909MOL0     C19898   6.471  11.560   9.699  0.1059 -0.1752  0.5222
  909MOL0     C19899   6.491  11.496   9.564  0.1953  0.0444  0.2037
  909MOL0    Cl19900   6.519  11.612   9.435 -0.1594  0.2253  0.3164
  909MOL0     C19901   7.378  11.747   9.962  0.0237  0.2876 -0.7620
  909MOL0     C19902   7.516  11.738   9.958  0.1670 -0.1268 -0.4129
  909MOL0     O19903   7.732  11.884  10.158  0.4727 -0.3956 -0.3938
  909MOL0     C19904   7.994  11.742   9.981 -0.4445 -0.6622 -0.3772
  909MOL0     C19905   8.133  11.713   9.983 -0.8259 -0.3861 -0.9438
  909MOL0     N19906   8.735  11.373  10.306 -0.0300  0.3496  0.5383
  909MOL0     N19907   8.664  11.270  10.326  0.8149 -0.1207  0.7608
  909MOL0     C19908   7.491  10.623   9.960 -0.3851 -0.4807 -0.7107
  909MOL0     C19909   7.353  10.609   9.953 -0.3617 -0.6828 -0.8308
  909MOL0     C19910   6.896  10.745   9.950 -1.0697  0.0890  0.1241
  909MOL0     C19911   6.881  10.607   9.984 -0.2560  1.4415 -0.3804
  909MOL0     C19912   6.754  10.555   9.978 -0.0573 -0.5845  0.3015
  909MOL0     C19913   6.647  10.622   9.933  0.9639  0.3171  0.2806
  909MOL0     O19914   6.520  10.572   9.928  0.4525  0.4020  0.0329
  909MOL0     C19915   6.494  10.445   9.998  0.8543 -0.2566 -0.7195
  909MOL0     C19916   6.342  10.432   9.983  0.8648  0.0700 -0.6559
  909MOL0     C19917   6.291  10.292  10.019  0.0226  0.4922 -0.1686
  909MOL0     C19918   6.141  10.271   9.994 -0.3046 -0.0367 -0.5987
  909MOL0     C19919   6.053  10.352  10.081 -0.8088  0.1579  0.3267
  909MOL0     C19920   5.972  10.423  10.144 -0.2386 -0.7666  0.3293
  909MOL0     C19921   6.661  10.759   9.902  0.5305 -0.1502 -0.5448
  909MOL0     C19922   6.783  10.825   9.908  0.5159 -0.0337 -0.1600
  909MOL0     H19923   7.272  10.937  10.017 -1.8261 -0.9118  0.9722
  909MOL0     H19924   7.514  10.960  10.038  0.0212 -0.2017  2.0700
  909MOL0     H19925   7.701  10.770  10.210 -0.3154 -1.7422 -0.5061
  909MOL0     H19926   7.715  10.924  10.102  3.4330  1.2242 -0.5843
  909MOL0     H19927   7.932  10.806  10.009  1.4579  0.5513 -0.2350
  909MOL0     H19928   7.919  10.717  10.155  0.6841  0.1596  0.2960
  909MOL0     H19929   7.894  10.950  10.270 -0.6688 -0.7467 -1.1283
  909MOL0     H19930   7.941  11.019  10.117  2.2230  0.4705 -0.8800
  909MOL0     H19931   8.098  10.828  10.302  1.3206 -0.9709 -1.0770
  909MOL0     H19932   8.153  10.860  10.136  0.9863  2.6431 -1.3093
  909MOL0     H19933   8.116  11.082  10.344  1.8150 -0.4759  2.3899
  909MOL0     H19934   8.176  11.092  10.178  0.3475  1.5794  2.1315
  909MOL0     H19935   8.357  10.906  10.296 -4.0318 -2.1126 -0.5994
  909MOL0     H19936   8.282  10.973  10.433  0.4740  0.2621  0.4960
  909MOL0     H19937   8.357  11.209  10.392 -0.8175  2.2421 -3.6457
  909MOL0     H19938   8.483  11.094  10.408  0.7742 -2.9125 -1.2464
  909MOL0     H19939   8.402  11.184  10.124 -0.1874 -1.3978 -0.2976
  909MOL0     H19940   8.523  11.069  10.168 -0.7747 -0.0669  0.2772
  909MOL0     H19941   8.542  11.371  10.037  1.6697  3.0692 -1.0985
  909MOL0     H19942   8.803  11.553  10.047  0.5781  0.0889  0.5095
  909MOL0     H19943   8.797  11.625  10.212 -2.1631  1.2413 -0.0198
  909MOL0     H19944   8.582  11.635  10.011  0.0679  1.6838 -0.9061
  909MOL0     H19945   8.690  11.758  10.064 -0.1572 -0.7222 -2.2479
  909MOL0     H19946   8.500  11.619  10.242  1.3551 -0.6562 -0.0974
  909MOL0     H19947   8.611  11.758  10.286  1.6430 -3.0854  0.7512
  909MOL0     H19948   8.483  11.908  10.166 -1.4970  1.2468 -0.3099
  909MOL0     H19949   8.369  11.827  10.266  1.2513 -1.9704  1.0386
  909MOL0     H19950   8.233  11.964  10.191 -0.1668 -2.9014  4.2543
  909MOL0     H19951   7.977  12.007  10.187  1.9022 -0.0882 -0.0615
  909MOL0     H19952   7.594  12.030   9.817  1.7379 -1.6177 -1.7262
  909MOL0     H19953   7.345  12.043   9.820  2.0889  0.2660 -1.8469
  909MOL0     H19954   7.092  11.746  10.069  1.0429 -0.3962 -0.7459
  909MOL0     H19955   7.108  11.700   9.904 -0.0293  1.7792 -1.9032
  909MOL0     H19956   6.925  11.884   9.853 -1.1178  2.7081  1.0805
  909MOL0     H19957   6.922  11.907  10.026 -0.8329  1.3285 -1.9054
  909MOL0     H19958   6.865  11.675  10.049  3.4693  1.9090  0.2785
  909MOL0     H19959   6.855  11.653   9.875  1.5090 -1.1898  1.5374
  909MOL0     H19960   6.664  11.799  10.068  0.8939  0.7338 -0.1859
  909MOL0     H19961   6.664  11.859   9.903 -1.4099  1.8506  2.6602
  909MOL0     H19962   6.499  11.659   9.948  1.4406 -0.9592 -0.5522
  909MOL0     H19963   6.650  11.561   9.920 -0.1395 -1.1302 -2.1224
  909MOL0     H19964   6.670  11.643   9.691 -0.3054  2.2468 -0.3493
  909MOL0     H19965   6.539  11.756   9.719  0.0077 -0.2848 -2.3676
  909MOL0     H19966   6.453  11.479   9.770  0.1101  1.3430  2.3593
  909MOL0     H19967   6.375  11.613   9.702  0.4519  0.5770 -0.9365
  909MOL0     H19968   6.403  11.434   9.543  1.5806 -1.5557 -1.2284
  909MOL0     H19969   6.580  11.433   9.572 -0.1136 -0.2493  1.6305
  909MOL0     H19970   7.331  11.657   9.999  2.7482 -1.5709 -1.5745
  909MOL0     H19971   7.563  11.646   9.992 -1.4559 -0.9246 -0.2508
  909MOL0     H19972   7.924  11.678   9.928 -2.9958 -0.7199  2.7316
  909MOL0     H19973   8.161  11.628   9.921 -3.1908 -1.2567 -0.9364
  909MOL0     H19974   7.565  10.546   9.939 -0.1829  0.3977 -3.5934
  909MOL0     H19975   7.309  10.514   9.923  0.0788 -0.8099 -1.0886
  909MOL0     H19976   6.964  10.545  10.018 -2.0614 -0.0443  1.6265
  909MOL0     H19977   6.742  10.455  10.018 -0.0329  0.6835  3.8369
  909MOL0     H19978   6.519  10.435  10.104 -0.0341 -0.1711 -0.4967
  909MOL0     H19979   6.554  10.368   9.950  0.6123 -1.5218  0.9200
  909MOL0     H19980   6.284  10.494  10.051  0.5581 -0.9269  0.0220
  909MOL0     H19981   6.315  10.450   9.879  0.6382  0.7619 -0.4829
  909MOL0     H19982   6.310  10.273  10.125  0.8067  1.8679 -0.0449
  909MOL0     H19983   6.345  10.217   9.960 -1.8180 -1.3017  0.3156
  909MOL0     H19984   6.118  10.297   9.890  1.9257 -0.3165 -1.2247
  909MOL0     H19985   6.112  10.167  10.014 -0.8527  0.5970  2.3613
  909MOL0     H19986   5.913  10.491  10.203  1.5881  0.4667  0.8512
  909MOL0     H19987   6.574  10.821   9.879 -1.2902 -2.1361  0.5884
  909MOL0     H19988   6.794  10.928   9.877 -0.8376  0.1240 -0.1815
  910MOL0     O19989   7.593   4.524   7.503 -0.4738 -0.4113 -0.1411
  910MOL0     C19990   7.526   4.553   7.405  0.5031 -0.3268  0.8303
  910MOL0     O19991   7.572   4.564   7.276 -1.0092 -0.5983 -0.0121
  910MOL0     C19992   7.692   4.505   7.255 -0.5024  0.3501  0.0676
  910MOL0     C19993   7.803   4.592   7.223 -0.0834  0.3689  0.4393
  910MOL0     C19994   7.930   4.537   7.188  0.0677 -0.8877  0.2846
  910MOL0     C19995   7.948   4.397   7.181  0.5960 -0.3201 -0.3564
  910MOL0     O19996   8.073   4.339   7.147  0.2896 -0.5785 -0.5629
  910MOL0     C19997   8.192   4.425   7.148 -0.6768  0.2923 -0.8745
  910MOL0     C19998   8.316   4.339   7.179  0.8524 -0.4026  0.9644
  910MOL0     C19999   8.437   4.434   7.166  0.6956 -0.0412 -0.0735
  910MOL0     C20000   8.549   4.400   7.264 -0.1876  0.5475 -0.4034
  910MOL0     C20001   8.653   4.512   7.268  0.1901  0.5424 -0.2083
  910MOL0     C20002   8.764   4.449   7.351  0.2198 -0.0886  0.4661
  910MOL0     C20003   8.841   4.333   7.281 -0.7004 -0.1370 -0.3274
  910MOL0     C20004   8.979   4.326   7.346  0.4074 -0.3619  0.8573
  910MOL0     N20005   9.062   4.224   7.279  0.0931  0.4022  0.5926
  910MOL0     C20006   9.107   4.223   7.148  0.4867  0.5690  0.2910
  910MOL0     C20007   9.176   4.108   7.145  0.7284 -0.0000  0.2310
  910MOL0     C20008   9.239   4.061   7.012 -0.4273  0.7154 -0.1841
  910MOL0     C20009   9.384   4.050   7.043 -0.0964 -0.6180 -0.6104
  910MOL0     C20010   9.467   4.025   6.924 -0.2827  0.4960 -0.3904
  910MOL0     C20011   9.496   4.144   6.830  0.1228 -0.6674 -1.0774
  910MOL0     O20012   9.401   4.147   6.731  0.1217  0.4169  0.3879
  910MOL0     C20013   9.332   4.261   6.705  0.2516  0.5578  0.3269
  910MOL0     C20014   9.228   4.239   6.617 -0.6263 -0.2378 -0.3132
  910MOL0     C20015   9.139   4.343   6.574 -0.5177  0.5404 -0.5665
  910MOL0     C20016   9.168   4.473   6.620  0.0048  0.6236  0.7581
  910MOL0     C20017   9.071   4.573   6.577  0.3337 -0.1328  0.4509
  910MOL0     O20018   9.102   4.703   6.615  0.0650  0.2984  0.3291
  910MOL0     C20019   9.019   4.808   6.580 -0.1116  0.2574  0.1657
  910MOL0     C20020   9.086   4.922   6.537 -1.5612  0.9034  0.2025
  910MOL0     C20021   9.014   5.043   6.500 -0.1313  0.0387 -1.0933
  910MOL0     C20022   8.869   5.039   6.495 -0.8917 -0.1494 -0.9168
  910MOL0     O20023   8.801   5.158   6.459  0.0891 -0.1374  0.4079
  910MOL0     C20024   8.661   5.156   6.474  0.0438 -0.2767 -0.4692
  910MOL0     C20025   8.594   5.081   6.352 -0.3746 -1.1180 -0.8332
  910MOL0     C20026   8.445   5.099   6.339  0.5450 -0.2988  0.0599
  910MOL0     C20027   8.373   5.032   6.461  0.2727  0.0585  0.2474
  910MOL0     C20028   8.252   4.953   6.411  0.5300 -0.0972 -1.3294
  910MOL0     C20029   8.139   5.028   6.343 -0.5793  0.2931 -0.9530
  910MOL0     C20030   8.007   4.981   6.394 -0.2387 -0.6074  0.5704
  910MOL0     C20031   7.887   5.029   6.305 -0.6021  0.3562  0.0563
  910MOL0    Cl20032   7.731   5.002   6.385  0.1392 -0.2561 -0.1855
  910MOL0     C20033   8.809   4.928   6.559 -0.2935 -0.9103  0.2422
  910MOL0     C20034   8.879   4.814   6.594 -0.2843  0.4930 -0.2309
  910MOL0     O20035   8.976   4.556   6.500  0.1209  1.0998 -0.2684
  910MOL0     C20036   9.278   4.495   6.698  0.0021 -0.0518  0.2657
  910MOL0     C20037   9.357   4.389   6.740 -0.4601 -0.9638  0.2306
  910MOL0     N20038   9.179   4.050   7.272  0.3138 -0.3036  0.3231
  910MOL0     N20039   9.120   4.125   7.354 -0.3938  0.9243  0.0509
  910MOL0     C20040   7.832   4.317   7.194  0.2207 -0.1488 -0.1084
  910MOL0     C20041   7.710   4.365   7.243  0.7846  0.0843  0.4521
  910MOL0     C20042   7.386   4.592   7.424  0.2549  0.5234 -0.7975
  910MOL0     C20043   7.312   4.640   7.317 -0.0300 -0.0915  0.5737
  910MOL0     C20044   7.179   4.677   7.333 -0.3010  0.3222 -0.7160
  910MOL0     C20045   7.121   4.660   7.456  0.9993 -0.5101 -0.9925
  910MOL0     O20046   6.991   4.693   7.466  0.1663  0.1058  0.1348
  910MOL0     C20047   6.966   4.808   7.545 -0.1121  0.1620 -0.1919
  910MOL0     C20048   6.814   4.827   7.569 -0.3515  1.2670  0.5821
  910MOL0     C20049   6.744   4.879   7.447 -0.0700  0.5154  0.5923
  910MOL0     C20050   6.592   4.901   7.469 -0.4947  0.1519 -0.4269
  910MOL0     C20051   6.557   5.013   7.557 -0.6133 -1.4271  1.3378
  910MOL0     C20052   6.516   5.105   7.625 -0.6013  0.9121 -0.2627
  910MOL0     C20053   7.189   4.608   7.563 -0.4161 -0.1227 -0.7417
  910MOL0     C20054   7.323   4.578   7.550 -0.0691  0.9598 -0.1102
  910MOL0     H20055   7.779   4.697   7.235 -3.4216 -0.3651  1.0500
  910MOL0     H20056   8.016   4.601   7.173 -0.2853 -0.3233  0.6013
  910MOL0     H20057   8.186   4.501   7.227 -0.1422  1.7221 -2.1521
  910MOL0     H20058   8.207   4.477   7.053  2.8854  0.1101 -0.5283
  910MOL0     H20059   8.331   4.248   7.120  0.9214  1.5110 -2.1985
  910MOL0     H20060   8.301   4.294   7.278  2.9055 -1.9118  0.6594
  910MOL0     H20061   8.405   4.537   7.183 -0.5111 -0.7680  2.5718
  910MOL0     H20062   8.461   4.427   7.060 -1.8967 -0.4539 -0.6993
  910MOL0     H20063   8.506   4.373   7.361  2.9272 -1.3421  0.6214
  910MOL0     H20064   8.597   4.311   7.223  0.2957 -0.7496  2.6613
  910MOL0     H20065   8.607   4.598   7.318  2.2978  1.2578  0.5909
  910MOL0     H20066   8.695   4.532   7.170  3.0312  0.3543  0.8788
  910MOL0     H20067   8.735   4.437   7.456 -0.8951 -1.3742  0.0321
  910MOL0     H20068   8.832   4.535   7.362 -0.5843  0.9469 -1.9547
  910MOL0     H20069   8.784   4.241   7.296 -1.2249 -0.3765 -3.2241
  910MOL0     H20070   8.848   4.349   7.173  0.3676 -0.5059 -0.3218
  910MOL0     H20071   8.963   4.292   7.449 -0.6505 -0.1343  0.7826
  910MOL0     H20072   9.024   4.426   7.351 -0.2876 -0.0887  2.8793
  910MOL0     H20073   9.071   4.285   7.067  2.3980  0.8479 -0.3927
  910MOL0     H20074   9.205   4.136   6.940 -4.0600 -0.7527 -0.2199
  910MOL0     H20075   9.183   3.970   6.989  0.5275 -0.6106  2.3739
  910MOL0     H20076   9.382   3.956   7.098  1.7150 -1.0167 -1.1352
  910MOL0     H20077   9.434   4.122   7.109  0.1403 -1.0779 -0.2837
  910MOL0     H20078   9.565   3.989   6.958 -0.7743  0.7850  1.4920
  910MOL0     H20079   9.423   3.945   6.864  1.0272  1.2731 -2.4978
  910MOL0     H20080   9.588   4.130   6.773 -0.1706 -1.6120 -1.3249
  910MOL0     H20081   9.505   4.242   6.880  2.2257 -0.6880 -1.3549
  910MOL0     H20082   9.215   4.134   6.593 -1.9993  0.1463 -1.3572
  910MOL0     H20083   9.067   4.309   6.501  2.4211 -2.8631 -2.1997
  910MOL0     H20084   9.193   4.919   6.551 -1.3790  0.6891 -1.1315
  910MOL0     H20085   9.068   5.131   6.466  1.0835 -0.1926  0.1453
  910MOL0     H20086   8.621   5.257   6.479 -1.9315 -0.9595 -1.2529
  910MOL0     H20087   8.621   5.124   6.570 -1.3015 -0.1965 -0.9806
  910MOL0     H20088   8.610   4.975   6.375 -0.4572 -1.0304 -0.3528
  910MOL0     H20089   8.644   5.090   6.255  4.0874 -0.5923  1.2599
  910MOL0     H20090   8.408   5.054   6.247 -1.3005 -1.5925  1.3676
  910MOL0     H20091   8.424   5.206   6.324  1.7910 -0.4463 -3.5210
  910MOL0     H20092   8.423   4.957   6.523 -1.8907 -0.5937  1.2939
  910MOL0     H20093   8.351   5.113   6.532 -1.0610 -1.4582  1.6320
  910MOL0     H20094   8.211   4.897   6.495  1.8270  1.6603  0.5537
  910MOL0     H20095   8.284   4.875   6.340 -2.8874 -2.8270 -0.1629
  910MOL0     H20096   8.129   5.007   6.236  0.7687 -0.1044 -1.0298
  910MOL0     H20097   8.143   5.136   6.357 -0.2754 -0.0989  3.6549
  910MOL0     H20098   8.003   4.872   6.397 -1.5179 -0.5792  0.5964
  910MOL0     H20099   7.995   5.018   6.497  0.5691  0.2819  0.3522
  910MOL0     H20100   7.897   4.972   6.213  1.2479  3.3404 -1.7446
  910MOL0     H20101   7.890   5.135   6.278  2.3035 -0.0528 -1.5989
  910MOL0     H20102   8.702   4.918   6.574 -0.2229  0.5010  2.0265
  910MOL0     H20103   8.831   4.719   6.614 -1.1002  0.7003 -1.1271
  910MOL0     H20104   9.294   4.596   6.732  0.7761 -0.5090  1.3493
  910MOL0     H20105   9.436   4.427   6.804 -1.5930  0.4994  0.8319
  910MOL0     H20106   7.838   4.211   7.173 -3.0344 -0.1693 -1.6293
  910MOL0     H20107   7.623   4.301   7.253 -1.8075  3.3936  0.9671
  910MOL0     H20108   7.358   4.654   7.220 -1.5530  0.2474 -0.1336
  910MOL0     H20109   7.112   4.729   7.266 -0.5338 -0.8102 -1.3917
  910MOL0     H20110   7.015   4.894   7.499 -0.4182 -0.4985 -1.8220
  910MOL0     H20111   7.009   4.790   7.645 -0.3211  2.1208  0.2836
  910MOL0     H20112   6.754   4.742   7.602 -1.1890  0.9938 -1.4930
  910MOL0     H20113   6.801   4.904   7.646  2.6928  0.7791  1.7350
  910MOL0     H20114   6.774   4.810   7.367  0.7260  1.1138  0.3577
  910MOL0     H20115   6.790   4.976   7.422  0.5983  0.3151  0.9993
  910MOL0     H20116   6.540   4.912   7.373  0.9817  1.0826 -1.1664
  910MOL0     H20117   6.566   4.810   7.523 -0.6109  0.9814  0.9605
  910MOL0     H20118   6.476   5.180   7.690  0.0099  2.5432 -1.7052
  910MOL0     H20119   7.156   4.595   7.665 -0.6843  3.4052 -0.2684
  910MOL0     H20120   7.383   4.559   7.639  1.8623  0.7780 -1.3929
  911MOL0     O20121   3.693   5.731   5.149 -0.0505 -0.1176 -0.1164
  911MOL0     C20122   3.688   5.850   5.148 -0.1790  0.6474  0.7296
  911MOL0     O20123   3.589   5.924   5.203  0.0223 -0.0813  0.1380
  911MOL0     C20124   3.502   5.885   5.299  0.3415  0.0219  0.3604
  911MOL0     C20125   3.468   5.755   5.338 -0.2420 -0.1550 -0.0619
  911MOL0     C20126   3.366   5.734   5.426 -0.2388  0.0609 -0.4031
  911MOL0     C20127   3.297   5.833   5.492  0.6518 -0.1040  0.0808
  911MOL0     O20128   3.192   5.814   5.584 -0.8089 -0.3063 -0.0979
  911MOL0     C20129   3.173   5.678   5.637  0.6842 -0.2981 -0.5072
  911MOL0     C20130   3.072   5.688   5.753 -0.3815 -0.4210  0.8278
  911MOL0     C20131   3.140   5.752   5.874 -0.2507 -0.3775  0.5292
  911MOL0     C20132   3.046   5.842   5.953  0.8312  0.8562 -0.4033
  911MOL0     C20133   2.921   5.773   6.008 -0.3470 -0.3095 -0.1307
  911MOL0     C20134   2.821   5.886   6.055 -0.5926 -0.0232  0.8070
  911MOL0     C20135   2.857   5.957   6.187  0.4202 -0.5337  0.5402
  911MOL0     C20136   2.926   5.871   6.295  0.2058 -0.1604 -0.8327
  911MOL0     N20137   2.846   5.750   6.330  0.2918 -0.1444  0.6267
  911MOL0     C20138   2.888   5.623   6.340  0.3759 -0.9927  0.8684
  911MOL0     C20139   2.783   5.556   6.393 -0.8348 -0.4668  0.1993
  911MOL0     C20140   2.800   5.409   6.421 -0.7602  0.4177 -1.0076
  911MOL0     C20141   2.694   5.316   6.381 -0.0730  0.2190 -0.9186
  911MOL0     C20142   2.561   5.335   6.457  0.6230  0.6445 -0.1825
  911MOL0     C20143   2.453   5.393   6.374  0.2278 -0.3439 -0.4433
  911MOL0     O20144   2.333   5.337   6.428  0.4685 -0.5826  0.3955
  911MOL0     C20145   2.213   5.358   6.367 -0.6492 -0.0989  0.0170
  911MOL0     C20146   2.100   5.294   6.422 -0.6542  0.4587 -0.2891
  911MOL0     C20147   1.970   5.303   6.370  0.2774  0.6015 -0.6034
  911MOL0     C20148   1.947   5.371   6.249  0.0078 -0.3316 -0.2734
  911MOL0     C20149   1.815   5.386   6.198  0.2308  0.1685 -0.1636
  911MOL0     O20150   1.719   5.308   6.242 -0.2000  0.6177  0.6431
  911MOL0     C20151   1.585   5.329   6.218 -0.5001  0.7709  0.0677
  911MOL0     C20152   1.517   5.298   6.094 -0.3214 -0.1096 -0.6285
  911MOL0     C20153   1.373   5.314   6.085  0.2195  0.0491 -1.0722
  911MOL0     C20154   1.304   5.360   6.199  0.5180 -0.1808 -0.1561
  911MOL0     O20155   1.172   5.383   6.205 -0.0996 -0.2538 -0.1975
  911MOL0     C20156   1.081   5.299   6.129 -0.5020  1.4437 -0.7983
  911MOL0     C20157   0.936   5.342   6.160 -0.1644  0.2472 -0.8666
  911MOL0     C20158   0.899   5.324   6.308  0.1647 -0.3625  0.1843
  911MOL0     C20159   0.757   5.366   6.339 -0.5348  0.5839  0.0313
  911MOL0     C20160   0.710   5.300   6.463  0.1938 -0.9914 -0.2835
  911MOL0     C20161   0.563   5.313   6.490  0.5131  0.5338  0.7542
  911MOL0     C20162   0.536   5.291   6.636 -0.3624  0.9773 -0.5442
  911MOL0     C20163   0.397   5.322   6.667  0.2935  0.3583 -0.2832
  911MOL0    Cl20164   0.389   5.495   6.698 -0.2299  0.1870 -0.3751
  911MOL0     C20165   1.373   5.381   6.318  0.5334  0.0882 -0.4050
  911MOL0     C20166   1.511   5.367   6.330  0.4631  0.6836  0.2027
  911MOL0     O20167   1.794   5.474   6.116  0.5195  0.5357  0.1036
  911MOL0     C20168   2.061   5.439   6.200  0.1173 -0.2538 -0.6026
  911MOL0     C20169   2.186   5.435   6.257 -0.1394  0.0312 -0.1769
  911MOL0     N20170   2.679   5.650   6.412 -0.0050  0.5598  0.4129
  911MOL0     N20171   2.715   5.767   6.370 -0.8854 -0.0189 -0.0479
  911MOL0     C20172   3.336   5.962   5.468 -0.2894  0.2656 -0.4242
  911MOL0     C20173   3.444   5.991   5.369  0.8779  0.9825 -0.7147
  911MOL0     C20174   3.808   5.925   5.093  0.3719 -0.8314  0.4925
  911MOL0     C20175   3.827   6.056   5.137  0.0786 -0.4943 -0.3506
  911MOL0     C20176   3.936   6.137   5.081 -0.1252 -0.8644 -0.4785
  911MOL0     C20177   4.022   6.080   4.995 -0.4521 -0.7478 -0.0232
  911MOL0     O20178   4.122   6.164   4.953 -0.2738 -0.5204  0.3357
  911MOL0     C20179   4.246   6.118   4.899 -0.0875 -0.2642  0.7984
  911MOL0     C20180   4.295   6.201   4.776  0.2844  0.1867  0.1813
  911MOL0     C20181   4.175   6.212   4.678 -0.6770 -0.2809  0.9547
  911MOL0     C20182   4.112   6.084   4.619 -0.3443 -0.0276 -0.3559
  911MOL0     C20183   4.208   6.011   4.535 -0.7465  0.1789  0.0547
  911MOL0     C20184   4.293   5.949   4.470 -0.9432 -0.1201 -0.5607
  911MOL0     C20185   4.005   5.952   4.955  0.1451  0.1557 -0.0412
  911MOL0     C20186   3.896   5.878   4.999  0.1143  0.6126 -0.4712
  911MOL0     H20187   3.506   5.662   5.298 -0.4515 -0.7233  1.0285
  911MOL0     H20188   3.353   5.628   5.446  4.1180 -0.2161  2.3522
  911MOL0     H20189   3.264   5.633   5.679  1.8774 -0.0626 -2.6964
  911MOL0     H20190   3.141   5.605   5.562 -0.3545  1.7843 -2.1785
  911MOL0     H20191   3.023   5.591   5.762  0.6413 -1.0435  0.0101
  911MOL0     H20192   2.994   5.753   5.714  0.2338 -1.6434 -2.8058
  911MOL0     H20193   3.222   5.816   5.839 -1.1329  0.2374 -0.4649
  911MOL0     H20194   3.172   5.670   5.940  0.7830  0.2359  0.8232
  911MOL0     H20195   3.099   5.891   6.035 -0.2742 -1.7827  2.0300
  911MOL0     H20196   3.011   5.927   5.894  1.6738  3.5579  2.6943
  911MOL0     H20197   2.958   5.709   6.088 -1.2344 -1.1196 -0.3524
  911MOL0     H20198   2.878   5.708   5.931  0.8232  0.5352 -1.5583
  911MOL0     H20199   2.719   5.849   6.069 -1.1073 -0.1352 -2.4760
  911MOL0     H20200   2.793   5.961   5.981 -2.0388  0.0137  1.3500
  911MOL0     H20201   2.924   6.040   6.163  1.2314 -0.8238  1.7577
  911MOL0     H20202   2.767   6.003   6.230 -0.2897 -1.6287  0.2677
  911MOL0     H20203   2.936   5.912   6.395 -0.5156 -0.2016 -0.7334
  911MOL0     H20204   3.027   5.845   6.263  0.8881  2.0459 -0.5916
  911MOL0     H20205   2.984   5.575   6.325  0.6579  0.3556 -2.3269
  911MOL0     H20206   2.808   5.411   6.530  1.0222  2.7851 -1.0914
  911MOL0     H20207   2.896   5.372   6.384 -0.5452  2.0789 -2.2451
  911MOL0     H20208   2.734   5.214   6.377  0.3504  0.4025 -1.7550
  911MOL0     H20209   2.670   5.340   6.277  0.1006  1.9126 -0.5808
  911MOL0     H20210   2.537   5.232   6.484 -1.6337  0.9744 -0.7647
  911MOL0     H20211   2.573   5.398   6.546  2.7378  0.6360 -0.4121
  911MOL0     H20212   2.448   5.354   6.272 -0.7157 -0.1841 -0.4618
  911MOL0     H20213   2.443   5.502   6.380  0.1921 -0.4137  1.0971
  911MOL0     H20214   2.116   5.228   6.506 -1.6580 -2.4727 -2.2265
  911MOL0     H20215   1.890   5.252   6.423 -2.8517  4.3647 -1.3025
  911MOL0     H20216   1.587   5.264   6.018  1.4932  2.0640 -0.0527
  911MOL0     H20217   1.322   5.290   5.993 -3.7409  0.2547  0.8864
  911MOL0     H20218   1.108   5.197   6.158  1.7531  2.1458 -0.1645
  911MOL0     H20219   1.097   5.306   6.021 -0.1341  0.5261 -0.8108
  911MOL0     H20220   0.868   5.283   6.098 -1.5389  0.9398 -0.0706
  911MOL0     H20221   0.907   5.443   6.129  0.0047  0.1820 -1.2429
  911MOL0     H20222   0.963   5.390   6.367 -0.6405  1.7867 -1.2143
  911MOL0     H20223   0.910   5.218   6.332  3.0002 -0.4111 -0.9023
  911MOL0     H20224   0.742   5.474   6.342 -1.5385  0.5790 -2.3864
  911MOL0     H20225   0.702   5.333   6.250  1.1052  1.6675 -1.4616
  911MOL0     H20226   0.757   5.363   6.540 -0.2884 -1.4996  0.4478
  911MOL0     H20227   0.743   5.196   6.474  0.2639 -0.7040  3.8363
  911MOL0     H20228   0.518   5.235   6.429  2.4328 -0.8460  1.0105
  911MOL0     H20229   0.521   5.409   6.459 -0.8927 -0.3618 -0.2055
  911MOL0     H20230   0.552   5.185   6.660 -0.5817  0.5805 -1.9941
  911MOL0     H20231   0.603   5.345   6.703 -2.2695  1.6463  0.9233
  911MOL0     H20232   0.374   5.270   6.761  0.2416 -1.9256 -1.4731
  911MOL0     H20233   0.316   5.301   6.597  0.5756  2.0733 -1.1489
  911MOL0     H20234   1.312   5.417   6.400 -2.5248  1.9003 -3.2198
  911MOL0     H20235   1.552   5.372   6.431  0.0944 -7.5543  1.4546
  911MOL0     H20236   2.037   5.502   6.116 -1.5137 -2.4272 -1.8783
  911MOL0     H20237   2.259   5.493   6.203 -0.0676 -1.7119 -2.0501
  911MOL0     H20238   3.285   6.045   5.516 -0.9252  0.2984 -1.1504
  911MOL0     H20239   3.467   6.094   5.346  0.9447  0.4417 -3.3758
  911MOL0     H20240   3.754   6.098   5.204 -3.1356 -0.3190 -3.6615
  911MOL0     H20241   3.932   6.242   5.106  0.8367 -0.7720 -0.6922
  911MOL0     H20242   4.244   6.015   4.863 -0.6180 -0.1285  0.4296
  911MOL0     H20243   4.329   6.115   4.971  0.6490 -0.6324 -0.0461
  911MOL0     H20244   4.321   6.304   4.803  1.5046 -0.3960  1.3731
  911MOL0     H20245   4.376   6.144   4.728  0.4054  0.3861  0.1423
  911MOL0     H20246   4.216   6.263   4.590  2.7358 -0.5334  2.2597
  911MOL0     H20247   4.100   6.280   4.718 -1.5721 -0.7406  0.1078
  911MOL0     H20248   4.077   6.021   4.702 -0.4536  0.5182  0.0182
  911MOL0     H20249   4.026   6.099   4.553 -0.0238 -3.7275 -1.8485
  911MOL0     H20250   4.382   5.909   4.427 -1.0830  0.2653 -1.2148
  911MOL0     H20251   4.071   5.893   4.893 -1.3458  0.8035 -2.4006
  911MOL0     H20252   3.878   5.785   4.945 -0.6382  1.6576 -2.1115
  912MOL0     O20253   5.350   3.674   5.031 -0.0482  0.2923  0.2666
  912MOL0     C20254   5.356   3.549   5.027 -0.2722 -0.8859 -0.2342
  912MOL0     O20255   5.255   3.460   5.057  0.0940 -0.2869 -0.0412
  912MOL0     C20256   5.129   3.492   5.102  0.9882  0.6587 -0.3845
  912MOL0     C20257   5.082   3.611   5.160 -0.1572 -0.2003  0.2979
  912MOL0     C20258   4.952   3.636   5.182  0.0415  0.2274  0.7083
  912MOL0     C20259   4.858   3.540   5.134  0.2608  0.3324  0.2855
  912MOL0     O20260   4.721   3.546   5.138  0.0296 -0.0626 -0.2355
  912MOL0     C20261   4.662   3.669   5.167 -0.2545  0.5995  0.2795
  912MOL0     C20262   4.517   3.669   5.221 -0.6523 -0.3677  0.2231
  912MOL0     C20263   4.510   3.577   5.343 -0.0890  0.3237 -1.0889
  912MOL0     C20264   4.360   3.539   5.372  0.1184  0.2262  1.2147
  912MOL0     C20265   4.351   3.461   5.499 -0.4160  0.2378  0.0620
  912MOL0     C20266   4.209   3.415   5.514  0.0065 -0.1215  0.1890
  912MOL0     C20267   4.187   3.356   5.651 -0.4292 -0.9792 -0.4022
  912MOL0     C20268   4.195   3.439   5.776 -0.0739  0.6503  0.8521
  912MOL0     N20269   4.089   3.532   5.770  0.3742  0.0947 -0.9012
  912MOL0     C20270   3.959   3.498   5.763 -0.4352 -0.5297  0.8585
  912MOL0     C20271   3.902   3.618   5.725 -0.0194  0.4830  0.9285
  912MOL0     C20272   3.756   3.650   5.716 -0.7468  0.0080  0.4660
  912MOL0     C20273   3.676   3.606   5.838 -0.5073  0.0359  0.1303
  912MOL0     C20274   3.529   3.595   5.807 -0.5893 -0.1812  0.0338
  912MOL0     C20275   3.452   3.548   5.939  0.1904  0.8057  0.8341
  912MOL0     O20276   3.310   3.555   5.905 -0.2552  0.0603 -0.0505
  912MOL0     C20277   3.214   3.525   6.005 -0.0744  0.4628  0.1505
  912MOL0     C20278   3.250   3.471   6.133 -0.3079 -0.1919  1.0339
  912MOL0     C20279   3.150   3.459   6.230 -0.0080 -0.7604 -0.1616
  912MOL0     C20280   3.027   3.519   6.207 -0.3986 -0.1291 -0.4723
  912MOL0     C20281   2.924   3.506   6.317  0.8405  0.1587  1.0913
  912MOL0     O20282   2.785   3.520   6.283 -0.2542  0.6497  0.7719
  912MOL0     C20283   2.680   3.507   6.375 -0.9295  0.2186 -0.2661
  912MOL0     C20284   2.552   3.521   6.320 -0.3268 -0.3389  0.0354
  912MOL0     C20285   2.438   3.537   6.385 -0.8740 -0.2048 -0.0369
  912MOL0     C20286   2.440   3.535   6.528  0.0916 -0.0331 -0.3054
  912MOL0     O20287   2.327   3.556   6.609  0.3877  0.0122  0.5536
  912MOL0     C20288   2.210   3.492   6.568  0.0064  0.7317 -0.1634
  912MOL0     C20289   2.095   3.546   6.647  0.7246 -0.2990  0.2026
  912MOL0     C20290   1.959   3.490   6.580  0.2045  0.3700  0.2285
  912MOL0     C20291   1.828   3.555   6.632  0.8542  0.6328  0.0260
  912MOL0     C20292   1.818   3.559   6.783 -0.3645  0.6619  0.0239
  912MOL0     C20293   1.781   3.422   6.835  0.3544  0.2112 -0.7500
  912MOL0     C20294   1.745   3.438   6.981  0.4005  0.5534  0.8665
  912MOL0     C20295   1.733   3.294   7.057  0.5636  0.6305  0.7325
  912MOL0    Cl20296   1.605   3.181   6.982  0.2584  0.3714 -0.4520
  912MOL0     C20297   2.565   3.524   6.595  0.4538 -0.5372  0.1416
  912MOL0     C20298   2.685   3.508   6.518 -0.0674  0.4432 -0.2656
  912MOL0     O20299   2.966   3.474   6.423 -0.3802 -0.2704 -0.0709
  912MOL0     C20300   2.995   3.578   6.085 -0.1960  1.0559 -0.6474
  912MOL0     C20301   3.090   3.578   5.983  0.2661  0.4400  0.5901
  912MOL0     N20302   4.002   3.717   5.713 -0.3040  0.2048  0.0339
  912MOL0     N20303   4.117   3.659   5.744 -0.0525 -0.4198  0.1488
  912MOL0     C20304   4.903   3.423   5.085 -0.3472  0.0333  0.2911
  912MOL0     C20305   5.037   3.393   5.071 -0.2035  0.5890  0.2365
  912MOL0     C20306   5.480   3.479   4.981 -0.3448 -0.2834 -0.3696
  912MOL0     C20307   5.475   3.334   4.968 -0.7241  0.2774 -0.1774
  912MOL0     C20308   5.591   3.275   4.909 -0.1617 -0.4784  0.4297
  912MOL0     C20309   5.701   3.356   4.874 -0.0137 -0.3947  0.5202
  912MOL0     O20310   5.813   3.308   4.815 -0.5297 -0.3610 -0.3881
  912MOL0     C20311   5.806   3.200   4.720 -0.2630 -0.2038  0.1763
  912MOL0     C20312   5.944   3.176   4.650 -0.3981 -0.2801 -0.7502
  912MOL0     C20313   6.055   3.135   4.744  0.7090 -0.0244 -0.1786
  912MOL0     C20314   6.182   3.097   4.669 -0.4337 -0.5132  0.1531
  912MOL0     C20315   6.190   2.959   4.620 -0.5218  0.3449 -0.6611
  912MOL0     C20316   6.219   2.859   4.557 -0.5357 -0.0941  0.1021
  912MOL0     C20317   5.700   3.498   4.877 -0.0804  0.4028  0.4791
  912MOL0     C20318   5.593   3.558   4.942 -0.5790 -0.4178 -0.0571
  912MOL0     H20319   5.159   3.676   5.201  2.3201 -3.5337  1.3813
  912MOL0     H20320   4.919   3.731   5.222  0.3235  0.5094  0.2665
  912MOL0     H20321   4.660   3.735   5.081 -2.2350  3.3678  2.2531
  912MOL0     H20322   4.724   3.715   5.245  0.9345 -0.5308  0.0241
  912MOL0     H20323   4.445   3.635   5.147 -1.0683  2.1421 -0.6085
  912MOL0     H20324   4.490   3.771   5.251 -0.5921 -0.2519 -0.1059
  912MOL0     H20325   4.548   3.630   5.430 -1.1929  1.7021 -1.4037
  912MOL0     H20326   4.564   3.483   5.327 -0.4911  0.0887 -1.0976
  912MOL0     H20327   4.301   3.631   5.367 -1.5139 -0.8919 -1.2913
  912MOL0     H20328   4.321   3.481   5.289  3.0228 -2.2453  1.4091
  912MOL0     H20329   4.387   3.522   5.583  0.3490 -0.2617  0.0977
  912MOL0     H20330   4.420   3.378   5.485 -0.7130 -0.3104  1.6426
  912MOL0     H20331   4.197   3.335   5.441  0.0361  1.1255 -1.2456
  912MOL0     H20332   4.134   3.495   5.508 -1.4364 -1.4739 -0.2604
  912MOL0     H20333   4.089   3.307   5.657 -0.3174 -1.0593  1.3887
  912MOL0     H20334   4.273   3.290   5.660  0.9879  0.7256 -1.0123
  912MOL0     H20335   4.296   3.480   5.780  1.5209 -2.8064 -0.2022
  912MOL0     H20336   4.175   3.379   5.866 -2.2368 -0.5596 -0.3431
  912MOL0     H20337   3.920   3.398   5.780  0.6986 -1.4771 -1.6852
  912MOL0     H20338   3.724   3.604   5.622 -0.2101 -1.6892  1.0798
  912MOL0     H20339   3.728   3.755   5.702 -2.0760 -0.6102 -2.2053
  912MOL0     H20340   3.704   3.672   5.920  0.3889 -0.2576  0.0680
  912MOL0     H20341   3.717   3.507   5.863  1.3072  0.1769 -2.0001
  912MOL0     H20342   3.500   3.694   5.772  0.6483 -0.1733 -1.0331
  912MOL0     H20343   3.505   3.527   5.725 -1.2601  0.7368 -0.5502
  912MOL0     H20344   3.480   3.611   6.025  2.1672 -1.5058  2.0013
  912MOL0     H20345   3.478   3.445   5.962 -0.4333  0.6086  0.6771
  912MOL0     H20346   3.353   3.446   6.159  0.5878  0.9172 -1.1530
  912MOL0     H20347   3.183   3.410   6.321 -2.0476 -0.7459  0.6289
  912MOL0     H20348   2.544   3.501   6.213 -0.6670 -0.4244  0.0748
  912MOL0     H20349   2.351   3.546   6.320 -1.7115 -1.5813  0.8431
  912MOL0     H20350   2.225   3.385   6.583 -3.2478 -0.0458 -1.5824
  912MOL0     H20351   2.197   3.502   6.460  2.0194 -0.0828 -0.5133
  912MOL0     H20352   2.092   3.654   6.630 -3.7040 -0.5994 -2.7153
  912MOL0     H20353   2.110   3.521   6.752  1.4725 -0.0777  0.1495
  912MOL0     H20354   1.951   3.382   6.595 -0.7476  0.3350 -0.4427
  912MOL0     H20355   1.966   3.510   6.472  5.1998  1.1023  0.4261
  912MOL0     H20356   1.831   3.656   6.589 -0.3568 -0.8655 -4.0142
  912MOL0     H20357   1.744   3.512   6.577  0.5793  2.0369 -0.7068
  912MOL0     H20358   1.737   3.625   6.814 -2.3835 -1.6383 -0.1070
  912MOL0     H20359   1.915   3.579   6.830  0.7527 -1.4587 -1.2158
  912MOL0     H20360   1.867   3.354   6.827  0.8278  0.2996  2.5204
  912MOL0     H20361   1.703   3.375   6.774 -0.3320 -0.3266  0.5181
  912MOL0     H20362   1.820   3.503   7.028  0.4744 -0.2318  1.8752
  912MOL0     H20363   1.648   3.487   6.996 -0.2370  0.1262 -1.5275
  912MOL0     H20364   1.702   3.310   7.160  0.1126 -6.3996  2.1836
  912MOL0     H20365   1.831   3.246   7.051  1.0186  1.6978 -1.1472
  912MOL0     H20366   2.565   3.527   6.703  1.4948 -1.8472  0.2082
  912MOL0     H20367   2.783   3.506   6.564  0.2833 -1.0001 -1.0071
  912MOL0     H20368   2.897   3.623   6.070 -0.2082  1.6819  1.0896
  912MOL0     H20369   3.063   3.615   5.884 -0.1404  2.1601  1.3118
  912MOL0     H20370   4.820   3.359   5.055  1.3506 -2.4526  0.6494
  912MOL0     H20371   5.071   3.294   5.045 -1.8944  0.2143 -0.7332
  912MOL0     H20372   5.385   3.279   4.992 -2.3734  2.8291 -0.1585
  912MOL0     H20373   5.582   3.168   4.894 -0.5223 -0.3971  0.0658
  912MOL0     H20374   5.729   3.228   4.647  0.3161 -1.1167 -0.7994
  912MOL0     H20375   5.776   3.106   4.767 -0.4948 -0.2547 -0.0705
  912MOL0     H20376   5.932   3.102   4.570 -1.5847  0.3123 -1.1546
  912MOL0     H20377   5.975   3.275   4.614  1.1399 -0.0101  1.1978
  912MOL0     H20378   6.027   3.054   4.812  1.9959  0.8851  1.5160
  912MOL0     H20379   6.079   3.211   4.820  2.0406 -1.0274  0.4432
  912MOL0     H20380   6.193   3.157   4.578  1.6763  0.3693  0.9283
  912MOL0     H20381   6.266   3.113   4.738 -1.4297 -1.3427  1.6267
  912MOL0     H20382   6.247   2.781   4.490  0.9334  0.4009  0.1117
  912MOL0     H20383   5.787   3.553   4.841 -1.5127  0.7106 -2.8902
  912MOL0     H20384   5.602   3.665   4.955 -0.4774 -0.4534  0.1635
  913MOL0     O20385   5.931  10.853   2.981  0.1671  0.1761  0.3050
  913MOL0     C20386   5.912  10.777   3.078  0.0912  0.0345  0.0188
  913MOL0     O20387   5.792  10.747   3.131 -0.2210 -0.4484  0.2277
  913MOL0     C20388   5.689  10.825   3.087 -0.2404 -0.8456  0.3975
  913MOL0     C20389   5.586  10.759   3.014  0.0624 -0.4110 -0.6761
  913MOL0     C20390   5.465  10.830   2.974 -0.4915  0.0490 -0.1475
  913MOL0     C20391   5.464  10.971   3.000 -0.1529 -0.1985 -0.7377
  913MOL0     O20392   5.354  11.038   2.959  0.1111 -0.0626  0.1770
  913MOL0     C20393   5.221  10.989   2.998 -0.2358  0.6139 -0.0786
  913MOL0     C20394   5.120  11.089   2.937  0.2179  0.1977  0.0840
  913MOL0     C20395   4.977  11.083   2.993  0.3773  0.5527 -0.7716
  913MOL0     C20396   4.877  11.190   2.940 -0.4866 -0.4644  0.3982
  913MOL0     C20397   4.774  11.214   3.045  0.6679  0.4301  0.8211
  913MOL0     C20398   4.656  11.277   2.972  0.5510 -0.2802 -0.1434
  913MOL0     C20399   4.543  11.291   3.079 -0.7066  0.4073 -0.5600
  913MOL0     C20400   4.427  11.369   3.013 -0.2382  0.0377 -0.4950
  913MOL0     N20401   4.312  11.351   3.097 -0.8899 -0.4043 -0.0097
  913MOL0     C20402   4.180  11.340   3.053  0.0197  0.2975  0.1813
  913MOL0     C20403   4.113  11.312   3.164 -0.6587  0.0953 -0.2906
  913MOL0     C20404   3.971  11.274   3.180  0.2128  0.3024 -0.2016
  913MOL0     C20405   3.880  11.395   3.132 -0.1358  0.4793  0.1626
  913MOL0     C20406   3.734  11.372   3.158  0.3741 -0.2277  0.2740
  913MOL0     C20407   3.658  11.501   3.143 -0.6201 -0.0525  0.3901
  913MOL0     O20408   3.516  11.479   3.144  0.0134 -0.5721  0.4869
  913MOL0     C20409   3.459  11.449   3.268 -0.0026  0.8748  0.2234
  913MOL0     C20410   3.371  11.337   3.273  0.1280  0.2146 -0.5278
  913MOL0     C20411   3.310  11.309   3.393  0.5030  0.4177  0.2303
  913MOL0     C20412   3.333  11.386   3.509 -0.3730 -0.5021 -0.0870
  913MOL0     C20413   3.270  11.343   3.637 -0.4765 -0.4233  0.7042
  913MOL0     O20414   3.308  11.406   3.745 -0.3878 -0.1289 -0.8019
  913MOL0     C20415   3.237  11.379   3.864 -0.3462  0.1412 -0.1979
  913MOL0     C20416   3.128  11.449   3.899  0.5838 -0.0684 -0.1990
  913MOL0     C20417   3.068  11.431   4.028  0.7004  0.1975 -0.3576
  913MOL0     C20418   3.109  11.323   4.113  0.6723  0.7551 -0.4539
  913MOL0     O20419   3.054  11.274   4.233  0.3036  0.0307  0.2276
  913MOL0     C20420   2.918  11.317   4.252  0.0417  0.0255  0.1929
  913MOL0     C20421   2.843  11.206   4.334  0.5942 -0.5987 -0.0015
  913MOL0     C20422   2.699  11.252   4.401  0.6430 -0.5499  0.0475
  913MOL0     C20423   2.638  11.164   4.515  0.4239 -0.2674 -0.3489
  913MOL0     C20424   2.511  11.226   4.592  0.4306  0.1406  0.5916
  913MOL0     C20425   2.468  11.139   4.710 -0.1825 -0.3225 -0.6433
  913MOL0     C20426   2.351  11.206   4.790  0.2981  0.6202  0.0428
  913MOL0     C20427   2.228  11.223   4.694 -0.1321 -0.5101 -0.4300
  913MOL0    Cl20428   2.099  11.267   4.798  0.2559  0.7818 -0.0538
  913MOL0     C20429   3.221  11.264   4.075  0.2830  0.4593  0.8985
  913MOL0     C20430   3.288  11.294   3.960 -1.4121 -1.2576  0.3266
  913MOL0     O20431   3.181  11.256   3.635  0.5034 -0.3424 -0.7968
  913MOL0     C20432   3.421  11.502   3.495  0.2168  0.3252  0.3957
  913MOL0     C20433   3.476  11.536   3.378  0.0360  0.2394 -0.0363
  913MOL0     N20434   4.190  11.326   3.269  0.3156 -0.6489 -1.1990
  913MOL0     N20435   4.309  11.353   3.237  0.3467  0.2578 -0.0022
  913MOL0     C20436   5.565  11.039   3.078 -0.2595 -0.0406  0.5703
  913MOL0     C20437   5.675  10.965   3.119  0.2236  0.1498 -0.6420
  913MOL0     C20438   6.024  10.714   3.139 -0.3720  0.3728  0.6692
  913MOL0     C20439   6.009  10.636   3.246 -0.3816  0.2444 -1.1501
  913MOL0     C20440   6.119  10.551   3.287  0.0698  1.0556  0.2318
  913MOL0     C20441   6.244  10.546   3.221  0.0455 -0.6594 -0.7425
  913MOL0     O20442   6.337  10.454   3.257 -0.1893 -0.4236  0.7897
  913MOL0     C20443   6.445  10.419   3.171  1.0965 -0.8885 -0.2271
  913MOL0     C20444   6.569  10.436   3.260  0.3547 -0.2163 -0.2906
  913MOL0     C20445   6.599  10.586   3.278 -0.0346  0.2106  0.2805
  913MOL0     C20446   6.716  10.625   3.366  0.1111  0.9241  0.3331
  913MOL0     C20447   6.704  10.567   3.505  0.0886 -0.1917  0.8271
  913MOL0     C20448   6.709  10.503   3.611 -0.2274  0.0179  0.8951
  913MOL0     C20449   6.254  10.639   3.118  0.0670 -0.6095  0.2527
  913MOL0     C20450   6.150  10.718   3.071 -0.0198  1.0553 -0.5545
  913MOL0     H20451   5.602  10.652   3.004 -1.0429 -0.8180  1.4449
  913MOL0     H20452   5.385  10.785   2.916 -3.4613  3.9193  0.6101
  913MOL0     H20453   5.215  10.981   3.107 -0.1081  0.1033 -0.1077
  913MOL0     H20454   5.196  10.894   2.949 -0.0824  0.8030 -0.5325
  913MOL0     H20455   5.104  11.066   2.832 -1.6572  0.6452  0.2337
  913MOL0     H20456   5.154  11.192   2.951  0.0236  0.1561  0.9677
  913MOL0     H20457   4.985  11.085   3.102  2.3274  0.9911 -0.8762
  913MOL0     H20458   4.935  10.984   2.978 -0.5370  0.3475  2.4096
  913MOL0     H20459   4.918  11.290   2.926 -0.0400 -0.4842  1.4981
  913MOL0     H20460   4.841  11.147   2.846  2.0615  1.4953 -1.6154
  913MOL0     H20461   4.818  11.268   3.129  2.8274 -1.0899  0.7572
  913MOL0     H20462   4.754  11.114   3.084  2.0982 -0.2866 -0.1674
  913MOL0     H20463   4.628  11.223   2.880  1.9336 -0.5732 -0.4121
  913MOL0     H20464   4.696  11.373   2.938  0.5536  0.1905  1.1458
  913MOL0     H20465   4.517  11.190   3.110  1.2138  0.4680  1.5115
  913MOL0     H20466   4.581  11.347   3.165  2.3962 -0.3813 -1.2876
  913MOL0     H20467   4.405  11.337   2.911 -0.1410 -2.8035  0.2948
  913MOL0     H20468   4.445  11.477   3.002 -0.4869  0.2848  1.1820
  913MOL0     H20469   4.144  11.324   2.952  0.3121 -3.0891  0.4928
  913MOL0     H20470   3.951  11.242   3.282 -1.0736  0.8832 -0.2548
  913MOL0     H20471   3.944  11.187   3.119 -1.8387  1.8168 -1.6143
  913MOL0     H20472   3.890  11.419   3.026  2.2741 -0.7267  0.0408
  913MOL0     H20473   3.904  11.477   3.201 -0.1436  0.0461  0.6888
  913MOL0     H20474   3.699  11.291   3.092 -1.4324 -0.4736  1.4824
  913MOL0     H20475   3.705  11.339   3.258 -2.8679  0.2269 -0.3935
  913MOL0     H20476   3.686  11.546   3.047  0.5434 -0.3385  0.5822
  913MOL0     H20477   3.689  11.570   3.222 -1.3653  2.0124 -1.0369
  913MOL0     H20478   3.357  11.278   3.183 -1.0563 -1.3004  0.6011
  913MOL0     H20479   3.232  11.233   3.388  0.7378  0.2734 -2.8512
  913MOL0     H20480   3.091  11.517   3.823 -3.2230 -3.5431 -1.8613
  913MOL0     H20481   2.979  11.485   4.058  0.6644 -0.0976  0.0799
  913MOL0     H20482   2.848  11.324   4.168 -2.8604 -0.8984  2.3398
  913MOL0     H20483   2.914  11.408   4.312 -0.8451 -0.4630  0.9090
  913MOL0     H20484   2.907  11.169   4.415  0.5527 -1.1180 -0.1998
  913MOL0     H20485   2.838  11.118   4.269  2.0142 -0.5282 -0.2194
  913MOL0     H20486   2.626  11.283   4.325  3.7857  1.1269 -2.5583
  913MOL0     H20487   2.732  11.345   4.450  3.5324 -2.0676  1.2197
  913MOL0     H20488   2.606  11.070   4.470 -4.0097  0.4923  0.7562
  913MOL0     H20489   2.715  11.131   4.586 -1.2150 -3.5056  0.1063
  913MOL0     H20490   2.431  11.250   4.521  0.3593 -0.0180  0.6171
  913MOL0     H20491   2.536  11.325   4.632 -3.1114  0.7480  1.6196
  913MOL0     H20492   2.555  11.125   4.775 -0.7901 -0.2359  0.1895
  913MOL0     H20493   2.440  11.040   4.674  1.9636 -1.9772  1.8915
  913MOL0     H20494   2.318  11.126   4.856  0.0294  1.0221  0.4019
  913MOL0     H20495   2.358  11.303   4.840 -2.2471  1.2210 -0.6037
  913MOL0     H20496   2.197  11.134   4.638 -0.8397  0.4550 -1.6411
  913MOL0     H20497   2.245  11.304   4.622  0.8457 -0.4503 -0.1437
  913MOL0     H20498   3.265  11.187   4.136  1.3446  0.5747  0.2942
  913MOL0     H20499   3.385  11.254   3.934 -0.8469  1.1276 -1.5989
  913MOL0     H20500   3.435  11.570   3.579  1.5811 -1.6939  1.9240
  913MOL0     H20501   3.543  11.621   3.384  0.6051 -0.0384 -1.8098
  913MOL0     H20502   5.547  11.141   3.108 -3.4158  1.0062 -3.8781
  913MOL0     H20503   5.749  11.003   3.188  0.5133 -1.1583 -0.2012
  913MOL0     H20504   5.914  10.612   3.294 -0.1793 -3.4180 -2.2814
  913MOL0     H20505   6.096  10.465   3.348  0.9771 -0.5520 -1.5868
  913MOL0     H20506   6.454  10.483   3.083 -3.2204  0.7952  0.3249
  913MOL0     H20507   6.428  10.318   3.133  0.8188 -1.5516  1.5467
  913MOL0     H20508   6.543  10.388   3.355 -2.7532 -0.7796 -1.3163
  913MOL0     H20509   6.646  10.386   3.200  1.0775 -1.6607  1.7226
  913MOL0     H20510   6.514  10.639   3.322 -0.8365 -0.7369 -0.0978
  913MOL0     H20511   6.622  10.634   3.183  0.0787  1.4114  0.8876
  913MOL0     H20512   6.813  10.609   3.319  1.1948  0.2724  2.6645
  913MOL0     H20513   6.697  10.732   3.375 -2.4523  0.6984 -1.3027
  913MOL0     H20514   6.736  10.454   3.703  1.5981 -0.2215  0.2896
  913MOL0     H20515   6.347  10.652   3.064  0.1873 -1.6804  0.1827
  913MOL0     H20516   6.178  10.786   2.991  0.0627  0.2083 -1.2558
  914MOL0     O20517   6.296   7.228   9.580  0.6599 -0.2716 -0.0145
  914MOL0     C20518   6.355   7.147   9.509 -0.7866 -0.0681  0.4140
  914MOL0     O20519   6.298   7.042   9.443 -0.3007  0.0274  0.6670
  914MOL0     C20520   6.179   6.998   9.466  0.3973 -0.4708 -0.5367
  914MOL0     C20521   6.167   6.874   9.533  0.9260 -0.7927  0.1982
  914MOL0     C20522   6.039   6.815   9.557 -0.2643 -0.0843  0.2041
  914MOL0     C20523   5.922   6.879   9.525  0.1319 -0.0886  0.0850
  914MOL0     O20524   5.806   6.819   9.551 -0.2113  0.5056 -0.3906
  914MOL0     C20525   5.700   6.840   9.459  0.4543 -0.0350  0.1363
  914MOL0     C20526   5.603   6.719   9.462  0.0709 -0.6441 -0.0778
  914MOL0     C20527   5.485   6.739   9.361 -0.6822  0.2289  0.0342
  914MOL0     C20528   5.392   6.619   9.370 -0.0177  0.6350  0.2577
  914MOL0     C20529   5.449   6.479   9.342 -0.6198  1.1117  0.3865
  914MOL0     C20530   5.351   6.368   9.339 -0.0413  0.1316  0.1252
  914MOL0     C20531   5.408   6.227   9.336 -0.0848  0.4017 -0.1896
  914MOL0     C20532   5.301   6.114   9.310 -0.2597 -0.3715 -0.6625
  914MOL0     N20533   5.253   6.055   9.436 -0.0751 -0.1178 -0.2736
  914MOL0     C20534   5.230   6.119   9.561 -0.3195 -0.0412  1.3764
  914MOL0     C20535   5.169   6.023   9.633 -0.5573 -0.7831 -0.6696
  914MOL0     C20536   5.132   6.052   9.776  0.7158  0.1103  0.2478
  914MOL0     C20537   4.996   6.122   9.776 -0.1831 -0.1075  0.3049
  914MOL0     C20538   4.955   6.154   9.917 -0.2165  0.7600 -0.3182
  914MOL0     C20539   4.812   6.211   9.926 -0.5638 -0.2452  0.9273
  914MOL0     O20540   4.786   6.234  10.068  0.3675 -0.4737 -0.7343
  914MOL0     C20541   4.659   6.272  10.109 -0.1047 -1.0722 -0.0837
  914MOL0     C20542   4.636   6.392  10.173 -0.8167 -0.0270  0.5490
  914MOL0     C20543   4.510   6.417  10.229 -0.6958  0.4939  0.2999
  914MOL0     C20544   4.406   6.329  10.208  0.6045 -1.0525  0.5016
  914MOL0     C20545   4.283   6.351  10.288 -0.9189  0.4013  0.1381
  914MOL0     O20546   4.172   6.273  10.267  0.1440  0.5318  0.8321
  914MOL0     C20547   4.054   6.293  10.331  0.1227 -0.2536  1.0412
  914MOL0     C20548   4.024   6.283  10.464 -0.6548  0.3273  0.5018
  914MOL0     C20549   3.895   6.271  10.506  0.1037 -0.2554  0.6388
  914MOL0     C20550   3.785   6.282  10.417  0.3425  0.2521 -0.2548
  914MOL0     O20551   3.656   6.278  10.470 -0.0802 -0.0333  0.5545
  914MOL0     C20552   3.555   6.312  10.376  0.2911 -0.6771  0.4195
  914MOL0     C20553   3.424   6.338  10.461 -0.7046  0.1763 -0.5178
  914MOL0     C20554   3.365   6.209  10.514  0.1939  1.0446  0.3157
  914MOL0     C20555   3.224   6.217  10.577  0.2406  0.1298 -0.1301
  914MOL0     C20556   3.217   6.322  10.688  0.7695 -0.1556 -0.5319
  914MOL0     C20557   3.099   6.287  10.788 -0.8865  0.7045  0.1211
  914MOL0     C20558   2.963   6.258  10.720  0.2951  0.3002 -0.3713
  914MOL0     C20559   2.903   6.382  10.658  0.7650 -0.0932  0.6596
  914MOL0    Cl20560   2.724   6.355  10.673 -0.2146 -0.0108 -0.2431
  914MOL0     C20561   3.818   6.311  10.285  0.3709 -0.1061  0.2278
  914MOL0     C20562   3.948   6.308  10.234 -0.0614  0.3605 -0.9150
  914MOL0     O20563   4.291   6.438  10.373  0.2101  0.3789 -0.1015
  914MOL0     C20564   4.421   6.216  10.119  0.3462  0.5406 -1.2540
  914MOL0     C20565   4.549   6.181  10.081  0.0768 -0.9613 -0.3523
  914MOL0     N20566   5.163   5.903   9.565  0.3253 -0.4548 -0.4170
  914MOL0     N20567   5.212   5.923   9.449 -0.3562 -0.4592 -0.2280
  914MOL0     C20568   5.939   7.000   9.451 -0.0981 -0.6072 -0.2180
  914MOL0     C20569   6.061   7.064   9.431 -0.9369  0.1319 -0.1247
  914MOL0     C20570   6.500   7.152   9.495 -0.3719 -0.9350  0.3016
  914MOL0     C20571   6.579   7.040   9.465  0.4823  0.2513 -1.2148
  914MOL0     C20572   6.722   7.053   9.460  0.6122 -0.4633  0.0725
  914MOL0     C20573   6.788   7.172   9.477 -0.2095  0.6002  0.5835
  914MOL0     O20574   6.929   7.178   9.473  0.1436 -0.3808  0.2808
  914MOL0     C20575   7.013   7.300   9.455  1.0512  0.3576 -0.0981
  914MOL0     C20576   7.146   7.273   9.397  0.0957 -0.0883  0.2685
  914MOL0     C20577   7.115   7.235   9.248  0.2496  0.2048 -0.7844
  914MOL0     C20578   7.247   7.189   9.174  0.5100 -0.1003  0.4346
  914MOL0     C20579   7.365   7.281   9.188  0.2149  0.0613  0.7535
  914MOL0     C20580   7.454   7.363   9.187  0.3592 -0.1758  0.3498
  914MOL0     C20581   6.706   7.285   9.497 -0.5581  0.2518 -0.1804
  914MOL0     C20582   6.565   7.278   9.521 -0.9491 -0.0991 -0.5375
  914MOL0     H20583   6.253   6.815   9.565  0.1739 -2.4059 -0.6594
  914MOL0     H20584   6.029   6.717   9.604 -2.3286  0.8290  1.8300
  914MOL0     H20585   5.745   6.844   9.359  1.2036 -0.2319  0.4558
  914MOL0     H20586   5.641   6.931   9.467 -2.0990 -1.3703 -1.8670
  914MOL0     H20587   5.564   6.691   9.560  1.6603 -4.5696 -0.3881
  914MOL0     H20588   5.664   6.631   9.438 -0.2703 -0.9650  0.2287
  914MOL0     H20589   5.532   6.739   9.262  1.5972 -1.3754  1.0073
  914MOL0     H20590   5.435   6.829   9.397 -2.1063 -0.8748  0.9311
  914MOL0     H20591   5.356   6.623   9.473 -1.2901  1.9232 -0.2010
  914MOL0     H20592   5.303   6.638   9.310 -0.4675  2.7908  1.5140
  914MOL0     H20593   5.526   6.465   9.419  0.2062  1.0925 -0.4191
  914MOL0     H20594   5.493   6.479   9.242 -0.8141 -0.5991  0.2812
  914MOL0     H20595   5.291   6.381   9.249 -1.6125 -2.8561  0.6168
  914MOL0     H20596   5.280   6.375   9.421  0.0067  0.1556  0.1649
  914MOL0     H20597   5.470   6.215   9.246  0.0447 -2.6205  0.2205
  914MOL0     H20598   5.467   6.210   9.426 -1.7817  0.0862  0.9019
  914MOL0     H20599   5.344   6.032   9.252  2.4441 -0.8643  1.7842
  914MOL0     H20600   5.217   6.154   9.252  0.0437 -0.1731 -0.9645
  914MOL0     H20601   5.251   6.224   9.578  2.4565 -0.1463 -0.6060
  914MOL0     H20602   5.205   6.121   9.821  2.2886 -0.5598 -1.1760
  914MOL0     H20603   5.122   5.962   9.838  0.9885 -1.2082 -1.5629
  914MOL0     H20604   4.920   6.054   9.738 -0.5571  0.2990  0.3138
  914MOL0     H20605   5.003   6.218   9.723 -0.0877  1.1561  2.4827
  914MOL0     H20606   4.957   6.063   9.978 -2.4288  1.5159  1.0046
  914MOL0     H20607   5.031   6.221   9.958 -0.0869  0.9057 -0.7968
  914MOL0     H20608   4.748   6.133   9.883  1.3699 -1.0199 -0.7422
  914MOL0     H20609   4.797   6.292   9.854  0.1565 -0.4243  0.5592
  914MOL0     H20610   4.719   6.459  10.193 -0.3654  0.6721 -2.8862
  914MOL0     H20611   4.506   6.504  10.294 -0.1675 -0.4344  1.6072
  914MOL0     H20612   4.108   6.254  10.526  0.0004  0.4534 -0.3152
  914MOL0     H20613   3.874   6.256  10.612  1.8976  1.6390  1.3237
  914MOL0     H20614   3.538   6.232  10.302 -1.6013  0.8275 -0.8816
  914MOL0     H20615   3.575   6.402  10.317 -2.1703  0.6047  1.3928
  914MOL0     H20616   3.347   6.386  10.400  1.4636  2.4416 -1.6689
  914MOL0     H20617   3.452   6.402  10.546 -1.1733  1.4251 -1.2719
  914MOL0     H20618   3.436   6.156  10.577 -0.1665 -0.7879 -0.7430
  914MOL0     H20619   3.357   6.143  10.427  2.6065  2.0831 -0.7735
  914MOL0     H20620   3.145   6.237  10.503  0.0130 -0.6807 -0.1227
  914MOL0     H20621   3.193   6.117  10.610 -0.2147 -0.0177 -0.9523
  914MOL0     H20622   3.202   6.416  10.634  0.9363  0.3661  0.3113
  914MOL0     H20623   3.309   6.322  10.746 -0.3659 -0.2277  1.3658
  914MOL0     H20624   3.085   6.382  10.841  0.0877  0.3049  1.1343
  914MOL0     H20625   3.120   6.200  10.851  0.1693 -0.7142 -2.0684
  914MOL0     H20626   2.969   6.182  10.642 -0.0328  0.2498 -0.3504
  914MOL0     H20627   2.890   6.233  10.798 -0.5728  0.9241 -0.9622
  914MOL0     H20628   2.945   6.395  10.558  0.9956  3.7878  1.0989
  914MOL0     H20629   2.925   6.471  10.717  0.2400 -0.7183  1.8364
  914MOL0     H20630   3.739   6.308  10.210  0.2113 -0.8710  0.4204
  914MOL0     H20631   3.964   6.295  10.128 -1.7706  0.6078 -1.2343
  914MOL0     H20632   4.340   6.145  10.111 -0.3947  1.0353  1.0201
  914MOL0     H20633   4.562   6.080  10.042  2.1908 -1.3783  1.2407
  914MOL0     H20634   5.852   7.052   9.412 -0.8625 -1.7237 -0.0263
  914MOL0     H20635   6.069   7.162   9.383 -2.6183  0.7103  0.6822
  914MOL0     H20636   6.528   6.945   9.455 -3.2668  1.9839 -0.3229
  914MOL0     H20637   6.771   6.957   9.446 -0.9347 -1.4139  0.8627
  914MOL0     H20638   7.037   7.333   9.556 -0.0052 -2.3552  1.1391
  914MOL0     H20639   6.959   7.373   9.394 -0.6541 -1.7994 -1.3337
  914MOL0     H20640   7.201   7.367   9.395  0.1940 -0.1585 -0.3401
  914MOL0     H20641   7.202   7.199   9.456 -0.6766  1.1746  2.7372
  914MOL0     H20642   7.068   7.311   9.185  1.0420 -1.6992 -3.9239
  914MOL0     H20643   7.035   7.162   9.233 -2.8219  3.1433 -0.0059
  914MOL0     H20644   7.277   7.089   9.204  1.9724 -0.3580 -1.6703
  914MOL0     H20645   7.227   7.177   9.067 -1.9787 -1.9401  1.0031
  914MOL0     H20646   7.533   7.436   9.187  0.2685 -0.0789  0.0168
  914MOL0     H20647   6.757   7.381   9.505 -0.0621  0.2576 -2.4950
  914MOL0     H20648   6.515   7.373   9.540 -2.0399 -0.2715 -2.3548
  915MOL0     O20649   5.126   9.236   4.576 -0.2423  0.1596  0.6288
  915MOL0     C20650   5.117   9.342   4.512 -0.2055  0.3182 -0.1686
  915MOL0     O20651   5.013   9.382   4.437 -0.4574 -0.1213  0.7817
  915MOL0     C20652   4.912   9.293   4.412  0.1748 -0.4858 -0.5001
  915MOL0     C20653   4.785   9.348   4.396 -0.3601  0.3015  0.2161
  915MOL0     C20654   4.664   9.268   4.368 -0.0530 -0.1387 -0.7969
  915MOL0     C20655   4.679   9.134   4.357 -0.2079 -0.5520 -0.4712
  915MOL0     O20656   4.569   9.056   4.327 -0.2966  0.4565 -0.7245
  915MOL0     C20657   4.445   9.102   4.383 -0.4317  0.0367  0.1748
  915MOL0     C20658   4.359   8.980   4.418  0.1144 -1.1061 -0.0373
  915MOL0     C20659   4.211   9.025   4.453  0.4539  0.8653  0.5959
  915MOL0     C20660   4.129   8.895   4.463  1.1312  0.7843 -0.4811
  915MOL0     C20661   3.975   8.919   4.465  1.1273 -1.3198  0.7104
  915MOL0     C20662   3.922   8.776   4.492  0.9276 -0.2919 -0.9016
  915MOL0     C20663   3.777   8.780   4.547 -0.7175  0.3453  0.3386
  915MOL0     C20664   3.676   8.825   4.441 -0.2852  0.3083  0.3048
  915MOL0     N20665   3.544   8.767   4.466 -1.3370  0.1138  0.1073
  915MOL0     C20666   3.511   8.638   4.441  1.1438  0.2333  0.2860
  915MOL0     C20667   3.378   8.633   4.469  0.6189 -1.2667  0.4378
  915MOL0     C20668   3.287   8.510   4.462 -0.5638 -0.0064 -0.4451
  915MOL0     C20669   3.168   8.490   4.550  0.7856 -0.1151  0.1377
  915MOL0     C20670   3.074   8.613   4.545 -0.4589 -0.5658 -0.2454
  915MOL0     C20671   3.036   8.656   4.401  0.0074 -0.3082 -0.3874
  915MOL0     O20672   2.914   8.734   4.398 -0.4061  0.4132  0.3326
  915MOL0     C20673   2.789   8.677   4.406 -0.1082 -0.6503 -0.4091
  915MOL0     C20674   2.684   8.761   4.428  0.4097  0.1615 -0.8577
  915MOL0     C20675   2.557   8.712   4.422 -0.1467 -0.0758 -0.4969
  915MOL0     C20676   2.530   8.580   4.406  0.2521  0.1175  0.1750
  915MOL0     C20677   2.388   8.532   4.388  0.3549  0.1196  0.0810
  915MOL0     O20678   2.284   8.624   4.400 -0.1885  0.4443 -0.0388
  915MOL0     C20679   2.147   8.598   4.380 -1.2934  0.1586 -0.2159
  915MOL0     C20680   2.087   8.492   4.311  0.4667  0.3601  0.8667
  915MOL0     C20681   1.950   8.497   4.284  0.5773  0.1180  0.0728
  915MOL0     C20682   1.871   8.605   4.342 -0.9394 -0.3497 -0.0603
  915MOL0     O20683   1.739   8.601   4.319 -0.2996 -0.4153 -0.1149
  915MOL0     C20684   1.691   8.612   4.181  0.1011  0.1009  0.1805
  915MOL0     C20685   1.564   8.697   4.193  0.6169  0.4232  0.0014
  915MOL0     C20686   1.464   8.688   4.068 -0.2890  0.2699  0.1380
  915MOL0     C20687   1.337   8.765   4.096 -0.4296 -0.5168  0.7740
  915MOL0     C20688   1.229   8.734   4.003 -0.4128 -0.7922  0.0763
  915MOL0     C20689   1.143   8.620   4.033  0.2224  0.3896  0.2289
  915MOL0     C20690   1.029   8.614   3.929 -0.4079  0.4407  0.3855
  915MOL0     C20691   0.992   8.473   3.940  0.2958  0.0898 -0.3790
  915MOL0    Cl20692   0.868   8.446   3.807  0.1600 -0.2103  0.0130
  915MOL0     C20693   1.932   8.711   4.415 -0.2310 -0.0851 -0.0433
  915MOL0     C20694   2.072   8.705   4.426 -0.0677  0.1079 -0.0859
  915MOL0     O20695   2.375   8.413   4.361 -0.2142  0.6499 -0.5322
  915MOL0     C20696   2.641   8.493   4.392  0.0693  0.0801 -0.0977
  915MOL0     C20697   2.768   8.546   4.393  0.6213  0.1217  0.4887
  915MOL0     N20698   3.335   8.757   4.502 -0.0895 -0.6728 -0.3986
  915MOL0     N20699   3.433   8.842   4.492  0.1893  0.7357  0.1925
  915MOL0     C20700   4.809   9.084   4.356 -0.1847 -0.0131  0.0363
  915MOL0     C20701   4.926   9.157   4.386 -0.1391  0.8269 -0.2509
  915MOL0     C20702   5.216   9.446   4.519 -0.9730 -0.3704  0.4359
  915MOL0     C20703   5.319   9.434   4.610 -0.2514 -0.5172 -0.5684
  915MOL0     C20704   5.414   9.538   4.616 -0.6005  0.0254 -0.4467
  915MOL0     C20705   5.421   9.642   4.521 -0.0458  0.0583 -0.0367
  915MOL0     O20706   5.511   9.742   4.547 -0.6219 -0.5706  0.5919
  915MOL0     C20707   5.516   9.861   4.472 -0.1625 -0.1787  0.4074
  915MOL0     C20708   5.618   9.831   4.349 -0.4860 -0.4635  0.6332
  915MOL0     C20709   5.599   9.923   4.218 -0.7650 -0.2368  1.4181
  915MOL0     C20710   5.692  10.043   4.205 -0.4298  0.0930  0.6244
  915MOL0     C20711   5.649  10.133   4.317  0.1459  0.1556  0.2028
  915MOL0     C20712   5.618  10.204   4.413 -0.0023 -0.1349  0.4095
  915MOL0     C20713   5.317   9.653   4.425 -0.5974  0.3338  0.2867
  915MOL0     C20714   5.216   9.558   4.433 -0.2551  0.9998  0.2109
  915MOL0     H20715   4.769   9.456   4.397 -1.9341  0.1031  1.7105
  915MOL0     H20716   4.570   9.319   4.352 -0.8956 -1.4268 -0.0911
  915MOL0     H20717   4.396   9.161   4.306  1.3319 -1.1458 -1.9909
  915MOL0     H20718   4.454   9.159   4.476 -6.4588  0.1085  1.1178
  915MOL0     H20719   4.393   8.919   4.502 -0.4645 -0.1374  0.9211
  915MOL0     H20720   4.360   8.908   4.335  0.7058 -1.6954  0.4696
  915MOL0     H20721   4.166   9.086   4.374  1.9207 -0.0203 -0.9846
  915MOL0     H20722   4.202   9.091   4.540  1.8943  0.5504  1.0076
  915MOL0     H20723   4.159   8.817   4.392 -0.3432  0.1047 -0.3909
  915MOL0     H20724   4.146   8.850   4.561 -0.9013 -3.3896 -1.8124
  915MOL0     H20725   3.943   8.948   4.364  5.5295 -0.0547 -0.5645
  915MOL0     H20726   3.952   8.992   4.543  4.1614  1.2047 -0.5144
  915MOL0     H20727   3.990   8.727   4.562 -0.8731 -0.0469  1.0993
  915MOL0     H20728   3.927   8.710   4.404  0.5332 -0.2319 -0.9716
  915MOL0     H20729   3.762   8.677   4.581 -1.2115  0.5658  0.8090
  915MOL0     H20730   3.772   8.851   4.630  2.3968  2.0344 -0.7285
  915MOL0     H20731   3.690   8.804   4.334 -1.0033  0.7286  0.1196
  915MOL0     H20732   3.677   8.934   4.455  1.1806  0.4034 -0.3516
  915MOL0     H20733   3.579   8.561   4.407  1.2247  0.5945 -0.3926
  915MOL0     H20734   3.354   8.424   4.464  1.9166  1.7374 -1.9836
  915MOL0     H20735   3.252   8.514   4.358 -1.0696  3.5186 -0.2883
  915MOL0     H20736   3.207   8.491   4.652 -0.0521 -2.0282  0.5225
  915MOL0     H20737   3.102   8.406   4.526  0.6053 -0.1839  0.8808
  915MOL0     H20738   2.986   8.601   4.609  0.4918 -0.7737  1.0714
  915MOL0     H20739   3.125   8.693   4.599 -1.8584  0.4226 -0.3431
  915MOL0     H20740   3.032   8.564   4.343  2.3389 -2.3214  2.3564
  915MOL0     H20741   3.119   8.713   4.359  0.0354 -0.3667 -0.4110
  915MOL0     H20742   2.706   8.865   4.452 -2.1869  0.0348  2.8351
  915MOL0     H20743   2.473   8.781   4.432 -2.1909 -2.2584 -1.4706
  915MOL0     H20744   2.144   8.405   4.280  3.1550  2.1376  0.4871
  915MOL0     H20745   1.894   8.415   4.241 -1.4128  0.5491  1.6656
  915MOL0     H20746   1.652   8.525   4.128 -0.1748  0.9321 -1.0231
  915MOL0     H20747   1.770   8.661   4.123  0.7315 -1.2772 -0.1465
  915MOL0     H20748   1.577   8.804   4.209 -2.0243  0.8514 -0.3413
  915MOL0     H20749   1.512   8.660   4.281  1.5180  1.2936  0.9208
  915MOL0     H20750   1.442   8.583   4.048 -3.1884  0.6629  0.7844
  915MOL0     H20751   1.518   8.730   3.983 -1.0786  1.1987  0.0820
  915MOL0     H20752   1.304   8.736   4.196 -0.2702 -1.6263  0.5162
  915MOL0     H20753   1.360   8.872   4.097  0.4747 -0.7136  1.2414
  915MOL0     H20754   1.281   8.710   3.910  1.7867  0.2609  0.9538
  915MOL0     H20755   1.163   8.820   3.999 -0.4675 -0.7847  0.8664
  915MOL0     H20756   1.108   8.629   4.136 -0.5069  0.0124  0.0273
  915MOL0     H20757   1.208   8.533   4.025 -2.1463 -1.4058 -0.8647
  915MOL0     H20758   0.944   8.677   3.958 -1.8067 -1.3619  0.3333
  915MOL0     H20759   1.075   8.623   3.830  0.7181 -1.5976  0.6590
  915MOL0     H20760   0.956   8.456   4.042  0.0457  0.0634 -0.4719
  915MOL0     H20761   1.079   8.409   3.924  0.2675  0.3653 -1.7530
  915MOL0     H20762   1.873   8.796   4.447  0.3278  0.7066 -1.0657
  915MOL0     H20763   2.117   8.793   4.471  0.3139 -0.1648  0.0658
  915MOL0     H20764   2.629   8.385   4.384 -1.3099  0.1302  0.9355
  915MOL0     H20765   2.851   8.480   4.372  0.5672 -0.5529  2.2384
  915MOL0     H20766   4.833   8.981   4.333  0.7993 -0.5100  2.8904
  915MOL0     H20767   5.025   9.114   4.376 -0.5271  0.2236 -1.8280
  915MOL0     H20768   5.332   9.354   4.683  1.2521  0.9963  0.9194
  915MOL0     H20769   5.492   9.533   4.691 -0.7509 -3.2061 -0.3615
  915MOL0     H20770   5.565   9.938   4.532  2.1001 -0.5040 -0.8763
  915MOL0     H20771   5.418   9.898   4.442 -0.2804  0.7917  1.8981
  915MOL0     H20772   5.718   9.844   4.390 -0.5316 -0.1570  0.6489
  915MOL0     H20773   5.597   9.730   4.312  3.1124 -0.3277 -2.3269
  915MOL0     H20774   5.496   9.957   4.203 -0.8075 -0.1182  1.9715
  915MOL0     H20775   5.632   9.852   4.142  1.6515  1.8510  0.3386
  915MOL0     H20776   5.796  10.011   4.215  0.6272  2.8877 -0.3707
  915MOL0     H20777   5.677  10.098   4.112  0.2385 -1.0099 -0.1498
  915MOL0     H20778   5.594  10.277   4.488 -1.5515  1.2799 -1.3570
  915MOL0     H20779   5.299   9.736   4.357 -1.7258 -0.3035 -0.2172
  915MOL0     H20780   5.130   9.563   4.368 -0.6257  2.2086  0.7608
  916MOL0     O20781   0.956   5.528   3.580  0.2379  0.1751 -0.2208
  916MOL0     C20782   1.013   5.543   3.470 -0.6278  0.3993  0.2356
  916MOL0     O20783   0.966   5.488   3.355 -0.7340 -0.0369 -0.0885
  916MOL0     C20784   0.861   5.398   3.366 -0.2900 -0.0068  0.4860
  916MOL0     C20785   0.887   5.262   3.351 -0.4005  0.0523  0.1312
  916MOL0     C20786   0.777   5.169   3.373 -0.0302 -0.4009 -0.1367
  916MOL0     C20787   0.647   5.217   3.397 -1.3315  0.4787  0.2011
  916MOL0     O20788   0.546   5.137   3.415 -0.3446  0.0181  0.1668
  916MOL0     C20789   0.528   5.036   3.312 -0.3020  0.2512 -1.6124
  916MOL0     C20790   0.405   4.960   3.350  0.6165  0.2275  0.1861
  916MOL0     C20791   0.279   5.040   3.299  1.1739  0.0574 -0.1514
  916MOL0     C20792   0.134   4.997   3.342 -0.4309 -0.3960  0.1052
  916MOL0     C20793   0.026   5.077   3.269 -0.2068 -0.1069  0.1145
  916MOL0     C20794  -0.117   5.034   3.301 -1.1651 -0.2247  0.1764
  916MOL0     C20795  -0.225   5.105   3.208 -0.8099 -0.0006 -0.1778
  916MOL0     C20796  -0.363   5.038   3.222  0.2430 -0.6144  0.6231
  916MOL0     N20797  -0.465   5.092   3.128 -0.4246 -0.1668 -0.1456
  916MOL0     C20798  -0.433   5.214   3.068  0.1220 -0.5068 -0.6009
  916MOL0     C20799  -0.544   5.236   2.987  0.2952 -0.6267 -0.3275
  916MOL0     C20800  -0.562   5.351   2.887  0.1724 -0.1864  1.0914
  916MOL0     C20801  -0.601   5.483   2.947  0.1253  0.2457  0.6293
  916MOL0     C20802  -0.485   5.544   3.030  0.1103  0.8236 -0.4231
  916MOL0     C20803  -0.528   5.690   3.070  0.0665 -0.3864 -0.3670
  916MOL0     O20804  -0.433   5.758   3.158  0.0319 -0.2572  0.3051
  916MOL0     C20805  -0.306   5.794   3.118  0.1141  0.1326  0.4820
  916MOL0     C20806  -0.257   5.795   2.981  0.3039 -0.1206  0.3275
  916MOL0     C20807  -0.128   5.839   2.958  0.2153 -0.2769 -0.4631
  916MOL0     C20808  -0.047   5.890   3.065 -0.7049 -0.3184  0.2910
  916MOL0     C20809   0.091   5.937   3.033 -0.0103  0.3219 -0.3604
  916MOL0     O20810   0.159   6.005   3.131  0.1555 -0.0707  0.4077
  916MOL0     C20811   0.288   6.028   3.097  1.1246  0.0884  0.7215
  916MOL0     C20812   0.322   6.141   3.023 -0.5242  0.0400  0.0429
  916MOL0     C20813   0.453   6.160   2.981  0.0409 -0.8147 -0.3678
  916MOL0     C20814   0.551   6.060   2.997 -0.0932 -0.6051  0.9270
  916MOL0     O20815   0.674   6.054   2.933  0.8049  0.5116 -0.5374
  916MOL0     C20816   0.730   6.174   2.881 -0.1929 -1.0321 -0.0391
  916MOL0     C20817   0.884   6.168   2.872 -0.0639  0.0987 -0.0796
  916MOL0     C20818   0.924   6.281   2.772 -0.7246  0.3437 -0.0789
  916MOL0     C20819   1.076   6.325   2.790 -0.0053 -0.3887  0.2416
  916MOL0     C20820   1.085   6.482   2.776  0.2469 -0.1629 -0.7410
  916MOL0     C20821   1.229   6.521   2.820 -0.1508  0.3438 -0.3722
  916MOL0     C20822   1.230   6.667   2.866  0.0920  0.1113 -0.6217
  916MOL0     C20823   1.232   6.770   2.752  0.3966  0.1930 -0.1394
  916MOL0    Cl20824   1.201   6.940   2.815  0.1203  0.0917 -0.1035
  916MOL0     C20825   0.519   5.945   3.069 -0.4204 -0.2667  0.0320
  916MOL0     C20826   0.386   5.934   3.113 -0.2302  0.3463  0.7038
  916MOL0     O20827   0.126   5.933   2.918  1.2639  0.1267 -0.0600
  916MOL0     C20828  -0.087   5.865   3.198 -0.2583  0.4983  0.2712
  916MOL0     C20829  -0.222   5.825   3.220 -0.0018 -0.5849 -0.3535
  916MOL0     N20830  -0.634   5.137   3.011  0.6210  0.0712 -0.3001
  916MOL0     N20831  -0.587   5.051   3.092 -0.6815  0.7963 -0.4017
  916MOL0     C20832   0.619   5.357   3.403 -0.0852  0.6766  0.1340
  916MOL0     C20833   0.728   5.444   3.395 -0.3691 -0.1449 -0.0202
  916MOL0     C20834   1.128   5.633   3.473  0.2678  0.3151 -0.2989
  916MOL0     C20835   1.169   5.702   3.363 -0.6745 -0.6598  0.1860
  916MOL0     C20836   1.276   5.782   3.366 -0.1695  0.1536  0.6064
  916MOL0     C20837   1.367   5.782   3.477 -0.2545 -0.1555 -0.3123
  916MOL0     O20838   1.493   5.836   3.490  0.2261 -0.4630 -0.7963
  916MOL0     C20839   1.510   5.949   3.407  0.2384 -0.4463 -0.1430
  916MOL0     C20840   1.655   5.996   3.380 -0.8814 -0.3032  0.0798
  916MOL0     C20841   1.713   5.910   3.273  0.6257  0.1461  0.8103
  916MOL0     C20842   1.848   5.955   3.225 -0.2221  0.5439  0.3277
  916MOL0     C20843   1.964   5.881   3.287 -0.6416 -0.2867  0.6126
  916MOL0     C20844   2.069   5.838   3.332  0.1974  0.0068 -0.0115
  916MOL0     C20845   1.325   5.716   3.595  1.0935  0.2591 -0.0039
  916MOL0     C20846   1.202   5.640   3.592  0.1681  0.0879  0.2813
  916MOL0     H20847   0.988   5.229   3.330 -0.6873 -0.8352  0.0829
  916MOL0     H20848   0.799   5.064   3.358  0.7924 -0.5640  1.8330
  916MOL0     H20849   0.611   4.966   3.313  0.3076  0.7392  2.7008
  916MOL0     H20850   0.520   5.092   3.218  2.8522  2.3292 -0.8316
  916MOL0     H20851   0.398   4.951   3.459  1.7682  1.6132  0.4164
  916MOL0     H20852   0.405   4.862   3.303 -1.8551 -0.5550  1.6208
  916MOL0     H20853   0.284   5.054   3.190  2.7261  0.3331 -0.0645
  916MOL0     H20854   0.282   5.139   3.347  2.1078 -1.3791  2.9971
  916MOL0     H20855   0.117   4.890   3.329  4.5040 -1.2091 -2.0418
  916MOL0     H20856   0.136   5.019   3.450  0.8527  0.7473 -0.1117
  916MOL0     H20857   0.032   5.060   3.161 -1.7358  3.0514 -0.5732
  916MOL0     H20858   0.028   5.183   3.297 -0.5744 -0.3068  0.9376
  916MOL0     H20859  -0.138   5.070   3.402 -1.3315  1.5327 -0.4329
  916MOL0     H20860  -0.136   4.927   3.289  0.7495 -0.5047 -0.8627
  916MOL0     H20861  -0.225   5.207   3.245  1.0417 -0.7423  2.1331
  916MOL0     H20862  -0.197   5.087   3.103 -0.6360  2.3330 -0.5797
  916MOL0     H20863  -0.414   5.041   3.319 -2.1220 -3.3175 -0.4138
  916MOL0     H20864  -0.349   4.934   3.194  3.6269 -0.0822 -0.1026
  916MOL0     H20865  -0.347   5.277   3.085 -0.6097 -0.3137  3.4615
  916MOL0     H20866  -0.636   5.330   2.809  1.4716 -1.0932  0.0599
  916MOL0     H20867  -0.470   5.357   2.828 -0.8184  1.4994 -0.3939
  916MOL0     H20868  -0.686   5.468   3.015 -0.8581 -0.2639 -0.6780
  916MOL0     H20869  -0.639   5.554   2.873 -0.6041 -1.2280 -0.4718
  916MOL0     H20870  -0.460   5.469   3.105  1.4684 -2.9350 -4.2373
  916MOL0     H20871  -0.402   5.558   2.960  0.4678  0.1617 -0.1401
  916MOL0     H20872  -0.617   5.676   3.132 -0.4260 -3.1457 -1.5641
  916MOL0     H20873  -0.551   5.767   2.996  0.5931  2.7750  2.4783
  916MOL0     H20874  -0.323   5.745   2.911 -2.6484 -1.8303  3.9009
  916MOL0     H20875  -0.081   5.833   2.860 -2.1393 -4.7533 -1.5689
  916MOL0     H20876   0.237   6.207   3.007  1.4361  2.8134  0.2743
  916MOL0     H20877   0.465   6.255   2.931 -1.0738 -0.0723  0.7007
  916MOL0     H20878   0.693   6.261   2.936  0.1489  1.2648 -3.1450
  916MOL0     H20879   0.693   6.179   2.778 -1.3351 -0.8128  0.3606
  916MOL0     H20880   0.920   6.070   2.839 -0.0535 -0.2781  1.0131
  916MOL0     H20881   0.917   6.180   2.975 -0.4247 -1.7389  0.2934
  916MOL0     H20882   0.861   6.370   2.784  1.1810  1.6253  0.8698
  916MOL0     H20883   0.919   6.235   2.673 -0.3960  0.8372 -0.3285
  916MOL0     H20884   1.117   6.287   2.884 -0.8023  0.8980  1.1411
  916MOL0     H20885   1.140   6.279   2.715  2.1029 -1.8016  2.7650
  916MOL0     H20886   1.009   6.515   2.847  1.2099 -1.0173  0.7415
  916MOL0     H20887   1.084   6.517   2.672  1.6156  3.1246  0.2378
  916MOL0     H20888   1.300   6.505   2.738  1.7489 -2.9901  1.7036
  916MOL0     H20889   1.276   6.464   2.900 -1.8939 -0.0440  0.4228
  916MOL0     H20890   1.139   6.679   2.925  0.6071  1.9546 -0.1117
  916MOL0     H20891   1.316   6.688   2.931 -0.0670 -3.2347  0.9062
  916MOL0     H20892   1.164   6.749   2.669 -0.3853 -0.0943  0.5596
  916MOL0     H20893   1.329   6.756   2.705  1.1253 -0.1764  1.4126
  916MOL0     H20894   0.596   5.870   3.077  1.4158  1.4177 -0.9918
  916MOL0     H20895   0.352   5.838   3.153  0.6320 -0.0087  0.6071
  916MOL0     H20896  -0.012   5.885   3.274  0.8627 -1.2434 -0.3116
  916MOL0     H20897  -0.244   5.804   3.324  0.5231  2.2247  0.4012
  916MOL0     H20898   0.522   5.384   3.443 -0.0874 -0.8456  1.2456
  916MOL0     H20899   0.706   5.549   3.410 -2.6828 -0.7387  1.2397
  916MOL0     H20900   1.108   5.689   3.274 -1.9393  1.0359  0.7664
  916MOL0     H20901   1.299   5.835   3.274  0.2119 -1.3902 -0.2286
  916MOL0     H20902   1.464   6.039   3.448  0.8812 -0.6432  1.0733
  916MOL0     H20903   1.462   5.938   3.309 -1.3952  0.3797  0.5328
  916MOL0     H20904   1.656   6.100   3.347 -1.1985 -0.5008 -0.5631
  916MOL0     H20905   1.717   5.984   3.470 -1.4504 -0.0709  0.5080
  916MOL0     H20906   1.643   5.909   3.190  1.5002 -3.2898 -0.0497
  916MOL0     H20907   1.719   5.805   3.306  0.3506 -0.1365 -0.0277
  916MOL0     H20908   1.838   5.931   3.119 -4.0522 -0.9917  0.8505
  916MOL0     H20909   1.863   6.063   3.240  0.7226  0.1226  2.7387
  916MOL0     H20910   2.167   5.810   3.366 -0.5987 -0.5231  1.9653
  916MOL0     H20911   1.387   5.715   3.684  0.2130 -3.6801  0.7238
  916MOL0     H20912   1.177   5.579   3.678  0.4721  0.0243  0.3258
  917MOL0     O20913   9.715   9.923   9.391 -0.4716 -0.4106  0.4418
  917MOL0     C20914   9.745   9.965   9.270  0.6918  0.5294 -0.0785
  917MOL0     O20915   9.652  10.003   9.177  0.0938  0.2617  0.2185
  917MOL0     C20916   9.530  10.000   9.222 -0.2918 -0.0511  0.5130
  917MOL0     C20917   9.468  10.119   9.257 -0.5497  0.3772 -0.8539
  917MOL0     C20918   9.336  10.128   9.278 -0.2651  0.2133 -0.1544
  917MOL0     C20919   9.248  10.022   9.266 -0.5579 -0.8495  0.9599
  917MOL0     O20920   9.119  10.048   9.295 -0.0625  0.0013  0.5007
  917MOL0     C20921   9.023   9.939   9.315 -0.1037 -0.2837 -1.0258
  917MOL0     C20922   8.877   9.998   9.291  0.0272 -0.3258 -0.4126
  917MOL0     C20923   8.759   9.903   9.291  0.0799 -0.4742  0.2625
  917MOL0     C20924   8.634   9.976   9.286 -0.0746  0.5235  0.7870
  917MOL0     C20925   8.516   9.877   9.328  0.3937 -0.2065 -0.4289
  917MOL0     C20926   8.500   9.753   9.241 -1.5022 -0.3859  0.4902
  917MOL0     C20927   8.387   9.666   9.293 -0.7416 -0.3514 -0.8983
  917MOL0     C20928   8.407   9.592   9.423 -0.1735  0.0899  0.2821
  917MOL0     N20929   8.313   9.487   9.455  0.0287 -0.3067  0.5396
  917MOL0     C20930   8.183   9.496   9.430 -0.1224 -0.3299 -0.3403
  917MOL0     C20931   8.130   9.379   9.469 -0.0232  0.3527  0.2589
  917MOL0     C20932   7.992   9.330   9.467  0.1375 -0.4926 -0.3805
  917MOL0     C20933   7.897   9.434   9.539 -0.2709 -0.1292  0.3866
  917MOL0     C20934   7.751   9.388   9.535  0.2961 -0.1589 -1.2894
  917MOL0     C20935   7.718   9.241   9.590  0.2688  0.4362  0.1927
  917MOL0     O20936   7.576   9.221   9.606 -0.9722  0.3213  0.0162
  917MOL0     C20937   7.509   9.108   9.576  0.0520  0.0758  0.3266
  917MOL0     C20938   7.561   8.986   9.541 -0.7567  0.1666 -0.5905
  917MOL0     C20939   7.480   8.868   9.538  0.5417 -0.4684 -0.4950
  917MOL0     C20940   7.342   8.872   9.572 -0.2349  0.1693 -0.1674
  917MOL0     C20941   7.254   8.754   9.576 -0.2212 -0.5137  0.3695
  917MOL0     O20942   7.122   8.784   9.565 -0.0586 -0.3579  0.3149
  917MOL0     C20943   7.028   8.695   9.593  0.4183 -0.1595 -0.0448
  917MOL0     C20944   7.033   8.627   9.716 -0.5215 -0.2460  1.2344
  917MOL0     C20945   6.931   8.548   9.757  0.3631  0.8007  0.7415
  917MOL0     C20946   6.821   8.524   9.667  0.9210 -0.5531  0.7469
  917MOL0     O20947   6.704   8.455   9.679 -0.0380 -0.0359  0.4467
  917MOL0     C20948   6.678   8.386   9.805 -0.3635 -0.5291  0.5351
  917MOL0     C20949   6.558   8.304   9.802  0.0596  0.5174  0.6979
  917MOL0     C20950   6.431   8.369   9.751  0.7613  0.9007  0.2761
  917MOL0     C20951   6.311   8.268   9.757  1.2352  0.7533 -0.0174
  917MOL0     C20952   6.182   8.332   9.824  0.2404  0.2025  0.6752
  917MOL0     C20953   6.061   8.238   9.794  0.4351  0.2427 -0.9747
  917MOL0     C20954   5.925   8.315   9.813  0.0288  0.0816  0.2136
  917MOL0     C20955   5.844   8.307   9.683  0.2745  0.5168  0.7730
  917MOL0    Cl20956   5.773   8.143   9.669  0.3202 -0.0388 -0.2867
  917MOL0     C20957   6.829   8.591   9.541  0.4660 -0.4947  0.5496
  917MOL0     C20958   6.929   8.673   9.501 -0.1290 -0.0526 -0.0942
  917MOL0     O20959   7.303   8.646   9.597 -0.0305 -0.1125 -0.2115
  917MOL0     C20960   7.290   8.997   9.606  0.8668 -0.5676 -0.0059
  917MOL0     C20961   7.375   9.111   9.607  0.2933  0.6522  0.2000
  917MOL0     N20962   8.234   9.306   9.527  0.5827 -0.1316 -0.1745
  917MOL0     N20963   8.343   9.374   9.514 -0.1424  0.2547 -0.0357
  917MOL0     C20964   9.305   9.898   9.244 -0.4194 -0.3934 -0.7719
  917MOL0     C20965   9.443   9.893   9.209  0.1775 -0.4744  1.1576
  917MOL0     C20966   9.885   9.967   9.229  0.3815  0.9505  0.1877
  917MOL0     C20967   9.980   9.904   9.303  0.6510 -0.3703  0.1272
  917MOL0     C20968  10.120   9.899   9.267 -0.3968 -0.5316  0.8409
  917MOL0     C20969  10.154   9.955   9.138  0.1084  0.0872 -0.4358
  917MOL0     O20970  10.281   9.965   9.081 -0.7086  0.5369 -0.3757
  917MOL0     C20971  10.390   9.968   9.179  0.7939  0.6448  0.0911
  917MOL0     C20972  10.529   9.981   9.127  0.0408  0.4961  0.1334
  917MOL0     C20973  10.568   9.886   9.014  0.4081  0.4757  0.1085
  917MOL0     C20974  10.707   9.923   8.955  0.7988 -0.5091 -0.8532
  917MOL0     C20975  10.710   9.885   8.816  0.0691 -0.3276  0.5070
  917MOL0     C20976  10.702   9.853   8.697 -0.6073 -0.0107 -0.4601
  917MOL0     C20977  10.049  10.013   9.058  0.1831 -0.6796  0.3629
  917MOL0     C20978   9.916  10.014   9.099 -0.2013  0.2078 -0.5276
  917MOL0     H20979   9.520  10.214   9.256 -1.6258  0.9999  0.1655
  917MOL0     H20980   9.297  10.223   9.315 -0.3910 -0.0560  0.4053
  917MOL0     H20981   9.020   9.904   9.418  0.9959 -1.7595 -1.4693
  917MOL0     H20982   9.045   9.855   9.249  1.3742  0.3897 -1.4209
  917MOL0     H20983   8.879  10.047   9.194  1.0588 -0.0571 -0.2672
  917MOL0     H20984   8.866  10.072   9.370  3.6008  0.3998 -0.4147
  917MOL0     H20985   8.774   9.853   9.388  0.5050  0.6121  0.7677
  917MOL0     H20986   8.766   9.831   9.208 -4.7787  0.7441 -1.5479
  917MOL0     H20987   8.633  10.054   9.362 -1.4695 -0.0101  1.3550
  917MOL0     H20988   8.628  10.027   9.190  0.8202 -1.0475 -0.1630
  917MOL0     H20989   8.418   9.924   9.318  0.3785 -0.5109 -2.1081
  917MOL0     H20990   8.530   9.853   9.434  0.9652 -0.9633 -0.6648
  917MOL0     H20991   8.596   9.700   9.244 -0.1296  1.5669 -3.0269
  917MOL0     H20992   8.482   9.790   9.140  0.2336  0.7735  0.5678
  917MOL0     H20993   8.298   9.729   9.309 -0.6795 -0.5128  0.2066
  917MOL0     H20994   8.349   9.598   9.216  0.1460  0.9338 -2.5379
  917MOL0     H20995   8.428   9.660   9.507 -0.2375  0.5627 -0.0836
  917MOL0     H20996   8.503   9.539   9.419  0.2132  0.6633  1.3726
  917MOL0     H20997   8.118   9.565   9.377 -0.1274 -1.0025 -1.2389
  917MOL0     H20998   7.991   9.234   9.518 -0.2119 -0.9079 -1.1632
  917MOL0     H20999   7.957   9.316   9.365 -1.4055  1.0354 -0.1166
  917MOL0     H21000   7.911   9.531   9.491  1.3821 -1.7151 -2.5954
  917MOL0     H21001   7.928   9.442   9.644  0.4800 -1.2649  0.2632
  917MOL0     H21002   7.695   9.457   9.598  2.0828  2.0433 -1.9703
  917MOL0     H21003   7.717   9.395   9.432  1.1928  2.3581 -1.4826
  917MOL0     H21004   7.776   9.229   9.682 -1.3216  0.7602  1.2622
  917MOL0     H21005   7.754   9.168   9.516  1.1351 -2.1298  2.9412
  917MOL0     H21006   7.666   8.969   9.520  0.6435  1.9314  3.7991
  917MOL0     H21007   7.503   8.768   9.503 -1.7214 -0.2985 -2.7435
  917MOL0     H21008   7.107   8.641   9.793  4.3253  2.5343 -3.2499
  917MOL0     H21009   6.934   8.495   9.852  0.9776  0.4505  0.5324
  917MOL0     H21010   6.640   8.465   9.871  0.3031  0.2172  0.0380
  917MOL0     H21011   6.759   8.337   9.861 -1.5131  0.2778  3.0803
  917MOL0     H21012   6.541   8.265   9.903 -0.7106 -1.1624 -0.0510
  917MOL0     H21013   6.586   8.220   9.739 -0.5458  1.2771 -0.6194
  917MOL0     H21014   6.448   8.393   9.646  0.7095 -0.8124 -0.1457
  917MOL0     H21015   6.413   8.458   9.813 -0.5131  0.4307  0.6323
  917MOL0     H21016   6.281   8.234   9.658 -1.4496 -0.0198  0.9765
  917MOL0     H21017   6.348   8.182   9.814 -1.4864 -0.7076 -0.3357
  917MOL0     H21018   6.153   8.424   9.772 -1.7958 -1.7996 -2.0204
  917MOL0     H21019   6.204   8.352   9.929  0.8215  0.8379  0.4399
  917MOL0     H21020   6.066   8.154   9.863  1.5956  0.0036 -1.3378
  917MOL0     H21021   6.072   8.197   9.693  1.7003  0.2119 -0.8326
  917MOL0     H21022   5.858   8.270   9.886 -1.5090  3.1886  0.8983
  917MOL0     H21023   5.947   8.420   9.837 -1.3166  1.3515 -3.4271
  917MOL0     H21024   5.902   8.315   9.590 -1.5188  1.3083 -0.3481
  917MOL0     H21025   5.759   8.376   9.677  0.3746  0.5710 -0.3524
  917MOL0     H21026   6.744   8.574   9.475  0.8215  1.2822 -0.4220
  917MOL0     H21027   6.928   8.708   9.399 -1.3927  1.6124  0.4434
  917MOL0     H21028   7.184   9.007   9.625  1.1566  1.9754  0.5819
  917MOL0     H21029   7.325   9.202   9.639 -1.0598 -0.5258  1.6061
  917MOL0     H21030   9.243   9.809   9.244 -3.5230  1.5584  0.8455
  917MOL0     H21031   9.486   9.804   9.164 -0.4593  0.6111 -1.8117
  917MOL0     H21032   9.950   9.874   9.403  1.3072 -1.9465 -0.1231
  917MOL0     H21033  10.200   9.876   9.337  1.3600  4.3764  0.8584
  917MOL0     H21034  10.378   9.878   9.240 -2.4957  0.9289  0.0375
  917MOL0     H21035  10.378  10.057   9.241  1.4532  1.7518 -1.3266
  917MOL0     H21036  10.523  10.084   9.090 -0.2347  0.9065  1.2586
  917MOL0     H21037  10.593   9.967   9.215  0.5950 -1.9157 -0.6009
  917MOL0     H21038  10.484   9.890   8.945  1.2229 -2.6758 -1.2401
  917MOL0     H21039  10.563   9.781   9.045  0.5044 -0.0726 -1.6254
  917MOL0     H21040  10.723  10.031   8.955 -1.1020 -0.1945 -0.6386
  917MOL0     H21041  10.784   9.871   9.013 -1.2870 -2.2957  0.4541
  917MOL0     H21042  10.709   9.813   8.598  1.8740 -2.2179  0.5164
  917MOL0     H21043  10.080  10.036   8.957 -0.7649  0.9044  0.4071
  917MOL0     H21044   9.840  10.061   9.038 -0.6200  1.2227  0.7206
  918MOL0     O21045  10.644   9.647   8.085 -0.2452  0.1920  0.5951
  918MOL0     C21046  10.759   9.611   8.039 -0.0034 -0.4432 -0.1257
  918MOL0     O21047  10.780   9.528   7.934  0.3579 -0.5011 -0.4096
  918MOL0     C21048  10.671   9.507   7.856 -0.8894 -0.6496 -0.7692
  918MOL0     C21049  10.640   9.590   7.740  0.4149 -0.0766 -0.6116
  918MOL0     C21050  10.521   9.563   7.666 -0.8404  0.3038 -0.7312
  918MOL0     C21051  10.441   9.453   7.702  0.6499  0.6605 -0.4787
  918MOL0     O21052  10.327   9.419   7.637  0.3090  0.2323 -0.1342
  918MOL0     C21053  10.327   9.432   7.491  0.0919 -0.1134  0.1346
  918MOL0     C21054  10.192   9.387   7.447 -0.3792  0.0577 -0.3690
  918MOL0     C21055  10.167   9.436   7.302  0.9092  0.0694  0.0424
  918MOL0     C21056  10.023   9.404   7.261  1.1899 -0.1754  0.5931
  918MOL0     C21057   9.927   9.512   7.309 -1.0321 -0.2953 -0.4212
  918MOL0     C21058   9.786   9.480   7.265 -0.4797  0.3718 -1.0901
  918MOL0     C21059   9.758   9.503   7.118 -0.0393 -0.2556 -1.0086
  918MOL0     C21060   9.624   9.430   7.078 -0.2352 -0.1432  0.3631
  918MOL0     N21061   9.647   9.283   7.084 -0.1745 -0.6594 -0.3282
  918MOL0     C21062   9.587   9.198   7.167  0.9750  0.2569 -1.3205
  918MOL0     C21063   9.643   9.075   7.144 -0.5535 -0.2359  0.8756
  918MOL0     C21064   9.604   8.946   7.203 -0.0751  0.7801 -0.5545
  918MOL0     C21065   9.657   8.960   7.352 -0.1088 -1.0747 -0.2599
  918MOL0     C21066   9.808   8.974   7.376  0.2298 -0.4815 -0.1183
  918MOL0     C21067   9.883   8.868   7.298 -0.1604  0.4057 -0.8148
  918MOL0     O21068   9.823   8.735   7.319 -0.6634 -0.2773  0.2125
  918MOL0     C21069   9.899   8.625   7.304 -0.4776  0.6106 -0.2947
  918MOL0     C21070   9.848   8.511   7.375 -0.2852  0.4043 -0.2807
  918MOL0     C21071   9.926   8.403   7.397 -0.5605 -0.9202 -0.9882
  918MOL0     C21072  10.043   8.383   7.322 -0.6999  0.0878 -0.4927
  918MOL0     C21073  10.127   8.261   7.341  0.3021 -0.1813 -0.2351
  918MOL0     O21074  10.241   8.239   7.256  0.1056 -0.2168 -0.6317
  918MOL0     C21075  10.322   8.134   7.279 -0.7096 -0.2752 -0.3053
  918MOL0     C21076  10.303   8.005   7.222 -0.1144  0.5721 -0.4394
  918MOL0     C21077  10.393   7.906   7.240 -0.6198  0.4565 -0.5636
  918MOL0     C21078  10.510   7.921   7.311 -0.3546 -0.7333 -0.7795
  918MOL0     O21079  10.581   7.809   7.331  0.3081 -0.2304 -0.3784
  918MOL0     C21080  10.714   7.808   7.287 -0.7031  0.4623  0.3798
  918MOL0     C21081  10.821   7.828   7.401  0.6441  0.4134  0.2826
  918MOL0     C21082  10.816   7.696   7.490 -0.5490 -0.0315  0.4154
  918MOL0     C21083  10.937   7.685   7.588  0.1471 -0.5802  0.9393
  918MOL0     C21084  11.071   7.671   7.517 -0.7102  0.4770 -0.9964
  918MOL0     C21085  11.187   7.638   7.613  0.5954 -0.2544  0.0913
  918MOL0     C21086  11.161   7.520   7.710 -0.7209 -0.1620  0.1852
  918MOL0     C21087  11.127   7.381   7.653 -0.1519  0.6259  0.2226
  918MOL0    Cl21088  11.255   7.332   7.534 -0.3224  0.2054 -0.0363
  918MOL0     C21089  10.535   8.053   7.369  0.1607  0.3100  0.6122
  918MOL0     C21090  10.445   8.159   7.341  0.0575  0.6904 -0.0172
  918MOL0     O21091  10.085   8.180   7.420 -0.4496  0.1752  0.1629
  918MOL0     C21092  10.089   8.495   7.247 -0.4373  0.3395 -0.0898
  918MOL0     C21093  10.017   8.618   7.229  0.5553  0.9033 -0.1675
  918MOL0     N21094   9.734   9.094   7.040 -0.6061 -0.1707  0.0108
  918MOL0     N21095   9.736   9.216   7.001  0.0471  0.0800  0.3549
  918MOL0     C21096  10.461   9.386   7.819  0.0411  0.1917  0.1890
  918MOL0     C21097  10.576   9.408   7.903  0.5073 -0.0784 -0.8032
  918MOL0     C21098  10.876   9.663   8.121  0.2469  0.2913 -0.1047
  918MOL0     C21099  11.016   9.631   8.102  0.0052 -0.0135 -0.1967
  918MOL0     C21100  11.116   9.659   8.194  0.0985 -0.1868  0.0617
  918MOL0     C21101  11.082   9.744   8.298 -0.4942 -0.0979 -0.2386
  918MOL0     O21102  11.180   9.789   8.380  0.3702  1.0922  0.3443
  918MOL0     C21103  11.228   9.686   8.466  0.3371 -0.0901  0.5756
  918MOL0     C21104  11.305   9.742   8.589  0.8737 -0.6830  0.3394
  918MOL0     C21105  11.215   9.760   8.709  0.2488  0.1913  0.4106
  918MOL0     C21106  11.283   9.852   8.813  0.6516 -0.4913 -0.2377
  918MOL0     C21107  11.175   9.873   8.911  0.5712 -0.2188  0.6659
  918MOL0     C21108  11.098   9.912   8.999 -0.8387  0.1342  0.2664
  918MOL0     C21109  10.962   9.797   8.308  0.8534 -0.1564 -0.1832
  918MOL0     C21110  10.856   9.752   8.221 -0.2930  0.4479 -0.0297
  918MOL0     H21111  10.710   9.668   7.711  0.2205 -0.2661 -1.6359
  918MOL0     H21112  10.498   9.630   7.584  0.1308 -0.3406 -1.5513
  918MOL0     H21113  10.409   9.371   7.452 -0.0611 -0.3643  0.1969
  918MOL0     H21114  10.331   9.539   7.467  0.3489 -0.4217 -1.2857
  918MOL0     H21115  10.108   9.428   7.505 -1.2384  2.5460 -3.1327
  918MOL0     H21116  10.191   9.278   7.459  0.4397 -0.3093 -3.0713
  918MOL0     H21117  10.230   9.380   7.232 -2.2614 -0.9777 -2.2264
  918MOL0     H21118  10.184   9.543   7.290 -2.9123  0.5790 -2.4902
  918MOL0     H21119  10.017   9.403   7.152 -0.0669  0.3390  0.6402
  918MOL0     H21120   9.984   9.305   7.290  2.2203 -1.0574 -0.8922
  918MOL0     H21121   9.967   9.606   7.272 -2.9129 -0.0025 -1.8798
  918MOL0     H21122   9.933   9.510   7.418 -0.3886 -1.4576 -0.4686
  918MOL0     H21123   9.726   9.547   7.328  1.3520  0.5666  0.5208
  918MOL0     H21124   9.749   9.385   7.304 -4.8942  1.8351 -1.0580
  918MOL0     H21125   9.734   9.607   7.097 -0.5656 -0.4509 -1.4006
  918MOL0     H21126   9.846   9.480   7.056  3.6648  0.9686  3.2683
  918MOL0     H21127   9.597   9.450   6.974  0.5894 -0.3232  0.1107
  918MOL0     H21128   9.543   9.468   7.141  2.0148  3.1320  1.5664
  918MOL0     H21129   9.505   9.213   7.237  1.2538 -1.7766 -0.4754
  918MOL0     H21130   9.637   8.861   7.143 -0.9557 -0.2182  0.3321
  918MOL0     H21131   9.495   8.941   7.203 -0.1603  1.4043  1.5052
  918MOL0     H21132   9.620   8.874   7.409 -2.9275  0.5254  0.5447
  918MOL0     H21133   9.603   9.046   7.391 -1.7389 -1.7441 -0.9208
  918MOL0     H21134   9.847   9.070   7.341  0.0716  0.4771  2.2014
  918MOL0     H21135   9.826   8.966   7.483 -0.9911  0.6024  0.1947
  918MOL0     H21136   9.985   8.870   7.335 -1.1547 -1.2231  2.3537
  918MOL0     H21137   9.888   8.884   7.189  1.2763 -0.4320 -0.8956
  918MOL0     H21138   9.746   8.521   7.411 -0.8924 -0.3224 -1.7384
  918MOL0     H21139   9.891   8.337   7.476  1.5113  0.3874  1.1620
  918MOL0     H21140  10.210   7.982   7.170 -0.7728  0.7809  0.6002
  918MOL0     H21141  10.364   7.808   7.205  0.2512 -0.4240  1.0774
  918MOL0     H21142  10.730   7.885   7.211 -0.6070 -2.1217 -2.3942
  918MOL0     H21143  10.746   7.717   7.235  0.0477  1.1435 -0.3781
  918MOL0     H21144  10.806   7.921   7.458 -1.1104  1.0160 -1.0760
  918MOL0     H21145  10.916   7.834   7.349  0.1469  1.3066 -0.5488
  918MOL0     H21146  10.822   7.608   7.426  0.1162 -0.1112  0.5738
  918MOL0     H21147  10.728   7.689   7.554 -0.6341  1.1612  0.4506
  918MOL0     H21148  10.946   7.779   7.644 -0.4721 -0.4122  0.7606
  918MOL0     H21149  10.920   7.608   7.663 -1.8970 -0.1195  0.9988
  918MOL0     H21150  11.106   7.759   7.463  1.4967 -0.5957 -1.4118
  918MOL0     H21151  11.069   7.587   7.447 -0.5017 -0.5017  0.1419
  918MOL0     H21152  11.198   7.725   7.678  0.5605 -1.6864  2.1058
  918MOL0     H21153  11.283   7.622   7.562  1.6947  0.6269  1.8142
  918MOL0     H21154  11.255   7.505   7.764 -2.2407 -5.3766  2.0376
  918MOL0     H21155  11.085   7.558   7.778  1.0926  2.0669  1.0789
  918MOL0     H21156  11.027   7.389   7.608 -0.0318  1.2723  0.0609
  918MOL0     H21157  11.111   7.312   7.736 -1.3531 -1.0825 -1.3259
  918MOL0     H21158  10.624   8.076   7.426  0.3572 -0.8147  0.7835
  918MOL0     H21159  10.469   8.260   7.373 -2.6341  1.1842  0.6906
  918MOL0     H21160  10.184   8.514   7.198  1.1822 -1.2915  2.2219
  918MOL0     H21161  10.046   8.700   7.165  0.1772  1.6990  0.6636
  918MOL0     H21162  10.395   9.303   7.840  0.6245 -1.2007 -2.8800
  918MOL0     H21163  10.606   9.354   7.992 -1.2147 -1.0804 -0.7898
  918MOL0     H21164  11.039   9.578   8.010 -0.2426  0.4969 -0.5616
  918MOL0     H21165  11.217   9.619   8.187  0.7451  1.2269  0.8224
  918MOL0     H21166  11.296   9.621   8.410  1.5798  1.1689  0.5897
  918MOL0     H21167  11.140   9.633   8.504 -2.1489  2.9657 -0.5382
  918MOL0     H21168  11.386   9.673   8.614  0.5813 -2.3553 -2.8365
  918MOL0     H21169  11.348   9.838   8.557 -0.2436 -0.4665 -0.5680
  918MOL0     H21170  11.195   9.665   8.759  1.3273  0.0694  0.6441
  918MOL0     H21171  11.119   9.798   8.673  0.2962  0.1567  0.2467
  918MOL0     H21172  11.371   9.800   8.852  1.1264 -1.5069 -2.5279
  918MOL0     H21173  11.320   9.945   8.767 -0.2417 -0.0632 -0.1014
  918MOL0     H21174  11.020   9.940   9.067 -1.8244 -2.3773  0.2845
  918MOL0     H21175  10.954   9.878   8.380  3.7885  1.0702 -1.0679
  918MOL0     H21176  10.755   9.792   8.228  1.1600  4.2202  2.0729
  919MOL0     O21177  10.436   9.692   7.239 -0.1599  0.0181 -0.2626
  919MOL0     C21178  10.500   9.748   7.148  1.0413  0.2754  0.4509
  919MOL0     O21179  10.434   9.804   7.042 -1.0002 -0.0090  0.0151
  919MOL0     C21180  10.301   9.831   7.043  0.3532  0.5795 -1.3138
  919MOL0     C21181  10.245   9.959   7.021 -1.2142 -0.0375  0.4403
  919MOL0     C21182  10.113   9.987   7.013 -0.0342  0.0356  0.1004
  919MOL0     C21183  10.024   9.876   7.027 -0.4982  0.6693  0.2346
  919MOL0     O21184   9.885   9.887   7.022 -0.7223 -0.3962  0.6617
  919MOL0     C21185   9.826  10.010   7.039 -0.5392 -0.6571  0.5291
  919MOL0     C21186   9.677   9.997   7.057  0.1191 -0.4155  0.2327
  919MOL0     C21187   9.599  10.132   7.052  0.0086  0.0864  0.9440
  919MOL0     C21188   9.450  10.112   7.038  0.3610  0.2050 -0.1377
  919MOL0     C21189   9.361  10.112   7.169 -1.0767  0.0646  0.8605
  919MOL0     C21190   9.212  10.101   7.132 -0.5810 -0.6567  0.4932
  919MOL0     C21191   9.126  10.084   7.258 -0.1515  0.7532 -0.1700
  919MOL0     C21192   8.977  10.095   7.225 -1.4194  0.4435 -0.0141
  919MOL0     N21193   8.915   9.960   7.200 -0.4089 -0.0476  0.1828
  919MOL0     C21194   8.863   9.918   7.086 -0.2984 -0.1360 -0.0998
  919MOL0     C21195   8.806   9.793   7.108  0.4185 -0.0428  0.0229
  919MOL0     C21196   8.751   9.702   7.006  0.5087  0.0486 -0.3500
  919MOL0     C21197   8.809   9.567   7.028 -0.8012  1.1729  0.2806
  919MOL0     C21198   8.947   9.549   6.959 -0.9084 -0.4648  0.4331
  919MOL0     C21199   9.016   9.408   6.987 -0.5368  0.7457 -0.1224
  919MOL0     O21200   9.145   9.408   6.922 -0.4940 -0.6019  0.0875
  919MOL0     C21201   9.207   9.284   6.901 -0.3748 -0.4620  0.1452
  919MOL0     C21202   9.347   9.289   6.854  0.3715 -0.0919  0.6819
  919MOL0     C21203   9.417   9.169   6.828  0.4262  0.5068 -0.3930
  919MOL0     C21204   9.354   9.044   6.839 -0.7014  0.4780 -0.2847
  919MOL0     C21205   9.420   8.911   6.823  0.0952 -0.2899  0.9342
  919MOL0     O21206   9.562   8.918   6.801  0.1538  0.6986 -0.0955
  919MOL0     C21207   9.631   8.811   6.756 -0.0719 -0.0880  1.1146
  919MOL0     C21208   9.759   8.811   6.801  0.9363  0.8105 -0.4545
  919MOL0     C21209   9.849   8.724   6.755  0.1632  0.2821  0.0807
  919MOL0     C21210   9.818   8.640   6.643 -0.0841 -0.6196 -0.6548
  919MOL0     O21211   9.919   8.550   6.603  0.4377  0.0165 -0.6148
  919MOL0     C21212   9.928   8.533   6.459  0.7107  0.0448  0.1684
  919MOL0     C21213  10.036   8.430   6.419  0.1194 -0.6998  0.3819
  919MOL0     C21214  10.176   8.489   6.449  0.1027  0.1567 -0.3714
  919MOL0     C21215  10.287   8.392   6.399  0.0677 -1.0397  0.7761
  919MOL0     C21216  10.423   8.453   6.365 -0.7518  0.7786  0.3949
  919MOL0     C21217  10.515   8.487   6.480 -0.3854  0.5163  0.1233
  919MOL0     C21218  10.646   8.548   6.425  0.2146 -0.1475 -0.0290
  919MOL0     C21219  10.747   8.589   6.536  0.2453 -0.0370 -0.0397
  919MOL0    Cl21220  10.912   8.540   6.515  0.0423 -0.3146  0.2873
  919MOL0     C21221   9.692   8.632   6.598 -0.0913  0.1420 -0.2718
  919MOL0     C21222   9.595   8.723   6.658 -0.0106  0.2532  0.3186
  919MOL0     O21223   9.349   8.808   6.825 -0.5528 -0.0755  0.4465
  919MOL0     C21224   9.214   9.041   6.868  1.0706 -0.8244 -0.1560
  919MOL0     C21225   9.142   9.162   6.896  1.1150  0.0155 -0.3964
  919MOL0     N21226   8.810   9.774   7.246 -0.4936 -0.0824 -0.4472
  919MOL0     N21227   8.886   9.870   7.295 -0.7397 -0.2372  0.0926
  919MOL0     C21228  10.077   9.751   7.039 -0.0578 -0.1713 -0.2713
  919MOL0     C21229  10.215   9.726   7.044 -0.8514  0.5784 -0.2701
  919MOL0     C21230  10.650   9.748   7.150 -0.2706 -0.5100 -0.1333
  919MOL0     C21231  10.716   9.766   7.273  0.2021  0.0146  0.0277
  919MOL0     C21232  10.855   9.778   7.280  0.4862  0.8068 -0.1435
  919MOL0     C21233  10.933   9.761   7.166  0.8577 -0.3888  0.1825
  919MOL0     O21234  11.067   9.777   7.156 -0.0558 -0.1884  0.0328
  919MOL0     C21235  11.145   9.758   7.273 -0.0157  0.3850 -0.4744
  919MOL0     C21236  11.161   9.611   7.304  0.0581 -0.3701  0.0078
  919MOL0     C21237  11.261   9.584   7.422  0.1501 -0.0300  0.7277
  919MOL0     C21238  11.201   9.627   7.553 -0.2312 -0.0791  0.0899
  919MOL0     C21239  11.298   9.631   7.656 -1.2576  0.6182 -0.3060
  919MOL0     C21240  11.391   9.630   7.735  0.0591  0.0170 -0.3422
  919MOL0     C21241  10.861   9.751   7.043 -0.6308 -0.4760  0.1453
  919MOL0     C21242  10.722   9.738   7.032  0.4508  0.8845  1.0364
  919MOL0     H21243  10.319  10.038   7.017 -1.0220 -0.2367  0.0445
  919MOL0     H21244  10.087  10.093   7.014 -0.1333  0.0128  0.8316
  919MOL0     H21245   9.841  10.070   6.948 -1.4342 -0.6578  0.3721
  919MOL0     H21246   9.868  10.057   7.128  2.8343 -0.2021 -1.1241
  919MOL0     H21247   9.647   9.945   7.148 -0.1615 -0.7090 -0.0257
  919MOL0     H21248   9.636   9.941   6.973 -0.9808  0.9001 -0.1419
  919MOL0     H21249   9.634  10.200   6.974  0.1991  0.2669  1.1841
  919MOL0     H21250   9.618  10.192   7.141  1.6304  0.4105  0.4047
  919MOL0     H21251   9.418  10.194   6.974 -4.1925 -0.8079  0.5147
  919MOL0     H21252   9.431  10.021   6.979 -2.3476  0.9228 -0.4834
  919MOL0     H21253   9.368  10.197   7.238 -3.4523  2.1444 -1.2627
  919MOL0     H21254   9.385  10.024   7.230 -1.2900 -1.7367 -1.5472
  919MOL0     H21255   9.207  10.012   7.068 -1.2968  0.7108 -1.4323
  919MOL0     H21256   9.188  10.189   7.072 -1.0616  0.3394  2.0733
  919MOL0     H21257   9.161   9.991   7.304  2.6901  1.2062 -1.2107
  919MOL0     H21258   9.154  10.163   7.328  1.4507  0.7202 -0.7138
  919MOL0     H21259   8.956  10.166   7.144  2.0019  1.3161 -0.3000
  919MOL0     H21260   8.941  10.135   7.320  0.0496 -0.0221  0.7717
  919MOL0     H21261   8.881   9.965   6.990 -0.7737  0.7673  0.2349
  919MOL0     H21262   8.773   9.740   6.906  0.5443 -2.8380 -1.5274
  919MOL0     H21263   8.643   9.693   7.020  0.3653  1.4205 -0.3875
  919MOL0     H21264   8.741   9.491   6.988 -1.0564  0.8886  1.2095
  919MOL0     H21265   8.817   9.546   7.135  0.6106  2.6186  0.4980
  919MOL0     H21266   8.939   9.560   6.850  0.0226 -0.9105  0.3118
  919MOL0     H21267   9.016   9.629   6.988 -0.2614 -0.7084 -0.4094
  919MOL0     H21268   8.946   9.330   6.957  1.3835  0.1192 -3.4735
  919MOL0     H21269   9.036   9.401   7.094 -1.1479  0.5058 -0.0208
  919MOL0     H21270   9.391   9.389   6.853  1.4647 -0.5511 -1.1559
  919MOL0     H21271   9.523   9.165   6.807  0.2106 -1.3277 -1.3408
  919MOL0     H21272   9.790   8.883   6.876  0.8987 -1.5528  1.9991
  919MOL0     H21273   9.949   8.728   6.796  0.4256 -2.6196 -0.0871
  919MOL0     H21274   9.945   8.629   6.408 -0.3013 -0.3327 -0.9374
  919MOL0     H21275   9.833   8.488   6.426 -0.8162  3.0197  0.1167
  919MOL0     H21276  10.039   8.417   6.310  1.6177  1.5613  0.0849
  919MOL0     H21277  10.023   8.336   6.473  0.4067  0.3024  2.2790
  919MOL0     H21278  10.186   8.496   6.557  0.5497 -1.4514 -0.2724
  919MOL0     H21279  10.179   8.590   6.408 -1.8145  1.5000  2.5002
  919MOL0     H21280  10.288   8.305   6.465 -3.3971 -1.2316  0.7723
  919MOL0     H21281  10.252   8.349   6.305 -0.1351 -0.7188  0.7019
  919MOL0     H21282  10.404   8.541   6.303 -1.7552  0.9473  0.9106
  919MOL0     H21283  10.472   8.374   6.309 -2.6869  0.5227 -1.0200
  919MOL0     H21284  10.540   8.389   6.523  1.9909  0.1837 -1.7746
  919MOL0     H21285  10.461   8.542   6.557  0.1819 -1.5075  2.0718
  919MOL0     H21286  10.691   8.473   6.360  0.0394 -1.0019  0.8166
  919MOL0     H21287  10.623   8.639   6.370 -0.5076  1.7569  3.1611
  919MOL0     H21288  10.719   8.549   6.633  3.2677 -0.2819  0.8393
  919MOL0     H21289  10.744   8.697   6.553 -0.2964 -0.3703  2.1696
  919MOL0     H21290   9.652   8.573   6.517 -1.2138  0.0135  0.3536
  919MOL0     H21291   9.495   8.724   6.616 -0.3406 -2.1498  0.9245
  919MOL0     H21292   9.156   8.949   6.864  0.0622 -0.1814 -1.0917
  919MOL0     H21293   9.036   9.158   6.918  0.9250 -0.6396 -1.3625
  919MOL0     H21294  10.008   9.670   7.060 -1.0774 -0.3643 -3.7307
  919MOL0     H21295  10.256   9.627   7.059  0.4186  1.1079 -0.0420
  919MOL0     H21296  10.651   9.790   7.357 -0.3329  2.2021 -0.9238
  919MOL0     H21297  10.911   9.771   7.374  0.3841 -0.1679 -0.1462
  919MOL0     H21298  11.116   9.814   7.363  0.7505 -1.0215  0.6935
  919MOL0     H21299  11.237   9.813   7.254 -0.2906  0.8109 -0.5917
  919MOL0     H21300  11.066   9.562   7.328  0.2432 -0.3845  0.7302
  919MOL0     H21301  11.201   9.562   7.215  1.0639  0.2288  0.1216
  919MOL0     H21302  11.352   9.643   7.410  0.2021  0.0884  1.6251
  919MOL0     H21303  11.287   9.479   7.405  0.4294  0.2637 -0.8449
  919MOL0     H21304  11.158   9.728   7.553  0.5326  0.2902  1.8811
  919MOL0     H21305  11.115   9.563   7.573 -1.7075  2.3904  2.3529
  919MOL0     H21306  11.467   9.631   7.811  0.5344  2.1646 -0.7747
  919MOL0     H21307  10.914   9.730   6.951 -0.0918 -0.8918  0.5470
  919MOL0     H21308  10.680   9.739   6.932 -1.0222  4.1294  1.5646
  920MOL0     O21309  10.177   6.582   7.404 -0.3867  0.0900 -0.4775
  920MOL0     C21310  10.251   6.677   7.380 -0.1914 -0.0204  0.1727
  920MOL0     O21311  10.207   6.802   7.330 -0.4891  0.3651 -0.6811
  920MOL0     C21312  10.072   6.810   7.315 -0.3141 -0.1654 -0.6366
  920MOL0     C21313   9.998   6.720   7.234 -0.0809 -0.3159  0.3384
  920MOL0     C21314   9.859   6.737   7.225 -0.5352  0.5326 -0.8013
  920MOL0     C21315   9.787   6.834   7.298  0.0014  0.1900 -0.4244
  920MOL0     O21316   9.652   6.847   7.304  0.5814 -0.1446 -0.2732
  920MOL0     C21317   9.575   6.765   7.213  0.1216  0.2681 -0.0261
  920MOL0     C21318   9.454   6.847   7.187  0.6505 -0.2707 -0.0547
  920MOL0     C21319   9.367   6.784   7.073 -0.9115  0.5452 -0.0925
  920MOL0     C21320   9.223   6.839   7.070 -0.1285 -0.2139 -0.1523
  920MOL0     C21321   9.214   6.976   7.004 -0.8297 -0.7444 -0.8590
  920MOL0     C21322   9.080   7.037   6.964  0.3329  0.1348  0.0221
  920MOL0     C21323   8.986   7.056   7.085  0.0436  0.2447 -0.3083
  920MOL0     C21324   8.869   7.158   7.053 -0.2188  0.3232 -0.4321
  920MOL0     N21325   8.742   7.113   6.991  0.2030  0.5686  0.0978
  920MOL0     C21326   8.632   7.060   7.052  0.7256  0.2983  0.2319
  920MOL0     C21327   8.548   7.014   6.951  0.6553 -0.5101 -0.0892
  920MOL0     C21328   8.420   6.942   6.979 -0.1615  0.4903 -0.2819
  920MOL0     C21329   8.379   6.845   6.867 -0.0468  0.2351  0.0888
  920MOL0     C21330   8.482   6.733   6.843 -0.8460 -0.6334  0.0203
  920MOL0     C21331   8.464   6.620   6.955 -0.0904  0.3037  0.2704
  920MOL0     O21332   8.524   6.654   7.086  0.1818 -0.1563  0.2326
  920MOL0     C21333   8.598   6.562   7.144  0.2357 -0.1694 -0.3435
  920MOL0     C21334   8.544   6.436   7.168  0.0887 -0.4712  1.3622
  920MOL0     C21335   8.618   6.341   7.238  0.1514 -0.2746 -0.2041
  920MOL0     C21336   8.748   6.359   7.288  1.3401 -0.2733  0.5285
  920MOL0     C21337   8.817   6.263   7.369 -0.3997 -0.6540  1.1088
  920MOL0     O21338   8.952   6.290   7.379 -0.1839  0.0456 -0.1896
  920MOL0     C21339   9.032   6.211   7.456  0.2384  0.7568 -0.4885
  920MOL0     C21340   9.054   6.081   7.416  0.0107  0.2892  0.0911
  920MOL0     C21341   9.128   5.996   7.497 -0.4065  1.0428  0.8704
  920MOL0     C21342   9.181   6.035   7.618  0.4301 -0.7617  0.7624
  920MOL0     O21343   9.259   5.945   7.685  0.9125 -0.5585 -0.3471
  920MOL0     C21344   9.395   5.981   7.715 -0.3065  0.1724  0.0734
  920MOL0     C21345   9.490   5.948   7.605  0.0195 -0.4956  0.9089
  920MOL0     C21346   9.462   5.810   7.550 -0.3794 -0.4340 -0.5816
  920MOL0     C21347   9.578   5.771   7.450  0.5664 -0.0402 -0.0745
  920MOL0     C21348   9.552   5.810   7.300 -0.3030  0.7115 -0.2082
  920MOL0     C21349   9.668   5.783   7.205 -0.3322 -0.7320  0.4813
  920MOL0     C21350   9.738   5.652   7.228  0.0174 -0.4823  0.0009
  920MOL0     C21351   9.643   5.531   7.201  0.5525 -0.8964  0.4720
  920MOL0    Cl21352   9.735   5.382   7.255 -0.1374  0.1639 -0.2192
  920MOL0     C21353   9.167   6.172   7.652  0.2912 -0.4170  0.6500
  920MOL0     C21354   9.096   6.256   7.568  0.3983 -0.2675  0.2882
  920MOL0     O21355   8.766   6.159   7.404 -0.6565 -0.6612 -0.2142
  920MOL0     C21356   8.804   6.482   7.247 -0.8909  0.1206 -0.9027
  920MOL0     C21357   8.733   6.583   7.182 -0.6190  0.8329  1.0555
  920MOL0     N21358   8.607   7.037   6.829  0.8102 -0.7834  0.0792
  920MOL0     N21359   8.719   7.093   6.859  0.0098  0.2215  0.1971
  920MOL0     C21360   9.865   6.928   7.374  0.0919 -0.4082  0.9898
  920MOL0     C21361  10.007   6.914   7.384 -0.0297 -0.3615 -1.2779
  920MOL0     C21362  10.382   6.677   7.432  0.6203 -0.4207 -0.4788
  920MOL0     C21363  10.443   6.567   7.495  0.5615 -0.4561  0.0851
  920MOL0     C21364  10.560   6.581   7.564 -0.5128 -0.2939  0.3791
  920MOL0     C21365  10.632   6.698   7.567  0.2771 -0.3329 -0.5620
  920MOL0     O21366  10.749   6.732   7.632 -0.4063 -0.1904  0.0803
  920MOL0     C21367  10.810   6.621   7.696 -0.4674  0.2045 -0.9276
  920MOL0     C21368  10.935   6.659   7.765  0.6168 -0.4400 -0.2506
  920MOL0     C21369  10.911   6.721   7.904  0.0623  0.0088 -0.6438
  920MOL0     C21370  11.029   6.810   7.941 -0.7680  0.0637 -0.1983
  920MOL0     C21371  11.151   6.736   7.974 -0.8999  0.6803  0.2638
  920MOL0     C21372  11.257   6.680   7.995 -0.2287  0.7912  0.0823
  920MOL0     C21373  10.583   6.808   7.488  0.7924  0.9511 -0.0240
  920MOL0     C21374  10.456   6.797   7.426  1.0337  0.0147 -0.1018
  920MOL0     H21375  10.048   6.636   7.188 -0.4358  0.2995 -1.2319
  920MOL0     H21376   9.814   6.655   7.170 -1.5262  0.2252  0.4241
  920MOL0     H21377   9.549   6.671   7.262 -1.9012  1.0035  0.4158
  920MOL0     H21378   9.631   6.744   7.121  3.1039 -0.7587  1.8685
  920MOL0     H21379   9.485   6.949   7.162 -2.1895  0.4784 -0.8595
  920MOL0     H21380   9.388   6.867   7.272  1.2656 -0.5677  0.5066
  920MOL0     H21381   9.367   6.676   7.091 -0.0877  0.2683 -1.5760
  920MOL0     H21382   9.423   6.802   6.980  0.6204 -0.4266  0.6001
  920MOL0     H21383   9.171   6.766   7.007  1.3254 -0.8943 -0.6111
  920MOL0     H21384   9.179   6.844   7.170  0.2363  0.6247 -0.0270
  920MOL0     H21385   9.282   6.978   6.919 -1.7244  3.7612 -1.7446
  920MOL0     H21386   9.261   7.042   7.078 -0.7772 -3.0239  1.2702
  920MOL0     H21387   9.035   6.977   6.884 -0.4083 -1.0916  1.3178
  920MOL0     H21388   9.096   7.137   6.922 -0.0404  1.0933  2.0361
  920MOL0     H21389   8.936   6.962   7.109  0.3749 -0.8896 -3.5617
  920MOL0     H21390   9.035   7.096   7.174  0.2105  1.0565 -0.7540
  920MOL0     H21391   8.911   7.242   6.996 -0.4584  0.8888  0.2188
  920MOL0     H21392   8.836   7.199   7.149  0.7030 -1.2025  0.5740
  920MOL0     H21393   8.617   7.037   7.157 -0.4529 -0.6331 -0.1135
  920MOL0     H21394   8.341   7.016   6.991  0.7227  1.5764 -0.9762
  920MOL0     H21395   8.435   6.886   7.072 -1.0671 -0.7157 -0.8361
  920MOL0     H21396   8.377   6.898   6.771  1.0458  0.5872  0.2432
  920MOL0     H21397   8.279   6.804   6.880 -0.3230  1.1947  1.1058
  920MOL0     H21398   8.464   6.694   6.742  0.2021  0.8960 -0.7959
  920MOL0     H21399   8.585   6.768   6.854 -0.5610 -0.4271 -2.5841
  920MOL0     H21400   8.518   6.528   6.930 -1.0137  0.2684 -1.7004
  920MOL0     H21401   8.357   6.604   6.966  0.1686 -0.3346  2.4797
  920MOL0     H21402   8.438   6.421   7.147  0.2012  0.1931  0.2328
  920MOL0     H21403   8.567   6.247   7.255 -0.3080 -0.2921 -1.5730
  920MOL0     H21404   9.018   6.036   7.324  0.8782 -1.6524  0.6412
  920MOL0     H21405   9.144   5.891   7.474  2.3171  2.0581 -2.6998
  920MOL0     H21406   9.416   5.939   7.813  1.6753 -0.4052 -0.5425
  920MOL0     H21407   9.399   6.090   7.725  0.3238  0.5625 -3.2102
  920MOL0     H21408   9.588   5.937   7.652 -0.2558 -1.0098  1.3730
  920MOL0     H21409   9.494   6.028   7.531  0.5214 -1.7393 -0.4703
  920MOL0     H21410   9.366   5.807   7.497 -0.0410  3.2757 -1.6848
  920MOL0     H21411   9.466   5.743   7.637 -1.9728 -1.4780 -1.2516
  920MOL0     H21412   9.672   5.816   7.483  0.0130  0.5908  0.6938
  920MOL0     H21413   9.588   5.663   7.465 -1.3352 -0.2532 -0.1617
  920MOL0     H21414   9.521   5.914   7.287 -1.4584  0.0963 -3.7493
  920MOL0     H21415   9.461   5.752   7.281  0.0610 -0.0996  0.4598
  920MOL0     H21416   9.736   5.868   7.214 -0.2739  0.0498 -4.4295
  920MOL0     H21417   9.629   5.800   7.104  1.9128  0.0771 -0.3022
  920MOL0     H21418   9.836   5.652   7.180  0.8257  0.7299  1.5802
  920MOL0     H21419   9.756   5.641   7.335 -0.5246  0.3984  0.1862
  920MOL0     H21420   9.641   5.530   7.091 -0.5464  0.3823  0.4553
  920MOL0     H21421   9.540   5.550   7.233 -1.0355  0.1951 -4.3514
  920MOL0     H21422   9.196   6.210   7.750 -0.3596  3.3988 -0.4576
  920MOL0     H21423   9.074   6.352   7.613  0.8714 -0.6861  1.4402
  920MOL0     H21424   8.905   6.509   7.275 -0.0812 -0.8317 -2.7038
  920MOL0     H21425   8.779   6.679   7.160  1.1474  0.0102  1.0000
  920MOL0     H21426   9.812   6.998   7.438 -0.9410 -0.6302  0.3959
  920MOL0     H21427  10.063   6.977   7.453  2.3735 -1.4832 -2.0870
  920MOL0     H21428  10.398   6.473   7.466 -0.5649 -0.0228  0.3591
  920MOL0     H21429  10.614   6.489   7.588 -2.0176 -1.8279 -1.7302
  920MOL0     H21430  10.837   6.543   7.625 -0.2687 -0.5321 -0.0596
  920MOL0     H21431  10.746   6.576   7.772  0.4671 -0.2996 -0.4269
  920MOL0     H21432  11.010   6.580   7.768  2.6237  1.3275 -0.8592
  920MOL0     H21433  10.978   6.732   7.694 -1.9306  0.8959 -0.5378
  920MOL0     H21434  10.900   6.641   7.977  0.5761  0.4080 -0.1157
  920MOL0     H21435  10.820   6.781   7.909  0.9388  1.4307 -0.9853
  920MOL0     H21436  11.056   6.879   7.860 -1.4225  0.9343  0.3049
  920MOL0     H21437  11.002   6.864   8.032  1.0187  0.2458  0.2657
  920MOL0     H21438  11.348   6.635   8.028 -0.6482 -0.8100 -0.7899
  920MOL0     H21439  10.631   6.906   7.486  0.0806  1.3478  1.2869
  920MOL0     H21440  10.423   6.888   7.376 -0.6870 -0.6467 -0.2018
  921MOL0     O21441   1.867   5.366   1.984  0.0772 -0.1402  0.4790
  921MOL0     C21442   1.961   5.354   1.904 -1.0454  0.1557  0.6956
  921MOL0     O21443   2.004   5.243   1.838  0.6298 -0.3139 -0.2681
  921MOL0     C21444   1.955   5.122   1.867  0.2112 -0.9870  0.5939
  921MOL0     C21445   1.820   5.094   1.847  0.1691  0.4091 -0.3221
  921MOL0     C21446   1.774   4.964   1.852 -0.8202  0.5743 -0.9091
  921MOL0     C21447   1.860   4.849   1.862  0.0223 -0.6434 -0.1275
  921MOL0     O21448   1.806   4.720   1.871  0.0217 -0.1423 -0.4028
  921MOL0     C21449   1.900   4.612   1.881 -0.5239 -0.2249 -0.3916
  921MOL0     C21450   1.832   4.474   1.873  0.1688 -0.1582 -0.7518
  921MOL0     C21451   1.721   4.459   1.972 -0.1170 -0.8808 -0.8849
  921MOL0     C21452   1.684   4.318   2.013  0.2860 -0.1027 -0.5694
  921MOL0     C21453   1.552   4.316   2.092  0.1232  0.1272 -0.3352
  921MOL0     C21454   1.516   4.172   2.125 -0.1985  0.8031  0.5333
  921MOL0     C21455   1.369   4.152   2.140 -0.2072 -0.2969 -0.2456
  921MOL0     C21456   1.330   4.005   2.162  0.0892 -0.1263 -1.5912
  921MOL0     N21457   1.221   3.954   2.083  0.3560 -0.2938 -0.0166
  921MOL0     C21458   1.092   4.007   2.098 -0.4296  0.0287  0.0689
  921MOL0     C21459   1.009   3.915   2.051 -0.0106  1.1688 -0.5487
  921MOL0     C21460   0.854   3.909   2.051 -0.0486  0.2365  0.2190
  921MOL0     C21461   0.790   3.814   2.154  0.1840  0.5128 -0.3794
  921MOL0     C21462   0.677   3.875   2.226  0.5727  0.9883 -0.1423
  921MOL0     C21463   0.617   3.788   2.329 -0.3938 -0.1262 -0.6071
  921MOL0     O21464   0.581   3.662   2.275 -0.4097  0.7304  0.6492
  921MOL0     C21465   0.457   3.660   2.214 -0.0820  0.1816  0.3829
  921MOL0     C21466   0.341   3.661   2.301 -0.6546  0.0251 -0.2396
  921MOL0     C21467   0.213   3.650   2.246 -0.0078 -1.0116 -1.0104
  921MOL0     C21468   0.197   3.634   2.108 -0.1672 -0.6769 -0.6237
  921MOL0     C21469   0.063   3.648   2.050 -0.0832  0.1420 -0.2475
  921MOL0     O21470   0.053   3.607   1.923  0.5584 -0.5534 -0.3198
  921MOL0     C21471  -0.062   3.641   1.855  0.2351  0.8319 -0.3561
  921MOL0     C21472  -0.098   3.774   1.841 -0.7608 -1.0040  0.1297
  921MOL0     C21473  -0.210   3.810   1.780 -0.1121 -0.0881  0.0570
  921MOL0     C21474  -0.289   3.719   1.702  0.1988 -0.0795  0.2043
  921MOL0     O21475  -0.387   3.768   1.618 -0.2736  0.1691  0.2001
  921MOL0     C21476  -0.465   3.673   1.546  0.8720  0.4671 -0.2282
  921MOL0     C21477  -0.570   3.758   1.477  0.0071 -0.3719  0.7545
  921MOL0     C21478  -0.658   3.849   1.562  1.1205  0.1720  0.0414
  921MOL0     C21479  -0.760   3.772   1.646  0.1910  0.1583  0.1446
  921MOL0     C21480  -0.855   3.865   1.732 -0.0381  0.5004 -0.8280
  921MOL0     C21481  -0.779   3.977   1.812 -0.5479 -0.7391 -0.2856
  921MOL0     C21482  -0.879   4.050   1.906 -0.1796 -0.3443 -0.2895
  921MOL0     C21483  -1.007   4.098   1.839  0.0408  0.5259 -0.7647
  921MOL0    Cl21484  -0.955   4.182   1.694  0.4398 -0.2464  0.0488
  921MOL0     C21485  -0.245   3.587   1.707 -0.0582  0.3488  0.4847
  921MOL0     C21486  -0.129   3.553   1.778  0.3341  0.3842  0.4663
  921MOL0     O21487  -0.027   3.690   2.123  0.8577 -0.0632  0.6357
  921MOL0     C21488   0.315   3.628   2.023 -1.0676  0.5902 -0.1243
  921MOL0     C21489   0.439   3.642   2.077 -0.1096 -0.0132  0.4473
  921MOL0     N21490   1.087   3.806   2.009  0.2805 -0.0001 -0.2907
  921MOL0     N21491   1.209   3.837   2.021  0.2873 -0.6782  0.9092
  921MOL0     C21492   1.990   4.885   1.884  0.5947 -1.5586 -0.4448
  921MOL0     C21493   2.038   5.016   1.876  0.1639 -0.3662 -0.4831
  921MOL0     C21494   2.056   5.474   1.906 -0.1375 -0.0063  0.0198
  921MOL0     C21495   2.187   5.470   1.856  0.0789  0.1012  0.3430
  921MOL0     C21496   2.269   5.584   1.846 -0.3250  0.1870 -0.9700
  921MOL0     C21497   2.226   5.708   1.880 -1.0174 -0.0046  0.2646
  921MOL0     O21498   2.323   5.805   1.861  0.5283  0.7673 -0.0002
  921MOL0     C21499   2.283   5.937   1.889 -0.2753  0.2770 -0.3365
  921MOL0     C21500   2.383   6.041   1.837  0.3334 -0.3455 -0.1063
  921MOL0     C21501   2.401   6.026   1.683 -0.0871 -0.2275 -0.2756
  921MOL0     C21502   2.498   6.130   1.628  0.2230 -0.0179  0.4937
  921MOL0     C21503   2.429   6.253   1.605 -0.8778  0.1638 -0.2090
  921MOL0     C21504   2.372   6.360   1.592  1.3023 -0.5789  0.2228
  921MOL0     C21505   2.093   5.716   1.931  0.5088 -0.5251  0.0114
  921MOL0     C21506   2.015   5.606   1.944  0.3587  0.3936 -0.1405
  921MOL0     H21507   1.758   5.178   1.819  0.2981  0.0690 -1.7216
  921MOL0     H21508   1.666   4.951   1.852 -0.7264 -1.4996  2.9253
  921MOL0     H21509   1.953   4.615   1.977  1.4605  0.4908 -1.4592
  921MOL0     H21510   1.970   4.612   1.798  0.5716  0.0133  0.5140
  921MOL0     H21511   1.910   4.398   1.884  1.1915  0.7112 -1.7245
  921MOL0     H21512   1.789   4.461   1.773  2.3962 -0.9707 -1.6746
  921MOL0     H21513   1.629   4.500   1.928  1.4457  1.6670 -1.9574
  921MOL0     H21514   1.750   4.525   2.054 -0.6808  1.0544 -2.1761
  921MOL0     H21515   1.670   4.257   1.923  2.1486  0.4126 -1.2468
  921MOL0     H21516   1.772   4.281   2.066  1.0402  0.2023 -1.5823
  921MOL0     H21517   1.474   4.372   2.040 -0.7937  0.5776  1.4442
  921MOL0     H21518   1.555   4.369   2.187 -1.5374  0.6883 -0.5636
  921MOL0     H21519   1.560   4.133   2.217 -2.1946 -1.1029  0.7591
  921MOL0     H21520   1.549   4.099   2.051  3.1421  1.9741  0.7092
  921MOL0     H21521   1.340   4.199   2.234  0.0884  0.7601 -0.6574
  921MOL0     H21522   1.311   4.188   2.054 -1.5638 -2.2624 -0.2109
  921MOL0     H21523   1.310   3.999   2.270  0.4094  1.9394 -1.3769
  921MOL0     H21524   1.418   3.939   2.158  0.1308 -0.1336 -0.8278
  921MOL0     H21525   1.069   4.103   2.144  0.6981  0.3570 -0.0126
  921MOL0     H21526   0.833   3.885   1.947 -2.0145  0.2170  0.5809
  921MOL0     H21527   0.812   4.007   2.076 -0.7990  0.2292 -0.9536
  921MOL0     H21528   0.866   3.778   2.224 -1.5673 -1.3167  0.6838
  921MOL0     H21529   0.761   3.721   2.105  1.9564 -0.4157  0.2457
  921MOL0     H21530   0.725   3.954   2.284  3.4178 -1.2186  0.7908
  921MOL0     H21531   0.603   3.914   2.155 -0.8338 -0.3783  0.5329
  921MOL0     H21532   0.534   3.838   2.380  1.2391 -0.0847  2.2102
  921MOL0     H21533   0.698   3.765   2.399 -0.2011 -2.3192 -1.4897
  921MOL0     H21534   0.346   3.686   2.406  2.1063 -1.2428  0.0194
  921MOL0     H21535   0.125   3.652   2.310  0.8243 -1.1365  0.1700
  921MOL0     H21536  -0.045   3.855   1.889 -0.4657  0.5053 -2.5345
  921MOL0     H21537  -0.258   3.907   1.779 -0.5417 -0.2946 -1.2048
  921MOL0     H21538  -0.517   3.603   1.612  3.8928 -1.0497  0.7623
  921MOL0     H21539  -0.400   3.618   1.476  2.6808  1.7824  0.3284
  921MOL0     H21540  -0.640   3.697   1.419 -1.6475 -0.2140  2.5192
  921MOL0     H21541  -0.516   3.823   1.407 -1.6729  1.2359  0.8708
  921MOL0     H21542  -0.712   3.923   1.502 -0.7373 -1.1497 -0.0070
  921MOL0     H21543  -0.597   3.905   1.633 -1.6570  2.2392  0.9851
  921MOL0     H21544  -0.827   3.697   1.603  1.4728 -1.1353  0.3320
  921MOL0     H21545  -0.697   3.709   1.709  1.3494  3.1636  2.2129
  921MOL0     H21546  -0.917   3.797   1.791 -1.6578 -0.4117 -3.4385
  921MOL0     H21547  -0.926   3.913   1.664 -1.9059 -2.3241 -1.0468
  921MOL0     H21548  -0.739   4.056   1.748 -1.2930  1.9916  2.3609
  921MOL0     H21549  -0.692   3.933   1.862 -0.6342 -0.1512  0.4093
  921MOL0     H21550  -0.912   3.986   1.989  2.7458  1.1287  2.2104
  921MOL0     H21551  -0.830   4.131   1.960  0.2655 -1.9756  1.9384
  921MOL0     H21552  -1.070   4.153   1.910 -0.1863 -0.3672 -0.2568
  921MOL0     H21553  -1.065   4.012   1.804  0.9794 -0.7192  0.6211
  921MOL0     H21554  -0.292   3.505   1.653  0.1785  1.4649 -1.5138
  921MOL0     H21555  -0.098   3.450   1.763  2.6289  1.2947 -1.8779
  921MOL0     H21556   0.306   3.614   1.916 -3.0082  1.0599 -0.0634
  921MOL0     H21557   0.525   3.640   2.012 -0.8816  2.6048 -0.7743
  921MOL0     H21558   2.066   4.808   1.894  0.5764 -1.5257 -0.0219
  921MOL0     H21559   2.145   5.024   1.889  0.0459  1.3556 -0.3154
  921MOL0     H21560   2.230   5.378   1.818 -0.7339 -0.3749  0.5553
  921MOL0     H21561   2.365   5.568   1.799 -0.9986 -3.1541 -1.4814
  921MOL0     H21562   2.273   5.950   1.997  1.7292  1.4181 -0.2440
  921MOL0     H21563   2.183   5.954   1.847 -0.7169 -0.4740  0.3854
  921MOL0     H21564   2.346   6.143   1.848  1.7926  0.2429 -0.3354
  921MOL0     H21565   2.477   6.036   1.893 -0.2215 -1.5518  0.7598
  921MOL0     H21566   2.301   6.043   1.642 -1.7429 -0.9880  3.0958
  921MOL0     H21567   2.445   5.928   1.665  2.5430  1.0163 -1.0664
  921MOL0     H21568   2.568   6.150   1.709  0.8962  1.0454 -0.3234
  921MOL0     H21569   2.540   6.084   1.538  1.4651 -1.8324  1.9297
  921MOL0     H21570   2.323   6.454   1.577 -1.4715 -2.1670 -1.5539
  921MOL0     H21571   2.067   5.814   1.971  2.7445  0.0814  0.1019
  921MOL0     H21572   1.912   5.620   1.976  0.0812 -2.5856  0.6382
  922MOL0     O21573   8.047   5.577   0.470  0.6335 -0.1302  0.2244
  922MOL0     C21574   8.093   5.571   0.355 -0.7172 -0.2846 -0.7648
  922MOL0     O21575   8.023   5.596   0.237  0.3947 -0.5299  0.3033
  922MOL0     C21576   7.898   5.665   0.246 -0.3947 -0.2040  0.3798
  922MOL0     C21577   7.876   5.762   0.146  0.2096 -1.1500 -0.6687
  922MOL0     C21578   7.775   5.853   0.149  0.2656 -0.5425  0.4863
  922MOL0     C21579   7.694   5.859   0.264 -0.7008 -0.2004  0.7400
  922MOL0     O21580   7.604   5.964   0.278 -0.3479 -0.1310  0.5519
  922MOL0     C21581   7.503   5.941   0.379 -0.5979  0.9586  0.6412
  922MOL0     C21582   7.398   6.047   0.377  0.8484 -0.6614 -0.7320
  922MOL0     C21583   7.328   6.054   0.509  0.0038  0.4865 -0.5528
  922MOL0     C21584   7.254   6.185   0.518 -0.3828 -0.3186  0.0908
  922MOL0     C21585   7.117   6.174   0.448 -0.6429 -0.4220  0.0815
  922MOL0     C21586   7.043   6.302   0.465  0.2831  0.6762 -0.0749
  922MOL0     C21587   6.896   6.284   0.417 -0.1054 -0.7736  0.2680
  922MOL0     C21588   6.854   6.400   0.319  0.2921  0.2118 -0.6272
  922MOL0     N21589   6.840   6.528   0.380 -0.6949 -0.3974  0.1333
  922MOL0     C21590   6.813   6.550   0.513 -0.4042 -0.3672 -0.2407
  922MOL0     C21591   6.758   6.681   0.520 -0.1334 -0.1778  1.3191
  922MOL0     C21592   6.684   6.741   0.634  0.0362 -0.0380 -0.0018
  922MOL0     C21593   6.625   6.876   0.598  0.5406 -0.3763  0.6810
  922MOL0     C21594   6.569   6.946   0.722 -0.1191 -0.6757 -0.7286
  922MOL0     C21595   6.460   6.867   0.778 -0.6738  0.7138 -0.7240
  922MOL0     O21596   6.363   6.834   0.682  0.4564  0.4873  0.3995
  922MOL0     C21597   6.235   6.800   0.722  1.0819  0.3318 -0.5350
  922MOL0     C21598   6.153   6.738   0.629 -0.5026 -0.6263  0.1385
  922MOL0     C21599   6.025   6.697   0.656  0.4706 -0.2706  0.4065
  922MOL0     C21600   5.971   6.706   0.780  0.3293 -0.3431  0.7026
  922MOL0     C21601   5.836   6.653   0.823 -0.6502 -0.1975  0.6283
  922MOL0     O21602   5.802   6.640   0.955  0.1737  0.5230 -0.6860
  922MOL0     C21603   5.677   6.584   0.992  0.2847  0.1221  0.5767
  922MOL0     C21604   5.568   6.639   0.929  0.4428  0.6462 -0.1664
  922MOL0     C21605   5.439   6.605   0.969 -0.1333 -0.8982 -0.1372
  922MOL0     C21606   5.412   6.492   1.052 -0.5345  0.6305 -0.3507
  922MOL0     O21607   5.296   6.458   1.106  0.4358  0.7844  0.0192
  922MOL0     C21608   5.181   6.538   1.077 -0.9334  0.5424 -0.6701
  922MOL0     C21609   5.116   6.494   0.945 -0.1033 -0.0116  0.6292
  922MOL0     C21610   5.055   6.356   0.956  0.8304 -0.2515 -0.7903
  922MOL0     C21611   5.014   6.296   0.818  0.2995 -0.4773 -0.0235
  922MOL0     C21612   5.002   6.140   0.838 -0.4602 -0.2279 -0.8100
  922MOL0     C21613   4.978   6.070   0.702 -0.3554 -0.1366 -0.1944
  922MOL0     C21614   5.053   5.934   0.701  0.5075  0.3652  0.1267
  922MOL0     C21615   5.030   5.870   0.569  0.3110 -0.1143  0.5147
  922MOL0    Cl21616   4.854   5.827   0.555  0.1973 -0.2836 -0.1566
  922MOL0     C21617   5.532   6.423   1.104  0.5792  0.3936 -0.4062
  922MOL0     C21618   5.663   6.474   1.073 -1.1926 -0.5086  0.1924
  922MOL0     O21619   5.769   6.622   0.727  0.1292 -0.7415  0.8742
  922MOL0     C21620   6.041   6.768   0.879 -0.0827 -0.1249  0.4322
  922MOL0     C21621   6.176   6.805   0.850 -0.5489  0.5753 -0.4721
  922MOL0     N21622   6.753   6.720   0.386 -0.9640  0.3180  0.3774
  922MOL0     N21623   6.812   6.639   0.307  0.3042  0.0301  0.1546
  922MOL0     C21624   7.711   5.767   0.370  0.4916  0.0003  0.5568
  922MOL0     C21625   7.810   5.670   0.362  0.9764 -0.2338 -0.3080
  922MOL0     C21626   8.231   5.506   0.334  0.2306 -1.1581  0.2457
  922MOL0     C21627   8.295   5.497   0.210  0.4462  0.2129 -0.1334
  922MOL0     C21628   8.425   5.459   0.194 -0.0641 -0.6201 -0.3554
  922MOL0     C21629   8.499   5.425   0.303  0.2509  0.1523  0.6046
  922MOL0     O21630   8.635   5.382   0.298  0.6735 -0.4196  0.0082
  922MOL0     C21631   8.714   5.448   0.195 -0.6479 -0.5620 -0.4066
  922MOL0     C21632   8.864   5.465   0.225  0.3266 -0.1211 -0.7056
  922MOL0     C21633   8.896   5.461   0.380  0.2317 -0.0486  0.1282
  922MOL0     C21634   9.041   5.512   0.387  0.5032 -0.1121 -0.0172
  922MOL0     C21635   9.131   5.401   0.341 -0.4845  0.5604 -0.1576
  922MOL0     C21636   9.221   5.327   0.299 -0.3505  0.0569  0.0363
  922MOL0     C21637   8.436   5.405   0.422  0.5055 -0.5102 -0.0515
  922MOL0     C21638   8.298   5.448   0.435 -0.5349 -0.2566 -0.2186
  922MOL0     H21639   7.940   5.762   0.058 -0.0256 -0.7226 -0.8427
  922MOL0     H21640   7.755   5.936   0.082  0.4285 -0.9328 -0.0530
  922MOL0     H21641   7.542   5.923   0.480 -1.6534 -3.6158  0.4520
  922MOL0     H21642   7.459   5.843   0.358 -0.4318  0.5575  2.0416
  922MOL0     H21643   7.328   6.016   0.300 -1.1655 -0.6434  1.0122
  922MOL0     H21644   7.452   6.137   0.345  1.9348 -1.5505 -1.4920
  922MOL0     H21645   7.398   6.050   0.593 -0.8121 -1.6441  0.1082
  922MOL0     H21646   7.258   5.972   0.527 -3.5695  3.3003 -0.4226
  922MOL0     H21647   7.244   6.206   0.625 -1.3630 -0.2004 -0.0157
  922MOL0     H21648   7.314   6.260   0.466  2.4054 -0.5781  2.6423
  922MOL0     H21649   7.063   6.097   0.504 -1.1676  0.2067  0.4449
  922MOL0     H21650   7.127   6.139   0.345 -0.2676  1.2139 -0.4606
  922MOL0     H21651   7.090   6.385   0.413  3.1280  0.0556  1.2862
  922MOL0     H21652   7.051   6.329   0.571  1.0251 -2.1054  0.6658
  922MOL0     H21653   6.890   6.185   0.370  0.0004 -1.5854  1.8848
  922MOL0     H21654   6.819   6.276   0.494 -2.2848 -2.0301 -1.9168
  922MOL0     H21655   6.749   6.381   0.293  0.1991 -3.5208  1.6852
  922MOL0     H21656   6.926   6.404   0.238  1.1767  0.0991  0.1379
  922MOL0     H21657   6.830   6.478   0.592 -1.7726  0.0498  0.4537
  922MOL0     H21658   6.762   6.758   0.709  0.8253  4.3632 -1.4827
  922MOL0     H21659   6.605   6.671   0.660 -0.2169  0.5737  0.9307
  922MOL0     H21660   6.560   6.876   0.510  0.2691 -1.7547  0.8580
  922MOL0     H21661   6.708   6.944   0.575 -1.6001  1.6374 -1.6459
  922MOL0     H21662   6.646   6.955   0.798 -1.5817  2.1517  0.5506
  922MOL0     H21663   6.526   7.045   0.705  1.4282  0.3609  0.9721
  922MOL0     H21664   6.404   6.911   0.861 -1.5429 -1.2596 -0.2007
  922MOL0     H21665   6.508   6.778   0.818 -3.0488 -0.6808 -0.7852
  922MOL0     H21666   6.195   6.739   0.530  1.7119 -3.8938  0.8603
  922MOL0     H21667   5.967   6.646   0.579 -2.9198  1.5272  1.5770
  922MOL0     H21668   5.578   6.725   0.864 -0.3852 -0.3668 -1.7243
  922MOL0     H21669   5.359   6.665   0.927 -0.7577 -1.5075  0.1556
  922MOL0     H21670   5.208   6.643   1.087 -0.0858  0.1920  1.1653
  922MOL0     H21671   5.119   6.521   1.165  1.6782  0.0889  1.1834
  922MOL0     H21672   5.198   6.492   0.873  0.9469  2.7449  1.5905
  922MOL0     H21673   5.049   6.571   0.906  0.2030  0.4087  0.9206
  922MOL0     H21674   4.966   6.367   1.018  0.4024 -1.9053 -1.0644
  922MOL0     H21675   5.119   6.285   1.011 -0.1136 -0.2610  0.3315
  922MOL0     H21676   4.912   6.331   0.799  1.1640  2.1760 -0.1481
  922MOL0     H21677   5.069   6.336   0.732 -0.5653 -1.8375 -1.2572
  922MOL0     H21678   4.933   6.110   0.918  1.4642 -1.7080  0.4005
  922MOL0     H21679   5.095   6.112   0.887 -0.7451  1.0891  0.5715
  922MOL0     H21680   5.023   6.130   0.623  2.7923 -3.6529 -1.3675
  922MOL0     H21681   4.870   6.056   0.693 -0.3216 -1.5482  1.1457
  922MOL0     H21682   5.158   5.963   0.708 -0.1054  4.2564 -3.1825
  922MOL0     H21683   5.006   5.873   0.779 -0.1788  2.2528  1.2597
  922MOL0     H21684   5.087   5.777   0.563  0.4414  0.0838 -3.1330
  922MOL0     H21685   5.055   5.930   0.482 -0.3268  1.0570  1.1124
  922MOL0     H21686   5.541   6.337   1.169  3.3327 -1.3641 -2.8976
  922MOL0     H21687   5.756   6.429   1.104  0.5174  1.6214 -1.4997
  922MOL0     H21688   6.006   6.792   0.978  2.8461  1.6766  1.1417
  922MOL0     H21689   6.228   6.849   0.934  2.3660 -0.4130 -1.6317
  922MOL0     H21690   7.645   5.763   0.456 -1.3253 -3.7629 -0.8184
  922MOL0     H21691   7.810   5.593   0.438  0.2668  1.0350  1.0196
  922MOL0     H21692   8.235   5.537   0.129  2.0651  3.2391 -0.0170
  922MOL0     H21693   8.471   5.476   0.097 -0.7883 -1.8719 -0.9392
  922MOL0     H21694   8.672   5.545   0.167 -1.3062 -0.6507  0.2260
  922MOL0     H21695   8.707   5.385   0.106  0.3819 -0.2767 -0.7059
  922MOL0     H21696   8.900   5.370   0.185 -3.7380 -0.4591 -4.3096
  922MOL0     H21697   8.904   5.552   0.172  0.2522  1.3403  1.4857
  922MOL0     H21698   8.893   5.358   0.417  0.2157  1.0183  3.3801
  922MOL0     H21699   8.838   5.517   0.454  0.4475 -0.1718  0.3930
  922MOL0     H21700   9.052   5.598   0.321 -1.5991 -0.8382 -1.4224
  922MOL0     H21701   9.065   5.545   0.489 -0.9649  0.4092  0.1893
  922MOL0     H21702   9.307   5.277   0.260  1.0977 -0.4592  3.4917
  922MOL0     H21703   8.496   5.353   0.496  0.9705 -2.7381 -1.8968
  922MOL0     H21704   8.266   5.437   0.538 -0.8652 -2.7070 -0.5105
  923MOL0     O21705   3.808   8.110  10.643 -0.6724 -0.0124  0.3695
  923MOL0     C21706   3.793   8.081  10.522 -0.3379 -0.1823  0.6738
  923MOL0     O21707   3.885   8.105  10.425 -0.0108  0.4845 -0.3964
  923MOL0     C21708   4.013   8.150  10.471  0.1954 -0.7997 -0.3355
  923MOL0     C21709   4.086   8.079  10.560 -0.2170  1.0635 -0.2450
  923MOL0     C21710   4.199   8.133  10.619 -0.0914 -0.4484  0.0580
  923MOL0     C21711   4.264   8.245  10.577  1.3347  0.4070 -0.1342
  923MOL0     O21712   4.374   8.307  10.635 -0.2510  0.2063  0.8123
  923MOL0     C21713   4.487   8.324  10.562 -0.0400 -0.2570 -0.5218
  923MOL0     C21714   4.518   8.469  10.521  0.6918  0.4747  0.1632
  923MOL0     C21715   4.655   8.479  10.451  0.4644  0.4379  0.3664
  923MOL0     C21716   4.714   8.624  10.459  0.3090 -0.2654  0.0448
  923MOL0     C21717   4.842   8.637  10.377 -0.8727 -0.3657 -0.4299
  923MOL0     C21718   4.901   8.770  10.408  0.0528  0.1932  0.0415
  923MOL0     C21719   5.059   8.750  10.401 -1.0307 -0.3461 -0.3578
  923MOL0     C21720   5.124   8.881  10.434  0.7960  1.0303  0.0291
  923MOL0     N21721   5.092   8.929  10.565 -0.6102  0.8429  0.2973
  923MOL0     C21722   5.110   8.861  10.680  0.6847  0.1377 -0.1014
  923MOL0     C21723   5.068   8.943  10.772 -0.8224 -0.3491 -1.1497
  923MOL0     C21724   5.042   8.909  10.915 -0.0737 -0.1171 -0.2932
  923MOL0     C21725   4.946   8.782  10.925 -0.0801 -0.3660  0.1062
  923MOL0     C21726   4.824   8.804  10.840 -1.0767 -0.4882 -0.9044
  923MOL0     C21727   4.694   8.732  10.892 -0.2269 -1.0944  0.6403
  923MOL0     O21728   4.725   8.594  10.933  0.6157 -1.2200  0.5956
  923MOL0     C21729   4.610   8.520  10.945  0.4419  0.2836 -0.0405
  923MOL0     C21730   4.621   8.392  10.982 -0.0694 -0.7702  0.1784
  923MOL0     C21731   4.521   8.298  11.009  0.0397  0.2015  0.0757
  923MOL0     C21732   4.390   8.341  10.990 -0.6389 -0.2043 -0.1446
  923MOL0     C21733   4.273   8.247  11.004  0.7466  0.3931 -0.4906
  923MOL0     O21734   4.152   8.300  11.031 -0.0965  0.2436 -0.8309
  923MOL0     C21735   4.055   8.209  11.056 -0.0446  0.6489 -0.9899
  923MOL0     C21736   4.026   8.166  11.192 -0.3282 -0.3640  0.0936
  923MOL0     C21737   3.926   8.083  11.221 -0.5925  0.3518 -0.5559
  923MOL0     C21738   3.841   8.039  11.126 -0.3902  0.0644 -0.5848
  923MOL0     O21739   3.733   7.959  11.176 -0.0653  0.4043  0.5574
  923MOL0     C21740   3.662   7.899  11.067  0.7310 -0.5396  0.2842
  923MOL0     C21741   3.542   7.813  11.131 -0.5554 -0.5455  0.9361
  923MOL0     C21742   3.584   7.702  11.228  0.2680  0.7813 -0.2734
  923MOL0     C21743   3.461   7.639  11.300  0.2680 -0.0082  0.4371
  923MOL0     C21744   3.362   7.568  11.199 -0.2504  1.0557  0.0498
  923MOL0     C21745   3.231   7.509  11.262 -1.6354 -0.3192  0.4195
  923MOL0     C21746   3.139   7.460  11.144  0.4146 -0.2086 -0.2804
  923MOL0     C21747   3.035   7.358  11.198  0.0166 -0.0579  1.3500
  923MOL0    Cl21748   2.941   7.303  11.049  0.0555 -0.0643  0.1437
  923MOL0     C21749   3.864   8.076  10.993 -0.1847 -0.2158  0.2823
  923MOL0     C21750   3.970   8.160  10.957 -0.0797  0.2807 -0.3451
  923MOL0     O21751   4.293   8.128  10.982 -0.5446  0.0979 -0.2276
  923MOL0     C21752   4.366   8.485  10.964  0.8383  0.1075 -0.4315
  923MOL0     C21753   4.476   8.567  10.946  0.2419 -0.6184  0.3906
  923MOL0     N21754   5.034   9.068  10.725 -0.0958 -0.9004 -0.1674
  923MOL0     N21755   5.059   9.056  10.595  0.0091  0.1079  0.4004
  923MOL0     C21756   4.184   8.327  10.488 -0.1114  0.7308 -0.7685
  923MOL0     C21757   4.057   8.278  10.438  0.0829 -0.6844  0.0604
  923MOL0     C21758   3.659   8.042  10.478 -0.2417 -0.4398 -0.9647
  923MOL0     C21759   3.619   8.071  10.348  1.2279  0.6095 -0.6162
  923MOL0     C21760   3.489   8.048  10.300  0.0976  0.0863 -0.6162
  923MOL0     C21761   3.401   7.976  10.388 -0.9917  0.0790  0.9501
  923MOL0     O21762   3.274   7.935  10.363  0.5175  0.5826  0.2913
  923MOL0     C21763   3.202   7.995  10.259 -0.6754 -0.1573  0.0723
  923MOL0     C21764   3.052   7.980  10.270  0.0748 -0.4258  0.5857
  923MOL0     C21765   2.993   8.027  10.406  0.5435  0.0211 -0.0931
  923MOL0     C21766   2.837   8.014  10.401 -0.4273 -0.3070 -0.4446
  923MOL0     C21767   2.782   8.045  10.537  0.1288 -0.0340 -0.1962
  923MOL0     C21768   2.733   8.066  10.646 -0.6445 -0.0829 -0.1548
  923MOL0     C21769   3.438   7.965  10.525 -0.7435  1.6409  0.7835
  923MOL0     C21770   3.566   7.989  10.570  0.7197 -0.0157  0.0184
  923MOL0     H21771   4.039   7.987  10.595 -1.9281  1.7431 -0.6646
  923MOL0     H21772   4.237   8.072  10.700 -1.0913 -1.9815 -0.5922
  923MOL0     H21773   4.479   8.257  10.476 -2.0614 -1.8362  0.8033
  923MOL0     H21774   4.575   8.285  10.614  0.0152  0.8068  0.2030
  923MOL0     H21775   4.522   8.520  10.618  2.0226 -0.1472  0.4614
  923MOL0     H21776   4.437   8.510  10.461 -1.2935 -2.0649  0.9272
  923MOL0     H21777   4.634   8.457  10.346 -2.0297  1.0907  0.6609
  923MOL0     H21778   4.723   8.416  10.509 -1.2414 -0.4295  1.5078
  923MOL0     H21779   4.633   8.689  10.424 -1.1746 -1.4373  1.1209
  923MOL0     H21780   4.745   8.638  10.564  3.9177  0.1676 -0.9471
  923MOL0     H21781   4.817   8.627  10.271  0.1232  0.1548 -0.7207
  923MOL0     H21782   4.909   8.557  10.409 -1.5099 -0.7470 -0.0138
  923MOL0     H21783   4.876   8.793  10.512  0.2592 -1.4490  0.4784
  923MOL0     H21784   4.869   8.848  10.338  0.2310 -0.0139 -0.2720
  923MOL0     H21785   5.096   8.675  10.472 -2.2644 -0.1580  0.5038
  923MOL0     H21786   5.088   8.727  10.298  1.7323  3.8312 -0.7326
  923MOL0     H21787   5.079   8.940  10.354  0.8210 -1.1881 -1.7015
  923MOL0     H21788   5.234   8.880  10.433  0.9205 -3.0233 -1.9592
  923MOL0     H21789   5.146   8.760  10.700 -1.7342 -0.2398  3.2764
  923MOL0     H21790   5.012   9.001  10.967  1.5896  0.7176 -0.7108
  923MOL0     H21791   5.137   8.874  10.957 -1.6720 -1.6616  2.2291
  923MOL0     H21792   4.919   8.771  11.030 -4.2118  0.6174 -0.6750
  923MOL0     H21793   4.993   8.690  10.887 -0.7786 -1.0750  0.9309
  923MOL0     H21794   4.810   8.912  10.835 -0.0976 -0.2414  0.7760
  923MOL0     H21795   4.852   8.770  10.739  0.9344  1.1206 -0.9566
  923MOL0     H21796   4.619   8.737  10.813 -2.9376  3.2118  3.1069
  923MOL0     H21797   4.658   8.788  10.978 -2.0694  0.2020 -0.8964
  923MOL0     H21798   4.720   8.353  11.006  1.1239  1.0711 -1.4942
  923MOL0     H21799   4.540   8.201  11.053 -0.4530 -0.6809 -1.5693
  923MOL0     H21800   4.084   8.216  11.270 -1.8150  0.8252  0.4937
  923MOL0     H21801   3.903   8.060  11.325 -0.4671  0.4838 -0.4966
  923MOL0     H21802   3.727   7.837  11.005  0.5175  0.1883 -0.6775
  923MOL0     H21803   3.608   7.967  11.001 -0.7325 -2.0394 -0.1316
  923MOL0     H21804   3.490   7.766  11.047 -2.0096 -0.3009  1.6657
  923MOL0     H21805   3.473   7.881  11.182 -2.0379 -1.8794  0.8087
  923MOL0     H21806   3.644   7.750  11.306 -1.1441  0.4167  1.0865
  923MOL0     H21807   3.640   7.621  11.180  0.2818  1.6966 -1.8367
  923MOL0     H21808   3.502   7.570  11.375 -1.6960 -0.5451  1.0762
  923MOL0     H21809   3.398   7.703  11.363  0.9093 -1.1724  2.3619
  923MOL0     H21810   3.421   7.493  11.146  0.0034  0.9056  0.5342
  923MOL0     H21811   3.326   7.636  11.122  0.4805 -0.3003 -1.5553
  923MOL0     H21812   3.171   7.589  11.307 -2.3622  0.3724 -1.6955
  923MOL0     H21813   3.255   7.428  11.332 -0.8528 -0.0984  0.4181
  923MOL0     H21814   3.088   7.545  11.098 -0.3961 -1.0179 -0.9046
  923MOL0     H21815   3.199   7.414  11.065  2.6701  2.0677 -0.0434
  923MOL0     H21816   2.966   7.396  11.274 -3.8400 -2.4381 -0.6495
  923MOL0     H21817   3.087   7.271  11.240  0.4207 -0.1192  0.7394
  923MOL0     H21818   3.808   8.034  10.910 -1.2486  1.0524  0.3262
  923MOL0     H21819   3.987   8.179  10.852  1.3195  1.2612  0.0331
  923MOL0     H21820   4.265   8.524  10.950  0.0161 -1.4998  0.7502
  923MOL0     H21821   4.451   8.670  10.920 -0.4580 -0.5708  1.2134
  923MOL0     H21822   4.230   8.421  10.460  2.2076  0.3594  1.3902
  923MOL0     H21823   3.999   8.336  10.366  2.6538  1.8568 -0.1624
  923MOL0     H21824   3.674   8.121  10.270  2.0452  2.7468  1.2395
  923MOL0     H21825   3.469   8.074  10.197  0.6289  0.5356 -0.6118
  923MOL0     H21826   3.239   7.949  10.167  2.2949  1.1366  0.4774
  923MOL0     H21827   3.217   8.104  10.260 -2.8282  0.2449 -2.0470
  923MOL0     H21828   3.008   8.035  10.186  1.2702 -0.2757  0.0365
  923MOL0     H21829   3.040   7.873  10.256  1.6040 -0.7096  1.1988
  923MOL0     H21830   3.030   8.128  10.426  2.7220 -0.8884  0.7341
  923MOL0     H21831   3.039   7.970  10.488  0.3161 -0.7445 -0.4902
  923MOL0     H21832   2.795   8.083  10.328 -2.0356 -0.9386 -0.1726
  923MOL0     H21833   2.818   7.909  10.375 -3.7145 -0.1050  0.6377
  923MOL0     H21834   2.689   8.091  10.740  0.3904 -1.6442  0.7910
  923MOL0     H21835   3.367   7.917  10.592  0.7696  0.2577  1.4740
  923MOL0     H21836   3.597   7.962  10.670  2.2827  0.8391 -0.2045
  924MOL0     O21837   5.236   0.054  10.058  0.0839 -0.8868  0.5624
  924MOL0     C21838   5.281   0.067  10.172 -0.8771 -0.1513 -0.2736
  924MOL0     O21839   5.211   0.077  10.283  0.4266 -0.1217 -0.7640
  924MOL0     C21840   5.072   0.074  10.279 -0.6515 -0.3809  0.4074
  924MOL0     C21841   4.992  -0.006  10.203 -0.5122 -0.0327  0.1733
  924MOL0     C21842   4.852  -0.020  10.219 -0.2065 -0.0102  0.6314
  924MOL0     C21843   4.789   0.056  10.324  0.2900  0.0130  0.2140
  924MOL0     O21844   4.655   0.040  10.365  0.1959 -0.2215  0.0254
  924MOL0     C21845   4.571  -0.031  10.276  0.3047 -0.6110  0.0869
  924MOL0     C21846   4.420   0.011  10.292 -0.3458 -0.3657  0.5211
  924MOL0     C21847   4.346  -0.026  10.166 -1.6140 -1.1823 -0.0315
  924MOL0     C21848   4.215   0.047  10.183  0.2836  0.4548 -0.3243
  924MOL0     C21849   4.128  -0.015  10.069  0.0876 -0.2743 -0.4111
  924MOL0     C21850   3.986   0.049  10.064  0.1039  0.7674  0.6474
  924MOL0     C21851   3.904   0.048  10.194 -0.3202  0.0973 -0.6561
  924MOL0     C21852   3.763   0.102  10.188 -0.4719  0.3026  0.9812
  924MOL0     N21853   3.678   0.014  10.100 -0.0846 -0.0965 -0.4034
  924MOL0     C21854   3.615   0.054   9.985 -0.8546  0.2244 -0.7452
  924MOL0     C21855   3.541  -0.056   9.954  0.1632  0.1512  0.6635
  924MOL0     C21856   3.449  -0.071   9.848  0.5136 -0.1305  0.0174
  924MOL0     C21857   3.320   0.016   9.869 -0.0092  0.6189  0.1514
  924MOL0     C21858   3.246   0.050   9.734 -0.1458 -0.1947  0.6952
  924MOL0     C21859   3.094   0.080   9.765  0.4832  0.8387  0.0593
  924MOL0     O21860   3.041  -0.046   9.811  0.0864  0.5631 -0.5460
  924MOL0     C21861   2.915  -0.046   9.856  0.2113  0.6151 -0.3847
  924MOL0     C21862   2.806   0.034   9.808 -0.8400 -1.0821 -0.9439
  924MOL0     C21863   2.685   0.032   9.871 -0.4021 -0.6489 -0.8142
  924MOL0     C21864   2.659  -0.035   9.992 -0.3039  0.3321 -0.0784
  924MOL0     C21865   2.529  -0.025  10.063 -0.2857 -0.9119  0.0328
  924MOL0     O21866   2.488   0.109  10.067  0.5771 -0.3463  0.0241
  924MOL0     C21867   2.381   0.148  10.141 -0.3410 -0.4799 -0.3567
  924MOL0     C21868   2.379   0.281  10.185  0.0155  0.5402  0.3711
  924MOL0     C21869   2.270   0.328  10.261 -0.5906  0.6118 -0.2434
  924MOL0     C21870   2.155   0.246  10.288 -0.0610  0.8597 -0.2918
  924MOL0     O21871   2.052   0.286  10.363  0.0203 -0.3727 -0.5131
  924MOL0     C21872   2.088   0.370  10.471  0.2669  0.2076  0.1271
  924MOL0     C21873   1.973   0.393  10.578  1.0634  0.3361  0.4759
  924MOL0     C21874   1.841   0.460  10.513 -0.4366 -0.9500 -0.5087
  924MOL0     C21875   1.722   0.473  10.607  0.5113 -0.0917  0.1616
  924MOL0     C21876   1.591   0.513  10.541  0.6044  0.8214 -0.8402
  924MOL0     C21877   1.494   0.578  10.643 -0.4669 -0.7042  0.1793
  924MOL0     C21878   1.348   0.568  10.598  0.6945  0.0134 -0.3219
  924MOL0     C21879   1.268   0.651  10.699  0.2109 -0.3022  0.2955
  924MOL0    Cl21880   1.095   0.641  10.669  0.4155  0.2442  0.0114
  924MOL0     C21881   2.152   0.118  10.236 -0.0418  0.8083 -0.6011
  924MOL0     C21882   2.263   0.070  10.163  0.3168  0.9596 -0.3851
  924MOL0     O21883   2.477  -0.127  10.110  0.4461  0.1349  0.3860
  924MOL0     C21884   2.762  -0.125  10.037 -0.1813 -0.4713  0.6134
  924MOL0     C21885   2.885  -0.131   9.964  0.5468 -0.0229  0.2096
  924MOL0     N21886   3.565  -0.161  10.041 -1.1113 -0.1676 -0.6293
  924MOL0     N21887   3.660  -0.117  10.122 -0.1418 -0.2894 -0.1523
  924MOL0     C21888   4.864   0.135  10.406 -0.6486 -0.3930  0.1372
  924MOL0     C21889   5.008   0.149  10.379  0.4608  0.5239 -0.1541
  924MOL0     C21890   5.424   0.060  10.182 -0.6430  0.7263  0.7703
  924MOL0     C21891   5.486   0.064  10.308  0.1595  0.6924 -0.5023
  924MOL0     C21892   5.620   0.056  10.331 -1.2895  0.3428  0.3676
  924MOL0     C21893   5.707   0.028  10.220 -1.0925 -0.6892  0.2149
  924MOL0     O21894   5.847   0.013  10.239  0.1563  0.1542  0.1279
  924MOL0     C21895   5.886  -0.070  10.347 -0.0151  0.2289  0.2996
  924MOL0     C21896   6.007  -0.155  10.310 -0.6965  0.2405 -0.2010
  924MOL0     C21897   6.119  -0.073  10.235 -0.1612 -0.5849 -0.1988
  924MOL0     C21898   6.254  -0.147  10.207  0.1458 -0.0587 -0.5021
  924MOL0     C21899   6.248  -0.247  10.110 -0.0282 -0.1409  0.3369
  924MOL0     C21900   6.247  -0.315  10.012  0.1492 -0.7295  0.7870
  924MOL0     C21901   5.649   0.033  10.088 -0.2281 -0.5726  0.2286
  924MOL0     C21902   5.510   0.039  10.067 -0.1638  0.4633 -0.0567
  924MOL0     H21903   5.041  -0.072  10.131 -2.5833 -0.7664 -0.6381
  924MOL0     H21904   4.792  -0.087  10.158  0.4386  1.3057 -1.5831
  924MOL0     H21905   4.569  -0.137  10.303  0.2948 -0.4846  0.5870
  924MOL0     H21906   4.612  -0.013  10.176  1.2792  0.3823  0.6520
  924MOL0     H21907   4.401   0.117  10.310  1.2229  0.9037 -3.9447
  924MOL0     H21908   4.380  -0.041  10.379 -1.6515 -3.1825 -1.6173
  924MOL0     H21909   4.342  -0.135  10.164  1.6409 -1.3995 -2.4332
  924MOL0     H21910   4.390   0.011  10.073 -3.3313  1.7036  0.1813
  924MOL0     H21911   4.167   0.020  10.277 -0.1499  0.5679 -0.5120
  924MOL0     H21912   4.224   0.155  10.170 -2.4672  0.5259 -2.7579
  924MOL0     H21913   4.123  -0.123  10.085  0.4692 -0.7443 -3.0248
  924MOL0     H21914   4.185   0.017   9.982  1.1123  1.3948  0.8155
  924MOL0     H21915   3.935  -0.005   9.983  2.6678 -1.5351  0.4133
  924MOL0     H21916   3.988   0.154  10.033 -1.9527  0.5454 -0.4702
  924MOL0     H21917   3.915  -0.055  10.230  2.6677 -0.1438 -1.8952
  924MOL0     H21918   3.957   0.107  10.269 -0.2930 -2.6428  1.6653
  924MOL0     H21919   3.772   0.197  10.135 -1.7169  0.1721  0.5150
  924MOL0     H21920   3.731   0.112  10.292 -0.4687  1.6981  0.8719
  924MOL0     H21921   3.618   0.148   9.931  3.1149  1.2959  0.9778
  924MOL0     H21922   3.418  -0.176   9.841 -0.4637  0.1726 -0.4510
  924MOL0     H21923   3.511  -0.046   9.762 -0.4114  1.3559 -0.2456
  924MOL0     H21924   3.351   0.105   9.924 -1.0708  2.0085 -1.4019
  924MOL0     H21925   3.261  -0.047   9.936  0.6429 -1.8561 -1.4591
  924MOL0     H21926   3.291   0.134   9.680 -0.0423 -1.6275 -1.5544
  924MOL0     H21927   3.245  -0.041   9.673  0.7819  1.1411 -1.4163
  924MOL0     H21928   3.043   0.098   9.670  2.0942 -1.1729 -1.2755
  924MOL0     H21929   3.081   0.163   9.835  0.6184  2.3129 -1.5937
  924MOL0     H21930   2.826   0.089   9.717  1.8120 -1.1769 -0.4968
  924MOL0     H21931   2.614   0.096   9.820  1.6994  0.4439 -2.5452
  924MOL0     H21932   2.466   0.346  10.180  0.6141 -0.3491 -1.5149
  924MOL0     H21933   2.279   0.430  10.295 -2.3649  1.2922 -1.6601
  924MOL0     H21934   2.111   0.473  10.440  0.2693  0.2681  0.3268
  924MOL0     H21935   2.173   0.333  10.529  2.0242  2.7301 -0.6594
  924MOL0     H21936   2.012   0.442  10.668  1.7124 -1.8908  1.4905
  924MOL0     H21937   1.936   0.294  10.608  0.2987  0.9080  1.5207
  924MOL0     H21938   1.812   0.395  10.429 -1.1501 -0.4840 -0.6314
  924MOL0     H21939   1.874   0.557  10.475 -1.0606 -0.6114 -0.1946
  924MOL0     H21940   1.712   0.371  10.647 -0.3685 -1.1292 -2.5034
  924MOL0     H21941   1.753   0.540  10.688 -0.8792  0.6056  0.1403
  924MOL0     H21942   1.541   0.427  10.494  1.1998  1.1329 -2.0858
  924MOL0     H21943   1.610   0.584  10.461 -1.3559  1.2801 -0.9582
  924MOL0     H21944   1.528   0.682  10.646  1.6183 -1.3447  1.6229
  924MOL0     H21945   1.504   0.521  10.736 -3.5807 -1.4917  0.1413
  924MOL0     H21946   1.335   0.624  10.505 -0.5755  0.1969 -0.0521
  924MOL0     H21947   1.310   0.465  10.596 -2.5177  1.0822 -0.4655
  924MOL0     H21948   1.294   0.757  10.699 -0.5592 -0.1114  0.2949
  924MOL0     H21949   1.293   0.611  10.798 -1.5689  1.3107  1.4639
  924MOL0     H21950   2.064   0.054  10.245 -0.3332  1.0358 -1.5964
  924MOL0     H21951   2.243  -0.028  10.122 -0.8001  0.7489  0.5980
  924MOL0     H21952   2.735  -0.199  10.111 -3.1748 -1.4317 -1.2442
  924MOL0     H21953   2.953  -0.214   9.983 -0.2562 -1.1798 -1.6585
  924MOL0     H21954   4.828   0.189  10.493 -2.2042 -1.3064  0.1170
  924MOL0     H21955   5.067   0.205  10.450 -2.3143  1.9826  1.1647
  924MOL0     H21956   5.424   0.077  10.396  1.2179  2.0051  0.0733
  924MOL0     H21957   5.654   0.062  10.434  0.0848  3.0643 -0.1527
  924MOL0     H21958   5.809  -0.140  10.382  1.1745 -0.4175  1.7439
  924MOL0     H21959   5.906  -0.004  10.432 -0.3911 -1.2787  1.6139
  924MOL0     H21960   6.041  -0.209  10.399 -2.1122 -0.2382  0.0642
  924MOL0     H21961   5.957  -0.220  10.238 -0.8795  0.5794 -0.3809
  924MOL0     H21962   6.146   0.004  10.307  0.9702  0.2555 -1.4795
  924MOL0     H21963   6.096  -0.013  10.147  4.0996  1.0340 -0.4572
  924MOL0     H21964   6.332  -0.080  10.168  1.2165 -2.4397 -2.7001
  924MOL0     H21965   6.285  -0.200  10.298 -1.1221 -1.3353 -0.7835
  924MOL0     H21966   6.251  -0.369   9.919  1.6651  0.1068  0.3221
  924MOL0     H21967   5.716   0.030  10.002  0.0865 -0.0704  0.4526
  924MOL0     H21968   5.481   0.032   9.962 -3.0088 -1.6389  0.7650
  925MOL0     O21969   2.548   3.387   1.634 -0.7103  0.0685 -0.3720
  925MOL0     C21970   2.585   3.324   1.733 -0.5473 -1.4059  1.3326
  925MOL0     O21971   2.506   3.232   1.797 -0.9455  0.1120  0.0162
  925MOL0     C21972   2.378   3.192   1.758  0.2892 -0.2762 -0.3779
  925MOL0     C21973   2.284   3.155   1.862 -0.2666  0.1303  0.2693
  925MOL0     C21974   2.161   3.109   1.823 -0.3746  0.2139  0.1198
  925MOL0     C21975   2.133   3.091   1.686  0.0125  0.7486 -0.4670
  925MOL0     O21976   1.999   3.056   1.674 -0.4913  0.1955 -0.7453
  925MOL0     C21977   1.954   3.000   1.550  0.2089 -0.1312 -0.1157
  925MOL0     C21978   1.806   2.992   1.544  0.2221  1.3803 -0.1002
  925MOL0     C21979   1.751   3.134   1.514 -1.4879 -0.4752 -0.3153
  925MOL0     C21980   1.604   3.126   1.528 -0.9932 -0.1280  0.7009
  925MOL0     C21981   1.552   3.267   1.489 -0.3359 -0.0215  0.4085
  925MOL0     C21982   1.400   3.264   1.498 -1.1272  0.4231  0.1244
  925MOL0     C21983   1.335   3.387   1.433  0.7497 -1.0378 -0.2362
  925MOL0     C21984   1.185   3.366   1.392  0.0585 -0.6539  0.4962
  925MOL0     N21985   1.093   3.352   1.506 -0.3388 -0.4014 -0.4583
  925MOL0     C21986   1.037   3.230   1.552  0.0951 -0.3286  0.0507
  925MOL0     C21987   0.923   3.271   1.623  0.0793  0.0722  1.2737
  925MOL0     C21988   0.823   3.187   1.685 -0.0053  0.7931 -0.2542
  925MOL0     C21989   0.725   3.122   1.585 -0.5482  0.2684 -0.1012
  925MOL0     C21990   0.650   3.013   1.655 -0.1615 -0.3790  0.4075
  925MOL0     C21991   0.549   2.935   1.569  0.2680  0.5585  0.0659
  925MOL0     O21992   0.490   2.822   1.645  0.2744 -0.3062  0.1332
  925MOL0     C21993   0.375   2.764   1.602 -1.0878  0.7406 -0.3926
  925MOL0     C21994   0.272   2.815   1.519  0.6042  0.4471  0.3602
  925MOL0     C21995   0.155   2.744   1.485  0.5300 -0.2273  0.0324
  925MOL0     C21996   0.132   2.615   1.539 -0.5291  0.3860  0.5650
  925MOL0     C21997   0.004   2.549   1.516 -0.1171 -0.4014 -0.6102
  925MOL0     O21998  -0.091   2.625   1.464  0.2430 -0.0735 -0.2843
  925MOL0     C21999  -0.217   2.590   1.439  0.1262 -0.2522 -0.1984
  925MOL0     C22000  -0.322   2.691   1.436  0.0135  0.3624  0.1751
  925MOL0     C22001  -0.457   2.656   1.403 -0.6740  0.2397  0.0286
  925MOL0     C22002  -0.487   2.519   1.379  0.2675 -0.7986 -0.3762
  925MOL0     O22003  -0.620   2.484   1.365 -0.4046  0.1085 -0.6747
  925MOL0     C22004  -0.695   2.543   1.263  0.9649 -0.1312  0.5863
  925MOL0     C22005  -0.837   2.493   1.264 -0.4535  0.0236  0.2003
  925MOL0     C22006  -0.924   2.539   1.149 -0.8081 -0.7403 -0.4010
  925MOL0     C22007  -1.072   2.500   1.181  0.2018  0.2362  0.3124
  925MOL0     C22008  -1.171   2.541   1.072 -0.0652  0.1290 -0.3512
  925MOL0     C22009  -1.320   2.535   1.104  0.2108 -0.0702  0.1146
  925MOL0     C22010  -1.363   2.389   1.100  0.1022  0.4250  0.2056
  925MOL0     C22011  -1.518   2.377   1.130 -0.1186  0.0856 -0.2980
  925MOL0    Cl22012  -1.559   2.406   1.301  0.1328  0.1389 -0.5010
  925MOL0     C22013  -0.389   2.426   1.394  0.4329  0.1526 -0.6899
  925MOL0     C22014  -0.258   2.453   1.415 -0.4188 -0.1262  0.1990
  925MOL0     O22015  -0.001   2.427   1.533 -0.4097  0.1920 -0.0506
  925MOL0     C22016   0.239   2.556   1.619 -0.2445  0.1240  0.6061
  925MOL0     C22017   0.359   2.635   1.648  0.3914  0.1330 -0.5206
  925MOL0     N22018   0.919   3.416   1.614  0.3454  0.2300 -0.3878
  925MOL0     N22019   1.013   3.454   1.542 -0.5270  0.3234 -0.2036
  925MOL0     C22020   2.230   3.107   1.593 -0.7974  0.6402  0.0585
  925MOL0     C22021   2.354   3.162   1.630  0.2382  0.6039  0.0778
  925MOL0     C22022   2.719   3.356   1.777 -0.7549 -0.4877  0.2903
  925MOL0     C22023   2.779   3.264   1.858 -0.7363 -1.1671  0.3298
  925MOL0     C22024   2.908   3.275   1.890 -0.7117 -0.5784  0.2905
  925MOL0     C22025   2.994   3.376   1.846 -0.1078  0.5371  1.0429
  925MOL0     O22026   3.133   3.374   1.873 -0.1622 -0.2418  0.3286
  925MOL0     C22027   3.220   3.342   1.768  0.6411 -1.2244  1.0765
  925MOL0     C22028   3.363   3.328   1.816  0.0857 -0.2946  0.3721
  925MOL0     C22029   3.384   3.212   1.918  0.2201 -0.6489  0.7189
  925MOL0     C22030   3.527   3.174   1.944  0.1629 -0.1845 -0.1977
  925MOL0     C22031   3.602   3.122   1.833 -0.3343  0.4538 -0.0134
  925MOL0     C22032   3.665   3.080   1.739  0.2076 -0.4449  0.1816
  925MOL0     C22033   2.934   3.477   1.769 -0.1794  0.3458 -0.8406
  925MOL0     C22034   2.796   3.468   1.732 -1.0506  0.3235  0.3254
  925MOL0     H22035   2.305   3.178   1.966  1.2740  1.1749 -0.2287
  925MOL0     H22036   2.087   3.084   1.898 -1.6249  1.6329 -0.5723
  925MOL0     H22037   2.012   2.909   1.535 -0.0535 -0.1225 -1.3229
  925MOL0     H22038   1.993   3.066   1.472 -0.6375  1.9331  1.1331
  925MOL0     H22039   1.763   2.952   1.636  0.0950  0.5208 -0.5270
  925MOL0     H22040   1.775   2.915   1.473 -2.4054  0.3776  1.9717
  925MOL0     H22041   1.797   3.163   1.419  2.3721  0.8461  1.7836
  925MOL0     H22042   1.791   3.197   1.594  0.2144 -4.1490  1.9829
  925MOL0     H22043   1.567   3.057   1.451  0.3380  1.3911 -1.3876
  925MOL0     H22044   1.593   3.098   1.633  2.8415  3.0929  2.2122
  925MOL0     H22045   1.576   3.292   1.385  2.3560  0.5926  1.1061
  925MOL0     H22046   1.588   3.347   1.554 -2.9761  1.0894  0.6346
  925MOL0     H22047   1.381   3.247   1.604  0.4910  0.5345  0.4570
  925MOL0     H22048   1.359   3.183   1.436  0.4402  1.5731 -2.6101
  925MOL0     H22049   1.341   3.482   1.487 -2.0723  0.4132 -2.2261
  925MOL0     H22050   1.387   3.389   1.337 -0.5682 -1.9706 -1.0118
  925MOL0     H22051   1.174   3.286   1.318 -0.9931  0.7936 -0.9857
  925MOL0     H22052   1.152   3.452   1.334 -0.6612  0.0702  1.9354
  925MOL0     H22053   1.075   3.130   1.534 -0.3132 -0.3333 -0.8805
  925MOL0     H22054   0.763   3.245   1.756 -0.4716 -0.1227  0.1041
  925MOL0     H22055   0.877   3.106   1.734 -1.6172 -0.0477  0.1756
  925MOL0     H22056   0.782   3.079   1.502  2.1835 -0.4531  1.9677
  925MOL0     H22057   0.671   3.206   1.541  0.9344 -0.0427 -2.6963
  925MOL0     H22058   0.723   2.939   1.691  0.4303  0.9627  2.1007
  925MOL0     H22059   0.600   3.045   1.747 -1.5706 -0.4011 -0.3356
  925MOL0     H22060   0.604   2.880   1.492  1.7983 -3.6424  3.6863
  925MOL0     H22061   0.472   3.000   1.528 -1.9469 -2.8426 -1.6578
  925MOL0     H22062   0.271   2.918   1.483  0.2409  0.0608 -0.7689
  925MOL0     H22063   0.085   2.793   1.418  1.3318  1.8814  0.6288
  925MOL0     H22064  -0.291   2.791   1.464 -0.7657  1.1622 -1.6653
  925MOL0     H22065  -0.522   2.742   1.392 -0.1367  0.8447  1.3965
  925MOL0     H22066  -0.656   2.539   1.161  0.8401  1.4382  0.4449
  925MOL0     H22067  -0.705   2.647   1.297  0.0740 -0.1399  0.3787
  925MOL0     H22068  -0.883   2.515   1.361  0.7447 -3.0503  1.5985
  925MOL0     H22069  -0.837   2.385   1.248  1.8055  0.3204 -2.6838
  925MOL0     H22070  -0.893   2.495   1.054  2.9572 -2.9549  1.6116
  925MOL0     H22071  -0.912   2.647   1.146 -0.2068 -0.8190 -1.1866
  925MOL0     H22072  -1.080   2.391   1.177  1.0337  0.1877 -2.3462
  925MOL0     H22073  -1.099   2.529   1.283 -0.7785  1.4339 -0.2579
  925MOL0     H22074  -1.160   2.472   0.988 -1.6558  0.3298 -0.7548
  925MOL0     H22075  -1.144   2.643   1.040  1.7237  0.5912  2.3272
  925MOL0     H22076  -1.380   2.595   1.035  0.7684  1.9102  1.2745
  925MOL0     H22077  -1.338   2.571   1.205  1.3750  1.4171 -0.1778
  925MOL0     H22078  -1.355   2.342   1.002  1.6029 -1.0091  0.9816
  925MOL0     H22079  -1.314   2.326   1.175 -2.3366 -2.6161 -0.5557
  925MOL0     H22080  -1.556   2.279   1.102 -0.4370 -0.5745  2.2119
  925MOL0     H22081  -1.574   2.451   1.072 -0.1885  1.6984  1.6951
  925MOL0     H22082  -0.420   2.324   1.371  1.5719 -0.1427 -1.0094
  925MOL0     H22083  -0.204   2.359   1.421 -2.1692 -1.4041 -2.2811
  925MOL0     H22084   0.232   2.455   1.658  0.1851 -1.6989 -3.5329
  925MOL0     H22085   0.443   2.584   1.694 -0.2876 -0.1485  0.4499
  925MOL0     H22086   2.210   3.087   1.488 -1.3269 -0.2212  0.3181
  925MOL0     H22087   2.423   3.176   1.547  1.3514 -1.9390  0.4815
  925MOL0     H22088   2.724   3.184   1.907 -1.2535  0.1329  1.9546
  925MOL0     H22089   2.950   3.202   1.958  0.1845  0.9571  1.4628
  925MOL0     H22090   3.207   3.421   1.693 -1.6623  0.1100  2.7583
  925MOL0     H22091   3.187   3.253   1.714 -0.9868  1.2124 -2.3003
  925MOL0     H22092   3.422   3.313   1.725  1.1294 -2.5449  1.3731
  925MOL0     H22093   3.389   3.427   1.857 -1.2811  1.1795 -2.0524
  925MOL0     H22094   3.344   3.117   1.879  2.0667 -1.1365 -0.0895
  925MOL0     H22095   3.344   3.245   2.014  2.1299  2.9162  0.4570
  925MOL0     H22096   3.576   3.267   1.974  0.4469 -0.5429  0.4749
  925MOL0     H22097   3.531   3.102   2.026 -1.8575 -0.2712 -0.1346
  925MOL0     H22098   3.700   3.038   1.646  0.3106  0.5635 -0.2434
  925MOL0     H22099   2.989   3.564   1.736  1.0089  0.4138  1.1310
  925MOL0     H22100   2.737   3.542   1.680 -1.3120 -1.2893 -1.7760
  926MOL0     O22101   3.521   2.774   5.687  0.0667 -0.3946 -1.0705
  926MOL0     C22102   3.485   2.678   5.621 -0.7304  0.0539 -0.3522
  926MOL0     O22103   3.348   2.634   5.594  0.3025  0.1104  0.0140
  926MOL0     C22104   3.239   2.681   5.673 -0.4933  0.7448 -0.3478
  926MOL0     C22105   3.116   2.636   5.639 -0.4752 -0.0701  0.1904
  926MOL0     C22106   2.993   2.666   5.702  0.8564 -0.0375  0.4631
  926MOL0     C22107   3.002   2.745   5.817 -0.7530 -0.3715  0.7083
  926MOL0     O22108   2.900   2.779   5.901  0.0242 -0.3693 -0.2276
  926MOL0     C22109   2.772   2.731   5.871  0.7650 -0.2581 -0.0310
  926MOL0     C22110   2.680   2.742   5.996  0.3274 -0.0108 -0.0561
  926MOL0     C22111   2.544   2.689   5.952  0.2065  0.6524 -0.0462
  926MOL0     C22112   2.439   2.705   6.064  0.2881 -0.3087 -0.4340
  926MOL0     C22113   2.299   2.675   6.022 -0.0765  0.1147  0.0032
  926MOL0     C22114   2.194   2.719   6.132 -0.0027 -0.1330 -0.0089
  926MOL0     C22115   2.055   2.693   6.080  0.3674  0.7641  0.5057
  926MOL0     C22116   1.942   2.734   6.173  0.3468 -0.3761 -0.5446
  926MOL0     N22117   1.822   2.675   6.130 -0.0163 -0.4174 -0.1147
  926MOL0     C22118   1.764   2.701   6.000  0.3652  0.3635 -0.6868
  926MOL0     C22119   1.645   2.660   6.005 -0.5647 -0.1889 -0.4371
  926MOL0     C22120   1.555   2.674   5.888  0.4583 -0.1923  0.1433
  926MOL0     C22121   1.447   2.567   5.905  0.6140  0.2643 -0.0170
  926MOL0     C22122   1.353   2.559   5.796  0.0901 -0.1532 -0.6695
  926MOL0     C22123   1.245   2.457   5.825 -0.2747 -0.1682 -0.5791
  926MOL0     O22124   1.150   2.525   5.911 -0.4418 -0.4820  0.3627
  926MOL0     C22125   1.026   2.461   5.940  0.3095  0.4830  0.1583
  926MOL0     C22126   0.990   2.336   5.892 -0.2060  0.7506  0.8310
  926MOL0     C22127   0.857   2.288   5.918 -0.3261 -1.5532 -0.9344
  926MOL0     C22128   0.775   2.359   6.002  0.9471 -0.6458 -0.4097
  926MOL0     C22129   0.634   2.314   6.037 -0.4774 -0.8292 -0.4930
  926MOL0     O22130   0.563   2.240   5.943 -0.6862  0.2233 -0.8347
  926MOL0     C22131   0.440   2.181   5.964 -0.4614  0.2617  0.0110
  926MOL0     C22132   0.335   2.224   6.052 -0.7973 -0.4113 -0.3972
  926MOL0     C22133   0.215   2.162   6.057  0.9514 -0.4173  0.2906
  926MOL0     C22134   0.191   2.048   5.982 -0.0347 -0.6347  0.4482
  926MOL0     O22135   0.069   1.992   5.997 -0.2728  0.9234 -0.3132
  926MOL0     C22136   0.013   1.938   5.879 -0.5102 -0.0370  1.3869
  926MOL0     C22137  -0.131   1.894   5.909  0.1472 -0.1979  0.2575
  926MOL0     C22138  -0.199   1.834   5.781  0.5176  1.0102 -0.7142
  926MOL0     C22139  -0.346   1.805   5.824 -0.4769  0.1521  0.2093
  926MOL0     C22140  -0.443   1.798   5.707  0.3930  0.8284  0.4836
  926MOL0     C22141  -0.565   1.725   5.766  0.3866 -0.2250  1.1579
  926MOL0     C22142  -0.663   1.696   5.648  0.0701  0.2727 -0.2416
  926MOL0     C22143  -0.791   1.630   5.694  0.8452  0.1471  0.3957
  926MOL0    Cl22144  -0.738   1.483   5.775  0.1569 -0.1159  0.5379
  926MOL0     C22145   0.298   1.998   5.901 -0.7754 -0.2627 -0.0951
  926MOL0     C22146   0.420   2.060   5.888  0.4612 -0.3595  0.4034
  926MOL0     O22147   0.587   2.339   6.147 -0.3793 -0.3778  0.3651
  926MOL0     C22148   0.822   2.475   6.066  0.1556  0.0507 -0.1922
  926MOL0     C22149   0.944   2.531   6.025  0.5114  0.2677  0.6752
  926MOL0     N22150   1.611   2.622   6.136 -0.3177 -0.6478  0.5705
  926MOL0     N22151   1.717   2.626   6.202 -0.0952 -0.4212 -0.2469
  926MOL0     C22152   3.126   2.798   5.848 -0.0736  0.5127 -0.2963
  926MOL0     C22153   3.245   2.766   5.789 -0.2389 -0.3244  0.4761
  926MOL0     C22154   3.593   2.612   5.550  0.1471 -0.5014  0.3579
  926MOL0     C22155   3.730   2.653   5.547  0.0742  0.0883  0.1682
  926MOL0     C22156   3.830   2.569   5.491 -0.8467  0.8625 -0.1505
  926MOL0     C22157   3.799   2.450   5.435 -0.2791 -0.2647 -0.0294
  926MOL0     O22158   3.891   2.368   5.372  0.0310  0.5717 -0.0215
  926MOL0     C22159   4.031   2.405   5.363 -0.9059  0.0548 -0.2184
  926MOL0     C22160   4.062   2.426   5.215 -0.0774 -0.1775  0.1808
  926MOL0     C22161   4.095   2.302   5.136 -0.3797  0.3480  0.4667
  926MOL0     C22162   4.155   2.357   4.998 -0.9258  0.2615 -1.3065
  926MOL0     C22163   4.162   2.258   4.895 -0.3843  0.4277 -0.1076
  926MOL0     C22164   4.170   2.175   4.803  0.8260 -0.2850  0.1325
  926MOL0     C22165   3.664   2.411   5.429  0.5433  0.8476 -0.2305
  926MOL0     C22166   3.563   2.488   5.485  0.7149 -0.1275  0.3874
  926MOL0     H22167   3.112   2.584   5.544 -0.4709  2.5793 -1.3426
  926MOL0     H22168   2.899   2.631   5.661  0.7619 -0.7598  1.2724
  926MOL0     H22169   2.769   2.626   5.840 -1.5963  0.3171 -2.1349
  926MOL0     H22170   2.727   2.789   5.790  0.8550 -0.9433 -0.5822
  926MOL0     H22171   2.686   2.845   6.031  2.0845 -0.3326  0.6793
  926MOL0     H22172   2.721   2.680   6.075 -4.4828 -3.5965  0.0733
  926MOL0     H22173   2.549   2.582   5.933 -1.8139  0.3080  1.0807
  926MOL0     H22174   2.520   2.749   5.864 -0.7627 -0.2553 -0.4181
  926MOL0     H22175   2.461   2.639   6.149 -1.7787 -0.3673  0.0895
  926MOL0     H22176   2.457   2.808   6.098  2.4331 -1.0327  0.8829
  926MOL0     H22177   2.298   2.570   5.991  0.6868 -0.5520  2.0663
  926MOL0     H22178   2.275   2.748   5.944  0.6398  0.0793 -0.2543
  926MOL0     H22179   2.214   2.824   6.153 -0.9543  0.4390 -1.7752
  926MOL0     H22180   2.211   2.662   6.224  0.7410  5.3919  3.7510
  926MOL0     H22181   2.044   2.740   5.982 -0.0459  1.3324  0.8215
  926MOL0     H22182   2.047   2.586   6.057 -1.0725  0.6837  1.2311
  926MOL0     H22183   1.924   2.842   6.181 -4.0967 -0.7558 -2.4210
  926MOL0     H22184   1.955   2.698   6.276 -2.4024 -1.5003 -0.5156
  926MOL0     H22185   1.815   2.732   5.909  0.0293  4.5015  0.3657
  926MOL0     H22186   1.614   2.672   5.796  1.2445 -2.4131  0.6394
  926MOL0     H22187   1.502   2.768   5.906  0.7592 -0.0377  0.2177
  926MOL0     H22188   1.389   2.594   5.993  1.0471 -1.9881  1.0439
  926MOL0     H22189   1.493   2.470   5.929 -2.3210 -0.9203  1.3057
  926MOL0     H22190   1.303   2.657   5.795  0.5964  0.2843  3.1712
  926MOL0     H22191   1.404   2.532   5.703  0.4041 -1.3247 -0.1708
  926MOL0     H22192   1.292   2.375   5.880  2.1057  2.2856  1.3049
  926MOL0     H22193   1.195   2.411   5.739  1.5134 -2.0029 -0.7106
  926MOL0     H22194   1.052   2.286   5.818  0.0851  3.9321 -1.2823
  926MOL0     H22195   0.819   2.194   5.880 -2.2284 -2.0216  1.8433
  926MOL0     H22196   0.353   2.315   6.110 -1.6686 -0.6973  0.3475
  926MOL0     H22197   0.133   2.202   6.116  2.0046  0.2502  1.3526
  926MOL0     H22198   0.075   1.854   5.846 -0.6459  1.4955 -3.6565
  926MOL0     H22199  -0.002   2.009   5.797 -2.6837 -2.9741 -0.9825
  926MOL0     H22200  -0.183   1.986   5.937  0.4007 -0.1891  0.6988
  926MOL0     H22201  -0.145   1.831   5.997 -0.2079 -0.7049 -0.1547
  926MOL0     H22202  -0.155   1.742   5.742 -1.4136 -0.5987  0.6899
  926MOL0     H22203  -0.191   1.901   5.695  0.2099 -0.4822 -1.9432
  926MOL0     H22204  -0.334   1.712   5.880 -1.2921 -2.1778 -3.1478
  926MOL0     H22205  -0.378   1.884   5.892  0.7340  0.1987  0.7378
  926MOL0     H22206  -0.391   1.737   5.632  1.4707 -0.8539  2.4946
  926MOL0     H22207  -0.463   1.896   5.665  2.4186  1.9376  1.9200
  926MOL0     H22208  -0.614   1.795   5.834 -0.9826  2.4925 -2.3033
  926MOL0     H22209  -0.529   1.634   5.814 -1.0924 -0.9823  0.9123
  926MOL0     H22210  -0.681   1.795   5.605  0.4163  0.6685  0.5029
  926MOL0     H22211  -0.613   1.629   5.577 -2.7450  1.3655 -3.5275
  926MOL0     H22212  -0.856   1.609   5.609 -0.6736  2.2851  0.9378
  926MOL0     H22213  -0.849   1.692   5.764 -2.4496 -0.8748 -1.2120
  926MOL0     H22214   0.283   1.910   5.839 -1.0947  0.8894 -1.7255
  926MOL0     H22215   0.494   2.015   5.822  1.5173  1.2822  0.4131
  926MOL0     H22216   0.758   2.536   6.127  0.6723 -0.4344  0.8622
  926MOL0     H22217   0.985   2.625   6.061  0.7180  1.3427 -2.0671
  926MOL0     H22218   3.133   2.869   5.930  0.3679  1.8724 -1.4916
  926MOL0     H22219   3.336   2.818   5.818 -2.6702  2.6530  3.6657
  926MOL0     H22220   3.754   2.747   5.594  1.2216 -0.1447  0.0680
  926MOL0     H22221   3.933   2.605   5.492 -0.6399  0.3178 -0.8625
  926MOL0     H22222   4.091   2.319   5.394  0.3515  1.0138  0.1100
  926MOL0     H22223   4.061   2.496   5.416 -2.9035 -0.1568  1.3955
  926MOL0     H22224   3.976   2.471   5.165 -0.2688 -0.9512 -0.2107
  926MOL0     H22225   4.145   2.497   5.207 -2.1450  2.1161 -2.8304
  926MOL0     H22226   4.003   2.249   5.112  0.2008  0.2479 -1.7896
  926MOL0     H22227   4.175   2.247   5.186  1.6586  2.2857 -0.4855
  926MOL0     H22228   4.091   2.434   4.953 -2.7337  0.7576  1.8181
  926MOL0     H22229   4.258   2.387   5.019 -1.7613  1.1388  2.3354
  926MOL0     H22230   4.185   2.101   4.728  1.7273  1.1336 -1.1578
  926MOL0     H22231   3.643   2.318   5.377 -2.7992  1.2119  0.2391
  926MOL0     H22232   3.458   2.464   5.479  0.9111 -0.6044 -1.6238
  927MOL0     O22233   3.079   3.246  10.073 -0.1255  0.0665 -0.4346
  927MOL0     C22234   3.063   3.355  10.121 -0.9263 -0.4554 -1.0294
  927MOL0     O22235   2.934   3.422  10.138 -0.1364 -0.9382 -0.2633
  927MOL0     C22236   2.823   3.355  10.109  0.7642  0.4080 -0.8725
  927MOL0     C22237   2.737   3.382  10.004 -0.2217 -0.2075 -0.3456
  927MOL0     C22238   2.627   3.298   9.970  0.3056 -1.3761 -0.0681
  927MOL0     C22239   2.591   3.193  10.063  0.5779  0.2926  0.8605
  927MOL0     O22240   2.480   3.111  10.044 -0.6712 -0.7070  0.1626
  927MOL0     C22241   2.367   3.173  10.001 -0.4960  0.5378  0.3957
  927MOL0     C22242   2.257   3.068   9.990  0.0403 -0.2131 -0.0522
  927MOL0     C22243   2.225   3.025  10.133  0.7997  0.6429  0.3768
  927MOL0     C22244   2.111   2.919  10.126 -0.7330 -0.2218  0.9343
  927MOL0     C22245   2.077   2.888  10.265 -0.0529 -0.1767 -0.0946
  927MOL0     C22246   1.963   2.786  10.279  0.6664 -0.3396 -0.6029
  927MOL0     C22247   1.953   2.746  10.432  0.9204 -0.2090 -0.7172
  927MOL0     C22248   1.864   2.632  10.462  0.7690  0.5858 -0.4490
  927MOL0     N22249   1.789   2.642  10.592  0.5013  0.0645  0.3267
  927MOL0     C22250   1.672   2.709  10.601 -0.0940  0.3448 -0.5146
  927MOL0     C22251   1.633   2.694  10.731 -0.7187  0.2156  0.7948
  927MOL0     C22252   1.517   2.757  10.803 -0.5613  0.5249  0.1985
  927MOL0     C22253   1.379   2.720  10.731 -0.3427 -0.3361 -0.1687
  927MOL0     C22254   1.261   2.783  10.808 -0.3469  0.2660  0.3643
  927MOL0     C22255   1.128   2.755  10.736 -0.3700 -0.1575  0.2137
  927MOL0     O22256   1.026   2.850  10.790  0.2675  0.5620  0.1853
  927MOL0     C22257   0.888   2.839  10.761 -0.7424  0.1242  0.2487
  927MOL0     C22258   0.843   2.751  10.663 -0.2744 -0.5749 -0.4655
  927MOL0     C22259   0.708   2.733  10.632  0.8045  1.1122 -0.5885
  927MOL0     C22260   0.610   2.812  10.710 -0.8526  0.3547  0.4305
  927MOL0     C22261   0.470   2.797  10.681  0.4475 -1.2423 -0.8349
  927MOL0     O22262   0.389   2.859  10.777 -0.8574  0.8292  0.4882
  927MOL0     C22263   0.260   2.859  10.758  0.3814 -0.5775 -0.3387
  927MOL0     C22264   0.198   2.984  10.762  0.0537  0.5878  0.0189
  927MOL0     C22265   0.055   2.992  10.756 -0.1290 -0.5207  0.5338
  927MOL0     C22266  -0.016   2.881  10.746  0.6710  0.2293 -0.2296
  927MOL0     O22267  -0.151   2.901  10.711  0.0620 -0.4719  0.2443
  927MOL0     C22268  -0.246   2.818  10.783 -1.5798 -0.8803  0.0830
  927MOL0     C22269  -0.378   2.896  10.796  1.2783 -0.5277  0.6464
  927MOL0     C22270  -0.456   2.858  10.929  0.3876 -0.2603  0.4465
  927MOL0     C22271  -0.579   2.942  10.953  0.1602 -0.2615  0.5169
  927MOL0     C22272  -0.652   2.883  11.072 -0.6907 -0.4705 -0.2336
  927MOL0     C22273  -0.730   2.985  11.148  0.5862 -0.4454  0.2900
  927MOL0     C22274  -0.830   3.059  11.068  0.8254  0.5883 -0.3811
  927MOL0     C22275  -0.951   3.116  11.144 -0.3555 -0.3030  0.4436
  927MOL0    Cl22276  -1.072   3.158  11.019  0.0769  0.1434  0.4281
  927MOL0     C22277   0.049   2.760  10.761  0.3872  0.3857  1.1704
  927MOL0     C22278   0.182   2.745  10.751 -0.2131  0.0061 -1.0611
  927MOL0     O22279   0.428   2.735  10.585 -0.5503  0.4962  0.4647
  927MOL0     C22280   0.663   2.886  10.816 -0.6597  0.0110  0.3978
  927MOL0     C22281   0.797   2.906  10.837 -0.4659 -0.3442 -0.7867
  927MOL0     N22282   1.719   2.614  10.800  0.5843 -0.3177  0.2809
  927MOL0     N22283   1.807   2.579  10.714  0.0989 -0.3321 -0.7320
  927MOL0     C22284   2.677   3.169  10.170  0.6795 -0.2414 -0.3589
  927MOL0     C22285   2.789   3.251  10.196 -0.7579  0.0897  0.0318
  927MOL0     C22286   3.185   3.441  10.147  0.3012  0.2992  0.1234
  927MOL0     C22287   3.173   3.579  10.132  0.1128 -1.4960  0.3893
  927MOL0     C22288   3.291   3.666  10.134 -0.1744 -0.5928 -0.7767
  927MOL0     C22289   3.418   3.606  10.149  0.1888  0.0597 -0.5560
  927MOL0     O22290   3.543   3.663  10.175 -0.4868 -0.5645  0.1434
  927MOL0     C22291   3.562   3.808  10.185 -0.7954  0.1279  0.4514
  927MOL0     C22292   3.620   3.854  10.052 -0.6871 -0.2372 -0.4594
  927MOL0     C22293   3.778   3.843  10.043  0.4595 -0.0592 -0.3462
  927MOL0     C22294   3.828   3.885   9.906 -0.3162  0.1050 -1.3335
  927MOL0     C22295   3.973   3.893   9.916  0.1239  0.4028  0.2279
  927MOL0     C22296   4.092   3.899   9.918 -0.3237  0.0035 -0.0916
  927MOL0     C22297   3.422   3.469  10.159  0.1592 -0.5355 -0.3335
  927MOL0     C22298   3.311   3.387  10.167 -0.0682 -0.7832 -0.6496
  927MOL0     H22299   2.766   3.471   9.948 -0.1451 -0.4339 -0.6682
  927MOL0     H22300   2.564   3.320   9.884  1.8439  0.6454 -0.7620
  927MOL0     H22301   2.367   3.229   9.907  0.0977 -0.9874 -0.5483
  927MOL0     H22302   2.336   3.234  10.086 -0.3153  1.9206 -0.4917
  927MOL0     H22303   2.293   2.981   9.934  0.2618  0.2590 -0.6636
  927MOL0     H22304   2.174   3.108   9.931 -0.3551 -2.0755 -0.8187
  927MOL0     H22305   2.187   3.110  10.190 -1.7207  0.9409 -1.5806
  927MOL0     H22306   2.313   2.982  10.182  0.8428 -0.6399 -0.7724
  927MOL0     H22307   2.034   2.960  10.061  0.8274 -1.2164 -1.6630
  927MOL0     H22308   2.144   2.832  10.069  2.1909  0.6749  1.0721
  927MOL0     H22309   2.047   2.976  10.322 -3.2374 -1.6196  0.7206
  927MOL0     H22310   2.167   2.847  10.312  0.2984  0.1949 -0.4368
  927MOL0     H22311   1.977   2.694  10.222  2.8197  0.4296 -1.4344
  927MOL0     H22312   1.866   2.831  10.254  0.0061 -0.2208  1.9131
  927MOL0     H22313   2.046   2.716  10.483 -1.1267 -1.8731  2.3683
  927MOL0     H22314   1.901   2.832  10.476 -2.9665 -1.7502 -1.8901
  927MOL0     H22315   1.926   2.543  10.471  0.6627  0.6280  0.8799
  927MOL0     H22316   1.795   2.618  10.378  0.3813  0.6951 -0.1529
  927MOL0     H22317   1.625   2.772  10.526  0.8794  2.2883  0.4309
  927MOL0     H22318   1.549   2.861  10.813  2.7412 -0.4380  0.8236
  927MOL0     H22319   1.519   2.719  10.905  3.0938 -0.1484 -0.0011
  927MOL0     H22320   1.367   2.612  10.733 -0.9620 -0.2679  0.4867
  927MOL0     H22321   1.386   2.760  10.629  2.8382 -1.6181 -0.5837
  927MOL0     H22322   1.263   2.742  10.909  1.4977  0.0623  0.2782
  927MOL0     H22323   1.266   2.892  10.811  3.6568  0.2675 -0.0471
  927MOL0     H22324   1.103   2.651  10.757  0.5633 -0.6020 -0.7838
  927MOL0     H22325   1.132   2.777  10.629  0.2816  1.5653  0.5553
  927MOL0     H22326   0.923   2.704  10.606  1.0745  0.1271  0.7786
  927MOL0     H22327   0.684   2.647  10.570  1.0684 -1.1041  2.1672
  927MOL0     H22328   0.255   3.076  10.766 -1.2769  1.4867 -0.8013
  927MOL0     H22329  -0.002   3.083  10.767  0.6878  0.3202 -1.7092
  927MOL0     H22330  -0.216   2.800  10.886 -4.0270 -2.1349  0.6465
  927MOL0     H22331  -0.259   2.719  10.738  0.6929 -1.3966  0.4353
  927MOL0     H22332  -0.439   2.874  10.707  0.6826  0.2030  0.8567
  927MOL0     H22333  -0.362   3.004  10.802 -2.5222  0.4158 -1.9682
  927MOL0     H22334  -0.391   2.877  11.014  0.7772  2.5278 -0.3744
  927MOL0     H22335  -0.489   2.753  10.931  0.4237 -0.2650  0.9279
  927MOL0     H22336  -0.552   3.046  10.971 -1.2244  0.2686 -0.3151
  927MOL0     H22337  -0.641   2.935  10.863  1.5777  0.2038 -0.5310
  927MOL0     H22338  -0.589   2.832  11.146 -3.2596 -2.2362  0.9071
  927MOL0     H22339  -0.728   2.808  11.047  1.2056 -2.3286 -0.7165
  927MOL0     H22340  -0.661   3.060  11.187  0.4184  0.0393 -0.3424
  927MOL0     H22341  -0.772   2.943  11.240  0.4167  0.1969  0.5111
  927MOL0     H22342  -0.774   3.128  11.005 -1.6640 -0.1108 -3.6359
  927MOL0     H22343  -0.885   2.994  10.998  1.5579  1.5381 -1.8795
  927MOL0     H22344  -0.921   3.200  11.206  1.1608  1.4794 -2.5045
  927MOL0     H22345  -1.002   3.045  11.210  0.6468 -1.2203  0.2717
  927MOL0     H22346  -0.018   2.675  10.756 -2.9879  2.8793 -0.1455
  927MOL0     H22347   0.230   2.650  10.732 -0.5682 -0.7447  1.4314
  927MOL0     H22348   0.590   2.936  10.879 -2.2532 -0.1840 -1.1993
  927MOL0     H22349   0.829   2.970  10.919  0.6141 -0.7820 -0.8579
  927MOL0     H22350   2.657   3.084  10.234 -1.8960  0.1743 -0.4973
  927MOL0     H22351   2.838   3.230  10.290  1.2947 -0.5185 -1.1214
  927MOL0     H22352   3.078   3.630  10.117  2.5200  2.5146 -3.6658
  927MOL0     H22353   3.298   3.773  10.121 -2.2586 -0.2160  0.7068
  927MOL0     H22354   3.644   3.829  10.255  0.6650 -1.5075 -0.6946
  927MOL0     H22355   3.466   3.853  10.209 -0.0754  2.1067 -0.2075
  927MOL0     H22356   3.566   3.809   9.968 -0.8642  1.1099 -1.1105
  927MOL0     H22357   3.584   3.957  10.041 -2.5792 -1.0437 -2.4120
  927MOL0     H22358   3.809   3.738  10.048  1.2104  0.0786 -1.5659
  927MOL0     H22359   3.819   3.890  10.133 -2.7309 -0.1831  1.3009
  927MOL0     H22360   3.788   3.820   9.827 -1.9908  2.0252 -2.1414
  927MOL0     H22361   3.799   3.988   9.887  3.0866  2.5826  4.5169
  927MOL0     H22362   4.199   3.898   9.914 -0.3080 -2.1096  0.1684
  927MOL0     H22363   3.517   3.416  10.159 -1.0012 -2.7225 -0.0413
  927MOL0     H22364   3.323   3.279  10.172  2.5177 -0.5222  1.3378
  928MOL0     O22365   0.116   0.063   4.657  0.6410  0.1419  0.2247
  928MOL0     C22366   0.130  -0.006   4.761 -0.0342 -0.9285 -0.8905
  928MOL0     O22367   0.027  -0.046   4.845 -0.6878 -0.2154 -0.5237
  928MOL0     C22368  -0.102   0.005   4.834 -0.5868  0.1590 -0.4018
  928MOL0     C22369  -0.164  -0.020   4.708  0.4012  0.4118  0.1022
  928MOL0     C22370  -0.286   0.035   4.680  0.4558 -0.3949 -0.3477
  928MOL0     C22371  -0.358   0.106   4.778 -0.7622  0.4803 -0.0252
  928MOL0     O22372  -0.490   0.141   4.780 -0.6002 -0.0023  0.5957
  928MOL0     C22373  -0.566   0.049   4.690 -0.4739 -0.1034  0.4132
  928MOL0     C22374  -0.718   0.072   4.722 -0.0555  0.3909 -1.2638
  928MOL0     C22375  -0.806  -0.033   4.648  0.7551 -1.2234  0.4990
  928MOL0     C22376  -0.945   0.020   4.626 -0.4933 -0.5744 -0.0443
  928MOL0     C22377  -1.051  -0.083   4.608 -0.1736  0.9347 -0.6404
  928MOL0     C22378  -1.196  -0.023   4.622  0.0711 -0.7887  0.4392
  928MOL0     C22379  -1.304  -0.127   4.587  0.4933  0.3979  0.1073
  928MOL0     C22380  -1.447  -0.094   4.636  1.1349  0.3530 -0.4666
  928MOL0     N22381  -1.487   0.044   4.598  0.0561  1.6061  0.0933
  928MOL0     C22382  -1.504   0.152   4.674  0.1668  0.2228  0.1150
  928MOL0     C22383  -1.577   0.235   4.592  0.0943 -0.0669 -0.3240
  928MOL0     C22384  -1.645   0.351   4.658  0.2120 -0.0898 -0.1342
  928MOL0     C22385  -1.561   0.473   4.685  0.0654 -0.6590  0.2101
  928MOL0     C22386  -1.608   0.576   4.785  0.7095  0.2770  1.1533
  928MOL0     C22387  -1.751   0.612   4.763  0.5988 -0.3445  0.2482
  928MOL0     O22388  -1.804   0.721   4.845 -0.4744  0.0590 -0.2739
  928MOL0     C22389  -1.938   0.736   4.840  0.3905  0.7973  0.5094
  928MOL0     C22390  -2.020   0.723   4.728  0.1518 -1.4383  0.9203
  928MOL0     C22391  -2.158   0.718   4.743  0.0092  0.1090 -0.6158
  928MOL0     C22392  -2.219   0.744   4.865  0.0150  0.3388  0.2856
  928MOL0     C22393  -2.372   0.764   4.881 -0.6937 -0.4199  0.5031
  928MOL0     O22394  -2.432   0.687   4.784 -0.5996 -0.9395  0.5328
  928MOL0     C22395  -2.569   0.703   4.757 -0.2380 -1.0990  0.0175
  928MOL0     C22396  -2.624   0.624   4.661  1.1552  0.3227  0.4965
  928MOL0     C22397  -2.763   0.626   4.634 -0.3573  0.1199 -0.1939
  928MOL0     C22398  -2.848   0.710   4.695 -1.1528  0.4411  0.9917
  928MOL0     O22399  -2.984   0.716   4.665  0.1839 -0.0818 -0.3683
  928MOL0     C22400  -3.032   0.628   4.555  0.5807 -0.6353  0.6547
  928MOL0     C22401  -3.170   0.677   4.530  0.0379 -0.2119  0.5686
  928MOL0     C22402  -3.223   0.656   4.390  0.4126  0.2468 -0.0080
  928MOL0     C22403  -3.354   0.741   4.373  0.5124  0.0236 -0.2600
  928MOL0     C22404  -3.422   0.744   4.238 -0.2007  0.0571  0.1117
  928MOL0     C22405  -3.555   0.815   4.245  0.5373 -0.1717  0.3863
  928MOL0     C22406  -3.598   0.865   4.110 -0.2652  0.2749  0.1584
  928MOL0     C22407  -3.748   0.863   4.075  0.0069 -1.0276 -0.1194
  928MOL0    Cl22408  -3.773   0.924   3.903  0.1271 -0.0004 -0.0099
  928MOL0     C22409  -2.794   0.801   4.780  0.0169  0.7460 -1.3519
  928MOL0     C22410  -2.658   0.802   4.811 -0.3628 -0.5275 -0.2617
  928MOL0     O22411  -2.423   0.820   4.971  1.0856 -0.7257  0.4918
  928MOL0     C22412  -2.138   0.746   4.976  0.1341  0.4030  0.5498
  928MOL0     C22413  -1.996   0.742   4.963 -0.0063  1.1964 -0.2960
  928MOL0     N22414  -1.595   0.185   4.464 -0.3513  1.0039 -0.5591
  928MOL0     N22415  -1.542   0.066   4.474 -0.5110  0.6990  0.5733
  928MOL0     C22416  -0.292   0.127   4.905 -0.3338 -0.4130 -0.0906
  928MOL0     C22417  -0.167   0.075   4.929  0.7595 -0.1315 -0.3192
  928MOL0     C22418   0.274  -0.046   4.792 -0.2638  0.3222  0.0106
  928MOL0     C22419   0.378  -0.017   4.700 -0.5751  0.8541 -0.3168
  928MOL0     C22420   0.512  -0.039   4.742 -0.8261  0.1828  0.4029
  928MOL0     C22421   0.550  -0.080   4.868  0.1400  0.7012  0.3364
  928MOL0     O22422   0.682  -0.090   4.916 -0.2816 -0.4082 -0.4478
  928MOL0     C22423   0.797  -0.020   4.858  0.3119  0.2574  0.4550
  928MOL0     C22424   0.824   0.126   4.902  0.5472  0.2439 -0.8041
  928MOL0     C22425   0.711   0.221   4.860 -0.3928 -0.4258 -0.5680
  928MOL0     C22426   0.750   0.375   4.877 -0.4794  0.6397 -0.9776
  928MOL0     C22427   0.847   0.406   4.768  0.1165 -0.6278  0.5304
  928MOL0     C22428   0.933   0.434   4.685 -0.7806  0.6830  0.2497
  928MOL0     C22429   0.442  -0.111   4.948 -1.0528 -0.0573 -0.3477
  928MOL0     C22430   0.312  -0.085   4.920 -0.4405 -0.1237 -0.2406
  928MOL0     H22431  -0.116  -0.078   4.629 -0.3672  1.3011 -1.0548
  928MOL0     H22432  -0.328   0.015   4.582  0.5614 -2.9581  0.0570
  928MOL0     H22433  -0.543  -0.058   4.700  0.9176  0.3146  2.5759
  928MOL0     H22434  -0.544   0.068   4.585  1.6562  0.7586  0.9636
  928MOL0     H22435  -0.742   0.171   4.681  0.1010  2.2333  2.7123
  928MOL0     H22436  -0.740   0.077   4.829 -1.6308 -1.3950 -1.4534
  928MOL0     H22437  -0.823  -0.126   4.703 -3.0315 -1.3755 -0.6879
  928MOL0     H22438  -0.771  -0.045   4.545 -0.5058 -1.6821  0.1131
  928MOL0     H22439  -0.971   0.072   4.719  0.9758  0.5423 -0.2109
  928MOL0     H22440  -0.951   0.091   4.542  1.5776 -1.8608 -1.3579
  928MOL0     H22441  -1.041  -0.165   4.679 -0.0137  0.9323 -0.6654
  928MOL0     H22442  -1.036  -0.129   4.510 -0.3540  2.1486 -1.2670
  928MOL0     H22443  -1.197   0.069   4.563  0.2169 -1.4072 -0.5556
  928MOL0     H22444  -1.209   0.007   4.727 -0.7163  0.3641  0.0376
  928MOL0     H22445  -1.305  -0.128   4.478  2.6499 -1.7572  0.0161
  928MOL0     H22446  -1.268  -0.223   4.627 -1.1515 -0.3582 -0.1514
  928MOL0     H22447  -1.452  -0.105   4.744 -1.3759  0.3385 -0.5403
  928MOL0     H22448  -1.506  -0.172   4.587  1.5522  1.5185 -3.0327
  928MOL0     H22449  -1.488   0.163   4.781 -4.3005 -1.4271  1.1811
  928MOL0     H22450  -1.691   0.327   4.754 -1.6342  3.7380  0.1213
  928MOL0     H22451  -1.727   0.383   4.593  0.2463 -1.3833 -0.8439
  928MOL0     H22452  -1.553   0.524   4.589 -3.0567 -2.1283 -0.9620
  928MOL0     H22453  -1.463   0.437   4.718 -0.6301 -2.4771  0.3923
  928MOL0     H22454  -1.584   0.532   4.882  1.8087  0.4320  0.9572
  928MOL0     H22455  -1.544   0.664   4.771 -0.2550  0.6902 -1.3651
  928MOL0     H22456  -1.820   0.528   4.769  1.5417 -1.5532 -3.1555
  928MOL0     H22457  -1.769   0.642   4.659  0.0122 -1.2495  0.0749
  928MOL0     H22458  -1.991   0.706   4.625  0.7446  0.2060  0.7921
  928MOL0     H22459  -2.229   0.703   4.662 -3.2238  0.3688  1.9634
  928MOL0     H22460  -2.564   0.548   4.611  0.5116  1.9622 -3.1240
  928MOL0     H22461  -2.799   0.550   4.565 -1.4440  1.0471 -0.6789
  928MOL0     H22462  -3.020   0.520   4.573  1.2606 -1.0401 -1.8741
  928MOL0     H22463  -2.969   0.658   4.470  0.7018 -2.2477  0.1320
  928MOL0     H22464  -3.181   0.785   4.543 -1.0276 -0.4051  1.3722
  928MOL0     H22465  -3.234   0.620   4.598  0.6680 -1.6083  0.0308
  928MOL0     H22466  -3.239   0.548   4.377 -0.9926  0.2953  1.0950
  928MOL0     H22467  -3.151   0.693   4.316  1.4506  1.3515  1.4831
  928MOL0     H22468  -3.416   0.694   4.450 -1.5147 -1.6270 -2.7599
  928MOL0     H22469  -3.338   0.844   4.409  0.3953 -0.4449  1.2269
  928MOL0     H22470  -3.429   0.644   4.196  0.3235  0.0105  0.1253
  928MOL0     H22471  -3.351   0.795   4.173  2.2201 -1.5511  1.3448
  928MOL0     H22472  -3.546   0.895   4.319 -1.1235  1.8327 -1.4556
  928MOL0     H22473  -3.633   0.742   4.268 -1.6904  2.0508  0.2541
  928MOL0     H22474  -3.548   0.962   4.113  2.3952 -1.0284  1.6059
  928MOL0     H22475  -3.545   0.802   4.037  0.8871 -1.5785  2.4776
  928MOL0     H22476  -3.800   0.918   4.155  1.6877 -1.9400  1.6868
  928MOL0     H22477  -3.783   0.760   4.072  2.2214 -1.8044 -1.4365
  928MOL0     H22478  -2.870   0.867   4.822 -0.6300  0.7781 -2.5152
  928MOL0     H22479  -2.629   0.881   4.880 -0.1005  1.2081 -2.2757
  928MOL0     H22480  -2.170   0.760   5.078  1.1993 -0.3450  1.0103
  928MOL0     H22481  -1.929   0.759   5.046 -1.3441  2.2209  0.6256
  928MOL0     H22482  -0.349   0.186   4.976 -2.3329  0.6528 -2.4056
  928MOL0     H22483  -0.129   0.099   5.028  0.0699 -2.7771  0.6691
  928MOL0     H22484   0.353   0.008   4.597 -0.0871 -0.3964 -0.7631
  928MOL0     H22485   0.596  -0.036   4.674  1.8070 -2.7999  3.1719
  928MOL0     H22486   0.781  -0.021   4.750  0.3120  1.0370  0.4382
  928MOL0     H22487   0.888  -0.078   4.871 -0.0617 -0.6285 -0.7222
  928MOL0     H22488   0.819   0.137   5.010 -2.6414  4.2759 -1.1038
  928MOL0     H22489   0.926   0.145   4.867  0.6563 -2.7183 -2.3970
  928MOL0     H22490   0.627   0.189   4.922  0.5204 -0.6284  0.5916
  928MOL0     H22491   0.677   0.205   4.757 -0.9340  0.0183 -0.4630
  928MOL0     H22492   0.658   0.434   4.880 -0.1883  1.2097 -2.2934
  928MOL0     H22493   0.809   0.396   4.967  0.9894  0.6885 -1.9063
  928MOL0     H22494   1.011   0.452   4.614 -1.2953  1.1953 -0.1964
  928MOL0     H22495   0.462  -0.136   5.051 -0.5282  3.6631  0.5726
  928MOL0     H22496   0.247  -0.091   5.006  1.0105  0.7782  0.9604
  929MOL0     O22497   9.122  11.111   0.043  0.5605  0.6920  0.3453
  929MOL0     C22498   9.128  11.228   0.064  0.2646  0.2061 -0.3552
  929MOL0     O22499   9.019  11.312   0.065 -0.1173  0.2454 -0.0079
  929MOL0     C22500   8.896  11.258   0.040 -0.4231  0.6831  0.8695
  929MOL0     C22501   8.816  11.204   0.148  0.2797 -0.6534  0.4314
  929MOL0     C22502   8.690  11.153   0.125  0.6161 -1.0222  0.0410
  929MOL0     C22503   8.624  11.168   0.004 -1.3235  0.1132 -0.2261
  929MOL0     O22504   8.492  11.127  -0.016 -0.0259  0.6719  0.5656
  929MOL0     C22505   8.469  10.987   0.028 -0.6310 -0.1417 -0.4464
  929MOL0     C22506   8.355  10.918  -0.048 -0.1250  0.3129 -0.1487
  929MOL0     C22507   8.229  11.008  -0.025  0.4303  0.6477 -0.0017
  929MOL0     C22508   8.098  10.942  -0.081 -0.2114 -0.2335 -0.7336
  929MOL0     C22509   7.997  11.045  -0.131 -1.4350 -0.6085  0.8199
  929MOL0     C22510   7.912  11.132  -0.029  0.5632  0.1506  0.9361
  929MOL0     C22511   7.797  11.050   0.035 -0.6222  0.5932  0.5460
  929MOL0     C22512   7.678  11.029  -0.056 -0.1707 -0.0203 -1.0123
  929MOL0     N22513   7.554  11.036   0.016  0.4775  0.4278  0.5424
  929MOL0     C22514   7.490  10.930   0.050 -0.2039 -0.1314 -0.4882
  929MOL0     C22515   7.392  10.977   0.139 -0.6665  0.2287 -0.7009
  929MOL0     C22516   7.299  10.904   0.233  0.6399  0.2161 -0.0020
  929MOL0     C22517   7.178  10.854   0.162  1.0624 -0.0105  1.1323
  929MOL0     C22518   7.200  10.720   0.087  0.7471 -0.0637 -0.1369
  929MOL0     C22519   7.073  10.676   0.012  0.1027  0.8140  0.2935
  929MOL0     O22520   6.965  10.686   0.102  0.1401 -0.3968  0.4594
  929MOL0     C22521   6.837  10.650   0.052  0.2784  0.1113  0.8009
  929MOL0     C22522   6.815  10.582  -0.070  0.2062  0.0289 -0.4403
  929MOL0     C22523   6.691  10.552  -0.125  0.2441  0.6399  0.6077
  929MOL0     C22524   6.580  10.577  -0.045 -0.1190 -0.2409 -0.6918
  929MOL0     C22525   6.442  10.560  -0.094  0.6511  1.0093  0.9744
  929MOL0     O22526   6.339  10.619  -0.021 -0.5150  0.0695  0.0769
  929MOL0     C22527   6.209  10.624  -0.060 -0.5422 -0.6273  0.9835
  929MOL0     C22528   6.159  10.586  -0.191  0.0943 -0.5278 -0.9879
  929MOL0     C22529   6.023  10.588  -0.222  0.5824  0.7685 -0.0419
  929MOL0     C22530   5.925  10.623  -0.129 -0.0892  0.9877  0.8058
  929MOL0     O22531   5.789  10.648  -0.164 -0.0411  0.1704 -0.6250
  929MOL0     C22532   5.715  10.530  -0.190  0.6083 -0.4071  0.3196
  929MOL0     C22533   5.583  10.576  -0.270 -0.8612  0.2525 -0.3030
  929MOL0     C22534   5.494  10.460  -0.329 -0.1543 -0.7659  0.0980
  929MOL0     C22535   5.424  10.380  -0.215 -0.0844 -1.1126  0.3567
  929MOL0     C22536   5.308  10.286  -0.260  0.1244  0.5946  0.3644
  929MOL0     C22537   5.218  10.236  -0.139  0.0938  0.5007  0.1652
  929MOL0     C22538   5.109  10.326  -0.080 -0.2617  0.4029  0.0718
  929MOL0     C22539   4.995  10.249  -0.015 -0.0754  0.4104  0.0196
  929MOL0    Cl22540   4.872  10.362   0.041  0.0591  0.0843 -0.3242
  929MOL0     C22541   5.969  10.666  -0.004  0.1372  0.4865 -0.2233
  929MOL0     C22542   6.109  10.663   0.030  0.1885 -0.5183 -0.0729
  929MOL0     O22543   6.435  10.501  -0.205  0.2032 -0.2871 -0.0245
  929MOL0     C22544   6.597  10.642   0.074  0.1857 -0.6877 -0.4853
  929MOL0     C22545   6.727  10.675   0.129  0.9345  0.0830 -0.5758
  929MOL0     N22546   7.395  11.112   0.139 -0.6765  1.0420  0.3354
  929MOL0     N22547   7.493  11.149   0.059 -0.8539  0.7324 -0.8013
  929MOL0     C22548   8.699  11.221  -0.102  0.2448 -0.2631 -0.3910
  929MOL0     C22549   8.830  11.269  -0.084  0.0512  0.1658 -0.6628
  929MOL0     C22550   9.267  11.278   0.077 -0.3543 -0.0344  0.0512
  929MOL0     C22551   9.372  11.174   0.086 -0.0950 -0.2787 -1.0047
  929MOL0     C22552   9.500  11.229   0.102  0.1199 -0.6184 -0.5789
  929MOL0     C22553   9.544  11.360   0.096  0.3739 -0.4829 -0.8971
  929MOL0     O22554   9.673  11.390   0.117 -0.4007  0.8219  0.3121
  929MOL0     C22555   9.731  11.514   0.114  0.4623 -0.6494 -0.3864
  929MOL0     C22556   9.763  11.557  -0.027  0.3796  0.0242 -0.3040
  929MOL0     C22557   9.848  11.462  -0.101  0.1575 -0.6359 -0.2349
  929MOL0     C22558   9.993  11.481  -0.071 -0.3479 -0.1505  0.2634
  929MOL0     C22559  10.059  11.565  -0.170  0.0678  0.5958 -0.6816
  929MOL0     C22560  10.116  11.630  -0.253 -0.1826 -0.6916 -0.2796
  929MOL0     C22561   9.437  11.450   0.079  0.3269 -0.0954  0.1953
  929MOL0     C22562   9.304  11.408   0.067  0.2168  0.1114 -0.0287
  929MOL0     H22563   8.847  11.201   0.252  1.2678 -0.0471  0.1681
  929MOL0     H22564   8.630  11.124   0.211  0.4641  1.8762  1.0042
  929MOL0     H22565   8.446  10.990   0.135  0.6041  0.1397 -0.1808
  929MOL0     H22566   8.555  10.923   0.007  0.1122 -0.5066  3.0894
  929MOL0     H22567   8.334  10.824   0.003  0.2251  0.8086  0.9415
  929MOL0     H22568   8.381  10.905  -0.154  1.2079 -1.9007  0.3776
  929MOL0     H22569   8.242  11.107  -0.070 -2.8657  1.1895 -0.0063
  929MOL0     H22570   8.202  11.027   0.080 -2.1290 -0.7203 -0.3430
  929MOL0     H22571   8.143  10.899  -0.171 -1.1862  1.4692 -2.0935
  929MOL0     H22572   8.062  10.860  -0.018  1.2895 -0.1536  0.2904
  929MOL0     H22573   7.935  11.000  -0.209 -1.9691 -1.0455  1.4873
  929MOL0     H22574   8.055  11.114  -0.193 -1.2510 -0.8448  0.7250
  929MOL0     H22575   7.873  11.225  -0.069  0.7918 -0.0734  0.1899
  929MOL0     H22576   7.977  11.152   0.057  2.3197  0.0706 -0.3057
  929MOL0     H22577   7.844  10.956   0.065 -3.3606 -0.8065  0.7428
  929MOL0     H22578   7.767  11.092   0.132 -3.6601 -0.9824  0.4023
  929MOL0     H22579   7.703  10.932  -0.101  0.1693 -0.1648 -0.5238
  929MOL0     H22580   7.666  11.098  -0.140 -0.8512  0.8678 -0.2171
  929MOL0     H22581   7.522  10.829   0.028  2.1075  0.3293  0.4638
  929MOL0     H22582   7.272  10.969   0.317  1.4116  2.7680 -1.6257
  929MOL0     H22583   7.349  10.826   0.292  0.6129  0.1457 -0.0717
  929MOL0     H22584   7.155  10.931   0.089  0.9918  1.6980  2.8584
  929MOL0     H22585   7.092  10.855   0.230 -0.1164  1.5201 -0.3149
  929MOL0     H22586   7.273  10.751   0.011 -2.9978  1.2353 -3.5948
  929MOL0     H22587   7.236  10.639   0.151 -1.6379  0.6907  2.3459
  929MOL0     H22588   7.086  10.573  -0.021 -0.0931  1.6436 -2.6323
  929MOL0     H22589   7.061  10.738  -0.077 -0.6814  0.3199  0.0528
  929MOL0     H22590   6.899  10.554  -0.133 -0.5699  0.0627 -1.5125
  929MOL0     H22591   6.670  10.488  -0.210 -2.0930 -0.5643  1.9734
  929MOL0     H22592   6.228  10.567  -0.272  3.3894  4.3927  0.1897
  929MOL0     H22593   5.990  10.556  -0.321 -4.1670 -2.5525  2.2133
  929MOL0     H22594   5.689  10.467  -0.104  2.7441  1.0798  2.1573
  929MOL0     H22595   5.770  10.462  -0.256 -1.6583 -3.1509  1.0378
  929MOL0     H22596   5.615  10.633  -0.357 -1.8008  0.3420 -0.6046
  929MOL0     H22597   5.518  10.632  -0.201 -1.2916 -0.1425 -0.3775
  929MOL0     H22598   5.554  10.398  -0.396  0.6795  0.5141 -0.3633
  929MOL0     H22599   5.427  10.506  -0.402  2.7472 -0.2528 -2.4589
  929MOL0     H22600   5.494  10.324  -0.152  1.6577  0.8937  0.3301
  929MOL0     H22601   5.384  10.463  -0.155 -1.3181 -2.4492  1.4486
  929MOL0     H22602   5.354  10.196  -0.301 -2.5701 -0.8378  0.2239
  929MOL0     H22603   5.248  10.341  -0.334  1.4327 -0.5536 -1.6441
  929MOL0     H22604   5.271  10.188  -0.056 -1.0786  0.8381  1.1333
  929MOL0     H22605   5.160  10.153  -0.179  1.0212 -0.4104  0.6635
  929MOL0     H22606   5.145  10.396  -0.004 -4.4133  3.4068 -0.4283
  929MOL0     H22607   5.077  10.392  -0.160 -0.2801  1.3708  0.8577
  929MOL0     H22608   5.034  10.188   0.067  0.0609 -0.1638 -0.4655
  929MOL0     H22609   4.946  10.179  -0.083 -1.3312 -2.1911  3.3027
  929MOL0     H22610   5.892  10.697   0.066  1.1844 -1.2426  1.7898
  929MOL0     H22611   6.133  10.701   0.128  0.1335  1.0356 -0.6378
  929MOL0     H22612   6.518  10.680   0.138  1.9596 -1.4014  2.3064
  929MOL0     H22613   6.755  10.725   0.222  1.2262 -1.2502  0.0710
  929MOL0     H22614   8.654  11.223  -0.201 -0.6332  0.3808  0.0124
  929MOL0     H22615   8.884  11.304  -0.171  2.4614  0.9888  1.0411
  929MOL0     H22616   9.363  11.067   0.106  3.4131 -0.5458 -0.1816
  929MOL0     H22617   9.575  11.150   0.110  2.1074  1.1597 -0.6660
  929MOL0     H22618   9.813  11.513   0.185  1.9463 -1.3570 -2.0386
  929MOL0     H22619   9.663  11.585   0.161  2.0955  0.5499  0.2350
  929MOL0     H22620   9.668  11.555  -0.080  0.0889  0.8633  0.1585
  929MOL0     H22621   9.810  11.655  -0.015  0.4479  0.2391 -2.0661
  929MOL0     H22622   9.841  11.468  -0.210  0.3500  0.6600 -0.1975
  929MOL0     H22623   9.818  11.362  -0.067 -0.1297 -0.0555  1.3271
  929MOL0     H22624  10.026  11.511   0.029  0.5602 -1.2997  0.3274
  929MOL0     H22625  10.042  11.383  -0.076  1.5858  0.5856  2.8136
  929MOL0     H22626  10.180  11.668  -0.330  1.8134 -1.1160  1.0936
  929MOL0     H22627   9.457  11.557   0.081  2.4565 -0.3857  3.8891
  929MOL0     H22628   9.235  11.492   0.060  2.2119  1.6746 -2.2261
  930MOL0     O22629   5.779   5.675   5.168 -0.6720  0.0992  0.5911
  930MOL0     C22630   5.884   5.715   5.219 -0.3987 -0.5097  0.0028
  930MOL0     O22631   5.892   5.804   5.326  0.5850  0.2530  0.3821
  930MOL0     C22632   5.777   5.836   5.387  0.2343  0.1938 -0.1201
  930MOL0     C22633   5.717   5.735   5.462 -0.3915 -0.7031 -0.3853
  930MOL0     C22634   5.601   5.756   5.527  0.9256 -0.1704 -0.0895
  930MOL0     C22635   5.535   5.875   5.516 -0.1535 -0.4463  0.8138
  930MOL0     O22636   5.405   5.894   5.575 -0.1327 -0.4194 -0.1360
  930MOL0     C22637   5.304   5.802   5.556 -0.2108  0.3575  0.6579
  930MOL0     C22638   5.218   5.861   5.442  1.1654  0.0808  0.8445
  930MOL0     C22639   5.111   5.764   5.389 -0.9089  0.1291  0.3384
  930MOL0     C22640   5.034   5.695   5.497 -0.6203 -0.3898  0.4388
  930MOL0     C22641   4.901   5.623   5.455  0.4401 -0.4645 -0.1999
  930MOL0     C22642   4.931   5.511   5.351 -0.3749  0.0801  0.4992
  930MOL0     C22643   4.808   5.432   5.310 -0.2684 -0.7264  0.2723
  930MOL0     C22644   4.830   5.341   5.190  0.1317 -0.0543  0.2456
  930MOL0     N22645   4.726   5.240   5.179 -0.8801  0.6691  0.3215
  930MOL0     C22646   4.600   5.271   5.147  0.3448 -0.1021  0.5370
  930MOL0     C22647   4.539   5.151   5.134 -0.9276 -0.0177 -0.3546
  930MOL0     C22648   4.407   5.125   5.057 -1.3122  0.1761  0.0189
  930MOL0     C22649   4.432   5.091   4.902  0.4621 -0.1475  0.4134
  930MOL0     C22650   4.303   5.052   4.834  0.4933  0.5993 -0.6996
  930MOL0     C22651   4.339   4.962   4.713  0.4889 -0.6473  0.1848
  930MOL0     O22652   4.245   4.936   4.611  0.1360  0.7286 -0.0888
  930MOL0     C22653   4.111   4.930   4.655  0.3932 -0.5167  0.2213
  930MOL0     C22654   4.031   5.039   4.625 -0.4314  0.0793 -0.5511
  930MOL0     C22655   3.889   5.035   4.664 -0.4051  0.2137  0.2488
  930MOL0     C22656   3.847   4.933   4.739  0.2573 -0.2444 -0.5346
  930MOL0     C22657   3.704   4.925   4.775 -0.2190 -0.4945  0.1917
  930MOL0     O22658   3.643   5.045   4.767  0.0023 -0.2580  0.4688
  930MOL0     C22659   3.517   5.039   4.813  0.3689  0.5137 -0.1874
  930MOL0     C22660   3.412   5.072   4.725 -0.1580 -0.7319 -0.5535
  930MOL0     C22661   3.278   5.051   4.748  0.0333 -0.1333 -0.2143
  930MOL0     C22662   3.241   5.010   4.879  0.7637 -0.0344  0.4925
  930MOL0     O22663   3.101   4.994   4.906 -0.6915  0.6389  0.1022
  930MOL0     C22664   3.001   4.986   4.797  0.2150 -0.8429  0.2452
  930MOL0     C22665   2.879   4.906   4.843 -0.0233  0.0944  0.1382
  930MOL0     C22666   2.754   4.931   4.758  0.0524 -0.0748  0.3094
  930MOL0     C22667   2.639   4.886   4.828  1.3090  0.2570 -1.3604
  930MOL0     C22668   2.499   4.927   4.773 -0.3648 -0.2815 -0.0727
  930MOL0     C22669   2.383   4.867   4.851  0.6883 -0.2483 -0.4130
  930MOL0     C22670   2.378   4.711   4.844  0.4837 -0.0780  0.3880
  930MOL0     C22671   2.260   4.646   4.921 -0.5714 -0.1955 -0.3400
  930MOL0    Cl22672   2.102   4.669   4.838 -0.3590 -0.0479  0.5888
  930MOL0     C22673   3.345   4.984   4.972 -0.2550  0.2717 -0.1809
  930MOL0     C22674   3.480   4.990   4.945  0.1614 -0.4668  0.4740
  930MOL0     O22675   3.649   4.815   4.807  0.2407  0.2213  0.1263
  930MOL0     C22676   3.933   4.831   4.777 -0.0881  0.6764  0.8463
  930MOL0     C22677   4.060   4.825   4.721  0.6823 -0.2375  0.1448
  930MOL0     N22678   4.621   5.053   5.188 -0.5078 -0.0134  0.6060
  930MOL0     N22679   4.738   5.108   5.201 -1.0811  0.0933  0.1932
  930MOL0     C22680   5.592   5.978   5.432 -1.1925  0.7466 -0.4272
  930MOL0     C22681   5.712   5.958   5.372 -0.1674 -0.8277  0.4400
  930MOL0     C22682   6.014   5.674   5.170  0.0622 -0.0578  0.5860
  930MOL0     C22683   6.138   5.676   5.251  0.0652 -0.9531  0.0069
  930MOL0     C22684   6.257   5.642   5.188  0.3674 -0.0378  0.2473
  930MOL0     C22685   6.266   5.640   5.051 -0.1895  0.2885 -0.2263
  930MOL0     O22686   6.378   5.629   4.980  0.5467 -0.1310 -0.4492
  930MOL0     C22687   6.507   5.657   5.036  0.6510  0.8764 -0.1846
  930MOL0     C22688   6.616   5.639   4.934 -0.4971 -0.5202 -0.3922
  930MOL0     C22689   6.759   5.698   4.979 -0.3406 -1.0620  0.4484
  930MOL0     C22690   6.881   5.686   4.877 -0.0241 -0.0352  0.0008
  930MOL0     C22691   6.963   5.571   4.906 -0.2509  0.7676  0.2851
  930MOL0     C22692   7.037   5.478   4.920 -0.3820  0.1184 -0.0120
  930MOL0     C22693   6.143   5.631   4.973  0.2855 -0.4962  0.1527
  930MOL0     C22694   6.016   5.636   5.032 -0.0972 -0.6145  0.9281
  930MOL0     H22695   5.768   5.639   5.468  0.2647 -0.3896 -0.9096
  930MOL0     H22696   5.547   5.680   5.584  0.7403 -0.9130 -1.2180
  930MOL0     H22697   5.243   5.786   5.645 -2.6982 -0.5518 -1.0899
  930MOL0     H22698   5.343   5.702   5.537  0.6187  1.0892 -1.8732
  930MOL0     H22699   5.282   5.895   5.360  0.5339 -0.5696  0.0624
  930MOL0     H22700   5.162   5.948   5.478 -0.5130 -0.1917 -0.9491
  930MOL0     H22701   5.153   5.677   5.338 -1.9851  0.9537 -2.1736
  930MOL0     H22702   5.042   5.814   5.319  0.8506  1.5271 -0.4717
  930MOL0     H22703   5.097   5.617   5.541 -0.0845 -1.7273 -2.4534
  930MOL0     H22704   5.024   5.760   5.585 -1.1213 -3.0428  2.4871
  930MOL0     H22705   4.836   5.693   5.403 -0.9743 -3.4815 -2.8330
  930MOL0     H22706   4.840   5.588   5.539 -0.8191  2.2203  0.0911
  930MOL0     H22707   4.990   5.440   5.409 -2.8811 -1.6996  1.0317
  930MOL0     H22708   4.981   5.554   5.264 -0.7059  0.5111  0.5198
  930MOL0     H22709   4.777   5.370   5.395 -1.9920  0.9871  0.9626
  930MOL0     H22710   4.724   5.495   5.281 -0.6820 -1.0757  0.6922
  930MOL0     H22711   4.924   5.287   5.199 -0.1504 -0.3140  2.1981
  930MOL0     H22712   4.848   5.393   5.096 -0.4186 -0.8903 -0.3328
  930MOL0     H22713   4.554   5.367   5.122 -1.8582 -0.9475  1.1261
  930MOL0     H22714   4.334   5.206   5.068 -0.9131  0.5939 -0.3233
  930MOL0     H22715   4.368   5.031   5.096 -1.6268  0.0892 -0.4892
  930MOL0     H22716   4.505   5.010   4.896 -0.9407 -1.3733 -3.2268
  930MOL0     H22717   4.469   5.176   4.845 -2.0051  0.6379 -0.1602
  930MOL0     H22718   4.228   4.991   4.885  0.2986  1.2294 -0.2113
  930MOL0     H22719   4.250   5.139   4.793  0.6942  1.4008  0.6646
  930MOL0     H22720   4.370   4.867   4.758  2.0501 -1.5524 -2.5816
  930MOL0     H22721   4.430   5.005   4.669  0.5732 -1.2591 -0.2585
  930MOL0     H22722   4.060   5.126   4.568  0.7681  0.7242  0.9738
  930MOL0     H22723   3.826   5.116   4.628  0.2490  0.1233 -1.1630
  930MOL0     H22724   3.437   5.098   4.623  1.9775 -0.4076  0.0026
  930MOL0     H22725   3.213   5.062   4.662 -0.1152 -1.9745 -0.3711
  930MOL0     H22726   3.038   4.933   4.709  1.3834  1.9703 -1.1193
  930MOL0     H22727   2.962   5.086   4.772  0.1001 -0.7916  0.6205
  930MOL0     H22728   2.858   4.938   4.946 -3.5258 -1.4511  0.0352
  930MOL0     H22729   2.901   4.799   4.844 -0.8251 -0.1134  2.7020
  930MOL0     H22730   2.758   4.890   4.657  0.8854 -0.1363  0.3622
  930MOL0     H22731   2.735   5.038   4.753 -3.3139 -0.0122  5.7850
  930MOL0     H22732   2.653   4.777   4.837  1.3308  0.2652 -1.2901
  930MOL0     H22733   2.637   4.922   4.932 -1.5018 -0.0789 -1.2317
  930MOL0     H22734   2.490   4.899   4.667  1.5923 -0.1372 -0.3012
  930MOL0     H22735   2.489   5.036   4.779 -1.5289 -0.3778 -0.0418
  930MOL0     H22736   2.289   4.912   4.820 -1.2451 -4.7100 -1.8271
  930MOL0     H22737   2.385   4.898   4.956  2.4842  0.0492 -0.4935
  930MOL0     H22738   2.367   4.671   4.743  1.6661 -3.0296  1.3269
  930MOL0     H22739   2.469   4.663   4.880  0.4896  0.9121  1.7553
  930MOL0     H22740   2.262   4.690   5.021  1.3044 -2.7972  0.8954
  930MOL0     H22741   2.292   4.541   4.927  1.8230  0.5339  0.6187
  930MOL0     H22742   3.316   4.935   5.065  1.1872  2.1095  1.3300
  930MOL0     H22743   3.545   4.952   5.023  1.0061  0.6579  0.3443
  930MOL0     H22744   3.902   4.739   4.825  0.4253  0.2767  0.4240
  930MOL0     H22745   4.119   4.736   4.742  0.0333 -0.2180  2.2556
  930MOL0     H22746   5.556   6.079   5.413  1.2024  1.6718 -0.4407
  930MOL0     H22747   5.756   6.040   5.316 -0.4289 -0.6364  0.5138
  930MOL0     H22748   6.133   5.684   5.359  4.0169  0.6940  0.2357
  930MOL0     H22749   6.344   5.638   5.254  2.0439  0.4209 -1.8256
  930MOL0     H22750   6.514   5.589   5.121  3.5141  0.7941 -0.3965
  930MOL0     H22751   6.524   5.755   5.082 -2.4576  2.0080 -1.2247
  930MOL0     H22752   6.633   5.534   4.910  0.4578 -0.8522  1.5711
  930MOL0     H22753   6.575   5.685   4.843  0.1293 -0.7589 -0.8028
  930MOL0     H22754   6.790   5.649   5.071  0.2331 -3.5875 -0.9982
  930MOL0     H22755   6.732   5.803   4.994 -0.1694 -1.0377  0.5871
  930MOL0     H22756   6.838   5.682   4.777 -2.6198  1.6835  0.9347
  930MOL0     H22757   6.962   5.758   4.885  0.5754 -0.7981  1.2123
  930MOL0     H22758   7.098   5.391   4.935 -2.7019 -1.6992 -0.4797
  930MOL0     H22759   6.156   5.618   4.866  2.9410 -0.7556  0.4257
  930MOL0     H22760   5.925   5.623   4.975  0.2320 -0.6829  0.4091
  931MOL0     O22761   3.108   7.770   7.043 -0.5668  0.4434 -0.9026
  931MOL0     C22762   3.136   7.886   7.026  0.0494  0.0898  0.3735
  931MOL0     O22763   3.050   7.995   7.042  0.1221  0.4951 -0.9207
  931MOL0     C22764   2.917   7.972   7.081 -0.1237  0.2620  0.2518
  931MOL0     C22765   2.875   7.944   7.210 -0.3632  0.2797  0.1695
  931MOL0     C22766   2.740   7.915   7.240 -0.1389 -0.2796 -0.3448
  931MOL0     C22767   2.643   7.915   7.140 -1.3453  0.3165 -0.8005
  931MOL0     O22768   2.512   7.880   7.169 -0.6208 -0.0055  0.1367
  931MOL0     C22769   2.475   7.765   7.252 -0.3899  0.6176 -0.3450
  931MOL0     C22770   2.331   7.725   7.213  0.2708  0.2345  0.7435
  931MOL0     C22771   2.234   7.829   7.256  0.0837 -0.2511  0.6978
  931MOL0     C22772   2.090   7.790   7.215  0.2077  0.5022  0.5510
  931MOL0     C22773   1.994   7.903   7.194  1.0096 -0.6544 -0.4293
  931MOL0     C22774   1.982   7.984   7.331  0.3207  0.6736  0.0326
  931MOL0     C22775   1.889   8.093   7.318  0.1961 -1.0497  0.5008
  931MOL0     C22776   1.925   8.204   7.221 -0.3514  0.2850 -0.3189
  931MOL0     N22777   1.821   8.308   7.204 -0.1968  0.1943  0.2382
  931MOL0     C22778   1.701   8.298   7.261  0.2126 -0.0607  0.3184
  931MOL0     C22779   1.634   8.403   7.207  1.0059 -0.3653 -0.3487
  931MOL0     C22780   1.493   8.444   7.239  0.9353  0.5479  0.3311
  931MOL0     C22781   1.381   8.376   7.160 -0.2018 -0.1550  0.7148
  931MOL0     C22782   1.402   8.345   7.004 -0.5853 -0.8259 -0.2867
  931MOL0     C22783   1.278   8.262   6.952  0.2838 -0.5236 -0.0156
  931MOL0     O22784   1.291   8.253   6.811 -1.1479 -0.2455 -0.3213
  931MOL0     C22785   1.173   8.250   6.747 -0.3034 -0.5925  0.6104
  931MOL0     C22786   1.082   8.148   6.748  0.2512 -0.0485 -0.1595
  931MOL0     C22787   0.956   8.164   6.688 -0.8286  0.3753 -1.0744
  931MOL0     C22788   0.932   8.273   6.598 -0.3319  0.2068 -0.5267
  931MOL0     C22789   0.813   8.291   6.513  0.3375  0.0781 -0.6693
  931MOL0     O22790   0.778   8.416   6.464  0.2415  0.0941  0.7167
  931MOL0     C22791   0.663   8.437   6.395 -0.6137  0.7054 -0.4642
  931MOL0     C22792   0.555   8.355   6.352  1.0644  0.7765 -0.5496
  931MOL0     C22793   0.435   8.399   6.291  0.2707 -0.5647 -1.2604
  931MOL0     C22794   0.423   8.531   6.265  0.5279 -0.6727 -0.4765
  931MOL0     O22795   0.302   8.583   6.218 -0.3185  0.3872  0.4854
  931MOL0     C22796   0.285   8.724   6.196 -0.2470  0.7679 -0.8004
  931MOL0     C22797   0.139   8.734   6.230 -0.0863  0.1738 -0.6274
  931MOL0     C22798   0.038   8.668   6.137 -0.5938  0.3443  0.1186
  931MOL0     C22799  -0.103   8.676   6.196  0.6707  0.3273  0.4763
  931MOL0     C22800  -0.199   8.602   6.107  1.1124 -0.8149  0.0289
  931MOL0     C22801  -0.348   8.602   6.140  0.2365  0.0262  1.1684
  931MOL0     C22802  -0.416   8.734   6.156 -0.1611 -0.2121 -0.5792
  931MOL0     C22803  -0.413   8.817   6.033  1.2475 -0.7150  0.3826
  931MOL0    Cl22804  -0.520   8.739   5.912 -0.2200 -0.0809  0.1666
  931MOL0     C22805   0.530   8.621   6.293 -0.5532  0.6049 -0.2112
  931MOL0     C22806   0.647   8.569   6.353  0.2546 -0.1625 -0.7806
  931MOL0     O22807   0.733   8.196   6.521  0.3158  0.0966  0.3671
  931MOL0     C22808   1.031   8.372   6.593  0.3366  0.3051 -0.4325
  931MOL0     C22809   1.150   8.366   6.672  0.0409  0.1551  0.7190
  931MOL0     N22810   1.716   8.464   7.110  0.4527 -0.0173 -0.1919
  931MOL0     N22811   1.829   8.407   7.110  0.8878 -0.8701 -0.0596
  931MOL0     C22812   2.684   7.960   7.013  0.2718 -0.0463  0.2224
  931MOL0     C22813   2.818   7.989   6.991 -0.9637 -0.1594 -0.1860
  931MOL0     C22814   3.272   7.916   6.997 -0.0999  0.5328  0.4738
  931MOL0     C22815   3.372   7.805   6.982  0.4773 -0.3325 -0.0585
  931MOL0     C22816   3.501   7.833   6.942  1.0043 -0.1127 -0.3632
  931MOL0     C22817   3.547   7.963   6.914 -0.6674  0.9701 -0.3105
  931MOL0     O22818   3.678   7.970   6.884  0.1895 -0.0781  0.1491
  931MOL0     C22819   3.744   8.090   6.906 -0.5979  0.1119  1.0992
  931MOL0     C22820   3.886   8.096   6.848  0.5396  0.6800  0.3134
  931MOL0     C22821   3.871   8.045   6.696 -0.2386 -0.0041  0.9724
  931MOL0     C22822   4.017   8.050   6.642 -0.6616  0.5141  0.6817
  931MOL0     C22823   4.032   8.021   6.499  0.2702 -1.1788  0.9131
  931MOL0     C22824   4.039   8.002   6.380 -0.1827  0.1440 -0.0327
  931MOL0     C22825   3.452   8.070   6.930 -0.8923 -1.2458  0.3262
  931MOL0     C22826   3.315   8.044   6.964  0.1505 -0.3050 -0.1956
  931MOL0     H22827   2.946   7.940   7.293 -2.7772 -1.3338  2.3125
  931MOL0     H22828   2.702   7.908   7.341 -1.3469  0.8945 -0.6885
  931MOL0     H22829   2.486   7.788   7.358  1.0899 -2.2172  0.2070
  931MOL0     H22830   2.534   7.673   7.247 -2.0896 -0.6213  1.2225
  931MOL0     H22831   2.305   7.627   7.253 -0.6934 -0.1609 -0.7924
  931MOL0     H22832   2.333   7.708   7.105  1.2324 -3.8591  1.2477
  931MOL0     H22833   2.255   7.930   7.219  2.3799 -1.4943 -1.7239
  931MOL0     H22834   2.229   7.840   7.365  0.1029 -1.0445  0.7810
  931MOL0     H22835   2.097   7.733   7.122 -1.7123 -1.3138  1.4475
  931MOL0     H22836   2.042   7.731   7.293  0.2680  0.7934  0.8115
  931MOL0     H22837   1.898   7.857   7.167  1.1593 -0.7116 -0.8689
  931MOL0     H22838   2.038   7.977   7.126 -1.6042  2.2699  0.8066
  931MOL0     H22839   2.078   8.030   7.353  2.2889 -1.6090 -2.8688
  931MOL0     H22840   1.940   7.918   7.407 -0.1762  0.3640 -0.4940
  931MOL0     H22841   1.793   8.050   7.288 -0.1031  1.2925 -2.3385
  931MOL0     H22842   1.864   8.148   7.409  2.4784  1.9965 -0.5533
  931MOL0     H22843   1.948   8.164   7.122  2.6980  0.8773  0.0534
  931MOL0     H22844   2.014   8.257   7.258  0.9008 -2.1171  0.3685
  931MOL0     H22845   1.660   8.225   7.329 -0.1231 -0.4772 -0.3261
  931MOL0     H22846   1.480   8.546   7.202  1.9194  0.0266 -1.5961
  931MOL0     H22847   1.466   8.443   7.345 -2.8569  3.0886 -0.4022
  931MOL0     H22848   1.295   8.440   7.181 -0.1394 -0.1907  1.0879
  931MOL0     H22849   1.373   8.277   7.206  1.4342 -0.1679  1.0603
  931MOL0     H22850   1.400   8.440   6.949 -0.6555 -0.5825  0.1305
  931MOL0     H22851   1.495   8.291   6.988 -0.3556  0.1616 -2.8790
  931MOL0     H22852   1.185   8.310   6.984 -1.7567 -3.2469 -1.4771
  931MOL0     H22853   1.278   8.166   7.004 -1.4004 -0.6614 -0.2170
  931MOL0     H22854   1.121   8.064   6.806  2.0254  0.3677 -0.6672
  931MOL0     H22855   0.887   8.081   6.700 -0.1943 -0.3731 -2.3104
  931MOL0     H22856   0.558   8.250   6.379 -4.1940  0.8287  1.4354
  931MOL0     H22857   0.354   8.329   6.272 -1.0382  0.4035  0.4281
  931MOL0     H22858   0.319   8.749   6.095  0.8621 -1.2902 -1.0013
  931MOL0     H22859   0.335   8.791   6.266 -2.3800 -0.9875  2.6703
  931MOL0     H22860   0.111   8.839   6.243 -0.1039  0.0591  0.4000
  931MOL0     H22861   0.126   8.683   6.326  4.8952 -0.0924  0.1680
  931MOL0     H22862   0.053   8.562   6.115 -3.4349 -0.2386  0.6877
  931MOL0     H22863   0.046   8.730   6.047 -0.8729 -1.3523 -1.1241
  931MOL0     H22864  -0.102   8.647   6.302  0.5817  2.6289  1.1676
  931MOL0     H22865  -0.139   8.779   6.192  0.9814  0.4304  0.3149
  931MOL0     H22866  -0.164   8.500   6.127  2.1678 -0.0252  2.6919
  931MOL0     H22867  -0.182   8.633   6.004 -0.7922 -1.6529 -0.5793
  931MOL0     H22868  -0.365   8.549   6.234 -2.7006 -2.5402 -0.6078
  931MOL0     H22869  -0.383   8.537   6.060  1.5910  1.6668 -0.8560
  931MOL0     H22870  -0.518   8.698   6.175  0.4172 -1.9894 -0.6585
  931MOL0     H22871  -0.388   8.785   6.249 -1.2226 -0.3433 -0.1719
  931MOL0     H22872  -0.312   8.834   5.995  1.1818  0.1519  0.5717
  931MOL0     H22873  -0.437   8.923   6.048 -0.6257 -0.7461 -1.9358
  931MOL0     H22874   0.516   8.726   6.273 -3.0481  0.0511 -1.8378
  931MOL0     H22875   0.716   8.647   6.383  0.3104 -0.8425  0.9349
  931MOL0     H22876   1.016   8.454   6.524  0.0834  0.7084  0.1069
  931MOL0     H22877   1.232   8.436   6.660  1.5833 -1.7282 -0.3675
  931MOL0     H22878   2.602   7.969   6.943  0.3420  2.3624  0.3610
  931MOL0     H22879   2.828   8.032   6.892  0.2656 -0.7299 -0.3290
  931MOL0     H22880   3.348   7.700   6.980  0.9741 -0.4400 -0.6254
  931MOL0     H22881   3.563   7.745   6.927  0.8765 -0.2602 -0.0360
  931MOL0     H22882   3.745   8.102   7.015  1.3409  1.2229  1.0226
  931MOL0     H22883   3.692   8.176   6.862  2.2170  0.6614 -1.5001
  931MOL0     H22884   3.917   8.200   6.841  0.0278  1.1312  3.4242
  931MOL0     H22885   3.943   8.025   6.909 -0.3025 -0.9416 -0.6855
  931MOL0     H22886   3.803   8.113   6.644  0.1279  1.3688  2.2229
  931MOL0     H22887   3.836   7.942   6.690  0.4218 -0.2717  1.5522
  931MOL0     H22888   4.062   8.147   6.669  0.0383  0.6385 -0.8315
  931MOL0     H22889   4.082   7.974   6.686  0.8613  1.2153 -0.2988
  931MOL0     H22890   4.028   7.979   6.275  2.4904 -0.0972 -0.3232
  931MOL0     H22891   3.478   8.176   6.925 -1.1168 -1.2402 -1.1540
  931MOL0     H22892   3.241   8.124   6.964  0.0663 -0.3853 -0.4880
  932MOL0     O22893  10.054   7.905   9.690 -0.2750 -0.0541 -0.1976
  932MOL0     C22894  10.109   7.951   9.595 -0.3210  0.0914  0.2497
  932MOL0     O22895  10.053   7.971   9.469  0.8003 -0.0477  0.0630
  932MOL0     C22896   9.935   7.907   9.427 -0.4471 -0.5470 -0.3351
  932MOL0     C22897   9.873   7.791   9.485 -0.8682  0.1892  0.1165
  932MOL0     C22898   9.762   7.730   9.427 -0.3552 -0.6110  0.3255
  932MOL0     C22899   9.695   7.778   9.316 -0.0901  0.0508 -0.6368
  932MOL0     O22900   9.589   7.714   9.252  0.2667  0.0064  0.1398
  932MOL0     C22901   9.512   7.618   9.325  0.3230  1.0499 -0.2278
  932MOL0     C22902   9.377   7.612   9.247 -0.5455  0.1452  0.3754
  932MOL0     C22903   9.296   7.741   9.256  0.0053  0.8218 -0.0687
  932MOL0     C22904   9.196   7.766   9.134 -0.2498 -0.5668  0.1702
  932MOL0     C22905   9.065   7.813   9.185  0.5562  0.4424 -0.2112
  932MOL0     C22906   8.969   7.823   9.062 -0.5932 -0.3580  0.8100
  932MOL0     C22907   8.848   7.908   9.096 -0.2654  0.2019 -0.7041
  932MOL0     C22908   8.762   7.927   8.971  0.1393 -0.6230 -0.0208
  932MOL0     N22909   8.647   8.016   8.991  0.2699 -0.6914  0.0629
  932MOL0     C22910   8.561   8.018   9.101 -0.2064  0.1587 -0.4724
  932MOL0     C22911   8.460   8.108   9.070 -0.3686 -0.7178  0.6174
  932MOL0     C22912   8.332   8.157   9.137  0.3230 -0.0141  0.4594
  932MOL0     C22913   8.336   8.142   9.285 -0.2196  0.0270  1.0779
  932MOL0     C22914   8.407   8.254   9.358  0.6038 -1.2798  0.7211
  932MOL0     C22915   8.552   8.282   9.321  0.0532 -1.4137  0.5412
  932MOL0     O22916   8.636   8.181   9.374  0.1387  0.0730 -0.1122
  932MOL0     C22917   8.773   8.192   9.365  0.6686 -0.2402 -0.0478
  932MOL0     C22918   8.842   8.086   9.423  1.1219 -0.2919 -0.2698
  932MOL0     C22919   8.977   8.089   9.420 -1.0558 -0.1511  0.5974
  932MOL0     C22920   9.049   8.198   9.372 -0.4433 -0.4323 -0.4468
  932MOL0     C22921   9.197   8.211   9.398 -0.9539 -0.0967 -0.3059
  932MOL0     O22922   9.252   8.110   9.463  0.1104 -0.2075 -0.1790
  932MOL0     C22923   9.363   8.135   9.528 -0.1821  1.0302 -0.9207
  932MOL0     C22924   9.479   8.058   9.508  0.5190  0.1431  0.2507
  932MOL0     C22925   9.598   8.082   9.581  0.5412  0.8912  1.1360
  932MOL0     C22926   9.603   8.183   9.669 -0.3828 -0.1928  0.2887
  932MOL0     O22927   9.712   8.229   9.744  0.1121  0.4377 -0.9018
  932MOL0     C22928   9.850   8.192   9.698 -0.9483  0.0695  0.7504
  932MOL0     C22929   9.961   8.298   9.735 -0.0651 -0.3566  0.2766
  932MOL0     C22930  10.115   8.258   9.703 -0.1663 -0.3868 -0.0901
  932MOL0     C22931  10.214   8.365   9.752  0.4706  0.1406  0.3311
  932MOL0     C22932  10.358   8.312   9.755 -0.6651  0.1678 -0.0051
  932MOL0     C22933  10.469   8.411   9.800  1.0124 -0.1433  0.3787
  932MOL0     C22934  10.605   8.343   9.819  0.6592  0.5117 -0.2674
  932MOL0     C22935  10.713   8.436   9.853  0.6589 -0.5015  0.3304
  932MOL0    Cl22936  10.867   8.344   9.872  0.0553  0.4487 -0.3031
  932MOL0     C22937   9.491   8.251   9.700  0.1202  0.8647  0.9726
  932MOL0     C22938   9.374   8.230   9.628  0.3699  0.3448  0.1855
  932MOL0     O22939   9.250   8.316   9.366  0.6121  0.3612  0.1856
  932MOL0     C22940   8.976   8.304   9.323 -0.2576  0.9998 -0.1236
  932MOL0     C22941   8.838   8.304   9.323 -0.2005 -0.5142  0.0872
  932MOL0     N22942   8.490   8.147   8.934  1.0385 -0.7015 -0.5948
  932MOL0     N22943   8.587   8.088   8.894  0.4466  0.2727 -0.1631
  932MOL0     C22944   9.755   7.893   9.255 -0.1957  0.2657  0.9000
  932MOL0     C22945   9.873   7.951   9.304  0.5092 -0.2099 -0.1836
  932MOL0     C22946  10.257   7.963   9.621 -0.2859  0.1297  0.3421
  932MOL0     C22947  10.348   7.992   9.509  0.2623  0.4390  0.0444
  932MOL0     C22948  10.483   7.973   9.518 -0.9104 -0.7367 -0.2107
  932MOL0     C22949  10.548   7.926   9.640  0.7276  0.3331  0.7891
  932MOL0     O22950  10.678   7.887   9.645  0.4805 -0.2523  0.1405
  932MOL0     C22951  10.773   7.942   9.731 -0.5389  0.3805 -0.1850
  932MOL0     C22952  10.884   7.846   9.757 -0.5064  0.8033 -0.3364
  932MOL0     C22953  10.989   7.915   9.846 -0.1546  0.1600 -0.0613
  932MOL0     C22954  11.126   7.836   9.855 -0.3966  0.2507  0.2421
  932MOL0     C22955  11.211   7.902   9.954  0.2333  0.3528 -0.1460
  932MOL0     C22956  11.289   7.964  10.018  0.0232 -0.5872 -0.0542
  932MOL0     C22957  10.462   7.901   9.748  0.1305 -1.0791 -0.4523
  932MOL0     C22958  10.326   7.918   9.744  0.4019 -1.0502 -0.3545
  932MOL0     H22959   9.901   7.749   9.581 -0.7808  0.3400  0.1562
  932MOL0     H22960   9.730   7.632   9.463  0.9494 -0.0459  3.3373
  932MOL0     H22961   9.502   7.662   9.425 -1.6311 -0.0357  0.1028
  932MOL0     H22962   9.555   7.518   9.331  1.6510  1.6833  2.0210
  932MOL0     H22963   9.316   7.533   9.292 -1.6468  0.2853 -0.8124
  932MOL0     H22964   9.398   7.597   9.140  1.7336  2.8238  0.3338
  932MOL0     H22965   9.351   7.834   9.273 -0.5942  0.8530  1.9443
  932MOL0     H22966   9.227   7.725   9.339  1.8685  0.1736  1.4308
  932MOL0     H22967   9.254   7.839   9.076 -0.2286  0.1012  1.0105
  932MOL0     H22968   9.174   7.675   9.077  0.0678 -1.0022  0.7331
  932MOL0     H22969   9.073   7.913   9.230 -3.9617  0.6238  0.5896
  932MOL0     H22970   9.014   7.752   9.261  1.7986  1.3647  1.4508
  932MOL0     H22971   8.932   7.722   9.046  0.7342 -0.4970 -1.8833
  932MOL0     H22972   9.017   7.868   8.974 -4.8772  1.3106 -0.9601
  932MOL0     H22973   8.804   7.847   9.176  0.2918  0.0609 -0.5033
  932MOL0     H22974   8.870   8.006   9.139 -0.5878 -0.0267 -0.0023
  932MOL0     H22975   8.724   7.827   8.948 -0.7356 -0.5449  0.9728
  932MOL0     H22976   8.817   7.958   8.882 -0.5729 -0.3335 -0.3752
  932MOL0     H22977   8.555   7.958   9.191  0.1362  1.6166  0.5659
  932MOL0     H22978   8.245   8.113   9.088  1.2840 -0.5030 -0.8810
  932MOL0     H22979   8.331   8.263   9.107 -0.5146  0.2470  1.3869
  932MOL0     H22980   8.379   8.046   9.313 -0.7772  0.0346  1.9888
  932MOL0     H22981   8.232   8.139   9.318 -0.2330  0.9635  1.1658
  932MOL0     H22982   8.355   8.347   9.332 -0.8424 -2.3596 -0.4029
  932MOL0     H22983   8.403   8.244   9.467  2.6916  2.4768  1.3359
  932MOL0     H22984   8.585   8.375   9.369  0.4070 -0.5811 -1.2447
  932MOL0     H22985   8.574   8.289   9.214  3.5365  0.4338  1.2213
  932MOL0     H22986   8.792   8.012   9.484  3.7358 -1.3316  0.7482
  932MOL0     H22987   9.018   8.007   9.478 -1.6219 -1.3557 -0.6535
  932MOL0     H22988   9.481   7.971   9.444  4.3595 -1.2276  1.9907
  932MOL0     H22989   9.688   8.030   9.550 -0.6158 -1.0184  0.7705
  932MOL0     H22990   9.851   8.200   9.589  0.9421  1.4516  0.8180
  932MOL0     H22991   9.881   8.090   9.721 -0.4132 -0.2156 -1.1074
  932MOL0     H22992   9.950   8.338   9.836  1.1145  0.6051  0.0499
  932MOL0     H22993   9.945   8.383   9.668  1.4833 -0.0945  0.2170
  932MOL0     H22994  10.123   8.228   9.598  2.2316 -0.9364  0.1887
  932MOL0     H22995  10.154   8.170   9.754  1.3433  0.2906 -0.0145
  932MOL0     H22996  10.225   8.459   9.697  2.4724 -0.1945  0.0783
  932MOL0     H22997  10.185   8.388   9.855  7.2713  2.5073  2.3040
  932MOL0     H22998  10.382   8.269   9.657  1.4936 -0.7970  0.8851
  932MOL0     H22999  10.368   8.229   9.825  2.2173 -0.1770 -0.6989
  932MOL0     H23000  10.450   8.458   9.897  2.4874  2.1602 -0.3646
  932MOL0     H23001  10.487   8.500   9.739  2.3831 -1.0383 -0.5526
  932MOL0     H23002  10.596   8.280   9.908 -1.7344 -2.3137 -2.3370
  932MOL0     H23003  10.636   8.272   9.742 -3.1417 -0.3584 -1.1705
  932MOL0     H23004  10.697   8.494   9.944 -1.3127 -0.0191 -0.2787
  932MOL0     H23005  10.717   8.510   9.772  0.7722 -1.4659 -0.5692
  932MOL0     H23006   9.481   8.339   9.763 -0.9817  0.0485  1.9900
  932MOL0     H23007   9.285   8.287   9.654 -0.1547  1.2715 -3.1746
  932MOL0     H23008   9.032   8.394   9.298  1.0417  0.0983 -0.5496
  932MOL0     H23009   8.779   8.387   9.287 -1.3529 -1.2255  0.2788
  932MOL0     H23010   9.720   7.936   9.162  1.4427 -1.5958 -0.6729
  932MOL0     H23011   9.927   8.027   9.249 -1.3818  3.1047  2.1979
  932MOL0     H23012  10.301   8.023   9.417 -0.5382  1.6250  0.8126
  932MOL0     H23013  10.530   8.003   9.425 -1.6649  0.2920 -0.2766
  932MOL0     H23014  10.739   7.967   9.832 -0.9337  2.1692 -0.7264
  932MOL0     H23015  10.813   8.030   9.681  1.9298 -1.8476 -2.4252
  932MOL0     H23016  10.862   7.749   9.802 -1.4066  0.8451 -0.6575
  932MOL0     H23017  10.933   7.822   9.662  2.0147 -0.2399  1.1139
  932MOL0     H23018  10.955   7.923   9.949 -1.7219 -0.2576 -0.5217
  932MOL0     H23019  11.000   8.018   9.811 -0.0809  0.3814  0.6092
  932MOL0     H23020  11.107   7.730   9.875  0.6219 -0.1015 -0.6076
  932MOL0     H23021  11.185   7.841   9.763 -1.8379 -0.7575 -0.7657
  932MOL0     H23022  11.353   8.017  10.086  1.1302  0.3673 -1.7828
  932MOL0     H23023  10.507   7.852   9.834  0.0964 -2.5107 -1.2076
  932MOL0     H23024  10.263   7.897   9.830 -1.8578  3.1408 -0.7195
  933MOL0     O23025   2.847  10.608   5.657 -0.3534 -0.1216 -0.5590
  933MOL0     C23026   2.849  10.532   5.752  0.6689 -0.7356 -0.4399
  933MOL0     O23027   2.953  10.531   5.846  0.8922 -0.4867  0.1941
  933MOL0     C23028   3.040  10.645   5.848  0.2860 -0.3766 -0.2596
  933MOL0     C23029   2.992  10.776   5.876  0.2685  0.2173 -0.0293
  933MOL0     C23030   3.081  10.882   5.891 -0.3585 -0.4695  0.4444
  933MOL0     C23031   3.214  10.866   5.866  0.1269  0.4166 -0.7434
  933MOL0     O23032   3.295  10.978   5.864 -0.7637 -0.1147 -0.1602
  933MOL0     C23033   3.440  10.969   5.902  0.7926  0.9083 -0.1078
  933MOL0     C23034   3.454  10.944   6.050 -0.8088 -0.9879  1.2514
  933MOL0     C23035   3.586  10.887   6.092  0.0584  0.2133 -0.0648
  933MOL0     C23036   3.603  10.747   6.027  0.2158  0.5247  1.2254
  933MOL0     C23037   3.722  10.657   6.051  0.0799 -0.4285 -0.1885
  933MOL0     C23038   3.728  10.553   5.947 -0.2405  0.0686  0.9596
  933MOL0     C23039   3.627  10.441   5.954  0.3795 -0.2747  0.3376
  933MOL0     C23040   3.644  10.342   5.837  0.5132 -1.4138 -1.0182
  933MOL0     N23041   3.561  10.379   5.722  0.8666  0.3389 -0.8600
  933MOL0     C23042   3.447  10.313   5.705 -0.6441  0.6800 -0.7942
  933MOL0     C23043   3.381  10.388   5.619  0.1738  0.4974  0.4780
  933MOL0     C23044   3.250  10.355   5.548 -0.2363  1.5001  0.5496
  933MOL0     C23045   3.220  10.440   5.429 -0.0564 -0.6915  0.2987
  933MOL0     C23046   3.094  10.384   5.359  0.4915  0.9586  0.7510
  933MOL0     C23047   3.074  10.451   5.221 -0.0044 -0.9461 -0.2522
  933MOL0     O23048   2.991  10.397   5.120  0.2434  0.2963 -0.9205
  933MOL0     C23049   2.859  10.366   5.156  0.1227 -1.3251  0.7485
  933MOL0     C23050   2.788  10.252   5.123  0.0863  0.0709 -0.6857
  933MOL0     C23051   2.659  10.232   5.167  0.0594  0.6033 -0.1129
  933MOL0     C23052   2.585  10.327   5.242  1.1152  0.4000  0.0688
  933MOL0     C23053   2.450  10.300   5.294  0.0288  0.4817  0.3155
  933MOL0     O23054   2.390  10.401   5.358 -0.0575  0.0953 -0.4441
  933MOL0     C23055   2.258  10.397   5.377 -0.0406  0.5425  0.4772
  933MOL0     C23056   2.213  10.463   5.491  0.2163  0.5706 -0.1064
  933MOL0     C23057   2.078  10.482   5.508  0.1138  0.6289  0.3630
  933MOL0     C23058   1.984  10.436   5.417  0.4909 -0.2483 -0.2632
  933MOL0     O23059   1.849  10.437   5.430  0.0658 -0.5645 -0.0429
  933MOL0     C23060   1.785  10.499   5.536 -0.5455 -0.4914  0.2058
  933MOL0     C23061   1.666  10.409   5.567  0.1279 -0.0041  0.5875
  933MOL0     C23062   1.587  10.438   5.690 -0.6879  0.5226 -0.3341
  933MOL0     C23063   1.505  10.319   5.749 -0.2179  0.0228  0.3845
  933MOL0     C23064   1.428  10.235   5.651  0.4483  0.2675  0.2355
  933MOL0     C23065   1.362  10.116   5.734 -0.1305  0.2640 -0.9438
  933MOL0     C23066   1.251  10.051   5.642 -0.0132 -0.5622  0.0198
  933MOL0     C23067   1.201   9.922   5.702  0.0887 -0.4570 -1.0592
  933MOL0    Cl23068   1.028   9.912   5.667 -0.0839  0.7081 -0.3271
  933MOL0     C23069   2.035  10.374   5.302  1.1392  0.4580 -0.1113
  933MOL0     C23070   2.170  10.359   5.276  0.2375 -0.3969 -0.8012
  933MOL0     O23071   2.402  10.191   5.268  0.1224  0.1122 -0.5673
  933MOL0     C23072   2.652  10.443   5.271  0.3047  0.4515 -0.6801
  933MOL0     C23073   2.786  10.470   5.227 -0.1559 -0.1506 -0.7080
  933MOL0     N23074   3.449  10.506   5.593  0.0915  0.1070 -0.3926
  933MOL0     N23075   3.558  10.498   5.656 -0.4237 -0.1365  0.4875
  933MOL0     C23076   3.260  10.741   5.827 -0.8633  1.3288 -0.6117
  933MOL0     C23077   3.176  10.630   5.814 -0.1038 -0.1236 -0.8774
  933MOL0     C23078   2.733  10.442   5.778 -1.2764  0.0773  0.1607
  933MOL0     C23079   2.735  10.356   5.880 -0.3398  0.3338 -0.0214
  933MOL0     C23080   2.646  10.244   5.883 -0.4429 -0.5804  0.3627
  933MOL0     C23081   2.533  10.242   5.791  0.4691 -0.1932  0.5839
  933MOL0     O23082   2.441  10.144   5.804 -0.1358 -0.3673  0.2629
  933MOL0     C23083   2.344  10.120   5.699 -0.5569  0.3518  0.3078
  933MOL0     C23084   2.250  10.004   5.727  0.6334 -0.2133  0.7227
  933MOL0     C23085   2.143   9.964   5.628 -0.4051  1.1123  0.1717
  933MOL0     C23086   2.194   9.960   5.478 -0.2472  1.1510 -0.0026
  933MOL0     C23087   2.078   9.935   5.384 -0.6824  0.1601 -0.0140
  933MOL0     C23088   1.988   9.897   5.312 -0.2234 -0.2521  0.0399
  933MOL0     C23089   2.528  10.337   5.689 -0.5391  0.2425  0.1771
  933MOL0     C23090   2.626  10.435   5.683  0.5203  1.5788 -0.0802
  933MOL0     H23091   2.887  10.795   5.896 -0.6732 -2.8920 -1.4663
  933MOL0     H23092   3.038  10.979   5.911 -0.5766 -1.0017  2.9087
  933MOL0     H23093   3.489  11.064   5.878  1.5452  0.5530 -0.0121
  933MOL0     H23094   3.493  10.899   5.837 -0.1636 -0.4302  0.5022
  933MOL0     H23095   3.367  10.887   6.084 -0.7734 -1.3193  0.7857
  933MOL0     H23096   3.439  11.042   6.096 -1.1791  1.1330 -2.9199
  933MOL0     H23097   3.595  10.885   6.201  1.0888 -0.9240 -0.1570
  933MOL0     H23098   3.664  10.959   6.065  0.1027 -0.3884 -1.6837
  933MOL0     H23099   3.514  10.686   6.043 -0.6453  2.0198  2.4263
  933MOL0     H23100   3.595  10.769   5.921 -2.7026  0.4787  1.3555
  933MOL0     H23101   3.734  10.613   6.151 -0.5683  0.0586  0.1077
  933MOL0     H23102   3.806  10.726   6.045 -0.8631  0.8027  0.4156
  933MOL0     H23103   3.827  10.506   5.939 -0.4789 -0.1502 -3.5115
  933MOL0     H23104   3.716  10.607   5.853  2.4278  0.3301  0.6733
  933MOL0     H23105   3.653  10.388   6.046  0.9430  0.0103  0.3461
  933MOL0     H23106   3.526  10.483   5.961  0.6757  1.0342 -2.2422
  933MOL0     H23107   3.626  10.246   5.886  1.2271 -0.4260  1.3212
  933MOL0     H23108   3.749  10.338   5.806  1.2451  1.7389  0.6233
  933MOL0     H23109   3.414  10.215   5.738 -0.3730  0.2978 -1.6401
  933MOL0     H23110   3.168  10.363   5.619  0.2914  0.6044  1.2912
  933MOL0     H23111   3.262  10.252   5.512  3.1401  1.6581  0.9081
  933MOL0     H23112   3.306  10.432   5.362  1.0523 -0.3632  1.6322
  933MOL0     H23113   3.202  10.543   5.459 -0.9970 -1.5698  3.0569
  933MOL0     H23114   3.111  10.277   5.343 -1.1942  0.8842 -0.9001
  933MOL0     H23115   3.010  10.400   5.427  1.3423  0.9779  1.8180
  933MOL0     H23116   3.179  10.460   5.191  0.4695  0.5984  1.5733
  933MOL0     H23117   3.057  10.557   5.243  0.3741 -0.8566 -0.3882
  933MOL0     H23118   2.842  10.176   5.067  0.6335  0.7969 -1.1649
  933MOL0     H23119   2.631  10.129   5.148  1.5704  0.3325 -1.0609
  933MOL0     H23120   2.278  10.501   5.570 -1.9080 -2.1600  3.2418
  933MOL0     H23121   2.040  10.541   5.591 -1.9023  1.1829 -0.8881
  933MOL0     H23122   1.753  10.602   5.518 -1.4350 -0.6025  1.0924
  933MOL0     H23123   1.851  10.492   5.623 -0.6950 -2.3041  0.1992
  933MOL0     H23124   1.710  10.309   5.570  0.2303 -0.0370 -1.0968
  933MOL0     H23125   1.596  10.413   5.483  0.4679 -3.3030  0.0207
  933MOL0     H23126   1.515  10.509   5.648 -0.6985  1.9176  1.8852
  933MOL0     H23127   1.652  10.488   5.762 -0.1251  1.4404 -1.4377
  933MOL0     H23128   1.577  10.254   5.800  1.4950  0.5041 -1.2746
  933MOL0     H23129   1.426  10.354   5.816 -2.3864 -1.0482 -1.4876
  933MOL0     H23130   1.485  10.194   5.568 -0.1869  0.4606 -0.3073
  933MOL0     H23131   1.348  10.298   5.611 -1.8758 -2.5635  0.0470
  933MOL0     H23132   1.322  10.154   5.828  0.0830  0.5905 -0.9853
  933MOL0     H23133   1.429  10.032   5.753 -2.9012 -2.0025 -0.4323
  933MOL0     H23134   1.167  10.119   5.630 -2.5771 -3.5015  0.1881
  933MOL0     H23135   1.296  10.035   5.543 -1.1951  1.5910 -0.9312
  933MOL0     H23136   1.216   9.937   5.809 -0.5166 -1.0904 -0.8746
  933MOL0     H23137   1.254   9.832   5.668 -0.9837 -0.4265 -2.9934
  933MOL0     H23138   1.951  10.344   5.239 -0.4438  4.0112  0.0817
  933MOL0     H23139   2.190  10.320   5.177 -3.3273 -1.0048 -1.4028
  933MOL0     H23140   2.616  10.513   5.345  1.7646  0.7762 -0.2468
  933MOL0     H23141   2.821  10.571   5.245  0.2300 -0.5842  1.1064
  933MOL0     H23142   3.361  10.706   5.810 -1.8458 -1.7348 -0.7388
  933MOL0     H23143   3.211  10.530   5.790 -2.0771 -0.7675 -1.2549
  933MOL0     H23144   2.820  10.365   5.947  1.8661 -2.0509 -2.2710
  933MOL0     H23145   2.642  10.164   5.956 -0.0673 -0.4612  0.5166
  933MOL0     H23146   2.398  10.098   5.606  0.8728 -2.0885  1.6026
  933MOL0     H23147   2.286  10.206   5.666 -1.7284 -1.3758 -2.4963
  933MOL0     H23148   2.315   9.916   5.735  0.3722 -0.4257  0.5013
  933MOL0     H23149   2.200  10.035   5.819 -0.8790  0.7697 -0.3848
  933MOL0     H23150   2.070  10.045   5.641 -0.1593  1.1550  1.4113
  933MOL0     H23151   2.099   9.871   5.663 -0.5498  1.0368 -0.2135
  933MOL0     H23152   2.232  10.059   5.450 -2.2791  1.3893 -2.2543
  933MOL0     H23153   2.272   9.887   5.454  2.5261  4.1355 -0.7697
  933MOL0     H23154   1.917   9.858   5.243 -0.7242 -2.7488  1.8234
  933MOL0     H23155   2.448  10.324   5.617 -0.8460 -1.3934  0.7817
  933MOL0     H23156   2.641  10.497   5.594 -1.0605  0.9947 -0.7805
  934MOL0     O23157   8.195   2.876   8.032 -0.5097  0.2502 -0.0522
  934MOL0     C23158   8.280   2.911   7.951  0.4809 -0.1785  1.1453
  934MOL0     O23159   8.246   2.957   7.818 -1.1389 -0.0816 -0.3211
  934MOL0     C23160   8.117   2.957   7.790 -0.1391 -0.1732 -0.5061
  934MOL0     C23161   8.086   2.893   7.672 -0.1290 -0.5224 -0.6025
  934MOL0     C23162   7.961   2.882   7.618  0.0786 -0.1508 -0.3911
  934MOL0     C23163   7.850   2.937   7.696  0.3811 -0.3844 -0.4651
  934MOL0     O23164   7.721   2.929   7.666  0.2753  0.1430  0.2619
  934MOL0     C23165   7.682   2.830   7.573  0.4811 -0.8945 -0.2220
  934MOL0     C23166   7.530   2.806   7.566 -0.0112 -0.0191 -0.2388
  934MOL0     C23167   7.471   2.746   7.699  0.7133 -0.4413 -0.0437
  934MOL0     C23168   7.324   2.733   7.686  0.1800 -0.2626 -0.3370
  934MOL0     C23169   7.265   2.656   7.811 -0.0085  0.2174  0.0392
  934MOL0     C23170   7.322   2.505   7.837 -0.2098  0.5148  0.1906
  934MOL0     C23171   7.251   2.434   7.957  0.3585  0.4015 -0.0024
  934MOL0     C23172   7.280   2.286   7.981 -0.8109  1.0548 -0.2791
  934MOL0     N23173   7.399   2.254   8.073 -0.5162  0.5515  1.2893
  934MOL0     C23174   7.533   2.259   8.037 -0.4347  0.0995 -0.3676
  934MOL0     C23175   7.599   2.252   8.156  0.0721 -0.3838 -0.0178
  934MOL0     C23176   7.755   2.262   8.154 -1.1557 -0.3393 -1.0581
  934MOL0     C23177   7.819   2.113   8.160 -0.8713  0.3642 -0.8673
  934MOL0     C23178   7.797   2.022   8.278  1.2110  0.4625  0.9098
  934MOL0     C23179   7.830   2.087   8.414  0.1100  0.3910  0.4239
  934MOL0     O23180   7.813   2.000   8.531 -0.0552 -0.7591  0.0954
  934MOL0     C23181   7.697   1.995   8.605 -0.5980  0.1340 -0.1526
  934MOL0     C23182   7.575   2.036   8.549  0.4822 -0.1936 -0.1061
  934MOL0     C23183   7.452   2.019   8.619 -0.9016 -1.0586  0.4497
  934MOL0     C23184   7.456   1.973   8.752 -0.1075  0.3000  0.2373
  934MOL0     C23185   7.327   1.961   8.822  0.0663  0.3205  0.2837
  934MOL0     O23186   7.212   1.994   8.755 -0.0701 -0.3106 -0.4270
  934MOL0     C23187   7.091   1.985   8.815 -0.1372 -0.1862  0.0818
  934MOL0     C23188   7.056   1.855   8.857 -0.6816  0.0066  0.2922
  934MOL0     C23189   6.933   1.833   8.918  0.0746 -0.5735  0.0226
  934MOL0     C23190   6.837   1.928   8.915  0.2969 -0.1555  0.0224
  934MOL0     O23191   6.713   1.891   8.967 -0.1794  0.6594 -0.2165
  934MOL0     C23192   6.600   1.944   8.896  0.4481 -0.1310  0.4321
  934MOL0     C23193   6.470   1.868   8.929 -0.3923 -1.2920 -0.5102
  934MOL0     C23194   6.431   1.781   8.819 -0.2974  0.0810  0.4222
  934MOL0     C23195   6.321   1.694   8.881  0.4991  0.4236  0.7104
  934MOL0     C23196   6.178   1.754   8.880  0.2641 -0.5223 -0.9226
  934MOL0     C23197   6.075   1.644   8.924 -0.1627 -0.3420  0.7458
  934MOL0     C23198   5.929   1.674   8.895  0.7309 -0.5300 -0.6918
  934MOL0     C23199   5.828   1.594   8.975 -0.2670 -0.2977  0.7033
  934MOL0    Cl23200   5.667   1.665   8.987  0.6060 -0.3660  0.1478
  934MOL0     C23201   6.872   2.058   8.863  0.5865 -0.3494  0.5484
  934MOL0     C23202   7.006   2.089   8.818  0.7024  0.5022  0.0719
  934MOL0     O23203   7.329   1.910   8.936  0.2750 -0.2214  0.0931
  934MOL0     C23204   7.581   1.938   8.811 -1.3257  0.3875 -0.2332
  934MOL0     C23205   7.699   1.945   8.731 -0.3563 -0.1158 -0.3239
  934MOL0     N23206   7.510   2.241   8.260  0.2169  0.9131 -0.5158
  934MOL0     N23207   7.386   2.236   8.210  0.4520  1.0466 -0.3480
  934MOL0     C23208   7.877   3.010   7.810 -0.3091 -0.3492 -0.1647
  934MOL0     C23209   8.014   3.022   7.855  0.4564  0.2364 -0.0903
  934MOL0     C23210   8.418   2.914   7.996 -0.2429  0.0336  0.7888
  934MOL0     C23211   8.528   2.956   7.911 -0.0986 -0.0091 -0.6927
  934MOL0     C23212   8.662   2.938   7.956  0.1222  0.3057  0.1737
  934MOL0     C23213   8.686   2.892   8.086  0.3295 -0.8559 -0.2587
  934MOL0     O23214   8.811   2.876   8.128  0.4080 -0.1739 -0.1222
  934MOL0     C23215   8.879   2.997   8.170 -0.2009 -0.0648 -0.2361
  934MOL0     C23216   8.936   2.981   8.319  0.3681  0.0476  0.6172
  934MOL0     C23217   8.835   2.976   8.422  0.9099 -0.6604 -0.0955
  934MOL0     C23218   8.896   2.943   8.556 -0.1550  0.1844 -0.0534
  934MOL0     C23219   8.797   2.951   8.660  1.2244 -0.1357 -0.4385
  934MOL0     C23220   8.702   2.965   8.742  0.4882  0.1095  0.1725
  934MOL0     C23221   8.576   2.860   8.168 -0.5847 -0.4507 -0.5965
  934MOL0     C23222   8.448   2.866   8.130 -0.0676 -0.5862 -0.0978
  934MOL0     H23223   8.172   2.859   7.616 -0.3442 -2.0038 -0.0800
  934MOL0     H23224   7.946   2.829   7.524  0.9548  0.1889 -0.7317
  934MOL0     H23225   7.723   2.734   7.605  1.5696 -0.3794  0.0029
  934MOL0     H23226   7.723   2.854   7.475  3.0612 -1.9041  0.5206
  934MOL0     H23227   7.509   2.743   7.478  0.1435 -0.8004  0.2712
  934MOL0     H23228   7.486   2.903   7.541  1.3560  0.2423 -1.8257
  934MOL0     H23229   7.486   2.808   7.788 -6.0048  1.0726  0.6204
  934MOL0     H23230   7.523   2.650   7.712  3.1378  0.4908 -2.0706
  934MOL0     H23231   7.281   2.833   7.696  2.0701  0.3933  3.0548
  934MOL0     H23232   7.290   2.690   7.592 -0.5019  0.5903 -0.4849
  934MOL0     H23233   7.156   2.654   7.806  0.0245 -0.0870 -0.8316
  934MOL0     H23234   7.302   2.716   7.894  2.2236 -0.9097 -0.0842
  934MOL0     H23235   7.430   2.510   7.856 -0.2378  1.7469  0.0663
  934MOL0     H23236   7.292   2.447   7.748  1.4191 -0.7248  0.3958
  934MOL0     H23237   7.263   2.487   8.052 -1.5921  2.3957 -0.7969
  934MOL0     H23238   7.143   2.444   7.943  0.6607  1.5633 -1.9605
  934MOL0     H23239   7.308   2.225   7.895  2.8864 -0.8632  2.0294
  934MOL0     H23240   7.190   2.244   8.025 -0.1694  1.6934  1.7645
  934MOL0     H23241   7.569   2.271   7.935 -2.3908 -1.8727 -1.3753
  934MOL0     H23242   7.793   2.310   8.244  0.8960 -2.1009 -0.8896
  934MOL0     H23243   7.794   2.312   8.065 -0.7113  1.4293  0.0900
  934MOL0     H23244   7.925   2.121   8.134  0.0992 -2.1892  1.7608
  934MOL0     H23245   7.775   2.059   8.076  1.5691 -0.8697 -1.4296
  934MOL0     H23246   7.692   1.998   8.260  0.9902  2.3958 -0.6918
  934MOL0     H23247   7.864   1.936   8.272  3.6498  2.3621 -1.6777
  934MOL0     H23248   7.767   2.175   8.429 -2.0981 -1.1087  0.6011
  934MOL0     H23249   7.934   2.117   8.408  0.3281 -0.6086 -3.3476
  934MOL0     H23250   7.568   2.084   8.452 -0.5674 -0.4297 -0.1563
  934MOL0     H23251   7.361   2.050   8.568 -0.9715 -0.0470  1.1577
  934MOL0     H23252   7.134   1.780   8.846  0.7509  1.2915  1.3343
  934MOL0     H23253   6.926   1.732   8.956 -1.4896  0.4490  2.6850
  934MOL0     H23254   6.623   1.950   8.789  1.5174 -0.1516  0.6439
  934MOL0     H23255   6.574   2.044   8.930  0.4958 -0.0838  0.3300
  934MOL0     H23256   6.386   1.939   8.926 -0.3290 -1.2306 -3.1000
  934MOL0     H23257   6.483   1.811   9.021 -1.8386  0.3563  0.7868
  934MOL0     H23258   6.518   1.726   8.784  1.6105  3.7469 -1.1814
  934MOL0     H23259   6.399   1.836   8.730  1.1006 -1.5793 -1.1698
  934MOL0     H23260   6.313   1.612   8.810 -0.9897  1.2285 -0.1061
  934MOL0     H23261   6.345   1.651   8.979  3.1429 -1.1783 -0.5328
  934MOL0     H23262   6.165   1.782   8.775  1.4326  0.9663 -0.7077
  934MOL0     H23263   6.163   1.843   8.942  1.5723 -0.4669 -0.6460
  934MOL0     H23264   6.099   1.624   9.029  1.0071  1.1976  0.8107
  934MOL0     H23265   6.099   1.560   8.858 -1.7390  1.7635 -2.7876
  934MOL0     H23266   5.906   1.779   8.910 -0.4434 -0.8284 -0.3324
  934MOL0     H23267   5.906   1.662   8.789 -0.7606 -0.8560 -0.3529
  934MOL0     H23268   5.864   1.587   9.079  1.2084  1.8691  0.4165
  934MOL0     H23269   5.823   1.493   8.934  2.3653  0.2018 -1.0983
  934MOL0     H23270   6.791   2.131   8.856 -0.8223 -1.6918  2.0310
  934MOL0     H23271   7.025   2.183   8.766  0.3354  0.9313  0.7064
  934MOL0     H23272   7.586   1.906   8.914 -1.8815 -0.4561 -0.4556
  934MOL0     H23273   7.789   1.910   8.780 -1.0033  0.0661  1.0202
  934MOL0     H23274   7.796   3.051   7.869  0.5916 -0.2578  1.0442
  934MOL0     H23275   8.026   3.082   7.945 -3.2266 -1.0183  1.4076
  934MOL0     H23276   8.504   2.990   7.811 -0.9783 -0.2628 -0.5713
  934MOL0     H23277   8.745   2.967   7.892 -1.9525  0.8198 -2.4884
  934MOL0     H23278   8.815   3.086   8.178  1.3750  1.1936 -1.1142
  934MOL0     H23279   8.963   3.017   8.103 -1.1665 -2.8786 -2.4891
  934MOL0     H23280   8.983   2.882   8.324 -2.8050 -1.6179 -0.1697
  934MOL0     H23281   8.991   3.075   8.331 -3.2354  2.4873 -0.4081
  934MOL0     H23282   8.756   2.906   8.396  1.1440 -0.3565 -1.7271
  934MOL0     H23283   8.782   3.072   8.423  0.3944 -0.9263  1.9417
  934MOL0     H23284   8.938   2.842   8.553 -2.4136 -0.8233  0.2508
  934MOL0     H23285   8.975   3.015   8.578  0.3661  0.2441 -1.9692
  934MOL0     H23286   8.621   2.968   8.812 -0.6647  0.2982 -1.1067
  934MOL0     H23287   8.603   2.822   8.266  4.0726  1.9757 -0.6491
  934MOL0     H23288   8.368   2.831   8.195 -1.3857  0.1758 -1.2570
  935MOL0     O23289   0.659   1.301   3.461  0.5815 -0.3010 -0.2113
  935MOL0     C23290   0.689   1.417   3.445 -0.0439  0.2628 -1.7930
  935MOL0     O23291   0.600   1.518   3.407  0.7583 -0.0663  0.0629
  935MOL0     C23292   0.463   1.507   3.416 -0.0100  0.1978 -0.5454
  935MOL0     C23293   0.391   1.409   3.495  0.6539  0.2499  0.1524
  935MOL0     C23294   0.246   1.418   3.484  0.9677  0.1472 -0.7723
  935MOL0     C23295   0.184   1.503   3.397  0.3627  1.2043  0.0976
  935MOL0     O23296   0.051   1.489   3.379 -0.4469 -0.2549 -0.5168
  935MOL0     C23297  -0.016   1.577   3.287  0.3113  0.3197  0.3064
  935MOL0     C23298  -0.156   1.534   3.270 -0.1546  0.4539 -0.0990
  935MOL0     C23299  -0.238   1.509   3.394  0.0084  0.5674 -0.5148
  935MOL0     C23300  -0.383   1.462   3.374 -0.7647 -0.3794 -0.1216
  935MOL0     C23301  -0.463   1.575   3.304  0.8285 -0.0104 -0.2644
  935MOL0     C23302  -0.601   1.526   3.262 -0.1423 -0.6326  0.6082
  935MOL0     C23303  -0.683   1.618   3.169  0.0263  0.2727 -0.8615
  935MOL0     C23304  -0.649   1.587   3.024 -0.1581 -0.4855  1.0586
  935MOL0     N23305  -0.729   1.657   2.928  0.3184  0.2510  0.1780
  935MOL0     C23306  -0.854   1.613   2.891 -0.2256  0.7560 -0.2556
  935MOL0     C23307  -0.904   1.722   2.839 -0.0540 -0.1292  0.1980
  935MOL0     C23308  -1.056   1.734   2.809  0.0230  0.4368 -0.1302
  935MOL0     C23309  -1.091   1.882   2.802 -0.4131 -0.4561 -0.0823
  935MOL0     C23310  -1.042   1.932   2.659 -0.2250  0.0458 -0.4648
  935MOL0     C23311  -1.142   1.902   2.550  0.1478  0.4855 -0.1109
  935MOL0     O23312  -1.082   1.904   2.418  0.8939 -0.8013  0.2654
  935MOL0     C23313  -1.148   1.861   2.307  0.4015  1.4360  0.3184
  935MOL0     C23314  -1.075   1.852   2.184  0.4279  0.9527 -0.3735
  935MOL0     C23315  -1.128   1.781   2.069 -0.8254 -0.1027 -0.0613
  935MOL0     C23316  -1.256   1.732   2.070 -0.0320 -0.1757  0.4255
  935MOL0     C23317  -1.314   1.663   1.958  0.0061  0.2155 -0.1636
  935MOL0     O23318  -1.222   1.649   1.848 -0.2502 -0.2297 -0.2092
  935MOL0     C23319  -1.260   1.623   1.719  0.4308  0.1673 -0.6059
  935MOL0     C23320  -1.166   1.551   1.639 -0.5674 -0.4421  0.5247
  935MOL0     C23321  -1.197   1.539   1.507  0.0589  0.2378  0.4046
  935MOL0     C23322  -1.306   1.593   1.439 -0.0626  0.6472 -0.0587
  935MOL0     O23323  -1.319   1.569   1.303  0.1415  0.1866  0.7564
  935MOL0     C23324  -1.201   1.536   1.232 -0.4931 -1.0986  0.4136
  935MOL0     C23325  -1.239   1.553   1.090 -0.1795  0.0076 -0.0368
  935MOL0     C23326  -1.122   1.505   1.006 -0.8307 -0.3226 -0.2640
  935MOL0     C23327  -1.139   1.506   0.857 -0.8235 -0.0776  0.1005
  935MOL0     C23328  -1.188   1.641   0.798  0.4390 -0.4547 -0.8639
  935MOL0     C23329  -1.201   1.620   0.643 -0.7334 -0.4124  0.5520
  935MOL0     C23330  -1.070   1.623   0.562 -1.1248 -0.1623 -1.5898
  935MOL0     C23331  -0.985   1.755   0.578 -0.2192  0.5704 -0.6849
  935MOL0    Cl23332  -0.839   1.742   0.488 -0.0061  0.2437  0.1573
  935MOL0     C23333  -1.400   1.657   1.516 -0.3115 -0.8927 -0.0665
  935MOL0     C23334  -1.378   1.671   1.655 -0.0562 -0.7166 -0.0854
  935MOL0     O23335  -1.429   1.615   1.958 -0.6061 -0.0495  0.4890
  935MOL0     C23336  -1.333   1.747   2.184  0.5567 -0.6639 -0.5463
  935MOL0     C23337  -1.286   1.806   2.295 -0.7571  0.5475 -0.4624
  935MOL0     N23338  -0.816   1.831   2.838 -0.5085  0.0733  0.3215
  935MOL0     N23339  -0.705   1.786   2.895 -0.1979 -0.1143  0.2202
  935MOL0     C23340   0.258   1.603   3.333 -0.8626 -0.3808  0.2998
  935MOL0     C23341   0.398   1.606   3.349  0.0471  0.2826 -0.1552
  935MOL0     C23342   0.827   1.443   3.478  0.5831  0.3310 -0.4601
  935MOL0     C23343   0.878   1.569   3.440 -0.1693 -0.2308 -0.0821
  935MOL0     C23344   1.015   1.597   3.469  1.3162  0.5459  0.5118
  935MOL0     C23345   1.103   1.498   3.525  0.9085 -0.1359 -0.4097
  935MOL0     O23346   1.235   1.514   3.560  0.2475 -0.1426  0.0036
  935MOL0     C23347   1.321   1.547   3.444 -0.2606  0.1804 -0.3411
  935MOL0     C23348   1.465   1.569   3.487 -0.3014  0.2416  0.8840
  935MOL0     C23349   1.550   1.596   3.361 -0.0319 -0.4550 -1.2321
  935MOL0     C23350   1.693   1.652   3.402 -0.5713  1.0782 -0.2970
  935MOL0     C23351   1.783   1.638   3.288 -0.6603 -0.5613  0.2026
  935MOL0     C23352   1.845   1.624   3.188  0.9381  0.2834 -0.1710
  935MOL0     C23353   1.050   1.372   3.544  0.4908  0.0188 -0.2722
  935MOL0     C23354   0.914   1.346   3.521 -0.1560  0.5857  0.0759
  935MOL0     H23355   0.450   1.348   3.563  0.8823  2.8314  2.4181
  935MOL0     H23356   0.185   1.341   3.530  1.6452  1.0717  1.8482
  935MOL0     H23357   0.041   1.574   3.194 -0.1446 -1.1930  0.0667
  935MOL0     H23358  -0.009   1.683   3.316  0.8091  0.0469  1.2435
  935MOL0     H23359  -0.145   1.442   3.212  3.6828  1.2555 -0.8940
  935MOL0     H23360  -0.207   1.611   3.212  1.1896  1.3956 -0.0718
  935MOL0     H23361  -0.250   1.597   3.458 -4.3716 -1.9522  2.6939
  935MOL0     H23362  -0.188   1.444   3.466 -2.9555 -1.2940  0.0590
  935MOL0     H23363  -0.387   1.371   3.313 -3.2890 -0.2461 -0.2771
  935MOL0     H23364  -0.422   1.426   3.469 -1.2496 -2.5298 -1.0736
  935MOL0     H23365  -0.409   1.620   3.221  1.6045 -0.8967 -0.2482
  935MOL0     H23366  -0.477   1.657   3.375 -1.1219  0.4598 -1.1208
  935MOL0     H23367  -0.660   1.500   3.350 -1.1112 -0.0405  0.1580
  935MOL0     H23368  -0.593   1.430   3.210 -2.0858 -1.3879  1.5927
  935MOL0     H23369  -0.790   1.599   3.184 -0.6634  2.8319 -1.9372
  935MOL0     H23370  -0.665   1.723   3.195 -2.6301  0.5926 -0.0128
  935MOL0     H23371  -0.647   1.481   2.998  3.0514 -0.2808  0.0761
  935MOL0     H23372  -0.548   1.625   3.006 -0.1150 -2.0938 -2.8633
  935MOL0     H23373  -0.908   1.519   2.904 -0.0219  0.6878  0.1154
  935MOL0     H23374  -1.117   1.686   2.886 -0.7407 -0.4874 -1.2728
  935MOL0     H23375  -1.080   1.677   2.719  0.8497 -0.8182  0.4113
  935MOL0     H23376  -1.060   1.949   2.883 -2.7682  0.5031  0.1133
  935MOL0     H23377  -1.198   1.896   2.818 -0.0075  0.6957  2.0757
  935MOL0     H23378  -1.024   2.039   2.666  2.3777 -0.3344  0.0904
  935MOL0     H23379  -0.949   1.881   2.631  0.1922  0.1392  0.6812
  935MOL0     H23380  -1.224   1.974   2.543 -0.4618 -0.3522 -2.7319
  935MOL0     H23381  -1.190   1.806   2.570 -2.4286  2.1322  2.4532
  935MOL0     H23382  -0.979   1.903   2.186 -0.8339  3.5033 -0.9357
  935MOL0     H23383  -1.053   1.772   1.990  1.5273  0.5711  1.9611
  935MOL0     H23384  -1.078   1.502   1.677 -0.8511 -0.8770  0.6242
  935MOL0     H23385  -1.126   1.473   1.458 -1.9113 -0.5069 -1.6317
  935MOL0     H23386  -1.171   1.432   1.248  0.3456 -1.1604 -1.4066
  935MOL0     H23387  -1.109   1.593   1.249 -0.2016 -1.7333  1.0352
  935MOL0     H23388  -1.269   1.656   1.070 -1.9628 -0.6458 -1.0312
  935MOL0     H23389  -1.324   1.487   1.068  2.6589 -3.4167 -1.8533
  935MOL0     H23390  -1.086   1.405   1.033  0.8451  0.0689 -0.9140
  935MOL0     H23391  -1.038   1.573   1.024 -0.4010 -1.4348  2.3632
  935MOL0     H23392  -1.054   1.462   0.802 -1.9470  1.0290 -2.7321
  935MOL0     H23393  -1.222   1.438   0.843 -0.9187 -0.3389  1.7493
  935MOL0     H23394  -1.139   1.731   0.834 -0.9275 -0.2836  0.6812
  935MOL0     H23395  -1.286   1.658   0.843  1.5789  1.8267  0.9473
  935MOL0     H23396  -1.268   1.689   0.590  2.1829  1.6295 -0.8139
  935MOL0     H23397  -1.249   1.525   0.619  2.0319 -1.0865 -3.3196
  935MOL0     H23398  -1.012   1.537   0.597  1.8822  1.8957 -1.1652
  935MOL0     H23399  -1.085   1.608   0.454 -2.4119  0.3369 -1.5018
  935MOL0     H23400  -0.959   1.768   0.684  1.1159 -0.9248 -0.7939
  935MOL0     H23401  -1.054   1.831   0.541 -0.7654  0.8277  0.7935
  935MOL0     H23402  -1.480   1.710   1.465  0.4474  2.1259  1.6326
  935MOL0     H23403  -1.452   1.720   1.718 -1.1680 -0.6038 -1.4451
  935MOL0     H23404  -1.439   1.721   2.186  0.9711 -2.5304  0.5442
  935MOL0     H23405  -1.346   1.824   2.384  0.3438 -0.2439  0.4594
  935MOL0     H23406   0.211   1.675   3.267 -0.4077 -2.3741 -2.3755
  935MOL0     H23407   0.464   1.665   3.286 -1.7231  0.0961 -2.2932
  935MOL0     H23408   0.804   1.635   3.396  0.2982  0.7505  0.5643
  935MOL0     H23409   1.057   1.696   3.456  2.2693  0.1459  0.4460
  935MOL0     H23410   1.278   1.632   3.389 -0.0776  0.0900 -0.6287
  935MOL0     H23411   1.326   1.468   3.368  2.8631  1.8744 -2.0980
  935MOL0     H23412   1.464   1.659   3.549 -3.0102  1.7545 -1.1539
  935MOL0     H23413   1.504   1.482   3.541  0.1780 -1.6107 -2.2116
  935MOL0     H23414   1.497   1.677   3.308  0.0651  0.4249 -0.0179
  935MOL0     H23415   1.559   1.498   3.314  0.0602 -2.4352  2.5543
  935MOL0     H23416   1.681   1.755   3.437 -1.3305  0.1338  2.5535
  935MOL0     H23417   1.714   1.579   3.482  0.3106  2.3761  0.7053
  935MOL0     H23418   1.907   1.632   3.101  3.5278 -3.5985  1.0355
  935MOL0     H23419   1.121   1.295   3.572  2.3208  0.4778 -3.2132
  935MOL0     H23420   0.883   1.242   3.527 -1.1182  0.8344 -0.4427
  936MOL0     O23421  10.698   9.176   1.198  0.3510 -0.3641  0.0664
  936MOL0     C23422  10.683   9.263   1.109 -0.6129 -0.4023  0.2326
  936MOL0     O23423  10.568   9.286   1.045 -0.1071  0.2195  1.1004
  936MOL0     C23424  10.458   9.212   1.071 -0.7431  0.3762 -0.4010
  936MOL0     C23425  10.404   9.136   0.964  0.3714 -0.0050 -0.9865
  936MOL0     C23426  10.304   9.045   1.003  0.7099  0.4719 -0.1315
  936MOL0     C23427  10.253   9.040   1.131 -0.1364  0.7003  0.1041
  936MOL0     O23428  10.138   8.964   1.159 -0.3354  0.1597  0.2484
  936MOL0     C23429  10.025   9.004   1.082  0.1337 -0.4372 -0.9436
  936MOL0     C23430   9.899   8.992   1.176 -0.3321  0.5436  0.1141
  936MOL0     C23431   9.785   8.917   1.093 -0.2977 -0.9695 -0.7043
  936MOL0     C23432   9.664   8.915   1.178  0.6434  0.6688 -0.0775
  936MOL0     C23433   9.546   8.855   1.095  1.1104 -0.6384  0.4888
  936MOL0     C23434   9.424   8.831   1.191 -0.0426  0.0813  0.1258
  936MOL0     C23435   9.305   8.750   1.135  0.2476 -0.1478 -0.1911
  936MOL0     C23436   9.182   8.780   1.214  0.3650 -0.1422 -0.3545
  936MOL0     N23437   9.068   8.706   1.152 -0.7735  0.1158 -0.0447
  936MOL0     C23438   9.016   8.751   1.036  0.4197 -0.3886 -0.8268
  936MOL0     C23439   8.947   8.650   0.992 -0.4198 -0.5567  1.3059
  936MOL0     C23440   8.863   8.652   0.864  0.5111 -0.6257 -0.0497
  936MOL0     C23441   8.778   8.788   0.849 -0.5823 -0.3815  0.6022
  936MOL0     C23442   8.672   8.808   0.958 -0.1948 -0.6007 -0.1332
  936MOL0     C23443   8.554   8.881   0.910 -0.2643  0.3244 -0.0372
  936MOL0     O23444   8.495   8.833   0.791  0.4427 -0.6946 -0.1870
  936MOL0     C23445   8.368   8.875   0.757  0.1088 -0.0582  0.4721
  936MOL0     C23446   8.309   8.996   0.806  0.3584 -0.6411  0.6442
  936MOL0     C23447   8.197   9.039   0.743  0.8163  0.0646 -0.9364
  936MOL0     C23448   8.130   8.963   0.652  0.1604  0.0344  0.2766
  936MOL0     C23449   7.996   8.998   0.601  0.5265  0.0775 -0.1727
  936MOL0     O23450   7.928   9.078   0.678 -0.0384  0.7850  1.2826
  936MOL0     C23451   7.804   9.123   0.633  0.1873  0.4705 -0.2519
  936MOL0     C23452   7.698   9.046   0.564  0.0125  1.2518  0.1741
  936MOL0     C23453   7.574   9.106   0.530 -0.6070  0.1140  0.2900
  936MOL0     C23454   7.549   9.238   0.565 -0.0040 -0.1439  1.3919
  936MOL0     O23455   7.423   9.294   0.569 -0.2984 -0.0794 -0.6844
  936MOL0     C23456   7.374   9.301   0.701  0.0370  0.0844  0.0976
  936MOL0     C23457   7.310   9.168   0.733 -0.1393  0.8975 -1.0044
  936MOL0     C23458   7.173   9.151   0.668 -0.2866  1.0709  0.4254
  936MOL0     C23459   7.182   9.096   0.524 -0.2473 -0.0849  0.1248
  936MOL0     C23460   7.041   9.076   0.456 -0.0464 -0.1279  0.6443
  936MOL0     C23461   6.960   8.960   0.515 -0.3347  0.3134 -0.3010
  936MOL0     C23462   6.833   8.962   0.433 -0.4041  0.7049  0.7690
  936MOL0     C23463   6.726   8.872   0.490  0.0789  0.1068  1.4006
  936MOL0    Cl23464   6.563   8.898   0.415  0.1129  0.2485 -0.1586
  936MOL0     C23465   7.652   9.313   0.622  0.7485 -0.7603  0.4139
  936MOL0     C23466   7.773   9.257   0.655 -0.7356  0.1400 -1.2355
  936MOL0     O23467   7.959   8.935   0.503 -0.4468  0.2737  0.2381
  936MOL0     C23468   8.190   8.838   0.611  0.9012  0.2365 -0.2282
  936MOL0     C23469   8.309   8.795   0.664  0.0715  0.6266  0.2867
  936MOL0     N23470   8.963   8.537   1.068  0.1601  0.3480 -0.4968
  936MOL0     N23471   9.039   8.573   1.167 -0.3472 -0.1796  0.4945
  936MOL0     C23472  10.309   9.117   1.231 -0.5114  0.3348 -0.2269
  936MOL0     C23473  10.408   9.206   1.204  0.4731 -0.5056  0.2626
  936MOL0     C23474  10.798   9.346   1.071 -0.4707 -0.3617 -0.0606
  936MOL0     C23475  10.803   9.424   0.955 -0.4113 -0.5023  0.7359
  936MOL0     C23476  10.908   9.511   0.928 -1.0311 -0.7292  0.2799
  936MOL0     C23477  11.014   9.526   1.015  0.1127  0.1572 -0.0894
  936MOL0     O23478  11.107   9.618   0.981 -0.1411 -0.3480 -1.1843
  936MOL0     C23479  11.190   9.664   1.086 -0.6213 -0.0129  0.1669
  936MOL0     C23480  11.242   9.813   1.064  0.1931 -0.7498 -1.0698
  936MOL0     C23481  11.287   9.849   0.921 -0.0419 -0.5352  0.1451
  936MOL0     C23482  11.281   9.997   0.890  0.3828 -0.3918 -0.7181
  936MOL0     C23483  11.368  10.061   0.988 -0.7138 -0.5108 -0.4581
  936MOL0     C23484  11.435  10.122   1.077 -0.1455  0.7346  0.1560
  936MOL0     C23485  11.009   9.447   1.130  0.4554 -0.0898  0.5294
  936MOL0     C23486  10.907   9.355   1.154  1.2209  0.9661 -0.0713
  936MOL0     H23487  10.450   9.149   0.866  2.0216  0.2759 -0.2052
  936MOL0     H23488  10.255   8.984   0.927  3.0069 -0.6234 -0.8439
  936MOL0     H23489  10.013   8.922   1.011 -1.3909 -3.0070  2.0233
  936MOL0     H23490  10.030   9.104   1.038  1.3934 -0.6987 -1.4461
  936MOL0     H23491   9.858   9.089   1.207 -2.4068 -0.7104  1.6220
  936MOL0     H23492   9.932   8.940   1.267  0.7693  0.7888 -0.1321
  936MOL0     H23493   9.811   8.811   1.083  1.3785 -0.8001  1.3362
  936MOL0     H23494   9.752   8.961   0.999  0.1583 -1.3698 -1.0530
  936MOL0     H23495   9.687   8.858   1.269  2.3854 -1.4066 -1.7302
  936MOL0     H23496   9.638   9.016   1.213  0.8027  0.3069  1.1486
  936MOL0     H23497   9.572   8.757   1.055  0.8375  0.1210 -1.6527
  936MOL0     H23498   9.513   8.918   1.012 -1.1161 -0.2779  1.5648
  936MOL0     H23499   9.394   8.930   1.226 -0.4267  1.1133 -2.7917
  936MOL0     H23500   9.453   8.770   1.277 -2.5910 -1.1246  0.2302
  936MOL0     H23501   9.290   8.768   1.029 -0.1657  0.5963 -0.0149
  936MOL0     H23502   9.327   8.643   1.145  0.4860 -0.0055  0.9484
  936MOL0     H23503   9.163   8.888   1.208  1.0046  0.0991  1.4086
  936MOL0     H23504   9.200   8.754   1.319 -0.8796 -1.4848 -0.4512
  936MOL0     H23505   9.033   8.845   0.986 -0.2943  1.0127  1.3954
  936MOL0     H23506   8.793   8.569   0.871 -0.6516  0.4702  2.9433
  936MOL0     H23507   8.929   8.629   0.780 -1.8773 -1.5745 -1.7755
  936MOL0     H23508   8.734   8.793   0.749  2.3205 -0.7993 -0.8155
  936MOL0     H23509   8.843   8.877   0.856 -0.8771 -0.1253  0.1593
  936MOL0     H23510   8.640   8.708   0.992  0.8921 -0.5010  1.2934
  936MOL0     H23511   8.706   8.851   1.053 -0.9022 -0.8949  0.2625
  936MOL0     H23512   8.574   8.987   0.894  1.7598 -0.0223  0.0125
  936MOL0     H23513   8.476   8.885   0.987  0.7437  1.3602  0.9489
  936MOL0     H23514   8.363   9.052   0.882  1.7080 -0.0914 -0.6857
  936MOL0     H23515   8.159   9.132   0.784  0.4806  0.1585 -1.4495
  936MOL0     H23516   7.717   8.942   0.538  3.6025  1.5619  1.0860
  936MOL0     H23517   7.493   9.044   0.493 -0.7475  1.0862 -1.1093
  936MOL0     H23518   7.300   9.381   0.692 -0.7596 -0.7838 -1.7175
  936MOL0     H23519   7.443   9.330   0.780 -0.1771 -0.7115  0.5934
  936MOL0     H23520   7.285   9.168   0.840 -1.2535 -1.0572 -1.2219
  936MOL0     H23521   7.371   9.078   0.717 -0.6747  0.4396 -0.5318
  936MOL0     H23522   7.105   9.237   0.670 -1.9948 -0.1969 -0.9205
  936MOL0     H23523   7.119   9.069   0.715 -3.7952  1.1982 -2.9550
  936MOL0     H23524   7.242   9.171   0.474  0.2209  0.5899  1.6553
  936MOL0     H23525   7.244   9.006   0.533  1.1585  0.9432  1.0159
  936MOL0     H23526   7.064   9.050   0.353 -1.5045 -2.9252  0.9477
  936MOL0     H23527   6.998   9.177   0.461 -0.6832 -0.1680 -2.4152
  936MOL0     H23528   6.945   8.977   0.622 -0.4679 -0.1289 -0.2480
  936MOL0     H23529   7.011   8.865   0.499  0.1110 -0.0077  2.4962
  936MOL0     H23530   6.794   9.064   0.423 -2.2872 -0.1600 -1.6410
  936MOL0     H23531   6.853   8.925   0.332 -1.8162 -1.0006  1.0724
  936MOL0     H23532   6.735   8.896   0.597 -0.6811 -0.1227  1.5196
  936MOL0     H23533   6.759   8.770   0.468 -1.2942 -0.0826  0.0696
  936MOL0     H23534   7.638   9.419   0.641  4.2595 -0.2236  0.7193
  936MOL0     H23535   7.842   9.324   0.706 -0.0172 -0.3264 -1.5920
  936MOL0     H23536   8.142   8.768   0.544  1.3538  1.0599 -1.4510
  936MOL0     H23537   8.353   8.703   0.625  1.5590  0.7007  1.6721
  936MOL0     H23538  10.246   9.126   1.320  0.3632  1.3588  0.3061
  936MOL0     H23539  10.439   9.265   1.290  1.8615  0.3630 -0.7816
  936MOL0     H23540  10.716   9.427   0.890 -0.4651  2.2404  0.8017
  936MOL0     H23541  10.909   9.574   0.840  2.6044  3.4530  2.9182
  936MOL0     H23542  11.284   9.609   1.081 -1.6394 -1.9019  0.8665
  936MOL0     H23543  11.152   9.653   1.188 -0.8700  1.5946  0.2685
  936MOL0     H23544  11.157   9.873   1.097 -1.1988 -3.2408  0.1048
  936MOL0     H23545  11.331   9.834   1.123  0.2227 -2.0050 -0.6408
  936MOL0     H23546  11.215   9.805   0.852 -0.2405  0.9526 -0.6341
  936MOL0     H23547  11.386   9.809   0.895  0.1776  0.0624  0.0623
  936MOL0     H23548  11.319  10.020   0.790  2.7318  1.4132  0.4782
  936MOL0     H23549  11.181  10.037   0.904  0.8829  0.5262  0.3637
  936MOL0     H23550  11.486  10.168   1.159  3.4677 -1.4901 -0.6068
  936MOL0     H23551  11.087   9.441   1.206 -0.5733 -0.9577  1.5512
  936MOL0     H23552  10.901   9.300   1.247 -0.8179  1.0534 -0.1048
  937MOL0     O23553   2.164   2.985   7.424  0.4552 -0.1624  0.1959
  937MOL0     C23554   2.194   3.057   7.519  0.0879  0.4129 -0.2952
  937MOL0     O23555   2.153   3.038   7.653 -0.8717  0.1405 -0.1409
  937MOL0     C23556   2.041   2.961   7.665  0.0204  0.4618  0.3131
  937MOL0     C23557   1.922   3.015   7.717  0.4852  0.4615 -0.6461
  937MOL0     C23558   1.816   2.932   7.767 -0.9414 -0.2662  0.0091
  937MOL0     C23559   1.824   2.793   7.752  0.2650  0.1270 -0.0924
  937MOL0     O23560   1.713   2.720   7.774 -0.3882 -0.4972 -0.4761
  937MOL0     C23561   1.733   2.569   7.769  0.3333  0.5428  0.2578
  937MOL0     C23562   1.599   2.504   7.806 -0.2810 -0.3539  0.2523
  937MOL0     C23563   1.499   2.498   7.689  0.2509 -0.7435 -0.6803
  937MOL0     C23564   1.358   2.476   7.740  0.0586 -0.2476  0.1703
  937MOL0     C23565   1.285   2.457   7.609  0.7990 -0.2831  0.2459
  937MOL0     C23566   1.137   2.454   7.631  0.1049  0.4769  0.5757
  937MOL0     C23567   1.054   2.457   7.504  0.5754  0.4580  0.5960
  937MOL0     C23568   0.911   2.417   7.537 -0.6104 -0.2613  0.2046
  937MOL0     N23569   0.823   2.401   7.423  0.7634  0.2287  0.3068
  937MOL0     C23570   0.817   2.288   7.337  0.9039 -0.7610 -0.3567
  937MOL0     C23571   0.715   2.325   7.252 -0.4133  0.0612  0.0168
  937MOL0     C23572   0.654   2.218   7.160  0.3979  0.0217  0.6806
  937MOL0     C23573   0.496   2.214   7.158 -0.0591 -0.3896  0.8130
  937MOL0     C23574   0.444   2.078   7.100 -0.0052  0.6316 -0.0977
  937MOL0     C23575   0.297   2.074   7.080  0.1564  1.0312  0.8171
  937MOL0     O23576   0.237   1.941   7.081 -0.1033  0.4278 -0.1316
  937MOL0     C23577   0.111   1.916   7.028 -0.1153 -0.1032 -0.3291
  937MOL0     C23578   0.023   2.011   6.976  0.6133 -0.3140  0.1408
  937MOL0     C23579  -0.099   1.978   6.923 -0.4149 -0.5427 -0.7597
  937MOL0     C23580  -0.143   1.849   6.929 -0.1568  0.9997  0.0484
  937MOL0     C23581  -0.266   1.821   6.857  0.2231  0.4393  0.4467
  937MOL0     O23582  -0.356   1.736   6.913 -0.4392  1.1347 -0.6204
  937MOL0     C23583  -0.484   1.710   6.871 -0.0666  0.4627 -0.0180
  937MOL0     C23584  -0.547   1.593   6.919 -0.8766 -0.0557 -0.1120
  937MOL0     C23585  -0.678   1.568   6.883 -0.8208 -0.2534  0.5860
  937MOL0     C23586  -0.754   1.648   6.792 -0.1527  0.6053  0.1566
  937MOL0     O23587  -0.881   1.627   6.741  0.2300  0.3648 -0.8004
  937MOL0     C23588  -0.962   1.538   6.823  0.2001 -0.3516  0.4560
  937MOL0     C23589  -1.114   1.551   6.784  0.6541  0.4327  0.7764
  937MOL0     C23590  -1.159   1.685   6.715  0.9106  0.2212  0.6124
  937MOL0     C23591  -1.322   1.694   6.730 -0.2547 -0.8220 -0.1631
  937MOL0     C23592  -1.371   1.838   6.706 -0.2586  0.2962 -0.1161
  937MOL0     C23593  -1.528   1.851   6.715 -0.0883 -0.1301 -0.0942
  937MOL0     C23594  -1.602   1.827   6.575  0.9738 -0.2491 -0.2544
  937MOL0     C23595  -1.757   1.814   6.594 -1.2052 -0.2462  0.6612
  937MOL0    Cl23596  -1.813   1.961   6.672 -0.2515 -0.3629 -0.3023
  937MOL0     C23597  -0.683   1.761   6.741 -0.4866 -0.5522 -0.0401
  937MOL0     C23598  -0.549   1.795   6.772 -0.4125  0.3329  0.4361
  937MOL0     O23599  -0.277   1.877   6.751 -0.2585  0.4350 -0.4453
  937MOL0     C23600  -0.063   1.753   6.994 -0.2502  0.4099 -0.3815
  937MOL0     C23601   0.067   1.788   7.036  0.2000  0.1527 -0.1123
  937MOL0     N23602   0.666   2.448   7.280 -0.7338  0.1117 -0.3301
  937MOL0     N23603   0.734   2.498   7.377 -0.6315  0.0316  0.5505
  937MOL0     C23604   1.943   2.739   7.687 -0.2022 -0.5141  0.6459
  937MOL0     C23605   2.052   2.821   7.660 -0.4909 -1.2013  0.6459
  937MOL0     C23606   2.300   3.155   7.510 -0.2748  0.6768 -0.5430
  937MOL0     C23607   2.360   3.184   7.388 -0.5507 -0.4019 -0.2738
  937MOL0     C23608   2.460   3.271   7.378 -0.8287  0.1929  0.3479
  937MOL0     C23609   2.526   3.329   7.487 -0.0408 -0.0569  0.3398
  937MOL0     O23610   2.639   3.407   7.486  0.6680  0.2900 -0.8411
  937MOL0     C23611   2.714   3.413   7.365 -0.2602  0.4305  0.0606
  937MOL0     C23612   2.842   3.499   7.382 -0.2261  0.3674 -0.0734
  937MOL0     C23613   2.941   3.439   7.476 -0.0060  0.1765  0.1898
  937MOL0     C23614   3.054   3.536   7.493  0.1424 -0.2052  0.2472
  937MOL0     C23615   3.007   3.633   7.589 -0.4057 -0.2174  0.2082
  937MOL0     C23616   2.958   3.706   7.671 -0.4145  0.5072 -0.7404
  937MOL0     C23617   2.456   3.319   7.612 -0.2140 -0.2724 -0.2771
  937MOL0     C23618   2.352   3.228   7.620  0.8776  0.3704  0.7827
  937MOL0     H23619   1.910   3.121   7.734  0.4728  0.6266 -1.6598
  937MOL0     H23620   1.730   2.990   7.799 -0.2107 -1.0817  3.9351
  937MOL0     H23621   1.808   2.549   7.847 -0.8378  0.4397  1.3951
  937MOL0     H23622   1.763   2.536   7.669 -5.0058 -2.7888 -0.5950
  937MOL0     H23623   1.559   2.580   7.873 -0.5342  2.2772 -2.6655
  937MOL0     H23624   1.610   2.406   7.854  0.0275 -0.4489 -0.0077
  937MOL0     H23625   1.532   2.414   7.628 -0.8091 -0.8544 -1.1256
  937MOL0     H23626   1.513   2.592   7.635 -0.3584 -0.7855 -0.9234
  937MOL0     H23627   1.348   2.393   7.811  1.6414  0.0494  0.7952
  937MOL0     H23628   1.317   2.567   7.785 -1.5408  0.5791 -2.7084
  937MOL0     H23629   1.315   2.365   7.558  0.8684  0.1600 -0.5328
  937MOL0     H23630   1.309   2.528   7.530  2.6389 -1.4480 -0.3178
  937MOL0     H23631   1.107   2.547   7.680 -3.5964 -0.4337  0.3943
  937MOL0     H23632   1.111   2.364   7.688 -2.6118 -0.2822 -1.6265
  937MOL0     H23633   1.051   2.561   7.473 -0.3824  0.4744  0.7051
  937MOL0     H23634   1.093   2.398   7.421 -0.2131 -0.4044  0.8118
  937MOL0     H23635   0.873   2.487   7.612  1.5050 -0.5970  1.6776
  937MOL0     H23636   0.908   2.315   7.578  0.4051 -1.3294 -2.2087
  937MOL0     H23637   0.860   2.188   7.344  1.1022 -0.6132  0.7069
  937MOL0     H23638   0.670   2.115   7.193 -1.2336 -0.0874  1.2480
  937MOL0     H23639   0.697   2.250   7.065 -1.0676  1.8672  0.5712
  937MOL0     H23640   0.465   2.295   7.091  0.2519 -2.1158 -1.5420
  937MOL0     H23641   0.456   2.220   7.260 -2.6397  1.3997 -0.1987
  937MOL0     H23642   0.499   2.052   7.009  0.6245 -1.2068  0.7595
  937MOL0     H23643   0.470   2.006   7.178 -3.4843 -0.8658 -0.1715
  937MOL0     H23644   0.277   2.126   6.986 -0.5143  0.2295  0.5080
  937MOL0     H23645   0.254   2.131   7.162 -3.2553 -0.5893  0.3392
  937MOL0     H23646   0.049   2.116   6.980 -2.6517  0.5315  2.8880
  937MOL0     H23647  -0.160   2.060   6.887  1.0660  0.2196 -1.6277
  937MOL0     H23648  -0.499   1.526   6.991  1.2694  1.5726  0.0710
  937MOL0     H23649  -0.721   1.472   6.910 -0.2901 -1.4339 -2.3549
  937MOL0     H23650  -0.962   1.559   6.931 -1.0905  1.0800  0.2069
  937MOL0     H23651  -0.925   1.435   6.816 -1.1006 -1.0065  2.4379
  937MOL0     H23652  -1.162   1.543   6.882  1.4195 -3.2722  1.0003
  937MOL0     H23653  -1.140   1.454   6.740  0.6735 -0.5617  2.8105
  937MOL0     H23654  -1.127   1.688   6.610 -0.4473  2.1717  0.1805
  937MOL0     H23655  -1.112   1.769   6.766  1.1136  0.6196 -0.2191
  937MOL0     H23656  -1.375   1.627   6.662 -0.6331  1.6077 -2.4003
  937MOL0     H23657  -1.355   1.677   6.833 -0.6276  0.5388 -0.0362
  937MOL0     H23658  -1.320   1.868   6.614  3.3955  1.4406  2.0643
  937MOL0     H23659  -1.333   1.896   6.791 -1.1537 -2.0807  2.0369
  937MOL0     H23660  -1.561   1.951   6.745 -0.2821 -0.1498 -0.2359
  937MOL0     H23661  -1.562   1.790   6.799 -0.8731 -1.4279 -1.3086
  937MOL0     H23662  -1.587   1.907   6.501  1.5102 -1.7012 -1.7956
  937MOL0     H23663  -1.563   1.732   6.537 -0.5695 -0.8935 -0.3084
  937MOL0     H23664  -1.775   1.724   6.654 -1.0763 -1.9928 -1.7357
  937MOL0     H23665  -1.810   1.793   6.501 -1.5812 -1.6258  1.1616
  937MOL0     H23666  -0.738   1.832   6.680  0.9918  0.9582  0.2869
  937MOL0     H23667  -0.509   1.891   6.741  3.6957 -0.7441  1.7551
  937MOL0     H23668  -0.101   1.652   7.004  0.9636  0.1186  2.3233
  937MOL0     H23669   0.144   1.723   7.077 -0.0176 -0.9453 -1.3711
  937MOL0     H23670   1.951   2.634   7.658 -0.1410 -0.9941  2.3063
  937MOL0     H23671   2.138   2.776   7.611 -0.1449  1.7616 -1.8073
  937MOL0     H23672   2.315   3.137   7.302 -3.8026  0.5423  0.7731
  937MOL0     H23673   2.499   3.288   7.278 -2.0068 -1.0882 -0.3579
  937MOL0     H23674   2.642   3.469   7.304 -0.7144 -0.3179 -0.0937
  937MOL0     H23675   2.735   3.315   7.321  0.0533 -0.4865  2.1364
  937MOL0     H23676   2.890   3.496   7.284 -0.9986  0.4375 -0.4641
  937MOL0     H23677   2.815   3.603   7.399 -0.6828 -0.1023  2.6109
  937MOL0     H23678   2.972   3.345   7.430 -0.5172 -1.2353  2.5775
  937MOL0     H23679   2.876   3.425   7.563 -1.8552 -0.1956 -1.1857
  937MOL0     H23680   3.135   3.482   7.543  1.5358 -0.6843 -2.2957
  937MOL0     H23681   3.091   3.581   7.400 -2.0542 -2.0800 -1.6508
  937MOL0     H23682   2.907   3.777   7.733  1.3862  3.1997 -2.1898
  937MOL0     H23683   2.494   3.377   7.696 -1.2280  1.2482 -0.8176
  937MOL0     H23684   2.301   3.246   7.714 -1.6951 -0.8388 -0.2955
  938MOL0     O23685  10.235   7.677   6.943 -0.3292  0.9059  0.2979
  938MOL0     C23686  10.281   7.700   6.832  0.5463 -0.8186 -0.2720
  938MOL0     O23687  10.208   7.742   6.722 -0.2478  0.5617  0.4356
  938MOL0     C23688  10.074   7.733   6.730 -0.5185  0.3880 -0.3824
  938MOL0     C23689  10.011   7.607   6.722  0.0042  0.2042 -0.4255
  938MOL0     C23690   9.868   7.607   6.735  0.0507 -1.0210  0.8851
  938MOL0     C23691   9.800   7.727   6.760  0.3655 -0.5605 -0.2112
  938MOL0     O23692   9.664   7.725   6.777 -0.4125 -0.1223 -0.0400
  938MOL0     C23693   9.593   7.808   6.691 -0.0562 -0.6513 -0.7195
  938MOL0     C23694   9.458   7.820   6.750  0.0636 -0.3893 -0.5756
  938MOL0     C23695   9.460   7.899   6.881  0.4687  0.2850 -0.1667
  938MOL0     C23696   9.315   7.924   6.931  0.1754  0.5150 -0.5443
  938MOL0     C23697   9.291   7.978   7.080  0.1836  0.1584 -0.0130
  938MOL0     C23698   9.387   7.905   7.168  0.0529  0.8790 -0.3540
  938MOL0     C23699   9.368   7.942   7.317  0.4434 -0.8261 -0.0484
  938MOL0     C23700   9.422   8.090   7.335 -0.2132  0.2076  0.3328
  938MOL0     N23701   9.431   8.129   7.476 -0.7571 -0.0339 -0.1546
  938MOL0     C23702   9.550   8.176   7.533  0.1729  0.5506  0.2559
  938MOL0     C23703   9.525   8.178   7.664 -0.0263 -0.0636 -0.9759
  938MOL0     C23704   9.634   8.197   7.769  0.0849 -0.3832 -0.8463
  938MOL0     C23705   9.776   8.149   7.750 -0.3491  0.2418 -0.3733
  938MOL0     C23706   9.779   7.993   7.735  0.9790  0.0411  0.0424
  938MOL0     C23707   9.923   7.946   7.706  0.5307  0.3684  1.1219
  938MOL0     O23708   9.998   7.929   7.828 -0.2364  0.3313  0.7025
  938MOL0     C23709  10.131   7.952   7.815  0.5024 -0.4158 -0.1070
  938MOL0     C23710  10.196   7.980   7.934 -0.5438 -0.4746  0.0220
  938MOL0     C23711  10.335   7.979   7.937 -0.6531  0.0903  0.7420
  938MOL0     C23712  10.421   7.958   7.817 -0.5169 -0.4078  0.1208
  938MOL0     C23713  10.568   7.955   7.831 -0.1910 -0.5120 -0.6871
  938MOL0     O23714  10.605   7.940   7.959 -0.0360  0.3320  0.2080
  938MOL0     C23715  10.727   7.898   8.004  0.2021  0.1782 -1.1190
  938MOL0     C23716  10.829   7.838   7.922 -0.3959 -0.7021 -0.0708
  938MOL0     C23717  10.950   7.807   7.982  0.3789  0.0927 -0.2693
  938MOL0     C23718  10.966   7.813   8.118  0.6415 -0.4241  0.8680
  938MOL0     O23719  11.097   7.789   8.150 -0.1701 -0.1907 -0.8234
  938MOL0     C23720  11.158   7.860   8.257  0.3477  0.6988 -0.4887
  938MOL0     C23721  11.296   7.805   8.289 -0.8482 -0.6050  0.0084
  938MOL0     C23722  11.418   7.843   8.198  0.4658  0.2782  0.0562
  938MOL0     C23723  11.392   7.796   8.046  0.3354  0.4816  0.1850
  938MOL0     C23724  11.520   7.739   7.987  1.3362 -0.4010  0.7073
  938MOL0     C23725  11.500   7.727   7.835 -0.4213 -0.8489 -0.1506
  938MOL0     C23726  11.634   7.690   7.774 -0.0597 -0.8754 -0.0030
  938MOL0     C23727  11.631   7.565   7.676  0.1454 -0.6410 -0.2705
  938MOL0    Cl23728  11.525   7.444   7.744  0.0670 -0.0382  0.0033
  938MOL0     C23729  10.862   7.870   8.201 -1.2841 -0.1913  0.4323
  938MOL0     C23730  10.746   7.897   8.141 -0.2787 -0.7798  0.2745
  938MOL0     O23731  10.640   7.959   7.729  0.1775  0.0606  0.5615
  938MOL0     C23732  10.350   7.949   7.695 -0.4612  0.0238  0.2688
  938MOL0     C23733  10.205   7.936   7.698 -0.4807 -0.9634  0.3955
  938MOL0     N23734   9.394   8.139   7.684 -0.5485  0.3272  0.5232
  938MOL0     N23735   9.334   8.121   7.574 -0.4875 -0.9086 -0.0292
  938MOL0     C23736   9.871   7.849   6.782 -0.5948 -0.3849 -0.1280
  938MOL0     C23737  10.006   7.850   6.749  0.0633 -0.2820 -0.3799
  938MOL0     C23738  10.422   7.712   6.814 -0.6277 -0.1003 -0.1580
  938MOL0     C23739  10.479   7.730   6.685 -0.3374  0.4260  0.1865
  938MOL0     C23740  10.613   7.761   6.670 -0.2733  0.2255  0.2127
  938MOL0     C23741  10.702   7.784   6.776 -0.7226 -0.5602  0.2248
  938MOL0     O23742  10.836   7.823   6.770  0.6196  0.3078  0.0113
  938MOL0     C23743  10.886   7.850   6.633 -0.2617 -0.5542 -0.2114
  938MOL0     C23744  11.007   7.939   6.631  0.1584 -0.1736 -0.2320
  938MOL0     C23745  11.120   7.889   6.720 -0.3031  0.9470 -0.2086
  938MOL0     C23746  11.245   7.980   6.718 -0.8606  0.3436  0.5871
  938MOL0     C23747  11.356   7.898   6.786  0.3243  0.5265 -0.3277
  938MOL0     C23748  11.425   7.821   6.843 -0.7458  0.3416 -0.2329
  938MOL0     C23749  10.649   7.763   6.908 -0.0163 -0.2821 -0.1935
  938MOL0     C23750  10.520   7.711   6.917  0.7386 -0.4604 -0.5209
  938MOL0     H23751  10.065   7.516   6.699 -0.2191  0.5705 -2.6500
  938MOL0     H23752   9.797   7.524   6.739  0.9421 -1.8670 -0.1000
  938MOL0     H23753   9.589   7.771   6.588  2.3490 -0.6824 -0.8527
  938MOL0     H23754   9.645   7.903   6.676  0.3870 -0.4609  1.6775
  938MOL0     H23755   9.436   7.716   6.774  1.7231 -0.2732  1.9122
  938MOL0     H23756   9.393   7.863   6.673 -1.0793 -1.7968 -0.4400
  938MOL0     H23757   9.499   7.996   6.848  1.0350  0.4496  0.9568
  938MOL0     H23758   9.520   7.842   6.953  0.7195  1.0151  0.2111
  938MOL0     H23759   9.263   7.997   6.869 -0.0382  1.5156  0.7812
  938MOL0     H23760   9.268   7.825   6.930 -1.0936  1.1041 -1.4243
  938MOL0     H23761   9.188   7.965   7.115 -0.1611  2.2795 -0.0841
  938MOL0     H23762   9.315   8.085   7.081  3.8711 -0.5425  1.4162
  938MOL0     H23763   9.494   7.924   7.161  1.0107 -3.0347  0.9865
  938MOL0     H23764   9.370   7.797   7.158  0.1064  1.0511 -2.7579
  938MOL0     H23765   9.267   7.930   7.356  0.9329  0.1286  1.6547
  938MOL0     H23766   9.436   7.884   7.381 -1.6614 -1.3749  1.8232
  938MOL0     H23767   9.354   8.160   7.285  1.2634  0.9160 -0.7207
  938MOL0     H23768   9.520   8.101   7.289  0.8930 -1.0605  2.2173
  938MOL0     H23769   9.645   8.206   7.491 -0.5491  1.2679 -0.9214
  938MOL0     H23770   9.605   8.145   7.861  2.0667 -1.6059 -0.8576
  938MOL0     H23771   9.638   8.305   7.783 -1.5780 -0.5340  1.5006
  938MOL0     H23772   9.820   8.171   7.848 -2.7844  0.3962  0.7494
  938MOL0     H23773   9.826   8.200   7.667  1.5637  1.3598  1.3665
  938MOL0     H23774   9.733   7.942   7.821  1.5886  0.8790  0.8913
  938MOL0     H23775   9.724   7.961   7.646  1.7704 -2.6567  0.4211
  938MOL0     H23776   9.969   8.018   7.638 -0.3657 -1.7694 -1.9853
  938MOL0     H23777   9.923   7.853   7.647  0.2860  0.7031  0.5906
  938MOL0     H23778  10.126   8.005   8.014  2.4346  0.9029  2.3829
  938MOL0     H23779  10.367   7.993   8.040 -0.7080 -3.6903  1.4189
  938MOL0     H23780  10.817   7.832   7.814 -0.9756  3.5409 -0.4074
  938MOL0     H23781  11.041   7.780   7.929  1.4593 -0.3155  1.6872
  938MOL0     H23782  11.105   7.854   8.353  0.9227 -0.0592 -0.2077
  938MOL0     H23783  11.169   7.963   8.223  0.9711  0.3041 -1.5140
  938MOL0     H23784  11.298   7.696   8.294 -0.7777 -0.8248 -3.1493
  938MOL0     H23785  11.313   7.839   8.392 -2.8323 -1.5230  0.6807
  938MOL0     H23786  11.505   7.800   8.249 -0.4861 -0.9088  0.7360
  938MOL0     H23787  11.428   7.952   8.197  0.8495  0.2616  0.8645
  938MOL0     H23788  11.322   7.712   8.039  0.5777  0.3523 -1.1101
  938MOL0     H23789  11.351   7.874   7.982 -2.9500 -0.6782  0.6861
  938MOL0     H23790  11.547   7.644   8.034  2.7943  0.6304  2.0936
  938MOL0     H23791  11.607   7.805   8.002  1.6041 -0.6329  0.1912
  938MOL0     H23792  11.467   7.821   7.788  0.8953 -0.7908 -0.9982
  938MOL0     H23793  11.423   7.658   7.798 -0.4179  0.3451 -2.5967
  938MOL0     H23794  11.680   7.777   7.725  1.0041 -0.4794  1.6302
  938MOL0     H23795  11.708   7.660   7.849  0.3337  0.0675  0.0010
  938MOL0     H23796  11.730   7.519   7.676 -0.2630 -1.6156  1.2683
  938MOL0     H23797  11.587   7.602   7.583  0.9780 -1.6078 -1.0702
  938MOL0     H23798  10.875   7.888   8.307 -0.4460 -0.9845  0.4757
  938MOL0     H23799  10.664   7.930   8.204 -0.9249  1.1722 -1.4727
  938MOL0     H23800  10.400   7.952   7.599  1.2424 -1.3743  1.0663
  938MOL0     H23801  10.167   7.929   7.597  1.4904  0.4152 -0.4953
  938MOL0     H23802   9.826   7.946   6.802 -0.7153 -0.8580  2.2285
  938MOL0     H23803  10.069   7.938   6.754  2.7855 -2.0522 -1.0590
  938MOL0     H23804  10.413   7.724   6.599 -0.6482  0.3955  0.4245
  938MOL0     H23805  10.641   7.781   6.567  0.3331  1.5444  0.6127
  938MOL0     H23806  10.807   7.892   6.569 -1.9351  1.0472  2.7003
  938MOL0     H23807  10.902   7.749   6.594 -2.6417 -2.0857  2.3508
  938MOL0     H23808  11.035   7.961   6.528  1.1646  0.1255  0.1006
  938MOL0     H23809  10.971   8.028   6.683 -0.5621 -1.8029  2.2490
  938MOL0     H23810  11.153   7.793   6.680 -2.1109 -0.2051  0.8899
  938MOL0     H23811  11.101   7.866   6.825  1.6452 -1.5355 -0.3260
  938MOL0     H23812  11.261   8.010   6.614 -1.8183  2.0048  0.8824
  938MOL0     H23813  11.237   8.072   6.777  0.1810  3.0692 -3.1564
  938MOL0     H23814  11.488   7.760   6.904 -2.7174  0.1426  1.7050
  938MOL0     H23815  10.705   7.793   6.996  1.1476 -0.0580 -0.9949
  938MOL0     H23816  10.483   7.690   7.016  1.4693  1.7549  0.2894
  939MOL0     O23817   3.666   3.336   7.159  0.1701  0.1533 -0.3747
  939MOL0     C23818   3.659   3.236   7.087 -0.1202 -0.8995 -0.1843
  939MOL0     O23819   3.556   3.150   7.071  1.0668 -0.4252 -0.1603
  939MOL0     C23820   3.440   3.148   7.141  0.4907  0.0041 -0.0995
  939MOL0     C23821   3.351   3.052   7.095  0.5465  0.0603 -0.1158
  939MOL0     C23822   3.234   3.022   7.162  0.3320  0.1373 -0.2480
  939MOL0     C23823   3.198   3.098   7.286  0.1123  0.3984  0.1180
  939MOL0     O23824   3.079   3.080   7.360 -0.4511 -0.1392 -0.0406
  939MOL0     C23825   2.980   3.000   7.300 -0.1811  0.1233 -0.3983
  939MOL0     C23826   2.841   3.016   7.363  1.1115 -0.2357 -0.1192
  939MOL0     C23827   2.756   2.907   7.306  0.1730  0.4625  0.0699
  939MOL0     C23828   2.598   2.937   7.328 -0.7662  0.1695 -0.3306
  939MOL0     C23829   2.540   2.858   7.452 -0.3681  0.4717  0.2775
  939MOL0     C23830   2.583   2.894   7.596 -0.0581 -0.3932  0.6227
  939MOL0     C23831   2.463   2.862   7.686 -0.1208 -0.3013 -0.2410
  939MOL0     C23832   2.497   2.920   7.829  0.2187  0.5044 -0.1743
  939MOL0     N23833   2.398   2.877   7.938 -0.2968 -0.0882  0.4058
  939MOL0     C23834   2.268   2.838   7.911 -0.2590  0.1355  0.4563
  939MOL0     C23835   2.203   2.859   8.026  0.0652  0.7267  0.9084
  939MOL0     C23836   2.056   2.850   8.053  0.0224 -0.1446  0.5956
  939MOL0     C23837   2.020   2.707   8.048  0.5582  0.3741 -0.4799
  939MOL0     C23838   1.870   2.692   8.083 -0.2236  0.3865  1.0853
  939MOL0     C23839   1.819   2.775   8.201 -0.3284 -0.2690 -0.3369
  939MOL0     O23840   1.705   2.718   8.263 -1.4872  0.6134  0.4297
  939MOL0     C23841   1.579   2.736   8.201 -1.6323  0.2088  0.2359
  939MOL0     C23842   1.473   2.686   8.271  0.5743  0.0181  0.0095
  939MOL0     C23843   1.345   2.687   8.220  0.2747  1.1095 -0.4008
  939MOL0     C23844   1.311   2.725   8.092 -0.4131 -0.1597  0.3929
  939MOL0     C23845   1.171   2.716   8.035  0.8845  0.2400  0.0541
  939MOL0     O23846   1.153   2.739   7.906  0.8070 -0.2887 -0.0405
  939MOL0     C23847   1.022   2.730   7.853 -0.1348 -0.3972  0.3550
  939MOL0     C23848   0.944   2.625   7.883  0.1928 -0.6632 -1.2666
  939MOL0     C23849   0.806   2.622   7.854  0.9944 -0.3203  0.7047
  939MOL0     C23850   0.738   2.724   7.782  0.2714 -0.2890 -0.8101
  939MOL0     O23851   0.608   2.723   7.760 -0.2755 -0.2024  0.2095
  939MOL0     C23852   0.567   2.589   7.735  0.8244 -0.3586  0.7623
  939MOL0     C23853   0.420   2.595   7.682 -0.2722 -0.4007 -0.5436
  939MOL0     C23854   0.365   2.455   7.638  0.4602 -0.1560 -0.4846
  939MOL0     C23855   0.242   2.478   7.551 -0.6422  0.9822  0.6563
  939MOL0     C23856   0.170   2.339   7.532  0.2612 -0.3025 -0.6004
  939MOL0     C23857   0.059   2.378   7.421 -0.0530 -0.3740  0.0658
  939MOL0     C23858  -0.030   2.255   7.379  0.3499 -0.2918 -0.7395
  939MOL0     C23859  -0.158   2.300   7.310 -0.4510  0.6358 -0.3684
  939MOL0    Cl23860  -0.267   2.166   7.274 -0.3377 -0.0171 -0.0985
  939MOL0     C23861   0.818   2.824   7.729 -0.2639  0.6141 -0.4615
  939MOL0     C23862   0.955   2.829   7.767 -0.3123 -0.8507 -0.0306
  939MOL0     O23863   1.084   2.689   8.113  0.5953  0.3495  0.1784
  939MOL0     C23864   1.420   2.797   8.028 -0.4500  0.9742  0.0403
  939MOL0     C23865   1.550   2.804   8.082  0.6577  0.1202 -0.3026
  939MOL0     N23866   2.281   2.915   8.118  0.5111 -0.1296  0.0018
  939MOL0     N23867   2.404   2.925   8.068 -0.3323  0.4366  1.0238
  939MOL0     C23868   3.282   3.208   7.322  0.4381  0.9756  0.4575
  939MOL0     C23869   3.397   3.228   7.248 -0.2226 -0.1126 -0.0719
  939MOL0     C23870   3.764   3.216   6.984 -0.1487 -0.6208  0.9639
  939MOL0     C23871   3.764   3.109   6.897  0.4747 -0.5621  0.6158
  939MOL0     C23872   3.880   3.096   6.801  0.7327 -0.3266  0.6927
  939MOL0     C23873   3.981   3.182   6.794  0.6746  0.1327  0.0075
  939MOL0     O23874   4.073   3.167   6.700 -0.6583  0.5948 -0.0712
  939MOL0     C23875   4.190   3.249   6.667  0.3629 -0.5537 -0.4128
  939MOL0     C23876   4.303   3.210   6.766  1.0542 -0.7530  0.1598
  939MOL0     C23877   4.435   3.271   6.712  0.7164 -0.6560 -0.3311
  939MOL0     C23878   4.495   3.229   6.571  0.1650  0.1979 -0.1600
  939MOL0     C23879   4.521   3.086   6.574  0.4503 -0.1526  0.4071
  939MOL0     C23880   4.539   2.972   6.586  0.2418 -0.0669 -0.3117
  939MOL0     C23881   3.979   3.282   6.886 -0.3183  0.0519  0.4763
  939MOL0     C23882   3.875   3.304   6.977 -0.0261 -0.2351  0.7666
  939MOL0     H23883   3.363   2.997   7.002 -0.7417 -0.7181  0.1459
  939MOL0     H23884   3.176   2.943   7.115  0.2470  0.6288 -0.9806
  939MOL0     H23885   3.008   2.896   7.322 -0.4981  0.5436  2.2444
  939MOL0     H23886   2.979   3.015   7.192  1.2373  0.2568 -0.4065
  939MOL0     H23887   2.795   3.109   7.328 -1.4074 -0.4721  2.2246
  939MOL0     H23888   2.852   3.013   7.471 -1.6985  0.9269  0.2810
  939MOL0     H23889   2.785   2.811   7.349  0.6701  0.6354  0.1249
  939MOL0     H23890   2.767   2.901   7.197 -3.3448  2.4496 -0.5550
  939MOL0     H23891   2.586   3.046   7.334  1.4528  0.4356  0.3434
  939MOL0     H23892   2.544   2.892   7.245 -1.2540  0.3312 -0.1059
  939MOL0     H23893   2.561   2.751   7.448 -0.7941  0.3684  0.7156
  939MOL0     H23894   2.432   2.865   7.436 -0.3884 -1.4177 -0.5567
  939MOL0     H23895   2.606   3.000   7.609 -1.7277 -0.1878  2.3611
  939MOL0     H23896   2.661   2.820   7.620 -2.7816 -3.3758  0.9548
  939MOL0     H23897   2.375   2.915   7.647  1.9762  0.7882 -4.0120
  939MOL0     H23898   2.444   2.755   7.695 -3.7375  0.3241  1.6343
  939MOL0     H23899   2.487   3.029   7.829 -2.5813  0.3026 -0.3090
  939MOL0     H23900   2.598   2.892   7.862  0.7825  1.3187 -1.1488
  939MOL0     H23901   2.227   2.810   7.815 -0.6058 -1.3488  1.0040
  939MOL0     H23902   1.993   2.899   7.978  3.1028  1.6257 -1.0293
  939MOL0     H23903   2.037   2.904   8.145 -1.1493  1.2467 -0.4198
  939MOL0     H23904   2.074   2.645   8.120 -1.1965  1.4901  1.9626
  939MOL0     H23905   2.040   2.656   7.954  2.3990 -0.6505  0.4104
  939MOL0     H23906   1.805   2.725   8.001 -2.6373 -0.1803  2.6496
  939MOL0     H23907   1.851   2.585   8.095  0.9165 -0.2547 -1.9380
  939MOL0     H23908   1.799   2.871   8.155  0.5041 -0.7536 -1.7660
  939MOL0     H23909   1.891   2.784   8.283 -0.1973 -1.2246 -0.3290
  939MOL0     H23910   1.493   2.648   8.370  0.5887  1.3274  0.5278
  939MOL0     H23911   1.262   2.649   8.278 -1.7053 -0.1399 -3.7614
  939MOL0     H23912   0.988   2.541   7.937  0.4168 -1.0467 -2.0329
  939MOL0     H23913   0.753   2.539   7.899  0.7625  0.2888  1.5781
  939MOL0     H23914   0.571   2.529   7.826  1.4666  0.7315  1.4731
  939MOL0     H23915   0.628   2.558   7.650 -0.1255  1.2745 -0.5943
  939MOL0     H23916   0.407   2.654   7.590  2.8797 -1.3277 -1.7181
  939MOL0     H23917   0.360   2.637   7.763  0.5424  0.8399 -0.5423
  939MOL0     H23918   0.328   2.390   7.717  1.2622 -0.4523 -0.3416
  939MOL0     H23919   0.447   2.408   7.583  2.4103  0.8626  1.3955
  939MOL0     H23920   0.172   2.543   7.605 -0.5310 -0.0145  2.0196
  939MOL0     H23921   0.271   2.524   7.455  0.7792  0.9702  1.0550
  939MOL0     H23922   0.119   2.314   7.625  2.4626 -0.9248  0.4866
  939MOL0     H23923   0.232   2.261   7.489 -1.3416 -0.7386 -2.2712
  939MOL0     H23924   0.096   2.429   7.332  0.4326  1.7632  1.4195
  939MOL0     H23925   0.000   2.447   7.483  0.1717 -0.2456  0.1361
  939MOL0     H23926   0.021   2.193   7.305 -0.6493  0.3942 -2.0352
  939MOL0     H23927  -0.047   2.197   7.470  1.9529  0.5934  0.1676
  939MOL0     H23928  -0.127   2.341   7.214 -0.4154  0.9946 -0.2037
  939MOL0     H23929  -0.198   2.379   7.375  1.5154 -0.3558  2.2617
  939MOL0     H23930   0.767   2.904   7.675 -0.5719  0.4911 -0.3517
  939MOL0     H23931   1.015   2.912   7.730 -3.3964  1.6335  0.1750
  939MOL0     H23932   1.419   2.842   7.929  3.1565 -2.4729 -1.8878
  939MOL0     H23933   1.626   2.845   8.015  0.9845 -2.4484 -1.6093
  939MOL0     H23934   3.249   3.286   7.390  0.1610  0.1890  1.2451
  939MOL0     H23935   3.455   3.311   7.287  1.2401 -2.3139  2.8641
  939MOL0     H23936   3.675   3.048   6.894  0.8572 -1.1500  0.9774
  939MOL0     H23937   3.875   3.029   6.716  1.4791 -0.4748  0.7647
  939MOL0     H23938   4.184   3.358   6.677  0.3785 -0.6606  1.0687
  939MOL0     H23939   4.221   3.230   6.564 -2.1313  1.5801 -1.6777
  939MOL0     H23940   4.282   3.253   6.864  0.2873 -0.8871  0.0559
  939MOL0     H23941   4.309   3.101   6.765 -2.4225 -1.0660  0.1658
  939MOL0     H23942   4.512   3.258   6.788 -0.3210  2.9224  1.5832
  939MOL0     H23943   4.423   3.380   6.714 -1.0508 -0.8422  0.4593
  939MOL0     H23944   4.436   3.259   6.484 -0.5628  2.0394  0.9080
  939MOL0     H23945   4.590   3.284   6.569  0.2286  0.0910 -0.0787
  939MOL0     H23946   4.573   2.874   6.612  2.5718  0.3743 -1.4149
  939MOL0     H23947   4.054   3.360   6.875  2.8398 -2.6312  1.2319
  939MOL0     H23948   3.875   3.401   7.024  2.5001  0.5071 -0.5694
  940MOL0     O23949   0.798   0.034   7.758  0.2426  0.1377  0.9211
  940MOL0     C23950   0.742  -0.034   7.667 -0.7624 -0.1220  0.1942
  940MOL0     O23951   0.802  -0.145   7.609  0.4302 -1.3256 -0.1834
  940MOL0     C23952   0.915  -0.186   7.671  0.2337  0.0204  0.1213
  940MOL0     C23953   0.905  -0.260   7.791  0.1267 -0.2616  0.4441
  940MOL0     C23954   1.022  -0.301   7.862 -0.3542 -0.5263 -0.0278
  940MOL0     C23955   1.150  -0.274   7.804  0.6518 -0.2370 -0.5886
  940MOL0     O23956   1.269  -0.327   7.857  1.1202 -0.7106  0.4532
  940MOL0     C23957   1.277  -0.328   7.992 -0.3888 -0.7063 -0.4579
  940MOL0     C23958   1.412  -0.361   8.051 -0.2648  0.2312 -0.3329
  940MOL0     C23959   1.455  -0.498   8.003  0.9691  0.3472  0.6993
  940MOL0     C23960   1.565  -0.544   8.102  0.4427  0.4096  0.5138
  940MOL0     C23961   1.618  -0.686   8.088  0.2328 -0.0223  0.8413
  940MOL0     C23962   1.709  -0.702   7.960 -0.3225 -0.4429 -0.9210
  940MOL0     C23963   1.726  -0.849   7.914  0.6311 -0.0551 -0.1817
  940MOL0     C23964   1.798  -0.933   8.018  0.1583  0.1381  0.0654
  940MOL0     N23965   1.833  -1.057   7.949 -0.2682  0.1339 -0.1133
  940MOL0     C23966   1.963  -1.098   7.920 -0.0506 -0.7579  0.4539
  940MOL0     C23967   1.968  -1.225   7.875  1.1899 -0.5951 -0.0241
  940MOL0     C23968   2.089  -1.302   7.827  0.4621 -0.3637  0.2063
  940MOL0     C23969   2.142  -1.398   7.944  0.2676  0.3685 -1.0327
  940MOL0     C23970   2.223  -1.516   7.891  0.5509  0.0623  0.9617
  940MOL0     C23971   2.155  -1.625   7.820  0.0641  0.6933 -0.8435
  940MOL0     O23972   2.118  -1.592   7.685 -0.0368  0.1956  0.4896
  940MOL0     C23973   2.029  -1.683   7.632  0.0894  0.1607  0.4982
  940MOL0     C23974   2.062  -1.810   7.586  0.1251  0.2500 -0.8220
  940MOL0     C23975   1.962  -1.899   7.552  0.0733  0.2262 -0.8131
  940MOL0     C23976   1.825  -1.863   7.552  0.2316 -0.0881  0.6658
  940MOL0     C23977   1.713  -1.962   7.510  0.4607 -0.5982  0.5729
  940MOL0     O23978   1.745  -2.080   7.464 -0.3168  0.7574 -0.2227
  940MOL0     C23979   1.650  -2.159   7.390 -0.1601 -0.7913 -0.1926
  940MOL0     C23980   1.679  -2.295   7.385 -0.0249 -0.6891 -0.2063
  940MOL0     C23981   1.600  -2.376   7.307 -0.4609  0.3102  0.1624
  940MOL0     C23982   1.503  -2.329   7.219  0.2736 -0.5624  0.6429
  940MOL0     O23983   1.429  -2.414   7.146 -0.0477 -0.0709 -0.3103
  940MOL0     C23984   1.374  -2.362   7.027 -0.2401  0.7143 -0.1219
  940MOL0     C23985   1.310  -2.485   6.958 -0.2097 -0.4575  0.0849
  940MOL0     C23986   1.175  -2.516   7.018  0.6718 -0.9358 -0.3584
  940MOL0     C23987   1.109  -2.640   6.947 -0.6035  1.0953 -0.7337
  940MOL0     C23988   0.978  -2.615   6.876 -0.3489 -0.0387  0.5139
  940MOL0     C23989   0.998  -2.528   6.755 -1.1534 -0.2205 -0.2684
  940MOL0     C23990   0.869  -2.465   6.700 -0.3756 -0.1714 -0.5267
  940MOL0     C23991   0.798  -2.377   6.800  0.2336 -0.6507  0.1738
  940MOL0    Cl23992   0.924  -2.270   6.881  0.0381  0.1690  0.5694
  940MOL0     C23993   1.479  -2.189   7.221 -0.1523  0.4343  0.6005
  940MOL0     C23994   1.548  -2.104   7.309 -0.0177 -0.5476 -0.1444
  940MOL0     O23995   1.597  -1.908   7.517  0.5329  0.2411  0.6274
  940MOL0     C23996   1.796  -1.724   7.592  0.4730 -0.0812 -0.8278
  940MOL0     C23997   1.897  -1.640   7.626  0.2509 -0.0273  0.4115
  940MOL0     N23998   1.836  -1.257   7.863 -0.0096 -0.9189  0.6306
  940MOL0     N23999   1.753  -1.160   7.902  0.0076 -0.5504  0.7933
  940MOL0     C24000   1.152  -0.206   7.683 -0.4144  0.1616 -0.2464
  940MOL0     C24001   1.040  -0.169   7.615  0.5108 -0.1704  0.3100
  940MOL0     C24002   0.627   0.034   7.601 -0.0043  0.6668 -0.2319
  940MOL0     C24003   0.561   0.146   7.666  0.3481 -0.3379  0.3050
  940MOL0     C24004   0.443   0.201   7.612 -0.5983 -1.1182  0.7193
  940MOL0     C24005   0.389   0.149   7.497  0.7379 -0.1883  0.1499
  940MOL0     O24006   0.265   0.204   7.454  0.0704  0.0103  0.1981
  940MOL0     C24007   0.192   0.160   7.340  0.0284  0.1726  0.2538
  940MOL0     C24008   0.277   0.198   7.205 -0.1870 -0.0678 -0.4173
  940MOL0     C24009   0.261   0.344   7.158  0.2474  0.4417 -0.0428
  940MOL0     C24010   0.247   0.442   7.277 -0.9705 -0.2372 -0.3164
  940MOL0     C24011   0.233   0.582   7.241 -0.0811 -0.3766 -0.2977
  940MOL0     C24012   0.234   0.694   7.189  0.6824  0.2568 -0.8019
  940MOL0     C24013   0.441   0.033   7.451 -0.4255 -0.2295 -0.2503
  940MOL0     C24014   0.559  -0.023   7.491  1.3568  0.1075 -0.2792
  940MOL0     H24015   0.802  -0.279   7.823 -0.1233  2.1216  1.2170
  940MOL0     H24016   0.993  -0.361   7.947  0.8942 -0.0880  0.7453
  940MOL0     H24017   1.200  -0.394   8.033 -0.3829 -0.1279  0.5152
  940MOL0     H24018   1.259  -0.232   8.041  1.6959 -0.9499  0.9363
  940MOL0     H24019   1.401  -0.362   8.160  1.0167 -0.3371 -0.1937
  940MOL0     H24020   1.490  -0.288   8.027  1.2153 -0.3661  2.2433
  940MOL0     H24021   1.499  -0.497   7.903  0.8491 -0.5028  0.6257
  940MOL0     H24022   1.367  -0.564   8.007  0.2818  1.2380  0.5298
  940MOL0     H24023   1.649  -0.475   8.090  0.8906 -0.2025  0.0146
  940MOL0     H24024   1.530  -0.526   8.204  0.8271  0.9229  0.5569
  940MOL0     H24025   1.546  -0.767   8.074  0.0840  0.1102  0.8449
  940MOL0     H24026   1.690  -0.704   8.169  0.7754  2.5549  1.0285
  940MOL0     H24027   1.807  -0.660   7.982 -0.9336  0.5057  0.1141
  940MOL0     H24028   1.676  -0.649   7.870  0.4497  1.8141  0.0594
  940MOL0     H24029   1.627  -0.889   7.890 -1.0166  2.3797  2.0375
  940MOL0     H24030   1.797  -0.848   7.831  1.4857 -0.6720  0.5203
  940MOL0     H24031   1.733  -0.947   8.105  1.9940  0.1931  1.5056
  940MOL0     H24032   1.888  -0.878   8.047 -0.5214  1.3566 -0.0662
  940MOL0     H24033   2.055  -1.044   7.938 -0.0973 -0.9645  1.3480
  940MOL0     H24034   2.162  -1.225   7.798 -0.4038  0.5119  0.3187
  940MOL0     H24035   2.065  -1.348   7.731  1.2603  3.5632 -2.1049
  940MOL0     H24036   2.053  -1.448   7.982  0.2607  0.9711 -0.2236
  940MOL0     H24037   2.192  -1.341   8.024 -0.1654 -2.2627  1.2538
  940MOL0     H24038   2.302  -1.482   7.822 -0.8105  0.7081 -0.3435
  940MOL0     H24039   2.275  -1.553   7.980  0.5578  2.8057  2.1963
  940MOL0     H24040   2.074  -1.666   7.881  1.5406 -2.0439 -0.5740
  940MOL0     H24041   2.222  -1.709   7.801  2.0333  2.0562 -0.2783
  940MOL0     H24042   2.167  -1.838   7.580  0.9947  3.1393 -0.7497
  940MOL0     H24043   1.995  -2.001   7.533  0.9650  0.0841  1.2486
  940MOL0     H24044   1.769  -2.328   7.435 -0.5387 -0.9691  0.5553
  940MOL0     H24045   1.582  -2.483   7.316 -2.4795  0.6076  0.0119
  940MOL0     H24046   1.456  -2.320   6.968 -0.4482 -0.9785 -1.7170
  940MOL0     H24047   1.303  -2.281   7.047  0.6448  1.9515 -1.6538
  940MOL0     H24048   1.381  -2.567   6.973 -0.5057 -0.5625  0.9102
  940MOL0     H24049   1.313  -2.453   6.853  1.1080 -2.0621 -0.4163
  940MOL0     H24050   1.110  -2.429   7.006  2.0892  0.5073  1.7454
  940MOL0     H24051   1.190  -2.537   7.124  5.3489  1.4821 -0.2470
  940MOL0     H24052   1.175  -2.678   6.868 -0.6594 -0.4979 -0.0403
  940MOL0     H24053   1.097  -2.723   7.016 -0.1872 -0.3482 -2.3285
  940MOL0     H24054   0.907  -2.571   6.946 -0.9395  1.4527 -0.9450
  940MOL0     H24055   0.940  -2.710   6.837 -0.7633 -0.1277  1.1214
  940MOL0     H24056   1.046  -2.589   6.678  2.1505  1.2409  0.4415
  940MOL0     H24057   1.079  -2.455   6.769  0.2903 -1.5729 -1.2191
  940MOL0     H24058   0.900  -2.416   6.607  2.0158 -1.3750 -0.4405
  940MOL0     H24059   0.800  -2.546   6.673 -0.4710 -0.3753  0.3179
  940MOL0     H24060   0.735  -2.429   6.873  1.7284 -1.0356  1.2313
  940MOL0     H24061   0.733  -2.316   6.736  1.0060 -1.7486 -1.7397
  940MOL0     H24062   1.415  -2.129   7.157  0.9824  1.6691  0.5983
  940MOL0     H24063   1.531  -1.997   7.301 -0.8272 -0.5772  1.0251
  940MOL0     H24064   1.693  -1.689   7.597  1.0910  1.6487  0.6281
  940MOL0     H24065   1.855  -1.546   7.661  0.1486 -1.0315  3.1494
  940MOL0     H24066   1.244  -0.202   7.626 -0.7647 -1.7285 -1.0128
  940MOL0     H24067   1.048  -0.131   7.514 -2.7766 -0.1175 -0.0320
  940MOL0     H24068   0.603   0.189   7.756  1.5795  0.6990 -0.7298
  940MOL0     H24069   0.395   0.288   7.655  0.9549 -0.0219  0.2937
  940MOL0     H24070   0.094   0.207   7.352 -0.0343 -0.5113  3.1153
  940MOL0     H24071   0.186   0.050   7.336  3.5614 -0.1115 -1.1071
  940MOL0     H24072   0.383   0.184   7.226 -0.8326 -1.1837  2.7173
  940MOL0     H24073   0.256   0.128   7.124  0.3921 -2.2742  1.2298
  940MOL0     H24074   0.166   0.347   7.104 -0.2186  2.0714  0.7907
  940MOL0     H24075   0.343   0.378   7.095  2.5009  0.6889  2.8081
  940MOL0     H24076   0.171   0.418   7.352  0.6897  0.5643  1.7076
  940MOL0     H24077   0.338   0.429   7.335  0.6231 -0.6698 -2.7637
  940MOL0     H24078   0.236   0.792   7.148  2.3630  0.2981 -0.6957
  940MOL0     H24079   0.386  -0.030   7.381  0.6631  0.6403 -1.9469
  940MOL0     H24080   0.596  -0.116   7.450 -0.1691 -0.7222  0.1591
  941MOL0     O24081   1.265   4.168   4.602  0.1200  0.0453 -0.5372
  941MOL0     C24082   1.311   4.077   4.541  0.0084  0.5173  0.1095
  941MOL0     O24083   1.256   3.953   4.531  0.2351 -0.7627 -0.5416
  941MOL0     C24084   1.119   3.958   4.522  0.7875 -1.0506 -0.4768
  941MOL0     C24085   1.044   3.887   4.624 -0.1883 -0.0318 -0.7942
  941MOL0     C24086   0.903   3.888   4.612 -0.0502 -0.0251  0.0601
  941MOL0     C24087   0.833   3.973   4.522  0.1440 -0.4849  0.4998
  941MOL0     O24088   0.696   3.961   4.516 -0.0553  0.1691  0.0486
  941MOL0     C24089   0.619   4.031   4.419  1.0629 -0.5219  0.8687
  941MOL0     C24090   0.477   3.978   4.419 -0.2434  0.8999 -1.3434
  941MOL0     C24091   0.401   4.029   4.543 -0.5140 -0.3879 -0.0914
  941MOL0     C24092   0.251   3.982   4.564 -0.6133  0.2809 -0.1775
  941MOL0     C24093   0.176   4.047   4.680 -0.3084 -0.5086  0.1255
  941MOL0     C24094   0.172   4.200   4.686 -0.2481  0.3588  0.5393
  941MOL0     C24095   0.129   4.263   4.554  0.3750 -0.2420  0.4341
  941MOL0     C24096   0.119   4.412   4.551 -0.9284  0.0706  0.2972
  941MOL0     N24097  -0.017   4.465   4.583 -0.2950  0.2121  0.3894
  941MOL0     C24098  -0.101   4.442   4.690 -0.6193  0.4976  0.2333
  941MOL0     C24099  -0.212   4.503   4.654  1.1440 -0.6371  1.0592
  941MOL0     C24100  -0.338   4.495   4.736  0.0421 -0.3276 -0.2895
  941MOL0     C24101  -0.452   4.458   4.640  0.6250 -0.1240 -0.5256
  941MOL0     C24102  -0.435   4.339   4.550  0.3827  0.3548  1.0774
  941MOL0     C24103  -0.564   4.318   4.459 -0.3328  0.4350 -0.5529
  941MOL0     O24104  -0.682   4.288   4.547  0.5759 -0.1076  0.3565
  941MOL0     C24105  -0.809   4.279   4.491 -0.1795  0.3446 -0.3353
  941MOL0     C24106  -0.855   4.327   4.370  0.2314  0.1005  0.1053
  941MOL0     C24107  -0.983   4.312   4.332  0.2880  0.6747  0.4251
  941MOL0     C24108  -1.080   4.249   4.411 -0.7607  0.0865 -0.2574
  941MOL0     C24109  -1.221   4.228   4.365 -0.5290  0.3960  0.0602
  941MOL0     O24110  -1.308   4.151   4.437 -0.0245 -0.2692  0.4304
  941MOL0     C24111  -1.422   4.100   4.381 -0.3461 -0.7309 -0.3994
  941MOL0     C24112  -1.527   4.175   4.348  0.4231  0.8728 -0.6842
  941MOL0     C24113  -1.643   4.124   4.291  0.4305  0.7901  0.0209
  941MOL0     C24114  -1.644   3.984   4.264 -0.0434 -0.2341  0.4497
  941MOL0     O24115  -1.754   3.909   4.214 -0.1326 -0.4419 -0.4570
  941MOL0     C24116  -1.875   3.981   4.180 -0.1006 -0.5503 -0.4944
  941MOL0     C24117  -1.942   3.912   4.070 -0.4342 -0.0205 -0.3574
  941MOL0     C24118  -1.989   3.774   4.132  0.5303 -0.4568 -0.1200
  941MOL0     C24119  -2.092   3.699   4.044 -0.6908  0.4144 -0.7122
  941MOL0     C24120  -2.183   3.611   4.124 -0.2534 -0.3068 -0.3882
  941MOL0     C24121  -2.108   3.482   4.168 -0.6745  0.7947  0.0765
  941MOL0     C24122  -2.197   3.379   4.253  0.0929 -1.1169  0.0192
  941MOL0     C24123  -2.119   3.249   4.276 -0.3264 -0.1426 -0.6859
  941MOL0    Cl24124  -2.242   3.128   4.313 -0.0856 -0.0891 -0.0823
  941MOL0     C24125  -1.529   3.910   4.297 -0.6601 -0.3614 -0.1773
  941MOL0     C24126  -1.425   3.968   4.355  0.3114 -0.1967 -0.8838
  941MOL0     O24127  -1.241   4.260   4.252 -0.4767  0.4729  0.2057
  941MOL0     C24128  -1.036   4.193   4.530  0.0515 -0.5323  0.1370
  941MOL0     C24129  -0.901   4.211   4.570 -0.4217  0.1126  0.3898
  941MOL0     N24130  -0.193   4.585   4.542 -0.9514  0.0802 -0.3841
  941MOL0     N24131  -0.081   4.547   4.491  0.7288 -0.4687  0.3675
  941MOL0     C24132   0.911   4.045   4.427  0.3441 -0.2846  0.0815
  941MOL0     C24133   1.051   4.033   4.426  0.6288 -0.4803 -0.0379
  941MOL0     C24134   1.456   4.080   4.503  0.2003 -0.6905  0.7677
  941MOL0     C24135   1.523   3.960   4.468  0.3383  0.2489 -0.0434
  941MOL0     C24136   1.651   3.965   4.412  0.1190  0.6727 -0.0774
  941MOL0     C24137   1.721   4.090   4.414 -0.9302  0.1093 -0.8798
  941MOL0     O24138   1.852   4.094   4.355  0.4879  0.2368 -0.0081
  941MOL0     C24139   1.923   4.217   4.359 -1.0751  0.5072 -0.4903
  941MOL0     C24140   2.070   4.182   4.322  1.1187  0.9903  1.1574
  941MOL0     C24141   2.128   4.294   4.226  0.8885 -0.6148  0.1797
  941MOL0     C24142   2.085   4.287   4.077  0.4003 -0.0510  0.0395
  941MOL0     C24143   2.128   4.158   4.021  0.2427 -0.0010 -0.5409
  941MOL0     C24144   2.189   4.061   3.973 -0.1976  0.4611 -0.0794
  941MOL0     C24145   1.649   4.208   4.436 -0.4409 -0.6454  0.2981
  941MOL0     C24146   1.517   4.204   4.481  0.0236 -0.0473 -0.1533
  941MOL0     H24147   1.105   3.839   4.700 -0.9414  2.1210  1.3046
  941MOL0     H24148   0.840   3.839   4.686 -1.4008  4.1236  1.9571
  941MOL0     H24149   0.662   4.028   4.319 -0.5555  3.1784 -0.1270
  941MOL0     H24150   0.623   4.138   4.441 -0.5045 -0.4200  0.7778
  941MOL0     H24151   0.474   3.869   4.412 -0.6485  0.3322  3.8276
  941MOL0     H24152   0.422   4.011   4.330  0.7831  1.5569 -1.7545
  941MOL0     H24153   0.412   4.137   4.528  2.4742 -0.7673 -1.4723
  941MOL0     H24154   0.455   4.009   4.636  1.2304 -1.0146 -1.1857
  941MOL0     H24155   0.195   3.982   4.470 -1.3431 -0.1772  0.2553
  941MOL0     H24156   0.259   3.879   4.599  3.5270  0.9900  1.5473
  941MOL0     H24157   0.222   4.004   4.769 -0.7833  0.3495  0.8015
  941MOL0     H24158   0.074   4.013   4.665 -0.7500  0.8498 -0.1194
  941MOL0     H24159   0.271   4.243   4.707 -0.8425  0.6364  3.0437
  941MOL0     H24160   0.111   4.239   4.767 -0.2585  2.8702 -0.5854
  941MOL0     H24161   0.190   4.225   4.472 -0.6874 -2.1657  0.4883
  941MOL0     H24162   0.030   4.218   4.539 -0.2765  1.4341 -0.6089
  941MOL0     H24163   0.154   4.448   4.454  3.2338 -1.0478  1.1857
  941MOL0     H24164   0.190   4.440   4.629  0.9162 -3.6257  0.1600
  941MOL0     H24165  -0.085   4.379   4.776 -1.0107  0.3706  0.2121
  941MOL0     H24166  -0.359   4.588   4.789  2.8174  0.0235  0.3514
  941MOL0     H24167  -0.319   4.423   4.816 -0.5933 -2.0828 -1.6510
  941MOL0     H24168  -0.462   4.550   4.583 -1.1571  1.1715  1.7179
  941MOL0     H24169  -0.540   4.443   4.703 -0.4261  0.6564 -1.7584
  941MOL0     H24170  -0.349   4.359   4.485  1.1427 -2.7328  0.9766
  941MOL0     H24171  -0.422   4.253   4.615  2.0237  0.6048  1.1063
  941MOL0     H24172  -0.537   4.228   4.403  1.0161  0.1651  0.4795
  941MOL0     H24173  -0.585   4.410   4.404 -0.9747  1.0318  0.6613
  941MOL0     H24174  -0.788   4.387   4.308  0.1476  0.2583  0.1668
  941MOL0     H24175  -1.006   4.342   4.230 -0.0142  0.8616  0.5478
  941MOL0     H24176  -1.523   4.282   4.369 -1.8143  0.6562  1.1652
  941MOL0     H24177  -1.728   4.187   4.268 -1.0748 -0.0242  2.9127
  941MOL0     H24178  -1.844   4.072   4.127  1.5910 -0.9304 -0.2124
  941MOL0     H24179  -1.938   4.003   4.267  1.2564  0.7604  0.2147
  941MOL0     H24180  -1.869   3.889   3.992 -0.1691  1.0484 -0.4492
  941MOL0     H24181  -2.019   3.964   4.013 -1.3701  0.1305  0.9939
  941MOL0     H24182  -2.034   3.791   4.231  0.7444 -2.4283  0.3592
  941MOL0     H24183  -1.910   3.705   4.161  0.5916 -0.2087  0.3221
  941MOL0     H24184  -2.150   3.767   3.981 -2.3458 -0.4298 -0.1472
  941MOL0     H24185  -2.038   3.637   3.972  2.2583  1.7352  0.2142
  941MOL0     H24186  -2.271   3.588   4.064 -0.2146  0.2482 -0.6602
  941MOL0     H24187  -2.217   3.662   4.214  1.2901  0.8022 -0.3904
  941MOL0     H24188  -2.025   3.515   4.231 -0.0387  1.6121 -1.1397
  941MOL0     H24189  -2.058   3.431   4.086 -2.6957 -1.3181  0.0684
  941MOL0     H24190  -2.232   3.434   4.340  1.6436  0.7573 -0.4827
  941MOL0     H24191  -2.288   3.354   4.197 -1.2405  0.7544  1.2563
  941MOL0     H24192  -2.048   3.267   4.358 -1.3058 -0.0353  0.1557
  941MOL0     H24193  -2.069   3.212   4.186  0.8924 -2.7718  0.9542
  941MOL0     H24194  -1.523   3.807   4.264 -1.2073 -0.6784  0.6767
  941MOL0     H24195  -1.331   3.915   4.367  0.1239 -0.2449  0.4687
  941MOL0     H24196  -1.105   4.142   4.597  1.2301 -1.7708  0.4709
  941MOL0     H24197  -0.863   4.160   4.658  3.0735  0.0741 -1.0137
  941MOL0     H24198   0.867   4.112   4.353  0.4656 -1.6965 -1.3195
  941MOL0     H24199   1.105   4.101   4.361 -0.0869  1.0395  0.8863
  941MOL0     H24200   1.472   3.864   4.473 -1.8257  1.3086 -0.6774
  941MOL0     H24201   1.715   3.891   4.365 -0.0278  2.0538 -2.6282
  941MOL0     H24202   1.917   4.252   4.463 -1.5286 -1.1072  0.0576
  941MOL0     H24203   1.882   4.289   4.287 -1.1412 -1.1013 -2.1280
  941MOL0     H24204   2.121   4.172   4.419  2.8218  1.8828  0.3987
  941MOL0     H24205   2.080   4.085   4.272  2.1940  2.0567 -0.7933
  941MOL0     H24206   2.237   4.290   4.219  0.9746 -1.0059  1.5057
  941MOL0     H24207   2.080   4.384   4.264  2.3963 -0.1781  1.0932
  941MOL0     H24208   1.980   4.315   4.061 -0.3410 -2.4112  0.3170
  941MOL0     H24209   2.141   4.367   4.028  0.8284  1.8822  3.3910
  941MOL0     H24210   2.250   3.985   3.929 -0.3264  1.0259 -1.2617
  941MOL0     H24211   1.708   4.300   4.430  3.1752 -2.8329 -3.0805
  941MOL0     H24212   1.456   4.292   4.498 -5.2764 -2.5983 -3.0513
  942MOL0     O24213   5.319   9.785   0.474 -0.1878 -0.1453  0.1115
  942MOL0     C24214   5.318   9.863   0.576  0.0615  0.4174  0.2015
  942MOL0     O24215   5.429   9.918   0.629  0.0416 -0.0983 -0.0078
  942MOL0     C24216   5.557   9.894   0.568  0.0404  0.3589 -1.4023
  942MOL0     C24217   5.595   9.887   0.435 -0.2621  1.3327  0.7941
  942MOL0     C24218   5.722   9.862   0.393 -0.6143 -0.9106  0.1029
  942MOL0     C24219   5.819   9.857   0.495  0.0312  0.0244 -0.0640
  942MOL0     O24220   5.947   9.848   0.452  1.0623 -0.1301  0.0258
  942MOL0     C24221   6.049   9.805   0.541 -0.0317  0.7120 -0.0143
  942MOL0     C24222   6.184   9.817   0.458 -0.0998  0.5512 -0.5189
  942MOL0     C24223   6.303   9.785   0.545 -0.5451  0.0008  0.3362
  942MOL0     C24224   6.435   9.824   0.480 -0.0357  0.7605 -0.7131
  942MOL0     C24225   6.546   9.781   0.576 -0.4816 -0.0309  0.4820
  942MOL0     C24226   6.557   9.879   0.700 -1.4680  0.8236  0.4950
  942MOL0     C24227   6.693   9.907   0.765  0.3417  0.8162  0.0725
  942MOL0     C24228   6.802   9.968   0.670  0.4814  0.2835 -0.6087
  942MOL0     N24229   6.758  10.100   0.623  0.1946 -0.0508  0.0073
  942MOL0     C24230   6.730  10.211   0.710  0.5722  0.4318  0.3927
  942MOL0     C24231   6.700  10.304   0.620 -0.5490  0.5790 -0.3280
  942MOL0     C24232   6.661  10.447   0.633  0.1337  0.6527 -0.1524
  942MOL0     C24233   6.510  10.463   0.614 -0.2540 -0.0356 -0.0224
  942MOL0     C24234   6.468  10.494   0.475  0.3373  0.5530  0.6566
  942MOL0     C24235   6.323  10.465   0.436  0.7376 -0.0987 -0.7779
  942MOL0     O24236   6.231  10.512   0.533 -0.1326 -0.0246 -0.3916
  942MOL0     C24237   6.099  10.540   0.501  0.0653 -0.1417 -0.0394
  942MOL0     C24238   6.041  10.496   0.376 -0.4485 -0.2985 -0.1383
  942MOL0     C24239   5.907  10.520   0.349 -0.1108 -0.1919  0.2085
  942MOL0     C24240   5.819  10.566   0.450  0.6018  1.1553  0.3878
  942MOL0     C24241   5.671  10.580   0.424 -0.1798  0.0233  0.1107
  942MOL0     O24242   5.639  10.608   0.292  0.4775  1.3287 -0.2366
  942MOL0     C24243   5.517  10.636   0.238 -0.0257 -0.2058 -0.3287
  942MOL0     C24244   5.509  10.689   0.104 -0.4155  0.5586  0.4280
  942MOL0     C24245   5.384  10.720   0.044 -0.5348 -0.5305 -0.2916
  942MOL0     C24246   5.264  10.696   0.112  0.6410  0.2486  0.5577
  942MOL0     O24247   5.151  10.731   0.040 -0.4809 -0.0271 -0.3674
  942MOL0     C24248   5.028  10.670   0.077 -0.0279 -0.8377 -0.3039
  942MOL0     C24249   4.923  10.772   0.038  0.0767  0.3343  0.0429
  942MOL0     C24250   4.779  10.718   0.075 -0.4353 -0.4982  0.2438
  942MOL0     C24251   4.764  10.719   0.226  0.4795  0.2017  0.3669
  942MOL0     C24252   4.613  10.724   0.261 -0.7285  0.4367  0.4541
  942MOL0     C24253   4.595  10.722   0.417 -1.4135 -0.0011  0.2311
  942MOL0     C24254   4.451  10.686   0.466  0.2656 -0.5978  0.2933
  942MOL0     C24255   4.363  10.810   0.488 -0.0430  0.4990  0.6694
  942MOL0    Cl24256   4.417  10.918   0.627  0.3084  0.0467 -0.1106
  942MOL0     C24257   5.268  10.647   0.241 -0.8159 -0.2616  0.4744
  942MOL0     C24258   5.390  10.611   0.303  0.0243 -0.3690 -0.0475
  942MOL0     O24259   5.593  10.572   0.521  0.0851 -0.2365  0.1403
  942MOL0     C24260   5.875  10.604   0.576 -0.5493 -0.5094  0.8694
  942MOL0     C24261   6.015  10.584   0.595  0.9350  0.3024 -0.3160
  942MOL0     N24262   6.703  10.260   0.485 -0.4108  0.2126 -0.2585
  942MOL0     N24263   6.749  10.137   0.492  0.3525  0.0989  0.5298
  942MOL0     C24264   5.788   9.859   0.627  0.1127  0.1410 -0.3729
  942MOL0     C24265   5.654   9.869   0.665  0.8938  0.0272  0.3920
  942MOL0     C24266   5.192   9.903   0.629 -0.1276 -0.0627  0.1264
  942MOL0     C24267   5.075   9.857   0.569  0.7390 -0.5783 -0.0063
  942MOL0     C24268   4.948   9.893   0.614  0.4705 -0.3853 -0.9189
  942MOL0     C24269   4.931   9.966   0.733 -0.3985  0.5018  0.4038
  942MOL0     O24270   4.807  10.000   0.791  0.4593  0.1561  0.6701
  942MOL0     C24271   4.685   9.942   0.741  0.7118 -0.0100 -0.5337
  942MOL0     C24272   4.611  10.007   0.628  0.3650  0.1231  0.3843
  942MOL0     C24273   4.577  10.153   0.667 -0.0494 -0.8708  0.4762
  942MOL0     C24274   4.507  10.209   0.541 -0.1881 -0.2050 -0.8666
  942MOL0     C24275   4.604  10.291   0.468 -0.4667  0.5067  0.2360
  942MOL0     C24276   4.652  10.371   0.388  0.0177 -0.3421  0.9082
  942MOL0     C24277   5.048  10.018   0.798 -0.3573 -0.3359 -0.9094
  942MOL0     C24278   5.172   9.986   0.743  0.6225 -0.6900  0.2578
  942MOL0     H24279   5.518   9.913   0.362  0.1043 -0.2166 -0.1891
  942MOL0     H24280   5.746   9.849   0.288 -3.3534  0.1750 -0.7390
  942MOL0     H24281   6.056   9.698   0.563  1.1539  0.6526 -0.6048
  942MOL0     H24282   6.068   9.866   0.630  0.4842 -0.1622  0.4888
  942MOL0     H24283   6.209   9.921   0.437  0.1207  0.8057  0.8701
  942MOL0     H24284   6.188   9.755   0.368  1.6566 -3.4566  2.0187
  942MOL0     H24285   6.298   9.681   0.578  1.4690  0.0885  1.0321
  942MOL0     H24286   6.297   9.846   0.636  0.0884  0.5835 -0.0033
  942MOL0     H24287   6.474   9.776   0.390 -0.3885  1.6747 -1.3716
  942MOL0     H24288   6.430   9.932   0.459  1.0370  0.8373 -0.6134
  942MOL0     H24289   6.638   9.798   0.520 -1.3876  2.4142 -0.4154
  942MOL0     H24290   6.529   9.677   0.605 -2.4221  0.3870  1.0081
  942MOL0     H24291   6.491   9.835   0.776 -0.1675 -0.4638  0.9369
  942MOL0     H24292   6.518   9.975   0.668 -4.3793 -0.3988  0.0309
  942MOL0     H24293   6.682   9.972   0.853  0.3297  0.1172  0.6004
  942MOL0     H24294   6.734   9.813   0.803  1.0811  0.6411 -1.1439
  942MOL0     H24295   6.814   9.905   0.581 -2.9657  1.0048 -1.7403
  942MOL0     H24296   6.894   9.971   0.729 -1.0764  0.5587  1.9453
  942MOL0     H24297   6.725  10.217   0.818  0.5040 -0.5559  0.4625
  942MOL0     H24298   6.709  10.498   0.549 -1.5443  0.0513 -1.5270
  942MOL0     H24299   6.692  10.489   0.729  0.6647  1.3182 -0.6030
  942MOL0     H24300   6.468  10.540   0.680 -2.4485 -0.6601 -0.6031
  942MOL0     H24301   6.465  10.365   0.636 -0.0176 -0.8077 -2.6760
  942MOL0     H24302   6.484  10.601   0.456 -0.8959  0.7100  0.4246
  942MOL0     H24303   6.531  10.439   0.404 -0.4585 -2.8595  2.3867
  942MOL0     H24304   6.314  10.356   0.436  1.9399 -0.2556  1.8566
  942MOL0     H24305   6.293  10.504   0.338  0.7949 -0.5203 -0.9634
  942MOL0     H24306   6.094  10.454   0.291  0.0919  0.6601 -0.2871
  942MOL0     H24307   5.868  10.496   0.251  1.9033  1.5826 -1.1202
  942MOL0     H24308   5.600  10.726   0.058 -0.4490  1.1382  0.8153
  942MOL0     H24309   5.382  10.756  -0.058  1.0527 -1.8373 -0.8367
  942MOL0     H24310   5.012  10.645   0.182 -1.5320  0.6292 -0.1352
  942MOL0     H24311   5.019  10.575   0.023  0.7591 -1.1901  0.1760
  942MOL0     H24312   4.930  10.798  -0.068  0.4153  0.1207  0.0115
  942MOL0     H24313   4.933  10.866   0.093  1.0738  1.4434 -1.9168
  942MOL0     H24314   4.760  10.619   0.033 -4.2380  0.1664  0.1191
  942MOL0     H24315   4.702  10.783   0.034 -0.2535 -0.1849  0.3907
  942MOL0     H24316   4.810  10.631   0.271  0.9077 -0.0770 -0.5989
  942MOL0     H24317   4.804  10.804   0.282 -0.2663 -1.4953  3.7391
  942MOL0     H24318   4.558  10.639   0.219 -2.2286  0.1494  2.7935
  942MOL0     H24319   4.565  10.816   0.229 -0.7584 -0.0140 -0.8376
  942MOL0     H24320   4.634  10.812   0.463 -1.4788 -0.1036  0.4914
  942MOL0     H24321   4.650  10.634   0.453  1.7794  1.8891  0.3038
  942MOL0     H24322   4.425  10.601   0.403  3.0925 -0.2970 -1.4496
  942MOL0     H24323   4.457  10.632   0.561 -0.0635  1.1779  1.3752
  942MOL0     H24324   4.269  10.755   0.497  2.0009 -3.4480  0.4300
  942MOL0     H24325   4.360  10.861   0.392 -0.9087 -0.1741  0.3271
  942MOL0     H24326   5.177  10.622   0.293  1.0299 -1.5460  3.3687
  942MOL0     H24327   5.384  10.573   0.404 -0.4672  3.8609  1.7515
  942MOL0     H24328   5.805  10.629   0.654  0.0510 -0.3879  1.3824
  942MOL0     H24329   6.054  10.607   0.693 -3.1449  3.0634  0.9364
  942MOL0     H24330   5.866   9.850   0.702  0.4234 -2.9263 -0.9268
  942MOL0     H24331   5.638   9.871   0.773  2.8678  1.2954  0.7119
  942MOL0     H24332   5.082   9.798   0.479  0.6356 -3.0668  1.5271
  942MOL0     H24333   4.855   9.866   0.565 -0.5240 -1.2567  1.2613
  942MOL0     H24334   4.622   9.933   0.830  0.2109 -2.9660 -1.0918
  942MOL0     H24335   4.694   9.834   0.729 -0.5307  0.0169 -1.9373
  942MOL0     H24336   4.674  10.007   0.538  1.2003 -2.2750  0.8897
  942MOL0     H24337   4.525   9.944   0.601  2.2658 -1.5135 -2.3993
  942MOL0     H24338   4.661  10.214   0.701 -0.1651 -2.0564  3.1131
  942MOL0     H24339   4.498  10.153   0.743  1.3329 -0.2097  1.9816
  942MOL0     H24340   4.453  10.130   0.488 -1.3352 -1.9088  2.5214
  942MOL0     H24341   4.427  10.275   0.577 -0.1169  0.3521 -1.7089
  942MOL0     H24342   4.689  10.426   0.304  5.0028 -2.5465  1.3240
  942MOL0     H24343   5.049  10.072   0.891  2.3939 -0.6842 -0.6579
  942MOL0     H24344   5.249  10.035   0.801  0.5084 -0.8095  0.5079
  943MOL0     O24345   7.611   1.855   3.012 -0.0564  0.0905 -0.2079
  943MOL0     C24346   7.633   1.839   2.895  0.5698 -0.5674  0.5289
  943MOL0     O24347   7.534   1.847   2.792  0.1794 -0.7497 -0.3660
  943MOL0     C24348   7.405   1.832   2.842 -0.1862 -1.1854  0.2920
  943MOL0     C24349   7.352   1.719   2.912 -0.7328  0.1094  0.9893
  943MOL0     C24350   7.216   1.721   2.959  0.3399  0.4027 -0.3205
  943MOL0     C24351   7.147   1.843   2.954  0.3112 -0.7287  0.6292
  943MOL0     O24352   7.019   1.845   2.998 -0.0204 -0.2290 -0.2661
  943MOL0     C24353   6.972   1.966   3.052 -0.4186 -0.2888  0.0977
  943MOL0     C24354   6.892   1.946   3.176 -0.4036 -0.1937 -0.8471
  943MOL0     C24355   6.754   1.887   3.154 -0.4986 -0.5548  0.3772
  943MOL0     C24356   6.668   1.864   3.285 -0.6226  1.3597  0.3749
  943MOL0     C24357   6.540   1.789   3.248 -0.0981  0.3592  0.5314
  943MOL0     C24358   6.451   1.790   3.375  0.4784  0.1874  0.2827
  943MOL0     C24359   6.351   1.675   3.380  1.2290  0.3892 -0.3971
  943MOL0     C24360   6.267   1.696   3.508  0.0485  0.3261  0.7081
  943MOL0     N24361   6.166   1.596   3.529 -0.5470  0.1316 -0.1421
  943MOL0     C24362   6.031   1.609   3.496 -0.2776  0.3021  0.5079
  943MOL0     C24363   5.976   1.496   3.541 -0.2728  0.2025  0.7712
  943MOL0     C24364   5.842   1.451   3.519  0.1319  0.1673  1.1686
  943MOL0     C24365   5.754   1.426   3.647 -0.1358  0.1408  0.1233
  943MOL0     C24366   5.608   1.408   3.612 -1.0422  0.5241  0.2379
  943MOL0     C24367   5.512   1.359   3.729 -0.0202 -0.6937 -0.6565
  943MOL0     O24368   5.508   1.459   3.834  0.2548  0.3330  1.1076
  943MOL0     C24369   5.393   1.493   3.900  0.2548 -0.2783  0.5797
  943MOL0     C24370   5.409   1.528   4.034  0.2929 -0.4916 -0.3857
  943MOL0     C24371   5.303   1.560   4.118 -0.1630  0.3128 -0.1161
  943MOL0     C24372   5.179   1.546   4.073  0.0224  0.7385 -0.0194
  943MOL0     C24373   5.059   1.548   4.163  0.3780 -0.1966  0.7059
  943MOL0     O24374   4.937   1.531   4.104 -0.7217 -0.3967  0.4639
  943MOL0     C24375   4.838   1.527   4.195  0.7784 -0.1478  0.4755
  943MOL0     C24376   4.782   1.643   4.247  0.8480 -0.1204 -0.8765
  943MOL0     C24377   4.689   1.633   4.350 -0.1271  0.3610 -0.2595
  943MOL0     C24378   4.638   1.511   4.392 -0.9700 -0.3281  0.7841
  943MOL0     O24379   4.549   1.492   4.494 -0.4639  0.9203 -0.0468
  943MOL0     C24380   4.497   1.612   4.556  0.2002 -0.4763 -0.9188
  943MOL0     C24381   4.366   1.580   4.637 -0.5923  0.2728 -0.2503
  943MOL0     C24382   4.383   1.496   4.771 -0.3656  0.2184  0.1719
  943MOL0     C24383   4.247   1.503   4.845 -0.8858  0.2700 -0.0232
  943MOL0     C24384   4.247   1.418   4.967 -0.5514 -0.1333  0.1536
  943MOL0     C24385   4.128   1.463   5.064  0.1226 -0.8905  0.5591
  943MOL0     C24386   4.133   1.358   5.172 -0.4230  1.1046 -0.6588
  943MOL0     C24387   4.103   1.426   5.303  0.4485 -0.6564  0.1594
  943MOL0    Cl24388   3.934   1.469   5.308 -0.2096  0.5600 -0.3162
  943MOL0     C24389   4.687   1.393   4.338 -0.3479 -0.2343  0.5500
  943MOL0     C24390   4.785   1.403   4.236  0.1847  0.1107  0.2636
  943MOL0     O24391   5.082   1.558   4.284  0.4451 -1.4196  0.4254
  943MOL0     C24392   5.157   1.505   3.938  1.0325 -0.3916  0.0704
  943MOL0     C24393   5.265   1.484   3.852 -0.4487 -0.2847  1.3282
  943MOL0     N24394   6.069   1.413   3.590 -0.7263  1.2975  0.1248
  943MOL0     N24395   6.184   1.478   3.596 -0.5276  0.7804 -0.2919
  943MOL0     C24396   7.200   1.953   2.884  0.3703 -0.1212  1.0218
  943MOL0     C24397   7.327   1.950   2.823 -1.1112 -0.8211 -0.1298
  943MOL0     C24398   7.769   1.860   2.850 -0.0222  0.3526  0.1830
  943MOL0     C24399   7.799   1.929   2.738  0.0578  0.6510 -0.8030
  943MOL0     C24400   7.935   1.941   2.699 -0.4701  0.6201 -0.4909
  943MOL0     C24401   8.035   1.874   2.773 -0.5274  0.4828  0.6600
  943MOL0     O24402   8.175   1.875   2.729  0.7357  0.4843 -0.1657
  943MOL0     C24403   8.276   1.814   2.808 -0.2553  0.8788  0.9447
  943MOL0     C24404   8.334   1.920   2.903  0.0639 -0.4141 -0.0078
  943MOL0     C24405   8.394   2.040   2.840  0.1076  0.3832  0.9212
  943MOL0     C24406   8.388   2.164   2.924 -0.3982 -0.2210 -0.7834
  943MOL0     C24407   8.384   2.288   2.847 -0.1898 -0.0300  0.0607
  943MOL0     C24408   8.365   2.393   2.788 -0.9546  0.4117  0.2951
  943MOL0     C24409   7.998   1.805   2.893 -0.3419 -1.5027 -0.3417
  943MOL0     C24410   7.865   1.798   2.923 -0.3223  0.3755 -0.2879
  943MOL0     H24411   7.422   1.641   2.937  0.3899  1.1237  1.1307
  943MOL0     H24412   7.159   1.639   3.000 -1.2913  2.2029  1.1728
  943MOL0     H24413   6.906   2.016   2.981  0.2365 -1.5811 -1.4770
  943MOL0     H24414   7.058   2.025   3.086  0.3953 -2.3872  1.9485
  943MOL0     H24415   6.889   2.041   3.230  1.6994 -1.0684  0.9405
  943MOL0     H24416   6.946   1.881   3.246  0.5885  1.0444 -0.4269
  943MOL0     H24417   6.765   1.787   3.110  0.6035 -1.0760  1.7447
  943MOL0     H24418   6.695   1.954   3.092 -1.3089 -2.5136 -1.0569
  943MOL0     H24419   6.727   1.808   3.358 -2.2722 -1.9337 -0.5975
  943MOL0     H24420   6.639   1.960   3.327 -2.7832  0.6650  0.6164
  943MOL0     H24421   6.573   1.690   3.218  1.6353  0.6957  1.2262
  943MOL0     H24422   6.493   1.841   3.163 -0.6905 -2.2477 -0.8397
  943MOL0     H24423   6.381   1.873   3.388 -0.7759 -1.0635  2.1863
  943MOL0     H24424   6.516   1.788   3.462 -0.3097 -1.8028  0.9004
  943MOL0     H24425   6.284   1.691   3.295 -0.0790 -0.4312  0.4408
  943MOL0     H24426   6.403   1.580   3.365  0.0911 -0.4652  0.9001
  943MOL0     H24427   6.221   1.796   3.505  1.9389  1.2941  2.1050
  943MOL0     H24428   6.332   1.700   3.595  0.1998 -0.0839  0.6151
  943MOL0     H24429   5.979   1.694   3.453 -3.4416 -1.6745  0.0988
  943MOL0     H24430   5.835   1.360   3.458 -3.7773  0.9143  0.2540
  943MOL0     H24431   5.796   1.532   3.462  1.0828  0.0865  0.2381
  943MOL0     H24432   5.758   1.509   3.718 -2.6888  0.9149 -0.5338
  943MOL0     H24433   5.786   1.334   3.696 -0.6781  0.0457  0.2998
  943MOL0     H24434   5.575   1.500   3.563  0.2595  0.0966 -1.5427
  943MOL0     H24435   5.615   1.328   3.539  0.8561  2.4586 -1.8994
  943MOL0     H24436   5.549   1.264   3.769  1.2717  0.2203  0.4482
  943MOL0     H24437   5.413   1.350   3.684 -1.3228 -2.7193  2.2688
  943MOL0     H24438   5.510   1.522   4.074 -0.3376 -3.1826  1.0907
  943MOL0     H24439   5.305   1.594   4.221 -1.2045 -1.6243  0.5894
  943MOL0     H24440   4.816   1.742   4.216 -2.8740  2.0955  1.2293
  943MOL0     H24441   4.675   1.728   4.401  1.1440  0.3486  0.1308
  943MOL0     H24442   4.460   1.681   4.479 -2.3935  2.4648  2.6292
  943MOL0     H24443   4.562   1.665   4.626 -3.1299 -0.1893  2.2171
  943MOL0     H24444   4.293   1.531   4.572  1.8768 -2.2694 -1.2905
  943MOL0     H24445   4.329   1.676   4.674  2.9110  1.3413  0.8657
  943MOL0     H24446   4.460   1.552   4.827  0.2962  1.4444 -1.8539
  943MOL0     H24447   4.408   1.392   4.750  2.1163  1.1954 -2.3867
  943MOL0     H24448   4.220   1.605   4.876 -0.5236  0.0498  1.0615
  943MOL0     H24449   4.167   1.473   4.778 -0.6576  3.0902 -1.7626
  943MOL0     H24450   4.340   1.423   5.024 -1.9195 -1.8427  2.7866
  943MOL0     H24451   4.233   1.312   4.945 -2.0924 -0.2827  1.6240
  943MOL0     H24452   4.034   1.460   5.007  0.6052 -0.4725 -0.2764
  943MOL0     H24453   4.135   1.566   5.098 -0.4157 -0.5407 -0.3434
  943MOL0     H24454   4.073   1.269   5.153  2.5276 -1.2916  0.5058
  943MOL0     H24455   4.236   1.322   5.185 -0.6569  0.8401  0.5852
  943MOL0     H24456   4.162   1.516   5.322  1.5250 -1.5033  0.9866
  943MOL0     H24457   4.123   1.352   5.381 -0.4422 -1.8187 -0.6925
  943MOL0     H24458   4.649   1.294   4.361  2.1082 -0.8952  2.1024
  943MOL0     H24459   4.829   1.320   4.182  2.1886  2.1530 -1.4336
  943MOL0     H24460   5.056   1.486   3.906  1.3487  0.8961 -1.8830
  943MOL0     H24461   5.248   1.475   3.745  2.2579 -1.7983  0.9295
  943MOL0     H24462   7.140   2.043   2.880  1.5309  0.6614  0.8009
  943MOL0     H24463   7.367   2.041   2.779  0.4951 -1.3359  0.2063
  943MOL0     H24464   7.726   1.975   2.673  0.7923  0.7024 -1.6088
  943MOL0     H24465   7.955   1.985   2.601  0.7678 -0.7680 -0.9085
  943MOL0     H24466   8.359   1.769   2.752  0.0221  0.4325  1.7035
  943MOL0     H24467   8.240   1.727   2.862  0.7420  0.6899  1.3281
  943MOL0     H24468   8.244   1.957   2.953 -2.0842 -1.8752 -2.5775
  943MOL0     H24469   8.399   1.878   2.980  0.5792 -3.7865 -2.1068
  943MOL0     H24470   8.341   2.048   2.744 -1.5180  0.5129  1.8051
  943MOL0     H24471   8.500   2.023   2.820  0.0888  0.2316  0.9587
  943MOL0     H24472   8.302   2.151   2.990  2.1024  0.3754  2.9140
  943MOL0     H24473   8.474   2.166   2.992  0.3435 -1.0881 -1.6638
  943MOL0     H24474   8.363   2.476   2.721  2.9877 -0.6397 -1.4501
  943MOL0     H24475   8.065   1.768   2.969  0.5264  2.0720  0.7963
  943MOL0     H24476   7.847   1.748   3.017  2.0524 -2.1389 -1.0184
  944MOL0     O24477   4.686   4.927   9.650 -0.2229  0.2663 -0.3345
  944MOL0     C24478   4.705   5.030   9.584  0.5488  0.2886 -0.0515
  944MOL0     O24479   4.604   5.118   9.559  0.1119  0.1686  0.8225
  944MOL0     C24480   4.476   5.068   9.579  0.0603  0.5192  0.3577
  944MOL0     C24481   4.403   5.126   9.690 -0.3673  0.7329 -0.2357
  944MOL0     C24482   4.267   5.080   9.705 -0.8955 -0.1214  0.1938
  944MOL0     C24483   4.211   4.984   9.620  0.6482 -0.1807  1.0152
  944MOL0     O24484   4.081   4.945   9.640 -0.0922  0.2014  0.8248
  944MOL0     C24485   4.071   4.839   9.729 -0.8977  0.4545 -1.0097
  944MOL0     C24486   3.931   4.843   9.789  0.1932 -0.5604 -0.0927
  944MOL0     C24487   3.830   4.792   9.686  0.1870 -0.2218  0.0099
  944MOL0     C24488   3.693   4.771   9.755 -0.2156  1.0093 -1.1389
  944MOL0     C24489   3.571   4.772   9.662 -0.3223  0.7682  0.1821
  944MOL0     C24490   3.449   4.702   9.725 -0.2632  0.2761 -0.2653
  944MOL0     C24491   3.395   4.797   9.831  0.1779  0.8566  0.3336
  944MOL0     C24492   3.235   4.759   9.871  0.5319 -0.0882 -0.1390
  944MOL0     N24493   3.222   4.638   9.962 -1.1561  0.3541  0.1515
  944MOL0     C24494   3.132   4.643  10.066 -0.4818  0.7655  0.2256
  944MOL0     C24495   3.138   4.522  10.119  0.1346  0.3672 -0.4432
  944MOL0     C24496   3.054   4.478  10.238  0.2296 -0.3019  0.5035
  944MOL0     C24497   2.915   4.423  10.194  0.2852  0.1123  0.5237
  944MOL0     C24498   2.831   4.358  10.300 -0.1556  0.3203  0.4616
  944MOL0     C24499   2.733   4.257  10.248 -0.7305  0.1695  0.4405
  944MOL0     O24500   2.642   4.251  10.360  0.7248 -0.0560 -0.1422
  944MOL0     C24501   2.546   4.151  10.366 -0.0374  0.6257  0.0533
  944MOL0     C24502   2.528   4.047  10.280  0.5829  1.2368 -1.3895
  944MOL0     C24503   2.429   3.950  10.312  0.0634 -0.2663  0.1419
  944MOL0     C24504   2.333   3.964  10.411 -0.0972 -0.8279 -0.0016
  944MOL0     C24505   2.212   3.889  10.412  1.0078 -0.2193 -0.1724
  944MOL0     O24506   2.147   3.891  10.532 -0.1028  0.1352  0.7015
  944MOL0     C24507   2.038   3.807  10.565  0.3469 -0.5637  0.3695
  944MOL0     C24508   1.956   3.732  10.472  0.6755  0.0567  0.5151
  944MOL0     C24509   1.839   3.666  10.514 -0.8363 -0.2169 -0.5155
  944MOL0     C24510   1.810   3.659  10.655  0.5889 -0.0300 -0.8454
  944MOL0     O24511   1.689   3.610  10.691 -0.1753  0.2226 -0.7961
  944MOL0     C24512   1.648   3.594  10.823  0.9314 -0.8739  0.2491
  944MOL0     C24513   1.514   3.523  10.837 -0.2408  0.2753 -0.6465
  944MOL0     C24514   1.495   3.480  10.982  0.1897  0.9327  0.4492
  944MOL0     C24515   1.371   3.380  10.999 -0.5760 -0.7639 -0.0568
  944MOL0     C24516   1.249   3.449  10.956  0.9051  0.4617 -0.7315
  944MOL0     C24517   1.143   3.396  11.052 -0.5410 -0.2450 -0.3755
  944MOL0     C24518   1.001   3.449  11.031  0.3778 -0.2022 -0.2954
  944MOL0     C24519   0.894   3.351  11.098  0.3340 -0.6409  0.4266
  944MOL0    Cl24520   0.730   3.405  11.065  0.2420 -0.0955 -0.3524
  944MOL0     C24521   1.890   3.732  10.745 -0.5959 -0.8593 -0.1931
  944MOL0     C24522   1.999   3.806  10.699 -0.0955  0.0002  0.5041
  944MOL0     O24523   2.177   3.823  10.317  0.1366 -0.8175  0.3559
  944MOL0     C24524   2.364   4.065  10.504 -0.6487 -0.3922  0.6241
  944MOL0     C24525   2.464   4.157  10.484  0.1200 -0.6265 -0.4332
  944MOL0     N24526   3.230   4.438  10.053 -0.1715 -0.8624  0.3876
  944MOL0     N24527   3.284   4.514   9.957  0.4377  0.2210  0.6130
  944MOL0     C24528   4.287   4.929   9.511  0.2045 -0.9564 -0.1905
  944MOL0     C24529   4.419   4.970   9.493  0.8582  0.1271 -0.5838
  944MOL0     C24530   4.845   5.074   9.553 -0.1814  0.3682  0.0281
  944MOL0     C24531   4.957   4.988   9.577  0.1890 -0.1270 -0.4157
  944MOL0     C24532   5.082   5.040   9.550 -0.0718  0.3429  0.8600
  944MOL0     C24533   5.110   5.173   9.524  0.5328 -0.1584  0.1899
  944MOL0     O24534   5.238   5.220   9.490  0.0536  0.6884  0.0484
  944MOL0     C24535   5.255   5.271   9.351  0.2278 -0.2557 -0.3472
  944MOL0     C24536   5.398   5.231   9.316  0.4136 -0.5053 -0.5915
  944MOL0     C24537   5.432   5.265   9.169  0.4382 -0.6369 -0.0175
  944MOL0     C24538   5.587   5.254   9.131 -0.0582 -0.7146 -0.1629
  944MOL0     C24539   5.643   5.128   9.163  0.1662 -0.1320  0.5489
  944MOL0     C24540   5.685   5.019   9.204  0.7398 -0.5685  0.0195
  944MOL0     C24541   5.002   5.251   9.498 -0.0646 -0.4017  0.4461
  944MOL0     C24542   4.874   5.205   9.500 -0.8025 -0.3172 -0.3730
  944MOL0     H24543   4.451   5.200   9.754 -1.3928  1.2063  0.0100
  944MOL0     H24544   4.197   5.112   9.781 -1.2128 -3.1221  1.3107
  944MOL0     H24545   4.132   4.870   9.815  0.4144  2.1474 -2.4574
  944MOL0     H24546   4.107   4.743   9.692  1.2808  0.5874  0.5844
  944MOL0     H24547   3.901   4.940   9.830 -0.1655  0.7194 -3.0967
  944MOL0     H24548   3.953   4.772   9.869  3.0842  1.0320  0.6727
  944MOL0     H24549   3.858   4.696   9.643  0.4829 -0.6552  1.1388
  944MOL0     H24550   3.820   4.866   9.606  0.8184 -1.0271 -0.8241
  944MOL0     H24551   3.697   4.675   9.807  0.8360  0.4038 -2.2809
  944MOL0     H24552   3.673   4.858   9.819 -0.3820  1.4886 -1.8263
  944MOL0     H24553   3.597   4.716   9.572  2.6004 -0.7934  1.8449
  944MOL0     H24554   3.548   4.873   9.627 -0.0297  0.5573 -0.6505
  944MOL0     H24555   3.472   4.610   9.779 -1.4665  0.5732  0.8274
  944MOL0     H24556   3.373   4.691   9.647  2.2798  0.7886 -2.9878
  944MOL0     H24557   3.459   4.796   9.919 -0.5715  0.8001  0.8825
  944MOL0     H24558   3.401   4.899   9.792  1.1307  0.9433  0.6827
  944MOL0     H24559   3.183   4.751   9.775  0.9407 -0.2051 -0.3503
  944MOL0     H24560   3.185   4.842   9.921 -1.2024 -1.5321  0.6646
  944MOL0     H24561   3.072   4.730  10.093  2.1426  1.7945  3.4370
  944MOL0     H24562   3.048   4.570  10.297 -1.0458  0.0951 -0.2196
  944MOL0     H24563   3.118   4.413  10.298 -0.5694  0.6813  2.4887
  944MOL0     H24564   2.927   4.356  10.108  0.4284 -0.5160  1.0291
  944MOL0     H24565   2.861   4.512  10.160 -0.5807  0.0969  1.7965
  944MOL0     H24566   2.885   4.308  10.381 -2.9991 -1.8996  1.1684
  944MOL0     H24567   2.776   4.434  10.357  1.0323 -0.0097  2.1420
  944MOL0     H24568   2.793   4.167  10.234 -2.2509 -0.9095  0.5262
  944MOL0     H24569   2.690   4.281  10.151  0.2904 -2.5914 -0.7912
  944MOL0     H24570   2.594   4.045  10.194  2.1096 -0.3787 -0.2288
  944MOL0     H24571   2.418   3.867  10.242 -2.5694 -0.5179  0.7571
  944MOL0     H24572   1.985   3.739  10.368 -1.6895 -1.8727 -0.3508
  944MOL0     H24573   1.787   3.613  10.436 -1.0572  2.0766 -2.0147
  944MOL0     H24574   1.628   3.693  10.864  1.1961 -0.5169 -0.4594
  944MOL0     H24575   1.723   3.545  10.885 -1.1520 -1.9196  2.0938
  944MOL0     H24576   1.512   3.432  10.777  1.2136 -0.2487  0.0529
  944MOL0     H24577   1.436   3.593  10.803 -0.5474  1.8945  2.9524
  944MOL0     H24578   1.467   3.567  11.041 -1.5432  0.6955  0.0370
  944MOL0     H24579   1.582   3.425  11.020  0.1423 -1.5612 -2.6531
  944MOL0     H24580   1.398   3.293  10.939 -0.2063 -1.3721  0.9701
  944MOL0     H24581   1.362   3.352  11.104 -0.8040 -0.2771  0.0554
  944MOL0     H24582   1.210   3.421  10.858  0.7487 -1.2173 -0.2318
  944MOL0     H24583   1.257   3.557  10.971 -0.2378  0.5775 -0.8713
  944MOL0     H24584   1.164   3.425  11.156 -1.3324  2.9533 -0.9972
  944MOL0     H24585   1.141   3.287  11.046  0.5954 -0.3574  0.8544
  944MOL0     H24586   0.983   3.546  11.078  1.1647  0.3597 -1.0980
  944MOL0     H24587   0.978   3.461  10.924  0.2431 -0.4472 -0.2928
  944MOL0     H24588   0.910   3.364  11.206  2.8882 -0.7386  0.1140
  944MOL0     H24589   0.907   3.244  11.085 -2.8825 -1.2269  1.0941
  944MOL0     H24590   1.869   3.732  10.852  2.3091  1.1993  0.5028
  944MOL0     H24591   2.048   3.858  10.781 -1.0479  1.6574  0.0828
  944MOL0     H24592   2.304   4.078  10.593  0.6859 -1.1371  1.6692
  944MOL0     H24593   2.486   4.230  10.561  1.0941 -0.6204 -0.7097
  944MOL0     H24594   4.243   4.861   9.439 -0.1889 -0.6430 -0.2449
  944MOL0     H24595   4.479   4.934   9.410  1.6263  2.4831 -1.1469
  944MOL0     H24596   4.951   4.882   9.599  0.9090  0.0312  0.5664
  944MOL0     H24597   5.168   4.974   9.542  0.4063  1.0988 -0.4938
  944MOL0     H24598   5.232   5.378   9.354 -3.8331 -0.9563  0.1329
  944MOL0     H24599   5.176   5.228   9.288  0.0271 -2.4638  1.2986
  944MOL0     H24600   5.466   5.287   9.381  2.0042 -3.0746  0.1036
  944MOL0     H24601   5.405   5.122   9.324  0.3356 -0.6457 -2.1363
  944MOL0     H24602   5.385   5.363   9.151 -0.2944 -1.2775 -1.8103
  944MOL0     H24603   5.377   5.194   9.107  0.4081  0.6232 -1.4821
  944MOL0     H24604   5.606   5.280   9.027 -2.5775  1.0154 -0.2774
  944MOL0     H24605   5.634   5.331   9.194  1.5740 -2.2735  0.6156
  944MOL0     H24606   5.706   4.929   9.259 -0.6715 -0.5956  0.5743
  944MOL0     H24607   5.009   5.356   9.473 -4.1031 -0.4670 -1.6570
  944MOL0     H24608   4.788   5.267   9.477 -0.1345  1.9011  2.5396
  945MOL0     O24609   4.465   8.683   6.027 -0.6537  0.4187  0.3625
  945MOL0     C24610   4.353   8.653   5.992  0.7612  0.1161  0.4853
  945MOL0     O24611   4.246   8.644   6.072  0.2315  0.0784 -0.4625
  945MOL0     C24612   4.261   8.598   6.205  0.0637  0.0246 -0.6524
  945MOL0     C24613   4.234   8.685   6.310 -0.3061 -0.3984 -0.1021
  945MOL0     C24614   4.253   8.649   6.444 -0.7549  0.8526  0.0977
  945MOL0     C24615   4.283   8.513   6.481  0.7953 -0.0819  0.5682
  945MOL0     O24616   4.296   8.482   6.615 -0.5306  0.4971  0.2242
  945MOL0     C24617   4.275   8.569   6.725  0.2935 -0.0038 -0.3083
  945MOL0     C24618   4.255   8.490   6.851  0.6447  0.1913 -0.2700
  945MOL0     C24619   4.253   8.575   6.976  0.5026 -0.0396 -0.2658
  945MOL0     C24620   4.387   8.584   7.048 -0.5674  0.4470  0.0721
  945MOL0     C24621   4.385   8.678   7.165 -0.1871  0.1024 -0.3498
  945MOL0     C24622   4.512   8.666   7.256 -0.4630 -0.5348 -0.4859
  945MOL0     C24623   4.647   8.664   7.182  0.1917 -0.3254  0.3530
  945MOL0     C24624   4.652   8.785   7.079 -0.6898  0.1851  0.8487
  945MOL0     N24625   4.783   8.784   6.993  0.2746 -0.4114 -0.2790
  945MOL0     C24626   4.873   8.882   6.971 -0.2965 -0.2717 -0.5067
  945MOL0     C24627   4.972   8.826   6.903  0.1762  0.3215 -0.0277
  945MOL0     C24628   5.093   8.906   6.853  0.0350 -0.0350  0.0374
  945MOL0     C24629   5.178   8.832   6.739  0.4432 -1.0557 -0.3571
  945MOL0     C24630   5.288   8.926   6.696  0.5330  0.3949  0.6156
  945MOL0     C24631   5.242   9.040   6.606 -0.5934 -0.0981  0.5327
  945MOL0     O24632   5.170   8.991   6.492 -0.1123 -0.7184 -0.1788
  945MOL0     C24633   5.122   9.080   6.399 -0.3363  0.8095 -0.3694
  945MOL0     C24634   5.017   9.163   6.433  0.8045 -1.2241  0.5537
  945MOL0     C24635   4.966   9.245   6.329  0.9491  0.1608  1.8853
  945MOL0     C24636   5.016   9.244   6.194  0.5359  0.5852 -0.5493
  945MOL0     C24637   4.961   9.327   6.079 -0.5623  0.3696  0.2528
  945MOL0     O24638   4.859   9.410   6.105 -0.0885 -0.2124 -0.3390
  945MOL0     C24639   4.826   9.498   6.000 -0.8847  0.5316 -0.4000
  945MOL0     C24640   4.700   9.489   5.934  0.0553  0.0230 -0.1937
  945MOL0     C24641   4.667   9.584   5.839 -0.7320 -0.3080 -0.7453
  945MOL0     C24642   4.760   9.685   5.811 -0.6241  0.2631  0.4978
  945MOL0     O24643   4.699   9.782   5.734  0.2978 -0.5885 -0.3962
  945MOL0     C24644   4.791   9.894   5.700 -0.0019 -0.6533  0.4062
  945MOL0     C24645   4.716   9.995   5.613  0.0653  0.2331 -0.0355
  945MOL0     C24646   4.811  10.102   5.554 -0.1653  0.3652  0.9102
  945MOL0     C24647   4.851  10.213   5.653  0.4623 -1.1356 -0.6513
  945MOL0     C24648   4.995  10.262   5.646  0.2470  0.2217 -0.0566
  945MOL0     C24649   5.025  10.330   5.510  0.0224 -0.5658  0.5477
  945MOL0     C24650   5.177  10.366   5.501 -0.1146 -0.1370 -0.6872
  945MOL0     C24651   5.224  10.370   5.356  0.2262 -0.5723  0.0576
  945MOL0    Cl24652   5.163  10.511   5.259  0.0828  0.3365  0.1555
  945MOL0     C24653   4.886   9.690   5.872 -0.0531  0.1340  0.6424
  945MOL0     C24654   4.921   9.592   5.965  0.2966 -0.1961  0.4374
  945MOL0     O24655   5.000   9.292   5.968 -0.0085  0.0907  0.5916
  945MOL0     C24656   5.126   9.161   6.167 -0.4123  0.3014  0.0409
  945MOL0     C24657   5.178   9.086   6.274  0.0077  0.4870  0.1847
  945MOL0     N24658   4.942   8.689   6.881  0.1508 -0.3481  0.4741
  945MOL0     N24659   4.823   8.675   6.927  0.1625 -0.1757  0.0282
  945MOL0     C24660   4.321   8.427   6.383 -0.8545 -0.1736  0.2764
  945MOL0     C24661   4.308   8.466   6.249 -0.2643  0.0618 -0.0665
  945MOL0     C24662   4.330   8.655   5.846 -0.0629  0.9067 -1.1813
  945MOL0     C24663   4.203   8.641   5.794  0.1732  0.1743  0.3717
  945MOL0     C24664   4.186   8.634   5.659  0.2929 -0.3069  0.5254
  945MOL0     C24665   4.292   8.639   5.559 -0.0721  0.8724 -0.4961
  945MOL0     O24666   4.267   8.642   5.427  0.1240  0.8851  0.2785
  945MOL0     C24667   4.135   8.614   5.380 -0.4342  0.5771 -0.3249
  945MOL0     C24668   4.139   8.588   5.235 -0.1199 -0.5858 -0.4397
  945MOL0     C24669   3.997   8.592   5.164 -0.4223  0.0784 -0.1940
  945MOL0     C24670   4.009   8.527   5.019  0.1889 -0.1628  0.4625
  945MOL0     C24671   4.052   8.389   5.026 -0.7539  0.2436 -0.0642
  945MOL0     C24672   4.077   8.271   5.036  0.4934  0.0793  0.3846
  945MOL0     C24673   4.417   8.674   5.616  0.1015 -0.9148 -0.5009
  945MOL0     C24674   4.432   8.670   5.758  0.7929  0.4770  0.0591
  945MOL0     H24675   4.194   8.783   6.285 -4.6396 -1.5615  1.3878
  945MOL0     H24676   4.256   8.728   6.520  0.5133  0.3677  0.5787
  945MOL0     H24677   4.187   8.631   6.708  1.5189  0.9944 -4.1501
  945MOL0     H24678   4.347   8.651   6.724 -2.2659  2.4078 -0.9648
  945MOL0     H24679   4.341   8.422   6.846  2.8660  2.8204 -4.8651
  945MOL0     H24680   4.162   8.435   6.837  0.7208  0.6059 -3.1553
  945MOL0     H24681   4.180   8.518   7.035 -2.1641  0.9658 -2.3429
  945MOL0     H24682   4.217   8.678   6.966  1.9504  0.7021  1.6992
  945MOL0     H24683   4.418   8.482   7.071  3.1696  1.6790  1.3286
  945MOL0     H24684   4.469   8.604   6.977 -1.5202 -0.5852 -1.3775
  945MOL0     H24685   4.293   8.652   7.218 -0.0590  0.9308  0.2962
  945MOL0     H24686   4.360   8.775   7.121 -1.8787 -0.6245 -1.0491
  945MOL0     H24687   4.503   8.576   7.316  1.1783  0.8880  2.0611
  945MOL0     H24688   4.514   8.754   7.321  1.8944 -0.5606 -0.4281
  945MOL0     H24689   4.732   8.666   7.251  0.0195  1.4652  0.5618
  945MOL0     H24690   4.652   8.566   7.134 -0.8783 -0.0804 -0.2875
  945MOL0     H24691   4.667   8.873   7.144  0.3061  1.4247 -0.9702
  945MOL0     H24692   4.566   8.805   7.015  0.6074  0.4007 -0.8932
  945MOL0     H24693   4.874   8.988   6.994  0.7971  0.2276 -2.5519
  945MOL0     H24694   5.160   8.944   6.931  0.5348  1.2113 -0.9558
  945MOL0     H24695   5.052   8.996   6.806  0.4252 -0.2759 -0.7985
  945MOL0     H24696   5.117   8.812   6.650  0.3281  3.6003 -1.5661
  945MOL0     H24697   5.221   8.736   6.772 -0.8940 -2.5152 -2.5732
  945MOL0     H24698   5.344   8.961   6.783 -1.0013  0.0871  1.7666
  945MOL0     H24699   5.356   8.866   6.634 -0.6490 -1.3898  0.9484
  945MOL0     H24700   5.333   9.090   6.573 -0.9208  0.6023  0.6824
  945MOL0     H24701   5.186   9.109   6.669  0.2285 -0.4860  1.7258
  945MOL0     H24702   4.966   9.154   6.528 -1.8499  1.4291 -0.4339
  945MOL0     H24703   4.874   9.299   6.348  0.9502  1.3905 -1.1390
  945MOL0     H24704   4.629   9.417   5.972  0.1744 -0.3694 -0.7009
  945MOL0     H24705   4.569   9.582   5.793 -1.3971 -0.3547  0.6222
  945MOL0     H24706   4.878   9.852   5.649  0.9445  1.0617  0.5137
  945MOL0     H24707   4.823   9.948   5.791  1.3418 -0.8991  0.1018
  945MOL0     H24708   4.626  10.036   5.660  0.8743  0.7681  1.0765
  945MOL0     H24709   4.677   9.924   5.539 -1.5646 -0.1212  1.0999
  945MOL0     H24710   4.779  10.148   5.460  3.5728  1.0310 -0.2176
  945MOL0     H24711   4.900  10.044   5.528 -1.0526 -1.7922  2.3811
  945MOL0     H24712   4.785  10.299   5.651  1.7535  0.2788  3.8746
  945MOL0     H24713   4.842  10.183   5.758 -1.7860 -1.1626 -0.8031
  945MOL0     H24714   5.062  10.175   5.648 -0.2903 -0.2170 -0.5332
  945MOL0     H24715   5.009  10.340   5.721 -1.8625  1.7180 -1.1333
  945MOL0     H24716   4.954  10.412   5.496 -1.3021 -2.0031 -2.1548
  945MOL0     H24717   5.014  10.261   5.425  1.3996 -1.4556  1.0513
  945MOL0     H24718   5.204  10.460   5.549 -0.3919  0.4270 -1.6175
  945MOL0     H24719   5.239  10.291   5.552  0.1523 -0.5606 -1.6047
  945MOL0     H24720   5.193  10.272   5.319  1.6353 -2.3868  3.3086
  945MOL0     H24721   5.332  10.361   5.339 -0.2067 -1.9933 -2.4222
  945MOL0     H24722   4.967   9.760   5.850 -1.0688  1.3361  0.6137
  945MOL0     H24723   5.022   9.593   6.005  1.5850  0.9653 -2.5608
  945MOL0     H24724   5.173   9.167   6.069 -0.4291  0.1620  0.0231
  945MOL0     H24725   5.259   9.016   6.255 -1.3029 -1.0952  0.2941
  945MOL0     H24726   4.351   8.325   6.409 -0.0910  0.3501  1.5552
  945MOL0     H24727   4.331   8.397   6.168  2.2977 -0.0494  0.6808
  945MOL0     H24728   4.114   8.623   5.854  1.0569 -3.0930  0.9207
  945MOL0     H24729   4.085   8.615   5.624  0.7046 -2.3075  0.3293
  945MOL0     H24730   4.080   8.707   5.396  0.4292  0.7370  2.2768
  945MOL0     H24731   4.070   8.544   5.434 -0.7769  1.1328 -0.0046
  945MOL0     H24732   4.198   8.668   5.191  0.5780 -0.6778  0.3230
  945MOL0     H24733   4.191   8.492   5.226  0.7117 -0.1633 -0.1759
  945MOL0     H24734   3.989   8.701   5.157  3.2183  0.6189  1.6162
  945MOL0     H24735   3.914   8.549   5.220 -1.7620  1.8387 -0.7519
  945MOL0     H24736   3.910   8.524   4.974 -0.5221 -3.0068  1.9431
  945MOL0     H24737   4.074   8.585   4.953 -0.3254  1.2140  1.1136
  945MOL0     H24738   4.091   8.165   5.048 -1.6447 -0.2901 -0.1175
  945MOL0     H24739   4.503   8.690   5.552  2.7964 -1.5996  2.6573
  945MOL0     H24740   4.529   8.688   5.804  0.2771  1.1985  0.9020
  946MOL0     O24741   1.799   5.012   9.065  0.1886 -0.3228  0.5118
  946MOL0     C24742   1.808   5.134   9.063  0.2526 -0.4551  0.4799
  946MOL0     O24743   1.706   5.225   9.024 -0.6887  0.7067  0.0762
  946MOL0     C24744   1.576   5.184   9.007 -0.5248  0.1229  0.5416
  946MOL0     C24745   1.543   5.102   8.902 -0.3071  0.1881  0.3029
  946MOL0     C24746   1.412   5.081   8.867  0.2571  0.8839  0.6660
  946MOL0     C24747   1.309   5.135   8.947 -0.5592  0.6831 -1.2923
  946MOL0     O24748   1.185   5.099   8.908 -0.0837 -0.4284 -0.4571
  946MOL0     C24749   1.078   5.133   8.996  0.5765 -0.2655 -0.2626
  946MOL0     C24750   0.945   5.073   8.934 -0.4706  0.9089  0.2185
  946MOL0     C24751   0.812   5.120   8.994 -0.6990 -0.2725 -0.3665
  946MOL0     C24752   0.690   5.070   8.927 -0.2504  1.3685  0.1363
  946MOL0     C24753   0.568   5.130   8.991 -0.1562  0.1159 -0.2721
  946MOL0     C24754   0.433   5.111   8.911 -0.6253  0.5144 -0.9198
  946MOL0     C24755   0.435   5.161   8.772 -0.5317 -0.2246  0.3280
  946MOL0     C24756   0.291   5.154   8.715 -0.0334  0.7110  0.2803
  946MOL0     N24757   0.287   5.193   8.567  0.5871  0.1059 -0.2549
  946MOL0     C24758   0.303   5.099   8.464  0.2303  0.6704 -0.3868
  946MOL0     C24759   0.292   5.177   8.355  0.3063 -0.6817 -0.7422
  946MOL0     C24760   0.284   5.130   8.210  0.1580 -0.0176 -0.2162
  946MOL0     C24761   0.144   5.107   8.176 -0.0149 -0.4733 -0.1168
  946MOL0     C24762   0.121   5.063   8.036 -0.8241 -0.4774  0.0482
  946MOL0     C24763  -0.034   5.067   8.019  0.0083  0.6525  0.5967
  946MOL0     O24764  -0.059   5.055   7.876 -0.5213  0.3732  0.2345
  946MOL0     C24765  -0.186   5.033   7.827  0.2161 -0.8418  0.2527
  946MOL0     C24766  -0.197   5.009   7.697  0.9399 -0.2273  0.3585
  946MOL0     C24767  -0.321   5.000   7.628 -0.3168 -0.3758  0.4017
  946MOL0     C24768  -0.442   5.025   7.699  0.9988 -0.7238 -0.1254
  946MOL0     C24769  -0.570   5.037   7.631  0.0612 -0.3274  0.7790
  946MOL0     O24770  -0.679   5.005   7.707 -0.2365 -0.4895 -0.8471
  946MOL0     C24771  -0.811   5.031   7.667  0.5539 -0.0895  0.0610
  946MOL0     C24772  -0.893   5.124   7.740 -0.4933 -0.3243 -0.3226
  946MOL0     C24773  -1.012   5.185   7.688  0.3665  0.3580 -0.0837
  946MOL0     C24774  -1.062   5.117   7.575  0.1527  0.5202  0.1979
  946MOL0     O24775  -1.156   5.180   7.498  0.0317  0.1623  0.3373
  946MOL0     C24776  -1.292   5.202   7.558 -0.9918 -0.3000  0.3193
  946MOL0     C24777  -1.320   5.341   7.613  0.3117  0.4739 -0.6834
  946MOL0     C24778  -1.455   5.350   7.684  0.3274 -0.2438 -0.5502
  946MOL0     C24779  -1.452   5.466   7.775 -0.4684 -0.4013  0.9678
  946MOL0     C24780  -1.590   5.532   7.806 -0.2515  0.3666  0.7008
  946MOL0     C24781  -1.634   5.560   7.945  0.5610  0.3953  0.1718
  946MOL0     C24782  -1.665   5.430   8.023 -0.5093 -0.1497 -0.1941
  946MOL0     C24783  -1.759   5.432   8.142  0.0541  0.1936 -0.4221
  946MOL0    Cl24784  -1.810   5.274   8.165  0.0734  0.3155 -0.5454
  946MOL0     C24785  -0.996   5.008   7.513  0.6863 -0.0336 -0.7847
  946MOL0     C24786  -0.868   4.974   7.556 -0.0568  0.1183  0.0752
  946MOL0     O24787  -0.579   5.079   7.518  0.4124 -0.5510  0.2078
  946MOL0     C24788  -0.430   5.036   7.841  0.6462 -0.7899 -0.5322
  946MOL0     C24789  -0.301   5.034   7.903 -0.5382  0.5176 -0.3215
  946MOL0     N24790   0.281   5.314   8.395  0.9994 -0.5143  0.6681
  946MOL0     N24791   0.272   5.321   8.524 -0.3720  0.2700  0.0490
  946MOL0     C24792   1.342   5.220   9.063 -0.2788 -0.1353  0.3599
  946MOL0     C24793   1.476   5.232   9.096 -0.1682 -0.2389 -0.2391
  946MOL0     C24794   1.945   5.186   9.076 -0.5290 -0.0210 -0.8788
  946MOL0     C24795   2.056   5.101   9.087  0.0639 -0.5540  0.0700
  946MOL0     C24796   2.191   5.138   9.098 -0.8479 -0.4182  0.1945
  946MOL0     C24797   2.213   5.281   9.085  0.2930  0.4451  0.4153
  946MOL0     O24798   2.341   5.320   9.079  0.3192 -0.0594  0.1589
  946MOL0     C24799   2.383   5.407   9.189  0.0705 -0.0129  0.2031
  946MOL0     C24800   2.502   5.490   9.134 -0.1368 -0.2984  0.1147
  946MOL0     C24801   2.601   5.557   9.241  0.1880  0.1547  0.5480
  946MOL0     C24802   2.530   5.672   9.322 -0.2649 -0.8654 -0.0952
  946MOL0     C24803   2.624   5.757   9.391  0.3503 -0.8263 -0.1262
  946MOL0     C24804   2.696   5.823   9.450 -0.1474  0.1398 -1.6818
  946MOL0     C24805   2.110   5.365   9.067 -0.1539 -0.1444 -0.2825
  946MOL0     C24806   1.973   5.326   9.073 -0.5551  1.2861  0.1322
  946MOL0     H24807   1.622   5.064   8.838 -0.4845 -0.6926  0.5986
  946MOL0     H24808   1.386   5.020   8.782  1.9299  0.8385  0.1535
  946MOL0     H24809   1.051   5.238   9.000  4.3085  0.8340  2.0417
  946MOL0     H24810   1.097   5.106   9.101  2.2616 -0.8451 -0.6686
  946MOL0     H24811   0.946   4.964   8.948  0.2988  0.9796  0.7503
  946MOL0     H24812   0.950   5.081   8.825  1.0855  0.7569  0.2593
  946MOL0     H24813   0.812   5.228   8.980 -0.7767 -0.2857 -0.4753
  946MOL0     H24814   0.807   5.095   9.100  0.0273 -2.0049 -0.7028
  946MOL0     H24815   0.702   5.080   8.819  1.7653 -0.5274  0.1057
  946MOL0     H24816   0.685   4.965   8.958  2.7564  1.6106  1.9210
  946MOL0     H24817   0.587   5.237   8.997 -0.6086  0.1772  0.0716
  946MOL0     H24818   0.557   5.095   9.094  1.0234  0.5125  0.0033
  946MOL0     H24819   0.352   5.161   8.966 -0.7983 -0.8079  0.0762
  946MOL0     H24820   0.409   5.005   8.909  2.2070 -0.2832  0.8786
  946MOL0     H24821   0.476   5.262   8.766  1.5828 -0.9396  1.6776
  946MOL0     H24822   0.488   5.091   8.707  0.5065 -0.2142  1.1515
  946MOL0     H24823   0.234   5.227   8.774 -0.5560  1.1569 -0.7395
  946MOL0     H24824   0.246   5.054   8.723  0.6951 -0.0801 -3.4232
  946MOL0     H24825   0.314   4.992   8.469 -2.3065  0.2870 -1.4300
  946MOL0     H24826   0.333   5.032   8.207 -1.0841 -0.6920  0.8300
  946MOL0     H24827   0.334   5.199   8.141  0.5581  3.6531  3.3619
  946MOL0     H24828   0.100   5.205   8.197 -0.0512 -0.6737  0.7510
  946MOL0     H24829   0.096   5.042   8.250  1.4066  0.1252  1.3842
  946MOL0     H24830   0.167   5.143   7.978  1.7148 -0.7230  1.5714
  946MOL0     H24831   0.173   4.969   8.015 -0.3499  0.3370 -2.8658
  946MOL0     H24832  -0.078   5.156   8.065 -2.9503 -0.3510 -0.1105
  946MOL0     H24833  -0.077   4.977   8.064  0.8707  0.7378  1.6290
  946MOL0     H24834  -0.108   5.000   7.635 -1.0472  3.7137 -3.6858
  946MOL0     H24835  -0.320   4.998   7.520 -2.1293 -1.5600  0.3539
  946MOL0     H24836  -0.856   5.163   7.834  0.3889 -1.3051 -0.2360
  946MOL0     H24837  -1.069   5.260   7.742 -0.9534 -2.3026  2.4821
  946MOL0     H24838  -1.285   5.139   7.647 -0.8873 -1.0930 -0.2445
  946MOL0     H24839  -1.372   5.171   7.491 -1.1619  0.3415  0.2140
  946MOL0     H24840  -1.329   5.418   7.535 -0.3756 -0.0703 -1.1580
  946MOL0     H24841  -1.246   5.359   7.691  0.7216 -0.3157 -0.8716
  946MOL0     H24842  -1.456   5.267   7.756  0.8776 -0.0957 -0.3646
  946MOL0     H24843  -1.542   5.349   7.617 -0.4237 -1.9063  0.3647
  946MOL0     H24844  -1.397   5.435   7.864  0.2665 -1.8080  0.0546
  946MOL0     H24845  -1.389   5.549   7.740 -1.1405  0.2942  1.3768
  946MOL0     H24846  -1.659   5.457   7.765  1.2402  0.6534 -2.6199
  946MOL0     H24847  -1.592   5.619   7.741  0.4201  0.3410  0.6357
  946MOL0     H24848  -1.725   5.616   7.923  0.7651 -0.0673 -2.0805
  946MOL0     H24849  -1.563   5.619   8.003 -1.7631  2.7688  0.8126
  946MOL0     H24850  -1.703   5.360   7.949 -1.2697  0.8253 -0.7442
  946MOL0     H24851  -1.573   5.394   8.071 -0.5415  0.4963  0.3744
  946MOL0     H24852  -1.842   5.501   8.122 -0.7853 -0.1747  1.5829
  946MOL0     H24853  -1.713   5.474   8.231  0.3309  1.5731 -1.1844
  946MOL0     H24854  -1.042   4.973   7.421  0.7641 -1.6239 -0.2431
  946MOL0     H24855  -0.806   4.902   7.505  1.5952  2.0063 -0.7360
  946MOL0     H24856  -0.516   5.045   7.906  1.6907 -1.3305  0.9706
  946MOL0     H24857  -0.288   5.048   8.010  3.4095 -0.9205 -0.4524
  946MOL0     H24858   1.260   5.267   9.118 -0.9534  3.0246 -2.9890
  946MOL0     H24859   1.502   5.275   9.192 -0.7874 -0.1756 -0.0960
  946MOL0     H24860   2.039   4.994   9.084  0.4431 -0.6285  0.5038
  946MOL0     H24861   2.267   5.061   9.095 -3.1666 -2.8600 -0.3722
  946MOL0     H24862   2.408   5.344   9.275 -2.1224  1.6576  2.2092
  946MOL0     H24863   2.306   5.477   9.223  2.3030  3.2538 -0.9952
  946MOL0     H24864   2.565   5.424   9.073 -0.6467 -0.3833 -0.3227
  946MOL0     H24865   2.474   5.575   9.072  0.3222 -0.1358  0.1266
  946MOL0     H24866   2.691   5.587   9.188 -0.5575 -0.3009 -1.0337
  946MOL0     H24867   2.632   5.475   9.306  0.5868  0.2348  0.4610
  946MOL0     H24868   2.469   5.729   9.252  0.3857  2.8300  2.1315
  946MOL0     H24869   2.456   5.630   9.390 -1.8914 -1.3936 -2.0819
  946MOL0     H24870   2.758   5.887   9.510  0.7101 -0.2100 -2.1867
  946MOL0     H24871   2.117   5.472   9.053 -2.3292  0.2877  1.3568
  946MOL0     H24872   1.888   5.394   9.066 -2.2728 -0.8553 -5.1387
  947MOL0     O24873   4.248   0.603  10.698  1.0624  0.4282 -0.1604
  947MOL0     C24874   4.269   0.620  10.816 -0.8556 -0.3495 -0.4749
  947MOL0     O24875   4.169   0.620  10.913 -0.3223  0.0466  0.6776
  947MOL0     C24876   4.041   0.624  10.864 -0.6515  0.1790 -0.2049
  947MOL0     C24877   3.961   0.517  10.876 -0.2663  0.0385 -0.3635
  947MOL0     C24878   3.822   0.528  10.843  0.0722  0.0318  0.3729
  947MOL0     C24879   3.773   0.646  10.788  0.0490 -0.3743  0.1525
  947MOL0     O24880   3.635   0.663  10.778 -0.2194  0.3396  0.0481
  947MOL0     C24881   3.581   0.794  10.744  0.3656  0.3155 -0.0163
  947MOL0     C24882   3.431   0.775  10.732 -0.2509  0.1747  0.7190
  947MOL0     C24883   3.390   0.713  10.603  0.2627 -1.0926  0.4898
  947MOL0     C24884   3.238   0.707  10.593 -0.6634  0.3877 -0.0485
  947MOL0     C24885   3.181   0.723  10.458  0.2277  0.1518 -0.2445
  947MOL0     C24886   3.025   0.727  10.463 -1.2192 -0.7594 -0.6622
  947MOL0     C24887   2.965   0.747  10.327 -0.2273  0.2224 -0.1217
  947MOL0     C24888   2.895   0.620  10.275  0.9198  0.5097 -0.1657
  947MOL0     N24889   2.767   0.578  10.340  0.9703  0.0748 -0.0674
  947MOL0     C24890   2.750   0.492  10.450  0.8428  0.1202 -0.7403
  947MOL0     C24891   2.617   0.494  10.487 -0.3270  1.1500  0.1743
  947MOL0     C24892   2.574   0.412  10.601 -0.3070 -0.1692  0.7794
  947MOL0     C24893   2.474   0.487  10.690 -0.6372  0.1458 -0.6544
  947MOL0     C24894   2.421   0.406  10.803 -0.2906 -0.4303  0.3708
  947MOL0     C24895   2.277   0.445  10.838  0.5777  0.1233 -0.6637
  947MOL0     O24896   2.256   0.587  10.826  0.6656  0.3021 -0.2269
  947MOL0     C24897   2.126   0.641  10.822  0.0031 -0.5032 -0.7677
  947MOL0     C24898   2.012   0.593  10.881 -0.6692  0.4079  0.2067
  947MOL0     C24899   1.886   0.661  10.875  0.0589  0.8943 -0.6644
  947MOL0     C24900   1.869   0.775  10.787  0.1868  0.2524 -0.5345
  947MOL0     C24901   1.740   0.843  10.778 -0.0523  0.1657  0.3037
  947MOL0     O24902   1.647   0.803  10.869 -0.6874 -0.7896  0.4417
  947MOL0     C24903   1.523   0.860  10.895  0.1570 -0.0036  0.3530
  947MOL0     C24904   1.451   0.793  10.987 -0.4102  0.2236 -0.4587
  947MOL0     C24905   1.317   0.819  11.020  0.1943 -0.2973 -0.0217
  947MOL0     C24906   1.258   0.932  10.966  0.1482 -0.5092 -0.3507
  947MOL0     O24907   1.134   0.966  10.999  0.5836  0.0786  0.5004
  947MOL0     C24908   1.023   0.885  10.947  0.4649  0.1616  0.3597
  947MOL0     C24909   0.893   0.932  11.009  0.8954  0.6632  0.1117
  947MOL0     C24910   0.894   0.886  11.155  0.1616  0.2640  0.1643
  947MOL0     C24911   0.759   0.892  11.216  0.4325 -0.5053  0.1798
  947MOL0     C24912   0.758   0.830  11.367 -0.7167  0.2654  0.0495
  947MOL0     C24913   0.618   0.806  11.416  0.6103 -0.5951  0.1825
  947MOL0     C24914   0.630   0.727  11.542  0.9659  0.9991 -0.3110
  947MOL0     C24915   0.515   0.627  11.560  0.0426  0.4741 -0.4062
  947MOL0    Cl24916   0.507   0.514  11.422 -0.1398 -0.3136  0.2393
  947MOL0     C24917   1.328   1.005  10.871 -0.1528  0.0605 -0.1954
  947MOL0     C24918   1.458   0.968  10.836 -0.0400  0.9168  0.2350
  947MOL0     O24919   1.722   0.941  10.702  0.2667 -0.2345  0.2945
  947MOL0     C24920   1.987   0.812  10.722  0.4520  0.2767 -0.3631
  947MOL0     C24921   2.106   0.749  10.740 -0.2207 -0.2526 -0.6252
  947MOL0     N24922   2.557   0.582  10.399  0.3581 -0.2635  0.0718
  947MOL0     N24923   2.639   0.627  10.315  0.2746  0.0091 -0.5776
  947MOL0     C24924   3.860   0.753  10.783  0.7297  0.6302 -0.4913
  947MOL0     C24925   3.993   0.747  10.811  0.7774  0.1111 -1.4338
  947MOL0     C24926   4.407   0.648  10.851 -0.6813  0.3382  0.0690
  947MOL0     C24927   4.515   0.648  10.757 -0.0542  0.0939 -0.1159
  947MOL0     C24928   4.644   0.682  10.805 -0.8158 -0.5110 -0.3230
  947MOL0     C24929   4.668   0.705  10.948 -1.7016  0.0160 -0.4814
  947MOL0     O24930   4.788   0.746  11.009  0.7674 -0.3526 -0.0214
  947MOL0     C24931   4.898   0.683  10.942 -0.7632 -0.1406 -0.5987
  947MOL0     C24932   5.030   0.723  11.015  0.0328  0.2641 -0.7541
  947MOL0     C24933   5.026   0.673  11.154 -0.3049  0.2729  0.6642
  947MOL0     C24934   5.172   0.664  11.211  0.3959  0.6113  0.3632
  947MOL0     C24935   5.166   0.634  11.359  0.1724 -0.6442  0.0803
  947MOL0     C24936   5.140   0.599  11.475  0.5120  0.7320 -0.4044
  947MOL0     C24937   4.567   0.680  11.037 -0.5474  0.3588  0.0855
  947MOL0     C24938   4.435   0.664  10.990  0.1546  0.7504  1.3799
  947MOL0     H24939   4.002   0.427  10.922  0.4799  0.1600 -0.7927
  947MOL0     H24940   3.747   0.451  10.857 -1.1240  1.1958  0.6150
  947MOL0     H24941   3.624   0.841  10.655  0.1232 -1.9306 -1.3910
  947MOL0     H24942   3.606   0.864  10.825 -1.8896  4.4851 -2.5453
  947MOL0     H24943   3.393   0.877  10.731  0.5497  0.6526 -3.9711
  947MOL0     H24944   3.383   0.728  10.819 -2.3992  1.6746  0.4295
  947MOL0     H24945   3.432   0.612  10.594 -1.5001 -1.9110  0.9660
  947MOL0     H24946   3.425   0.774  10.519 -0.0296 -2.0194 -0.3237
  947MOL0     H24947   3.207   0.612  10.637 -0.3244  0.3746  0.1622
  947MOL0     H24948   3.193   0.781  10.660  1.1331  0.6111  0.9611
  947MOL0     H24949   3.205   0.638  10.394  0.3937  1.2995 -1.7842
  947MOL0     H24950   3.219   0.816  10.414  0.5548  0.8074  1.3477
  947MOL0     H24951   2.999   0.821  10.512  0.8154  0.1673 -1.2465
  947MOL0     H24952   2.990   0.641  10.521  1.2795  0.0389  2.2747
  947MOL0     H24953   2.882   0.816  10.344 -0.5607  0.4526 -2.4127
  947MOL0     H24954   3.035   0.792  10.256 -1.8101  1.5339 -0.9124
  947MOL0     H24955   2.960   0.532  10.278  0.3240  0.0132 -1.1241
  947MOL0     H24956   2.876   0.634  10.168 -2.3979 -0.2204  0.2108
  947MOL0     H24957   2.830   0.433  10.494 -0.7328 -3.2639 -2.0236
  947MOL0     H24958   2.652   0.372  10.665  0.2434 -0.9882 -0.3837
  947MOL0     H24959   2.521   0.328  10.557 -0.4138  0.2851  0.0241
  947MOL0     H24960   2.390   0.532  10.635 -1.6279 -2.1123 -1.0975
  947MOL0     H24961   2.518   0.575  10.737  0.5684 -0.8935  0.2070
  947MOL0     H24962   2.437   0.301  10.777  3.4432  0.2253 -0.5942
  947MOL0     H24963   2.484   0.428  10.890 -0.6940  1.6037  0.1991
  947MOL0     H24964   2.271   0.432  10.947  1.8004  1.5092 -0.3943
  947MOL0     H24965   2.198   0.383  10.795 -0.0654  0.0750  0.5476
  947MOL0     H24966   2.000   0.496  10.930 -0.7119  1.4543  2.3866
  947MOL0     H24967   1.801   0.629  10.935 -0.8364  0.8927 -1.8840
  947MOL0     H24968   1.496   0.700  11.019 -0.7628  0.1532 -0.1652
  947MOL0     H24969   1.269   0.748  11.087 -0.3008 -1.1751 -1.2544
  947MOL0     H24970   1.042   0.777  10.950 -1.6200 -0.5995 -4.2482
  947MOL0     H24971   1.017   0.924  10.845 -1.4763  1.0858  0.7757
  947MOL0     H24972   0.816   0.886  10.948  1.7020 -0.5264 -0.0466
  947MOL0     H24973   0.872   1.039  11.013 -3.5168 -0.0591  1.5339
  947MOL0     H24974   0.959   0.953  11.212  1.4645 -1.1236  0.3802
  947MOL0     H24975   0.923   0.784  11.180  0.0874  0.8082  2.8481
  947MOL0     H24976   0.726   0.996  11.209 -2.3599 -1.1985  1.5330
  947MOL0     H24977   0.697   0.836  11.145 -0.0199  0.4215 -0.1634
  947MOL0     H24978   0.794   0.909  11.433 -1.6579  1.5695 -0.9435
  947MOL0     H24979   0.819   0.740  11.382  0.7943  1.0043 -1.3819
  947MOL0     H24980   0.579   0.744  11.335  1.8135  0.4753 -1.2987
  947MOL0     H24981   0.549   0.891  11.423  1.4930  0.4951 -2.7943
  947MOL0     H24982   0.727   0.677  11.548  0.4486 -0.4376 -2.5219
  947MOL0     H24983   0.641   0.795  11.627 -0.5964  1.7133 -0.6427
  947MOL0     H24984   0.422   0.682  11.577  0.5534  1.5789 -1.0754
  947MOL0     H24985   0.552   0.565  11.643  4.3152 -2.5542 -4.0798
  947MOL0     H24986   1.290   1.088  10.814 -0.2317 -0.3169 -0.6945
  947MOL0     H24987   1.505   1.022  10.754 -0.4377 -0.1954 -0.7555
  947MOL0     H24988   1.974   0.900  10.659 -1.7028  0.7152  0.6293
  947MOL0     H24989   2.187   0.788  10.679 -0.4482  1.5076  0.1465
  947MOL0     H24990   3.818   0.847  10.749 -0.1541  0.1425 -0.7805
  947MOL0     H24991   4.043   0.843  10.804 -0.3881  1.2309  2.7649
  947MOL0     H24992   4.488   0.625  10.654  2.0925 -1.6424 -0.3570
  947MOL0     H24993   4.726   0.677  10.734  0.7884 -0.3489  1.4513
  947MOL0     H24994   4.910   0.711  10.837 -0.8441 -0.0192 -0.5758
  947MOL0     H24995   4.908   0.574  10.944 -0.8325 -0.1374  0.4587
  947MOL0     H24996   5.120   0.678  10.973  0.3190  0.3136 -0.2016
  947MOL0     H24997   5.043   0.832  11.018 -0.4107  0.3027 -0.0585
  947MOL0     H24998   4.979   0.575  11.166  1.3786 -1.1748 -2.9396
  947MOL0     H24999   4.978   0.745  11.221  2.4430  0.9056  2.1268
  947MOL0     H25000   5.227   0.578  11.172 -1.2382  0.0466 -0.7398
  947MOL0     H25001   5.223   0.759  11.189 -1.5074  1.4378 -0.6815
  947MOL0     H25002   5.108   0.587  11.577  2.2934 -2.5725 -0.1039
  947MOL0     H25003   4.576   0.697  11.143 -1.2987  2.2486 -0.1170
  947MOL0     H25004   4.358   0.668  11.066 -0.3202  0.3609  0.9270
  948MOL0     O25005   8.747  10.412   6.983 -0.2438 -0.6502 -0.4246
  948MOL0     C25006   8.738  10.365   7.098 -0.1292  0.4119  0.8258
  948MOL0     O25007   8.643  10.276   7.138 -0.2736  0.4923 -0.3703
  948MOL0     C25008   8.532  10.243   7.062  0.0282  0.0173  0.6770
  948MOL0     C25009   8.445  10.325   6.996  0.6526 -1.1797 -0.0129
  948MOL0     C25010   8.334  10.271   6.916 -0.3022  0.2962  0.3454
  948MOL0     C25011   8.294  10.140   6.938 -1.0746  0.2201 -0.5189
  948MOL0     O25012   8.199  10.068   6.890  0.4922  0.1061  0.2260
  948MOL0     C25013   8.078  10.133   6.841  0.4596 -0.0245  0.6921
  948MOL0     C25014   8.062  10.069   6.699  0.5489 -0.4235 -0.8159
  948MOL0     C25015   8.048   9.918   6.685  0.4206  0.5341  0.1018
  948MOL0     C25016   7.956   9.845   6.794  0.1991 -0.1720 -0.1677
  948MOL0     C25017   7.978   9.699   6.799 -0.1339  0.7139 -0.4837
  948MOL0     C25018   7.931   9.628   6.665  0.3748 -0.2194 -0.9781
  948MOL0     C25019   7.970   9.480   6.650 -0.0341 -0.1136  0.1393
  948MOL0     C25020   8.123   9.466   6.660  0.5432 -0.5805  0.6933
  948MOL0     N25021   8.173   9.329   6.631 -0.5800 -0.3016 -0.3973
  948MOL0     C25022   8.102   9.246   6.555  0.0532  0.9508  0.1280
  948MOL0     C25023   8.145   9.129   6.587 -0.0369  0.3867 -0.4610
  948MOL0     C25024   8.097   9.006   6.518  0.4289  0.1175  1.3919
  948MOL0     C25025   7.966   8.953   6.581  0.0553 -0.9085 -0.2290
  948MOL0     C25026   7.988   8.918   6.729  0.5901  0.0451  0.1430
  948MOL0     C25027   7.889   8.816   6.778  0.2579 -0.0362 -0.1020
  948MOL0     O25028   7.752   8.867   6.764  0.4271  0.0113  0.2618
  948MOL0     C25029   7.688   8.953   6.860 -0.6520  0.2487  0.2278
  948MOL0     C25030   7.552   8.974   6.841 -0.4343  0.7277  0.2232
  948MOL0     C25031   7.484   9.073   6.913 -0.4208  0.3199 -0.4070
  948MOL0     C25032   7.549   9.143   7.017 -0.3179 -0.6038 -0.1690
  948MOL0     C25033   7.481   9.243   7.095  0.0235  0.0937 -0.0578
  948MOL0     O25034   7.348   9.222   7.108 -0.7051  0.0622 -0.3420
  948MOL0     C25035   7.273   9.321   7.164  0.4035 -0.2554  1.1457
  948MOL0     C25036   7.214   9.310   7.284 -0.1133  0.7145  0.4793
  948MOL0     C25037   7.144   9.412   7.348  0.5082 -0.2458  0.2946
  948MOL0     C25038   7.118   9.533   7.281 -0.6399 -1.3538 -0.0354
  948MOL0     O25039   7.041   9.639   7.326 -0.0101 -0.2117 -0.4418
  948MOL0     C25040   7.031   9.653   7.470  0.2724 -0.1618  0.2274
  948MOL0     C25041   6.960   9.787   7.487  0.3454 -0.5552 -0.8644
  948MOL0     C25042   6.806   9.768   7.452  0.4831  0.3299  0.2911
  948MOL0     C25043   6.725   9.897   7.449 -0.5043 -0.3109 -0.7307
  948MOL0     C25044   6.570   9.880   7.437 -0.0897  0.3933 -0.9368
  948MOL0     C25045   6.550   9.831   7.290 -0.8253 -0.3572 -0.3146
  948MOL0     C25046   6.405   9.790   7.281 -0.0393 -0.1187 -0.2636
  948MOL0     C25047   6.387   9.683   7.185 -0.1893  0.0989  0.0884
  948MOL0    Cl25048   6.214   9.638   7.192 -0.1925 -0.2972  0.5118
  948MOL0     C25049   7.181   9.556   7.155 -0.4336  0.2768 -0.1246
  948MOL0     C25050   7.251   9.445   7.097 -0.4582 -0.1591  0.0530
  948MOL0     O25051   7.537   9.350   7.127  0.4558 -0.5382  0.5732
  948MOL0     C25052   7.692   9.136   7.023  0.9050  0.8880  0.5152
  948MOL0     C25053   7.758   9.029   6.953 -0.1246  0.6074 -0.2037
  948MOL0     N25054   8.260   9.131   6.670  1.0392  0.6414 -0.2248
  948MOL0     N25055   8.265   9.252   6.704  0.5914 -0.1101 -0.4190
  948MOL0     C25056   8.385  10.061   7.012 -0.1144  0.0558  0.0097
  948MOL0     C25057   8.512  10.106   7.064  0.4159  0.0638  0.4818
  948MOL0     C25058   8.841  10.401   7.195  0.5916 -0.9344 -0.0805
  948MOL0     C25059   8.954  10.468   7.155 -0.6472 -0.1966  0.4902
  948MOL0     C25060   9.060  10.506   7.236  0.2755 -0.6217  0.3455
  948MOL0     C25061   9.050  10.474   7.372 -0.9484 -0.2915 -0.6545
  948MOL0     O25062   9.152  10.502   7.464 -0.4371  0.3607  0.7324
  948MOL0     C25063   9.244  10.613   7.438  0.1370 -0.5122 -0.6633
  948MOL0     C25064   9.334  10.649   7.565  0.0719  0.3826  1.0789
  948MOL0     C25065   9.432  10.536   7.581 -0.3807  0.0688  1.1660
  948MOL0     C25066   9.566  10.597   7.541  0.4184 -0.0792  0.4425
  948MOL0     C25067   9.684  10.517   7.564 -0.2689  0.1794 -0.2340
  948MOL0     C25068   9.791  10.452   7.569  0.5047 -1.0963 -0.3225
  948MOL0     C25069   8.937  10.409   7.413 -0.0661  0.6207 -0.5117
  948MOL0     C25070   8.833  10.375   7.335  0.2227  0.1395  0.7188
  948MOL0     H25071   8.467  10.431   6.995  1.2989 -1.2218  2.5878
  948MOL0     H25072   8.277  10.343   6.857  2.1077  1.9627 -0.0950
  948MOL0     H25073   8.089  10.241   6.837 -0.0608  0.0091 -0.5692
  948MOL0     H25074   7.994  10.110   6.907  1.1122 -1.2003  1.1439
  948MOL0     H25075   8.150  10.112   6.652  2.2508  0.5283  2.8407
  948MOL0     H25076   7.972  10.117   6.659 -1.6640  0.0705  4.0016
  948MOL0     H25077   8.142   9.864   6.705  0.1747 -0.3846 -1.1379
  948MOL0     H25078   8.012   9.894   6.585 -2.3844 -0.1253  1.1709
  948MOL0     H25079   7.964   9.880   6.897 -0.4215 -3.1750  1.0174
  948MOL0     H25080   7.849   9.861   6.782  0.0165 -0.6772  0.6932
  948MOL0     H25081   7.931   9.643   6.880  0.8404 -0.3532 -0.6131
  948MOL0     H25082   8.082   9.677   6.824 -0.1348  0.6998 -0.4904
  948MOL0     H25083   7.982   9.676   6.581  2.8128  0.8044  0.9858
  948MOL0     H25084   7.823   9.641   6.651  0.6064  2.1177 -1.0138
  948MOL0     H25085   7.925   9.410   6.721 -0.5213  0.1802  0.1236
  948MOL0     H25086   7.942   9.444   6.551  1.1754  2.2539 -1.1759
  948MOL0     H25087   8.171   9.494   6.754  1.9164 -0.7931  0.0733
  948MOL0     H25088   8.156   9.536   6.583 -0.6246  1.9268  2.3150
  948MOL0     H25089   8.027   9.274   6.482 -0.1046 -0.1828 -0.1660
  948MOL0     H25090   8.169   8.926   6.536 -0.5424 -0.5685  2.3322
  948MOL0     H25091   8.075   9.022   6.412 -0.7461 -1.8930  1.2861
  948MOL0     H25092   7.923   8.866   6.530 -1.7362 -1.0685  1.4734
  948MOL0     H25093   7.889   9.030   6.573  2.9905  2.3359  0.3925
  948MOL0     H25094   8.085   8.870   6.740 -1.1362 -3.5236  1.2596
  948MOL0     H25095   7.985   9.012   6.785 -0.9993 -0.7821  1.5185
  948MOL0     H25096   7.922   8.781   6.876  0.0705 -1.9397 -0.6891
  948MOL0     H25097   7.896   8.730   6.710 -0.4103  1.8344 -2.7029
  948MOL0     H25098   7.498   8.925   6.761  2.8477  0.4288 -2.0373
  948MOL0     H25099   7.378   9.091   6.898  0.3802  4.8848 -2.2001
  948MOL0     H25100   7.236   9.217   7.336 -1.2912  0.1974  0.0941
  948MOL0     H25101   7.086   9.408   7.439 -2.3643  1.8057 -1.2577
  948MOL0     H25102   7.136   9.659   7.502  0.3374 -0.8594  0.1674
  948MOL0     H25103   6.977   9.573   7.521  0.9294 -1.8356 -1.5607
  948MOL0     H25104   7.012   9.858   7.422  0.1005  1.4211  0.9735
  948MOL0     H25105   6.970   9.829   7.588  2.3879  1.4255 -1.7952
  948MOL0     H25106   6.758   9.703   7.526  2.0358  1.2584  2.1904
  948MOL0     H25107   6.811   9.727   7.351  1.4329 -0.6857  0.7302
  948MOL0     H25108   6.747   9.930   7.551  3.3453 -4.2942  0.0144
  948MOL0     H25109   6.773   9.959   7.373  1.7109 -1.3813 -0.2692
  948MOL0     H25110   6.509   9.970   7.450 -0.6760 -0.0090 -0.8577
  948MOL0     H25111   6.538   9.799   7.503  0.6010 -0.1907 -1.3121
  948MOL0     H25112   6.615   9.749   7.258  0.2702 -0.2837  1.5322
  948MOL0     H25113   6.568   9.907   7.213 -2.3002 -0.2134 -0.5375
  948MOL0     H25114   6.373   9.762   7.382  1.9625  0.5404  0.6183
  948MOL0     H25115   6.344   9.873   7.245 -2.3543 -1.8214 -0.4991
  948MOL0     H25116   6.438   9.590   7.210 -0.8399 -0.4835 -0.6902
  948MOL0     H25117   6.413   9.708   7.082 -0.9343  0.6879  0.0361
  948MOL0     H25118   7.170   9.657   7.118  1.7203  0.7763  0.5000
  948MOL0     H25119   7.296   9.439   6.998  0.7652 -1.3728  0.6479
  948MOL0     H25120   7.754   9.203   7.083  0.8263  0.5672  0.9615
  948MOL0     H25121   7.866   9.026   6.954 -0.1513 -0.1964  0.3741
  948MOL0     H25122   8.358   9.959   7.037 -0.4775 -0.1274 -1.0500
  948MOL0     H25123   8.570  10.044   7.131 -0.7729 -0.8154  0.7271
  948MOL0     H25124   8.960  10.476   7.047 -1.4301 -2.2914  0.2346
  948MOL0     H25125   9.146  10.561   7.199 -0.1398 -0.1538  0.0688
  948MOL0     H25126   9.189  10.701   7.403 -0.8199 -2.2444 -3.8491
  948MOL0     H25127   9.307  10.596   7.350 -0.1168 -0.4630 -0.8578
  948MOL0     H25128   9.371  10.751   7.559  1.9720 -0.3549 -0.8947
  948MOL0     H25129   9.263  10.639   7.648 -2.7622 -0.8310 -1.3035
  948MOL0     H25130   9.419  10.447   7.520  1.0722  0.0204  0.8799
  948MOL0     H25131   9.426  10.502   7.685  0.8900 -4.0316  0.0896
  948MOL0     H25132   9.557  10.615   7.434  0.5006  0.3875  0.5131
  948MOL0     H25133   9.587  10.691   7.594  1.9513  0.4244 -0.9701
  948MOL0     H25134   9.886  10.406   7.587  1.2589  1.6578  4.3262
  948MOL0     H25135   8.931  10.369   7.514  1.6266 -0.2667 -0.7163
  948MOL0     H25136   8.745  10.329   7.380  0.5697 -0.3025  0.9542
  949MOL0     O25137   0.210   7.260   5.373  0.0907  0.0982  0.4603
  949MOL0     C25138   0.214   7.330   5.472  0.8025  0.6923 -0.2032
  949MOL0     O25139   0.101   7.382   5.530  0.9581 -0.4520  0.7315
  949MOL0     C25140  -0.023   7.368   5.467  0.2358  0.0316 -0.5575
  949MOL0     C25141  -0.094   7.486   5.437  0.4693  0.7231  0.3914
  949MOL0     C25142  -0.221   7.474   5.371  0.5426 -0.0842 -0.4188
  949MOL0     C25143  -0.276   7.339   5.347 -0.3174  1.1802 -0.1325
  949MOL0     O25144  -0.402   7.340   5.287  0.6357 -0.6294  0.0844
  949MOL0     C25145  -0.433   7.235   5.189 -0.3263  0.3241  0.1113
  949MOL0     C25146  -0.564   7.270   5.115 -0.2335  0.2104  0.7277
  949MOL0     C25147  -0.685   7.210   5.178 -0.5426  0.0324 -0.0892
  949MOL0     C25148  -0.816   7.257   5.120 -0.4382 -0.4749  0.9299
  949MOL0     C25149  -0.947   7.188   5.176  0.1346 -0.0221 -0.1710
  949MOL0     C25150  -1.063   7.293   5.159  0.1387  1.0980 -0.1570
  949MOL0     C25151  -1.187   7.249   5.217  0.4239  0.3045  0.3170
  949MOL0     C25152  -1.245   7.120   5.156 -0.4983  0.1426  0.1027
  949MOL0     N25153  -1.390   7.139   5.126  0.1768  0.5125 -0.1631
  949MOL0     C25154  -1.494   7.106   5.202  0.6859  0.3769 -0.1555
  949MOL0     C25155  -1.606   7.123   5.125  0.4765 -0.2502 -0.3560
  949MOL0     C25156  -1.738   7.065   5.162 -0.0371 -1.0968 -0.6158
  949MOL0     C25157  -1.845   7.153   5.093  1.1795  0.3694  0.0873
  949MOL0     C25158  -1.981   7.125   5.154 -0.0412 -0.7984 -0.5778
  949MOL0     C25159  -2.082   7.233   5.115 -0.2606 -0.1440 -0.2150
  949MOL0     O25160  -2.213   7.188   5.125  0.7644  0.4288  0.0649
  949MOL0     C25161  -2.314   7.279   5.106  1.1860 -0.3327 -0.0569
  949MOL0     C25162  -2.426   7.220   5.057  0.2177 -0.1596  0.0235
  949MOL0     C25163  -2.544   7.301   5.045  0.0830  0.2916 -0.8333
  949MOL0     C25164  -2.547   7.441   5.072 -0.2559 -0.4662  0.0512
  949MOL0     C25165  -2.676   7.519   5.071  0.2059 -0.7195  0.0096
  949MOL0     O25166  -2.782   7.462   5.007  0.0189 -0.3663  0.0567
  949MOL0     C25167  -2.907   7.512   5.047 -0.3817 -0.1814 -0.7034
  949MOL0     C25168  -2.973   7.620   4.981 -0.4812  1.2384 -0.7848
  949MOL0     C25169  -3.104   7.656   5.020  0.1065  0.1272 -0.4855
  949MOL0     C25170  -3.164   7.602   5.137 -0.1929  1.1338  0.4650
  949MOL0     O25171  -3.279   7.656   5.180  1.2565  0.7621  0.3385
  949MOL0     C25172  -3.295   7.796   5.176  0.2018 -0.0945 -0.2088
  949MOL0     C25173  -3.414   7.832   5.085 -0.4556  0.2374 -0.2167
  949MOL0     C25174  -3.531   7.882   5.165 -0.4750  0.1762 -0.4391
  949MOL0     C25175  -3.645   7.926   5.076  0.2245 -0.2428  0.2735
  949MOL0     C25176  -3.782   7.939   5.141  1.5256 -0.5028 -0.6409
  949MOL0     C25177  -3.777   8.024   5.270  0.4270 -0.2007  0.5459
  949MOL0     C25178  -3.908   8.064   5.326 -0.1630 -0.5801 -0.1771
  949MOL0     C25179  -3.897   8.131   5.465  0.4620  0.2263  0.2441
  949MOL0    Cl25180  -3.776   8.267   5.465 -0.1898  0.3458 -0.4165
  949MOL0     C25181  -3.097   7.489   5.193  0.2871 -0.1351  0.1264
  949MOL0     C25182  -2.971   7.442   5.147  0.0035 -0.0073  0.3044
  949MOL0     O25183  -2.686   7.617   5.140  0.2978  0.4963  0.7741
  949MOL0     C25184  -2.427   7.501   5.119 -0.0609 -0.2479 -0.4430
  949MOL0     C25185  -2.312   7.418   5.131  0.1445 -0.4488  0.4141
  949MOL0     N25186  -1.568   7.186   5.007  0.2846 -0.6434 -0.2049
  949MOL0     N25187  -1.439   7.193   5.006  0.4325 -0.1512 -0.5736
  949MOL0     C25188  -0.211   7.222   5.392  0.2735 -0.6243 -0.7574
  949MOL0     C25189  -0.086   7.238   5.460 -0.0067 -0.3528  0.9016
  949MOL0     C25190   0.345   7.353   5.526 -0.5157 -0.0752  0.5327
  949MOL0     C25191   0.381   7.466   5.602 -0.0301 -0.6077  0.0085
  949MOL0     C25192   0.509   7.475   5.661 -0.0252  0.5905 -0.2726
  949MOL0     C25193   0.605   7.378   5.648  0.1250  0.9045  0.5944
  949MOL0     O25194   0.734   7.379   5.700 -0.8319  0.4934  0.2850
  949MOL0     C25195   0.758   7.500   5.781  0.5465  0.7250 -0.2399
  949MOL0     C25196   0.901   7.490   5.839  0.0963  0.6515  1.0171
  949MOL0     C25197   0.919   7.388   5.944  0.0003  0.4296  0.0574
  949MOL0     C25198   0.981   7.444   6.072  0.6343 -0.3667  1.1725
  949MOL0     C25199   1.123   7.476   6.065  0.4512 -0.1537  0.4945
  949MOL0     C25200   1.245   7.483   6.063  0.3897  0.0613  0.8767
  949MOL0     C25201   0.570   7.269   5.564 -0.1212  0.0617  0.5076
  949MOL0     C25202   0.442   7.256   5.512  0.6350  0.4057 -0.5363
  949MOL0     H25203  -0.045   7.581   5.455  2.5745 -0.5202  1.7102
  949MOL0     H25204  -0.277   7.563   5.344  3.0566  1.5234 -0.6788
  949MOL0     H25205  -0.425   7.130   5.220  0.4125  0.0938 -0.8152
  949MOL0     H25206  -0.359   7.248   5.110  0.5531  0.2768  0.9127
  949MOL0     H25207  -0.562   7.230   5.014 -0.2025 -1.0171  1.2064
  949MOL0     H25208  -0.570   7.379   5.123  0.4645  0.2674  0.5527
  949MOL0     H25209  -0.684   7.250   5.280  2.7158  1.0280 -0.3937
  949MOL0     H25210  -0.676   7.101   5.176  2.9500  0.2207  0.3511
  949MOL0     H25211  -0.824   7.363   5.148  0.9147 -0.1689  0.2547
  949MOL0     H25212  -0.814   7.250   5.011 -0.5404  0.2385  0.8724
  949MOL0     H25213  -0.931   7.170   5.283  3.0205  0.8188 -0.3682
  949MOL0     H25214  -0.971   7.097   5.120 -0.4726  1.2251 -2.0271
  949MOL0     H25215  -1.075   7.301   5.051  1.2832 -0.1491 -0.4022
  949MOL0     H25216  -1.041   7.387   5.212 -3.5387  0.9818  1.8609
  949MOL0     H25217  -1.174   7.235   5.325  0.7296 -0.1289  0.2299
  949MOL0     H25218  -1.259   7.329   5.196 -0.5901 -0.6937 -0.1309
  949MOL0     H25219  -1.231   7.041   5.231 -0.8793 -0.3225 -0.3153
  949MOL0     H25220  -1.199   7.095   5.060 -1.2880 -2.2512  0.2848
  949MOL0     H25221  -1.497   7.054   5.297 -0.6137 -0.9804 -0.9005
  949MOL0     H25222  -1.751   7.071   5.270 -1.2568 -2.5140 -0.6575
  949MOL0     H25223  -1.752   6.962   5.128  1.7194 -1.2270 -1.0423
  949MOL0     H25224  -1.850   7.123   4.988  1.4950 -0.5180  0.3110
  949MOL0     H25225  -1.812   7.257   5.091 -0.5388  0.9140 -1.3254
  949MOL0     H25226  -2.016   7.028   5.119  3.6804 -1.9645 -1.5251
  949MOL0     H25227  -1.969   7.135   5.263 -1.6426  3.2782 -0.5847
  949MOL0     H25228  -2.064   7.263   5.011 -1.9809 -0.8991 -0.7606
  949MOL0     H25229  -2.063   7.318   5.181 -1.9087 -1.0064  1.4800
  949MOL0     H25230  -2.423   7.113   5.036  1.0003 -0.0239 -0.5705
  949MOL0     H25231  -2.635   7.258   5.005  1.4053 -1.1605 -2.4036
  949MOL0     H25232  -2.926   7.667   4.896 -1.3540 -0.4727 -2.3036
  949MOL0     H25233  -3.164   7.727   4.964 -1.9867 -1.2562 -0.1390
  949MOL0     H25234  -3.214   7.857   5.136  0.2856 -0.2625 -0.2957
  949MOL0     H25235  -3.305   7.827   5.281  0.9480  0.0247 -0.1664
  949MOL0     H25236  -3.447   7.742   5.032 -0.8657 -0.4869  1.2369
  949MOL0     H25237  -3.384   7.911   5.015 -0.7213 -0.7705 -1.5048
  949MOL0     H25238  -3.497   7.969   5.223  0.5272 -1.4365  1.4942
  949MOL0     H25239  -3.559   7.823   5.253 -2.2442  1.4028 -0.1151
  949MOL0     H25240  -3.612   8.016   5.023 -0.2392  0.4528  1.1365
  949MOL0     H25241  -3.658   7.857   4.992  0.2770  2.3129 -1.9931
  949MOL0     H25242  -3.807   7.838   5.176 -2.0907 -0.3203 -2.2318
  949MOL0     H25243  -3.859   7.970   5.071  0.1862 -1.1594  0.4755
  949MOL0     H25244  -3.730   8.117   5.240  0.3901 -0.7515 -1.3119
  949MOL0     H25245  -3.721   7.967   5.345  0.7605 -3.0866 -1.7226
  949MOL0     H25246  -3.951   8.135   5.255  0.0753 -0.2043  0.0562
  949MOL0     H25247  -3.977   7.979   5.323 -1.3195  0.3460 -1.0678
  949MOL0     H25248  -3.873   8.059   5.543 -1.0964 -1.4874 -0.7820
  949MOL0     H25249  -3.988   8.184   5.496  2.3883  3.4800  0.9028
  949MOL0     H25250  -3.132   7.433   5.279  2.0384 -2.1121 -0.3314
  949MOL0     H25251  -2.930   7.356   5.199 -1.6489  0.2283  2.0897
  949MOL0     H25252  -2.432   7.605   5.150  1.2430 -0.1373 -0.5688
  949MOL0     H25253  -2.218   7.467   5.155  2.1066 -1.8381 -3.6355
  949MOL0     H25254  -0.258   7.125   5.385  0.7895 -1.0246  0.7755
  949MOL0     H25255  -0.024   7.163   5.508  0.6164  1.2225  2.6761
  949MOL0     H25256   0.317   7.552   5.614  1.2376  0.0860  2.8335
  949MOL0     H25257   0.530   7.565   5.718 -0.6119  0.6119 -0.0797
  949MOL0     H25258   0.692   7.487   5.867  1.3371  0.7094  0.3832
  949MOL0     H25259   0.740   7.592   5.726  1.0177  0.4435 -0.8822
  949MOL0     H25260   0.972   7.469   5.759  0.4205  2.9874  0.6036
  949MOL0     H25261   0.932   7.586   5.881 -0.0604  1.0752  0.1921
  949MOL0     H25262   0.983   7.307   5.908  2.6513  2.2801  0.3028
  949MOL0     H25263   0.822   7.344   5.967  0.4804 -0.9394 -0.4248
  949MOL0     H25264   0.928   7.532   6.110 -1.7474 -1.7093  1.1619
  949MOL0     H25265   0.961   7.377   6.156  1.2126 -1.9189  0.1114
  949MOL0     H25266   1.352   7.487   6.054  0.3001  0.0383 -0.2594
  949MOL0     H25267   0.636   7.190   5.532 -0.6667  0.7300 -2.5528
  949MOL0     H25268   0.419   7.171   5.448 -0.3538 -0.6964  1.2229
  950MOL0     O25269  10.842   0.229   3.612  0.8934  0.1008 -0.3380
  950MOL0     C25270  10.829   0.303   3.709  0.4954 -0.3846  0.1961
  950MOL0     O25271  10.711   0.320   3.782 -0.0752 -0.2982  0.0040
  950MOL0     C25272  10.588   0.301   3.715  0.3280 -0.3177 -0.4277
  950MOL0     C25273  10.472   0.283   3.796 -0.9312 -0.5254 -0.3286
  950MOL0     C25274  10.347   0.275   3.736  0.1249  0.0278  0.7040
  950MOL0     C25275  10.333   0.307   3.598 -1.0020  0.0220 -0.1832
  950MOL0     O25276  10.205   0.304   3.548 -0.2892 -0.6370  0.0850
  950MOL0     C25277  10.154   0.443   3.508 -1.0736 -0.6384 -0.3585
  950MOL0     C25278  10.010   0.427   3.448 -1.4007 -0.6940  0.3200
  950MOL0     C25279   9.955   0.565   3.410 -0.1090  0.8873 -0.1312
  950MOL0     C25280   9.815   0.544   3.351  0.5925 -0.5471 -0.1562
  950MOL0     C25281   9.747   0.665   3.293 -0.2013 -0.2178  0.6515
  950MOL0     C25282   9.600   0.648   3.245 -1.0126  0.3545  0.1334
  950MOL0     C25283   9.540   0.772   3.186 -0.0824  0.0132 -0.1883
  950MOL0     C25284   9.392   0.755   3.152  0.3092 -1.3169  0.6820
  950MOL0     N25285   9.315   0.794   3.276 -0.0703  0.5669  0.7128
  950MOL0     C25286   9.249   0.914   3.283  0.3048  0.3968 -1.4097
  950MOL0     C25287   9.193   0.913   3.411 -0.1869  0.0553 -0.5934
  950MOL0     C25288   9.117   1.031   3.458  0.1073 -0.6758 -0.8856
  950MOL0     C25289   9.006   1.071   3.356 -0.5259 -0.1639 -0.2176
  950MOL0     C25290   8.883   1.130   3.430  0.4627  0.1034 -0.0500
  950MOL0     C25291   8.768   1.170   3.337 -0.2527  0.2822 -0.2072
  950MOL0     O25292   8.660   1.229   3.402 -0.1118  0.5082  0.5386
  950MOL0     C25293   8.568   1.296   3.325  0.1814 -1.0830  0.2320
  950MOL0     C25294   8.543   1.432   3.326  0.0209  0.0498 -0.2442
  950MOL0     C25295   8.445   1.490   3.244 -0.4465  0.0586 -0.2004
  950MOL0     C25296   8.375   1.412   3.153  0.1483  0.7971 -0.7514
  950MOL0     C25297   8.270   1.474   3.067 -0.4658  0.6049 -0.8028
  950MOL0     O25298   8.208   1.394   2.976 -0.4185  0.0341 -0.4365
  950MOL0     C25299   8.091   1.447   2.921  0.5977 -0.3520 -0.4713
  950MOL0     C25300   8.100   1.506   2.797  0.3656  0.3054  0.7873
  950MOL0     C25301   7.996   1.537   2.717  0.1299  0.5541  0.6450
  950MOL0     C25302   7.867   1.507   2.759  0.8104  0.8488  0.2848
  950MOL0     O25303   7.759   1.530   2.675 -0.1988 -0.2585  0.6086
  950MOL0     C25304   7.626   1.523   2.731 -0.0450  0.4352 -0.1613
  950MOL0     C25305   7.586   1.378   2.749  0.1583  0.0474  0.0107
  950MOL0     C25306   7.440   1.355   2.716 -0.0031  0.2468  0.4152
  950MOL0     C25307   7.410   1.203   2.723  0.0878 -0.7108 -0.0259
  950MOL0     C25308   7.263   1.183   2.688  0.2542 -0.4535  0.0419
  950MOL0     C25309   7.229   1.038   2.656 -1.0964  0.3283  0.3131
  950MOL0     C25310   7.227   0.955   2.790 -0.2607  0.5618  1.2128
  950MOL0     C25311   7.138   0.838   2.761  0.4090 -0.2774 -0.1796
  950MOL0    Cl25312   6.959   0.885   2.745 -0.0484 -0.2173 -0.2485
  950MOL0     C25313   7.852   1.454   2.894 -0.0052  0.1703 -0.7243
  950MOL0     C25314   7.964   1.420   2.972  0.1779 -0.4916 -1.0372
  950MOL0     O25315   8.232   1.592   3.083  0.1915  0.6542  0.2163
  950MOL0     C25316   8.410   1.275   3.143 -0.5251 -0.1307 -0.0620
  950MOL0     C25317   8.499   1.221   3.224 -0.4799  0.0150  0.6583
  950MOL0     N25318   9.230   0.798   3.483 -0.8805  0.5812 -0.3379
  950MOL0     N25319   9.299   0.733   3.396  0.0607  0.9143  0.4514
  950MOL0     C25320  10.451   0.332   3.520 -0.3929 -0.3303  0.1211
  950MOL0     C25321  10.575   0.339   3.576  0.3798 -1.1528 -0.6592
  950MOL0     C25322  10.948   0.384   3.756 -0.2557  0.5055 -0.1130
  950MOL0     C25323  10.934   0.475   3.866  0.4061 -0.4998  1.2521
  950MOL0     C25324  11.037   0.559   3.906  0.0987 -0.1395 -0.7862
  950MOL0     C25325  11.162   0.558   3.835  0.3595  0.0292 -0.4142
  950MOL0     O25326  11.245   0.656   3.882 -0.5025  0.2019  0.3860
  950MOL0     C25327  11.383   0.618   3.869 -0.4934 -0.2613  0.3084
  950MOL0     C25328  11.482   0.730   3.873 -0.7123 -0.3812 -0.6493
  950MOL0     C25329  11.442   0.822   3.991  0.4506 -0.6578  0.8201
  950MOL0     C25330  11.541   0.919   4.040  0.1782 -0.0098  0.7834
  950MOL0     C25331  11.657   0.851   4.101 -0.2572 -0.9011  0.3251
  950MOL0     C25332  11.765   0.824   4.144 -0.2731  0.0448 -0.9028
  950MOL0     C25333  11.173   0.474   3.720  0.7433  1.0365 -0.6036
  950MOL0     C25334  11.069   0.384   3.682 -0.0787  0.0842  0.6209
  950MOL0     H25335  10.494   0.286   3.902  2.5085  2.8336 -0.9157
  950MOL0     H25336  10.257   0.266   3.796  0.2589 -0.9804  0.7650
  950MOL0     H25337  10.218   0.486   3.430  2.4068  1.1021  3.0738
  950MOL0     H25338  10.155   0.509   3.596  0.7446 -0.8525 -0.1831
  950MOL0     H25339   9.951   0.388   3.531  2.8209 -1.0442  3.5096
  950MOL0     H25340  10.018   0.359   3.362  2.0467  0.0272 -0.0739
  950MOL0     H25341  10.019   0.611   3.334  1.2917 -0.3618  0.2284
  950MOL0     H25342   9.947   0.633   3.495 -1.0168 -0.6654  1.0850
  950MOL0     H25343   9.817   0.467   3.272  1.8974 -0.0673 -0.6169
  950MOL0     H25344   9.752   0.502   3.430  0.3515  1.6713  0.8774
  950MOL0     H25345   9.786   0.693   3.194 -1.9223 -0.0494 -0.0041
  950MOL0     H25346   9.760   0.756   3.353  1.4952  2.3615 -3.1790
  950MOL0     H25347   9.534   0.611   3.325  1.1834 -0.5308  1.6269
  950MOL0     H25348   9.583   0.563   3.179 -0.5608 -0.6509  1.2762
  950MOL0     H25349   9.560   0.852   3.258  1.3955 -1.2825  0.9456
  950MOL0     H25350   9.600   0.779   3.095  0.7253 -0.7971  0.2574
  950MOL0     H25351   9.367   0.661   3.101 -2.6034 -0.4482  0.3123
  950MOL0     H25352   9.365   0.826   3.073  1.7263 -0.7149  0.7122
  950MOL0     H25353   9.232   0.989   3.207  1.0804 -2.0276 -4.2131
  950MOL0     H25354   9.190   1.112   3.472  0.3197 -1.1499  1.0904
  950MOL0     H25355   9.072   1.008   3.555  0.1327 -0.0744 -0.7285
  950MOL0     H25356   8.968   0.984   3.303 -0.0560 -0.0663 -0.7189
  950MOL0     H25357   9.068   1.124   3.283  1.0577 -2.7347 -0.8698
  950MOL0     H25358   8.837   1.066   3.506 -1.2106  0.9897 -0.2703
  950MOL0     H25359   8.917   1.220   3.481  0.0603  1.2817 -1.7625
  950MOL0     H25360   8.741   1.078   3.284 -1.0451 -0.2445  1.0572
  950MOL0     H25361   8.801   1.239   3.259  0.6421 -1.3558 -1.3226
  950MOL0     H25362   8.610   1.477   3.399  2.8335 -2.5898 -1.0043
  950MOL0     H25363   8.427   1.596   3.258  1.5155  0.3343  0.6427
  950MOL0     H25364   8.202   1.530   2.768  0.7352 -0.5035  1.3580
  950MOL0     H25365   8.003   1.590   2.623  1.7054 -0.8015 -0.0698
  950MOL0     H25366   7.571   1.567   2.648  3.0225 -1.0866 -3.2379
  950MOL0     H25367   7.613   1.586   2.820 -1.7967  0.3177 -0.2965
  950MOL0     H25368   7.599   1.348   2.853 -4.4042 -3.2918 -0.0392
  950MOL0     H25369   7.645   1.313   2.684  0.1179  0.6936 -0.6795
  950MOL0     H25370   7.417   1.375   2.611  1.6729 -1.7168 -0.4008
  950MOL0     H25371   7.375   1.403   2.790  1.0051  4.4536 -1.1132
  950MOL0     H25372   7.468   1.147   2.649 -0.5020 -1.1058 -0.1962
  950MOL0     H25373   7.434   1.178   2.827  3.2939  2.1498  0.1188
  950MOL0     H25374   7.239   1.249   2.604  0.6994  2.3374  1.9921
  950MOL0     H25375   7.212   1.227   2.774  3.6724  0.6158  1.6827
  950MOL0     H25376   7.297   0.996   2.581  1.1163  1.3414  1.6443
  950MOL0     H25377   7.139   1.033   2.594  1.0232 -1.5819 -2.9400
  950MOL0     H25378   7.329   0.922   2.814  1.1616  1.3545 -2.9018
  950MOL0     H25379   7.185   1.012   2.873 -1.4564 -0.4830  1.3535
  950MOL0     H25380   7.144   0.771   2.848 -0.3522  0.5372  0.5122
  950MOL0     H25381   7.171   0.775   2.678 -0.5621 -3.4687  1.6768
  950MOL0     H25382   7.760   1.431   2.947 -0.1471  1.4747 -0.3556
  950MOL0     H25383   7.969   1.372   3.068  3.1486  0.9299 -0.3865
  950MOL0     H25384   8.351   1.211   3.078 -0.6118 -0.7019  0.5652
  950MOL0     H25385   8.514   1.114   3.210  0.9062  0.1515  0.8961
  950MOL0     H25386  10.446   0.357   3.414  2.3735 -1.0352 -0.2411
  950MOL0     H25387  10.660   0.372   3.518  1.2125 -2.1010 -0.0084
  950MOL0     H25388  10.834   0.484   3.908  0.5207 -0.3918  1.5043
  950MOL0     H25389  11.030   0.629   3.988  0.3705  1.0712 -1.7516
  950MOL0     H25390  11.391   0.569   3.772  0.7626 -1.8134  1.1277
  950MOL0     H25391  11.392   0.535   3.940 -0.1144 -0.5819 -0.1106
  950MOL0     H25392  11.583   0.694   3.894 -0.6989  1.2181  2.5953
  950MOL0     H25393  11.481   0.787   3.780  1.6595  1.2597  0.2330
  950MOL0     H25394  11.396   0.764   4.072 -0.7722  1.6172  1.8625
  950MOL0     H25395  11.365   0.882   3.941  2.8018  1.2259 -0.7571
  950MOL0     H25396  11.580   0.979   3.958  2.6125  0.4198  2.1448
  950MOL0     H25397  11.494   0.987   4.112  1.5203 -0.8597  2.5508
  950MOL0     H25398  11.856   0.804   4.196 -0.7690  1.7857  0.7226
  950MOL0     H25399  11.260   0.466   3.655 -0.6149  1.1671 -2.4986
  950MOL0     H25400  11.087   0.312   3.603  0.6699 -0.7211  1.4979
  951MOL0     O25401   5.428   4.757   8.784  0.0214 -0.3414  0.3983
  951MOL0     C25402   5.513   4.815   8.849 -0.6419 -0.5265 -0.3785
  951MOL0     O25403   5.496   4.899   8.954  0.4767 -0.7756 -0.3643
  951MOL0     C25404   5.371   4.903   9.006  1.3742  0.4149  0.1016
  951MOL0     C25405   5.260   4.951   8.926 -0.1813 -0.0564 -0.5146
  951MOL0     C25406   5.139   4.991   8.981  0.0994 -0.4707 -0.4282
  951MOL0     C25407   5.124   4.967   9.118  0.0963  1.0581 -1.5277
  951MOL0     O25408   5.018   5.009   9.199 -0.7848  0.2202 -0.2549
  951MOL0     C25409   4.889   5.037   9.139  0.0690 -0.9647 -0.0688
  951MOL0     C25410   4.828   4.908   9.084 -0.1122  0.1882  0.4334
  951MOL0     C25411   4.699   4.923   9.007  0.2012  0.1930  0.3679
  951MOL0     C25412   4.579   4.965   9.099 -0.0693  0.0162 -0.2141
  951MOL0     C25413   4.462   5.002   9.004  0.3079  0.3893  0.0642
  951MOL0     C25414   4.342   5.041   9.089  0.7154 -0.0160 -0.9958
  951MOL0     C25415   4.352   5.184   9.150 -0.4734  0.4037  0.4378
  951MOL0     C25416   4.247   5.218   9.263 -0.0116 -0.6746  0.3955
  951MOL0     N25417   4.110   5.210   9.226  1.0399  0.1762  0.1595
  951MOL0     C25418   4.014   5.107   9.227 -0.7829 -0.8716 -0.3536
  951MOL0     C25419   3.899   5.154   9.180  0.0782  0.0811 -0.6248
  951MOL0     C25420   3.765   5.089   9.169  0.7749  0.0988  0.0272
  951MOL0     C25421   3.683   5.072   9.299 -0.6746  0.2022 -0.3282
  951MOL0     C25422   3.546   5.004   9.271  0.1240  0.2812 -0.4097
  951MOL0     C25423   3.437   5.110   9.269  0.1959  0.7804  0.0007
  951MOL0     O25424   3.404   5.158   9.397  0.0163 -0.1439  0.3060
  951MOL0     C25425   3.305   5.082   9.463 -0.0887 -0.4193  0.2132
  951MOL0     C25426   3.245   5.145   9.576 -0.0796 -0.7917  0.1307
  951MOL0     C25427   3.137   5.086   9.642  0.4946 -0.0943 -0.4303
  951MOL0     C25428   3.090   4.955   9.607  0.6476 -0.2317 -0.1262
  951MOL0     C25429   2.979   4.903   9.685  0.7424 -0.0625  0.0353
  951MOL0     O25430   2.930   4.787   9.641  0.2836 -0.7501  0.1642
  951MOL0     C25431   2.823   4.731   9.705 -0.3010 -0.1430 -0.3095
  951MOL0     C25432   2.717   4.680   9.627  0.0865 -0.0744  0.4821
  951MOL0     C25433   2.607   4.606   9.680 -0.3655 -0.3152  0.2685
  951MOL0     C25434   2.604   4.583   9.823 -0.8531 -0.0436  0.2096
  951MOL0     O25435   2.500   4.518   9.874  0.3095 -0.8969  0.6066
  951MOL0     C25436   2.508   4.471  10.010 -0.0359 -0.1982  0.6031
  951MOL0     C25437   2.438   4.343  10.029  0.1856  0.0143 -0.4400
  951MOL0     C25438   2.275   4.347  10.015 -0.3507  0.2138 -0.2442
  951MOL0     C25439   2.209   4.217  10.057  0.1257 -0.3788  0.2251
  951MOL0     C25440   2.066   4.243  10.066  0.5789 -0.3622  0.4614
  951MOL0     C25441   1.994   4.128  10.132  0.3348 -0.1699 -0.0850
  951MOL0     C25442   2.010   4.004  10.053 -0.7012 -0.8815  0.2951
  951MOL0     C25443   1.894   3.912  10.083 -0.5677  0.6216 -0.2402
  951MOL0    Cl25444   1.742   3.977  10.003 -0.5263 -0.0964  0.7702
  951MOL0     C25445   2.715   4.634   9.891  0.2720  0.4759 -0.5061
  951MOL0     C25446   2.825   4.699   9.837  0.7634 -0.0681 -0.1386
  951MOL0     O25447   2.944   4.960   9.792 -0.6797  1.3516 -0.1865
  951MOL0     C25448   3.145   4.891   9.495 -0.3693 -1.2113  0.4620
  951MOL0     C25449   3.253   4.959   9.427 -0.3959 -0.0365  0.0095
  951MOL0     N25450   3.919   5.286   9.157 -0.2768 -0.3312 -0.4221
  951MOL0     N25451   4.038   5.323   9.182  0.4450  0.0107  0.5433
  951MOL0     C25452   5.230   4.922   9.201  0.0747  0.3759  0.3899
  951MOL0     C25453   5.352   4.886   9.140 -0.3408 -0.5307 -0.6765
  951MOL0     C25454   5.649   4.786   8.800  0.5577 -0.3851 -0.0512
  951MOL0     C25455   5.673   4.687   8.704  0.4563 -0.0927  0.5323
  951MOL0     C25456   5.804   4.665   8.659  0.0311 -0.0396  0.3106
  951MOL0     C25457   5.908   4.744   8.714 -0.3342  0.2000 -0.2014
  951MOL0     O25458   6.041   4.715   8.680 -0.3081  0.2336 -0.1756
  951MOL0     C25459   6.074   4.570   8.681 -0.5460  0.7913 -0.2446
  951MOL0     C25460   6.228   4.558   8.670 -0.8672 -0.3844  0.6342
  951MOL0     C25461   6.303   4.665   8.569 -0.5489  0.4053  0.0782
  951MOL0     C25462   6.239   4.676   8.431 -0.7601 -0.0310 -0.2737
  951MOL0     C25463   6.286   4.791   8.357 -1.2498 -0.4837  0.0673
  951MOL0     C25464   6.328   4.894   8.308 -0.0228  0.1930 -0.7439
  951MOL0     C25465   5.882   4.842   8.806 -0.5090  0.3915 -0.0219
  951MOL0     C25466   5.758   4.860   8.854 -0.4771  0.1264 -0.5118
  951MOL0     H25467   5.278   4.984   8.824 -1.4882 -0.3148 -0.8453
  951MOL0     H25468   5.061   5.022   8.912 -1.3100 -2.6110  0.0865
  951MOL0     H25469   4.908   5.112   9.062 -0.7776 -0.2514  0.3920
  951MOL0     H25470   4.826   5.088   9.213  0.2471  1.0076 -1.2106
  951MOL0     H25471   4.813   4.840   9.169  1.7764 -3.0668 -1.6283
  951MOL0     H25472   4.895   4.850   9.021 -2.0065  0.8427 -2.3652
  951MOL0     H25473   4.671   4.838   8.945 -2.2173  0.6238  0.7859
  951MOL0     H25474   4.712   5.003   8.933 -0.0752  0.6297  0.7814
  951MOL0     H25475   4.554   4.876   9.157 -0.2544 -1.6072 -2.6427
  951MOL0     H25476   4.607   5.045   9.169 -1.7881 -1.8060  2.7615
  951MOL0     H25477   4.428   4.917   8.945  0.3686  0.5974 -0.2791
  951MOL0     H25478   4.499   5.085   8.941 -1.2966  0.2144 -1.1583
  951MOL0     H25479   4.317   4.965   9.163  2.3540 -2.3598 -2.6943
  951MOL0     H25480   4.259   5.043   9.018 -0.0657 -0.3943 -0.1129
  951MOL0     H25481   4.448   5.182   9.204  0.7979 -2.9018 -1.6428
  951MOL0     H25482   4.348   5.262   9.075 -3.7020 -0.5365 -0.5045
  951MOL0     H25483   4.273   5.322   9.286  1.3665 -0.8764 -0.1685
  951MOL0     H25484   4.265   5.158   9.352 -2.5709 -1.0140  0.7627
  951MOL0     H25485   4.046   5.007   9.256 -1.9418 -1.2366 -0.2926
  951MOL0     H25486   3.776   4.995   9.115 -1.8253  0.9731 -2.2361
  951MOL0     H25487   3.701   5.151   9.106  0.5787  0.8567  0.9447
  951MOL0     H25488   3.661   5.165   9.351 -0.4764 -0.5696  1.1970
  951MOL0     H25489   3.749   5.015   9.365  1.7663  1.8426 -1.2351
  951MOL0     H25490   3.543   4.951   9.175  1.9178 -2.7597  1.0582
  951MOL0     H25491   3.525   4.934   9.352 -2.2106 -0.5619 -1.6593
  951MOL0     H25492   3.360   5.050   9.220 -0.8733  0.7811  1.6128
  951MOL0     H25493   3.455   5.194   9.201 -1.5248  0.4469 -0.9221
  951MOL0     H25494   3.285   5.238   9.615 -0.7568 -0.9261  1.1588
  951MOL0     H25495   3.101   5.146   9.725 -1.2645 -0.5425 -0.8170
  951MOL0     H25496   2.719   4.705   9.522  0.7309  0.9299  0.7201
  951MOL0     H25497   2.516   4.573   9.632 -0.2645 -0.7501  0.3699
  951MOL0     H25498   2.477   4.556  10.070  1.6201  0.8083  0.1020
  951MOL0     H25499   2.611   4.439  10.030 -0.4449 -2.4146 -0.5728
  951MOL0     H25500   2.458   4.311  10.131 -1.0980 -1.4668 -0.5990
  951MOL0     H25501   2.476   4.262   9.966 -0.4377 -0.7785  0.1712
  951MOL0     H25502   2.239   4.366   9.914 -2.0937 -0.2004  0.2653
  951MOL0     H25503   2.240   4.427  10.081  3.0688 -0.0050  2.1102
  951MOL0     H25504   2.248   4.143   9.987  2.9981  0.1766  1.1351
  951MOL0     H25505   2.243   4.170  10.150 -1.2512 -3.3250 -0.6200
  951MOL0     H25506   2.026   4.253   9.965  1.7268 -0.4975 -0.0173
  951MOL0     H25507   2.041   4.332  10.124 -6.0321 -0.4535 -1.4767
  951MOL0     H25508   1.891   4.162  10.145  0.9375  1.8497 -0.2556
  951MOL0     H25509   2.033   4.102  10.231 -3.8852 -5.4573  0.6447
  951MOL0     H25510   2.015   4.017   9.944  1.5192 -2.9314  0.0659
  951MOL0     H25511   2.099   3.949  10.086  1.2454  1.3467 -0.9660
  951MOL0     H25512   1.880   3.899  10.190  0.1279 -0.3763 -0.2592
  951MOL0     H25513   1.926   3.817  10.039  1.7212  2.8046 -3.8441
  951MOL0     H25514   2.724   4.619   9.998  0.2616  2.1217 -0.2489
  951MOL0     H25515   2.906   4.730   9.902  1.1402 -2.3833  0.5697
  951MOL0     H25516   3.106   4.794   9.466 -1.1470 -0.3115 -1.6938
  951MOL0     H25517   3.289   4.902   9.341  2.6187  1.6315  0.0454
  951MOL0     H25518   5.217   4.909   9.308 -1.8784  1.3642  0.3278
  951MOL0     H25519   5.439   4.872   9.202  0.6124  1.6120 -1.4511
  951MOL0     H25520   5.590   4.629   8.665 -0.8134  1.6325  0.5204
  951MOL0     H25521   5.820   4.597   8.576 -0.2878 -0.5368  0.6492
  951MOL0     H25522   6.026   4.510   8.603 -1.8412 -1.4205  2.0919
  951MOL0     H25523   6.041   4.535   8.779  1.3347 -0.5584 -0.0569
  951MOL0     H25524   6.280   4.560   8.766  3.1686 -2.5691 -1.2673
  951MOL0     H25525   6.241   4.457   8.631 -0.5124 -0.4317  0.8660
  951MOL0     H25526   6.408   4.633   8.563 -0.9226 -1.3337  1.7876
  951MOL0     H25527   6.312   4.761   8.621 -0.6541  1.6262 -2.0600
  951MOL0     H25528   6.253   4.577   8.385 -0.3090 -0.2566  0.3401
  951MOL0     H25529   6.131   4.691   8.444 -0.8344  0.7424 -1.6392
  951MOL0     H25530   6.358   4.978   8.250  1.0406 -0.4196 -1.1156
  951MOL0     H25531   5.956   4.904   8.856 -2.2989  2.9920 -0.4024
  951MOL0     H25532   5.748   4.922   8.942  0.4841 -2.3905  1.5122
  952MOL0     O25533   1.770   5.009   4.156 -0.5510 -0.0088  0.1985
  952MOL0     C25534   1.770   5.035   4.274 -0.7477 -0.7955 -0.4285
  952MOL0     O25535   1.661   5.031   4.355 -0.1832  1.0781 -0.3254
  952MOL0     C25536   1.537   5.018   4.307  0.2440 -0.9034  0.8778
  952MOL0     C25537   1.437   5.005   4.408 -0.1541 -0.3030  0.2801
  952MOL0     C25538   1.298   5.006   4.381  0.1723  0.5446 -0.3471
  952MOL0     C25539   1.252   5.007   4.248 -0.0631  0.0153  0.9570
  952MOL0     O25540   1.119   4.987   4.211 -0.4368  0.5459  0.1195
  952MOL0     C25541   1.032   4.924   4.303  0.6368  0.5004  0.3138
  952MOL0     C25542   0.901   4.882   4.226  0.2430  0.3553 -0.0146
  952MOL0     C25543   0.792   4.821   4.317 -0.9656 -0.5335  0.3225
  952MOL0     C25544   0.662   4.799   4.238 -0.7116 -0.3395  0.2671
  952MOL0     C25545   0.561   4.718   4.317 -0.3045 -0.4243 -0.2602
  952MOL0     C25546   0.484   4.811   4.414  0.1890 -0.8680  0.2419
  952MOL0     C25547   0.367   4.879   4.342 -1.0812 -0.1905  0.2295
  952MOL0     C25548   0.254   4.768   4.325 -0.5324 -1.0557  0.5668
  952MOL0     N25549   0.118   4.826   4.304  0.0826 -0.4291  1.1553
  952MOL0     C25550   0.056   4.908   4.394 -0.0155  0.3048 -0.1370
  952MOL0     C25551  -0.060   4.943   4.337  0.3129  0.1720  0.2861
  952MOL0     C25552  -0.173   5.027   4.392 -0.6343 -0.0780  0.2780
  952MOL0     C25553  -0.313   4.966   4.392  0.4020 -0.0757 -0.1897
  952MOL0     C25554  -0.414   5.081   4.382  0.6738 -0.4148 -0.7502
  952MOL0     C25555  -0.421   5.147   4.245  0.4360 -0.0791  0.2143
  952MOL0     O25556  -0.508   5.265   4.243  0.1593  0.0507 -0.5566
  952MOL0     C25557  -0.641   5.243   4.278 -0.0104  0.7882 -0.3325
  952MOL0     C25558  -0.742   5.181   4.200 -0.3452 -0.1452 -1.0452
  952MOL0     C25559  -0.873   5.165   4.249 -0.1444  0.4899  0.4808
  952MOL0     C25560  -0.907   5.200   4.383  0.3486 -0.1111  0.0870
  952MOL0     C25561  -1.045   5.173   4.426  1.3455 -0.5438  0.1938
  952MOL0     O25562  -1.119   5.095   4.341 -0.9093 -0.6764  0.0022
  952MOL0     C25563  -1.250   5.065   4.358 -0.1701  0.0156  0.4464
  952MOL0     C25564  -1.342   5.129   4.283 -0.4965 -0.2733 -0.4308
  952MOL0     C25565  -1.479   5.108   4.293 -0.1471  0.4424  0.7808
  952MOL0     C25566  -1.525   5.013   4.388  0.3274 -0.5824  0.6532
  952MOL0     O25567  -1.654   4.978   4.407  0.1698  0.1480  0.1592
  952MOL0     C25568  -1.746   5.009   4.298 -0.0563 -0.5580 -0.1635
  952MOL0     C25569  -1.869   4.916   4.313 -0.5013 -0.0894  0.2795
  952MOL0     C25570  -1.967   4.944   4.201  0.3839  0.9661 -0.0143
  952MOL0     C25571  -2.075   4.834   4.212  0.4049  0.5101 -0.9205
  952MOL0     C25572  -2.207   4.886   4.155  0.1480 -0.9791  0.1569
  952MOL0     C25573  -2.318   4.786   4.188 -0.4382  0.0690  0.3838
  952MOL0     C25574  -2.455   4.848   4.170 -0.2807 -0.4344  0.2471
  952MOL0     C25575  -2.567   4.750   4.175 -0.1127  0.3307  0.9934
  952MOL0    Cl25576  -2.565   4.650   4.014  0.3280 -0.2322  0.1112
  952MOL0     C25577  -1.431   4.933   4.448  0.3779  0.2404  0.3571
  952MOL0     C25578  -1.289   4.961   4.439  0.4750 -0.0062  0.2526
  952MOL0     O25579  -1.087   5.228   4.525 -0.0547  0.2208  0.4998
  952MOL0     C25580  -0.813   5.273   4.461 -0.5146 -0.2027  0.6189
  952MOL0     C25581  -0.685   5.301   4.394 -0.8049 -0.1060 -0.6636
  952MOL0     N25582  -0.059   4.889   4.209  0.7424 -0.7195  0.3408
  952MOL0     N25583   0.042   4.809   4.192  0.5057  0.4887  0.2834
  952MOL0     C25584   1.344   5.022   4.147 -0.4322  0.9362  0.1676
  952MOL0     C25585   1.482   5.027   4.177 -0.0056  0.4216 -0.0072
  952MOL0     C25586   1.901   5.090   4.327 -1.0492 -0.2620  0.2878
  952MOL0     C25587   1.923   5.090   4.460  0.0254 -0.3751 -0.1235
  952MOL0     C25588   2.038   5.146   4.516  0.4127  1.0649 -0.6718
  952MOL0     C25589   2.134   5.207   4.441  0.3195 -0.8304  0.4964
  952MOL0     O25590   2.240   5.261   4.498 -0.3035 -0.3146 -0.3073
  952MOL0     C25591   2.342   5.335   4.429 -0.3811 -0.0563 -0.2900
  952MOL0     C25592   2.466   5.249   4.411 -0.3257  0.5153  0.6144
  952MOL0     C25593   2.525   5.205   4.549 -0.4409 -0.1938 -0.5721
  952MOL0     C25594   2.675   5.241   4.566 -0.2631  0.9012  0.1736
  952MOL0     C25595   2.755   5.146   4.489 -0.2371  1.1494 -0.5365
  952MOL0     C25596   2.799   5.059   4.421  1.0380  0.1271  0.3738
  952MOL0     C25597   2.109   5.204   4.300 -0.1565 -0.6686  0.2325
  952MOL0     C25598   1.994   5.158   4.245  0.5397  0.2390  0.0013
  952MOL0     H25599   1.472   5.016   4.510  0.3794  1.3247 -0.0345
  952MOL0     H25600   1.232   4.999   4.467 -0.7363 -1.7131 -1.1578
  952MOL0     H25601   0.997   4.990   4.383 -0.2246  0.7739 -0.2699
  952MOL0     H25602   1.073   4.827   4.334  1.2131  1.2418  1.9996
  952MOL0     H25603   0.923   4.799   4.158 -1.2398 -2.0144  2.2346
  952MOL0     H25604   0.869   4.969   4.168 -1.5832 -1.1881 -1.4701
  952MOL0     H25605   0.775   4.890   4.401  0.6746  2.1796 -1.4232
  952MOL0     H25606   0.836   4.728   4.352  0.4092 -0.1319 -0.2884
  952MOL0     H25607   0.615   4.893   4.206  1.4247  1.1601  1.3392
  952MOL0     H25608   0.695   4.759   4.142 -0.3095  2.7148 -0.9970
  952MOL0     H25609   0.618   4.650   4.382 -0.4719  1.0264  1.4742
  952MOL0     H25610   0.506   4.641   4.263  1.6630 -1.3921 -0.9821
  952MOL0     H25611   0.543   4.898   4.442 -1.4340 -0.2683  2.0025
  952MOL0     H25612   0.453   4.757   4.504 -2.8840  0.3327  0.0081
  952MOL0     H25613   0.322   4.959   4.400 -3.9324 -1.8526  0.5174
  952MOL0     H25614   0.382   4.923   4.243 -3.2078  0.7332  0.2530
  952MOL0     H25615   0.254   4.702   4.412  1.0338 -0.9946  0.6380
  952MOL0     H25616   0.270   4.702   4.239 -4.4122  0.7630 -1.8525
  952MOL0     H25617   0.093   4.933   4.493  0.5807 -1.4139  0.1177
  952MOL0     H25618  -0.164   5.125   4.344  0.9901  1.2302  2.9972
  952MOL0     H25619  -0.155   5.046   4.498  0.1737  0.5749  0.0354
  952MOL0     H25620  -0.331   4.898   4.476  0.3820  0.1538 -0.0075
  952MOL0     H25621  -0.317   4.897   4.308 -1.0238 -0.7969  0.4363
  952MOL0     H25622  -0.514   5.050   4.414  1.0661  0.1791  1.2172
  952MOL0     H25623  -0.392   5.161   4.454 -0.5828  0.9301 -1.7991
  952MOL0     H25624  -0.468   5.072   4.180 -1.6844  1.8859 -0.6717
  952MOL0     H25625  -0.324   5.158   4.195  0.2235 -0.1034 -0.2118
  952MOL0     H25626  -0.727   5.147   4.099 -0.2518  1.1477 -1.4915
  952MOL0     H25627  -0.945   5.123   4.178 -0.1820  0.8630  0.2958
  952MOL0     H25628  -1.307   5.206   4.215 -0.0700 -0.9075 -0.9416
  952MOL0     H25629  -1.549   5.172   4.240  0.0614  0.1159  0.1072
  952MOL0     H25630  -1.708   4.979   4.200  0.3045 -2.9238  0.6237
  952MOL0     H25631  -1.773   5.114   4.306  2.0099  0.0020 -0.0598
  952MOL0     H25632  -1.919   4.933   4.409 -6.0334  1.1565 -2.4208
  952MOL0     H25633  -1.839   4.813   4.292 -0.7708 -0.1818  0.3497
  952MOL0     H25634  -1.923   4.939   4.101 -1.0648  0.8125 -0.6783
  952MOL0     H25635  -2.007   5.041   4.230 -0.4370 -0.1264  2.8717
  952MOL0     H25636  -2.038   4.749   4.155 -0.4220 -1.6779  1.5722
  952MOL0     H25637  -2.092   4.806   4.317  0.0084 -2.5043 -1.6994
  952MOL0     H25638  -2.193   4.903   4.048 -0.4391 -0.8390  0.1031
  952MOL0     H25639  -2.229   4.982   4.203  1.0521 -0.9134  0.4641
  952MOL0     H25640  -2.314   4.748   4.290 -1.2268  0.5672  0.6026
  952MOL0     H25641  -2.302   4.707   4.114  0.2141  2.5279 -2.2922
  952MOL0     H25642  -2.470   4.910   4.258 -0.2155  0.5840 -0.4418
  952MOL0     H25643  -2.462   4.913   4.082 -0.4134  0.3838  0.8561
  952MOL0     H25644  -2.667   4.790   4.192 -0.0932  1.7819 -1.7537
  952MOL0     H25645  -2.555   4.677   4.255  0.7362 -0.2335  0.3713
  952MOL0     H25646  -1.458   4.860   4.523  0.9369 -0.3635 -0.0101
  952MOL0     H25647  -1.204   4.917   4.490  1.7368 -0.1109 -1.8346
  952MOL0     H25648  -0.830   5.307   4.562  1.4303  1.6777  0.3939
  952MOL0     H25649  -0.624   5.369   4.452 -0.9157  0.4485 -1.1934
  952MOL0     H25650   1.299   4.998   4.051 -1.0937 -3.7084  1.3933
  952MOL0     H25651   1.540   5.039   4.086  0.6091  0.2143  0.3531
  952MOL0     H25652   1.845   5.043   4.520 -0.1506  1.2117  0.9555
  952MOL0     H25653   2.053   5.143   4.623 -1.3288  0.6773 -0.3989
  952MOL0     H25654   2.358   5.428   4.484 -2.8288  0.9200 -1.0696
  952MOL0     H25655   2.305   5.375   4.335 -0.7458  0.6828  0.1550
  952MOL0     H25656   2.423   5.160   4.363 -2.1731  2.5774 -1.8070
  952MOL0     H25657   2.542   5.300   4.352 -1.7099  0.9502 -0.8879
  952MOL0     H25658   2.508   5.098   4.554  1.0129 -0.3984  3.6415
  952MOL0     H25659   2.466   5.254   4.628  0.8066  0.4915 -0.0347
  952MOL0     H25660   2.696   5.338   4.521  1.4701  0.0675 -0.9189
  952MOL0     H25661   2.718   5.246   4.666 -1.4875  1.0437  0.7108
  952MOL0     H25662   2.840   4.983   4.357 -0.8737 -1.4526  0.8971
  952MOL0     H25663   2.183   5.253   4.238  0.6597  0.1648  1.7943
  952MOL0     H25664   1.963   5.146   4.142  1.0828 -4.2588  0.1622
  953MOL0     O25665   7.100   6.121   6.794  0.3941  0.7470 -0.1448
  953MOL0     C25666   7.147   6.233   6.779  0.8821  0.1743  0.0454
  953MOL0     O25667   7.091   6.336   6.706  0.1703  0.0207 -1.2473
  953MOL0     C25668   6.954   6.326   6.671 -0.4290 -0.2259 -0.4205
  953MOL0     C25669   6.854   6.270   6.756  0.5862  0.0763  0.8867
  953MOL0     C25670   6.717   6.258   6.707 -0.2931 -0.1454  0.1756
  953MOL0     C25671   6.677   6.333   6.596  1.0782  0.3086 -0.6565
  953MOL0     O25672   6.549   6.331   6.543 -0.4501 -0.3377 -0.4808
  953MOL0     C25673   6.442   6.344   6.635 -0.4302  0.5392 -0.0903
  953MOL0     C25674   6.306   6.291   6.577  0.1720 -0.7531  0.6324
  953MOL0     C25675   6.192   6.342   6.680 -0.6781  0.8050  0.1313
  953MOL0     C25676   6.049   6.321   6.646 -0.1208  0.0306 -0.3299
  953MOL0     C25677   5.949   6.410   6.724  0.6881 -0.4972 -0.0419
  953MOL0     C25678   5.803   6.383   6.696 -0.1008  0.0790 -0.2124
  953MOL0     C25679   5.714   6.482   6.778  0.5117 -0.3164  0.6146
  953MOL0     C25680   5.732   6.633   6.727  0.7420 -0.6245  0.2513
  953MOL0     N25681   5.634   6.724   6.789  0.7719 -0.8017 -0.2093
  953MOL0     C25682   5.499   6.701   6.806  0.3102  0.0750  0.1447
  953MOL0     C25683   5.455   6.797   6.888 -0.7833  0.2996  0.4651
  953MOL0     C25684   5.316   6.837   6.915  0.1614  0.4488  0.1715
  953MOL0     C25685   5.248   6.774   7.035 -0.3151  0.7230 -0.8551
  953MOL0     C25686   5.214   6.625   7.005  0.7446  0.5417  0.7820
  953MOL0     C25687   5.106   6.571   7.093  0.4218 -0.2651 -0.5959
  953MOL0     O25688   4.989   6.651   7.088  0.4030 -0.5503  0.5780
  953MOL0     C25689   4.871   6.590   7.109 -0.2133 -0.8438  0.1635
  953MOL0     C25690   4.848   6.506   7.216 -0.2636  0.0714 -0.0034
  953MOL0     C25691   4.727   6.434   7.233  0.0863 -0.0850 -0.3873
  953MOL0     C25692   4.612   6.463   7.167 -0.6886 -0.1324  0.3903
  953MOL0     C25693   4.479   6.400   7.185 -0.4488  0.3696  0.5728
  953MOL0     O25694   4.368   6.469   7.149  0.0902 -0.2837  0.2205
  953MOL0     C25695   4.242   6.412   7.159 -0.4613 -0.3092 -0.3268
  953MOL0     C25696   4.218   6.293   7.082 -0.6864  0.2959 -0.6133
  953MOL0     C25697   4.087   6.231   7.089  0.8237 -0.1427  0.2392
  953MOL0     C25698   3.993   6.289   7.173 -0.7118 -0.0053  0.0769
  953MOL0     O25699   3.873   6.221   7.180 -0.0156 -0.4929 -0.2294
  953MOL0     C25700   3.791   6.250   7.303  0.1480  0.5558 -0.7234
  953MOL0     C25701   3.691   6.142   7.340  0.3155 -0.4249  0.5600
  953MOL0     C25702   3.605   6.085   7.221  0.1473  0.4894 -0.4684
  953MOL0     C25703   3.504   5.977   7.291  0.6472  0.0064  0.1658
  953MOL0     C25704   3.419   5.907   7.177  0.0572 -0.6528 -0.9960
  953MOL0     C25705   3.308   5.996   7.112  0.7868 -0.0997 -0.1150
  953MOL0     C25706   3.206   5.922   7.019 -0.1897 -0.1041  0.0988
  953MOL0     C25707   3.130   5.800   7.086  0.0134  0.0625  0.7616
  953MOL0    Cl25708   3.008   5.872   7.185  0.5863  0.2247 -0.1418
  953MOL0     C25709   4.014   6.406   7.237 -0.4524  0.0186 -0.7453
  953MOL0     C25710   4.138   6.472   7.230  0.0770  0.0601  0.3709
  953MOL0     O25711   4.477   6.283   7.222  0.2145  0.6137 -0.5430
  953MOL0     C25712   4.626   6.570   7.080 -0.3238 -0.8274  0.0145
  953MOL0     C25713   4.749   6.627   7.044 -0.2128  0.2253  0.1390
  953MOL0     N25714   5.567   6.871   6.926 -0.4277  0.3734 -1.4161
  953MOL0     N25715   5.670   6.833   6.865  0.3101  0.1738  0.4217
  953MOL0     C25716   6.774   6.400   6.519  0.6343  0.2538  0.3341
  953MOL0     C25717   6.909   6.390   6.556  0.5814 -0.3512 -0.0812
  953MOL0     C25718   7.272   6.255   6.848 -0.3083  0.4656  0.7211
  953MOL0     C25719   7.347   6.143   6.884 -0.2972 -0.9548  0.5729
  953MOL0     C25720   7.482   6.157   6.938 -0.2954 -0.5557  0.8523
  953MOL0     C25721   7.549   6.281   6.934 -0.6177 -0.5924  0.5693
  953MOL0     O25722   7.678   6.309   6.972  0.4260  0.7845  0.1646
  953MOL0     C25723   7.769   6.196   6.991  0.1673  0.6484  0.7905
  953MOL0     C25724   7.907   6.242   7.006 -0.1675 -0.4799  0.4783
  953MOL0     C25725   7.972   6.302   6.878  0.4963 -0.5350 -0.6220
  953MOL0     C25726   8.127   6.304   6.888 -0.1588 -0.7825  0.8257
  953MOL0     C25727   8.176   6.407   6.799 -0.3741  0.2129  0.2665
  953MOL0     C25728   8.210   6.506   6.736 -0.3897  0.6002 -0.0786
  953MOL0     C25729   7.471   6.387   6.897  0.0649  0.1089 -0.0875
  953MOL0     C25730   7.334   6.379   6.855  0.3335  0.2024 -0.3807
  953MOL0     H25731   6.890   6.227   6.849  0.2003 -2.6380 -0.1321
  953MOL0     H25732   6.644   6.195   6.756 -0.5640  0.6660  0.8381
  953MOL0     H25733   6.438   6.451   6.657  0.9381  0.3310  1.3556
  953MOL0     H25734   6.461   6.297   6.732 -2.1983 -1.2090 -0.5291
  953MOL0     H25735   6.310   6.183   6.562 -0.5597 -0.6209 -0.6620
  953MOL0     H25736   6.289   6.342   6.482  1.0856  1.5546  1.6441
  953MOL0     H25737   6.198   6.451   6.692  1.0756  0.6287  1.2380
  953MOL0     H25738   6.221   6.302   6.777 -0.2968  1.5778  0.3438
  953MOL0     H25739   6.049   6.336   6.538  1.0130 -0.7221 -0.4480
  953MOL0     H25740   6.033   6.213   6.656 -0.1216  0.2026  2.1431
  953MOL0     H25741   5.982   6.513   6.704 -2.3935  0.2740 -1.7766
  953MOL0     H25742   5.957   6.388   6.831 -0.5694 -0.4763  0.0692
  953MOL0     H25743   5.773   6.286   6.736 -3.0415  1.0040  0.1266
  953MOL0     H25744   5.787   6.396   6.588  2.0275  4.6513 -0.1985
  953MOL0     H25745   5.608   6.459   6.760  0.3344  1.2266 -0.4803
  953MOL0     H25746   5.730   6.482   6.887  0.5849  6.6648  1.0230
  953MOL0     H25747   5.711   6.631   6.620  2.2140  3.4063 -0.2797
  953MOL0     H25748   5.832   6.677   6.733  0.2364  0.7569 -0.7971
  953MOL0     H25749   5.449   6.622   6.751  1.9375 -0.5006 -0.5982
  953MOL0     H25750   5.254   6.813   6.828  0.8522  1.0580 -0.4986
  953MOL0     H25751   5.320   6.946   6.926  2.2964  0.7968 -2.7854
  953MOL0     H25752   5.158   6.827   7.068 -0.4370 -0.1551  0.2762
  953MOL0     H25753   5.316   6.769   7.121  0.2736 -2.0306 -1.3787
  953MOL0     H25754   5.163   6.613   6.909 -0.9804  1.0612  1.5874
  953MOL0     H25755   5.300   6.559   7.016 -0.5256 -0.8824  3.0260
  953MOL0     H25756   5.138   6.580   7.197  1.7956  0.2777 -1.0448
  953MOL0     H25757   5.087   6.466   7.069  0.6442 -1.5575  3.9103
  953MOL0     H25758   4.929   6.491   7.287  0.3061  0.4051 -0.5722
  953MOL0     H25759   4.724   6.348   7.300  2.0348 -0.6857 -1.0120
  953MOL0     H25760   4.299   6.236   7.038  0.1642  0.3101  0.8777
  953MOL0     H25761   4.066   6.139   7.036  1.1350 -0.2693  0.3388
  953MOL0     H25762   3.740   6.346   7.289 -1.5841  0.3123  2.8319
  953MOL0     H25763   3.845   6.270   7.396 -1.2361  1.5163 -0.0797
  953MOL0     H25764   3.626   6.181   7.419 -0.3218 -0.6386  0.1471
  953MOL0     H25765   3.753   6.060   7.379  1.1485  1.0448  2.5246
  953MOL0     H25766   3.665   6.024   7.153  1.3233  2.3218 -1.1302
  953MOL0     H25767   3.546   6.164   7.175 -0.1315 -0.5304 -1.9156
  953MOL0     H25768   3.564   5.903   7.345  2.1511  1.0153 -0.0541
  953MOL0     H25769   3.438   6.032   7.358  0.6474 -0.2578  0.3852
  953MOL0     H25770   3.358   5.828   7.222  0.9354 -1.3600 -1.0071
  953MOL0     H25771   3.488   5.862   7.105  2.3656 -0.0942  0.7416
  953MOL0     H25772   3.363   6.071   7.056  0.4818  0.5326  0.4213
  953MOL0     H25773   3.241   6.043   7.185  1.3094 -0.6038  0.7082
  953MOL0     H25774   3.132   5.998   6.993  1.1913  1.1899 -0.2475
  953MOL0     H25775   3.259   5.890   6.928 -1.3972  1.4934 -1.2293
  953MOL0     H25776   3.204   5.731   7.128 -0.1169 -0.8291 -0.4302
  953MOL0     H25777   3.083   5.737   7.011 -0.6299 -2.0085  2.7912
  953MOL0     H25778   3.935   6.456   7.293 -0.0977  0.0358 -0.2551
  953MOL0     H25779   4.139   6.570   7.278 -2.3182 -0.0266  0.7410
  953MOL0     H25780   4.534   6.614   7.043 -2.5611 -2.4758  3.2074
  953MOL0     H25781   4.762   6.701   6.966 -2.5582  0.7325  0.1564
  953MOL0     H25782   6.749   6.459   6.432 -0.2099 -0.9156 -0.2431
  953MOL0     H25783   6.985   6.448   6.504  0.4695 -0.7613 -0.7223
  953MOL0     H25784   7.305   6.044   6.875 -0.5883 -0.8326  0.5802
  953MOL0     H25785   7.538   6.071   6.970 -0.8268 -1.3046 -0.1741
  953MOL0     H25786   7.758   6.134   6.902 -0.0531  1.3027  0.3577
  953MOL0     H25787   7.750   6.136   7.081  0.2115  0.8327  0.9226
  953MOL0     H25788   7.917   6.318   7.084  3.5642 -1.0278  0.7186
  953MOL0     H25789   7.974   6.159   7.034  0.2238 -0.8674 -1.4978
  953MOL0     H25790   7.929   6.401   6.859  3.4754  1.5679  2.5402
  953MOL0     H25791   7.956   6.232   6.795 -0.0745 -1.5614  0.3326
  953MOL0     H25792   8.169   6.332   6.985 -0.3864  1.7080  0.2675
  953MOL0     H25793   8.166   6.206   6.859 -2.0032 -1.1851 -0.4249
  953MOL0     H25794   8.240   6.598   6.689  1.5864  0.5824  1.0355
  953MOL0     H25795   7.509   6.488   6.909  0.8504 -0.0244 -1.3175
  953MOL0     H25796   7.275   6.468   6.834 -1.6728 -1.5678 -2.8110
  954MOL0     O25797  10.696   3.677   8.102 -0.6246  0.7615 -0.0948
  954MOL0     C25798  10.758   3.715   8.002 -0.0562 -0.2021 -0.0158
  954MOL0     O25799  10.875   3.787   8.005  0.1431  0.1443 -0.2233
  954MOL0     C25800  10.957   3.797   8.115 -0.4327  0.1375  0.6482
  954MOL0     C25801  11.009   3.922   8.143  0.4811 -0.4119  0.0215
  954MOL0     C25802  11.103   3.935   8.251 -0.4325  0.1832 -0.8288
  954MOL0     C25803  11.146   3.818   8.320 -0.1592 -0.8760  0.6139
  954MOL0     O25804  11.230   3.845   8.427  0.1836  0.2142 -0.0267
  954MOL0     C25805  11.301   3.736   8.496  0.5326 -0.3082 -0.2121
  954MOL0     C25806  11.394   3.794   8.606  0.1480  0.2595  0.0237
  954MOL0     C25807  11.490   3.900   8.555 -0.4319 -0.5404  0.2571
  954MOL0     C25808  11.580   3.843   8.433 -0.5479 -0.4539 -0.0032
  954MOL0     C25809  11.678   3.931   8.356  0.8546 -0.7628 -0.5644
  954MOL0     C25810  11.751   3.849   8.251 -0.8708  0.6176  0.8580
  954MOL0     C25811  11.867   3.938   8.203 -0.3019  0.2296 -0.7607
  954MOL0     C25812  11.984   3.866   8.126  0.6576 -0.2638 -0.2118
  954MOL0     N25813  11.946   3.803   7.997  0.0839 -0.4798 -1.0333
  954MOL0     C25814  11.903   3.671   7.999  0.2072 -0.0192  0.1310
  954MOL0     C25815  11.817   3.663   7.898  0.2619  0.7341 -0.8908
  954MOL0     C25816  11.735   3.545   7.869  0.3881  0.1230  0.1264
  954MOL0     C25817  11.823   3.443   7.780 -0.7235  0.9921 -1.0529
  954MOL0     C25818  11.751   3.300   7.795 -0.6515 -1.1660  0.1298
  954MOL0     C25819  11.604   3.299   7.760  0.1838 -0.3333  0.2110
  954MOL0     O25820  11.579   3.371   7.640  0.0833  0.1678  0.1600
  954MOL0     C25821  11.452   3.350   7.584  0.9146 -0.6304  0.8104
  954MOL0     C25822  11.436   3.366   7.446  0.4501 -0.9756  0.1456
  954MOL0     C25823  11.321   3.348   7.376 -0.0845 -0.5797  0.0129
  954MOL0     C25824  11.203   3.312   7.455 -0.3291  0.0351  0.6765
  954MOL0     C25825  11.076   3.294   7.396 -0.9678 -0.7196  0.7867
  954MOL0     O25826  10.969   3.239   7.466  0.1801 -0.2170 -0.4617
  954MOL0     C25827  10.850   3.260   7.407 -0.1469  0.1168 -0.0259
  954MOL0     C25828  10.805   3.155   7.332  0.2720 -0.1491  0.4192
  954MOL0     C25829  10.676   3.158   7.272 -0.7651  0.0760  0.5490
  954MOL0     C25830  10.598   3.272   7.272  0.0552  0.0154  0.9848
  954MOL0     O25831  10.475   3.256   7.203  0.8198 -0.1766  0.1710
  954MOL0     C25832  10.378   3.357   7.228 -0.7664  0.7145  0.2796
  954MOL0     C25833  10.268   3.323   7.124  0.1216 -0.0892 -0.0793
  954MOL0     C25834  10.174   3.443   7.125 -0.3428 -0.1991 -0.3834
  954MOL0     C25835  10.028   3.394   7.131  0.9784 -0.0808  0.8820
  954MOL0     C25836   9.920   3.504   7.150  0.0715  0.4266  0.5521
  954MOL0     C25837   9.934   3.627   7.061 -0.7747  0.4559 -0.9746
  954MOL0     C25838   9.857   3.753   7.113 -0.2597  0.7747 -0.9631
  954MOL0     C25839   9.866   3.874   7.017 -0.3478 -0.0750 -0.0453
  954MOL0    Cl25840   9.790   3.845   6.858  0.3154 -0.1173 -0.3418
  954MOL0     C25841  10.652   3.385   7.343  0.9266 -0.2042  0.2821
  954MOL0     C25842  10.768   3.376   7.418 -0.6620  0.1226  1.7356
  954MOL0     O25843  11.064   3.347   7.284  0.4968  0.3580  0.8579
  954MOL0     C25844  11.209   3.306   7.597 -0.9894 -0.8659  0.2721
  954MOL0     C25845  11.333   3.325   7.658 -0.9933  0.7901  0.3905
  954MOL0     N25846  11.825   3.784   7.829  0.4956 -0.5285 -0.3577
  954MOL0     N25847  11.885   3.872   7.902 -0.7904  0.4539  0.2710
  954MOL0     C25848  11.093   3.688   8.284  0.3726 -0.0940 -0.5594
  954MOL0     C25849  10.999   3.679   8.183 -0.0262 -0.0079 -0.2092
  954MOL0     C25850  10.693   3.703   7.880 -0.0657  0.0240  0.4132
  954MOL0     C25851  10.759   3.738   7.763 -0.1415  0.4310 -0.3068
  954MOL0     C25852  10.701   3.719   7.641  0.5818 -0.3114  0.4306
  954MOL0     C25853  10.571   3.671   7.637 -0.4648 -0.3725  0.1748
  954MOL0     O25854  10.514   3.662   7.512 -0.4632  0.1296 -0.0750
  954MOL0     C25855  10.382   3.642   7.474  0.0910 -0.4439  0.5050
  954MOL0     C25856  10.311   3.774   7.495  0.5529  0.2006  0.5062
  954MOL0     C25857  10.164   3.777   7.449 -0.4110  0.0616  0.8600
  954MOL0     C25858  10.086   3.892   7.517 -1.0289 -0.2307 -0.3344
  954MOL0     C25859   9.949   3.889   7.479  1.2883 -0.4238  0.7126
  954MOL0     C25860   9.829   3.902   7.464 -0.5091  0.0764  1.1413
  954MOL0     C25861  10.495   3.648   7.752  0.3635 -1.1264  1.1388
  954MOL0     C25862  10.559   3.657   7.871  0.2160 -0.2855 -0.5316
  954MOL0     H25863  10.964   4.012   8.102  1.0303  0.5932  1.5236
  954MOL0     H25864  11.140   4.030   8.286 -1.6788 -0.5186  2.7705
  954MOL0     H25865  11.365   3.680   8.428  1.3243  1.9942 -1.4749
  954MOL0     H25866  11.228   3.677   8.553 -0.4951 -0.5631 -1.7315
  954MOL0     H25867  11.448   3.719   8.665 -0.2889 -0.8988 -0.9836
  954MOL0     H25868  11.329   3.831   8.685  0.1654  0.9756 -0.2854
  954MOL0     H25869  11.537   3.939   8.646 -0.9645 -2.1905  1.2796
  954MOL0     H25870  11.431   3.980   8.510  1.4964  0.4213 -0.7024
  954MOL0     H25871  11.641   3.761   8.474 -1.0790 -1.9971 -2.1016
  954MOL0     H25872  11.520   3.788   8.360 -1.8040 -1.5455  1.7555
  954MOL0     H25873  11.749   3.983   8.422  1.6118  1.0901 -2.7177
  954MOL0     H25874  11.619   4.004   8.301  0.3107 -1.8953 -1.5143
  954MOL0     H25875  11.684   3.825   8.169  0.1113  2.0865 -0.4415
  954MOL0     H25876  11.797   3.757   8.288 -0.0564 -0.2204 -1.9669
  954MOL0     H25877  11.821   4.017   8.143 -2.5925  0.3156  0.9459
  954MOL0     H25878  11.919   3.980   8.289 -2.5781  0.7221  0.4583
  954MOL0     H25879  12.035   3.796   8.193 -0.8640  0.0387  1.3361
  954MOL0     H25880  12.051   3.948   8.102  0.8146  0.7104  3.0054
  954MOL0     H25881  11.926   3.590   8.068 -0.3781  0.1404  0.5184
  954MOL0     H25882  11.646   3.577   7.814  0.1945 -2.5170 -1.2593
  954MOL0     H25883  11.705   3.499   7.964  3.0056  1.3469  1.6605
  954MOL0     H25884  11.924   3.440   7.821 -1.0756 -3.4124  0.0433
  954MOL0     H25885  11.842   3.479   7.679  4.4165  3.6304  0.5190
  954MOL0     H25886  11.798   3.232   7.723 -0.1635  0.9853 -1.6874
  954MOL0     H25887  11.780   3.265   7.895  2.7054  1.8279  0.3914
  954MOL0     H25888  11.557   3.359   7.838  4.0489  3.7718 -0.2061
  954MOL0     H25889  11.571   3.197   7.741 -0.5999  0.2613 -2.0237
  954MOL0     H25890  11.521   3.398   7.387  1.1775 -0.2183  1.5551
  954MOL0     H25891  11.316   3.350   7.267  1.3871 -1.1994 -0.0881
  954MOL0     H25892  10.876   3.074   7.340  0.6662  0.2976  1.7633
  954MOL0     H25893  10.641   3.078   7.208 -2.6462  1.9863 -0.9496
  954MOL0     H25894  10.417   3.455   7.198  0.4214 -0.4076 -2.0144
  954MOL0     H25895  10.348   3.354   7.334  1.3700 -1.9678  0.9045
  954MOL0     H25896  10.211   3.236   7.157 -1.1902  0.4273 -0.9129
  954MOL0     H25897  10.318   3.299   7.030  0.7855 -0.9371  0.4735
  954MOL0     H25898  10.188   3.507   7.037  3.6007  2.9597  2.2251
  954MOL0     H25899  10.197   3.502   7.214 -0.9665 -1.1715  0.4488
  954MOL0     H25900   9.994   3.341   7.041 -1.0067 -1.4485  2.3523
  954MOL0     H25901  10.019   3.329   7.218  0.3073 -1.4217 -0.1503
  954MOL0     H25902   9.938   3.542   7.251 -0.0517 -2.4035  1.7089
  954MOL0     H25903   9.818   3.467   7.136  0.5430 -0.6148 -0.2435
  954MOL0     H25904   9.907   3.603   6.958 -1.3152  0.9646 -0.9569
  954MOL0     H25905  10.039   3.659   7.062  0.5676 -3.3998 -1.9648
  954MOL0     H25906   9.753   3.721   7.115 -0.2470  0.7596 -0.1926
  954MOL0     H25907   9.886   3.789   7.212  0.9877 -0.4606 -0.8454
  954MOL0     H25908   9.971   3.905   7.015 -1.0411  2.4867 -0.4838
  954MOL0     H25909   9.814   3.963   7.054 -0.0644  0.5130 -1.0357
  954MOL0     H25910  10.593   3.476   7.341 -2.4417 -2.1773  1.2773
  954MOL0     H25911  10.793   3.466   7.474 -0.3994  1.7746 -0.8913
  954MOL0     H25912  11.127   3.252   7.644 -2.7912 -1.5491 -3.3209
  954MOL0     H25913  11.342   3.306   7.764 -2.4755 -1.4125  0.1898
  954MOL0     H25914  11.121   3.594   8.331 -0.1180  0.5123  1.0302
  954MOL0     H25915  10.945   3.587   8.160  0.6881 -1.1310  2.2806
  954MOL0     H25916  10.861   3.774   7.757 -0.3216  1.6024  2.4335
  954MOL0     H25917  10.747   3.753   7.549 -1.0757  0.3739 -0.1699
  954MOL0     H25918  10.349   3.560   7.538 -1.8835 -0.5760 -0.6060
  954MOL0     H25919  10.368   3.605   7.372 -0.6942  2.8496 -0.7129
  954MOL0     H25920  10.317   3.799   7.602  0.4991  0.8081  0.3735
  954MOL0     H25921  10.356   3.858   7.442 -2.5527 -0.0337 -2.8426
  954MOL0     H25922  10.115   3.680   7.462 -0.1676  0.0936  2.1200
  954MOL0     H25923  10.168   3.796   7.341 -0.9645  1.0837  1.0023
  954MOL0     H25924  10.092   3.880   7.626 -0.0823  0.2392 -0.3273
  954MOL0     H25925  10.129   3.986   7.481 -0.1850 -0.3383  0.3488
  954MOL0     H25926   9.724   3.913   7.451 -0.6335  0.0501  2.0375
  954MOL0     H25927  10.390   3.618   7.746  0.0189  0.1683  0.3842
  954MOL0     H25928  10.497   3.638   7.957 -0.0715  1.2846 -0.3487
  955MOL0     O25929  10.961   4.577   7.570 -0.3284  0.2757 -0.0932
  955MOL0     C25930  10.960   4.632   7.678  0.1558  0.4740 -0.7164
  955MOL0     O25931  10.852   4.659   7.760  0.2381 -0.1238 -0.3612
  955MOL0     C25932  10.728   4.624   7.718  0.6553  0.6959  0.4192
  955MOL0     C25933  10.666   4.671   7.599  0.0801 -0.3529 -1.1065
  955MOL0     C25934  10.524   4.655   7.572 -1.0050  0.9967  0.2846
  955MOL0     C25935  10.451   4.565   7.652  0.9369  0.4063  1.0829
  955MOL0     O25936  10.328   4.536   7.597 -0.3790  0.5202 -0.7700
  955MOL0     C25937  10.246   4.450   7.681 -0.4193 -0.1905  0.3338
  955MOL0     C25938  10.111   4.474   7.620 -0.8882  1.1013  0.1166
  955MOL0     C25939  10.009   4.365   7.660 -0.4974  0.2489 -0.7545
  955MOL0     C25940   9.891   4.361   7.559 -0.3062  0.1023  0.7980
  955MOL0     C25941   9.781   4.270   7.616 -0.0294 -0.4319 -0.0051
  955MOL0     C25942   9.662   4.262   7.517  0.8508 -0.1081  0.3556
  955MOL0     C25943   9.563   4.156   7.565  0.3383  0.4278  0.0545
  955MOL0     C25944   9.426   4.162   7.492  0.6516 -0.4086  0.3573
  955MOL0     N25945   9.357   4.294   7.501 -0.1418  0.0447 -0.2796
  955MOL0     C25946   9.292   4.335   7.616 -0.3022  1.0708  0.8206
  955MOL0     C25947   9.239   4.450   7.589 -0.4671 -0.3493  0.0866
  955MOL0     C25948   9.159   4.523   7.688 -0.8227  0.7530 -0.2220
  955MOL0     C25949   9.022   4.439   7.717 -0.1815 -0.2237 -0.1246
  955MOL0     C25950   8.985   4.486   7.860 -0.4319 -0.2854  0.0815
  955MOL0     C25951   8.880   4.390   7.927 -0.3117  0.3324  0.4619
  955MOL0     O25952   8.781   4.444   8.018  0.1128 -0.1400 -0.6027
  955MOL0     C25953   8.675   4.366   8.063 -0.5924 -0.0095  0.2016
  955MOL0     C25954   8.562   4.421   8.120 -0.9054  0.2815  0.2187
  955MOL0     C25955   8.452   4.340   8.145 -0.2879 -0.8162 -0.4868
  955MOL0     C25956   8.450   4.204   8.133 -0.5705  0.9636 -0.7743
  955MOL0     C25957   8.327   4.140   8.174 -0.2665  0.1288 -0.2499
  955MOL0     O25958   8.200   4.206   8.191 -0.3840 -0.4131  0.0861
  955MOL0     C25959   8.091   4.133   8.232  1.4955  0.5075 -0.2798
  955MOL0     C25960   8.053   4.013   8.176  0.3727 -0.8367  0.5199
  955MOL0     C25961   7.953   3.933   8.230  0.1536  0.3935 -0.0904
  955MOL0     C25962   7.879   3.982   8.342  0.5789 -0.4083  1.2612
  955MOL0     O25963   7.784   3.903   8.407  0.1722 -0.3167 -0.2534
  955MOL0     C25964   7.775   3.758   8.376  0.8873  0.0646 -0.3292
  955MOL0     C25965   7.669   3.687   8.465  0.4549 -0.2972  0.2764
  955MOL0     C25966   7.530   3.754   8.451  0.5499  0.1589 -0.3080
  955MOL0     C25967   7.438   3.686   8.543  0.1856  0.0769 -0.4301
  955MOL0     C25968   7.308   3.768   8.555  0.5243  0.4434 -0.1658
  955MOL0     C25969   7.209   3.687   8.641  0.6506 -0.5886 -0.4922
  955MOL0     C25970   7.073   3.757   8.648  0.5550  0.2033  0.0315
  955MOL0     C25971   6.963   3.660   8.696 -0.4480 -0.1617 -0.3404
  955MOL0    Cl25972   6.958   3.642   8.881 -0.1220  0.0305 -0.0945
  955MOL0     C25973   7.906   4.107   8.395 -0.8435 -0.3282  0.3906
  955MOL0     C25974   8.018   4.182   8.340  0.2465 -1.1780 -0.3737
  955MOL0     O25975   8.348   4.020   8.211 -0.6579  0.2942  0.7011
  955MOL0     C25976   8.572   4.143   8.094 -0.5203  0.2795  0.1432
  955MOL0     C25977   8.678   4.229   8.047 -0.4217 -0.2957  0.4846
  955MOL0     N25978   9.267   4.480   7.452  0.0567 -0.8976 -0.7835
  955MOL0     N25979   9.337   4.388   7.404 -0.0262 -0.4369 -0.2272
  955MOL0     C25980  10.507   4.510   7.761 -0.7769  0.8380  0.0764
  955MOL0     C25981  10.642   4.543   7.795 -0.1739  0.5284 -0.0583
  955MOL0     C25982  11.092   4.673   7.736  0.1014  0.3908  0.2403
  955MOL0     C25983  11.207   4.682   7.657  0.8530  0.3177  0.2377
  955MOL0     C25984  11.329   4.714   7.718 -0.0610  0.1136 -1.3353
  955MOL0     C25985  11.332   4.736   7.862 -0.3540  0.5310  0.6358
  955MOL0     O25986  11.449   4.736   7.934  0.4201 -0.4421  0.3500
  955MOL0     C25987  11.575   4.710   7.862  0.4711 -0.5155 -0.6564
  955MOL0     C25988  11.701   4.724   7.947  0.2234  0.9378  0.5408
  955MOL0     C25989  11.745   4.869   7.972  0.1332  1.0208  0.2670
  955MOL0     C25990  11.718   4.972   7.868 -0.2969  0.2125 -0.2682
  955MOL0     C25991  11.803   5.083   7.905 -0.0953 -0.3904  0.7538
  955MOL0     C25992  11.875   5.171   7.951 -0.4636  0.7027  0.0801
  955MOL0     C25993  11.221   4.720   7.936 -0.0892  0.0552  0.4402
  955MOL0     C25994  11.098   4.696   7.877  0.3100  0.1416  0.2375
  955MOL0     H25995  10.722   4.744   7.543 -2.8444  1.7512 -1.5376
  955MOL0     H25996  10.483   4.707   7.486  1.3313  1.3002 -0.7395
  955MOL0     H25997  10.246   4.480   7.786 -1.5212 -1.0987  0.6199
  955MOL0     H25998  10.276   4.344   7.681  3.2404  0.6834  2.3483
  955MOL0     H25999  10.118   4.470   7.511 -2.6444 -3.3748 -0.0533
  955MOL0     H26000  10.080   4.574   7.649  3.2517  2.4785  0.4442
  955MOL0     H26001   9.968   4.402   7.754 -0.9028 -0.9056 -0.4525
  955MOL0     H26002  10.058   4.267   7.666 -0.4150  0.3486  0.4144
  955MOL0     H26003   9.857   4.463   7.541 -0.1469  0.0658  0.2718
  955MOL0     H26004   9.924   4.324   7.462  0.2120 -0.2594  1.1070
  955MOL0     H26005   9.745   4.312   7.710 -0.0188 -0.2132 -0.0976
  955MOL0     H26006   9.831   4.174   7.633  2.5742  0.8686  0.2697
  955MOL0     H26007   9.694   4.221   7.421 -0.2318  1.8815 -0.9284
  955MOL0     H26008   9.620   4.360   7.491  1.2309 -0.1684 -0.5303
  955MOL0     H26009   9.593   4.054   7.542 -1.6744 -0.3193  0.5250
  955MOL0     H26010   9.548   4.171   7.672  0.0556 -2.1592  0.4468
  955MOL0     H26011   9.370   4.091   7.554  0.7031  0.1793  1.0785
  955MOL0     H26012   9.433   4.126   7.388  2.3075 -0.3215  0.4123
  955MOL0     H26013   9.285   4.278   7.708 -1.6668  2.1073  1.3833
  955MOL0     H26014   9.133   4.621   7.646  1.6363  0.4480 -2.7752
  955MOL0     H26015   9.216   4.541   7.779  0.3083 -1.9862 -0.2980
  955MOL0     H26016   9.048   4.334   7.708  0.7521  0.2202 -4.5837
  955MOL0     H26017   8.935   4.460   7.655 -1.0810 -1.0241  0.8273
  955MOL0     H26018   9.063   4.493   7.937 -0.8454 -2.1658  0.7276
  955MOL0     H26019   8.945   4.587   7.848 -0.2752 -0.0525  1.4068
  955MOL0     H26020   8.932   4.306   7.974  1.1695  1.5956  1.1603
  955MOL0     H26021   8.819   4.347   7.847  2.4141 -2.1841 -0.4722
  955MOL0     H26022   8.553   4.528   8.131  2.8019  0.6021  1.0646
  955MOL0     H26023   8.361   4.387   8.183 -0.2305 -0.7239 -0.4610
  955MOL0     H26024   8.102   3.975   8.086  0.7316 -1.3307  0.9163
  955MOL0     H26025   7.940   3.835   8.184 -0.4359 -0.1427  1.1649
  955MOL0     H26026   7.875   3.719   8.398  1.0388  0.6123 -0.0284
  955MOL0     H26027   7.754   3.737   8.271 -0.3440  1.1683 -0.3262
  955MOL0     H26028   7.690   3.691   8.572 -1.5872 -0.8009  0.7311
  955MOL0     H26029   7.661   3.581   8.439  0.8998 -0.3038  0.1512
  955MOL0     H26030   7.483   3.725   8.356  2.5550 -0.6781 -1.1029
  955MOL0     H26031   7.536   3.863   8.458 -1.7336  0.2319  2.4042
  955MOL0     H26032   7.414   3.589   8.500 -1.6670 -0.1671  1.0076
  955MOL0     H26033   7.477   3.667   8.644 -1.1431  0.8658  0.2731
  955MOL0     H26034   7.266   3.788   8.456  0.6762 -0.2045 -0.3676
  955MOL0     H26035   7.323   3.864   8.605  0.7959  0.4516 -0.2657
  955MOL0     H26036   7.252   3.696   8.741  1.1240 -4.9286 -0.0963
  955MOL0     H26037   7.212   3.580   8.617  2.2422 -0.7565  0.2924
  955MOL0     H26038   7.074   3.848   8.710 -0.5778  0.1066  0.2037
  955MOL0     H26039   7.049   3.802   8.551  0.9308 -0.8229 -0.5552
  955MOL0     H26040   6.977   3.568   8.638 -3.1534  0.6083 -2.3717
  955MOL0     H26041   6.861   3.687   8.671 -1.3659 -2.2610  0.8479
  955MOL0     H26042   7.858   4.158   8.478  0.0694 -0.1981  0.8613
  955MOL0     H26043   8.056   4.274   8.383  0.2302 -0.9026 -0.9376
  955MOL0     H26044   8.582   4.036   8.085 -0.8573  0.4048 -2.6715
  955MOL0     H26045   8.770   4.184   8.009  0.8367  1.8860  0.7595
  955MOL0     H26046  10.467   4.437   7.830 -0.0242  2.6497  2.5902
  955MOL0     H26047  10.675   4.507   7.892  0.4055  3.6160  1.0038
  955MOL0     H26048  11.201   4.665   7.550  0.6702  0.7642  0.1755
  955MOL0     H26049  11.416   4.726   7.654  1.4037  0.5042  0.6337
  955MOL0     H26050  11.579   4.772   7.772  3.6683 -0.3154 -0.5023
  955MOL0     H26051  11.573   4.608   7.821 -2.1844 -1.3122  1.1852
  955MOL0     H26052  11.685   4.666   8.038 -1.6416  2.1965  1.0705
  955MOL0     H26053  11.779   4.672   7.890 -2.2288 -1.7945 -0.5301
  955MOL0     H26054  11.851   4.857   7.998  0.4623 -0.0111 -1.3932
  955MOL0     H26055  11.698   4.905   8.064 -1.3790  1.7112 -0.7250
  955MOL0     H26056  11.739   4.944   7.764 -1.1824 -0.5833 -0.2483
  955MOL0     H26057  11.612   4.995   7.885  0.0420 -0.5453  4.1291
  955MOL0     H26058  11.935   5.246   7.996 -1.6400  1.8543 -0.2106
  955MOL0     H26059  11.234   4.730   8.043  1.8856 -0.2126  0.2576
  955MOL0     H26060  11.006   4.696   7.933 -1.2360 -1.5259 -2.0891
  956MOL0     O26061   0.223   7.922   5.401 -0.5877 -1.0732 -0.9268
  956MOL0     C26062   0.222   7.821   5.333 -1.1241  0.3669  0.2471
  956MOL0     O26063   0.326   7.738   5.305  0.5495 -0.2368  0.1146
  956MOL0     C26064   0.444   7.769   5.366 -1.3653 -1.4663 -0.0866
  956MOL0     C26065   0.458   7.771   5.506  0.7571 -0.1821 -0.0406
  956MOL0     C26066   0.578   7.801   5.570 -0.0506  0.1654 -0.0380
  956MOL0     C26067   0.692   7.824   5.495  0.0239 -0.0920 -0.2053
  956MOL0     O26068   0.810   7.866   5.538 -0.2461 -0.8064 -0.1094
  956MOL0     C26069   0.865   7.844   5.664 -0.3674  0.7228 -0.2029
  956MOL0     C26070   1.013   7.890   5.664 -0.1923 -0.4589  0.5997
  956MOL0     C26071   1.083   7.843   5.790  0.0169  0.4069 -0.0693
  956MOL0     C26072   1.229   7.883   5.786  0.4100  0.0387  0.5739
  956MOL0     C26073   1.317   7.801   5.884  0.2928 -0.0676  0.6368
  956MOL0     C26074   1.270   7.830   6.028  0.8255 -0.0223  0.3692
  956MOL0     C26075   1.394   7.805   6.119  0.2390 -0.0740 -0.4029
  956MOL0     C26076   1.354   7.808   6.263  0.9264  0.3875  0.8004
  956MOL0     N26077   1.459   7.784   6.352 -0.3567 -0.1973 -0.3001
  956MOL0     C26078   1.589   7.749   6.324 -1.0498 -0.0420  0.1916
  956MOL0     C26079   1.644   7.752   6.444  0.4414 -0.5531 -0.0266
  956MOL0     C26080   1.788   7.726   6.464 -0.4999  0.0635  0.2956
  956MOL0     C26081   1.831   7.714   6.610  0.1841  0.3963 -0.2594
  956MOL0     C26082   1.789   7.583   6.688 -0.8481 -0.3402 -0.7969
  956MOL0     C26083   1.736   7.596   6.833  0.2716 -0.2038  0.0435
  956MOL0     O26084   1.744   7.464   6.885  0.4479 -0.3439  0.4295
  956MOL0     C26085   1.621   7.415   6.917  0.7479  0.4765 -0.4599
  956MOL0     C26086   1.510   7.414   6.837  0.3497  0.4055 -0.5094
  956MOL0     C26087   1.390   7.361   6.876  0.3086  0.0949  0.3915
  956MOL0     C26088   1.372   7.300   6.999  0.5086  0.6556  0.6010
  956MOL0     C26089   1.240   7.255   7.053 -0.3409 -0.4273 -0.2327
  956MOL0     O26090   1.136   7.243   6.960  0.5290 -0.3003 -0.3601
  956MOL0     C26091   1.013   7.216   7.009 -0.4538 -0.4703 -0.4963
  956MOL0     C26092   0.910   7.302   6.983 -0.2297 -0.9340  0.4725
  956MOL0     C26093   0.777   7.293   7.043 -0.1923  0.8172 -0.4831
  956MOL0     C26094   0.751   7.173   7.117 -0.8527 -0.3254  0.8649
  956MOL0     O26095   0.616   7.133   7.148 -0.1370 -0.1744 -0.0801
  956MOL0     C26096   0.521   7.176   7.058  1.0931  0.6991 -0.7339
  956MOL0     C26097   0.386   7.109   7.091 -0.2441  0.1844  0.5912
  956MOL0     C26098   0.347   7.008   6.988  0.7650  0.4483  0.0698
  956MOL0     C26099   0.213   6.934   7.012 -0.2676  0.6975 -0.0090
  956MOL0     C26100   0.168   6.875   6.877 -0.6269  0.0825 -0.2507
  956MOL0     C26101   0.079   6.756   6.905  0.4462  0.3508  0.3694
  956MOL0     C26102   0.026   6.688   6.774  0.9574 -0.2646  1.1383
  956MOL0     C26103   0.134   6.619   6.684  0.5491 -0.4391  0.3699
  956MOL0    Cl26104   0.083   6.599   6.514  0.0433 -0.3001  0.0610
  956MOL0     C26105   0.855   7.079   7.130  0.1018 -0.3773  0.5065
  956MOL0     C26106   0.983   7.096   7.084  0.7775  0.8059  0.0258
  956MOL0     O26107   1.232   7.223   7.172  0.2647 -0.1155 -1.0616
  956MOL0     C26108   1.477   7.302   7.086  0.4781  0.5437 -0.4409
  956MOL0     C26109   1.603   7.352   7.046 -0.4127 -1.1041  0.7183
  956MOL0     N26110   1.550   7.785   6.538 -0.3938 -0.6388  0.1207
  956MOL0     N26111   1.438   7.795   6.481  0.2603  0.8283 -0.3810
  956MOL0     C26112   0.676   7.830   5.356 -0.2725 -0.0281 -0.4280
  956MOL0     C26113   0.556   7.798   5.292 -0.9554 -0.5742  0.3676
  956MOL0     C26114   0.100   7.799   5.245  0.1521  0.4131  0.2052
  956MOL0     C26115   0.107   7.702   5.144 -0.0424 -0.5224  1.1870
  956MOL0     C26116  -0.010   7.678   5.069  0.2385  0.5255 -0.3005
  956MOL0     C26117  -0.133   7.749   5.092 -0.8050 -1.1798  0.1060
  956MOL0     O26118  -0.243   7.743   5.014 -0.2210 -0.0071  0.1213
  956MOL0     C26119  -0.299   7.615   5.016  1.0976  0.1194  0.3144
  956MOL0     C26120  -0.446   7.620   4.982  0.3265 -0.6137 -0.1063
  956MOL0     C26121  -0.532   7.701   5.076  0.1339 -0.3031 -0.0778
  956MOL0     C26122  -0.677   7.664   5.056  0.2875 -0.4127 -0.9162
  956MOL0     C26123  -0.767   7.730   5.155  0.0790 -0.0171 -0.5529
  956MOL0     C26124  -0.829   7.782   5.247  0.2931  0.1333  0.3690
  956MOL0     C26125  -0.128   7.853   5.187  0.1766  0.2483 -0.6985
  956MOL0     C26126  -0.016   7.879   5.269  0.7393  0.9158 -0.3825
  956MOL0     H26127   0.372   7.747   5.567  0.7908 -2.7843 -0.9030
  956MOL0     H26128   0.577   7.802   5.679 -3.7071 -1.9881  0.0841
  956MOL0     H26129   0.877   7.735   5.672  1.2021  0.3499 -4.7440
  956MOL0     H26130   0.808   7.885   5.748 -1.2033 -3.0324  1.2894
  956MOL0     H26131   1.020   7.999   5.661  0.0507 -0.4848 -1.6606
  956MOL0     H26132   1.068   7.844   5.581 -0.5314  1.6851 -0.8792
  956MOL0     H26133   1.067   7.736   5.803  0.3140  0.5150  1.3061
  956MOL0     H26134   1.039   7.885   5.881 -3.0938 -1.2451 -0.6726
  956MOL0     H26135   1.262   7.858   5.684 -1.1467 -1.7019  0.4477
  956MOL0     H26136   1.233   7.990   5.808 -2.4958  0.2884  0.1892
  956MOL0     H26137   1.423   7.824   5.871  0.2043  0.8934  1.5316
  956MOL0     H26138   1.304   7.696   5.856 -2.4346  0.3702 -0.0471
  956MOL0     H26139   1.192   7.761   6.061  0.3753  0.3234  0.0406
  956MOL0     H26140   1.230   7.931   6.038  1.0482  0.1591 -0.4603
  956MOL0     H26141   1.433   7.705   6.096 -1.6442 -1.1530  0.8229
  956MOL0     H26142   1.466   7.886   6.103 -0.2906  0.7237  1.0548
  956MOL0     H26143   1.284   7.726   6.283  1.3091 -0.0357  0.4375
  956MOL0     H26144   1.306   7.905   6.278  3.1094  1.8512 -1.0257
  956MOL0     H26145   1.633   7.705   6.235  1.0279 -0.9351  1.5801
  956MOL0     H26146   1.838   7.812   6.417 -0.8424  0.1334  0.0571
  956MOL0     H26147   1.817   7.642   6.401 -0.9240 -0.1368  0.3690
  956MOL0     H26148   1.787   7.803   6.656 -1.0205 -0.6773  0.7137
  956MOL0     H26149   1.940   7.722   6.617  0.3229 -1.8650  1.1778
  956MOL0     H26150   1.715   7.525   6.632 -1.9059 -0.2089  0.4333
  956MOL0     H26151   1.883   7.529   6.699 -1.1061 -0.4665  1.0224
  956MOL0     H26152   1.639   7.644   6.844  0.8507  1.5468 -1.8718
  956MOL0     H26153   1.798   7.675   6.876  1.5499  0.5424 -2.8701
  956MOL0     H26154   1.517   7.466   6.742  0.3129 -0.9119 -1.2513
  956MOL0     H26155   1.302   7.364   6.811  1.6394 -1.0627 -1.5828
  956MOL0     H26156   0.946   7.394   6.938 -1.0727  0.3223  2.1955
  956MOL0     H26157   0.701   7.368   7.023  1.3443  2.7240  0.4418
  956MOL0     H26158   0.548   7.142   6.958 -1.5188 -0.3597 -1.1767
  956MOL0     H26159   0.507   7.284   7.066 -0.5370  0.4659  0.2273
  956MOL0     H26160   0.303   7.180   7.089  0.3400  0.8471 -0.7085
  956MOL0     H26161   0.396   7.052   7.184  3.5554 -0.3722 -0.0045
  956MOL0     H26162   0.424   6.932   6.974 -1.5346 -1.4504 -3.9990
  956MOL0     H26163   0.339   7.061   6.892  0.7924  1.8603  0.8174
  956MOL0     H26164   0.220   6.854   7.087 -2.1374  2.4465  2.1975
  956MOL0     H26165   0.132   7.003   7.034 -1.0714  2.5865 -6.7462
  956MOL0     H26166   0.258   6.839   6.827  1.0006 -1.0080  3.1499
  956MOL0     H26167   0.117   6.951   6.818  0.7793  0.1951 -1.3693
  956MOL0     H26168  -0.002   6.773   6.977  0.1498 -3.5265  1.1198
  956MOL0     H26169   0.134   6.682   6.964  2.8572  2.1697  0.6053
  956MOL0     H26170  -0.040   6.609   6.809  0.5462 -0.1073  0.7269
  956MOL0     H26171  -0.028   6.761   6.712  1.6580 -2.5993 -2.5400
  956MOL0     H26172   0.156   6.518   6.722  0.0965  0.1388  2.2912
  956MOL0     H26173   0.230   6.672   6.691  1.1217 -1.5632  1.7954
  956MOL0     H26174   0.840   6.984   7.180  1.2132 -1.1099 -0.4763
  956MOL0     H26175   1.062   7.022   7.097 -2.4098 -3.3989 -2.0210
  956MOL0     H26176   1.464   7.267   7.188 -0.6611  0.6459 -0.5458
  956MOL0     H26177   1.683   7.351   7.119 -0.7937  1.0971  1.2300
  956MOL0     H26178   0.767   7.846   5.299  0.1623  0.9933  0.5188
  956MOL0     H26179   0.551   7.795   5.184 -1.4984 -2.3351  0.4130
  956MOL0     H26180   0.200   7.646   5.138 -0.0497 -0.5441  1.2821
  956MOL0     H26181   0.005   7.611   4.986  0.9319  1.2742 -0.7939
  956MOL0     H26182  -0.288   7.563   5.112 -2.2891 -1.2549  0.0879
  956MOL0     H26183  -0.253   7.552   4.940 -1.3702 -0.2125 -0.9841
  956MOL0     H26184  -0.450   7.671   4.885  0.9152  0.5053  0.4440
  956MOL0     H26185  -0.492   7.520   4.974 -0.2673 -0.6279  2.6423
  956MOL0     H26186  -0.513   7.808   5.061  2.2265 -0.6673 -0.3865
  956MOL0     H26187  -0.507   7.677   5.180  0.3790 -0.0637 -0.0811
  956MOL0     H26188  -0.708   7.690   4.954 -1.7130 -1.2903 -0.5891
  956MOL0     H26189  -0.693   7.556   5.060  1.1251 -0.5367  2.9904
  956MOL0     H26190  -0.888   7.828   5.323 -1.3652  0.8845 -1.3135
  956MOL0     H26191  -0.210   7.908   5.233  0.6837  1.3547 -1.1059
  956MOL0     H26192  -0.022   7.954   5.348  3.0213 -0.6401  1.3684
  957MOL0     O26193   1.535   2.892   8.481  0.2146  0.0120 -0.0855
  957MOL0     C26194   1.492   2.999   8.525  0.8478 -0.1873 -0.2116
  957MOL0     O26195   1.565   3.106   8.569 -0.0529  0.0630  0.1026
  957MOL0     C26196   1.696   3.106   8.577  0.1523  0.1957  0.9684
  957MOL0     C26197   1.756   3.171   8.682  0.1883 -0.2971  0.0405
  957MOL0     C26198   1.896   3.185   8.679 -0.3182  0.3797 -0.5715
  957MOL0     C26199   1.969   3.133   8.572 -0.1759 -0.5945 -0.1773
  957MOL0     O26200   2.103   3.143   8.584 -0.2097 -0.0691 -0.4915
  957MOL0     C26201   2.176   3.212   8.480 -0.4865 -0.0135  0.7634
  957MOL0     C26202   2.320   3.254   8.532 -0.1614  0.1217  0.1568
  957MOL0     C26203   2.405   3.320   8.419  0.5430 -0.0814  0.2469
  957MOL0     C26204   2.524   3.386   8.490 -1.2523 -0.0950 -0.4952
  957MOL0     C26205   2.656   3.363   8.417 -0.1178 -0.1470  1.0067
  957MOL0     C26206   2.770   3.420   8.505  0.2736 -0.3051 -0.0129
  957MOL0     C26207   2.900   3.397   8.433  0.1642  0.2597 -0.4682
  957MOL0     C26208   3.017   3.480   8.487 -0.1822 -0.5338 -0.3131
  957MOL0     N26209   3.001   3.618   8.452  0.2006 -0.2263 -0.0396
  957MOL0     C26210   2.931   3.703   8.533  0.6815  0.3922  0.4279
  957MOL0     C26211   2.972   3.819   8.487  0.3411 -0.2514  0.7470
  957MOL0     C26212   2.934   3.954   8.550 -0.3695  1.2933 -0.5744
  957MOL0     C26213   2.799   3.995   8.482  0.2402  0.1550  0.0379
  957MOL0     C26214   2.677   3.954   8.561  0.2136  0.2963 -0.1235
  957MOL0     C26215   2.548   3.986   8.499 -1.1518 -0.1786  0.6481
  957MOL0     O26216   2.441   3.948   8.582  0.3141 -0.0481 -0.2585
  957MOL0     C26217   2.316   3.969   8.531 -0.6140  0.1343 -0.0519
  957MOL0     C26218   2.289   4.022   8.406  0.0653  0.5473 -0.7253
  957MOL0     C26219   2.153   4.043   8.378  0.0610 -0.2677  0.0465
  957MOL0     C26220   2.045   4.019   8.472  0.0734 -0.6783 -0.8920
  957MOL0     C26221   1.905   4.045   8.450  0.1844  0.6456 -0.1492
  957MOL0     O26222   1.814   4.006   8.550  0.1832  0.0515 -0.2399
  957MOL0     C26223   1.679   4.007   8.511 -0.3524  0.2749 -0.0451
  957MOL0     C26224   1.612   4.108   8.441  0.1406  0.4396  0.3786
  957MOL0     C26225   1.480   4.090   8.412  0.6516 -0.4670 -0.9022
  957MOL0     C26226   1.406   3.980   8.452 -0.0385 -1.2181  0.4716
  957MOL0     O26227   1.288   3.946   8.415 -0.0568 -0.1200  0.4402
  957MOL0     C26228   1.205   4.050   8.363  0.4982 -0.4016  0.2079
  957MOL0     C26229   1.066   3.993   8.345 -0.4545  0.4308  0.7703
  957MOL0     C26230   0.994   3.949   8.472  0.7890  0.3821 -0.8177
  957MOL0     C26231   0.945   4.068   8.543  0.2522 -0.1767  0.2663
  957MOL0     C26232   0.922   4.041   8.691  0.2319  0.1830 -0.2221
  957MOL0     C26233   1.042   4.071   8.783  0.2533  0.2282 -0.2476
  957MOL0     C26234   1.040   4.218   8.838  0.1652 -1.0074 -0.0653
  957MOL0     C26235   1.188   4.278   8.827  0.5910 -0.6032  0.1987
  957MOL0    Cl26236   1.166   4.459   8.865 -0.1047  0.2932  0.3152
  957MOL0     C26237   1.477   3.889   8.527  0.3426 -0.9228 -0.2581
  957MOL0     C26238   1.611   3.904   8.563 -0.1187  0.4035 -0.4119
  957MOL0     O26239   1.878   4.099   8.344  0.0992  0.4345  0.0279
  957MOL0     C26240   2.084   3.962   8.595  0.4371  0.0792 -0.0206
  957MOL0     C26241   2.215   3.928   8.617  0.2615 -0.8540  0.0547
  957MOL0     N26242   3.043   3.811   8.365  0.1601  0.0993 -0.3833
  957MOL0     N26243   3.070   3.683   8.353  0.1679  0.4408 -0.0383
  957MOL0     C26244   1.907   3.072   8.453 -0.1229  0.7370 -1.1432
  957MOL0     C26245   1.765   3.061   8.463 -0.3668  0.3285  0.9001
  957MOL0     C26246   1.335   3.027   8.527 -0.4483  0.0306  0.3387
  957MOL0     C26247   1.277   3.135   8.588 -0.1916  0.0274 -1.3823
  957MOL0     C26248   1.136   3.141   8.600 -0.0231 -0.4697 -0.0235
  957MOL0     C26249   1.052   3.048   8.542 -0.0078  0.6207 -0.8950
  957MOL0     O26250   0.923   3.052   8.578 -0.9032 -0.2737  0.1528
  957MOL0     C26251   0.832   2.992   8.490  0.6711 -0.2891  0.8852
  957MOL0     C26252   0.700   3.048   8.542  0.4829 -0.1411 -0.8777
  957MOL0     C26253   0.586   3.003   8.460 -0.5220 -0.1449  0.5471
  957MOL0     C26254   0.454   3.084   8.469  0.3509 -0.1919  0.1849
  957MOL0     C26255   0.348   3.039   8.373 -0.5633  0.3892  0.1422
  957MOL0     C26256   0.265   3.012   8.288 -0.3767 -0.1355  0.4911
  957MOL0     C26257   1.117   2.942   8.470 -0.6077 -0.3409 -0.1184
  957MOL0     C26258   1.253   2.927   8.466  0.3891  1.1046  0.1215
  957MOL0     H26259   1.701   3.203   8.771  0.5396 -0.0754  0.1776
  957MOL0     H26260   1.954   3.212   8.767  3.8483 -1.6101 -2.4261
  957MOL0     H26261   2.121   3.300   8.445  2.0446  0.0599 -3.7151
  957MOL0     H26262   2.184   3.154   8.388  2.0240  2.3107 -0.6546
  957MOL0     H26263   2.358   3.165   8.583 -0.4553  0.6254  1.2864
  957MOL0     H26264   2.295   3.329   8.607 -0.4212 -2.4171  2.8160
  957MOL0     H26265   2.340   3.384   8.359 -0.6830 -0.4800  1.1271
  957MOL0     H26266   2.455   3.248   8.353  0.6410  1.0343 -0.9315
  957MOL0     H26267   2.514   3.493   8.505 -0.8872 -0.2221  0.7163
  957MOL0     H26268   2.539   3.337   8.587  0.5268  3.3830  1.1396
  957MOL0     H26269   2.647   3.419   8.323 -1.1132 -2.3966 -0.3019
  957MOL0     H26270   2.675   3.257   8.399 -0.0027 -0.2421  1.6668
  957MOL0     H26271   2.772   3.375   8.604 -0.2297 -0.8201 -0.2289
  957MOL0     H26272   2.743   3.526   8.511  2.3856  0.1896  2.2696
  957MOL0     H26273   2.927   3.291   8.426 -0.5919  0.1614 -2.3058
  957MOL0     H26274   2.883   3.428   8.330  0.2973 -1.6355 -1.1094
  957MOL0     H26275   3.104   3.449   8.430  0.3916  0.5115 -0.0393
  957MOL0     H26276   3.035   3.463   8.593 -2.2611  2.1562  0.6143
  957MOL0     H26277   2.870   3.688   8.621  0.8980 -0.5415  0.4255
  957MOL0     H26278   3.017   4.019   8.521 -0.9305  2.0831 -0.4300
  957MOL0     H26279   2.926   3.939   8.658 -1.8901  0.7425 -0.7401
  957MOL0     H26280   2.795   3.964   8.377  0.9607 -3.1405  0.8674
  957MOL0     H26281   2.805   4.104   8.480 -0.7859  0.2099 -0.8998
  957MOL0     H26282   2.671   3.845   8.571 -0.3164  0.4861  1.9606
  957MOL0     H26283   2.683   3.992   8.663  1.2431  1.1118 -0.4691
  957MOL0     H26284   2.544   3.956   8.394 -0.4586  3.0071 -0.3926
  957MOL0     H26285   2.559   4.094   8.488  1.1917 -0.5588 -1.5092
  957MOL0     H26286   2.362   4.038   8.327  1.0274 -1.4205 -0.3102
  957MOL0     H26287   2.112   4.064   8.279 -1.5631 -0.5953  0.6134
  957MOL0     H26288   1.663   4.193   8.396 -0.5823  0.2740 -0.8083
  957MOL0     H26289   1.438   4.163   8.343 -0.6078  2.1611  2.3264
  957MOL0     H26290   1.249   4.082   8.269  0.0043 -0.4629 -0.0492
  957MOL0     H26291   1.207   4.133   8.434  1.2866 -0.1243 -0.1302
  957MOL0     H26292   1.070   3.915   8.269 -4.0838  1.7272 -0.9460
  957MOL0     H26293   1.009   4.072   8.296  0.3653  0.4165 -0.2361
  957MOL0     H26294   1.068   3.895   8.532  0.1484  1.5841  1.1283
  957MOL0     H26295   0.909   3.886   8.443  0.2390  0.0720  1.3109
  957MOL0     H26296   1.010   4.156   8.537  2.3513 -1.7608 -1.3047
  957MOL0     H26297   0.845   4.089   8.502  0.5827 -1.8697 -1.5324
  957MOL0     H26298   0.898   3.934   8.694 -1.1093  0.4752  1.5943
  957MOL0     H26299   0.830   4.086   8.730  1.0197  1.7221 -0.0797
  957MOL0     H26300   1.128   4.055   8.717  0.5748 -0.6018  0.3626
  957MOL0     H26301   1.049   3.996   8.863 -1.0564  0.6464  0.2835
  957MOL0     H26302   0.979   4.283   8.775 -0.8588  0.9285  2.7029
  957MOL0     H26303   1.003   4.218   8.941  0.9003 -3.4563  0.2674
  957MOL0     H26304   1.239   4.265   8.731  1.6413  0.3869  0.5853
  957MOL0     H26305   1.258   4.229   8.896  1.7596 -1.5117 -1.5434
  957MOL0     H26306   1.425   3.804   8.569  2.7805 -1.9111  0.9414
  957MOL0     H26307   1.660   3.832   8.628 -2.0476  1.8873  2.9596
  957MOL0     H26308   2.018   3.931   8.675 -1.7218 -2.2662 -2.5076
  957MOL0     H26309   2.238   3.867   8.704 -0.7883 -1.3594 -0.0048
  957MOL0     H26310   1.954   3.018   8.371 -0.0044 -1.9376  0.5706
  957MOL0     H26311   1.707   3.019   8.382  0.2507 -0.4701  0.8545
  957MOL0     H26312   1.343   3.205   8.637 -2.5505  0.6995  1.0548
  957MOL0     H26313   1.102   3.216   8.671 -0.5590  0.5888 -1.3601
  957MOL0     H26314   0.825   2.883   8.495 -1.6342 -0.3311 -1.2824
  957MOL0     H26315   0.839   3.017   8.383  2.9866 -1.5281  0.7001
  957MOL0     H26316   0.686   3.004   8.641 -1.0957  0.2033 -0.9266
  957MOL0     H26317   0.710   3.156   8.552 -0.2009 -0.0525 -1.0714
  957MOL0     H26318   0.560   2.899   8.479  0.9364 -0.2541  2.1725
  957MOL0     H26319   0.615   3.014   8.355  2.4646 -2.1452  1.0562
  957MOL0     H26320   0.411   3.077   8.570  0.7452  0.5467  0.4103
  957MOL0     H26321   0.480   3.187   8.443 -0.0236 -0.0918  0.2021
  957MOL0     H26322   0.189   2.991   8.215  1.3892 -3.9518 -0.5255
  957MOL0     H26323   1.060   2.874   8.407  0.0473  1.1416 -2.4077
  957MOL0     H26324   1.297   2.837   8.425  1.8295  1.2444  1.2900
  958MOL0     O26325   9.266   5.060   4.899  0.8619  0.6493  0.0907
  958MOL0     C26326   9.343   5.090   4.806  0.0888  1.0226  0.7443
  958MOL0     O26327   9.311   5.139   4.684 -0.0266 -0.1974  0.3291
  958MOL0     C26328   9.183   5.165   4.668  0.1882  0.0009 -1.3015
  958MOL0     C26329   9.120   5.264   4.744 -0.2407  0.0886  0.2066
  958MOL0     C26330   8.984   5.291   4.735  0.0781 -1.1231 -0.1689
  958MOL0     C26331   8.911   5.238   4.630 -1.0471  0.2890  0.0498
  958MOL0     O26332   8.781   5.265   4.608  0.0187  0.2032 -0.1628
  958MOL0     C26333   8.686   5.252   4.714  0.8451 -0.4644 -0.2258
  958MOL0     C26334   8.549   5.298   4.665 -0.0374 -0.0972 -0.3560
  958MOL0     C26335   8.506   5.208   4.546  0.0578 -0.3641  0.2129
  958MOL0     C26336   8.361   5.206   4.503  0.2124  0.5120 -0.0320
  958MOL0     C26337   8.324   5.073   4.417  0.1154 -0.0211  0.1170
  958MOL0     C26338   8.193   5.009   4.443  0.0310 -0.2027  0.3190
  958MOL0     C26339   8.072   5.096   4.391 -0.3808  0.1107 -0.4741
  958MOL0     C26340   7.932   5.039   4.427 -0.9415 -0.4550 -0.6964
  958MOL0     N26341   7.832   5.126   4.371 -0.0696  0.8011 -0.6790
  958MOL0     C26342   7.768   5.098   4.254 -0.0870  0.1098 -0.0849
  958MOL0     C26343   7.698   5.221   4.244  0.3381  0.6835  0.7884
  958MOL0     C26344   7.607   5.256   4.131 -0.2514  0.0716 -0.0928
  958MOL0     C26345   7.464   5.265   4.193 -0.6776  0.5278  0.1539
  958MOL0     C26346   7.361   5.247   4.077  0.8542 -0.4959 -0.7794
  958MOL0     C26347   7.224   5.223   4.140 -0.2613 -0.7182  0.7722
  958MOL0     O26348   7.116   5.223   4.035  0.1085 -0.4613 -0.0921
  958MOL0     C26349   6.988   5.229   4.088 -0.4581  0.1822  0.0653
  958MOL0     C26350   6.951   5.143   4.198  0.3556  0.2476  0.1892
  958MOL0     C26351   6.813   5.134   4.234 -0.0385 -0.4495  0.5346
  958MOL0     C26352   6.714   5.207   4.163  0.5325 -0.3541  0.4198
  958MOL0     C26353   6.575   5.205   4.203  0.5185 -0.1042 -0.5517
  958MOL0     O26354   6.552   5.161   4.330 -0.1665  0.1030 -0.6704
  958MOL0     C26355   6.430   5.151   4.390  0.0310 -0.2106  0.0739
  958MOL0     C26356   6.426   5.138   4.527 -0.4283  0.3769 -0.4309
  958MOL0     C26357   6.308   5.137   4.605 -0.5365  1.3121 -0.1250
  958MOL0     C26358   6.180   5.142   4.542 -0.0919  0.4710 -0.1902
  958MOL0     O26359   6.066   5.132   4.621  0.1946 -0.0880 -0.1724
  958MOL0     C26360   5.931   5.146   4.568  0.0640 -0.5141 -0.7387
  958MOL0     C26361   5.852   5.159   4.702 -0.3602 -0.2373  1.4221
  958MOL0     C26362   5.813   5.018   4.758 -0.1534  0.7510  0.6617
  958MOL0     C26363   5.774   5.018   4.901 -0.2604 -0.0702 -0.0011
  958MOL0     C26364   5.731   4.877   4.948 -0.5770 -0.7577  0.0670
  958MOL0     C26365   5.774   4.859   5.095  1.4461 -0.6532  0.2078
  958MOL0     C26366   5.926   4.840   5.108  0.8646  0.1729 -1.0027
  958MOL0     C26367   5.984   4.893   5.232 -0.4666 -0.3129 -0.0997
  958MOL0    Cl26368   6.154   4.872   5.251 -0.1983  0.6002 -0.3689
  958MOL0     C26369   6.181   5.160   4.399  1.0012  0.8724 -0.5520
  958MOL0     C26370   6.302   5.165   4.325 -0.5777 -0.4952 -1.0429
  958MOL0     O26371   6.491   5.234   4.119  0.3104 -0.7498  0.1281
  958MOL0     C26372   6.753   5.285   4.052  0.4829  0.2255 -0.4269
  958MOL0     C26373   6.893   5.300   4.018 -0.4071  0.4084  0.3955
  958MOL0     N26374   7.722   5.306   4.352  0.1028  0.5090  0.2589
  958MOL0     N26375   7.799   5.243   4.431 -0.2767  0.2284  0.0325
  958MOL0     C26376   8.961   5.130   4.562 -0.8109  0.6313  0.0033
  958MOL0     C26377   9.102   5.102   4.572 -0.1932  1.0797 -0.0144
  958MOL0     C26378   9.491   5.081   4.836 -0.0771 -0.7824  0.8397
  958MOL0     C26379   9.546   5.065   4.965  0.6309 -0.5816 -0.2973
  958MOL0     C26380   9.689   5.062   4.984  0.6841 -0.8026  0.0354
  958MOL0     C26381   9.779   5.073   4.873 -0.7095  0.1326 -0.2944
  958MOL0     O26382   9.909   5.054   4.901 -0.4573 -0.5472  0.7327
  958MOL0     C26383  10.002   5.078   4.793  0.3781  0.1940 -0.1062
  958MOL0     C26384  10.139   5.056   4.842 -0.5859  0.0321  0.0981
  958MOL0     C26385  10.195   5.131   4.972  0.2254 -0.5162  0.5424
  958MOL0     C26386  10.357   5.168   4.963  0.3578 -0.3209  1.3402
  958MOL0     C26387  10.437   5.043   4.952  0.1071  0.3771 -0.6337
  958MOL0     C26388  10.499   4.943   4.934  0.8403 -0.4592 -0.1935
  958MOL0     C26389   9.727   5.093   4.747 -0.7459 -0.5704 -0.6416
  958MOL0     C26390   9.585   5.094   4.732 -0.3673  0.5535 -0.9889
  958MOL0     H26391   9.173   5.303   4.830  1.2106 -2.0713  0.3803
  958MOL0     H26392   8.940   5.360   4.805  0.3129 -1.8136  0.6689
  958MOL0     H26393   8.712   5.310   4.803  1.6580 -2.7589  1.1278
  958MOL0     H26394   8.682   5.154   4.763 -2.1128 -0.8512 -1.0936
  958MOL0     H26395   8.543   5.406   4.652 -0.8090  0.2793  2.4857
  958MOL0     H26396   8.478   5.286   4.747 -0.5175  1.2843 -0.5565
  958MOL0     H26397   8.545   5.108   4.570  0.1339 -0.4869 -0.4102
  958MOL0     H26398   8.568   5.234   4.460 -2.2729 -1.5263 -1.9225
  958MOL0     H26399   8.305   5.201   4.596  0.2837  1.4056  0.0695
  958MOL0     H26400   8.347   5.303   4.455 -2.4169 -0.0227 -0.5132
  958MOL0     H26401   8.395   4.994   4.442 -2.5894 -1.8062  2.9317
  958MOL0     H26402   8.333   5.102   4.312  1.2943  2.3319  0.7879
  958MOL0     H26403   8.174   4.983   4.548 -4.0062  1.4946  0.2324
  958MOL0     H26404   8.196   4.914   4.389  1.2278 -0.1451  0.2684
  958MOL0     H26405   8.080   5.202   4.418  2.1581  0.0359 -0.6310
  958MOL0     H26406   8.090   5.103   4.283 -0.9919 -1.7350 -0.7288
  958MOL0     H26407   7.920   5.044   4.536 -1.0101 -0.0841 -0.7209
  958MOL0     H26408   7.920   4.936   4.390 -1.2392 -0.7982  0.2986
  958MOL0     H26409   7.768   5.021   4.178 -2.2108  1.5259 -1.6549
  958MOL0     H26410   7.613   5.174   4.059  0.2768 -0.1151  0.1612
  958MOL0     H26411   7.640   5.350   4.087  0.8756  0.6024  1.7662
  958MOL0     H26412   7.443   5.365   4.233 -1.4237  2.1275 -3.7517
  958MOL0     H26413   7.441   5.188   4.266 -2.5263 -0.1565 -1.0744
  958MOL0     H26414   7.365   5.337   4.015  0.5359 -0.0540 -0.1679
  958MOL0     H26415   7.383   5.161   4.013  2.3701 -0.3008 -0.5682
  958MOL0     H26416   7.202   5.301   4.212  0.4170 -0.4124  0.6568
  958MOL0     H26417   7.225   5.125   4.190  0.7224 -1.5506 -0.7778
  958MOL0     H26418   7.028   5.086   4.250  0.6508  2.6693  2.6752
  958MOL0     H26419   6.781   5.078   4.321 -1.0150  0.3798  0.7269
  958MOL0     H26420   6.523   5.117   4.572  0.5760  4.1297 -0.5064
  958MOL0     H26421   6.328   5.120   4.710  0.9554 -2.5949 -0.8735
  958MOL0     H26422   5.902   5.060   4.507  0.0206 -0.8407 -0.2589
  958MOL0     H26423   5.921   5.238   4.509 -1.1045 -0.3169 -0.2450
  958MOL0     H26424   5.769   5.227   4.679  0.8549  1.1774  1.0359
  958MOL0     H26425   5.912   5.216   4.774 -2.9639  1.3552  2.4778
  958MOL0     H26426   5.896   4.949   4.739 -0.3349  1.1174 -1.7523
  958MOL0     H26427   5.725   4.988   4.700  0.7829 -1.7258  0.3998
  958MOL0     H26428   5.863   5.052   4.955 -0.5919 -1.5811  1.5759
  958MOL0     H26429   5.691   5.082   4.930 -1.6827 -2.4117  1.3869
  958MOL0     H26430   5.782   4.799   4.891 -0.7355 -0.1510 -0.9222
  958MOL0     H26431   5.622   4.869   4.938 -0.5007 -0.9735 -0.6091
  958MOL0     H26432   5.729   4.771   5.142  2.2684 -1.6067 -0.7464
  958MOL0     H26433   5.746   4.949   5.151 -0.8151 -0.8236 -0.5492
  958MOL0     H26434   5.941   4.732   5.099 -1.7895 -0.4602  0.7626
  958MOL0     H26435   5.971   4.887   5.020  1.4149 -1.2193 -1.4854
  958MOL0     H26436   5.933   4.860   5.323  2.0425  1.4098  2.0970
  958MOL0     H26437   5.976   5.002   5.223  1.0636  0.0114  1.7590
  958MOL0     H26438   6.085   5.173   4.350  0.4190 -2.2632 -0.4346
  958MOL0     H26439   6.285   5.186   4.220  1.4344  0.7586 -1.1809
  958MOL0     H26440   6.681   5.333   3.986  0.9072  1.0123 -0.3355
  958MOL0     H26441   6.923   5.336   3.920  1.1111 -1.7773 -0.0089
  958MOL0     H26442   8.903   5.081   4.484 -0.1697  0.2980 -0.2732
  958MOL0     H26443   9.137   5.025   4.503  4.2114  2.5760  0.2557
  958MOL0     H26444   9.479   5.051   5.049  0.8561 -1.9053 -0.3198
  958MOL0     H26445   9.739   5.046   5.079  0.7978  2.0097  0.5407
  958MOL0     H26446   9.987   5.177   4.748  0.7863 -0.3332 -1.4293
  958MOL0     H26447   9.979   5.015   4.707 -0.5890 -0.3102  0.4985
  958MOL0     H26448  10.146   4.947   4.854 -0.0744  0.2461  2.1281
  958MOL0     H26449  10.204   5.071   4.756  1.2754 -2.5382  0.9206
  958MOL0     H26450  10.190   5.064   5.059 -2.9048  0.0425  0.9116
  958MOL0     H26451  10.137   5.220   4.999  0.2336 -0.0054 -1.0217
  958MOL0     H26452  10.370   5.231   4.875 -2.1448 -0.2506  0.9456
  958MOL0     H26453  10.383   5.223   5.054  1.4914  0.6397  0.4587
  958MOL0     H26454  10.546   4.851   4.905 -1.7309 -2.0739  0.4926
  958MOL0     H26455   9.791   5.111   4.661 -0.3031  0.4369 -0.1142
  958MOL0     H26456   9.550   5.138   4.639 -3.6131  1.3665  0.4586
  959MOL0     O26457   5.442   8.622   5.567 -0.2293  0.2694 -0.6535
  959MOL0     C26458   5.411   8.702   5.481 -0.4784  0.5011 -0.0019
  959MOL0     O26459   5.290   8.723   5.431  0.2416 -0.0013 -0.5087
  959MOL0     C26460   5.189   8.635   5.456  0.2972  1.0878 -0.3548
  959MOL0     C26461   5.120   8.586   5.351 -0.4627  0.3853  0.4581
  959MOL0     C26462   5.011   8.495   5.368 -0.5965  0.0801  0.0987
  959MOL0     C26463   4.967   8.464   5.501  0.5674 -0.4166  0.1138
  959MOL0     O26464   4.850   8.394   5.535  0.1309  0.4859  0.5707
  959MOL0     C26465   4.795   8.318   5.420  0.2822 -0.0460 -0.2157
  959MOL0     C26466   4.688   8.215   5.476  0.2353 -1.1852  1.4814
  959MOL0     C26467   4.558   8.291   5.471 -0.1545  0.1570 -0.7701
  959MOL0     C26468   4.449   8.202   5.528 -0.1040 -0.2031  0.0771
  959MOL0     C26469   4.313   8.253   5.481  0.8253 -0.3125 -0.2324
  959MOL0     C26470   4.201   8.168   5.536 -0.1457 -0.0784 -0.0021
  959MOL0     C26471   4.053   8.223   5.529  0.0271  0.2793 -0.0206
  959MOL0     C26472   4.015   8.252   5.388 -0.2464 -0.3183 -0.1069
  959MOL0     N26473   3.870   8.256   5.371  0.6223 -0.1534  0.0240
  959MOL0     C26474   3.810   8.241   5.244 -0.0565  0.0293  0.0776
  959MOL0     C26475   3.677   8.265   5.273  0.3546 -0.3986 -0.5602
  959MOL0     C26476   3.576   8.290   5.168  0.3274  1.4996  0.5930
  959MOL0     C26477   3.581   8.176   5.056  0.4794 -0.5895 -0.5019
  959MOL0     C26478   3.553   8.040   5.131 -1.0992 -0.4032 -0.0215
  959MOL0     C26479   3.560   7.908   5.049 -0.5894 -0.4903  0.0014
  959MOL0     O26480   3.490   7.906   4.920  0.1462  0.6766  0.0578
  959MOL0     C26481   3.351   7.913   4.927 -0.2975  0.1365  0.7837
  959MOL0     C26482   3.283   7.937   4.806 -0.7369  0.2884 -0.2287
  959MOL0     C26483   3.146   7.958   4.795  0.3823 -0.8837  0.5939
  959MOL0     C26484   3.060   7.944   4.913  0.2837  0.0199  0.9594
  959MOL0     C26485   2.912   7.947   4.906  0.8655 -0.3866  0.4296
  959MOL0     O26486   2.847   7.925   5.021  0.3925 -0.3632 -0.8277
  959MOL0     C26487   2.706   7.907   5.016  0.3608  0.0901  0.6530
  959MOL0     C26488   2.633   8.025   4.994 -0.1876  0.6889 -0.6035
  959MOL0     C26489   2.491   8.014   5.005 -0.9512 -0.7289 -0.6998
  959MOL0     C26490   2.432   7.889   5.019  0.0061 -1.1462  0.1888
  959MOL0     O26491   2.297   7.899   5.034 -0.0782 -0.4300 -0.0876
  959MOL0     C26492   2.223   7.932   4.913  0.4944  0.1665 -0.3534
  959MOL0     C26493   2.072   7.898   4.923 -0.7880  0.0915  0.1422
  959MOL0     C26494   1.988   7.965   4.812  0.6737  0.0089 -0.0391
  959MOL0     C26495   1.840   7.907   4.806 -0.7914  0.5235 -0.0564
  959MOL0     C26496   1.752   7.995   4.731  0.1747 -0.6906  0.1405
  959MOL0     C26497   1.604   7.979   4.787 -1.0846 -0.3640  0.2310
  959MOL0     C26498   1.497   8.037   4.698 -1.0334  0.0119 -0.0150
  959MOL0     C26499   1.360   8.036   4.775  0.6349 -0.0259  0.0962
  959MOL0    Cl26500   1.312   7.870   4.804 -0.4849  0.0130 -0.0283
  959MOL0     C26501   2.507   7.777   5.028 -0.1770 -0.2009 -0.5746
  959MOL0     C26502   2.645   7.783   5.027  0.3533  0.4342  0.2643
  959MOL0     O26503   2.853   7.967   4.796 -0.1912 -0.4242 -1.0813
  959MOL0     C26504   3.124   7.910   5.037 -0.1539 -0.5525  0.1162
  959MOL0     C26505   3.271   7.895   5.036 -0.0288 -0.7964 -0.4811
  959MOL0     N26506   3.661   8.281   5.413  0.1411 -0.1649 -0.1219
  959MOL0     N26507   3.777   8.273   5.469  0.3321 -0.0676 -0.0713
  959MOL0     C26508   5.034   8.524   5.605 -0.4802  0.6112  0.1019
  959MOL0     C26509   5.139   8.606   5.580  0.6169  0.3256 -0.3474
  959MOL0     C26510   5.520   8.771   5.411 -0.3063  0.0090 -0.5123
  959MOL0     C26511   5.646   8.774   5.474 -0.7016 -0.1289  0.4379
  959MOL0     C26512   5.756   8.825   5.399  0.3717 -0.3902  0.0263
  959MOL0     C26513   5.739   8.891   5.277 -0.5136  1.0328  0.0822
  959MOL0     O26514   5.847   8.941   5.205  0.3029 -0.1613  0.2573
  959MOL0     C26515   5.980   8.938   5.252 -1.4246  0.0075 -0.7210
  959MOL0     C26516   6.063   9.018   5.151  0.5497 -0.1701 -1.1951
  959MOL0     C26517   6.216   9.000   5.182 -0.6596  0.0768  0.2190
  959MOL0     C26518   6.305   9.071   5.077 -0.1312 -0.5688  0.1091
  959MOL0     C26519   6.254   9.068   4.936  1.1664 -0.3319  0.1986
  959MOL0     C26520   6.212   9.075   4.818 -0.1357  0.4077 -0.0744
  959MOL0     C26521   5.611   8.888   5.215 -0.5080  0.5391 -0.1190
  959MOL0     C26522   5.501   8.827   5.281 -0.4871 -0.5546  0.6706
  959MOL0     H26523   5.151   8.622   5.253 -0.1436  2.1350  1.1763
  959MOL0     H26524   4.954   8.445   5.290  0.2826 -0.6158 -0.1154
  959MOL0     H26525   4.874   8.268   5.363  0.5037 -2.0175  1.6846
  959MOL0     H26526   4.752   8.387   5.346 -0.4266 -1.0773 -0.7908
  959MOL0     H26527   4.717   8.181   5.576 -0.8320  2.5709  3.2499
  959MOL0     H26528   4.689   8.138   5.398  0.1475  0.7962 -0.5739
  959MOL0     H26529   4.531   8.321   5.369  0.1652  0.4856 -0.7596
  959MOL0     H26530   4.566   8.379   5.536 -2.2591 -0.2278  0.0918
  959MOL0     H26531   4.460   8.097   5.499 -0.3758  0.6023 -3.3381
  959MOL0     H26532   4.451   8.210   5.637  1.7850  2.8571 -0.0584
  959MOL0     H26533   4.313   8.249   5.371 -1.0046 -0.7082 -0.2411
  959MOL0     H26534   4.305   8.359   5.507 -2.7797 -0.6808  0.7169
  959MOL0     H26535   4.235   8.148   5.638 -0.0687  1.5198  0.3133
  959MOL0     H26536   4.197   8.074   5.479  1.1218  0.2898 -0.7448
  959MOL0     H26537   3.993   8.141   5.569 -0.5944 -0.5184 -2.3950
  959MOL0     H26538   4.035   8.308   5.595  0.3011 -0.8328  1.5321
  959MOL0     H26539   4.054   8.173   5.322 -1.3559 -1.3839  0.4664
  959MOL0     H26540   4.049   8.346   5.344  0.6210 -0.8051 -0.5113
  959MOL0     H26541   3.851   8.227   5.144 -1.3054 -2.1977 -0.2005
  959MOL0     H26542   3.597   8.386   5.119 -1.6920  0.1006 -3.4303
  959MOL0     H26543   3.474   8.286   5.207 -0.1919  1.4150 -0.7124
  959MOL0     H26544   3.681   8.177   5.011  0.1762  2.4672 -1.3406
  959MOL0     H26545   3.500   8.200   4.987 -1.2967 -1.0582  1.3244
  959MOL0     H26546   3.607   8.031   5.226 -0.3838 -0.4166 -0.4254
  959MOL0     H26547   3.447   8.048   5.160 -1.1506 -4.5476  1.6245
  959MOL0     H26548   3.524   7.826   5.111 -0.2496  0.0462  0.9171
  959MOL0     H26549   3.665   7.896   5.021 -0.4703 -0.9351  0.6158
  959MOL0     H26550   3.348   7.936   4.719  1.4096  0.5509  1.2895
  959MOL0     H26551   3.094   7.974   4.701 -0.4722  0.1405  1.2110
  959MOL0     H26552   2.680   8.122   4.979 -1.8072  2.0376  2.3100
  959MOL0     H26553   2.442   8.111   4.999  0.1883 -0.2178 -2.1085
  959MOL0     H26554   2.261   7.880   4.824 -0.6378 -1.5331  0.1030
  959MOL0     H26555   2.232   8.037   4.885  0.6358 -0.1379 -1.5004
  959MOL0     H26556   2.031   7.918   5.023 -1.3825 -0.8078  0.0889
  959MOL0     H26557   2.064   7.790   4.916 -2.8474 -0.1486  3.8636
  959MOL0     H26558   2.038   7.936   4.719 -0.0209  1.5699 -0.9481
  959MOL0     H26559   1.993   8.075   4.813  1.5375 -0.0097 -1.0529
  959MOL0     H26560   1.850   7.809   4.760  0.8561  1.0319 -0.8794
  959MOL0     H26561   1.800   7.899   4.907 -0.1854  1.3963  0.2761
  959MOL0     H26562   1.757   7.963   4.626  0.0270  0.3800 -0.2042
  959MOL0     H26563   1.787   8.097   4.752  1.2991 -1.3124  1.4352
  959MOL0     H26564   1.601   8.023   4.887 -0.8404  1.2050 -0.4229
  959MOL0     H26565   1.577   7.875   4.810  2.3438 -1.8365 -1.6429
  959MOL0     H26566   1.514   8.137   4.658 -2.3746 -0.1666 -1.0983
  959MOL0     H26567   1.484   7.966   4.615 -4.5873 -2.0809  2.0813
  959MOL0     H26568   1.288   8.086   4.710  0.3225 -1.3346 -0.6053
  959MOL0     H26569   1.381   8.092   4.866  3.7441 -1.6992  0.5596
  959MOL0     H26570   2.454   7.682   5.027 -1.2376  0.3825 -1.4043
  959MOL0     H26571   2.712   7.700   5.047  0.2120 -0.1462 -1.4667
  959MOL0     H26572   3.068   7.906   5.130 -0.9406 -2.8046 -0.4040
  959MOL0     H26573   3.316   7.854   5.126  0.9956 -0.8346 -0.9970
  959MOL0     H26574   5.011   8.504   5.709  2.3174  2.3529  1.1838
  959MOL0     H26575   5.186   8.643   5.671  0.5064  4.1784 -1.6774
  959MOL0     H26576   5.676   8.725   5.567  1.3461 -0.1930 -0.1987
  959MOL0     H26577   5.856   8.811   5.440 -0.7025 -3.1998  1.9785
  959MOL0     H26578   6.004   8.832   5.264 -2.0220  0.1151  2.3266
  959MOL0     H26579   5.992   8.989   5.349 -3.5975 -0.1765 -0.2975
  959MOL0     H26580   6.043   8.971   5.054  0.5845  1.8656 -2.2484
  959MOL0     H26581   6.039   9.124   5.160  0.1538 -0.3020 -0.6421
  959MOL0     H26582   6.242   8.894   5.189 -2.9583 -0.5253  0.5545
  959MOL0     H26583   6.257   9.042   5.273  1.4078  0.5041 -0.8598
  959MOL0     H26584   6.332   9.174   5.099 -0.0096 -0.6481  0.3352
  959MOL0     H26585   6.399   9.016   5.073  0.3162  0.0970  1.0957
  959MOL0     H26586   6.170   9.074   4.719  1.8711 -2.0553 -1.0107
  959MOL0     H26587   5.601   8.933   5.116 -1.5105  0.5287 -0.0319
  959MOL0     H26588   5.409   8.817   5.224  0.4637 -1.3598 -0.7751
  960MOL0     O26589   8.967   7.645   1.944  0.2819  0.9927 -0.3892
  960MOL0     C26590   8.971   7.598   1.825  0.0572  0.7918  1.1708
  960MOL0     O26591   8.866   7.544   1.755 -0.1239  0.7473  0.1210
  960MOL0     C26592   8.740   7.532   1.817  0.4355 -0.6326  0.4762
  960MOL0     C26593   8.645   7.547   1.730  0.7646 -0.3547 -0.4131
  960MOL0     C26594   8.513   7.537   1.765 -0.0169  0.9177 -0.8088
  960MOL0     C26595   8.473   7.508   1.899 -0.4011  0.5464  0.0624
  960MOL0     O26596   8.353   7.468   1.943  0.1667  0.0282 -0.6130
  960MOL0     C26597   8.248   7.562   1.913 -0.3517 -0.9104  0.0242
  960MOL0     C26598   8.116   7.507   1.966  0.1446 -0.2158 -0.1132
  960MOL0     C26599   7.979   7.565   1.915  0.0569 -0.5820  0.2972
  960MOL0     C26600   7.865   7.493   1.995  0.3165  0.1243 -0.0002
  960MOL0     C26601   7.728   7.548   1.936  0.5420 -0.6937  0.4248
  960MOL0     C26602   7.617   7.558   2.035  0.1810 -0.1295  0.1560
  960MOL0     C26603   7.479   7.590   1.985 -0.1997  0.0358  0.4287
  960MOL0     C26604   7.372   7.601   2.093  0.2892 -0.2544  0.5235
  960MOL0     N26605   7.348   7.473   2.161 -0.5072 -0.3101  0.1678
  960MOL0     C26606   7.409   7.431   2.273 -0.5553 -0.6712 -0.1432
  960MOL0     C26607   7.350   7.314   2.301 -0.1679 -0.0634  0.4526
  960MOL0     C26608   7.365   7.232   2.422  0.9521 -0.4391 -0.1267
  960MOL0     C26609   7.353   7.292   2.556  0.1060 -0.0722 -0.0656
  960MOL0     C26610   7.384   7.181   2.662  0.3055 -0.6041 -0.7643
  960MOL0     C26611   7.363   7.232   2.807  0.6580 -0.2022 -0.3387
  960MOL0     O26612   7.224   7.273   2.815  0.0329  0.3370  0.0865
  960MOL0     C26613   7.128   7.193   2.877 -0.6690  0.0439  0.4413
  960MOL0     C26614   6.999   7.235   2.845 -0.3741  0.4630 -0.0119
  960MOL0     C26615   6.886   7.170   2.894  0.0346  0.3174  0.5469
  960MOL0     C26616   6.904   7.066   2.993  0.3094 -0.5239  0.2773
  960MOL0     C26617   6.772   7.010   3.056  0.7914 -0.6552  0.0604
  960MOL0     O26618   6.646   7.032   3.011  0.2540  0.0474  0.4069
  960MOL0     C26619   6.530   7.009   3.085  0.1742  0.3000  0.7431
  960MOL0     C26620   6.517   6.909   3.177  0.2952  0.1318 -0.6301
  960MOL0     C26621   6.389   6.891   3.236  0.1662  0.0814  0.0396
  960MOL0     C26622   6.274   6.956   3.197 -0.0129 -0.3636  0.3088
  960MOL0     O26623   6.154   6.928   3.263  0.7755  0.2763  0.5224
  960MOL0     C26624   6.116   6.786   3.254 -0.3503  0.2966 -0.2387
  960MOL0     C26625   5.964   6.768   3.272 -0.3194  0.4084  0.1022
  960MOL0     C26626   5.932   6.798   3.422  0.0559 -0.7934 -0.0303
  960MOL0     C26627   5.787   6.750   3.464  0.4843  0.4884 -0.6789
  960MOL0     C26628   5.761   6.750   3.611 -0.4290 -0.6304 -0.0884
  960MOL0     C26629   5.617   6.719   3.654 -0.7849  0.2583  0.2383
  960MOL0     C26630   5.563   6.583   3.611 -0.8662  0.7557  0.0632
  960MOL0     C26631   5.495   6.516   3.735  0.3903  0.2764  0.5689
  960MOL0    Cl26632   5.428   6.365   3.684 -0.0554  0.0363  0.3019
  960MOL0     C26633   6.292   7.054   3.105  0.1890 -0.0960 -1.0293
  960MOL0     C26634   6.413   7.088   3.047 -0.3489  0.3164 -0.2895
  960MOL0     O26635   6.788   6.960   3.169  0.0596 -0.0292  0.4248
  960MOL0     C26636   7.037   7.034   3.030  0.6273 -0.0360 -0.0155
  960MOL0     C26637   7.148   7.102   2.984 -0.5972  0.0863  0.0561
  960MOL0     N26638   7.259   7.284   2.197  0.5123  1.1129 -0.6630
  960MOL0     N26639   7.262   7.380   2.120  0.2122 -0.3443 -0.1528
  960MOL0     C26640   8.576   7.491   1.985  0.2284 -0.3043  0.7948
  960MOL0     C26641   8.708   7.507   1.952 -0.5170 -0.1067  0.6893
  960MOL0     C26642   9.105   7.617   1.756  1.6303 -0.9910 -0.6225
  960MOL0     C26643   9.121   7.573   1.624  0.6777  0.8584  0.0140
  960MOL0     C26644   9.240   7.558   1.560  0.0675  0.5831  0.1959
  960MOL0     C26645   9.354   7.604   1.632  0.4607  0.6244 -0.1340
  960MOL0     O26646   9.488   7.616   1.599 -0.3249  0.2346  0.1814
  960MOL0     C26647   9.534   7.567   1.469 -0.5774  0.0106  0.4275
  960MOL0     C26648   9.679   7.595   1.435  0.4539 -0.1970 -0.4458
  960MOL0     C26649   9.715   7.547   1.301  0.4429  0.4875 -0.1281
  960MOL0     C26650   9.856   7.492   1.304 -0.7757 -0.2790  0.2091
  960MOL0     C26651   9.900   7.475   1.161  0.0485 -0.0723 -0.7077
  960MOL0     C26652   9.945   7.481   1.052 -0.3686  0.0088  0.3612
  960MOL0     C26653   9.342   7.647   1.763 -0.1101  0.3462  0.2831
  960MOL0     C26654   9.217   7.657   1.827  0.4926  0.2236 -0.0364
  960MOL0     H26655   8.659   7.566   1.624 -1.0629 -0.2574 -0.6719
  960MOL0     H26656   8.446   7.535   1.680  0.5277 -2.5459 -1.3053
  960MOL0     H26657   8.238   7.592   1.808 -0.2860  6.8930  1.6343
  960MOL0     H26658   8.274   7.655   1.965 -2.4729 -0.8443  1.0869
  960MOL0     H26659   8.117   7.514   2.075 -0.7934 -2.5145  0.0854
  960MOL0     H26660   8.112   7.402   1.936 -2.5479 -0.4981  0.9966
  960MOL0     H26661   7.968   7.554   1.807  1.4685  2.1080 -0.1934
  960MOL0     H26662   7.978   7.672   1.939  0.3798  0.0261 -2.1158
  960MOL0     H26663   7.877   7.384   1.991  0.5728  0.1740 -0.6561
  960MOL0     H26664   7.877   7.520   2.100  0.4266  2.6068 -0.6054
  960MOL0     H26665   7.703   7.503   1.839  3.3333  1.0972 -1.2523
  960MOL0     H26666   7.748   7.651   1.906 -2.3773  0.7318  2.8251
  960MOL0     H26667   7.646   7.635   2.107  0.2325  0.4067 -0.4301
  960MOL0     H26668   7.620   7.463   2.090 -1.2863  0.5581  1.5246
  960MOL0     H26669   7.484   7.686   1.933  2.9928 -0.4870 -0.4196
  960MOL0     H26670   7.458   7.511   1.912  3.3595 -0.5367 -0.1351
  960MOL0     H26671   7.280   7.627   2.039  1.2335 -0.0584 -1.0470
  960MOL0     H26672   7.391   7.681   2.165 -1.0185  1.5403 -1.0009
  960MOL0     H26673   7.465   7.489   2.345 -0.3193 -0.3528 -0.5716
  960MOL0     H26674   7.463   7.184   2.410  0.3621 -2.6963  2.9121
  960MOL0     H26675   7.291   7.152   2.416 -0.6903  0.6914  3.0864
  960MOL0     H26676   7.251   7.330   2.564  0.1408  0.1835 -0.7640
  960MOL0     H26677   7.425   7.372   2.574 -0.2651  0.1093  0.6580
  960MOL0     H26678   7.311   7.100   2.653  0.7577 -1.1736  0.5057
  960MOL0     H26679   7.488   7.150   2.650  0.4512  0.2685 -1.9888
  960MOL0     H26680   7.428   7.317   2.828  1.5934 -0.2142 -2.9246
  960MOL0     H26681   7.394   7.144   2.864  1.7563 -1.2210 -2.4020
  960MOL0     H26682   6.988   7.306   2.764 -0.2434  0.4332 -0.0550
  960MOL0     H26683   6.788   7.199   2.857 -0.4151 -2.9209 -1.1519
  960MOL0     H26684   6.600   6.850   3.214  0.9141  2.0284  1.2129
  960MOL0     H26685   6.385   6.807   3.305  0.5926 -1.8738 -2.1815
  960MOL0     H26686   6.164   6.726   3.332 -2.0772  1.4655  1.8141
  960MOL0     H26687   6.147   6.745   3.157 -0.3437 -0.7210  0.1795
  960MOL0     H26688   5.935   6.665   3.252  2.2570 -1.2594  3.8316
  960MOL0     H26689   5.901   6.835   3.213 -3.2023 -0.7385  1.7154
  960MOL0     H26690   5.932   6.904   3.447 -1.5346 -1.4533  3.3601
  960MOL0     H26691   6.006   6.749   3.486 -0.7248 -0.1157  1.4533
  960MOL0     H26692   5.713   6.819   3.422 -0.9797 -0.4193  0.3007
  960MOL0     H26693   5.768   6.654   3.417  1.9283 -0.0659 -0.1968
  960MOL0     H26694   5.787   6.850   3.646  1.4424  0.3311 -3.7710
  960MOL0     H26695   5.837   6.690   3.662  0.5709  0.4536 -0.2506
  960MOL0     H26696   5.555   6.797   3.609  0.8970  1.7985  0.4756
  960MOL0     H26697   5.611   6.727   3.763  0.8152 -3.7878  0.7955
  960MOL0     H26698   5.491   6.599   3.530 -1.9028 -1.0536  0.5833
  960MOL0     H26699   5.644   6.517   3.579 -0.4068 -0.7415  3.7725
  960MOL0     H26700   5.409   6.576   3.764 -1.3517 -2.1937  0.8246
  960MOL0     H26701   5.564   6.505   3.820 -1.0513 -0.4981  1.6868
  960MOL0     H26702   6.208   7.113   3.072 -0.1574  0.1848  0.3189
  960MOL0     H26703   6.424   7.149   2.959  1.9188 -1.6178 -1.4699
  960MOL0     H26704   7.041   6.957   3.107 -1.1954 -0.4134 -0.2522
  960MOL0     H26705   7.242   7.098   3.038 -0.3365  1.1367 -0.2886
  960MOL0     H26706   8.551   7.463   2.088  1.4233  1.3485  1.5732
  960MOL0     H26707   8.789   7.492   2.023 -0.2992  0.0031  0.4660
  960MOL0     H26708   9.040   7.524   1.570  2.0012 -0.0425 -1.2158
  960MOL0     H26709   9.262   7.513   1.464  0.1481  2.4403 -0.7078
  960MOL0     H26710   9.472   7.616   1.394 -1.5532  1.2803  1.9951
  960MOL0     H26711   9.518   7.459   1.458 -1.2252  0.1720 -0.2562
  960MOL0     H26712   9.689   7.703   1.448 -1.6434 -0.0053  0.0364
  960MOL0     H26713   9.734   7.542   1.513 -2.3311 -0.9001  1.1823
  960MOL0     H26714   9.714   7.630   1.229  1.9945 -1.0046 -1.9586
  960MOL0     H26715   9.643   7.472   1.266  0.8371  0.3726 -0.7066
  960MOL0     H26716   9.933   7.560   1.341  0.8251 -1.5288 -0.7092
  960MOL0     H26717   9.865   7.394   1.352  2.1459 -0.8185 -1.2447
  960MOL0     H26718   9.974   7.474   0.949  1.3009  1.2016  0.7068
  960MOL0     H26719   9.434   7.658   1.819  0.3688 -0.8669 -0.2310
  960MOL0     H26720   9.210   7.686   1.931 -0.2402 -3.6278  1.1493
  961MOL0     O26721   4.169  10.929  10.833 -0.0484 -0.6631 -0.1678
  961MOL0     C26722   4.234  10.831  10.802 -0.6732 -0.0347  0.0694
  961MOL0     O26723   4.193  10.702  10.817 -0.1950  0.1426  0.6528
  961MOL0     C26724   4.071  10.672  10.880  0.1586 -0.2091  1.1982
  961MOL0     C26725   4.016  10.746  10.988  0.1906 -1.0729  0.5232
  961MOL0     C26726   3.895  10.706  11.055  0.0528  0.8013 -0.3157
  961MOL0     C26727   3.829  10.586  11.017  0.3649 -0.1158  0.5458
  961MOL0     O26728   3.726  10.530  11.082  0.5184  0.6542  0.6527
  961MOL0     C26729   3.652  10.581  11.196 -0.2894 -0.3619  0.5235
  961MOL0     C26730   3.567  10.694  11.142  0.0761 -0.3451 -0.0745
  961MOL0     C26731   3.449  10.716  11.228 -0.0764  0.4111  0.3564
  961MOL0     C26732   3.371  10.834  11.166  0.4593  0.0651  0.0599
  961MOL0     C26733   3.247  10.867  11.249 -0.0719 -0.3335  0.4531
  961MOL0     C26734   3.123  10.855  11.160 -0.0699 -0.2922 -0.2327
  961MOL0     C26735   2.989  10.877  11.216  0.4945  0.5941 -0.2171
  961MOL0     C26736   2.983  10.807  11.359  0.4301 -0.2392 -0.7808
  961MOL0     N26737   2.843  10.783  11.385 -0.5768  0.2868 -0.3197
  961MOL0     C26738   2.768  10.867  11.466 -0.0908  0.1580  0.0212
  961MOL0     C26739   2.643  10.848  11.428  0.9206  0.6104  0.3393
  961MOL0     C26740   2.515  10.908  11.486 -0.3686 -0.4651 -0.3209
  961MOL0     C26741   2.415  10.802  11.552  0.1499  0.1811  0.0954
  961MOL0     C26742   2.286  10.866  11.614 -0.7610 -0.2227 -0.4187
  961MOL0     C26743   2.182  10.761  11.653 -0.0929 -0.0953 -0.1871
  961MOL0     O26744   2.081  10.822  11.723 -0.0701 -0.7180  0.3352
  961MOL0     C26745   1.967  10.757  11.757  0.2486 -0.0273 -0.0662
  961MOL0     C26746   1.946  10.611  11.735 -0.2276 -0.8696  0.2625
  961MOL0     C26747   1.818  10.552  11.761 -0.1608  0.9354 -0.1504
  961MOL0     C26748   1.714  10.632  11.817 -1.2403  0.4850  0.5742
  961MOL0     C26749   1.591  10.564  11.860  0.0060 -0.8684  0.2605
  961MOL0     O26750   1.499  10.634  11.935  0.4449 -0.1648 -0.4279
  961MOL0     C26751   1.372  10.637  11.885 -0.1673 -0.4496 -0.1201
  961MOL0     C26752   1.349  10.734  11.785  0.1377 -0.2026 -0.2052
  961MOL0     C26753   1.219  10.747  11.739 -0.5291  0.2803 -0.6407
  961MOL0     C26754   1.116  10.677  11.784 -0.8369  0.6899  0.6447
  961MOL0     O26755   0.994  10.702  11.718  0.5090  0.2787  0.0591
  961MOL0     C26756   0.874  10.695  11.800  0.6518 -0.1334 -0.1884
  961MOL0     C26757   0.769  10.652  11.699  0.4826  0.4345  0.1287
  961MOL0     C26758   0.654  10.587  11.766 -0.2954  0.2767  0.0230
  961MOL0     C26759   0.545  10.547  11.662  0.7929  0.1264  0.0661
  961MOL0     C26760   0.426  10.484  11.737  0.0381  0.0889  0.1374
  961MOL0     C26761   0.321  10.420  11.643 -0.3743  1.4927 -0.1337
  961MOL0     C26762   0.256  10.513  11.543  0.6225 -0.9040  0.3642
  961MOL0     C26763   0.144  10.437  11.469  0.1022  0.5917  1.3460
  961MOL0    Cl26764   0.000  10.430  11.578 -0.3799  0.2283 -0.2881
  961MOL0     C26765   1.137  10.587  11.886 -0.8137  0.6278 -0.0107
  961MOL0     C26766   1.264  10.564  11.932 -1.3330  0.3250  1.1291
  961MOL0     O26767   1.570  10.455  11.818 -0.0151  0.3416  0.1222
  961MOL0     C26768   1.733  10.772  11.840 -1.0660 -0.4680  0.1974
  961MOL0     C26769   1.861  10.830  11.809 -0.5725  0.1593  0.3215
  961MOL0     N26770   2.644  10.739  11.336 -0.5895  0.1828  0.0422
  961MOL0     N26771   2.769  10.704  11.308  1.0461 -0.1174  1.2144
  961MOL0     C26772   3.890  10.511  10.914 -0.7371  0.2414  0.5930
  961MOL0     C26773   3.998  10.559  10.844  0.0576 -0.2128  0.5457
  961MOL0     C26774   4.359  10.851  10.718  1.2627 -0.2737 -0.0249
  961MOL0     C26775   4.406  10.976  10.679  0.3923  0.0887  0.6082
  961MOL0     C26776   4.523  10.996  10.608  0.2958 -1.2170 -0.4031
  961MOL0     C26777   4.606  10.890  10.571 -0.3178 -0.3100 -0.2652
  961MOL0     O26778   4.723  10.909  10.497 -0.0024  0.3361  0.2359
  961MOL0     C26779   4.808  11.017  10.532  0.1452  0.2284 -0.1924
  961MOL0     C26780   4.917  10.953  10.619 -0.7694 -0.5150  0.7560
  961MOL0     C26781   5.055  11.027  10.610 -0.1188 -0.1353  0.3392
  961MOL0     C26782   5.059  11.168  10.684 -0.6824  0.6682 -0.2259
  961MOL0     C26783   5.192  11.225  10.674 -0.4608 -0.7651 -0.9646
  961MOL0     C26784   5.300  11.275  10.655  0.1643  0.4475  0.0297
  961MOL0     C26785   4.565  10.764  10.614 -0.1867 -0.0937 -0.3396
  961MOL0     C26786   4.445  10.744  10.688  0.4205  0.0987  0.1198
  961MOL0     H26787   4.063  10.838  11.023 -2.9215  0.6771  0.5004
  961MOL0     H26788   3.851  10.768  11.132 -1.0738 -1.3962  0.8782
  961MOL0     H26789   3.710  10.626  11.278 -2.4999  3.5442  0.1851
  961MOL0     H26790   3.585  10.506  11.239  0.9903 -1.5997  0.4493
  961MOL0     H26791   3.530  10.656  11.047 -1.1151  0.9291 -0.1681
  961MOL0     H26792   3.620  10.790  11.146 -1.8860  0.7840  0.8900
  961MOL0     H26793   3.481  10.747  11.327 -0.2577  0.6361  0.3453
  961MOL0     H26794   3.385  10.628  11.240 -0.4732  1.0132  3.5159
  961MOL0     H26795   3.426  10.928  11.156 -1.4033  1.1140 -0.8808
  961MOL0     H26796   3.347  10.804  11.064  0.0866  1.0708 -0.1550
  961MOL0     H26797   3.265  10.970  11.281 -1.0942  0.1058 -0.3201
  961MOL0     H26798   3.237  10.802  11.336 -1.0955  0.0668  0.6529
  961MOL0     H26799   3.128  10.755  11.114 -0.9983 -0.4979  0.0913
  961MOL0     H26800   3.149  10.922  11.078  0.8701 -0.3829 -0.0152
  961MOL0     H26801   2.963  10.983  11.217 -0.7124  0.3682  2.5033
  961MOL0     H26802   2.918  10.830  11.147 -1.1212  3.8696 -0.9815
  961MOL0     H26803   3.024  10.873  11.435 -2.2947 -1.1863  1.6560
  961MOL0     H26804   3.033  10.709  11.361  0.5381 -0.1700  0.3672
  961MOL0     H26805   2.814  10.943  11.528 -0.0044  1.4209 -1.5199
  961MOL0     H26806   2.461  10.935  11.395 -0.6984 -3.5412 -1.1472
  961MOL0     H26807   2.539  10.992  11.552  1.1966 -1.2366  0.1465
  961MOL0     H26808   2.474  10.761  11.634  1.0606  2.1472  0.4578
  961MOL0     H26809   2.383  10.731  11.474 -1.9148  3.5577 -2.4064
  961MOL0     H26810   2.310  10.923  11.704  0.6794  3.5719 -2.9699
  961MOL0     H26811   2.242  10.933  11.540 -2.2396 -1.9556 -1.1951
  961MOL0     H26812   2.222  10.675  11.709 -0.1547  0.4768  0.7637
  961MOL0     H26813   2.141  10.718  11.561  3.0245 -1.1399 -1.2265
  961MOL0     H26814   2.024  10.551  11.691  1.4293  2.7802 -2.3366
  961MOL0     H26815   1.797  10.448  11.737  1.2911  0.6901 -0.4425
  961MOL0     H26816   1.422  10.801  11.741 -1.4705  1.4928 -0.4083
  961MOL0     H26817   1.207  10.825  11.664  0.8108  1.3113  0.1580
  961MOL0     H26818   0.845  10.787  11.852  3.0028  0.7808 -0.3870
  961MOL0     H26819   0.889  10.625  11.882  1.9203  1.8417  1.3789
  961MOL0     H26820   0.808  10.580  11.627 -2.4118 -0.0567 -1.1125
  961MOL0     H26821   0.722  10.732  11.640  1.1396 -1.1546 -2.7244
  961MOL0     H26822   0.600  10.652  11.836  0.4033 -1.5532  2.3617
  961MOL0     H26823   0.683  10.497  11.821 -0.3979 -1.4439 -2.5548
  961MOL0     H26824   0.502  10.632  11.607 -1.5457 -1.6574 -1.0536
  961MOL0     H26825   0.574  10.482  11.579 -0.3370 -0.5925  0.2159
  961MOL0     H26826   0.376  10.566  11.788  0.2391 -2.0048  4.0531
  961MOL0     H26827   0.456  10.415  11.817 -0.2489  1.1115  1.1488
  961MOL0     H26828   0.239  10.375  11.700  1.2807  0.8470  1.8298
  961MOL0     H26829   0.365  10.333  11.593  1.7995  2.2013  0.4726
  961MOL0     H26830   0.224  10.610  11.583  0.7270  0.0287 -1.6638
  961MOL0     H26831   0.331  10.543  11.469 -2.0422 -0.6412 -2.4457
  961MOL0     H26832   0.175  10.336  11.440  1.7680  1.3871  0.2048
  961MOL0     H26833   0.107  10.475  11.374 -3.4923 -1.4307  1.7739
  961MOL0     H26834   1.053  10.521  11.908  0.5042 -1.2121 -0.3094
  961MOL0     H26835   1.284  10.481  11.999  0.0649 -1.2181 -1.0618
  961MOL0     H26836   1.651  10.816  11.896 -1.0250 -2.3084  1.8020
  961MOL0     H26837   1.893  10.932  11.828  1.3839 -0.1184 -1.1901
  961MOL0     H26838   3.841  10.419  10.883 -2.8180  2.0272 -1.8581
  961MOL0     H26839   4.026  10.502  10.756  3.8976  0.9555  0.8190
  961MOL0     H26840   4.350  11.067  10.692  0.2381  0.7327 -3.2995
  961MOL0     H26841   4.543  11.102  10.591  0.0930 -1.0340  0.4746
  961MOL0     H26842   4.753  11.097  10.583 -2.1693 -1.2166 -0.3204
  961MOL0     H26843   4.855  11.050  10.439 -1.6241  0.8778 -0.9066
  961MOL0     H26844   4.886  10.967  10.723 -2.1073 -0.9945  0.4408
  961MOL0     H26845   4.938  10.846  10.614  0.8019 -0.2430  0.7958
  961MOL0     H26846   5.091  11.044  10.508  0.7288  2.3869  0.9888
  961MOL0     H26847   5.129  10.960  10.655  2.5743  1.2378 -1.7451
  961MOL0     H26848   4.981  11.242  10.664 -1.1079  0.4925  0.6895
  961MOL0     H26849   5.032  11.143  10.788 -2.5271 -0.8205 -0.9935
  961MOL0     H26850   5.397  11.316  10.633 -1.4989  3.4420 -2.5742
  961MOL0     H26851   4.637  10.687  10.587 -0.8576 -0.4945 -1.0584
  961MOL0     H26852   4.417  10.642  10.714  0.1868 -1.7871 -5.8416
  962MOL0     O26853   2.412   0.345   0.702 -1.0260  0.2118 -0.1840
  962MOL0     C26854   2.485   0.426   0.758 -0.5272  0.8552  0.5970
  962MOL0     O26855   2.460   0.502   0.864  0.1039  0.2401 -0.5049
  962MOL0     C26856   2.332   0.505   0.919 -0.1765  0.2160  0.2411
  962MOL0     C26857   2.241   0.396   0.916 -0.5595  0.0401 -0.4141
  962MOL0     C26858   2.108   0.414   0.958  0.2196  0.7253  0.5418
  962MOL0     C26859   2.067   0.543   0.992  0.8738 -0.0695  0.6954
  962MOL0     O26860   1.938   0.576   1.030 -0.3559 -0.1641  0.7504
  962MOL0     C26861   1.851   0.468   1.062 -0.0412  0.4089 -0.0721
  962MOL0     C26862   1.719   0.521   1.117 -0.2080  0.7118 -0.2461
  962MOL0     C26863   1.623   0.566   1.007 -0.6493  0.8531  1.0749
  962MOL0     C26864   1.549   0.443   0.931 -0.4212 -0.1535  0.1845
  962MOL0     C26865   1.489   0.480   0.799 -0.3059 -0.5607 -0.0747
  962MOL0     C26866   1.383   0.591   0.810  0.6035 -0.2200  0.4660
  962MOL0     C26867   1.308   0.610   0.679  1.7616 -0.3782  0.4665
  962MOL0     C26868   1.148   0.622   0.693 -0.7568  0.0232 -0.1705
  962MOL0     N26869   1.089   0.501   0.768 -0.4659 -0.7777  0.6048
  962MOL0     C26870   1.077   0.368   0.730 -0.0274 -0.1612  0.3012
  962MOL0     C26871   1.011   0.320   0.838 -0.1887  0.2878 -0.8650
  962MOL0     C26872   0.941   0.184   0.838 -0.4724  0.4361  0.1155
  962MOL0     C26873   1.000   0.096   0.951 -0.5742 -0.2810 -0.2907
  962MOL0     C26874   0.899  -0.008   0.982  0.1470 -0.2805 -0.9086
  962MOL0     C26875   0.901  -0.141   0.901 -0.3358 -0.7486  0.8620
  962MOL0     O26876   0.853  -0.115   0.768 -0.6976 -0.0234  0.3794
  962MOL0     C26877   0.725  -0.129   0.729  0.4272 -0.3352 -0.7820
  962MOL0     C26878   0.605  -0.111   0.804 -0.4552 -1.2524 -0.0450
  962MOL0     C26879   0.479  -0.159   0.763 -0.4874  0.0590  0.6197
  962MOL0     C26880   0.469  -0.228   0.635  0.1668  0.2614  0.0378
  962MOL0     C26881   0.334  -0.288   0.590 -0.3196  0.5857  0.4725
  962MOL0     O26882   0.218  -0.280   0.665 -0.2523 -0.3787 -0.1592
  962MOL0     C26883   0.096  -0.317   0.615  0.2262 -0.4232 -0.5145
  962MOL0     C26884  -0.008  -0.242   0.657  0.2838  0.3543  0.3740
  962MOL0     C26885  -0.138  -0.266   0.610  0.6451 -0.1626 -0.6120
  962MOL0     C26886  -0.168  -0.368   0.516 -0.1245 -0.1718 -0.2341
  962MOL0     O26887  -0.292  -0.396   0.458  0.2116  0.3448 -0.9857
  962MOL0     C26888  -0.404  -0.317   0.507  1.1319 -0.0791  0.1292
  962MOL0     C26889  -0.545  -0.364   0.460 -0.2045 -0.1258 -1.0136
  962MOL0     C26890  -0.584  -0.502   0.508 -0.5416  0.2798 -0.6607
  962MOL0     C26891  -0.520  -0.605   0.415 -0.1119  0.6983  0.3532
  962MOL0     C26892  -0.611  -0.719   0.373 -1.4182  1.2604  0.0747
  962MOL0     C26893  -0.540  -0.823   0.285  0.1076  0.3456  0.0368
  962MOL0     C26894  -0.640  -0.934   0.238 -0.2259 -0.0352  0.3863
  962MOL0     C26895  -0.652  -1.049   0.347 -0.2388  0.1388  0.7219
  962MOL0    Cl26896  -0.533  -1.176   0.336 -0.0085  0.2556  0.1333
  962MOL0     C26897  -0.063  -0.450   0.487 -0.1634 -0.1884 -0.3992
  962MOL0     C26898   0.073  -0.428   0.536  0.0470  0.0256  0.2078
  962MOL0     O26899   0.346  -0.340   0.482 -0.7683 -0.4544  0.4080
  962MOL0     C26900   0.581  -0.223   0.550  0.0390  0.0014  1.3057
  962MOL0     C26901   0.701  -0.168   0.594 -0.4166 -0.6792  0.1688
  962MOL0     N26902   1.006   0.413   0.937 -0.1577 -0.2382 -0.4034
  962MOL0     N26903   1.039   0.525   0.891  0.4189 -0.5736  0.3028
  962MOL0     C26904   2.158   0.646   1.006 -1.3279  0.5714  0.4799
  962MOL0     C26905   2.292   0.627   0.967 -0.0226 -0.3909 -0.0991
  962MOL0     C26906   2.619   0.434   0.703  0.2048  0.4281  0.2458
  962MOL0     C26907   2.717   0.515   0.765  0.8711  0.0951 -0.3510
  962MOL0     C26908   2.853   0.506   0.714 -1.0140  0.7280  0.4274
  962MOL0     C26909   2.892   0.424   0.612 -0.9663  0.9598  0.8154
  962MOL0     O26910   3.022   0.427   0.574 -0.9391  0.8910 -0.4162
  962MOL0     C26911   3.064   0.359   0.453 -0.3950  0.7968  0.3282
  962MOL0     C26912   3.219   0.331   0.457  0.1003 -0.7664 -0.1740
  962MOL0     C26913   3.295   0.457   0.408  0.1200  0.6075 -0.2081
  962MOL0     C26914   3.432   0.414   0.409 -1.3164 -0.7284 -0.3346
  962MOL0     C26915   3.519   0.532   0.375 -0.3775 -0.3468  0.0595
  962MOL0     C26916   3.599   0.620   0.344 -0.0394 -0.5456 -0.8990
  962MOL0     C26917   2.791   0.352   0.549 -0.1140 -0.2786  0.1641
  962MOL0     C26918   2.657   0.363   0.590  0.2597 -0.0421  0.2891
  962MOL0     H26919   2.268   0.299   0.875 -1.0398  0.0830 -0.8333
  962MOL0     H26920   2.043   0.327   0.966  1.0201  0.1822  1.5135
  962MOL0     H26921   1.905   0.408   1.136 -0.7092  0.6841  0.6588
  962MOL0     H26922   1.831   0.405   0.975 -2.4359  3.7840 -2.2500
  962MOL0     H26923   1.752   0.591   1.195  1.9665 -0.5927  0.1225
  962MOL0     H26924   1.673   0.438   1.172  2.0871 -0.3994  0.1721
  962MOL0     H26925   1.680   0.631   0.939 -1.6269  0.8575  0.2313
  962MOL0     H26926   1.545   0.629   1.050  0.7713  1.3852  3.0040
  962MOL0     H26927   1.621   0.361   0.920  3.0407  2.4090  1.6973
  962MOL0     H26928   1.465   0.417   0.996  1.1044 -0.3643  2.1638
  962MOL0     H26929   1.452   0.389   0.752  0.2045 -1.0563  0.4537
  962MOL0     H26930   1.563   0.518   0.728  0.1937 -0.7732  0.3256
  962MOL0     H26931   1.437   0.685   0.827  2.2925 -0.1082 -4.0330
  962MOL0     H26932   1.312   0.578   0.892  1.1286  2.5461  1.4900
  962MOL0     H26933   1.330   0.713   0.649 -1.2360  0.3457  0.5221
  962MOL0     H26934   1.341   0.544   0.598  0.4752 -1.3363  0.6950
  962MOL0     H26935   1.098   0.632   0.596  2.1859 -0.0704 -1.8306
  962MOL0     H26936   1.124   0.709   0.753 -0.4738  0.8451 -1.2208
  962MOL0     H26937   1.076   0.319   0.633 -0.6379 -1.4507  0.9446
  962MOL0     H26938   0.970   0.140   0.742  0.3880  1.5477 -0.1614
  962MOL0     H26939   0.833   0.200   0.835 -0.5807 -0.2688 -2.3199
  962MOL0     H26940   1.001   0.152   1.044  1.5414  0.6122 -0.7986
  962MOL0     H26941   1.099   0.057   0.925  0.6108  2.6804 -0.5223
  962MOL0     H26942   0.914  -0.041   1.086 -1.9190  1.0014 -0.1419
  962MOL0     H26943   0.797   0.031   0.981  1.0864  2.3344 -1.7366
  962MOL0     H26944   0.841  -0.222   0.944  1.4263 -0.7830  3.4340
  962MOL0     H26945   1.001  -0.183   0.897 -0.4246 -1.0228  1.4731
  962MOL0     H26946   0.601  -0.054   0.896  0.2794 -1.8854  0.3911
  962MOL0     H26947   0.397  -0.142   0.832 -0.9159  0.2954  0.0665
  962MOL0     H26948   0.021  -0.167   0.730  4.0261 -3.0263  2.7759
  962MOL0     H26949  -0.214  -0.204   0.657  1.9617  2.5983 -1.9005
  962MOL0     H26950  -0.387  -0.213   0.477  1.0723  0.5550  2.1456
  962MOL0     H26951  -0.399  -0.328   0.616  2.8544 -0.7101  0.0288
  962MOL0     H26952  -0.561  -0.350   0.353 -3.1655 -1.0722 -0.7894
  962MOL0     H26953  -0.615  -0.294   0.506  1.6557  0.4256  1.1252
  962MOL0     H26954  -0.692  -0.508   0.499 -0.4745 -2.5929 -0.3668
  962MOL0     H26955  -0.549  -0.520   0.610  0.0783 -4.0903 -1.4411
  962MOL0     H26956  -0.491  -0.552   0.324  0.0855  0.7997  0.4746
  962MOL0     H26957  -0.439  -0.660   0.464 -0.5356 -1.2187 -0.9692
  962MOL0     H26958  -0.687  -0.661   0.320  1.1370  3.1087 -1.8310
  962MOL0     H26959  -0.651  -0.759   0.467  0.3151  0.8300  0.6603
  962MOL0     H26960  -0.460  -0.866   0.347 -1.1985 -0.0095  1.5342
  962MOL0     H26961  -0.486  -0.773   0.204 -0.2359  2.2040  0.9014
  962MOL0     H26962  -0.735  -0.884   0.216  0.4647  0.9703 -0.3862
  962MOL0     H26963  -0.609  -0.989   0.148 -0.8181  1.8625 -1.0396
  962MOL0     H26964  -0.749  -1.098   0.334  1.1664 -2.4597 -0.9971
  962MOL0     H26965  -0.652  -1.008   0.448 -2.1672 -0.6744  1.0894
  962MOL0     H26966  -0.080  -0.539   0.427 -0.1840 -1.4066  1.3463
  962MOL0     H26967   0.147  -0.499   0.498 -0.6528  0.3943 -2.0179
  962MOL0     H26968   0.572  -0.272   0.453 -2.0870 -1.5457  2.2127
  962MOL0     H26969   0.786  -0.163   0.528 -1.1641  3.8279 -0.7451
  962MOL0     H26970   2.118   0.737   1.047 -0.3274  1.0800  0.3739
  962MOL0     H26971   2.356   0.713   0.987 -2.1563  1.7907 -1.9853
  962MOL0     H26972   2.690   0.578   0.849 -2.1192 -1.2979 -0.1411
  962MOL0     H26973   2.929   0.562   0.768 -0.6183  0.9472 -0.3479
  962MOL0     H26974   3.054   0.426   0.367  0.6678 -1.3479 -1.5865
  962MOL0     H26975   3.012   0.266   0.430  0.6301  0.2920 -0.0110
  962MOL0     H26976   3.245   0.302   0.559 -0.4646 -1.5561 -0.2490
  962MOL0     H26977   3.238   0.253   0.383 -2.1923 -1.7497  0.1890
  962MOL0     H26978   3.284   0.534   0.485  3.0673 -0.1559  1.1205
  962MOL0     H26979   3.253   0.499   0.316  0.4635  1.8339  0.1660
  962MOL0     H26980   3.460   0.371   0.505 -0.0826  0.8388  0.0641
  962MOL0     H26981   3.452   0.337   0.334  2.2896  1.8123 -2.3011
  962MOL0     H26982   3.673   0.697   0.332  0.8900 -0.7233  2.4981
  962MOL0     H26983   2.820   0.282   0.472  1.4568  1.7995 -1.2293
  962MOL0     H26984   2.578   0.301   0.548 -1.3712  2.0558  0.0686
  963MOL0     O26985   7.909   5.499   2.146 -0.2603 -0.3852  0.2469
  963MOL0     C26986   7.924   5.577   2.244 -0.7218  0.4415 -0.2869
  963MOL0     O26987   7.823   5.635   2.314 -0.0340  0.4963 -0.4586
  963MOL0     C26988   7.696   5.608   2.264  0.4103  0.0721 -0.6547
  963MOL0     C26989   7.614   5.718   2.241 -0.2073  0.8538 -0.4229
  963MOL0     C26990   7.485   5.701   2.190  0.0687 -0.3903  0.2477
  963MOL0     C26991   7.434   5.571   2.165  0.1095  0.1530 -0.2706
  963MOL0     O26992   7.310   5.537   2.119  0.1105  0.2106 -0.2476
  963MOL0     C26993   7.238   5.629   2.032  0.4699 -0.7795 -0.4598
  963MOL0     C26994   7.089   5.583   2.024 -0.3111  0.2000 -0.5239
  963MOL0     C26995   7.026   5.650   1.903  0.2046 -0.0437 -0.3034
  963MOL0     C26996   6.911   5.560   1.851 -0.5969 -0.1741 -0.1891
  963MOL0     C26997   6.797   5.566   1.949  0.5963  0.5673  0.3138
  963MOL0     C26998   6.660   5.526   1.884 -0.3936  0.3584 -0.7992
  963MOL0     C26999   6.551   5.547   1.984 -0.1014  0.4086 -0.2796
  963MOL0     C27000   6.420   5.548   1.922 -0.0074 -0.6059 -0.6384
  963MOL0     N27001   6.352   5.426   1.923  0.3962  0.0484 -0.4464
  963MOL0     C27002   6.267   5.392   2.023  0.5915  0.0720 -0.3108
  963MOL0     C27003   6.221   5.269   1.980 -0.4048 -0.6970  0.0797
  963MOL0     C27004   6.106   5.195   2.048 -0.8219 -0.8017 -0.8004
  963MOL0     C27005   6.171   5.095   2.145 -0.2430 -0.2063  0.0800
  963MOL0     C27006   6.064   4.993   2.187 -0.0565  0.1561 -0.5934
  963MOL0     C27007   5.984   5.048   2.305 -0.7248  0.1615  1.0094
  963MOL0     O27008   5.895   4.941   2.336  0.4405  0.3073  0.5482
  963MOL0     C27009   5.754   4.953   2.327 -0.4966  0.1734  0.2483
  963MOL0     C27010   5.690   4.849   2.388  1.9695  0.6556 -0.4712
  963MOL0     C27011   5.546   4.832   2.383  0.0391 -0.4100 -0.1745
  963MOL0     C27012   5.475   4.941   2.315  0.3470 -0.3932 -0.5517
  963MOL0     C27013   5.330   4.945   2.293  0.1027 -0.2498 -0.3047
  963MOL0     O27014   5.262   4.832   2.349  0.2841 -0.0480  0.2263
  963MOL0     C27015   5.131   4.794   2.326  0.6468 -0.1205 -0.6948
  963MOL0     C27016   5.040   4.852   2.235 -0.5604 -0.1508 -1.0163
  963MOL0     C27017   4.910   4.804   2.215 -0.1465  0.0139 -0.6090
  963MOL0     C27018   4.863   4.701   2.295  0.2595 -0.7347  0.0553
  963MOL0     O27019   4.727   4.674   2.289  0.1552  0.1246 -0.4462
  963MOL0     C27020   4.689   4.534   2.327 -0.0009 -0.8245  0.9402
  963MOL0     C27021   4.631   4.517   2.467 -0.7726  0.5517  0.4236
  963MOL0     C27022   4.609   4.379   2.510 -0.4913  0.2558  0.8667
  963MOL0     C27023   4.516   4.300   2.415  0.2715  0.5912 -1.1046
  963MOL0     C27024   4.429   4.195   2.490  0.2457 -0.8714  0.1714
  963MOL0     C27025   4.320   4.145   2.387 -0.2944  0.6867 -0.2625
  963MOL0     C27026   4.206   4.064   2.452  0.0070  0.6680 -0.7756
  963MOL0     C27027   4.112   3.993   2.356  0.1004  0.5053  0.4721
  963MOL0    Cl27028   3.977   4.092   2.312 -0.7316 -0.0030  0.6079
  963MOL0     C27029   4.948   4.642   2.378  0.1169  0.7451 -1.2483
  963MOL0     C27030   5.086   4.682   2.392  0.2639  0.6538 -0.0679
  963MOL0     O27031   5.274   5.048   2.253  0.3424 -0.5918  0.0278
  963MOL0     C27032   5.550   5.041   2.256  0.0196 -0.0770  0.3858
  963MOL0     C27033   5.684   5.042   2.253 -0.2496  0.6256 -0.2051
  963MOL0     N27034   6.285   5.227   1.870  0.2479 -0.1472 -0.5655
  963MOL0     N27035   6.378   5.319   1.844  0.3761 -0.2731  0.9546
  963MOL0     C27036   7.509   5.464   2.223 -1.1329  0.0577 -0.1205
  963MOL0     C27037   7.641   5.478   2.275  0.2142 -0.1569  0.1245
  963MOL0     C27038   8.060   5.594   2.302  0.3932 -0.5181  0.2405
  963MOL0     C27039   8.076   5.680   2.410 -0.8406  0.3403 -0.0263
  963MOL0     C27040   8.207   5.691   2.455  0.0960  0.2306  0.3810
  963MOL0     C27041   8.321   5.627   2.403 -0.7544 -0.9884  0.3372
  963MOL0     O27042   8.444   5.649   2.462 -0.3401  0.0244 -0.0024
  963MOL0     C27043   8.557   5.635   2.381 -0.0334 -0.1698 -0.6321
  963MOL0     C27044   8.694   5.660   2.445  0.2620  0.6269 -0.1730
  963MOL0     C27045   8.700   5.801   2.508  0.2974  0.1672  0.5562
  963MOL0     C27046   8.842   5.843   2.546 -0.1826  0.2133  0.5811
  963MOL0     C27047   8.908   5.736   2.607  0.7082  1.1884  0.1731
  963MOL0     C27048   8.958   5.643   2.667 -0.1770 -0.5643 -0.1626
  963MOL0     C27049   8.302   5.561   2.280 -0.7524  0.1015 -0.3142
  963MOL0     C27050   8.173   5.555   2.228  0.7642  0.4557 -0.0748
  963MOL0     H27051   7.659   5.817   2.240  1.6955  0.0854  1.9109
  963MOL0     H27052   7.424   5.782   2.150 -0.3158 -1.5840 -1.7654
  963MOL0     H27053   7.285   5.631   1.933  2.5161  1.5681  0.4607
  963MOL0     H27054   7.245   5.727   2.079 -1.1509 -2.1347  2.9615
  963MOL0     H27055   7.029   5.601   2.115 -1.7026 -2.9873 -0.6466
  963MOL0     H27056   7.090   5.474   2.013 -0.7896 -0.3086  3.0051
  963MOL0     H27057   7.101   5.671   1.826 -0.4588  2.4775 -0.3276
  963MOL0     H27058   6.986   5.749   1.927  1.8325  1.0169 -1.7138
  963MOL0     H27059   6.875   5.603   1.757 -1.0762  0.4985  0.2952
  963MOL0     H27060   6.937   5.454   1.842 -2.7002 -0.8839  1.4011
  963MOL0     H27061   6.784   5.662   2.001 -2.6893 -0.6559  2.0019
  963MOL0     H27062   6.825   5.497   2.029  2.4242  1.1145  0.2031
  963MOL0     H27063   6.664   5.421   1.853 -0.7326 -1.2046  3.7058
  963MOL0     H27064   6.654   5.581   1.790  0.5719  3.5193  0.8395
  963MOL0     H27065   6.557   5.464   2.055 -0.0360 -1.2677 -2.1583
  963MOL0     H27066   6.570   5.634   2.048 -1.2387 -0.3389  1.1317
  963MOL0     H27067   6.437   5.569   1.816  0.2894 -3.0002 -1.1075
  963MOL0     H27068   6.356   5.623   1.971  0.3506  1.4416 -3.0693
  963MOL0     H27069   6.245   5.460   2.105 -0.1386  0.3902 -0.7708
  963MOL0     H27070   6.062   5.152   1.957  0.8307  0.7680 -2.4233
  963MOL0     H27071   6.037   5.266   2.095  1.1774  0.5747  0.1815
  963MOL0     H27072   6.220   5.152   2.225  0.5401  3.3239 -2.6439
  963MOL0     H27073   6.247   5.032   2.099  0.8025 -0.9528  2.6838
  963MOL0     H27074   6.012   4.955   2.099 -0.5532 -1.6928  0.4375
  963MOL0     H27075   6.110   4.902   2.227 -0.4299  0.3551  0.3325
  963MOL0     H27076   5.940   5.146   2.282  0.0883 -0.1834 -2.6305
  963MOL0     H27077   6.055   5.052   2.388  2.3359  1.0178 -1.4588
  963MOL0     H27078   5.740   4.772   2.446 -0.5248 -2.2849 -1.9312
  963MOL0     H27079   5.499   4.749   2.434  1.2381 -2.3979 -2.1189
  963MOL0     H27080   5.063   4.934   2.167  1.3195 -0.0464 -0.3128
  963MOL0     H27081   4.843   4.840   2.138 -2.8214 -1.2299  0.9812
  963MOL0     H27082   4.774   4.468   2.312  0.8584  0.8083 -2.2531
  963MOL0     H27083   4.618   4.507   2.248 -0.9830  0.2913  1.4055
  963MOL0     H27084   4.536   4.570   2.479 -1.5622 -0.6788 -0.2591
  963MOL0     H27085   4.698   4.559   2.543 -1.8163  1.7873  0.6962
  963MOL0     H27086   4.571   4.392   2.611 -2.5776  1.8272 -0.0520
  963MOL0     H27087   4.709   4.336   2.520  1.4571  4.2997  1.0946
  963MOL0     H27088   4.449   4.379   2.379  0.1272  1.2161  0.4384
  963MOL0     H27089   4.569   4.265   2.326  1.3768  2.7413 -1.3347
  963MOL0     H27090   4.382   4.239   2.579  0.1833 -0.5860 -0.0038
  963MOL0     H27091   4.477   4.104   2.528  2.7106  0.4754  0.4637
  963MOL0     H27092   4.367   4.093   2.303  1.3897 -1.6941  1.9937
  963MOL0     H27093   4.273   4.231   2.339 -2.9707 -1.3928 -1.6339
  963MOL0     H27094   4.258   3.991   2.514  0.0903 -0.9473 -2.6567
  963MOL0     H27095   4.158   4.136   2.520 -1.8468  1.3105 -2.6627
  963MOL0     H27096   4.077   3.910   2.418  0.4284 -0.2713 -0.3603
  963MOL0     H27097   4.165   3.951   2.270  1.3360  2.6353  0.1093
  963MOL0     H27098   4.912   4.563   2.444 -1.5789  0.6060 -2.2782
  963MOL0     H27099   5.158   4.629   2.453  0.5511  0.6152 -0.4362
  963MOL0     H27100   5.523   5.123   2.190  2.1852  1.7213  1.6138
  963MOL0     H27101   5.747   5.103   2.188  2.0291  0.2450  1.5335
  963MOL0     H27102   7.487   5.358   2.225  3.7904 -1.3770 -2.8836
  963MOL0     H27103   7.690   5.386   2.303 -0.1261 -1.5254 -3.2163
  963MOL0     H27104   7.996   5.730   2.464  1.3710  2.5541  1.4054
  963MOL0     H27105   8.226   5.754   2.542  1.2248 -0.4506  0.6433
  963MOL0     H27106   8.556   5.707   2.299  1.1721  0.8640  0.2317
  963MOL0     H27107   8.561   5.531   2.348  0.8994 -0.2977 -0.1475
  963MOL0     H27108   8.711   5.581   2.518  2.4815  1.6286  0.4737
  963MOL0     H27109   8.772   5.645   2.370  0.8750 -3.5248  1.0911
  963MOL0     H27110   8.628   5.803   2.591 -0.2611  3.5820  0.1277
  963MOL0     H27111   8.660   5.869   2.432 -0.4927 -2.0096 -1.0696
  963MOL0     H27112   8.907   5.871   2.462  1.9894 -1.8579  1.4391
  963MOL0     H27113   8.840   5.929   2.612  1.6625  0.2658  0.6337
  963MOL0     H27114   8.993   5.551   2.710  0.2455 -0.1481  0.3896
  963MOL0     H27115   8.381   5.516   2.220  0.6738  0.5270  1.1701
  963MOL0     H27116   8.151   5.509   2.132  1.0993 -3.2979  1.4738
  964MOL0     O27117   1.089   9.845  10.103 -0.5319 -0.2361 -0.2057
  964MOL0     C27118   1.143   9.786  10.003  0.6474  0.0770 -0.1990
  964MOL0     O27119   1.273   9.774   9.970 -0.0779 -1.1612 -1.3170
  964MOL0     C27120   1.374   9.820  10.052  0.3489 -0.1198  0.5251
  964MOL0     C27121   1.498   9.833   9.985  0.4081  0.4784  0.6793
  964MOL0     C27122   1.611   9.880  10.045  0.1383 -0.1101 -0.9452
  964MOL0     C27123   1.607   9.931  10.170  0.4321 -0.5269 -0.0358
  964MOL0     O27124   1.719   9.987  10.223  0.1077  0.0783  0.3368
  964MOL0     C27125   1.848   9.929  10.204  0.0492  0.1239 -0.5237
  964MOL0     C27126   1.947  10.035  10.182  0.0274 -0.3013  0.7037
  964MOL0     C27127   1.925  10.119  10.048  0.1500 -0.1355  0.3963
  964MOL0     C27128   2.059  10.166   9.980 -0.1030  0.3336  0.4958
  964MOL0     C27129   2.141  10.256  10.070  0.5656 -0.1771 -0.6629
  964MOL0     C27130   2.077  10.391  10.065 -0.0666  0.3078 -0.1879
  964MOL0     C27131   2.158  10.484  10.157  0.1527 -0.5643  0.2567
  964MOL0     C27132   2.057  10.562  10.241  0.9711 -0.1145 -0.3060
  964MOL0     N27133   1.966  10.471  10.326  0.1677  0.9181 -0.2104
  964MOL0     C27134   1.829  10.486  10.337 -0.4596 -0.4530  0.5507
  964MOL0     C27135   1.783  10.398  10.424  0.0470 -0.6351 -0.8408
  964MOL0     C27136   1.647  10.377  10.475  1.2288  0.5570 -0.2861
  964MOL0     C27137   1.564  10.323  10.361  0.2435  0.5203  0.0987
  964MOL0     C27138   1.416  10.359  10.369 -0.6070  0.6207  0.2928
  964MOL0     C27139   1.348  10.264  10.467 -0.1967  0.2906  0.9663
  964MOL0     O27140   1.205  10.306  10.486 -0.6195 -0.3929  0.3234
  964MOL0     C27141   1.113  10.267  10.393  0.0641 -0.7283 -0.0591
  964MOL0     C27142   1.138  10.196  10.279  0.2661 -0.9772 -0.1100
  964MOL0     C27143   1.026  10.161  10.202 -0.7880 -0.5189  0.2911
  964MOL0     C27144   0.894  10.196  10.233 -0.1695 -0.7397 -0.1437
  964MOL0     C27145   0.776  10.140  10.156 -0.7708  0.9564 -0.0154
  964MOL0     O27146   0.801  10.041  10.066 -0.0073 -0.5395 -0.4032
  964MOL0     C27147   0.697   9.980  10.010  0.6282  0.5073  0.4908
  964MOL0     C27148   0.642   9.870  10.082  0.0493  0.3069  0.2042
  964MOL0     C27149   0.519   9.808  10.042  0.5604  0.3647 -0.7810
  964MOL0     C27150   0.460   9.851   9.923 -0.1582 -0.8988 -0.2834
  964MOL0     O27151   0.342   9.799   9.878  0.2062  0.1548  0.0751
  964MOL0     C27152   0.233   9.893   9.892  0.2890 -0.0098 -0.7589
  964MOL0     C27153   0.108   9.812   9.944  0.6235 -0.4883 -0.5062
  964MOL0     C27154  -0.007   9.899   9.991 -0.2581  0.1301  0.8319
  964MOL0     C27155  -0.132   9.819  10.036  0.1217  0.2713  0.1822
  964MOL0     C27156  -0.259   9.911  10.033  0.4711 -1.1658  0.0901
  964MOL0     C27157  -0.375   9.837  10.110  0.2497  0.8584  0.7600
  964MOL0     C27158  -0.509   9.910  10.090  1.1581  0.4877  0.0820
  964MOL0     C27159  -0.625   9.866  10.183  0.1103  0.3060 -0.8856
  964MOL0    Cl27160  -0.697   9.724  10.124  0.2779 -0.2137 -0.0916
  964MOL0     C27161   0.517   9.958   9.852  0.2887  0.1044 -0.5561
  964MOL0     C27162   0.630  10.027   9.893 -0.3976  0.3879  0.2341
  964MOL0     O27163   0.663  10.184  10.182 -0.1272 -0.3298 -0.2245
  964MOL0     C27164   0.879  10.287  10.330  0.5792  0.1545 -0.1660
  964MOL0     C27165   0.989  10.327  10.405  0.5528 -0.7255  0.2653
  964MOL0     N27166   1.893  10.329  10.461 -0.2281  0.1235  0.3372
  964MOL0     N27167   2.006  10.377  10.412 -0.6196  0.0950  0.4889
  964MOL0     C27168   1.485   9.933  10.238 -0.2397 -0.0731 -1.0702
  964MOL0     C27169   1.367   9.878  10.182  0.0726  0.1094  0.6825
  964MOL0     C27170   1.051   9.727   9.905 -1.2059  0.6230 -0.0309
  964MOL0     C27171   1.083   9.710   9.765 -0.6155  0.8319 -0.3230
  964MOL0     C27172   0.992   9.656   9.675 -0.0359 -0.3805  0.3135
  964MOL0     C27173   0.867   9.621   9.720  0.2595  0.1570  0.0087
  964MOL0     O27174   0.780   9.544   9.642  0.3100 -0.1678 -0.9448
  964MOL0     C27175   0.716   9.601   9.530 -0.5468 -0.2142 -0.3982
  964MOL0     C27176   0.579   9.643   9.573 -0.1003  0.5112  0.1340
  964MOL0     C27177   0.495   9.703   9.455 -0.3497  0.6224  0.2662
  964MOL0     C27178   0.360   9.774   9.505  0.0351  0.0247 -0.2772
  964MOL0     C27179   0.281   9.676   9.581  0.1136  0.2482  0.6151
  964MOL0     C27180   0.211   9.602   9.653  0.1752 -0.7618 -0.3185
  964MOL0     C27181   0.824   9.642   9.850  0.0979 -0.9650 -0.8200
  964MOL0     C27182   0.921   9.683   9.946  0.1244  0.2573 -0.1978
  964MOL0     H27183   1.504   9.789   9.886 -2.8134 -0.0415  0.6038
  964MOL0     H27184   1.699   9.896   9.983  0.7061  0.8164  0.0743
  964MOL0     H27185   1.858   9.869  10.113 -0.0830 -2.3137  0.9672
  964MOL0     H27186   1.873   9.869  10.292  1.4244 -1.1351 -1.7060
  964MOL0     H27187   2.043   9.986  10.166 -0.2363 -0.1914 -1.4526
  964MOL0     H27188   1.945  10.092  10.276 -0.7140 -2.3856  2.0390
  964MOL0     H27189   1.857  10.204  10.062 -0.6682 -1.0335  2.1270
  964MOL0     H27190   1.869  10.062   9.973  1.4279  1.5877 -2.0152
  964MOL0     H27191   2.125  10.083   9.953  1.0886  0.7244  2.0715
  964MOL0     H27192   2.036  10.223   9.889  0.5493  1.7769  1.2065
  964MOL0     H27193   2.245  10.274  10.040  0.2115  2.9819 -0.2951
  964MOL0     H27194   2.134  10.219  10.172  0.9652 -1.9807 -1.2527
  964MOL0     H27195   1.978  10.372  10.106  0.1035  0.9946  0.5655
  964MOL0     H27196   2.068  10.435   9.965  1.8617 -0.9712 -0.9980
  964MOL0     H27197   2.225  10.428  10.224  2.0224  1.8403  0.5251
  964MOL0     H27198   2.217  10.540  10.083 -1.4987  0.2304 -0.4970
  964MOL0     H27199   1.994  10.622  10.174  0.0613  0.4525  1.0137
  964MOL0     H27200   2.105  10.628  10.312  0.2782  1.9751 -1.6877
  964MOL0     H27201   1.773  10.556  10.277  1.7558 -0.0955 -1.2486
  964MOL0     H27202   1.604  10.468  10.519  0.4167  0.0802 -0.0681
  964MOL0     H27203   1.657  10.301  10.552  1.3581  1.4383  0.5844
  964MOL0     H27204   1.574  10.214  10.362 -1.9725  0.2549  2.2679
  964MOL0     H27205   1.610  10.357  10.267  2.6633  1.4332  1.5218
  964MOL0     H27206   1.392  10.463  10.390 -2.6594  0.0710  0.9446
  964MOL0     H27207   1.379  10.346  10.267 -2.2085 -3.6641  1.1806
  964MOL0     H27208   1.406  10.281  10.558  0.3186  1.8967  0.3685
  964MOL0     H27209   1.351  10.159  10.436 -0.9296  0.0294  1.7527
  964MOL0     H27210   1.234  10.153  10.254  1.1051 -1.0427  2.9046
  964MOL0     H27211   1.042  10.086  10.125 -0.0907 -1.6683  1.5273
  964MOL0     H27212   0.689   9.839  10.175  1.5894 -1.3989 -1.0832
  964MOL0     H27213   0.482   9.723  10.098 -0.5314  0.5569 -1.1749
  964MOL0     H27214   0.216   9.943   9.797 -1.5573  1.3670  0.2335
  964MOL0     H27215   0.254   9.965   9.971 -0.7044 -0.8140  0.2857
  964MOL0     H27216   0.139   9.754  10.032  1.6565 -0.5216 -0.8775
  964MOL0     H27217   0.069   9.753   9.861 -1.0176  3.4602 -2.8165
  964MOL0     H27218  -0.032   9.974   9.916  2.0082  0.1932  0.0802
  964MOL0     H27219   0.036   9.954  10.075 -1.2250  1.8716  0.2430
  964MOL0     H27220  -0.155   9.734   9.971  0.2511 -0.7339  1.3986
  964MOL0     H27221  -0.121   9.769  10.133  0.6088  0.0628  0.0237
  964MOL0     H27222  -0.272   9.947   9.931  1.0255  0.5276  0.5801
  964MOL0     H27223  -0.243   9.998  10.098 -2.0761 -1.3605  1.1159
  964MOL0     H27224  -0.348   9.812  10.213  1.4853 -2.7705 -0.2867
  964MOL0     H27225  -0.391   9.742  10.059 -2.1534  0.9396  1.2873
  964MOL0     H27226  -0.504  10.019  10.095  0.2863  0.6181 -1.2578
  964MOL0     H27227  -0.534   9.881   9.987  0.4205 -1.1158  0.6807
  964MOL0     H27228  -0.703   9.943  10.185  0.0281  0.2591  2.1013
  964MOL0     H27229  -0.589   9.863  10.287  0.6217  0.2292 -1.0605
  964MOL0     H27230   0.469   9.988   9.760 -2.8224 -1.5382  0.4048
  964MOL0     H27231   0.671  10.107   9.833  1.0644 -0.5316 -0.0496
  964MOL0     H27232   0.783  10.333  10.350  1.3237  2.6381 -1.9083
  964MOL0     H27233   0.956  10.398  10.480  0.1360 -0.0155 -0.5795
  964MOL0     H27234   1.478   9.982  10.335  0.9808  1.4970 -1.7293
  964MOL0     H27235   1.272   9.879  10.234 -0.0825  0.5236  0.4022
  964MOL0     H27236   1.182   9.737   9.730 -1.6843  2.1531 -2.4969
  964MOL0     H27237   1.016   9.647   9.570 -0.9987 -1.3181  0.1600
  964MOL0     H27238   0.710   9.522   9.454 -2.4636  1.4889 -2.1344
  964MOL0     H27239   0.773   9.682   9.484 -0.5155  0.8981  1.5110
  964MOL0     H27240   0.526   9.559   9.618  0.2753  0.9266  1.4028
  964MOL0     H27241   0.590   9.719   9.652 -0.3478  0.4756  0.2045
  964MOL0     H27242   0.488   9.628   9.376  4.0069  0.3132 -0.0435
  964MOL0     H27243   0.555   9.784   9.412 -0.2685  0.5688  0.2784
  964MOL0     H27244   0.378   9.857   9.574  0.5354  1.5332 -2.1091
  964MOL0     H27245   0.314   9.828   9.421  0.6620  2.6277  0.9639
  964MOL0     H27246   0.150   9.535   9.710  1.3067  0.0490  1.9938
  964MOL0     H27247   0.721   9.633   9.881  0.1257  4.6824  2.2625
  964MOL0     H27248   0.894   9.693  10.051 -1.3340 -2.5082 -0.2142
  965MOL0     O27249   1.924   9.364  10.800 -0.2728  0.2413  0.7270
  965MOL0     C27250   1.891   9.340  10.916  0.3625  0.3828  0.6787
  965MOL0     O27251   1.768   9.290  10.955  0.6755 -0.0840 -0.5500
  965MOL0     C27252   1.671   9.239  10.874  0.1991  0.1023 -0.1533
  965MOL0     C27253   1.655   9.255  10.737  0.3871 -0.2148  0.2740
  965MOL0     C27254   1.565   9.182  10.662  0.4618  0.4944 -0.3518
  965MOL0     C27255   1.460   9.109  10.730  0.3675 -0.4119  0.2718
  965MOL0     O27256   1.365   9.047  10.664  0.4973  0.0136  0.2638
  965MOL0     C27257   1.290   9.108  10.553  0.1428 -0.1866 -0.3739
  965MOL0     C27258   1.148   9.080  10.586  1.5465 -0.1899 -0.0343
  965MOL0     C27259   1.057   9.109  10.467 -0.2371  1.0550 -0.9951
  965MOL0     C27260   0.917   9.040  10.484 -0.4445  0.2031 -0.2758
  965MOL0     C27261   0.808   9.088  10.397  0.1557 -0.0899  0.5042
  965MOL0     C27262   0.682   8.995  10.423 -0.8185 -0.0568  0.2850
  965MOL0     C27263   0.605   8.961  10.294 -0.5469 -0.7963  0.0811
  965MOL0     C27264   0.662   8.844  10.206 -0.2603  0.9129  0.0042
  965MOL0     N27265   0.794   8.878  10.154 -0.2857  0.1816  1.4837
  965MOL0     C27266   0.918   8.824  10.188 -0.4002  0.3394 -0.5394
  965MOL0     C27267   1.003   8.869  10.090  0.4452  0.1146 -0.5644
  965MOL0     C27268   1.140   8.821  10.061  0.0661  1.2153 -0.3132
  965MOL0     C27269   1.235   8.904  10.145 -0.6221  0.2985  0.2484
  965MOL0     C27270   1.243   9.058  10.097  0.3599  0.5268  0.2159
  965MOL0     C27271   1.352   9.138  10.165  0.6649  0.7635  0.0438
  965MOL0     O27272   1.439   9.056  10.240 -0.6565  0.2575 -0.2605
  965MOL0     C27273   1.559   9.107  10.274 -0.7519  0.4236  0.7760
  965MOL0     C27274   1.666   9.016  10.306  0.4021  0.5111 -0.9902
  965MOL0     C27275   1.791   9.067  10.347 -0.5063 -0.7186 -0.9850
  965MOL0     C27276   1.814   9.202  10.366  0.5967  0.0972  0.5084
  965MOL0     C27277   1.940   9.257  10.419  0.1551 -0.2026 -0.8017
  965MOL0     O27278   2.012   9.171  10.484 -0.4873 -0.1723  0.1559
  965MOL0     C27279   2.142   9.195  10.503 -0.0405  0.7099  0.5155
  965MOL0     C27280   2.195   9.281  10.600 -0.4454  0.7500  0.0223
  965MOL0     C27281   2.328   9.300  10.608  0.1567 -0.8466 -0.0999
  965MOL0     C27282   2.416   9.224  10.541 -0.2777 -0.3321 -0.2815
  965MOL0     O27283   2.561   9.228  10.551  0.5302 -0.1596 -0.1313
  965MOL0     C27284   2.618   9.292  10.669 -0.6874  0.8017 -0.0440
  965MOL0     C27285   2.773   9.286  10.688  0.0544 -0.3756  0.3289
  965MOL0     C27286   2.847   9.349  10.570  0.0425 -0.2981  0.6536
  965MOL0     C27287   2.998   9.330  10.591 -0.4031  0.6069  0.4789
  965MOL0     C27288   3.070   9.424  10.484 -0.3120  0.2347 -0.8998
  965MOL0     C27289   3.215   9.370  10.449 -0.1571 -0.0721  0.0418
  965MOL0     C27290   3.294   9.441  10.341 -0.7644 -0.2458 -0.0118
  965MOL0     C27291   3.353   9.580  10.394 -0.3899 -0.4746  0.6681
  965MOL0    Cl27292   3.455   9.636  10.259 -0.3709 -0.1634 -0.1111
  965MOL0     C27293   2.371   9.148  10.437  0.5239  0.5212  0.4659
  965MOL0     C27294   2.237   9.129  10.415  0.8030  0.4034 -0.4633
  965MOL0     O27295   1.965   9.376  10.393 -0.0776  0.1662  0.8491
  965MOL0     C27296   1.707   9.291  10.324  0.1041 -0.1018  0.4168
  965MOL0     C27297   1.584   9.246  10.273  0.7579 -0.2290 -0.2608
  965MOL0     N27298   0.939   8.965  10.013 -0.0112  0.2253 -0.3909
  965MOL0     N27299   0.806   8.975  10.053  0.5251 -0.2474  0.5309
  965MOL0     C27300   1.468   9.106  10.875  0.0289  1.3000 -0.1221
  965MOL0     C27301   1.578   9.169  10.944 -0.4217 -0.4524  0.0037
  965MOL0     C27302   1.989   9.363  11.017  0.1767  0.2229 -0.4862
  965MOL0     C27303   2.103   9.427  10.985  0.0604  1.1295  0.0298
  965MOL0     C27304   2.196   9.453  11.086  0.2075 -0.3565  0.0055
  965MOL0     C27305   2.178   9.427  11.218  0.5729  0.2923  0.2257
  965MOL0     O27306   2.279   9.458  11.307  0.4656 -0.2700 -0.1568
  965MOL0     C27307   2.270   9.421  11.446 -0.2104  0.1475 -0.4498
  965MOL0     C27308   2.383   9.493  11.511  0.3309 -0.0725  0.2684
  965MOL0     C27309   2.440   9.433  11.638 -0.5293  0.1333 -0.7920
  965MOL0     C27310   2.542   9.521  11.706 -0.7058  0.0544 -0.3850
  965MOL0     C27311   2.673   9.489  11.650  0.0838  0.0857  0.1375
  965MOL0     C27312   2.777   9.456  11.593  0.6286 -0.2114 -0.5227
  965MOL0     C27313   2.064   9.371  11.257  0.7401 -0.6883 -0.3019
  965MOL0     C27314   1.963   9.324  11.160 -0.5024  0.4486 -0.0461
  965MOL0     H27315   1.720   9.332  10.697  0.7820 -0.1725  0.9820
  965MOL0     H27316   1.569   9.176  10.553  2.3663 -0.3126 -0.2792
  965MOL0     H27317   1.319   9.068  10.455  1.0956 -1.5255  0.4188
  965MOL0     H27318   1.306   9.215  10.568 -1.0853 -0.1227  0.6179
  965MOL0     H27319   1.107   9.134  10.671  0.2744 -1.8553  0.4617
  965MOL0     H27320   1.146   8.974  10.614  1.2648 -0.0553  0.4623
  965MOL0     H27321   1.096   9.076  10.370 -1.6560  1.2085 -1.6478
  965MOL0     H27322   1.054   9.216  10.446  1.0901  0.9029 -2.0891
  965MOL0     H27323   0.909   8.931  10.472 -1.1017  0.1025  0.8939
  965MOL0     H27324   0.880   9.055  10.586 -2.8528  3.5607 -1.4639
  965MOL0     H27325   0.829   9.089  10.290  0.9725 -0.1565  0.6595
  965MOL0     H27326   0.781   9.191  10.425  2.1346  0.5766  0.1588
  965MOL0     H27327   0.621   9.060  10.487 -2.6534 -1.2829 -0.1471
  965MOL0     H27328   0.693   8.904  10.483 -1.8562 -0.7614 -0.5707
  965MOL0     H27329   0.500   8.940  10.317 -1.2412  2.4931  0.4729
  965MOL0     H27330   0.594   9.048  10.229 -3.5007 -0.8216  0.4026
  965MOL0     H27331   0.589   8.842  10.125  1.6357  1.6558 -1.7945
  965MOL0     H27332   0.663   8.758  10.274  0.6952  3.0833  2.9640
  965MOL0     H27333   0.927   8.746  10.262  0.7176  0.9499 -0.0086
  965MOL0     H27334   1.162   8.834   9.955  2.0714 -1.3750 -0.3013
  965MOL0     H27335   1.162   8.715  10.074 -0.8388  0.7476 -2.2605
  965MOL0     H27336   1.334   8.858  10.132  0.1868  1.4492  1.8959
  965MOL0     H27337   1.225   8.898  10.254  1.3500 -0.0199  0.4628
  965MOL0     H27338   1.265   9.069   9.991  1.1693 -0.0011  0.3142
  965MOL0     H27339   1.148   9.108  10.119 -0.0729 -1.2484  2.9381
  965MOL0     H27340   1.307   9.214  10.229 -0.6661  1.2465 -1.4395
  965MOL0     H27341   1.415   9.193  10.095  2.5911 -1.7350 -0.3506
  965MOL0     H27342   1.655   8.909  10.294 -1.5459  0.6630 -0.9283
  965MOL0     H27343   1.868   8.992  10.362 -1.0639 -1.3232 -1.1132
  965MOL0     H27344   2.138   9.336  10.674  0.3293 -1.9295  2.7949
  965MOL0     H27345   2.365   9.373  10.680 -1.5246  1.8288 -1.7555
  965MOL0     H27346   2.575   9.249  10.760  0.5436 -0.2649  0.0658
  965MOL0     H27347   2.595   9.398  10.655  0.3353  0.7923 -2.4565
  965MOL0     H27348   2.809   9.185  10.710 -0.6373 -0.5338  0.7860
  965MOL0     H27349   2.812   9.335  10.778  1.1048  0.0440 -0.3391
  965MOL0     H27350   2.832   9.457  10.580  2.1000  0.5692 -3.3846
  965MOL0     H27351   2.810   9.305  10.477  1.5747  0.1415 -0.2125
  965MOL0     H27352   3.022   9.357  10.694 -2.7222 -0.5634  1.4053
  965MOL0     H27353   3.022   9.225  10.572  0.7049  0.9457 -0.0342
  965MOL0     H27354   3.081   9.531  10.506  1.5017 -0.1091  0.0063
  965MOL0     H27355   3.013   9.419  10.390 -0.2514  0.6677 -0.9609
  965MOL0     H27356   3.218   9.262  10.433  2.6793 -0.1149  0.2818
  965MOL0     H27357   3.268   9.378  10.544 -0.9035  0.9024  0.3908
  965MOL0     H27358   3.381   9.382  10.311 -1.7120 -1.1938 -0.9954
  965MOL0     H27359   3.226   9.446  10.255  0.6099 -3.1262 -1.4246
  965MOL0     H27360   3.418   9.566  10.480 -0.7575 -0.5014  0.9449
  965MOL0     H27361   3.273   9.652  10.411  0.1629  0.9319 -2.1652
  965MOL0     H27362   2.440   9.105  10.366 -0.4812 -1.9231  0.8605
  965MOL0     H27363   2.207   9.064  10.333  0.5472 -0.0342 -0.0311
  965MOL0     H27364   1.721   9.398  10.332 -3.4013  0.4405  0.8499
  965MOL0     H27365   1.506   9.314  10.239  1.4696 -0.3078 -2.1473
  965MOL0     H27366   1.392   9.049  10.928  1.2924 -0.9132 -0.5740
  965MOL0     H27367   1.587   9.155  11.051 -0.7071 -1.2987 -0.0731
  965MOL0     H27368   2.127   9.475  10.891  0.6912  2.5547  0.8863
  965MOL0     H27369   2.287   9.505  11.059  0.4298 -0.1952  1.0463
  965MOL0     H27370   2.293   9.315  11.462  2.1119  1.0478  3.8537
  965MOL0     H27371   2.179   9.445  11.501  0.4171  1.4978  0.0408
  965MOL0     H27372   2.469   9.496  11.444  1.1369 -0.1961  1.2728
  965MOL0     H27373   2.352   9.596  11.529 -0.5222  0.0452 -1.6086
  965MOL0     H27374   2.470   9.330  11.619 -0.5307 -0.0078 -0.0379
  965MOL0     H27375   2.359   9.401  11.705 -0.3280 -2.2741 -1.5957
  965MOL0     H27376   2.509   9.624  11.692  1.6364  0.8601 -0.3652
  965MOL0     H27377   2.545   9.502  11.813  3.1297 -1.6622 -0.6174
  965MOL0     H27378   2.858   9.417  11.535  1.7730  2.1775 -0.6064
  965MOL0     H27379   2.056   9.349  11.363  2.6144 -1.0028 -0.1917
  965MOL0     H27380   1.870   9.276  11.191 -1.9773  1.1350 -3.0024
  966MOL0     O27381   1.637   9.615   5.698  1.2157 -0.6815 -0.1889
  966MOL0     C27382   1.690   9.537   5.778 -0.3827 -0.2943  0.4663
  966MOL0     O27383   1.633   9.451   5.860 -0.2457 -0.0320  0.0114
  966MOL0     C27384   1.499   9.434   5.844  0.3893  0.7949  0.4397
  966MOL0     C27385   1.418   9.492   5.937  0.0706  0.7826  0.0697
  966MOL0     C27386   1.278   9.491   5.932 -0.2256  0.3501  0.9931
  966MOL0     C27387   1.218   9.432   5.820 -0.0964  0.0675  0.8358
  966MOL0     O27388   1.079   9.439   5.814 -0.3609 -1.1344  0.2050
  966MOL0     C27389   1.018   9.568   5.801 -0.1852  0.0489  0.1067
  966MOL0     C27390   0.878   9.536   5.762  0.2781 -0.2252  0.6414
  966MOL0     C27391   0.788   9.488   5.878  0.8703 -0.2583  0.1384
  966MOL0     C27392   0.639   9.472   5.836 -0.8481 -0.1037 -0.6542
  966MOL0     C27393   0.562   9.420   5.946  0.0404 -0.0664  0.4936
  966MOL0     C27394   0.415   9.417   5.922  0.7216  0.6016  0.3896
  966MOL0     C27395   0.375   9.316   5.816  0.0230  0.0681  0.3271
  966MOL0     C27396   0.227   9.325   5.770  0.6730  0.2427  0.3840
  966MOL0     N27397   0.189   9.460   5.707 -0.6241  0.6170  0.2249
  966MOL0     C27398   0.262   9.542   5.626  0.6316  0.5987  0.2022
  966MOL0     C27399   0.179   9.625   5.569 -0.0822  0.0077  0.1188
  966MOL0     C27400   0.230   9.733   5.484 -0.1771 -0.0068  0.0728
  966MOL0     C27401   0.300   9.862   5.549 -0.5026  1.0211  0.5475
  966MOL0     C27402   0.223   9.941   5.646 -0.1482  0.1319 -0.9346
  966MOL0     C27403   0.209   9.871   5.780 -0.1884 -0.2247 -0.1798
  966MOL0     O27404   0.331   9.826   5.833  0.7563 -0.1117 -0.1240
  966MOL0     C27405   0.436   9.916   5.850 -0.2192  0.2011  0.2134
  966MOL0     C27406   0.572   9.873   5.823  0.3473 -0.1919 -0.1940
  966MOL0     C27407   0.676   9.961   5.828  0.4547  0.8156  0.7491
  966MOL0     C27408   0.648  10.096   5.872  0.2952 -0.1832  0.3967
  966MOL0     C27409   0.763  10.192   5.889  0.0340 -0.6990 -0.7518
  966MOL0     O27410   0.887  10.150   5.896  0.2279  0.1264 -0.6248
  966MOL0     C27411   0.986  10.246   5.911  0.8094  0.2273 -0.3162
  966MOL0     C27412   1.033  10.264   6.044 -0.7895 -0.9003 -0.2857
  966MOL0     C27413   1.130  10.372   6.066  0.4997  0.2441  0.5896
  966MOL0     C27414   1.159  10.457   5.961  0.0429 -0.7990  0.5579
  966MOL0     O27415   1.230  10.575   5.966 -0.1850  0.6476 -0.1636
  966MOL0     C27416   1.233  10.636   6.097  0.2422 -0.3927 -0.3382
  966MOL0     C27417   1.249  10.791   6.079 -0.7520  0.3524  0.4335
  966MOL0     C27418   1.345  10.836   5.971  0.2789  0.5691  0.6185
  966MOL0     C27419   1.491  10.776   5.981 -0.4608 -0.0393 -0.0342
  966MOL0     C27420   1.583  10.843   5.876 -0.2044  0.3299 -0.7370
  966MOL0     C27421   1.715  10.790   5.920 -0.9222  0.5267 -0.1389
  966MOL0     C27422   1.809  10.819   5.799 -0.0453 -0.4147  0.8066
  966MOL0     C27423   1.963  10.804   5.839  0.5632  0.9566  0.0266
  966MOL0    Cl27424   2.065  10.797   5.685  0.1003 -0.3804 -0.1249
  966MOL0     C27425   1.110  10.432   5.833 -0.1501  0.3514  0.0152
  966MOL0     C27426   1.027  10.326   5.803 -0.5797 -0.1579  0.3032
  966MOL0     O27427   0.732  10.314   5.894 -0.7098  0.0848 -0.1981
  966MOL0     C27428   0.517  10.134   5.901  0.1730  0.7345 -0.2886
  966MOL0     C27429   0.409  10.046   5.889 -1.3876  0.4215 -0.2150
  966MOL0     N27430   0.053   9.605   5.627  0.8337  0.0408  0.1214
  966MOL0     N27431   0.069   9.516   5.716 -0.2441  1.5901  0.2026
  966MOL0     C27432   1.295   9.365   5.727 -0.0828  0.3121  0.2736
  966MOL0     C27433   1.432   9.366   5.738 -0.0212  0.2281 -0.2297
  966MOL0     C27434   1.840   9.538   5.778 -0.3746  0.0785 -0.3058
  966MOL0     C27435   1.919   9.501   5.887  0.8074  0.7778 -0.3293
  966MOL0     C27436   2.058   9.513   5.886  0.4596  0.3779  0.3635
  966MOL0     C27437   2.116   9.566   5.770  0.6482 -0.5128 -0.7877
  966MOL0     O27438   2.249   9.595   5.755 -0.6920  0.0419 -0.9435
  966MOL0     C27439   2.328   9.615   5.876  0.6896 -0.6555  0.1402
  966MOL0     C27440   2.468   9.641   5.823 -0.3099  0.4138  0.8715
  966MOL0     C27441   2.544   9.723   5.927  0.0354 -0.1270 -0.1583
  966MOL0     C27442   2.677   9.781   5.872  0.8112 -0.5373 -0.2060
  966MOL0     C27443   2.736   9.879   5.965 -0.3197  0.4854  0.5994
  966MOL0     C27444   2.781   9.955   6.044  0.2900 -0.0687 -0.7365
  966MOL0     C27445   2.035   9.609   5.662 -0.0468 -0.1192 -0.2568
  966MOL0     C27446   1.902   9.587   5.667 -0.5416 -0.5298  0.7197
  966MOL0     H27447   1.458   9.541   6.025 -1.6874  2.5709 -0.0515
  966MOL0     H27448   1.217   9.541   6.007 -1.6994  1.1106 -0.6382
  966MOL0     H27449   1.063   9.635   5.727  0.7421  0.4337  0.9868
  966MOL0     H27450   1.003   9.627   5.891 -1.4434  0.5523 -0.4079
  966MOL0     H27451   0.882   9.463   5.681 -1.1544  1.5193 -1.1137
  966MOL0     H27452   0.838   9.632   5.728 -0.6695 -0.0309  2.2038
  966MOL0     H27453   0.791   9.556   5.964  0.0006 -1.4233  1.1269
  966MOL0     H27454   0.828   9.390   5.905  1.5918 -0.1287 -0.4452
  966MOL0     H27455   0.597   9.569   5.808  1.0709  2.1928  3.5660
  966MOL0     H27456   0.622   9.402   5.754 -0.8268 -1.1453  0.2155
  966MOL0     H27457   0.587   9.475   6.037  0.8248 -0.0108  0.2497
  966MOL0     H27458   0.597   9.317   5.958 -1.7681 -0.6075  1.4506
  966MOL0     H27459   0.389   9.519   5.891  0.3243  0.2281 -0.5607
  966MOL0     H27460   0.353   9.386   6.007 -2.1135 -2.1740 -2.3798
  966MOL0     H27461   0.435   9.327   5.725  0.7998 -2.2901  0.5030
  966MOL0     H27462   0.390   9.215   5.856 -0.1323  0.1518  0.6002
  966MOL0     H27463   0.157   9.312   5.853  0.5985  2.9378  0.8303
  966MOL0     H27464   0.203   9.243   5.702  1.8312 -0.3414  0.6598
  966MOL0     H27465   0.371   9.543   5.627  0.6868 -0.7111  2.5715
  966MOL0     H27466   0.146   9.770   5.424  1.8878  3.6302 -0.9267
  966MOL0     H27467   0.308   9.690   5.420  0.2218  1.9224 -0.8007
  966MOL0     H27468   0.324   9.923   5.461  1.9616 -1.4879 -0.6926
  966MOL0     H27469   0.397   9.841   5.595 -0.1006  1.5225 -0.0482
  966MOL0     H27470   0.265  10.037   5.678  0.9631 -0.7744  0.4482
  966MOL0     H27471   0.130   9.977   5.601  1.2002  4.4788 -0.7122
  966MOL0     H27472   0.135   9.793   5.759  0.8484 -0.6251 -2.7064
  966MOL0     H27473   0.163   9.935   5.856 -0.8003 -0.8934  0.0215
  966MOL0     H27474   0.580   9.774   5.779  1.4170 -0.8484  1.3893
  966MOL0     H27475   0.775   9.933   5.794  0.5213  1.5605  0.2990
  966MOL0     H27476   0.991  10.192   6.112  0.3898 -1.9231 -0.6007
  966MOL0     H27477   1.171  10.379   6.166  0.6890 -0.3506  0.5616
  966MOL0     H27478   1.303  10.585   6.164 -1.6374  0.0114  2.0668
  966MOL0     H27479   1.141  10.603   6.147  0.8584 -2.9760 -0.7688
  966MOL0     H27480   1.283  10.830   6.175  1.1879 -0.3603  0.0842
  966MOL0     H27481   1.150  10.834   6.058  0.2935  1.9663 -1.4129
  966MOL0     H27482   1.362  10.944   5.978 -0.6473  0.6929  1.1522
  966MOL0     H27483   1.304  10.816   5.872 -0.4425  0.3748  0.9461
  966MOL0     H27484   1.530  10.776   6.083 -0.7121  0.7163  0.0646
  966MOL0     H27485   1.476  10.671   5.952  0.3599  0.2835 -1.7400
  966MOL0     H27486   1.580  10.953   5.872  0.1824  0.3706 -0.1392
  966MOL0     H27487   1.543  10.811   5.780 -2.2730 -0.6903  0.3923
  966MOL0     H27488   1.713  10.686   5.953 -2.6548  0.7839  0.7389
  966MOL0     H27489   1.749  10.844   6.009 -0.9680  0.7589 -0.2610
  966MOL0     H27490   1.791  10.734   5.732 -2.7932  0.0450  0.8501
  966MOL0     H27491   1.786  10.910   5.742 -2.1696 -1.0308  0.5902
  966MOL0     H27492   1.971  10.707   5.888  0.4610  0.5791 -0.6940
  966MOL0     H27493   1.987  10.892   5.899 -1.7134  1.3833  0.4309
  966MOL0     H27494   1.126  10.501   5.751 -4.0133  1.7066  0.1857
  966MOL0     H27495   0.987  10.306   5.704 -0.3874  2.8735 -0.4748
  966MOL0     H27496   0.500  10.232   5.944 -3.1838  0.6484 -1.2123
  966MOL0     H27497   0.307  10.080   5.899 -1.2391  0.8408 -0.1079
  966MOL0     H27498   1.241   9.323   5.643 -1.2549  2.8886 -0.3579
  966MOL0     H27499   1.501   9.312   5.675  0.7201 -1.4567  1.9106
  966MOL0     H27500   1.867   9.465   5.975  1.6515  0.0746 -0.1074
  966MOL0     H27501   2.107   9.475   5.975  0.8556  1.3365  0.5664
  966MOL0     H27502   2.322   9.525   5.937  3.5377 -0.2932  1.1193
  966MOL0     H27503   2.279   9.697   5.930  0.7915  0.2305 -1.0522
  966MOL0     H27504   2.531   9.559   5.788  0.7933  2.6549 -2.9493
  966MOL0     H27505   2.461   9.694   5.728 -1.3186 -2.1902 -0.5933
  966MOL0     H27506   2.561   9.658   6.013  2.4414  1.7729  0.9226
  966MOL0     H27507   2.479   9.807   5.951 -1.4470 -0.3464 -2.9055
  966MOL0     H27508   2.750   9.701   5.855  0.6965 -0.4285 -1.2692
  966MOL0     H27509   2.654   9.827   5.776  0.3526  0.2854  0.2869
  966MOL0     H27510   2.827  10.028   6.109 -0.0263 -2.4329  2.4000
  966MOL0     H27511   2.095   9.641   5.577  0.2828  5.2939  1.6490
  966MOL0     H27512   1.848   9.629   5.582 -0.5189  0.0103  0.9675
  967MOL0     O27513   7.612   6.214   8.920 -0.1151  0.2210  0.0058
  967MOL0     C27514   7.679   6.217   9.025  0.2382 -0.0932  0.3475
  967MOL0     O27515   7.626   6.229   9.148 -0.3714  0.4825  0.7061
  967MOL0     C27516   7.489   6.254   9.168 -0.5442  0.7059  0.1343
  967MOL0     C27517   7.381   6.170   9.150  1.0577 -0.3850 -0.2150
  967MOL0     C27518   7.250   6.204   9.189 -0.5498 -0.3527  0.2248
  967MOL0     C27519   7.228   6.329   9.254 -1.7561 -0.5426  0.0600
  967MOL0     O27520   7.106   6.362   9.302  0.6168  0.0543  0.4926
  967MOL0     C27521   7.035   6.262   9.376  0.5444  0.9806  0.2002
  967MOL0     C27522   7.013   6.310   9.519 -0.0434 -0.1656 -0.6385
  967MOL0     C27523   6.917   6.215   9.595 -0.5368  0.4538  0.4298
  967MOL0     C27524   6.765   6.251   9.560 -0.9124 -0.3015 -0.5218
  967MOL0     C27525   6.658   6.151   9.601  0.1794  0.0360  0.3181
  967MOL0     C27526   6.666   6.106   9.755  0.6295 -0.2908 -0.5342
  967MOL0     C27527   6.543   6.023   9.780 -0.6489 -0.5263 -0.5759
  967MOL0     C27528   6.541   5.978   9.917  0.1474  0.3661 -0.6526
  967MOL0     N27529   6.496   6.079  10.017  0.2354 -0.4654 -0.1406
  967MOL0     C27530   6.509   6.062  10.151  0.5373 -0.4469 -0.5356
  967MOL0     C27531   6.443   6.174  10.200 -0.8307 -0.7459 -0.4691
  967MOL0     C27532   6.430   6.220  10.344 -0.4312 -0.6488 -0.1009
  967MOL0     C27533   6.287   6.200  10.393  0.4315  0.0484 -0.6658
  967MOL0     C27534   6.273   6.260  10.535 -0.0520 -0.1115 -0.0518
  967MOL0     C27535   6.137   6.258  10.590  0.3060  0.3355  0.2287
  967MOL0     O27536   6.078   6.122  10.580  0.3794 -0.0860  0.7229
  967MOL0     C27537   5.972   6.072  10.645  0.0163 -0.1518 -0.2006
  967MOL0     C27538   5.955   5.943  10.643 -1.5350  0.4798 -0.1111
  967MOL0     C27539   5.846   5.888  10.698 -0.3135 -0.1098 -0.3932
  967MOL0     C27540   5.752   5.957  10.783 -0.8838  0.2388  0.2027
  967MOL0     C27541   5.650   5.892  10.867  0.2055  0.7893 -0.2341
  967MOL0     O27542   5.566   5.978  10.930 -0.4517  0.5517 -0.1397
  967MOL0     C27543   5.452   5.952  11.004 -0.7146  0.3041 -0.1404
  967MOL0     C27544   5.371   6.059  11.047 -0.2073 -0.1242 -0.0684
  967MOL0     C27545   5.250   6.045  11.118 -0.7926  0.1629  0.2296
  967MOL0     C27546   5.216   5.920  11.174 -0.4403  0.4940 -0.1060
  967MOL0     O27547   5.098   5.911  11.254 -0.1782  0.5323 -0.4881
  967MOL0     C27548   5.059   5.774  11.293  0.2866  0.0948  0.1315
  967MOL0     C27549   4.920   5.760  11.337  0.6045  0.2093 -0.2147
  967MOL0     C27550   4.885   5.626  11.403 -0.2367  0.2509 -0.3401
  967MOL0     C27551   4.743   5.638  11.470 -0.3044  0.9558 -0.0550
  967MOL0     C27552   4.676   5.504  11.515 -0.2629 -0.6898  0.4813
  967MOL0     C27553   4.551   5.517  11.598 -0.3244 -0.2853 -0.1804
  967MOL0     C27554   4.423   5.563  11.527 -1.5660  0.0597 -0.6113
  967MOL0     C27555   4.373   5.464  11.423 -0.3891  0.0009 -0.4777
  967MOL0    Cl27556   4.330   5.307  11.488  0.1584 -0.2663 -0.3390
  967MOL0     C27557   5.311   5.812  11.136  0.5441 -0.4134 -0.2126
  967MOL0     C27558   5.422   5.824  11.051  0.5008 -0.1420  0.0447
  967MOL0     O27559   5.650   5.765  10.870 -0.2398 -0.2537  0.1690
  967MOL0     C27560   5.785   6.094  10.810  0.7823  0.3550  0.5641
  967MOL0     C27561   5.899   6.146  10.741  1.0820 -0.3046  0.4120
  967MOL0     N27562   6.389   6.248  10.100  0.1026  0.7381 -0.2109
  967MOL0     N27563   6.421   6.193   9.987 -0.3778 -0.5397  0.3138
  967MOL0     C27564   7.340   6.410   9.273  0.3790 -0.9868  0.4172
  967MOL0     C27565   7.465   6.368   9.240  0.7236  0.2307  0.7029
  967MOL0     C27566   7.829   6.229   9.024  0.9407  0.6050 -0.3180
  967MOL0     C27567   7.903   6.191   8.915 -1.1047 -0.0878  0.1530
  967MOL0     C27568   8.044   6.190   8.920 -0.2618 -0.3301 -0.1211
  967MOL0     C27569   8.113   6.239   9.038  0.0521  0.4050  0.3676
  967MOL0     O27570   8.248   6.261   9.040 -0.4753  0.2804 -0.4429
  967MOL0     C27571   8.320   6.147   9.003  0.3102  0.6874  0.5502
  967MOL0     C27572   8.473   6.172   9.016  0.3516  0.0514  0.7156
  967MOL0     C27573   8.531   6.065   8.920 -0.7516  0.8260 -0.5153
  967MOL0     C27574   8.662   6.008   8.974 -0.6189  0.0156  1.5510
  967MOL0     C27575   8.750   6.109   9.025 -0.9570 -0.0328 -0.8005
  967MOL0     C27576   8.817   6.196   9.073  0.7108  0.6148  0.9103
  967MOL0     C27577   8.024   6.292   9.138 -0.6985  0.2627  0.5637
  967MOL0     C27578   7.893   6.284   9.140 -0.1341 -0.1824 -0.2886
  967MOL0     H27579   7.391   6.075   9.098  0.9487 -1.3496  1.4847
  967MOL0     H27580   7.167   6.136   9.174 -0.4686 -0.1630 -1.2222
  967MOL0     H27581   7.081   6.163   9.376  0.5181  0.8635  3.4428
  967MOL0     H27582   6.937   6.252   9.329  0.7119  0.7069 -0.0922
  967MOL0     H27583   6.974   6.412   9.525  0.1255 -0.1345 -0.0112
  967MOL0     H27584   7.110   6.318   9.569  0.3878 -1.0309 -1.3198
  967MOL0     H27585   6.929   6.226   9.704 -2.3609  1.8476  0.5339
  967MOL0     H27586   6.943   6.111   9.570 -1.2838  0.3360  0.1324
  967MOL0     H27587   6.745   6.350   9.603 -0.6223 -0.8698  0.9644
  967MOL0     H27588   6.755   6.255   9.451  1.8766 -1.4362 -0.9185
  967MOL0     H27589   6.666   6.060   9.541 -1.3122  0.7583 -1.0210
  967MOL0     H27590   6.563   6.197   9.577 -0.0159 -0.6098 -0.1766
  967MOL0     H27591   6.672   6.206   9.800 -1.1317  0.3400 -1.5935
  967MOL0     H27592   6.758   6.049   9.771  0.4570 -1.0628 -2.0703
  967MOL0     H27593   6.452   6.080   9.756 -0.4874  0.6428  1.3826
  967MOL0     H27594   6.547   5.935   9.715 -0.0413 -2.5797  2.0959
  967MOL0     H27595   6.637   5.933   9.945 -0.7204 -0.5357  1.0280
  967MOL0     H27596   6.471   5.894   9.913  3.2043 -2.4296 -0.2371
  967MOL0     H27597   6.555   5.980  10.206 -2.9953 -2.3325 -0.0637
  967MOL0     H27598   6.456   6.326  10.352 -0.8187 -0.6321  1.0074
  967MOL0     H27599   6.489   6.152  10.406  0.2308 -2.0115 -2.1223
  967MOL0     H27600   6.269   6.093  10.403  0.3921  0.2334  2.6774
  967MOL0     H27601   6.219   6.245  10.319  0.9266  2.4376  0.2158
  967MOL0     H27602   6.340   6.202  10.600  2.0323  0.0254 -1.9528
  967MOL0     H27603   6.306   6.364  10.538  1.5054 -0.5393 -0.8102
  967MOL0     H27604   6.074   6.319  10.525  0.2629 -0.4367 -0.4653
  967MOL0     H27605   6.137   6.300  10.691  1.1805  0.9233 -0.0079
  967MOL0     H27606   6.034   5.887  10.595 -0.0184  0.6419  2.0503
  967MOL0     H27607   5.827   5.782  10.690 -2.5955  0.0508  1.6577
  967MOL0     H27608   5.402   6.155  11.007  0.1824 -0.3810 -0.3924
  967MOL0     H27609   5.187   6.130  11.144 -0.3669  0.1684  1.3268
  967MOL0     H27610   5.120   5.749  11.381 -0.1402  3.0564  1.4059
  967MOL0     H27611   5.081   5.698  11.217  0.2417 -3.5736  3.4472
  967MOL0     H27612   4.852   5.775  11.252 -0.4064  1.1159  0.7419
  967MOL0     H27613   4.908   5.828  11.421 -2.1724 -1.6906  1.0854
  967MOL0     H27614   4.962   5.608  11.479  0.3086 -0.3658 -1.0288
  967MOL0     H27615   4.889   5.544  11.331  2.0361 -1.9653  2.0781
  967MOL0     H27616   4.756   5.695  11.563  0.0105 -1.4008  1.4107
  967MOL0     H27617   4.680   5.691  11.397 -0.9136 -1.1536 -1.1194
  967MOL0     H27618   4.746   5.448  11.579  0.5646  0.7817  0.9158
  967MOL0     H27619   4.661   5.443  11.426  1.5100  1.1742 -1.2161
  967MOL0     H27620   4.563   5.595  11.674 -4.7064 -0.8969  1.4338
  967MOL0     H27621   4.526   5.428  11.657 -0.1749  0.9701  1.8733
  967MOL0     H27622   4.349   5.583  11.605  0.4278  2.1228  0.8967
  967MOL0     H27623   4.443   5.659  11.479  1.5290 -1.6201 -3.0532
  967MOL0     H27624   4.452   5.459  11.347  0.6125  3.7985  0.0975
  967MOL0     H27625   4.283   5.504  11.377 -0.2824  0.2994 -0.4295
  967MOL0     H27626   5.292   5.708  11.162  2.4882  0.0827  3.9915
  967MOL0     H27627   5.493   5.744  11.032  0.6773 -1.3408  4.6000
  967MOL0     H27628   5.719   6.157  10.869 -0.3268  0.1947 -0.4558
  967MOL0     H27629   5.937   6.243  10.773 -1.1102  0.2408  1.5314
  967MOL0     H27630   7.313   6.502   9.324 -1.1707 -1.8971  1.3315
  967MOL0     H27631   7.554   6.421   9.272 -0.9455  2.2918  2.2617
  967MOL0     H27632   7.852   6.149   8.830  0.6425  0.6730 -1.3373
  967MOL0     H27633   8.094   6.159   8.829  1.1975  2.2604 -0.2996
  967MOL0     H27634   8.302   6.113   8.901 -0.4088  0.9770  0.5735
  967MOL0     H27635   8.296   6.068   9.075  0.8045  2.5179  2.8426
  967MOL0     H27636   8.504   6.268   8.972 -0.2876  0.3172  0.8348
  967MOL0     H27637   8.506   6.167   9.120  0.4916  2.5744  0.8560
  967MOL0     H27638   8.546   6.103   8.818  2.6742 -1.1881 -0.9096
  967MOL0     H27639   8.474   5.972   8.918  0.5803 -0.0211 -0.7525
  967MOL0     H27640   8.645   5.935   9.053  4.2468 -0.0024  2.9005
  967MOL0     H27641   8.718   5.969   8.889  0.8271 -0.3116  2.6276
  967MOL0     H27642   8.872   6.282   9.107  2.1876  0.3894 -0.7367
  967MOL0     H27643   8.087   6.333   9.217  1.1264 -0.8178 -0.2600
  967MOL0     H27644   7.845   6.332   9.225  1.3712  0.4191  0.2576
  968MOL0     O27645   1.829   5.384   1.645  0.2552  0.0931  0.5392
  968MOL0     C27646   1.759   5.484   1.654  0.0532  0.2121 -0.1046
  968MOL0     O27647   1.645   5.498   1.730  0.2935 -0.0137 -0.4473
  968MOL0     C27648   1.567   5.385   1.733 -0.2506 -0.3053  0.2570
  968MOL0     C27649   1.554   5.304   1.617  0.3370  0.7286 -0.1503
  968MOL0     C27650   1.473   5.191   1.626 -0.2647 -0.3571  0.1928
  968MOL0     C27651   1.390   5.163   1.744  0.2638 -0.8286  0.0944
  968MOL0     O27652   1.307   5.054   1.755 -0.2657 -0.3567  0.3168
  968MOL0     C27653   1.321   4.940   1.660 -0.1863  0.7376 -0.7912
  968MOL0     C27654   1.217   4.835   1.702  0.3048 -1.0598  0.4565
  968MOL0     C27655   1.079   4.869   1.656  0.1375  0.1366  0.2812
  968MOL0     C27656   0.967   4.770   1.695 -0.3773 -0.3440  0.3221
  968MOL0     C27657   0.832   4.814   1.657 -0.0706  0.4995  0.6521
  968MOL0     C27658   0.803   4.802   1.501 -0.3188  0.0894  0.4839
  968MOL0     C27659   0.648   4.829   1.477 -0.1780  0.5512 -0.3539
  968MOL0     C27660   0.609   4.795   1.335  0.1766  0.0188  0.0153
  968MOL0     N27661   0.474   4.846   1.310 -0.1112  0.2332  0.1057
  968MOL0     C27662   0.381   4.782   1.377 -0.3751 -0.2024  0.0713
  968MOL0     C27663   0.275   4.868   1.370 -0.7651 -0.1769  0.2245
  968MOL0     C27664   0.148   4.856   1.439 -0.6372 -0.7528  0.4802
  968MOL0     C27665   0.031   4.854   1.338  0.3398 -0.1207  0.0485
  968MOL0     C27666  -0.094   4.803   1.406  0.1661  0.6010 -0.8898
  968MOL0     C27667  -0.229   4.815   1.330 -0.6649  0.6031  0.0162
  968MOL0     O27668  -0.322   4.850   1.435 -0.2429 -0.4803  0.2035
  968MOL0     C27669  -0.456   4.841   1.409 -0.4419  0.6907  0.1213
  968MOL0     C27670  -0.541   4.863   1.510 -0.5834  0.2467  0.3193
  968MOL0     C27671  -0.678   4.869   1.493 -0.2476  0.4532 -0.5098
  968MOL0     C27672  -0.738   4.851   1.368  0.2630  0.6280 -0.0697
  968MOL0     C27673  -0.888   4.856   1.361  0.5365 -0.3849  0.2789
  968MOL0     O27674  -0.954   4.834   1.238 -0.6096 -0.0265 -0.3923
  968MOL0     C27675  -1.091   4.832   1.213 -0.4146  0.2901 -0.3426
  968MOL0     C27676  -1.131   4.812   1.079  0.1929  0.1958  0.3589
  968MOL0     C27677  -1.267   4.788   1.043 -0.3942 -0.6931 -0.7925
  968MOL0     C27678  -1.368   4.794   1.139 -0.1847  0.1486 -0.5320
  968MOL0     O27679  -1.497   4.769   1.100 -0.1602  0.3240 -0.5894
  968MOL0     C27680  -1.523   4.637   1.051 -0.3856  0.1965  0.1078
  968MOL0     C27681  -1.654   4.631   0.975 -0.7064 -0.1544 -0.1321
  968MOL0     C27682  -1.699   4.494   0.944 -0.1344  0.8488 -0.4562
  968MOL0     C27683  -1.815   4.506   0.842  0.3430 -0.1882  0.3580
  968MOL0     C27684  -1.773   4.517   0.696  0.5524 -0.2509 -0.2245
  968MOL0     C27685  -1.894   4.544   0.609 -0.2239 -0.3052  0.3005
  968MOL0     C27686  -1.977   4.427   0.552 -0.4249  0.3113 -0.5339
  968MOL0     C27687  -2.075   4.465   0.445  0.5955 -0.3911 -0.2070
  968MOL0    Cl27688  -2.193   4.575   0.519  0.2361 -0.2340 -0.0666
  968MOL0     C27689  -1.338   4.826   1.267 -0.2145 -0.0473 -0.1504
  968MOL0     C27690  -1.199   4.844   1.308 -0.3172 -0.5679 -0.2182
  968MOL0     O27691  -0.944   4.897   1.462 -0.4227 -0.1338 -0.4252
  968MOL0     C27692  -0.651   4.831   1.263 -0.3891  0.4465 -0.7620
  968MOL0     C27693  -0.511   4.821   1.289 -0.6012  0.3410  0.3128
  968MOL0     N27694   0.314   4.969   1.279 -0.9365  0.7379 -0.5914
  968MOL0     N27695   0.434   4.952   1.249  0.2981 -0.3066 -0.0616
  968MOL0     C27696   1.393   5.257   1.850  0.5694 -0.4167 -0.8959
  968MOL0     C27697   1.486   5.361   1.848  0.7061 -0.2490 -0.0260
  968MOL0     C27698   1.829   5.615   1.631 -0.2259 -0.4606 -0.4286
  968MOL0     C27699   1.769   5.742   1.661  0.3740  0.3879 -0.2790
  968MOL0     C27700   1.843   5.854   1.636  0.5239 -0.2647  0.2769
  968MOL0     C27701   1.974   5.855   1.590 -0.1585 -1.4918  0.5761
  968MOL0     O27702   2.048   5.974   1.578  0.0480 -0.0260 -0.2323
  968MOL0     C27703   1.995   6.069   1.487  0.0912 -0.0242  0.0708
  968MOL0     C27704   2.096   6.176   1.443 -0.6474  0.2246 -0.4230
  968MOL0     C27705   2.200   6.114   1.349  0.0133 -0.0766  0.1151
  968MOL0     C27706   2.294   6.208   1.271  0.2684  0.2989 -0.0439
  968MOL0     C27707   2.221   6.272   1.161 -0.0184  0.4859 -0.0308
  968MOL0     C27708   2.173   6.315   1.059  0.7823 -0.5555  0.0279
  968MOL0     C27709   2.040   5.735   1.569 -0.1215 -0.0012  0.0808
  968MOL0     C27710   1.968   5.613   1.595 -0.1223  0.4718  0.1610
  968MOL0     H27711   1.594   5.314   1.517 -1.9327 -2.4976 -1.5471
  968MOL0     H27712   1.474   5.122   1.542 -0.4868 -0.0874 -0.0360
  968MOL0     H27713   1.421   4.895   1.660 -1.3481 -2.0812 -2.0460
  968MOL0     H27714   1.297   4.962   1.556 -0.0164  0.3356 -0.9174
  968MOL0     H27715   1.214   4.833   1.812  1.7188  2.5784  0.7062
  968MOL0     H27716   1.252   4.745   1.651  1.7828 -0.3350  0.1324
  968MOL0     H27717   1.077   4.876   1.547  1.0048  0.1460  0.2631
  968MOL0     H27718   1.055   4.970   1.693  0.3632 -0.3964  1.9906
  968MOL0     H27719   0.988   4.668   1.660  3.2099  0.7440 -1.1593
  968MOL0     H27720   0.970   4.765   1.805 -1.6354  2.1304  0.5479
  968MOL0     H27721   0.831   4.914   1.701  1.0939  0.1220  1.6222
  968MOL0     H27722   0.760   4.753   1.713 -1.5173 -0.3825 -2.0262
  968MOL0     H27723   0.826   4.700   1.470 -0.7854  0.2595 -0.4598
  968MOL0     H27724   0.860   4.877   1.447  2.1241 -1.2025  1.1357
  968MOL0     H27725   0.577   4.775   1.540  0.5840  0.1264  0.1605
  968MOL0     H27726   0.631   4.937   1.484  1.7749  0.8861 -0.2043
  968MOL0     H27727   0.600   4.687   1.321  2.0111 -0.4262  1.8457
  968MOL0     H27728   0.679   4.836   1.262  0.3083 -2.7632 -1.5415
  968MOL0     H27729   0.389   4.688   1.431 -0.4848 -0.7616 -0.8653
  968MOL0     H27730   0.133   4.941   1.506  1.3904  1.5317 -1.7367
  968MOL0     H27731   0.149   4.758   1.486  1.4103 -2.5629 -2.8927
  968MOL0     H27732   0.053   4.783   1.258 -0.6679  0.0997 -0.4434
  968MOL0     H27733   0.005   4.949   1.289  0.6941 -0.3767 -0.6540
  968MOL0     H27734  -0.080   4.701   1.443  2.0716  0.8470 -0.8136
  968MOL0     H27735  -0.107   4.855   1.501 -4.7268 -0.3354 -0.7997
  968MOL0     H27736  -0.253   4.724   1.273 -0.9393  0.5681  0.1909
  968MOL0     H27737  -0.222   4.901   1.263 -1.1307  1.0693  0.5592
  968MOL0     H27738  -0.502   4.873   1.611 -2.5161 -2.2516  1.4153
  968MOL0     H27739  -0.733   4.896   1.582  0.5283 -0.3871  0.2394
  968MOL0     H27740  -1.057   4.811   0.999 -0.8268 -1.6325 -0.6241
  968MOL0     H27741  -1.290   4.753   0.943 -0.5864 -1.8671 -0.3565
  968MOL0     H27742  -1.544   4.575   1.138 -3.3543  1.5937  0.5045
  968MOL0     H27743  -1.440   4.590   0.998  0.5047 -2.3086  3.4411
  968MOL0     H27744  -1.636   4.697   0.890 -1.5371 -0.3064 -0.4417
  968MOL0     H27745  -1.730   4.691   1.026 -0.1278  0.3132  0.1896
  968MOL0     H27746  -1.734   4.442   1.035 -2.4171  1.2461 -1.0302
  968MOL0     H27747  -1.620   4.433   0.900 -1.8688 -2.6008  0.8292
  968MOL0     H27748  -1.876   4.415   0.844 -2.0238  1.3145  1.1930
  968MOL0     H27749  -1.882   4.584   0.877  1.2169  1.6309 -1.7568
  968MOL0     H27750  -1.739   4.425   0.647 -2.0531 -2.1242  1.2383
  968MOL0     H27751  -1.702   4.599   0.692 -2.4624  2.5388 -1.8795
  968MOL0     H27752  -1.856   4.603   0.524 -0.2980 -2.9380 -1.6828
  968MOL0     H27753  -1.961   4.613   0.662 -4.3402 -2.4878 -1.5467
  968MOL0     H27754  -1.916   4.348   0.507  1.6433  1.6161 -0.1627
  968MOL0     H27755  -2.028   4.380   0.637 -2.0117  1.5466 -0.7573
  968MOL0     H27756  -2.132   4.381   0.403 -3.8007  1.8744  0.6095
  968MOL0     H27757  -2.029   4.526   0.367  0.4493 -1.3798 -1.0844
  968MOL0     H27758  -1.406   4.822   1.352  0.2965 -0.7690  0.2365
  968MOL0     H27759  -1.170   4.864   1.411 -2.7422  0.8173  0.2715
  968MOL0     H27760  -0.702   4.819   1.167 -0.0044  1.9179 -1.1740
  968MOL0     H27761  -0.443   4.796   1.208  0.4045 -1.8943  1.7586
  968MOL0     H27762   1.316   5.253   1.927  0.1047 -2.2387 -1.4076
  968MOL0     H27763   1.497   5.439   1.924 -0.3052 -0.9390  0.8640
  968MOL0     H27764   1.666   5.752   1.693  0.9897  3.5163  1.1080
  968MOL0     H27765   1.803   5.947   1.676 -0.0632 -1.4615  2.6597
  968MOL0     H27766   1.905   6.107   1.534  0.5565  0.2463  0.7512
  968MOL0     H27767   1.951   6.021   1.398 -2.1772 -0.9489  1.6039
  968MOL0     H27768   2.043   6.248   1.380  0.9985 -0.1694 -2.3422
  968MOL0     H27769   2.127   6.231   1.532  0.4511  0.6900 -1.0820
  968MOL0     H27770   2.144   6.077   1.262 -1.4569  1.0865  0.5326
  968MOL0     H27771   2.253   6.033   1.400 -0.7259 -0.0148  1.0031
  968MOL0     H27772   2.327   6.288   1.338  1.5271 -0.4500  0.2802
  968MOL0     H27773   2.382   6.169   1.218  1.0906  4.3210 -2.0706
  968MOL0     H27774   2.126   6.336   0.965  3.4448  0.0312 -1.2724
  968MOL0     H27775   2.141   5.723   1.531  0.1829 -1.5658  1.2912
  968MOL0     H27776   2.014   5.518   1.573  0.8375  0.5716  1.6292
  969MOL0     O27777  11.170   9.094   8.745  0.8501 -0.2436  0.1355
  969MOL0     C27778  11.207   9.213   8.730  0.3684  0.3546  0.3614
  969MOL0     O27779  11.144   9.311   8.657 -0.9304 -0.1218  0.1376
  969MOL0     C27780  11.013   9.321   8.624  0.2060  0.6230  0.6923
  969MOL0     C27781  10.900   9.280   8.699  0.7940  0.8255 -0.8544
  969MOL0     C27782  10.768   9.299   8.657  0.3115  0.2695  0.3638
  969MOL0     C27783  10.758   9.368   8.533  0.7968 -0.4262  0.2974
  969MOL0     O27784  10.625   9.386   8.492 -0.5825 -0.1534 -0.8122
  969MOL0     C27785  10.599   9.469   8.379 -0.0193  0.1903 -1.0485
  969MOL0     C27786  10.448   9.470   8.360  0.2750 -0.6256  0.4072
  969MOL0     C27787  10.392   9.335   8.294 -0.1802  0.7304 -0.2567
  969MOL0     C27788  10.247   9.343   8.245 -0.8416  0.0249  0.7342
  969MOL0     C27789  10.189   9.222   8.170  0.0464  0.7628 -0.0185
  969MOL0     C27790  10.081   9.251   8.057 -0.7683  1.0147  0.1093
  969MOL0     C27791   9.975   9.355   8.091 -0.8078  0.1055  0.0804
  969MOL0     C27792   9.895   9.323   8.220  0.6411 -0.5438 -0.0154
  969MOL0     N27793   9.836   9.446   8.271  1.0710  1.1263 -0.5174
  969MOL0     C27794   9.740   9.520   8.216  0.3251  0.6340 -0.2618
  969MOL0     C27795   9.712   9.626   8.303  0.1360  0.1206 -0.7532
  969MOL0     C27796   9.603   9.725   8.284 -0.1773 -1.0602  0.2439
  969MOL0     C27797   9.489   9.690   8.381 -0.3588  0.0850 -0.0400
  969MOL0     C27798   9.365   9.778   8.366 -0.0523 -0.7636 -0.2508
  969MOL0     C27799   9.252   9.735   8.472 -0.0502  0.2847  0.7506
  969MOL0     O27800   9.138   9.821   8.459  0.1946 -0.4640  0.1418
  969MOL0     C27801   9.029   9.792   8.379  0.6124  0.6995  0.2915
  969MOL0     C27802   8.922   9.872   8.410  0.0253  0.0672  0.2171
  969MOL0     C27803   8.803   9.853   8.334  0.3075  0.1468 -0.0892
  969MOL0     C27804   8.795   9.758   8.234  0.6654  0.1755 -0.4053
  969MOL0     C27805   8.662   9.740   8.174 -1.1866  0.3372  2.1541
  969MOL0     O27806   8.557   9.817   8.208 -0.3176 -0.6004  0.1600
  969MOL0     C27807   8.425   9.784   8.179  0.0166 -0.1574  0.0299
  969MOL0     C27808   8.374   9.742   8.062  0.5988 -1.3832  0.0153
  969MOL0     C27809   8.238   9.702   8.049 -0.5115 -0.2557 -0.0312
  969MOL0     C27810   8.161   9.686   8.170 -0.6303  0.0952  0.0779
  969MOL0     O27811   8.030   9.637   8.170  0.1881  0.5173  0.3785
  969MOL0     C27812   7.988   9.583   8.050 -0.2172 -0.3498  0.1454
  969MOL0     C27813   7.850   9.506   8.082  0.7235  0.1348  0.4538
  969MOL0     C27814   7.727   9.603   8.081 -0.9557 -0.2306 -0.3770
  969MOL0     C27815   7.601   9.533   8.075  0.0291  0.9466  0.9047
  969MOL0     C27816   7.485   9.641   8.091  0.4746 -0.0381  0.4738
  969MOL0     C27817   7.347   9.573   8.095 -0.1333  1.2268 -1.1954
  969MOL0     C27818   7.344   9.456   8.198 -0.6356 -0.8433 -0.2403
  969MOL0     C27819   7.194   9.422   8.220 -1.2784 -0.3581  0.5356
  969MOL0    Cl27820   7.162   9.275   8.317  0.0620  0.4555  0.1277
  969MOL0     C27821   8.207   9.739   8.290  0.1775  0.2552  0.4888
  969MOL0     C27822   8.337   9.792   8.286  0.7187 -0.7211 -1.3204
  969MOL0     O27823   8.657   9.645   8.097 -0.5693 -0.1135  0.5363
  969MOL0     C27824   8.904   9.676   8.205 -0.1413  0.0584 -0.2982
  969MOL0     C27825   9.017   9.688   8.284 -0.5910  0.0332  0.4452
  969MOL0     N27826   9.800   9.614   8.402 -0.6132  0.9279  0.1891
  969MOL0     N27827   9.870   9.506   8.391  0.4064  0.1045  0.1452
  969MOL0     C27828  10.867   9.407   8.450 -0.1507  0.7681 -0.0227
  969MOL0     C27829  10.997   9.375   8.498  0.2825 -0.1114 -0.2465
  969MOL0     C27830  11.341   9.242   8.774 -0.2837  0.4901  0.1494
  969MOL0     C27831  11.399   9.368   8.781  0.4406  0.0020  0.2780
  969MOL0     C27832  11.525   9.384   8.831 -1.2475  0.2629  0.9294
  969MOL0     C27833  11.600   9.276   8.881  0.7741 -0.3190 -0.0434
  969MOL0     O27834  11.723   9.310   8.923  0.0068 -0.2129  0.1960
  969MOL0     C27835  11.728   9.358   9.057 -0.4945  0.1403  0.1069
  969MOL0     C27836  11.723   9.242   9.162  0.0821 -0.2212  0.3374
  969MOL0     C27837  11.858   9.158   9.151  0.6957  0.0165  0.0437
  969MOL0     C27838  11.970   9.208   9.244  0.0577  0.6253  1.1676
  969MOL0     C27839  11.939   9.189   9.383 -0.3562 -0.3414 -0.4550
  969MOL0     C27840  11.924   9.196   9.506  0.4587  0.2303  0.2149
  969MOL0     C27841  11.541   9.151   8.887 -0.2072 -0.2685 -1.3605
  969MOL0     C27842  11.412   9.130   8.835 -0.3760 -0.0011 -0.2330
  969MOL0     H27843  10.925   9.233   8.793 -0.7230 -1.1264 -1.3544
  969MOL0     H27844  10.680   9.270   8.714  0.1537 -1.5264 -0.7040
  969MOL0     H27845  10.650   9.436   8.288 -0.9634 -2.2614 -0.7813
  969MOL0     H27846  10.631   9.572   8.395 -0.4990  0.4755 -1.8629
  969MOL0     H27847  10.426   9.556   8.295  0.9331 -1.5311 -1.0761
  969MOL0     H27848  10.407   9.497   8.457 -0.5752  1.8656 -0.5567
  969MOL0     H27849  10.410   9.253   8.364  1.4635  0.3711 -1.0556
  969MOL0     H27850  10.455   9.310   8.208 -3.5088 -1.9094 -2.2389
  969MOL0     H27851  10.185   9.363   8.334 -0.6915  0.2626  0.7859
  969MOL0     H27852  10.241   9.433   8.183  1.0342 -0.3435 -0.0382
  969MOL0     H27853  10.151   9.157   8.250 -0.5445  1.2903  0.1420
  969MOL0     H27854  10.270   9.156   8.137 -2.4614 -3.9573  2.1884
  969MOL0     H27855  10.024   9.159   8.036  0.2008  0.8271 -1.8988
  969MOL0     H27856  10.135   9.284   7.968  0.0333 -0.5545 -0.0151
  969MOL0     H27857  10.027   9.449   8.109 -3.0994  1.7595 -1.2768
  969MOL0     H27858   9.905   9.378   8.009 -0.8597  4.3907  1.0921
  969MOL0     H27859   9.965   9.285   8.295  2.1009 -1.9306 -1.9846
  969MOL0     H27860   9.825   9.243   8.194  0.3374 -0.3977  0.3425
  969MOL0     H27861   9.682   9.501   8.127  0.4643 -1.5719  0.0710
  969MOL0     H27862   9.573   9.728   8.179 -2.2315  1.3856  0.8060
  969MOL0     H27863   9.643   9.825   8.300  0.9004 -1.5828  0.9963
  969MOL0     H27864   9.539   9.713   8.475  0.6011  1.9947 -0.9721
  969MOL0     H27865   9.465   9.583   8.379 -2.7916  0.5743 -1.4327
  969MOL0     H27866   9.384   9.883   8.388 -0.6749 -1.2900  3.5544
  969MOL0     H27867   9.315   9.769   8.269 -4.3408 -1.2912  1.7655
  969MOL0     H27868   9.293   9.735   8.573  1.1853  2.5957  0.3068
  969MOL0     H27869   9.224   9.630   8.460  0.1820 -0.1712  3.4799
  969MOL0     H27870   8.928   9.953   8.482 -2.3646  1.9085 -1.5005
  969MOL0     H27871   8.719   9.916   8.362 -1.1716 -2.5334  1.9157
  969MOL0     H27872   8.426   9.739   7.967 -0.9950  4.5849 -1.4544
  969MOL0     H27873   8.206   9.664   7.953 -0.5365  0.6593 -0.3895
  969MOL0     H27874   8.059   9.511   8.009 -1.2546 -0.2974 -1.9051
  969MOL0     H27875   7.965   9.650   7.966  0.2998 -2.2657 -1.5941
  969MOL0     H27876   7.856   9.454   8.178  0.0909 -0.0659  0.3857
  969MOL0     H27877   7.836   9.431   8.003  1.2916 -0.4681  0.9148
  969MOL0     H27878   7.719   9.651   7.983 -0.9220 -0.3049 -0.4159
  969MOL0     H27879   7.733   9.686   8.152 -1.1607 -1.0959  0.6742
  969MOL0     H27880   7.584   9.494   7.974 -2.5083  0.0031  1.6391
  969MOL0     H27881   7.598   9.452   8.148  1.0689 -1.8856 -1.9361
  969MOL0     H27882   7.478   9.716   8.012 -1.2802  0.0715  0.6798
  969MOL0     H27883   7.501   9.692   8.187 -1.2002  1.9129 -0.2029
  969MOL0     H27884   7.327   9.535   7.994  2.2474 -1.1956 -0.8667
  969MOL0     H27885   7.267   9.646   8.112 -1.8394 -1.0058  1.2483
  969MOL0     H27886   7.382   9.362   8.157 -0.5860 -0.4401 -1.1455
  969MOL0     H27887   7.393   9.492   8.288  0.6066  2.1615 -1.9636
  969MOL0     H27888   7.154   9.416   8.119 -0.8136  1.0846  0.2358
  969MOL0     H27889   7.141   9.502   8.274 -0.9266 -0.7755  1.5276
  969MOL0     H27890   8.147   9.728   8.379  2.1041 -0.4767  1.7738
  969MOL0     H27891   8.381   9.825   8.380 -2.3098  0.2450 -0.1121
  969MOL0     H27892   8.894   9.601   8.128 -0.0259  0.2127 -0.4657
  969MOL0     H27893   9.098   9.617   8.269 -0.9150 -0.1036 -0.7303
  969MOL0     H27894  10.846   9.442   8.349 -2.1321 -0.0894  0.0522
  969MOL0     H27895  11.084   9.415   8.447  0.7924  4.7367  3.7260
  969MOL0     H27896  11.342   9.448   8.735 -1.7161 -1.9420 -0.6026
  969MOL0     H27897  11.569   9.482   8.843  2.5818 -1.4334  2.6334
  969MOL0     H27898  11.646   9.428   9.078 -1.4975 -0.4600 -1.6105
  969MOL0     H27899  11.820   9.417   9.062 -0.8589  0.7189  0.1783
  969MOL0     H27900  11.719   9.282   9.264 -2.4786  1.2829 -0.2774
  969MOL0     H27901  11.633   9.182   9.149  0.5668 -0.9186  0.1229
  969MOL0     H27902  11.886   9.151   9.045 -0.6091 -1.0636 -0.2584
  969MOL0     H27903  11.840   9.052   9.169  0.0927 -0.4650 -2.8993
  969MOL0     H27904  12.070   9.170   9.221 -0.6277  0.3868 -1.8787
  969MOL0     H27905  11.988   9.314   9.223 -0.1299  0.3196 -0.6893
  969MOL0     H27906  11.915   9.203   9.612  0.7657 -0.9674  0.3287
  969MOL0     H27907  11.604   9.080   8.939  2.2117  2.2362 -0.6411
  969MOL0     H27908  11.366   9.037   8.867 -1.0866  0.5436  0.3750
  970MOL0     O27909   7.895   8.926   8.239 -0.2279  0.0037  0.5292
  970MOL0     C27910   7.919   9.044   8.201 -1.1310 -0.2144 -0.4531
  970MOL0     O27911   7.839   9.126   8.138  0.2214  0.1747  0.1967
  970MOL0     C27912   7.712   9.103   8.098 -0.2354  0.4092 -0.0005
  970MOL0     C27913   7.632   8.984   8.139 -0.0441  0.7528  0.1959
  970MOL0     C27914   7.496   8.979   8.110  0.6915  0.0317 -0.3837
  970MOL0     C27915   7.434   9.081   8.034  0.0134 -0.1898  0.3779
  970MOL0     O27916   7.300   9.089   8.003 -0.4891  0.4483  0.2195
  970MOL0     C27917   7.213   9.006   8.085 -0.4423  0.2046 -0.3984
  970MOL0     C27918   7.076   9.062   8.042  0.3400 -0.5355 -0.4680
  970MOL0     C27919   6.957   9.012   8.134  0.2086 -0.7400  0.4098
  970MOL0     C27920   6.829   9.083   8.097  0.7239  0.4255  0.0256
  970MOL0     C27921   6.721   9.035   8.203  0.8960  0.3705  0.4750
  970MOL0     C27922   6.583   9.099   8.152 -0.3680 -0.0763 -1.1586
  970MOL0     C27923   6.467   9.066   8.236  0.2334  1.5847 -0.6353
  970MOL0     C27924   6.459   9.135   8.374  0.3264  0.4238  0.3123
  970MOL0     N27925   6.332   9.122   8.456 -0.8780 -0.7602  0.4273
  970MOL0     C27926   6.256   9.009   8.468 -0.0411  0.7875 -0.1095
  970MOL0     C27927   6.147   9.050   8.531  1.1543 -0.2895  0.8316
  970MOL0     C27928   6.032   8.954   8.565  0.7111  0.1388  0.1198
  970MOL0     C27929   5.918   9.035   8.623 -0.1450  0.3788  0.0194
  970MOL0     C27930   5.926   9.094   8.753 -0.5186 -0.2639 -0.2042
  970MOL0     C27931   5.802   9.177   8.783  0.6451  1.1064 -0.6367
  970MOL0     O27932   5.793   9.206   8.928  0.4741  0.1123  0.3961
  970MOL0     C27933   5.666   9.220   8.975  0.7408  0.4859 -0.1982
  970MOL0     C27934   5.646   9.203   9.114  0.3190 -0.0576  0.3417
  970MOL0     C27935   5.520   9.236   9.176 -0.5990 -0.4241 -0.2233
  970MOL0     C27936   5.412   9.268   9.099  0.0375 -0.1604 -0.0556
  970MOL0     C27937   5.282   9.281   9.157 -0.4518  0.8401 -0.2741
  970MOL0     O27938   5.193   9.361   9.089  0.4760 -0.2830  0.1287
  970MOL0     C27939   5.056   9.362   9.117  0.2688  1.1161  0.7187
  970MOL0     C27940   4.988   9.484   9.093 -0.4211 -0.1695  0.5339
  970MOL0     C27941   4.853   9.501   9.112 -0.4880 -0.3329 -0.2800
  970MOL0     C27942   4.776   9.399   9.160 -0.3302  0.6700  0.4920
  970MOL0     O27943   4.640   9.423   9.178 -0.3576  0.7018  0.8103
  970MOL0     C27944   4.555   9.313   9.190  0.3098 -0.1198  0.1419
  970MOL0     C27945   4.412   9.351   9.167  0.6102 -0.4879 -0.8815
  970MOL0     C27946   4.359   9.331   9.022 -0.2504 -0.2548 -0.3558
  970MOL0     C27947   4.215   9.385   9.006 -0.6643 -0.1221 -0.5669
  970MOL0     C27948   4.112   9.265   9.023 -0.5234  0.5069  0.5021
  970MOL0     C27949   3.968   9.303   9.022  0.6356 -0.0934 -0.0422
  970MOL0     C27950   3.919   9.394   9.135  0.2544  0.2592 -0.7387
  970MOL0     C27951   3.768   9.421   9.146 -0.3792  0.3630 -0.3629
  970MOL0    Cl27952   3.671   9.277   9.162  0.6627 -0.1871 -0.2247
  970MOL0     C27953   4.836   9.272   9.182  0.0781 -0.5624  0.0399
  970MOL0     C27954   4.972   9.253   9.154 -0.4916 -0.0146 -0.6382
  970MOL0     O27955   5.252   9.203   9.252  0.2161 -0.2688 -0.0133
  970MOL0     C27956   5.434   9.295   8.959 -0.5935 -0.4367  0.0218
  970MOL0     C27957   5.555   9.277   8.905 -0.3342  0.2862 -0.0740
  970MOL0     N27958   6.166   9.192   8.560 -0.1812  0.1765  0.0128
  970MOL0     N27959   6.270   9.231   8.505 -0.1818 -1.0178 -0.6795
  970MOL0     C27960   7.517   9.180   7.976  0.7755  0.1003  0.6117
  970MOL0     C27961   7.649   9.190   8.016  0.3369 -0.2223  0.1124
  970MOL0     C27962   8.054   9.100   8.218  0.2339 -0.9097 -0.4699
  970MOL0     C27963   8.091   9.202   8.132 -0.4551 -0.9447  0.3053
  970MOL0     C27964   8.209   9.279   8.148 -0.4853  0.9470 -0.0085
  970MOL0     C27965   8.284   9.253   8.262 -0.3187 -0.9613  0.6510
  970MOL0     O27966   8.407   9.319   8.288  0.0934  0.0098  0.3034
  970MOL0     C27967   8.450   9.427   8.196  0.4459  0.1880  0.8302
  970MOL0     C27968   8.528   9.362   8.083  0.1137 -0.8234  0.4254
  970MOL0     C27969   8.675   9.340   8.111 -0.8200 -0.5448 -0.5378
  970MOL0     C27970   8.780   9.339   7.998 -0.3553 -0.6468 -0.2543
  970MOL0     C27971   8.923   9.331   8.031  0.2182  0.6818  0.5857
  970MOL0     C27972   9.035   9.343   8.071 -0.4059  0.2642 -0.3895
  970MOL0     C27973   8.237   9.161   8.357  0.0068  0.8720 -0.1064
  970MOL0     C27974   8.132   9.076   8.333 -1.2090 -0.0032  0.2056
  970MOL0     H27975   7.664   8.918   8.219  0.3326 -0.0323 -0.5850
  970MOL0     H27976   7.440   8.903   8.163 -1.4748  1.9128  0.1964
  970MOL0     H27977   7.220   9.035   8.190 -2.0428  1.7692 -0.6751
  970MOL0     H27978   7.225   8.900   8.061  0.7034  0.2089  0.0890
  970MOL0     H27979   7.061   9.028   7.939  0.0553  2.6079 -1.5591
  970MOL0     H27980   7.079   9.171   8.031  0.3193 -0.1193  2.5394
  970MOL0     H27981   6.985   9.036   8.237 -0.7050  0.3910  0.4143
  970MOL0     H27982   6.954   8.903   8.128  1.5774 -0.7186 -2.1767
  970MOL0     H27983   6.841   9.192   8.103  2.2465  0.2178  1.2354
  970MOL0     H27984   6.796   9.060   7.996  3.4111  0.3921 -0.8935
  970MOL0     H27985   6.748   9.072   8.302 -1.1758  2.6063  0.3104
  970MOL0     H27986   6.718   8.926   8.195 -2.6126  0.4733 -1.8333
  970MOL0     H27987   6.563   9.060   8.052  1.8849  1.6219 -2.3346
  970MOL0     H27988   6.608   9.205   8.145 -0.4991 -0.0198 -0.8284
  970MOL0     H27989   6.375   9.087   8.180  0.4617  1.2113 -1.1523
  970MOL0     H27990   6.458   8.959   8.256  0.3798  1.0261 -3.2163
  970MOL0     H27991   6.496   9.236   8.356  1.0994  0.1064  0.0659
  970MOL0     H27992   6.539   9.086   8.431  1.5982 -0.0536 -1.7692
  970MOL0     H27993   6.280   8.909   8.436 -0.1614  0.0299  2.0204
  970MOL0     H27994   6.066   8.875   8.632 -1.1405 -0.3124  0.5982
  970MOL0     H27995   5.992   8.922   8.468  0.7270  1.8322 -0.4782
  970MOL0     H27996   5.835   8.964   8.620  2.7645 -3.2894 -2.7770
  970MOL0     H27997   5.892   9.108   8.546 -1.4443  1.8690  1.7814
  970MOL0     H27998   5.964   9.026   8.830  1.3905  2.4976  1.4612
  970MOL0     H27999   6.007   9.167   8.751 -0.1922 -0.6311 -0.9159
  970MOL0     H28000   5.712   9.124   8.751  2.0226 -1.4694 -0.5016
  970MOL0     H28001   5.799   9.272   8.729 -2.3457  0.7142 -1.3383
  970MOL0     H28002   5.723   9.154   9.173  1.2302  0.2244 -0.5870
  970MOL0     H28003   5.507   9.238   9.284 -1.4989  1.8008 -0.3144
  970MOL0     H28004   5.054   9.557   9.050  0.3057 -1.4047 -0.5157
  970MOL0     H28005   4.802   9.592   9.083  0.2547 -0.8776 -3.7510
  970MOL0     H28006   4.569   9.263   9.287 -1.6739 -0.3170  0.3654
  970MOL0     H28007   4.567   9.242   9.108  0.7880  0.9892 -0.7747
  970MOL0     H28008   4.389   9.448   9.212 -0.5862 -1.4021  0.5941
  970MOL0     H28009   4.350   9.276   9.217 -0.8225  1.1427 -0.1154
  970MOL0     H28010   4.362   9.225   8.994 -1.5712 -0.0634 -1.2689
  970MOL0     H28011   4.435   9.381   8.961  0.6071 -1.0341  0.0440
  970MOL0     H28012   4.189   9.466   9.075  2.3375  2.8919 -2.6146
  970MOL0     H28013   4.201   9.430   8.907  2.1151  1.6139 -0.3036
  970MOL0     H28014   4.138   9.209   9.114 -0.1705 -0.7148 -0.3240
  970MOL0     H28015   4.124   9.186   8.949 -0.9805  1.7299 -0.9193
  970MOL0     H28016   3.915   9.208   9.018  0.0815  0.2179 -0.3033
  970MOL0     H28017   3.946   9.369   8.938  1.1302  1.1291  0.7614
  970MOL0     H28018   3.941   9.352   9.233 -2.5888  2.1456  0.8600
  970MOL0     H28019   3.964   9.494   9.129  1.5798 -0.1515  1.4281
  970MOL0     H28020   3.726   9.472   9.059 -1.4803  1.3642  0.7153
  970MOL0     H28021   3.744   9.491   9.227  1.4704  2.3140 -1.3759
  970MOL0     H28022   4.769   9.206   9.236 -1.3004  1.3429  0.7474
  970MOL0     H28023   5.006   9.153   9.177  1.3672  1.0425  1.6433
  970MOL0     H28024   5.349   9.320   8.898 -2.0304 -0.3344  1.9682
  970MOL0     H28025   5.565   9.304   8.800  1.2226 -2.3289 -0.6995
  970MOL0     H28026   7.483   9.265   7.919  1.5044  0.9479  1.3935
  970MOL0     H28027   7.716   9.264   7.974  0.1550 -0.1549 -0.0674
  970MOL0     H28028   8.035   9.226   8.042 -0.3242  3.3605  1.1491
  970MOL0     H28029   8.236   9.347   8.067 -1.0658  1.6357  0.3671
  970MOL0     H28030   8.509   9.500   8.253  2.0948 -0.5388  0.1349
  970MOL0     H28031   8.368   9.480   8.148  1.4877 -2.2994 -4.2972
  970MOL0     H28032   8.478   9.276   8.038 -3.2170  0.7155  0.8877
  970MOL0     H28033   8.530   9.434   8.001  0.5802 -1.1794  0.1132
  970MOL0     H28034   8.681   9.242   8.159  3.4444  0.5393  1.6652
  970MOL0     H28035   8.704   9.406   8.194 -1.9351 -1.7142  0.8346
  970MOL0     H28036   8.765   9.250   7.935  0.8496  0.9688 -3.0362
  970MOL0     H28037   8.764   9.427   7.935 -0.5295 -0.6745 -0.2475
  970MOL0     H28038   9.126   9.347   8.128 -1.5835 -2.3947  1.8753
  970MOL0     H28039   8.284   9.138   8.453 -1.8240 -0.8338  0.4453
  970MOL0     H28040   8.104   9.006   8.410 -1.6414 -2.8213 -2.3253
  971MOL0     O28041   0.973   9.433   8.260 -0.8909  0.1936 -0.5390
  971MOL0     C28042   0.934   9.348   8.341  0.0678  0.0453 -0.2951
  971MOL0     O28043   0.837   9.261   8.331  0.9552  0.2832  0.0366
  971MOL0     C28044   0.760   9.260   8.213 -0.1994  0.6302  0.0569
  971MOL0     C28045   0.624   9.286   8.212  0.7617 -0.6353  0.1161
  971MOL0     C28046   0.543   9.298   8.096  0.5280  0.0912 -0.0851
  971MOL0     C28047   0.610   9.267   7.976  0.6236  0.0907  0.1615
  971MOL0     O28048   0.546   9.267   7.854  0.4040 -0.4887  0.1219
  971MOL0     C28049   0.423   9.341   7.836  0.1348 -0.5506 -0.2994
  971MOL0     C28050   0.358   9.300   7.702  0.1852 -0.5562  0.1405
  971MOL0     C28051   0.457   9.350   7.596 -0.1570  0.1329  0.1060
  971MOL0     C28052   0.458   9.270   7.467  0.4461 -0.9516  0.8712
  971MOL0     C28053   0.349   9.313   7.368 -0.0625  0.0005  0.0104
  971MOL0     C28054   0.366   9.453   7.310 -0.3125  0.9561  0.8028
  971MOL0     C28055   0.283   9.471   7.182 -0.8016 -0.5770  0.0933
  971MOL0     C28056   0.298   9.614   7.132 -0.6463 -0.7801 -0.2520
  971MOL0     N28057   0.233   9.627   7.005 -0.3601  0.5292  0.0421
  971MOL0     C28058   0.116   9.686   6.978  0.1931  0.4347 -0.3389
  971MOL0     C28059   0.093   9.676   6.841 -0.6431  0.5378 -0.4327
  971MOL0     C28060  -0.023   9.703   6.750  1.0071 -0.9954 -0.2854
  971MOL0     C28061  -0.021   9.857   6.727 -0.5932  0.4164  0.3408
  971MOL0     C28062  -0.151   9.902   6.647 -0.7762  0.5684 -0.6056
  971MOL0     C28063  -0.162  10.056   6.651  0.1872  1.6789  0.1500
  971MOL0     O28064  -0.235  10.104   6.762 -0.2091  0.5024  0.0229
  971MOL0     C28065  -0.372  10.120   6.743 -0.1419 -0.2386 -0.1697
  971MOL0     C28066  -0.428  10.229   6.810 -0.3672 -0.0161  0.2024
  971MOL0     C28067  -0.558  10.262   6.804  0.4613  0.0710  0.9496
  971MOL0     C28068  -0.643  10.198   6.709  0.1342  0.9124  0.0857
  971MOL0     C28069  -0.779  10.235   6.684  0.9788 -0.1073  0.2856
  971MOL0     O28070  -0.831  10.352   6.732  0.0255  1.1519  0.8655
  971MOL0     C28071  -0.964  10.373   6.713 -0.1039 -0.2607 -0.3281
  971MOL0     C28072  -1.011  10.484   6.638 -0.6729  0.1988 -0.3055
  971MOL0     C28073  -1.146  10.518   6.631  0.2974  0.9600 -0.3836
  971MOL0     C28074  -1.241  10.435   6.697 -0.1807  0.5591  0.2977
  971MOL0     O28075  -1.378  10.458   6.684  0.0504  0.0419  0.1710
  971MOL0     C28076  -1.421  10.516   6.567  0.3367 -0.3334  0.1395
  971MOL0     C28077  -1.570  10.502   6.555  0.7023 -0.2507 -0.3626
  971MOL0     C28078  -1.632  10.591   6.432 -0.0772  0.1170 -0.3657
  971MOL0     C28079  -1.775  10.627   6.463 -0.5200  0.2107 -0.2904
  971MOL0     C28080  -1.834  10.704   6.346 -0.2607  0.7378  1.1386
  971MOL0     C28081  -1.974  10.742   6.384  0.7666  0.2169 -1.1407
  971MOL0     C28082  -2.052  10.823   6.282 -0.6531  0.0306 -0.1180
  971MOL0     C28083  -2.190  10.837   6.329  0.1572  0.7133  0.0466
  971MOL0    Cl28084  -2.288  10.981   6.277  0.0285  0.0447  0.1622
  971MOL0     C28085  -1.198  10.333   6.786 -0.5387  0.1688 -0.2773
  971MOL0     C28086  -1.060  10.299   6.789 -0.3278 -0.4632 -0.2534
  971MOL0     O28087  -0.845  10.156   6.626  0.2078 -0.2441  0.6281
  971MOL0     C28088  -0.591  10.081   6.643 -0.4138 -0.2757 -0.0468
  971MOL0     C28089  -0.454  10.042   6.664  0.9288  0.5266  0.0890
  971MOL0     N28090   0.205   9.612   6.803  0.0258 -0.5979  0.0623
  971MOL0     N28091   0.294   9.595   6.889  0.0842  0.0341 -0.2471
  971MOL0     C28092   0.740   9.237   7.973  0.6214  0.3219  0.5813
  971MOL0     C28093   0.821   9.234   8.092  0.4871 -0.3704  0.2997
  971MOL0     C28094   0.990   9.375   8.486  0.6716  0.6789  0.3169
  971MOL0     C28095   1.103   9.460   8.520  0.1239 -0.6133  0.9639
  971MOL0     C28096   1.140   9.480   8.648 -0.3011 -0.2322  0.1487
  971MOL0     C28097   1.073   9.419   8.748 -0.3269 -0.3748 -0.1244
  971MOL0     O28098   1.107   9.418   8.879  0.2219 -0.8198 -0.0232
  971MOL0     C28099   1.171   9.531   8.934 -0.4674 -0.2285  0.5232
  971MOL0     C28100   1.227   9.506   9.075 -0.5892  0.1368  0.4470
  971MOL0     C28101   1.118   9.489   9.183 -0.0120  0.5637  0.1891
  971MOL0     C28102   1.163   9.500   9.325  1.7841  0.4132  0.2732
  971MOL0     C28103   1.221   9.631   9.362 -0.0547 -0.7221  0.0868
  971MOL0     C28104   1.251   9.752   9.379  0.0234  0.6677 -0.5868
  971MOL0     C28105   0.957   9.342   8.724  0.2329  0.7277  0.2496
  971MOL0     C28106   0.925   9.318   8.593  0.5573  0.1489 -0.1937
  971MOL0     H28107   0.584   9.321   8.306  3.5063  2.0398  0.4615
  971MOL0     H28108   0.441   9.327   8.114  1.2888  2.0848  1.3429
  971MOL0     H28109   0.450   9.447   7.846 -1.3071 -0.2442  0.6258
  971MOL0     H28110   0.350   9.321   7.915 -0.5682  0.2029 -0.7545
  971MOL0     H28111   0.262   9.353   7.692  1.0421  0.9597 -0.4100
  971MOL0     H28112   0.350   9.192   7.692  1.1761 -0.5785 -0.5188
  971MOL0     H28113   0.560   9.350   7.634 -0.6207 -1.5005  1.4569
  971MOL0     H28114   0.443   9.457   7.577  0.2042 -0.1941 -2.2422
  971MOL0     H28115   0.558   9.278   7.424  0.3613 -2.1575  0.3901
  971MOL0     H28116   0.455   9.161   7.483  0.4391 -1.4542 -2.0568
  971MOL0     H28117   0.254   9.318   7.422 -0.9283 -0.8112 -1.3724
  971MOL0     H28118   0.348   9.230   7.296  0.0346 -2.6391  2.8768
  971MOL0     H28119   0.469   9.477   7.283 -0.5125 -0.2371 -1.2199
  971MOL0     H28120   0.336   9.523   7.389  1.7469  0.6470  1.9083
  971MOL0     H28121   0.324   9.414   7.098 -0.0187 -0.0594  0.1135
  971MOL0     H28122   0.176   9.453   7.198 -0.1524 -2.4228  3.0440
  971MOL0     H28123   0.403   9.638   7.117 -1.3916  3.5191  0.0248
  971MOL0     H28124   0.251   9.693   7.192  1.1625  0.6575 -0.6459
  971MOL0     H28125   0.050   9.732   7.051  2.4432  1.2183  1.3004
  971MOL0     H28126  -0.118   9.669   6.793  0.9277  1.3898  1.6389
  971MOL0     H28127  -0.003   9.666   6.650 -0.2218 -1.2647 -0.4502
  971MOL0     H28128   0.066   9.882   6.666  0.4965 -3.8275 -0.1291
  971MOL0     H28129  -0.005   9.905   6.824  2.1006  1.5361 -0.5520
  971MOL0     H28130  -0.160   9.864   6.545 -0.7280 -0.3137 -0.2897
  971MOL0     H28131  -0.233   9.872   6.712  2.5211  0.1068  3.7854
  971MOL0     H28132  -0.217  10.078   6.559  0.7870  0.5216 -0.5036
  971MOL0     H28133  -0.060  10.093   6.647  1.7714 -1.7975  2.6838
  971MOL0     H28134  -0.355  10.285   6.867 -0.5796  1.8866 -1.2913
  971MOL0     H28135  -0.587  10.351   6.860  1.8306  1.3962 -0.3801
  971MOL0     H28136  -0.939  10.542   6.582 -1.4117  2.8233  1.2500
  971MOL0     H28137  -1.164  10.607   6.573  2.3993  0.2112 -2.3351
  971MOL0     H28138  -1.384  10.470   6.474 -0.8615  2.5189 -1.8905
  971MOL0     H28139  -1.399  10.623   6.558 -2.8060  0.5147  1.4420
  971MOL0     H28140  -1.623  10.555   6.635 -2.8044 -2.6235 -0.8916
  971MOL0     H28141  -1.598  10.396   6.560  2.8045 -0.8049  0.8400
  971MOL0     H28142  -1.606  10.537   6.340  2.2282 -0.3891  0.4929
  971MOL0     H28143  -1.576  10.685   6.423  0.1670 -0.0531 -0.6702
  971MOL0     H28144  -1.833  10.535   6.475  0.3141 -0.2375  0.4252
  971MOL0     H28145  -1.785  10.680   6.558  1.0398 -0.0396  0.0451
  971MOL0     H28146  -1.845  10.641   6.258  4.3724  2.5478 -1.0354
  971MOL0     H28147  -1.788  10.797   6.313 -2.4870  0.4971 -3.2703
  971MOL0     H28148  -1.971  10.790   6.482  3.9253 -2.6565  0.3874
  971MOL0     H28149  -2.029  10.648   6.395 -0.6722  1.1512 -0.0936
  971MOL0     H28150  -2.016  10.925   6.266 -1.6030  0.5715  1.0308
  971MOL0     H28151  -2.044  10.764   6.190 -0.7639 -1.1230  0.5832
  971MOL0     H28152  -2.199  10.837   6.438  1.6813  1.3819  0.1991
  971MOL0     H28153  -2.242  10.748   6.291 -0.7743  2.6778 -3.8149
  971MOL0     H28154  -1.265  10.275   6.850  2.8281 -2.6190  1.0410
  971MOL0     H28155  -1.025  10.231   6.866  0.3553 -1.9727 -1.8275
  971MOL0     H28156  -0.652  10.031   6.569  0.5393 -1.3016 -0.1737
  971MOL0     H28157  -0.423   9.952   6.612  2.3975  0.6252  0.7629
  971MOL0     H28158   0.785   9.206   7.879  0.0318  1.8808 -0.2464
  971MOL0     H28159   0.924   9.199   8.085  0.7309  0.4184 -0.1418
  971MOL0     H28160   1.170   9.501   8.445  0.0548 -0.5366  0.9433
  971MOL0     H28161   1.221   9.548   8.668 -0.1382  0.2384 -1.9625
  971MOL0     H28162   1.100   9.614   8.946  0.1883  0.5029 -0.4730
  971MOL0     H28163   1.259   9.566   8.879 -0.9861 -0.8441 -0.7450
  971MOL0     H28164   1.304   9.429   9.069 -0.6241  0.2224 -1.4783
  971MOL0     H28165   1.284   9.595   9.104  3.3719 -1.6519 -1.1223
  971MOL0     H28166   1.071   9.393   9.159  2.3829 -0.0957 -2.4789
  971MOL0     H28167   1.056   9.578   9.171 -0.3750  0.4539  1.1905
  971MOL0     H28168   1.075   9.485   9.388  0.5965  1.6607 -0.9987
  971MOL0     H28169   1.237   9.422   9.342 -0.7671 -3.1852 -3.1505
  971MOL0     H28170   1.263   9.858   9.379 -1.4862  0.9148  2.0613
  971MOL0     H28171   0.901   9.297   8.805 -0.1564  0.5746 -0.0997
  971MOL0     H28172   0.837   9.258   8.571 -1.0861  1.2623  2.7743
  972MOL0     O28173   0.644   9.658   0.163 -0.1780 -0.4470  0.2925
  972MOL0     C28174   0.567   9.573   0.209  0.3843 -0.8027 -0.0821
  972MOL0     O28175   0.606   9.467   0.288  0.6896  0.1695 -0.5390
  972MOL0     C28176   0.727   9.470   0.348  1.2496  0.7123  0.4355
  972MOL0     C28177   0.798   9.354   0.363  0.1571  0.2946 -0.4045
  972MOL0     C28178   0.913   9.351   0.437 -0.6848 -0.6506 -0.1340
  972MOL0     C28179   0.958   9.458   0.504  0.1512 -0.4122  0.1689
  972MOL0     O28180   1.075   9.477   0.569  0.4539  0.4900 -0.3685
  972MOL0     C28181   1.171   9.374   0.574  0.1420 -0.0548  0.0304
  972MOL0     C28182   1.314   9.432   0.600  0.8058  0.4945 -0.0855
  972MOL0     C28183   1.301   9.526   0.724 -0.4132  0.3608  0.1832
  972MOL0     C28184   1.437   9.587   0.757  0.8001 -0.1896  0.9900
  972MOL0     C28185   1.453   9.729   0.711  0.0650  0.2591 -0.5463
  972MOL0     C28186   1.600   9.765   0.734 -0.1511 -0.2634 -0.1377
  972MOL0     C28187   1.625   9.910   0.696  0.1174  0.0508  0.4984
  972MOL0     C28188   1.774   9.940   0.725 -0.8644 -0.4938  0.2191
  972MOL0     N28189   1.835   9.999   0.604  0.1178  0.3637  0.3670
  972MOL0     C28190   1.785  10.086   0.518 -0.7587 -0.0456 -0.1167
  972MOL0     C28191   1.871  10.086   0.415  0.3021 -0.2876 -0.2029
  972MOL0     C28192   1.877  10.197   0.313 -0.4469 -0.0382  0.2263
  972MOL0     C28193   1.742  10.252   0.258  0.2882  0.3989 -0.1192
  972MOL0     C28194   1.762  10.370   0.161 -0.2491 -0.9663  0.6679
  972MOL0     C28195   1.627  10.404   0.101  0.3381  0.4104 -0.8727
  972MOL0     O28196   1.521  10.436   0.194  0.2745 -0.2217 -0.2042
  972MOL0     C28197   1.395  10.469   0.142  0.3389 -0.4855 -0.4600
  972MOL0     C28198   1.350  10.472   0.014 -0.2071  1.3009  0.3331
  972MOL0     C28199   1.221  10.503  -0.020  0.6507 -0.2602 -0.2747
  972MOL0     C28200   1.124  10.528   0.081  0.4769 -0.0877 -0.7820
  972MOL0     C28201   0.988  10.577   0.044  0.5847 -0.4822 -0.3228
  972MOL0     O28202   0.979  10.622  -0.082  0.2276  0.8251 -0.4668
  972MOL0     C28203   0.862  10.667  -0.143  0.3497  0.1311 -0.6395
  972MOL0     C28204   0.861  10.765  -0.248  0.2750  0.8350  0.3421
  972MOL0     C28205   0.749  10.796  -0.322 -0.1298  0.1545 -0.1326
  972MOL0     C28206   0.627  10.729  -0.293 -0.2432 -0.1912  0.1275
  972MOL0     O28207   0.519  10.749  -0.378  0.0083  0.0496 -0.0922
  972MOL0     C28208   0.384  10.729  -0.337  1.1560 -0.0208 -0.5141
  972MOL0     C28209   0.289  10.790  -0.441 -0.9617  0.2365 -0.0280
  972MOL0     C28210   0.327  10.922  -0.492 -1.0113 -1.0079  0.0421
  972MOL0     C28211   0.415  10.921  -0.618  0.2961  0.6885 -0.9353
  972MOL0     C28212   0.437  11.068  -0.671 -0.0047  0.7809 -0.7322
  972MOL0     C28213   0.521  11.073  -0.800 -0.0910 -1.3667  0.0724
  972MOL0     C28214   0.567  11.215  -0.839  0.3688 -0.5791 -0.2786
  972MOL0     C28215   0.652  11.215  -0.966 -0.5647 -0.1651 -0.1675
  972MOL0    Cl28216   0.556  11.186  -1.108 -0.3385 -0.0850  0.1704
  972MOL0     C28217   0.619  10.635  -0.190  0.1893 -0.3329  0.0163
  972MOL0     C28218   0.736  10.604  -0.122  0.1918  0.4409 -0.8677
  972MOL0     O28219   0.891  10.569   0.122 -0.0125  0.1892 -0.7912
  972MOL0     C28220   1.161  10.518   0.217 -0.3213 -0.9098 -0.4392
  972MOL0     C28221   1.297  10.495   0.243 -0.1925 -0.2503 -0.1981
  972MOL0     N28222   1.961   9.985   0.439  0.1454  0.8120 -0.1955
  972MOL0     N28223   1.939   9.931   0.550 -0.2146  0.9002 -0.2906
  972MOL0     C28224   0.894   9.580   0.491 -0.6201  0.2486 -0.2396
  972MOL0     C28225   0.776   9.584   0.409 -0.3868 -0.5959  0.4702
  972MOL0     C28226   0.423   9.582   0.179 -0.6878 -0.1694 -0.0985
  972MOL0     C28227   0.363   9.705   0.164  0.5623 -0.3782  0.1638
  972MOL0     C28228   0.225   9.708   0.164 -0.0383 -0.4719  0.1693
  972MOL0     C28229   0.147   9.592   0.146  0.1104 -0.5586 -0.4735
  972MOL0     O28230   0.017   9.583   0.112  0.3762 -0.3597  0.3836
  972MOL0     C28231  -0.068   9.697   0.127  0.1938  0.5553  0.3484
  972MOL0     C28232  -0.094   9.744   0.278 -0.6286  0.1539  0.5230
  972MOL0     C28233  -0.203   9.855   0.287 -0.0088 -0.3505 -0.4626
  972MOL0     C28234  -0.200   9.928   0.420  0.3022 -0.1886 -0.0684
  972MOL0     C28235  -0.185   9.833   0.534  0.0057 -0.5576  0.0612
  972MOL0     C28236  -0.179   9.747   0.628  0.1650 -0.0285  0.3343
  972MOL0     C28237   0.206   9.478   0.140 -0.7426  0.2924  0.1942
  972MOL0     C28238   0.344   9.469   0.166 -0.1477 -0.0418  0.1790
  972MOL0     H28239   0.765   9.257   0.327  0.7974 -0.9143  2.0540
  972MOL0     H28240   0.962   9.256   0.456 -1.7977 -0.5122  4.3673
  972MOL0     H28241   1.176   9.328   0.475 -0.4548  1.9689 -1.0077
  972MOL0     H28242   1.141   9.301   0.650  1.2620 -0.1917  0.3553
  972MOL0     H28243   1.336   9.493   0.512 -1.0387  3.4077  1.3156
  972MOL0     H28244   1.390   9.354   0.601  0.2753 -0.0826 -1.7734
  972MOL0     H28245   1.268   9.474   0.814 -1.8469 -0.9592 -1.0504
  972MOL0     H28246   1.226   9.602   0.700 -1.0153 -0.7093 -1.5024
  972MOL0     H28247   1.450   9.586   0.866  3.2230 -0.0114  0.7480
  972MOL0     H28248   1.515   9.524   0.715 -0.3462 -1.5840  0.8910
  972MOL0     H28249   1.395   9.794   0.777  0.1430 -2.0959  2.0448
  972MOL0     H28250   1.429   9.739   0.605 -1.2352 -0.9571 -0.3955
  972MOL0     H28251   1.667   9.704   0.673 -2.4936 -1.7886 -1.3562
  972MOL0     H28252   1.633   9.752   0.837  3.4580  0.5323 -1.0724
  972MOL0     H28253   1.595   9.910   0.591 -0.2886  0.6905  0.6102
  972MOL0     H28254   1.561   9.984   0.745 -1.6197 -0.3733 -1.0050
  972MOL0     H28255   1.833   9.850   0.747  0.4663  0.0075 -1.2042
  972MOL0     H28256   1.782  10.003   0.814 -0.9990  0.7696 -0.6463
  972MOL0     H28257   1.711  10.165   0.531  1.1575  2.7643 -4.0316
  972MOL0     H28258   1.915  10.156   0.219 -2.3272  1.7047 -1.3951
  972MOL0     H28259   1.935  10.280   0.354 -1.9626  1.1818  0.0234
  972MOL0     H28260   1.680  10.296   0.336 -0.9344  2.2246 -2.0030
  972MOL0     H28261   1.682  10.169   0.218 -0.5277  1.6445 -1.5981
  972MOL0     H28262   1.792  10.463   0.211  1.5211 -0.8577 -0.5184
  972MOL0     H28263   1.838  10.349   0.086 -0.8016  0.1348 -0.2326
  972MOL0     H28264   1.600  10.325   0.031  1.3578 -0.9373  0.2010
  972MOL0     H28265   1.650  10.490   0.037 -1.9718  2.1756  0.5202
  972MOL0     H28266   1.418  10.430  -0.060 -2.0868  0.1944 -0.8639
  972MOL0     H28267   1.191  10.506  -0.125 -1.8677  1.3422  0.3862
  972MOL0     H28268   0.957  10.814  -0.255  0.4160  0.6114  0.6661
  972MOL0     H28269   0.747  10.857  -0.411  1.3892 -0.0348 -0.3175
  972MOL0     H28270   0.366  10.769  -0.237  3.2039 -0.0835 -0.0595
  972MOL0     H28271   0.354  10.625  -0.324 -2.3710  0.9501  0.0532
  972MOL0     H28272   0.190  10.798  -0.395  0.0912  1.7861  2.1312
  972MOL0     H28273   0.292  10.729  -0.532 -0.5997  0.7840 -0.3913
  972MOL0     H28274   0.364  10.993  -0.418 -1.2855  0.0749 -0.8264
  972MOL0     H28275   0.233  10.976  -0.507 -1.5016 -0.6162  3.6226
  972MOL0     H28276   0.512  10.885  -0.582  0.3409  0.3057 -1.4313
  972MOL0     H28277   0.378  10.852  -0.695 -1.3188  0.6338 -0.1554
  972MOL0     H28278   0.480  11.128  -0.590  0.4762  0.4516 -0.7328
  972MOL0     H28279   0.337  11.107  -0.689 -1.5127 -2.5501 -0.3823
  972MOL0     H28280   0.480  11.027  -0.890 -0.2168 -0.6594 -0.2387
  972MOL0     H28281   0.612  11.019  -0.772  1.4935 -0.5746 -3.0719
  972MOL0     H28282   0.475  11.273  -0.855  0.2731 -0.9504 -1.1129
  972MOL0     H28283   0.625  11.253  -0.755  0.9328 -0.7935 -0.5624
  972MOL0     H28284   0.739  11.150  -0.973 -0.7276 -0.3269 -0.7615
  972MOL0     H28285   0.684  11.320  -0.971 -0.3316 -0.1215  1.6837
  972MOL0     H28286   0.523  10.593  -0.163 -0.0343 -2.0433 -3.0231
  972MOL0     H28287   0.723  10.557  -0.025  2.5704  0.3311 -0.5434
  972MOL0     H28288   1.097  10.554   0.297  1.5080  2.4800 -0.3225
  972MOL0     H28289   1.338  10.519   0.341 -2.9257 -1.8359  1.4720
  972MOL0     H28290   0.940   9.665   0.542  1.1280  0.8785 -2.6583
  972MOL0     H28291   0.715   9.673   0.400 -2.8305 -2.2858 -0.5183
  972MOL0     H28292   0.406   9.804   0.178 -1.1726  0.2748  1.0823
  972MOL0     H28293   0.181   9.808   0.165  2.6067  0.8750 -1.9927
  972MOL0     H28294  -0.160   9.660   0.081 -0.8044  2.3307  0.7997
  972MOL0     H28295  -0.046   9.792   0.077 -2.0270  1.2112  0.4978
  972MOL0     H28296  -0.129   9.648   0.318  1.0467 -1.8292 -2.3855
  972MOL0     H28297  -0.004   9.766   0.337  0.6036  1.0545 -1.6101
  972MOL0     H28298  -0.306   9.823   0.270 -0.1181 -0.6774  0.7010
  972MOL0     H28299  -0.182   9.932   0.213 -1.3884  2.2299  1.6602
  972MOL0     H28300  -0.122  10.005   0.421  2.1070 -1.8836 -1.9529
  972MOL0     H28301  -0.290   9.988   0.434  0.7031  0.7536 -1.3777
  972MOL0     H28302  -0.184   9.675   0.707 -0.8927 -0.8584 -0.4607
  972MOL0     H28303   0.151   9.387   0.118  0.1382  0.1590 -1.6208
  972MOL0     H28304   0.402   9.377   0.162  2.2353  1.3586  0.7467
  973MOL0     O28305   2.401  10.754   3.944  0.3755 -0.4041 -0.0934
  973MOL0     C28306   2.409  10.820   4.047 -0.0962  0.4359 -0.4172
  973MOL0     O28307   2.523  10.861   4.105 -0.2290 -0.7432 -0.2169
  973MOL0     C28308   2.647  10.851   4.037 -0.3773 -0.0601  0.2846
  973MOL0     C28309   2.737  10.958   4.020 -0.1413  0.0381 -0.4964
  973MOL0     C28310   2.864  10.932   3.971 -0.7486 -0.0060 -0.1783
  973MOL0     C28311   2.908  10.801   3.931 -0.5632 -0.3332  0.0140
  973MOL0     O28312   3.043  10.768   3.903  0.0980 -0.4620 -0.7405
  973MOL0     C28313   3.150  10.871   3.891  0.7695  0.2970  0.3059
  973MOL0     C28314   3.128  10.946   3.761 -0.1913 -0.0657  0.0794
  973MOL0     C28315   3.150  10.844   3.650  0.1675 -0.7164  0.7183
  973MOL0     C28316   3.147  10.926   3.526  0.0352  0.0594  0.3050
  973MOL0     C28317   3.165  10.854   3.396  0.3773 -0.1898  0.1995
  973MOL0     C28318   3.106  10.934   3.282 -0.0103 -0.6020  0.3884
  973MOL0     C28319   3.085  10.858   3.146  0.4104 -0.5308 -0.5420
  973MOL0     C28320   2.978  10.749   3.164 -0.7456  0.2628  0.2151
  973MOL0     N28321   2.927  10.696   3.037  0.1838  0.0965  0.0195
  973MOL0     C28322   2.828  10.612   3.027 -0.7688 -0.4359 -0.5047
  973MOL0     C28323   2.817  10.599   2.888 -0.0325  0.9597 -0.4311
  973MOL0     C28324   2.727  10.509   2.811 -0.1088 -0.0798 -0.2603
  973MOL0     C28325   2.575  10.523   2.837  0.2166 -0.5436  0.5059
  973MOL0     C28326   2.510  10.609   2.729  0.3374  0.0993 -0.0356
  973MOL0     C28327   2.363  10.628   2.775  0.4736 -0.2547 -0.0471
  973MOL0     O28328   2.292  10.722   2.687  0.1851  0.1020  0.1636
  973MOL0     C28329   2.155  10.736   2.718  0.1820  0.3678 -0.8670
  973MOL0     C28330   2.102  10.829   2.632  0.5899  0.2432  0.0031
  973MOL0     C28331   1.966  10.866   2.660  0.3175 -0.7726  0.8621
  973MOL0     C28332   1.896  10.828   2.778 -0.4994  0.1689  1.1479
  973MOL0     C28333   1.764  10.883   2.791 -0.3803  0.2302 -0.5868
  973MOL0     O28334   1.720  10.977   2.698 -0.4190  0.0283  0.3022
  973MOL0     C28335   1.592  11.027   2.706  0.0678 -0.6547 -0.4941
  973MOL0     C28336   1.493  11.024   2.816 -0.7460 -0.3984 -0.4963
  973MOL0     C28337   1.364  11.076   2.801 -0.2074  0.7855  0.5172
  973MOL0     C28338   1.331  11.124   2.670  0.1741 -0.1476 -1.3733
  973MOL0     O28339   1.209  11.180   2.632 -1.0308 -0.2331 -0.1326
  973MOL0     C28340   1.107  11.192   2.730 -0.0431 -0.0186 -0.4691
  973MOL0     C28341   0.996  11.275   2.667  0.7418 -0.0261  0.1398
  973MOL0     C28342   0.903  11.309   2.789 -0.8650  0.2007  0.4447
  973MOL0     C28343   0.804  11.411   2.734 -0.0708 -0.5282 -0.4260
  973MOL0     C28344   0.673  11.467   2.816  0.5677  0.6763  0.2728
  973MOL0     C28345   0.540  11.386   2.786  0.5255 -0.1287 -0.2380
  973MOL0     C28346   0.479  11.401   2.647 -0.4239  0.6025  0.3689
  973MOL0     C28347   0.367  11.293   2.639 -0.6827 -0.5216  0.0165
  973MOL0    Cl28348   0.284  11.288   2.480  0.1541 -0.2022 -0.1147
  973MOL0     C28349   1.427  11.126   2.565  0.2571  0.5268 -0.2325
  973MOL0     C28350   1.556  11.078   2.579  0.0385 -0.0882 -0.3339
  973MOL0     O28351   1.706  10.850   2.895 -0.3140  0.1592  0.1904
  973MOL0     C28352   1.961  10.742   2.865 -0.8370  0.5897 -0.0986
  973MOL0     C28353   2.089  10.692   2.834  0.4761 -0.1390  0.5105
  973MOL0     N28354   2.923  10.660   2.830 -0.0397 -0.1182 -0.4490
  973MOL0     N28355   2.981  10.728   2.920  0.2071 -0.3202  1.0002
  973MOL0     C28356   2.817  10.700   3.956 -0.8825  0.6098 -0.2349
  973MOL0     C28357   2.689  10.723   4.003 -0.1325  0.8269  0.2210
  973MOL0     C28358   2.297  10.839   4.136  0.4544 -0.2709  0.9601
  973MOL0     C28359   2.166  10.808   4.096 -0.0621 -0.3979  0.6100
  973MOL0     C28360   2.060  10.839   4.183  0.2887  0.3268 -0.0422
  973MOL0     C28361   2.082  10.889   4.310 -0.2907  0.0025 -0.5943
  973MOL0     O28362   1.983  10.937   4.399 -1.3728  0.6986 -0.3413
  973MOL0     C28363   1.848  10.939   4.361  0.4442  0.6918  1.4150
  973MOL0     C28364   1.744  10.911   4.467  0.0116  0.1022 -0.5056
  973MOL0     C28365   1.604  10.958   4.423 -1.2649  0.7312 -0.3518
  973MOL0     C28366   1.501  10.863   4.487  0.4546 -0.4434  0.0162
  973MOL0     C28367   1.361  10.912   4.444 -0.0435  0.9877  0.0932
  973MOL0     C28368   1.247  10.950   4.419 -0.8953 -0.0509  0.2701
  973MOL0     C28369   2.210  10.905   4.352 -0.1272 -0.0872  0.1250
  973MOL0     C28370   2.318  10.887   4.268  0.5906 -0.5598  0.4643
  973MOL0     H28371   2.717  11.063   4.040 -0.2217  0.6037 -3.1650
  973MOL0     H28372   2.933  11.015   3.957 -0.8621 -0.0673 -1.2415
  973MOL0     H28373   3.252  10.831   3.900  0.1313 -1.5555 -0.2815
  973MOL0     H28374   3.145  10.944   3.972 -1.6530 -0.2108  0.6809
  973MOL0     H28375   3.206  11.022   3.760  0.6509 -0.9117 -0.7904
  973MOL0     H28376   3.033  10.999   3.752  1.1133  2.4373  0.3502
  973MOL0     H28377   3.066  10.774   3.644 -2.5314  2.2970  0.3853
  973MOL0     H28378   3.249  10.801   3.667  0.3881 -1.4629 -1.9712
  973MOL0     H28379   3.051  10.977   3.525  0.3834  1.0612  4.1016
  973MOL0     H28380   3.227  10.999   3.542  0.4509 -0.7212  1.9497
  973MOL0     H28381   3.121  10.754   3.399 -2.5575  0.8691 -2.1244
  973MOL0     H28382   3.271  10.842   3.373  0.4446 -1.4082  1.0497
  973MOL0     H28383   3.158  11.027   3.258  0.6986 -1.1588 -0.2807
  973MOL0     H28384   3.010  10.968   3.322  0.2828  0.2114  0.4168
  973MOL0     H28385   3.062  10.932   3.068  0.8699 -1.7480 -1.8892
  973MOL0     H28386   3.172  10.803   3.109  0.0457 -1.9247  0.5840
  973MOL0     H28387   2.898  10.787   3.228 -1.1617  1.6939 -1.0658
  973MOL0     H28388   3.030  10.674   3.222 -1.4458 -0.1220  0.3521
  973MOL0     H28389   2.760  10.573   3.102 -0.5191  0.8922  0.4449
  973MOL0     H28390   2.761  10.407   2.831  2.7496  0.5898 -1.1120
  973MOL0     H28391   2.742  10.535   2.705  1.5522 -1.0664 -0.3174
  973MOL0     H28392   2.557  10.568   2.935 -0.6250 -0.2611  0.2317
  973MOL0     H28393   2.529  10.425   2.828  0.1297 -0.5034  0.5160
  973MOL0     H28394   2.560  10.707   2.720  0.2885  0.1912  0.6811
  973MOL0     H28395   2.509  10.560   2.631 -2.7717 -1.7471  0.7850
  973MOL0     H28396   2.342  10.657   2.878 -0.4281  3.8243 -1.1990
  973MOL0     H28397   2.315  10.532   2.757  1.2653 -0.2280 -2.8935
  973MOL0     H28398   2.143  10.863   2.538 -1.6861 -1.2320 -1.6207
  973MOL0     H28399   1.940  10.951   2.597  0.7374 -1.3230 -0.0777
  973MOL0     H28400   1.523  11.003   2.919 -0.3411  3.1626  0.2300
  973MOL0     H28401   1.290  11.073   2.881 -0.9302  0.8621 -0.1294
  973MOL0     H28402   1.142  11.232   2.825  0.3386 -2.2152  0.3837
  973MOL0     H28403   1.071  11.092   2.754  0.2982  0.2753  1.4239
  973MOL0     H28404   0.950  11.209   2.592  0.0950 -0.8390  1.2292
  973MOL0     H28405   1.038  11.362   2.616 -0.5544  2.2643  2.7451
  973MOL0     H28406   0.963  11.350   2.870 -1.6533  0.0362  1.1198
  973MOL0     H28407   0.847  11.218   2.815 -0.4604  0.2515  1.5151
  973MOL0     H28408   0.864  11.502   2.737  0.9731 -1.1912  3.3291
  973MOL0     H28409   0.762  11.394   2.634 -1.1491 -1.5476  0.1814
  973MOL0     H28410   0.656  11.569   2.780  2.0228  0.9463  0.3030
  973MOL0     H28411   0.695  11.459   2.923  0.7517  0.0327  0.1881
  973MOL0     H28412   0.466  11.432   2.851  2.0977  0.7301  1.0272
  973MOL0     H28413   0.565  11.284   2.814 -2.3404 -0.9256 -0.3556
  973MOL0     H28414   0.431  11.497   2.628  0.3682  0.7204 -1.2942
  973MOL0     H28415   0.543  11.393   2.558 -1.5224  1.8167 -0.5595
  973MOL0     H28416   0.292  11.309   2.718 -1.0418  1.6282 -0.6956
  973MOL0     H28417   0.409  11.192   2.647 -2.1894 -1.2818 -1.0944
  973MOL0     H28418   1.392  11.162   2.469  2.4538 -1.1043 -1.7345
  973MOL0     H28419   1.625  11.071   2.495  1.4359  2.5860  0.4993
  973MOL0     H28420   1.918  10.704   2.957 -0.3343  1.0782  0.3418
  973MOL0     H28421   2.137  10.625   2.904  1.0548  0.4482  0.6865
  973MOL0     H28422   2.856  10.601   3.932 -0.3903  0.1886  2.1071
  973MOL0     H28423   2.622  10.642   4.031 -0.1830  0.8854  0.2679
  973MOL0     H28424   2.154  10.771   3.994  0.1913 -1.6307  1.0173
  973MOL0     H28425   1.963  10.815   4.140  0.9175 -0.3856 -1.0904
  973MOL0     H28426   1.834  10.867   4.279 -0.1633  0.0493  2.0656
  973MOL0     H28427   1.835  11.038   4.316 -1.1236  0.3430  1.0348
  973MOL0     H28428   1.756  10.804   4.484 -0.0940 -0.3891 -3.0559
  973MOL0     H28429   1.766  10.964   4.560  2.6008  0.4378 -1.2314
  973MOL0     H28430   1.579  10.958   4.317 -1.9469 -0.1656 -0.2055
  973MOL0     H28431   1.600  11.061   4.461 -0.3729  0.5127  0.3575
  973MOL0     H28432   1.525  10.758   4.467  0.1012 -0.1016 -2.5207
  973MOL0     H28433   1.510  10.880   4.595 -1.6851  0.3391  0.1189
  973MOL0     H28434   1.155  10.994   4.385 -2.7736 -2.0299  2.4896
  973MOL0     H28435   2.226  10.937   4.454 -1.1290  2.2618 -0.3916
  973MOL0     H28436   2.416  10.913   4.305  2.7449 -0.9941 -4.1937
  974MOL0     O28437   5.344   3.992   4.700  0.1253 -0.3933  0.3799
  974MOL0     C28438   5.331   3.866   4.683  0.1280 -0.1134  0.6127
  974MOL0     O28439   5.210   3.800   4.701  0.0987 -0.2577 -0.3506
  974MOL0     C28440   5.094   3.868   4.744 -1.0523 -1.0241  0.2379
  974MOL0     C28441   5.056   3.861   4.879  0.2603  0.4351  0.5601
  974MOL0     C28442   4.925   3.892   4.913  0.1588 -0.4167 -0.3083
  974MOL0     C28443   4.835   3.940   4.822 -0.4331  0.2453 -0.7661
  974MOL0     O28444   4.708   3.958   4.862 -0.5883 -0.4469 -0.0225
  974MOL0     C28445   4.595   3.958   4.771 -0.4759  0.3188  0.0869
  974MOL0     C28446   4.489   3.878   4.830 -0.6688  0.1335  0.2226
  974MOL0     C28447   4.343   3.927   4.799  1.2381 -0.3740  0.6326
  974MOL0     C28448   4.251   3.881   4.917  0.1773  0.2687  0.6906
  974MOL0     C28449   4.115   3.935   4.893 -0.2057 -0.6338 -0.0652
  974MOL0     C28450   4.034   3.927   5.022  0.5201 -0.2770  0.7984
  974MOL0     C28451   3.876   3.934   5.001  0.3961  0.3457  0.8066
  974MOL0     C28452   3.824   3.802   4.949 -0.4529 -0.4594 -0.8617
  974MOL0     N28453   3.678   3.798   4.965 -0.2489  0.3904 -0.4949
  974MOL0     C28454   3.607   3.677   4.987  0.8283 -0.1058 -0.3880
  974MOL0     C28455   3.475   3.698   4.957  0.1193 -0.5495 -0.3688
  974MOL0     C28456   3.379   3.590   4.983 -0.0575  0.6538 -0.0036
  974MOL0     C28457   3.245   3.642   5.047 -0.6142  0.3908 -0.2909
  974MOL0     C28458   3.146   3.529   5.092  1.5006 -0.4110  0.7263
  974MOL0     C28459   3.012   3.602   5.127 -0.1149 -0.0945 -0.3180
  974MOL0     O28460   2.938   3.638   5.010  0.5317 -0.0394  0.8105
  974MOL0     C28461   2.798   3.664   5.009 -0.5453 -0.9696 -0.3105
  974MOL0     C28462   2.733   3.699   4.891  0.0606  0.6662 -0.0559
  974MOL0     C28463   2.598   3.721   4.889  0.1683 -0.2333  0.0780
  974MOL0     C28464   2.517   3.721   5.001  0.0974 -0.2402 -0.4090
  974MOL0     C28465   2.365   3.738   4.986 -0.5321  0.6970 -0.1162
  974MOL0     O28466   2.291   3.754   5.099  0.1377 -0.1009 -0.1022
  974MOL0     C28467   2.161   3.722   5.087  0.1115  0.9351  0.5869
  974MOL0     C28468   2.084   3.828   5.134 -0.6137  1.1857 -0.2953
  974MOL0     C28469   1.945   3.805   5.163 -0.4531 -0.8987  0.2561
  974MOL0     C28470   1.888   3.687   5.147 -0.2932 -0.1310 -0.2189
  974MOL0     O28471   1.761   3.679   5.193  0.0029 -0.7001 -0.1076
  974MOL0     C28472   1.679   3.561   5.182  0.6105  0.3593 -0.6690
  974MOL0     C28473   1.533   3.602   5.229 -0.5387  0.1818 -0.5232
  974MOL0     C28474   1.519   3.650   5.370  0.8927 -0.0246 -0.9945
  974MOL0     C28475   1.370   3.672   5.403 -0.9111  0.0049  0.2119
  974MOL0     C28476   1.348   3.722   5.549 -0.4912  0.1649  0.4677
  974MOL0     C28477   1.201   3.760   5.573  0.1082  0.1244 -0.1198
  974MOL0     C28478   1.104   3.648   5.551  0.7460  0.5677 -1.0352
  974MOL0     C28479   0.968   3.695   5.606  0.5425 -0.3351 -0.3439
  974MOL0    Cl28480   0.920   3.820   5.485  0.1385  0.1923  0.3400
  974MOL0     C28481   1.962   3.589   5.075  0.9666  0.0452 -0.2638
  974MOL0     C28482   2.101   3.600   5.054 -0.1125  0.5601 -0.1076
  974MOL0     O28483   2.312   3.722   4.876  0.4444 -0.3840  0.3169
  974MOL0     C28484   2.576   3.708   5.129  0.4085  0.9196 -0.2033
  974MOL0     C28485   2.714   3.684   5.127  0.2038  0.4084  0.1032
  974MOL0     N28486   3.475   3.831   4.910  0.0394  0.4289  0.2252
  974MOL0     N28487   3.590   3.886   4.907 -0.1676  0.2273  0.0098
  974MOL0     C28488   4.875   3.967   4.698 -0.5816 -0.3601 -0.1673
  974MOL0     C28489   5.006   3.938   4.657  0.1497  0.3590 -0.4880
  974MOL0     C28490   5.451   3.793   4.636  0.4540 -0.6085 -0.3356
  974MOL0     C28491   5.455   3.655   4.630 -0.3051  0.7859 -0.1178
  974MOL0     C28492   5.568   3.586   4.580  0.5418  0.4460 -0.6369
  974MOL0     C28493   5.689   3.657   4.548 -0.7267  0.9237 -0.8102
  974MOL0     O28494   5.793   3.577   4.526  0.5306 -0.2064  0.0380
  974MOL0     C28495   5.923   3.638   4.508 -0.2019  0.1742  0.4688
  974MOL0     C28496   6.036   3.530   4.498  0.8686  0.0993 -0.4195
  974MOL0     C28497   5.995   3.446   4.377 -0.4245  0.0804 -0.5543
  974MOL0     C28498   6.118   3.354   4.340  0.1842  0.3986  0.0027
  974MOL0     C28499   6.209   3.433   4.258 -0.7381 -0.2700 -0.7916
  974MOL0     C28500   6.285   3.498   4.184  0.2098 -0.0311 -0.1463
  974MOL0     C28501   5.681   3.790   4.568  0.7729  0.3103 -0.4664
  974MOL0     C28502   5.571   3.858   4.613  0.6271 -0.0530  0.4566
  974MOL0     H28503   5.122   3.820   4.954  0.7539  1.0000  0.4499
  974MOL0     H28504   4.899   3.875   5.017 -0.2609  0.9623 -0.1674
  974MOL0     H28505   4.616   3.899   4.681  0.0878 -0.5304  0.7700
  974MOL0     H28506   4.561   4.059   4.743 -1.3128 -0.2924 -1.2129
  974MOL0     H28507   4.515   3.873   4.936  1.6111  2.1124 -0.1408
  974MOL0     H28508   4.494   3.782   4.779 -0.6146 -0.7335  1.8129
  974MOL0     H28509   4.313   3.886   4.702  2.3220  0.0260  0.1083
  974MOL0     H28510   4.339   4.036   4.795 -3.6651 -0.3684  0.3590
  974MOL0     H28511   4.245   3.772   4.924  1.0944  0.0978 -0.6312
  974MOL0     H28512   4.293   3.915   5.012 -0.5292  1.4730  0.5894
  974MOL0     H28513   4.076   3.871   4.813  0.7675 -1.0514 -0.2158
  974MOL0     H28514   4.107   4.036   4.850 -0.9021 -0.6107  0.0998
  974MOL0     H28515   4.077   4.014   5.073 -0.4889  0.0973  1.0439
  974MOL0     H28516   4.056   3.840   5.084 -0.8462 -1.4067 -0.2569
  974MOL0     H28517   3.812   3.953   5.088 -3.6176 -0.9351 -1.6255
  974MOL0     H28518   3.853   4.004   4.920 -3.1378 -0.1186  1.2632
  974MOL0     H28519   3.861   3.719   5.011 -2.6410 -3.2484 -3.0327
  974MOL0     H28520   3.853   3.779   4.846 -1.0275  2.5218 -1.7715
  974MOL0     H28521   3.647   3.583   5.026 -2.3084 -0.9716  1.0940
  974MOL0     H28522   3.407   3.516   5.059 -1.4071 -1.2232 -1.2552
  974MOL0     H28523   3.373   3.533   4.890  1.2664 -1.6870  1.2591
  974MOL0     H28524   3.200   3.718   4.982  0.1172  1.1680  0.0995
  974MOL0     H28525   3.275   3.693   5.139 -0.1036  1.2841 -0.9347
  974MOL0     H28526   3.131   3.465   5.005  2.3218  0.8545 -0.3809
  974MOL0     H28527   3.185   3.478   5.181 -2.6909 -1.2668  2.3031
  974MOL0     H28528   3.035   3.692   5.184  0.5994 -0.7334  0.4506
  974MOL0     H28529   2.953   3.537   5.193 -1.6469 -1.3698 -2.7840
  974MOL0     H28530   2.782   3.701   4.794  0.1889  0.3392  0.0008
  974MOL0     H28531   2.548   3.736   4.794  2.4568 -0.2433 -1.2132
  974MOL0     H28532   2.115   3.927   5.166  1.2396  0.4060  0.4392
  974MOL0     H28533   1.881   3.884   5.202 -0.2555 -0.8109  0.4065
  974MOL0     H28534   1.720   3.483   5.248  1.1566  0.3270 -1.0429
  974MOL0     H28535   1.673   3.530   5.078  1.6974  0.5887 -0.8114
  974MOL0     H28536   1.472   3.512   5.211  1.0318 -0.7447 -1.5225
  974MOL0     H28537   1.511   3.683   5.159 -0.6496 -0.6465 -1.4762
  974MOL0     H28538   1.572   3.744   5.386 -0.0666  0.3726  0.0844
  974MOL0     H28539   1.552   3.575   5.443  0.0438  1.4511  1.0000
  974MOL0     H28540   1.338   3.751   5.335  1.6636  0.5020 -0.5208
  974MOL0     H28541   1.316   3.582   5.372  0.7018 -1.0605  0.3725
  974MOL0     H28542   1.414   3.803   5.580 -0.9217  0.9029 -0.5030
  974MOL0     H28543   1.374   3.635   5.610  0.7424  0.6322  0.6446
  974MOL0     H28544   1.162   3.845   5.516 -1.1783 -1.7844 -2.2675
  974MOL0     H28545   1.210   3.785   5.679  1.9850 -1.5076  0.1569
  974MOL0     H28546   1.102   3.618   5.446  2.1091  0.7641 -1.1357
  974MOL0     H28547   1.125   3.552   5.600  0.8668  1.1312  0.0368
  974MOL0     H28548   0.973   3.729   5.710 -1.1307  1.2780 -0.7542
  974MOL0     H28549   0.893   3.615   5.604 -0.1157  0.2782 -1.6400
  974MOL0     H28550   1.915   3.497   5.040  1.1771  0.8386 -2.9114
  974MOL0     H28551   2.156   3.514   5.016  0.0618  0.8734 -0.5690
  974MOL0     H28552   2.509   3.714   5.213  1.1860  0.2503  0.4892
  974MOL0     H28553   2.773   3.682   5.218  1.7380  2.5156 -0.7427
  974MOL0     H28554   4.809   4.019   4.629  1.6229  0.7743 -1.5509
  974MOL0     H28555   5.034   3.976   4.559  1.4502  1.1689  0.1795
  974MOL0     H28556   5.370   3.597   4.664  1.2306 -1.0556  0.7985
  974MOL0     H28557   5.559   3.478   4.580  3.1024  0.1488  1.3416
  974MOL0     H28558   5.949   3.713   4.584  0.6085  1.4913 -1.0554
  974MOL0     H28559   5.917   3.686   4.410  1.4974 -4.2051 -2.0396
  974MOL0     H28560   6.132   3.583   4.487  0.4954  1.1662  1.0957
  974MOL0     H28561   6.027   3.468   4.587  0.4360 -0.2427 -0.6961
  974MOL0     H28562   5.968   3.518   4.300  1.2931  1.7453  0.3009
  974MOL0     H28563   5.907   3.382   4.386  0.2073 -1.1003 -2.2693
  974MOL0     H28564   6.174   3.332   4.432  1.8363  0.9562 -0.8340
  974MOL0     H28565   6.100   3.264   4.281  0.4380  1.4456 -1.7224
  974MOL0     H28566   6.337   3.574   4.129 -1.9399  1.9575  0.3911
  974MOL0     H28567   5.768   3.852   4.547 -0.0347  0.9236 -2.1812
  974MOL0     H28568   5.576   3.963   4.638  0.7923 -0.4235  2.1361
  975MOL0     O28569   8.553   4.917   9.149 -0.3128  0.3502  0.6509
  975MOL0     C28570   8.547   4.930   9.029  0.6648  0.1498 -0.3981
  975MOL0     O28571   8.441   4.992   8.968  0.5037 -0.3305  0.8407
  975MOL0     C28572   8.333   5.037   9.041  0.1262  0.5404  1.3365
  975MOL0     C28573   8.338   5.162   9.109  0.0749  0.1252 -0.0385
  975MOL0     C28574   8.225   5.218   9.182 -0.3054 -0.0398 -0.6243
  975MOL0     C28575   8.116   5.134   9.196  0.1535 -0.9184 -0.4146
  975MOL0     O28576   8.011   5.189   9.266 -0.3010  0.1407  0.0057
  975MOL0     C28577   7.874   5.143   9.238  0.0499 -1.0733  0.3107
  975MOL0     C28578   7.776   5.252   9.274 -0.4372  0.0477 -0.1030
  975MOL0     C28579   7.632   5.201   9.279  0.8867  0.2423  0.4104
  975MOL0     C28580   7.540   5.310   9.340  0.5866 -0.0302  0.2302
  975MOL0     C28581   7.434   5.258   9.433  0.4012 -0.6263  0.2421
  975MOL0     C28582   7.336   5.166   9.361 -0.7508 -0.4592  0.8342
  975MOL0     C28583   7.210   5.159   9.444  0.0995  0.7127  0.3562
  975MOL0     C28584   7.233   5.099   9.582 -0.0270 -0.4763  0.4696
  975MOL0     N28585   7.098   5.086   9.641 -0.3897  0.7800  0.6296
  975MOL0     C28586   7.021   4.979   9.646  0.8398  0.1744  0.7432
  975MOL0     C28587   6.932   4.992   9.746 -0.2788 -0.2603 -0.0979
  975MOL0     C28588   6.816   4.895   9.783  0.2165 -0.4126 -0.7758
  975MOL0     C28589   6.701   4.975   9.842 -0.3432 -0.6857 -0.1723
  975MOL0     C28590   6.583   4.882   9.854 -0.5683 -0.3515  0.5706
  975MOL0     C28591   6.449   4.954   9.887 -0.8485  0.2177 -0.8463
  975MOL0     O28592   6.341   4.863   9.886  0.2947  0.0841  0.3164
  975MOL0     C28593   6.216   4.924   9.888 -0.6597  0.7620 -0.9038
  975MOL0     C28594   6.184   5.056   9.921  0.0860  0.0843  0.3801
  975MOL0     C28595   6.057   5.095   9.934  0.0558 -0.1075 -0.3103
  975MOL0     C28596   5.944   5.014   9.898 -0.7221  0.0113 -0.3635
  975MOL0     C28597   5.798   5.052   9.880  0.5150  0.2808 -0.3368
  975MOL0     O28598   5.708   4.957   9.883  0.5553 -0.1617 -0.4020
  975MOL0     C28599   5.574   4.981   9.882 -0.0729 -0.9673  0.1664
  975MOL0     C28600   5.509   5.087   9.820 -0.3159  0.3846 -0.2834
  975MOL0     C28601   5.369   5.101   9.825  0.2070 -0.1543 -0.0158
  975MOL0     C28602   5.294   5.012   9.896  0.3287 -0.4115  0.0699
  975MOL0     O28603   5.154   5.019   9.908 -0.1377 -0.0715 -0.5798
  975MOL0     C28604   5.081   5.146   9.881 -0.4301 -0.7481  0.3804
  975MOL0     C28605   4.940   5.117   9.922  0.1821 -1.0325  0.2146
  975MOL0     C28606   4.855   5.235   9.895  0.0451 -0.0548 -0.5596
  975MOL0     C28607   4.710   5.210   9.930 -0.1812  0.9365  0.3998
  975MOL0     C28608   4.628   5.334   9.925 -0.5013 -0.1746  0.3288
  975MOL0     C28609   4.511   5.331  10.022 -0.5214  0.2779  0.3604
  975MOL0     C28610   4.443   5.470  10.025 -0.4506 -0.0317 -0.7165
  975MOL0     C28611   4.305   5.469  10.085  0.0239 -0.8661  0.4850
  975MOL0    Cl28612   4.183   5.379   9.994  0.1401 -0.6519  0.0832
  975MOL0     C28613   5.360   4.897   9.945 -0.1655 -0.4576 -0.4224
  975MOL0     C28614   5.504   4.877   9.934 -0.4647  0.1440 -0.0871
  975MOL0     O28615   5.777   5.176   9.895  0.8174  0.8782 -0.2449
  975MOL0     C28616   5.972   4.878   9.874 -0.2721 -0.4142 -0.6393
  975MOL0     C28617   6.103   4.836   9.871  0.2493  0.3210  0.0441
  975MOL0     N28618   6.946   5.115   9.805  0.3072  0.3685  0.4566
  975MOL0     N28619   7.057   5.164   9.745 -0.0247  1.0900  0.3531
  975MOL0     C28620   8.109   5.005   9.129  0.0037  1.2275  0.1631
  975MOL0     C28621   8.213   4.958   9.058 -0.0704 -0.3929  0.5627
  975MOL0     C28622   8.663   4.889   8.947 -0.5730 -0.1454 -0.4197
  975MOL0     C28623   8.787   4.859   9.006  0.2879 -0.3603 -0.1284
  975MOL0     C28624   8.897   4.810   8.936  0.7194 -0.2550  0.0911
  975MOL0     C28625   8.886   4.794   8.801  0.3416  0.3951 -0.6627
  975MOL0     O28626   8.992   4.765   8.735 -0.6841  0.2529 -0.1830
  975MOL0     C28627   8.981   4.760   8.587  0.3202  0.7663 -0.0372
  975MOL0     C28628   9.120   4.731   8.525  0.8050 -0.1135 -0.0617
  975MOL0     C28629   9.165   4.592   8.573  0.2734  0.3712  0.4482
  975MOL0     C28630   9.315   4.555   8.564 -0.2746  0.3841  0.0004
  975MOL0     C28631   9.366   4.545   8.432  1.8653 -0.9728  0.0041
  975MOL0     C28632   9.403   4.526   8.318  0.3462  0.0912  0.0669
  975MOL0     C28633   8.754   4.812   8.750  0.3862 -0.0043  0.1910
  975MOL0     C28634   8.646   4.858   8.815  0.3734 -0.1617 -0.4240
  975MOL0     H28635   8.432   5.214   9.094  0.2731 -0.0944  0.4017
  975MOL0     H28636   8.219   5.320   9.218 -0.7420 -0.1408 -0.4002
  975MOL0     H28637   7.846   5.047   9.282 -2.3057 -0.2600  0.7736
  975MOL0     H28638   7.870   5.138   9.129  1.2699 -0.4924  0.2279
  975MOL0     H28639   7.804   5.331   9.204  3.0516 -1.2892 -0.4318
  975MOL0     H28640   7.795   5.287   9.376 -3.6584  0.8146  0.3336
  975MOL0     H28641   7.609   5.110   9.335 -2.4731  0.6389 -0.0950
  975MOL0     H28642   7.595   5.191   9.176 -2.1293  0.9798  1.3323
  975MOL0     H28643   7.605   5.378   9.397  1.1323 -1.3720  1.2741
  975MOL0     H28644   7.494   5.374   9.264 -0.1897  1.0319  1.5358
  975MOL0     H28645   7.375   5.347   9.456 -0.8255 -1.2110 -0.5618
  975MOL0     H28646   7.479   5.208   9.519 -1.6037 -0.2989  1.5259
  975MOL0     H28647   7.381   5.068   9.342  1.5949  0.5515  0.7422
  975MOL0     H28648   7.310   5.204   9.261  1.1710 -1.6174 -0.1835
  975MOL0     H28649   7.167   5.259   9.455 -0.1154  0.6408  0.1678
  975MOL0     H28650   7.132   5.110   9.386  1.2053 -0.7190  0.0338
  975MOL0     H28651   7.293   5.164   9.646  2.7854 -1.6328 -0.8249
  975MOL0     H28652   7.268   4.996   9.569  1.1908 -0.1661  1.1326
  975MOL0     H28653   7.017   4.903   9.569  0.6052  2.4762 -1.6486
  975MOL0     H28654   6.845   4.815   9.851 -2.7090  0.4797  1.7234
  975MOL0     H28655   6.776   4.854   9.689  0.0821  0.2708 -1.0230
  975MOL0     H28656   6.680   5.064   9.782  1.3225  0.8262  1.3657
  975MOL0     H28657   6.734   5.014   9.938 -3.6057  1.8682  0.0741
  975MOL0     H28658   6.566   4.827   9.761 -0.8301 -1.9395  1.5134
  975MOL0     H28659   6.610   4.807   9.930  0.0161 -0.4951  0.2304
  975MOL0     H28660   6.446   5.046   9.828  3.5406  1.2526  0.1605
  975MOL0     H28661   6.465   4.995   9.987 -0.4970  2.4680 -1.7636
  975MOL0     H28662   6.270   5.121   9.926 -0.1178  0.2917  1.4883
  975MOL0     H28663   6.045   5.199   9.959  0.3229 -0.0321 -0.4901
  975MOL0     H28664   5.565   5.169   9.776  1.2899  1.2386  3.0502
  975MOL0     H28665   5.323   5.178   9.763 -0.2803 -0.9511 -0.6552
  975MOL0     H28666   5.091   5.171   9.775  0.3700  1.1341  0.8552
  975MOL0     H28667   5.120   5.238   9.926  1.0892  1.0177 -3.9620
  975MOL0     H28668   4.942   5.104  10.031 -0.8554  3.6552  0.9851
  975MOL0     H28669   4.908   5.027   9.869 -0.1903 -1.0803  0.5155
  975MOL0     H28670   4.863   5.267   9.790 -0.5805 -0.6284 -0.7947
  975MOL0     H28671   4.891   5.322   9.949 -0.0054 -1.2383  1.4646
  975MOL0     H28672   4.667   5.133   9.865 -0.9690  1.4023  0.3536
  975MOL0     H28673   4.701   5.177  10.034 -0.8792  0.6504  0.2564
  975MOL0     H28674   4.593   5.369   9.828 -0.7091  1.8933  1.0951
  975MOL0     H28675   4.690   5.423   9.941 -1.2666  1.0724 -2.8964
  975MOL0     H28676   4.545   5.309  10.123 -1.2202  3.7116  1.4992
  975MOL0     H28677   4.442   5.258   9.980 -1.1431  1.8788 -1.5701
  975MOL0     H28678   4.511   5.531  10.085 -0.8065  0.1248 -0.4707
  975MOL0     H28679   4.437   5.508   9.922 -0.5519 -0.5977 -0.9213
  975MOL0     H28680   4.268   5.572  10.083 -0.6596 -1.1181 -0.6040
  975MOL0     H28681   4.313   5.440  10.190 -0.0880  1.5897  1.2336
  975MOL0     H28682   5.305   4.816   9.992  1.4346 -1.8433 -0.8359
  975MOL0     H28683   5.539   4.778   9.962  1.7014  0.3137 -1.9554
  975MOL0     H28684   5.887   4.810   9.863 -0.4210 -0.8279  2.3435
  975MOL0     H28685   6.113   4.733   9.841  2.4039  0.6473 -0.4981
  975MOL0     H28686   8.016   4.949   9.132  0.5634  0.1824 -1.0320
  975MOL0     H28687   8.201   4.872   8.994  1.2154  1.7001 -2.7600
  975MOL0     H28688   8.807   4.873   9.112  0.1866  1.2258 -0.3033
  975MOL0     H28689   8.996   4.789   8.976  1.4567  0.0552 -1.4880
  975MOL0     H28690   8.941   4.851   8.543 -1.7576  0.9067  1.9327
  975MOL0     H28691   8.916   4.679   8.552  0.3959  0.5223  0.3743
  975MOL0     H28692   9.106   4.727   8.417  1.9360 -2.6189 -0.1901
  975MOL0     H28693   9.186   4.815   8.550 -1.5547  2.0892 -0.8045
  975MOL0     H28694   9.108   4.513   8.525  1.9691  0.0787 -1.1799
  975MOL0     H28695   9.140   4.579   8.679  1.1156 -1.8871  0.4075
  975MOL0     H28696   9.378   4.625   8.620  1.4191 -0.9604 -0.1492
  975MOL0     H28697   9.324   4.455   8.606  1.2294  1.2576  1.9638
  975MOL0     H28698   9.436   4.510   8.217 -1.8308 -2.6333 -0.3236
  975MOL0     H28699   8.731   4.798   8.645  3.6108  2.2318 -0.9816
  975MOL0     H28700   8.551   4.891   8.774 -0.6450 -0.0133  1.9000
  976MOL0     O28701   6.994   1.265   7.430 -0.0628 -0.3425 -0.4924
  976MOL0     C28702   6.987   1.376   7.396 -0.8845 -0.5705  0.3539
  976MOL0     O28703   6.871   1.444   7.379  0.2234  0.7586 -0.3909
  976MOL0     C28704   6.752   1.382   7.418  0.8475  0.2276  0.0644
  976MOL0     C28705   6.647   1.368   7.324 -0.2812  0.4346  0.3375
  976MOL0     C28706   6.532   1.300   7.349 -0.3987  0.0177  0.0016
  976MOL0     C28707   6.502   1.255   7.477 -0.6766 -0.1935 -0.3846
  976MOL0     O28708   6.396   1.171   7.489  0.6500 -0.0051  0.2688
  976MOL0     C28709   6.444   1.042   7.468  0.0630  0.1840  0.0877
  976MOL0     C28710   6.349   0.930   7.511  0.1728  0.0662  0.3770
  976MOL0     C28711   6.413   0.795   7.541  0.6238  0.6090  0.6297
  976MOL0     C28712   6.525   0.752   7.436 -0.0723 -0.2585 -0.8947
  976MOL0     C28713   6.469   0.744   7.292 -0.3937 -0.7836 -0.4593
  976MOL0     C28714   6.429   0.606   7.257 -0.4070  0.4010  0.0011
  976MOL0     C28715   6.281   0.576   7.288  0.3840  0.1380 -0.0661
  976MOL0     C28716   6.249   0.428   7.261  0.7314  0.7968 -0.2186
  976MOL0     N28717   6.256   0.382   7.122 -0.1105  1.0419 -0.1351
  976MOL0     C28718   6.252   0.247   7.094  1.5827 -0.0283 -0.2700
  976MOL0     C28719   6.226   0.242   6.957  0.3241  0.1312 -0.7101
  976MOL0     C28720   6.220   0.113   6.874 -0.0816  0.0436  0.4540
  976MOL0     C28721   6.079   0.076   6.817 -1.1293  0.5417 -0.5353
  976MOL0     C28722   5.994   0.022   6.941 -0.1958 -0.1960 -0.1027
  976MOL0     C28723   5.851  -0.018   6.893  0.0612 -0.6290 -0.4028
  976MOL0     O28724   5.851  -0.094   6.763 -0.4289 -0.1898 -0.0828
  976MOL0     C28725   5.742  -0.164   6.732  0.3812  0.3029  0.1060
  976MOL0     C28726   5.635  -0.187   6.818  0.4538 -0.0575 -0.0631
  976MOL0     C28727   5.530  -0.276   6.776 -0.3299  0.4524 -0.0984
  976MOL0     C28728   5.529  -0.329   6.650 -0.1983 -0.3601 -0.1095
  976MOL0     C28729   5.416  -0.412   6.615  0.7749  0.2338  0.6636
  976MOL0     O28730   5.317  -0.437   6.710  0.0590  0.6963  0.2653
  976MOL0     C28731   5.209  -0.518   6.683 -0.2958 -0.5147 -0.3986
  976MOL0     C28732   5.094  -0.504   6.773 -0.4503  0.0663  0.3478
  976MOL0     C28733   4.982  -0.580   6.763  0.6097  0.8940 -0.1858
  976MOL0     C28734   4.970  -0.670   6.661 -1.1116  0.2877 -0.1177
  976MOL0     O28735   4.864  -0.756   6.639 -0.6643 -0.5592 -0.0692
  976MOL0     C28736   4.757  -0.747   6.736 -0.4149  0.0662  0.3763
  976MOL0     C28737   4.650  -0.859   6.705 -0.5368 -0.3649  0.2940
  976MOL0     C28738   4.525  -0.829   6.787  0.4328 -0.1867 -0.1956
  976MOL0     C28739   4.409  -0.912   6.739  0.4072  0.0586  0.0736
  976MOL0     C28740   4.282  -0.873   6.811  0.0736 -0.0644  0.3453
  976MOL0     C28741   4.169  -0.975   6.791 -0.3438 -0.2144 -0.4685
  976MOL0     C28742   4.101  -0.994   6.651 -0.2757 -0.2766  0.2772
  976MOL0     C28743   4.007  -1.111   6.657 -1.1004  0.2634  0.5906
  976MOL0    Cl28744   3.865  -1.078   6.760  0.5450  0.3014  0.4348
  976MOL0     C28745   5.071  -0.686   6.568 -0.0505 -0.4422 -0.6508
  976MOL0     C28746   5.192  -0.617   6.581  0.2870 -0.0534 -0.6644
  976MOL0     O28747   5.419  -0.456   6.504  0.8712  0.0485 -0.4968
  976MOL0     C28748   5.639  -0.308   6.559  0.7033 -0.5967 -0.0193
  976MOL0     C28749   5.740  -0.230   6.607  0.5767  0.7262 -0.3371
  976MOL0     N28750   6.223   0.376   6.912  0.4553  0.3657 -0.4549
  976MOL0     N28751   6.237   0.462   7.011 -0.1843 -0.1476  0.6988
  976MOL0     C28752   6.598   1.278   7.583 -0.2896 -0.0944 -0.3158
  976MOL0     C28753   6.727   1.337   7.550  0.6582 -0.2765 -0.3828
  976MOL0     C28754   7.123   1.442   7.381 -0.3286  0.5032 -0.8337
  976MOL0     C28755   7.246   1.371   7.391  0.8757 -0.9365 -0.8961
  976MOL0     C28756   7.368   1.441   7.372  0.9589  0.2902  0.0847
  976MOL0     C28757   7.368   1.581   7.340 -0.3937 -0.9475  0.5329
  976MOL0     O28758   7.477   1.652   7.301 -0.7327  0.5164  0.3835
  976MOL0     C28759   7.611   1.590   7.274  0.5018 -0.4509 -0.1755
  976MOL0     C28760   7.618   1.516   7.146  0.2190 -0.1665 -0.4850
  976MOL0     C28761   7.765   1.496   7.095  0.2424 -0.5144  0.0196
  976MOL0     C28762   7.821   1.618   7.021  0.0866  0.2381 -0.7737
  976MOL0     C28763   7.933   1.593   6.940 -0.4882 -0.0795 -0.9158
  976MOL0     C28764   8.016   1.570   6.850 -0.0981 -0.0397 -0.4678
  976MOL0     C28765   7.252   1.650   7.343 -0.3827  0.6840 -0.8797
  976MOL0     C28766   7.132   1.581   7.358  0.9512  0.0872  0.0652
  976MOL0     H28767   6.660   1.410   7.225 -0.4226  0.6013  0.3892
  976MOL0     H28768   6.464   1.286   7.267  0.7990  1.9889 -1.4307
  976MOL0     H28769   6.529   1.029   7.536 -0.4357  0.6371  0.8158
  976MOL0     H28770   6.463   1.026   7.362 -1.8117  2.5758 -0.6921
  976MOL0     H28771   6.277   0.926   7.429  2.0861 -1.9870 -1.3489
  976MOL0     H28772   6.292   0.955   7.600 -1.6472  2.1117 -1.2655
  976MOL0     H28773   6.341   0.713   7.553 -1.2302  2.1934  0.9552
  976MOL0     H28774   6.456   0.794   7.642  0.8830 -0.5513  0.5183
  976MOL0     H28775   6.611   0.819   7.441  1.0917 -1.7683  1.2949
  976MOL0     H28776   6.570   0.656   7.462  0.9911  0.2057 -0.9369
  976MOL0     H28777   6.548   0.769   7.220 -0.6517  1.4413 -0.0315
  976MOL0     H28778   6.390   0.817   7.273  0.3600  0.3938  0.7954
  976MOL0     H28779   6.487   0.525   7.302 -0.9396  0.7346  1.3256
  976MOL0     H28780   6.451   0.586   7.152  1.9219  1.8319  0.1455
  976MOL0     H28781   6.271   0.590   7.396  0.2999  1.4077 -0.2159
  976MOL0     H28782   6.219   0.646   7.231 -0.2593 -1.0156 -0.8303
  976MOL0     H28783   6.144   0.419   7.288  1.0491 -1.0818  0.6147
  976MOL0     H28784   6.310   0.365   7.326  1.8845 -0.0641 -2.0466
  976MOL0     H28785   6.273   0.165   7.162 -2.1394 -0.2435  0.8489
  976MOL0     H28786   6.249   0.033   6.943  0.1509 -0.4122 -0.1652
  976MOL0     H28787   6.284   0.119   6.786 -1.4572  2.4217 -0.4779
  976MOL0     H28788   6.083  -0.010   6.750 -2.5131 -2.6889  3.1727
  976MOL0     H28789   6.038   0.163   6.764 -1.5640  0.2255 -0.7194
  976MOL0     H28790   6.035  -0.075   6.968 -0.6925 -0.0934  1.1050
  976MOL0     H28791   6.006   0.086   7.030 -0.6185 -2.6553  1.8348
  976MOL0     H28792   5.783   0.068   6.883 -1.4349 -1.7404 -0.2163
  976MOL0     H28793   5.821  -0.088   6.972  0.6908  0.7953  1.1433
  976MOL0     H28794   5.641  -0.144   6.917  4.7407  0.6639 -0.4473
  976MOL0     H28795   5.454  -0.289   6.853  2.3009  2.1834  3.0395
  976MOL0     H28796   5.090  -0.436   6.857 -4.3704  1.8963 -1.0781
  976MOL0     H28797   4.912  -0.567   6.845  1.3534  3.2446  0.1595
  976MOL0     H28798   4.722  -0.644   6.730 -1.6218 -0.4389 -2.8864
  976MOL0     H28799   4.802  -0.760   6.835  1.5788  0.8938 -0.3748
  976MOL0     H28800   4.691  -0.957   6.729 -1.6970 -2.2834 -4.4505
  976MOL0     H28801   4.607  -0.855   6.605 -1.3148 -0.9897  0.6004
  976MOL0     H28802   4.497  -0.723   6.791  1.9541  0.2122  1.6769
  976MOL0     H28803   4.546  -0.846   6.893  1.7117  0.0302 -0.3957
  976MOL0     H28804   4.386  -0.906   6.632 -0.9383  0.0557  0.3505
  976MOL0     H28805   4.431  -1.018   6.755 -0.2564 -0.9024 -4.0870
  976MOL0     H28806   4.250  -0.777   6.770  1.2166  0.6292  1.0319
  976MOL0     H28807   4.295  -0.869   6.919 -4.7944  1.0349  1.1399
  976MOL0     H28808   4.102  -0.946   6.873 -1.4023 -0.1921 -1.3103
  976MOL0     H28809   4.216  -1.070   6.817 -2.0307 -1.0221 -0.2587
  976MOL0     H28810   4.027  -0.915   6.633 -3.7010 -3.5338 -1.1242
  976MOL0     H28811   4.182  -0.995   6.578 -0.8893 -1.7643 -0.4084
  976MOL0     H28812   4.050  -1.198   6.708 -0.1190 -0.2555 -1.0364
  976MOL0     H28813   3.994  -1.142   6.553  2.3650  0.1212  0.0652
  976MOL0     H28814   5.054  -0.751   6.483  2.1450 -1.4127 -0.4003
  976MOL0     H28815   5.261  -0.642   6.502  1.7398  1.2731  0.1170
  976MOL0     H28816   5.627  -0.356   6.462  0.9176 -3.2166  1.1540
  976MOL0     H28817   5.816  -0.196   6.537  1.8365  2.1183  1.5954
  976MOL0     H28818   6.584   1.251   7.687  3.1504 -0.5525  0.1593
  976MOL0     H28819   6.803   1.359   7.623  1.1916  1.9496 -1.5104
  976MOL0     H28820   7.248   1.266   7.417 -3.2057 -0.7088  1.1209
  976MOL0     H28821   7.461   1.386   7.360  0.5606  0.0272 -2.3065
  976MOL0     H28822   7.657   1.521   7.345  2.3233 -1.3330 -2.1144
  976MOL0     H28823   7.681   1.675   7.275  0.9423 -0.8101 -0.1041
  976MOL0     H28824   7.570   1.419   7.164 -0.6148  0.4394  0.6171
  976MOL0     H28825   7.552   1.572   7.079 -2.1392  1.3612  2.8826
  976MOL0     H28826   7.765   1.412   7.024  2.1440  0.3790 -1.1206
  976MOL0     H28827   7.828   1.473   7.182  0.7652  0.5716 -0.0576
  976MOL0     H28828   7.741   1.663   6.961  0.0428 -2.8540 -3.2858
  976MOL0     H28829   7.847   1.685   7.104 -3.5540  0.6119  0.2604
  976MOL0     H28830   8.085   1.548   6.772 -0.1943  0.2776 -0.6461
  976MOL0     H28831   7.238   1.755   7.319  0.2872  1.2594  1.0285
  976MOL0     H28832   7.049   1.650   7.351  1.9969  1.2450 -1.5326
  977MOL0     O28833  10.852   8.262   2.742  0.1593 -0.3390  0.0026
  977MOL0     C28834  10.961   8.311   2.713  0.2219 -0.4069  0.5454
  977MOL0     O28835  10.980   8.449   2.703  0.0894 -0.8532  0.1972
  977MOL0     C28836  10.871   8.534   2.705 -0.6528  0.2326  0.2598
  977MOL0     C28837  10.809   8.587   2.823 -0.8221 -0.2848  0.1162
  977MOL0     C28838  10.701   8.675   2.828  0.8790 -0.4765 -0.4646
  977MOL0     C28839  10.644   8.711   2.707 -0.5626 -0.1391  1.0365
  977MOL0     O28840  10.533   8.781   2.694  0.3958  0.8031  0.4322
  977MOL0     C28841  10.444   8.824   2.802  0.0515  0.3506  0.5216
  977MOL0     C28842  10.307   8.853   2.740 -0.0130 -0.7947  0.2811
  977MOL0     C28843  10.192   8.872   2.835  0.3586 -0.1390 -0.0038
  977MOL0     C28844  10.133   8.735   2.865  0.5652 -0.8697  0.7213
  977MOL0     C28845   9.978   8.742   2.903 -0.2124 -0.4040 -0.7370
  977MOL0     C28846   9.943   8.823   3.031 -0.6553 -0.3412 -0.2766
  977MOL0     C28847   9.802   8.814   3.082  0.3421  0.7882  0.2156
  977MOL0     C28848   9.701   8.898   2.996  0.4800  0.0634 -0.9342
  977MOL0     N28849   9.568   8.847   3.034 -0.3915 -1.0731  0.2542
  977MOL0     C28850   9.489   8.875   3.144 -0.7829  0.6690  0.6689
  977MOL0     C28851   9.382   8.793   3.118 -0.0834  0.4003 -0.4985
  977MOL0     C28852   9.252   8.786   3.195 -0.2817 -0.1452  0.1934
  977MOL0     C28853   9.279   8.748   3.348 -0.0350  0.3110  0.9722
  977MOL0     C28854   9.197   8.830   3.453  0.4479  0.7346  0.2681
  977MOL0     C28855   9.042   8.782   3.458  0.6782 -0.6004  0.0344
  977MOL0     O28856   8.977   8.900   3.506  0.6232 -0.3470 -0.0356
  977MOL0     C28857   8.868   8.885   3.590  0.1172  0.0466 -0.7513
  977MOL0     C28858   8.851   8.982   3.689 -0.5730 -0.1956  0.7827
  977MOL0     C28859   8.742   8.983   3.769 -0.4881  0.8735  0.1397
  977MOL0     C28860   8.653   8.866   3.770  0.7301  0.0699 -0.6240
  977MOL0     C28861   8.541   8.860   3.853 -0.0174  0.1456  0.5865
  977MOL0     O28862   8.466   8.739   3.858 -0.1612  0.2585 -0.4161
  977MOL0     C28863   8.378   8.708   3.960 -0.2970  0.2400 -0.3003
  977MOL0     C28864   8.390   8.761   4.091  0.8224 -0.1383  0.3717
  977MOL0     C28865   8.307   8.713   4.193  0.3106 -0.7691 -0.3503
  977MOL0     C28866   8.206   8.616   4.165 -0.0517  0.0531 -0.4455
  977MOL0     O28867   8.134   8.558   4.263  0.2725  0.6807 -0.5254
  977MOL0     C28868   8.096   8.641   4.368  0.0425  0.5200 -0.6035
  977MOL0     C28869   7.989   8.568   4.459 -0.6116  0.2184 -0.4779
  977MOL0     C28870   8.043   8.428   4.500  1.0827  0.6306  0.2018
  977MOL0     C28871   7.946   8.354   4.584  0.7916  0.4023 -0.7290
  977MOL0     C28872   7.944   8.403   4.737  0.1911  0.6082  0.8990
  977MOL0     C28873   7.825   8.341   4.816 -0.2087  0.3742 -0.1027
  977MOL0     C28874   7.856   8.375   4.970 -0.0066  0.3678 -0.8897
  977MOL0     C28875   7.747   8.311   5.053  0.4451  0.2571 -0.9672
  977MOL0    Cl28876   7.781   8.325   5.224 -0.5287  0.4531 -0.3731
  977MOL0     C28877   8.190   8.574   4.034  1.9186  0.7665  0.6112
  977MOL0     C28878   8.283   8.609   3.943  0.0371  0.3158 -0.1558
  977MOL0     O28879   8.503   8.968   3.908 -0.9860 -0.4792 -0.3704
  977MOL0     C28880   8.673   8.766   3.678 -0.7818 -0.6255 -0.7287
  977MOL0     C28881   8.778   8.778   3.588 -0.0410 -0.1098 -0.7931
  977MOL0     N28882   9.396   8.728   2.991  0.3861 -0.0977 -0.6895
  977MOL0     N28883   9.511   8.760   2.950  0.0407  0.8369 -0.1268
  977MOL0     C28884  10.698   8.663   2.587 -0.1892 -0.1395  0.0906
  977MOL0     C28885  10.815   8.588   2.579  0.3996  0.2079 -0.3586
  977MOL0     C28886  11.074   8.214   2.677  0.3534 -0.6592  0.1505
  977MOL0     C28887  11.037   8.082   2.662 -0.2678  0.8004  1.0285
  977MOL0     C28888  11.121   7.979   2.611 -0.4767  0.4777 -0.0583
  977MOL0     C28889  11.253   8.023   2.566  0.7945 -0.2756  0.9897
  977MOL0     O28890  11.338   7.938   2.501  0.3280 -0.2577  0.1546
  977MOL0     C28891  11.386   7.834   2.595 -0.6715 -0.6157  0.4913
  977MOL0     C28892  11.510   7.882   2.675  0.2381 -0.3209  0.5689
  977MOL0     C28893  11.628   7.904   2.597 -0.0628 -0.8267 -0.3783
  977MOL0     C28894  11.756   7.913   2.683 -0.2612  0.4595 -0.3612
  977MOL0     C28895  11.860   7.952   2.593 -0.6669  0.2832  1.2356
  977MOL0     C28896  11.954   7.956   2.508 -0.0289  0.3858 -0.1681
  977MOL0     C28897  11.290   8.159   2.576 -0.1773  0.0655  0.5639
  977MOL0     C28898  11.200   8.252   2.627 -0.5084 -0.4162 -0.1316
  977MOL0     H28899  10.853   8.564   2.920  1.1031  0.8668 -0.4411
  977MOL0     H28900  10.654   8.709   2.920 -1.1549  1.2132 -2.0272
  977MOL0     H28901  10.489   8.914   2.845 -1.8954  2.0809 -0.8786
  977MOL0     H28902  10.430   8.742   2.873 -1.2725 -0.4927 -0.6532
  977MOL0     H28903  10.281   8.788   2.656  0.0708 -1.2304  0.5882
  977MOL0     H28904  10.321   8.952   2.696 -0.9882 -1.4048 -1.4930
  977MOL0     H28905  10.110   8.920   2.782  0.5095 -1.7292 -1.7821
  977MOL0     H28906  10.218   8.930   2.924  0.6416  1.0965 -0.8725
  977MOL0     H28907  10.134   8.685   2.768 -0.5880 -3.7791  2.0790
  977MOL0     H28908  10.193   8.678   2.936  0.8996  0.4103  1.4865
  977MOL0     H28909   9.938   8.641   2.919  0.4029 -0.5314  0.0841
  977MOL0     H28910   9.942   8.799   2.817 -1.4892  0.7347  0.4971
  977MOL0     H28911   9.965   8.930   3.025 -1.0571  0.2941  5.0227
  977MOL0     H28912  10.009   8.781   3.107  1.9069  2.4802 -0.7195
  977MOL0     H28913   9.773   8.708   3.078  0.2446  0.7947  0.7309
  977MOL0     H28914   9.802   8.841   3.188  0.3267 -0.0754  0.4498
  977MOL0     H28915   9.717   8.879   2.890  1.0186 -0.9586 -0.6825
  977MOL0     H28916   9.716   9.004   3.022  5.2530 -0.7593  0.5695
  977MOL0     H28917   9.512   8.938   3.228 -1.1295 -0.1800  1.4156
  977MOL0     H28918   9.177   8.728   3.141  2.0295 -0.7417 -2.6200
  977MOL0     H28919   9.206   8.885   3.202  0.4673  0.0832  3.2942
  977MOL0     H28920   9.384   8.769   3.370  0.8371 -0.0952 -2.3111
  977MOL0     H28921   9.262   8.642   3.365  2.1518 -0.1881  0.3516
  977MOL0     H28922   9.240   8.813   3.552  0.4609  1.9440  0.4834
  977MOL0     H28923   9.194   8.937   3.429  1.5272  0.3766 -1.7321
  977MOL0     H28924   9.032   8.692   3.520  1.3313  1.4133  3.3068
  977MOL0     H28925   9.005   8.756   3.358  0.2457 -0.5026  0.1661
  977MOL0     H28926   8.923   9.063   3.685 -0.7994  0.0167  1.0750
  977MOL0     H28927   8.731   9.056   3.848 -0.3682 -2.1914  3.2370
  977MOL0     H28928   8.458   8.841   4.118 -1.4054  0.9575  3.3036
  977MOL0     H28929   8.325   8.739   4.297 -2.0993 -0.6702  0.0830
  977MOL0     H28930   8.057   8.735   4.327  0.6357  1.7587  1.5362
  977MOL0     H28931   8.176   8.671   4.435 -0.4392  1.1636 -0.2984
  977MOL0     H28932   7.901   8.548   4.398  0.9020 -4.3871 -1.5678
  977MOL0     H28933   7.963   8.640   4.538  2.0737  2.8835 -1.8001
  977MOL0     H28934   8.124   8.445   4.571  0.4517  0.6358  0.9412
  977MOL0     H28935   8.078   8.371   4.413 -1.5128  0.3542 -0.7689
  977MOL0     H28936   7.842   8.368   4.552  0.0188 -3.1014 -0.1808
  977MOL0     H28937   7.971   8.247   4.582  0.5307  0.3323 -2.7819
  977MOL0     H28938   7.955   8.512   4.741  0.3406  0.6094  0.4204
  977MOL0     H28939   8.031   8.359   4.787 -0.5006 -1.8684  0.0382
  977MOL0     H28940   7.836   8.234   4.799 -0.1746  0.3342  0.1628
  977MOL0     H28941   7.725   8.374   4.784 -1.0840 -1.3022  0.7728
  977MOL0     H28942   7.953   8.339   5.006 -0.7890  0.4371  1.4851
  977MOL0     H28943   7.847   8.484   4.983 -0.7353  0.3720 -1.3694
  977MOL0     H28944   7.752   8.205   5.024 -2.5981  0.3764 -2.2435
  977MOL0     H28945   7.644   8.348   5.051 -0.0228 -0.7675  1.1748
  977MOL0     H28946   8.108   8.507   4.010  1.8836  1.8811 -2.8745
  977MOL0     H28947   8.283   8.552   3.851  1.7460  0.1546 -0.0778
  977MOL0     H28948   8.608   8.679   3.679  1.6681 -2.6076 -1.6445
  977MOL0     H28949   8.791   8.702   3.512  2.8777 -1.6086  1.0269
  977MOL0     H28950  10.653   8.672   2.489  0.3361 -2.1909 -0.3917
  977MOL0     H28951  10.850   8.548   2.485  0.5136 -0.5959  0.0202
  977MOL0     H28952  10.938   8.048   2.690 -0.2789  0.1551  0.2458
  977MOL0     H28953  11.096   7.874   2.605  1.9320 -0.1299 -0.6118
  977MOL0     H28954  11.406   7.740   2.543  1.0051 -0.3870  0.6713
  977MOL0     H28955  11.314   7.815   2.676 -0.7394  0.4581  0.7007
  977MOL0     H28956  11.476   7.985   2.694 -1.0162 -0.5080 -0.5714
  977MOL0     H28957  11.522   7.821   2.765 -1.4829 -1.1274  0.2923
  977MOL0     H28958  11.611   7.993   2.535  1.7763 -0.7057 -0.7591
  977MOL0     H28959  11.639   7.824   2.523  1.2497 -1.9147  0.9517
  977MOL0     H28960  11.747   7.972   2.775 -0.5985 -0.0981 -0.0279
  977MOL0     H28961  11.768   7.808   2.709 -0.4523  0.6099  0.3755
  977MOL0     H28962  12.034   7.944   2.438  0.0083  0.5669 -0.1573
  977MOL0     H28963  11.391   8.187   2.547  0.7758  1.5268  4.5532
  977MOL0     H28964  11.219   8.359   2.634  0.7360 -0.5964 -0.5102
  978MOL0     O28965   4.363  10.575   1.217 -0.1912 -0.3789  0.1448
  978MOL0     C28966   4.388  10.671   1.149 -0.5708  0.5486  0.9442
  978MOL0     O28967   4.309  10.772   1.102  0.4546  1.1511 -0.1281
  978MOL0     C28968   4.179  10.758   1.135 -0.6274  0.2844  0.2678
  978MOL0     C28969   4.119  10.773   1.269 -0.5477 -0.0626  0.8971
  978MOL0     C28970   3.981  10.774   1.287  0.1715  0.0641 -0.2711
  978MOL0     C28971   3.896  10.769   1.182 -0.2161  0.1904  0.2529
  978MOL0     O28972   3.759  10.767   1.188 -0.1797 -0.7429 -0.2824
  978MOL0     C28973   3.699  10.758   1.319 -0.3520  1.1113 -0.1549
  978MOL0     C28974   3.552  10.763   1.285  0.2041  0.7208  0.1129
  978MOL0     C28975   3.454  10.663   1.359 -1.2143  1.0639  0.4203
  978MOL0     C28976   3.313  10.698   1.306 -0.0451  0.4232 -0.2960
  978MOL0     C28977   3.202  10.637   1.386 -0.5175  0.1831 -0.2745
  978MOL0     C28978   3.080  10.636   1.286 -0.0573 -0.2261 -0.0417
  978MOL0     C28979   2.962  10.559   1.342  0.5930  0.6705 -0.0790
  978MOL0     C28980   2.845  10.545   1.242  0.9615 -1.0690  1.2300
  978MOL0     N28981   2.729  10.477   1.301  0.8458 -1.0428  1.2501
  978MOL0     C28982   2.731  10.364   1.370 -0.0894 -0.0675  0.1107
  978MOL0     C28983   2.603  10.334   1.406  0.2485 -0.5058 -0.0330
  978MOL0     C28984   2.558  10.205   1.476 -0.5523 -0.3316  0.8612
  978MOL0     C28985   2.476  10.220   1.605 -0.3637 -0.5939  0.2055
  978MOL0     C28986   2.447  10.084   1.679  0.2611  0.1358 -0.1851
  978MOL0     C28987   2.343   9.989   1.613  0.3575 -0.2129  0.4491
  978MOL0     O28988   2.210  10.052   1.600  0.5712 -0.4679  0.1078
  978MOL0     C28989   2.104   9.974   1.555  0.0689  1.5403 -0.0941
  978MOL0     C28990   1.987  10.035   1.520  0.0184  0.0635 -0.5654
  978MOL0     C28991   1.875   9.966   1.487  0.8679  0.6429 -0.6623
  978MOL0     C28992   1.880   9.827   1.469 -0.1902 -0.0629  0.1165
  978MOL0     C28993   1.752   9.749   1.441 -0.9717 -0.7833  0.7267
  978MOL0     O28994   1.624   9.831   1.442 -0.2070  0.5727 -0.4711
  978MOL0     C28995   1.500   9.773   1.411  0.1348 -0.3236 -0.3062
  978MOL0     C28996   1.483   9.675   1.314 -0.0516  0.3633 -0.6468
  978MOL0     C28997   1.369   9.598   1.301  0.4336  0.1272  0.4806
  978MOL0     C28998   1.250   9.638   1.379  0.4864 -0.7108  1.7116
  978MOL0     O28999   1.122   9.580   1.380  0.0001  0.1437 -0.2184
  978MOL0     C29000   1.123   9.437   1.398  0.3116 -0.6540 -0.5692
  978MOL0     C29001   0.983   9.385   1.361 -0.1484 -0.1806 -0.7127
  978MOL0     C29002   0.870   9.436   1.457 -0.8245  0.0474  0.7382
  978MOL0     C29003   0.729   9.436   1.396 -0.1903 -0.3661  0.4033
  978MOL0     C29004   0.629   9.502   1.489 -0.0928 -0.0651  0.4858
  978MOL0     C29005   0.489   9.482   1.435  0.0916  0.0813 -0.0984
  978MOL0     C29006   0.437   9.585   1.333 -0.4348 -0.4733  0.1558
  978MOL0     C29007   0.318   9.531   1.255 -0.6385 -0.1187 -0.1635
  978MOL0    Cl29008   0.173   9.492   1.353  0.0975  0.1703  0.0314
  978MOL0     C29009   1.269   9.744   1.464  0.5699  0.3111 -0.4551
  978MOL0     C29010   1.386   9.814   1.478 -0.6325  0.4399 -0.1126
  978MOL0     O29011   1.763   9.629   1.427  0.5187  0.5879 -0.2027
  978MOL0     C29012   2.004   9.765   1.508  1.0145  0.2396 -0.3201
  978MOL0     C29013   2.113   9.834   1.551 -0.6467 -0.0338  0.2636
  978MOL0     N29014   2.522  10.436   1.351  0.5850  0.6409 -0.2734
  978MOL0     N29015   2.602  10.515   1.289 -0.4832  0.6582  0.1590
  978MOL0     C29016   3.960  10.756   1.057  0.3319  0.4343 -0.1404
  978MOL0     C29017   4.090  10.749   1.030 -0.6213 -0.2257 -0.0715
  978MOL0     C29018   4.526  10.692   1.111 -0.4246 -0.4105 -0.0848
  978MOL0     C29019   4.625  10.593   1.131 -0.4198 -0.7832  0.1928
  978MOL0     C29020   4.757  10.620   1.103  0.9345  0.0701 -0.5432
  978MOL0     C29021   4.798  10.741   1.041  1.3978  0.0855  0.5069
  978MOL0     O29022   4.930  10.743   1.007 -0.6316  0.5795 -0.3126
  978MOL0     C29023   4.979  10.849   0.927 -0.6955  0.1644 -0.2071
  978MOL0     C29024   4.962  10.823   0.782  0.1307  0.0547 -0.2206
  978MOL0     C29025   5.038  10.708   0.718 -0.2727  0.6714 -1.2991
  978MOL0     C29026   5.003  10.559   0.767  0.8587  0.8002 -0.1656
  978MOL0     C29027   4.862  10.534   0.749  0.0363 -0.4795  0.1818
  978MOL0     C29028   4.746  10.517   0.745 -0.7146  0.2208  0.3605
  978MOL0     C29029   4.699  10.828   1.002  0.5274 -0.5905 -0.4517
  978MOL0     C29030   4.570  10.811   1.036  0.5804 -0.6296 -0.6011
  978MOL0     H29031   4.187  10.796   1.351  0.3451  1.9609 -0.3345
  978MOL0     H29032   3.936  10.785   1.386 -1.5941  0.6723 -1.0894
  978MOL0     H29033   3.721  10.848   1.378  4.1414  0.5044 -0.5451
  978MOL0     H29034   3.734  10.670   1.373 -2.3687  0.1794 -0.2675
  978MOL0     H29035   3.540  10.732   1.180 -3.2828 -1.2426  0.9206
  978MOL0     H29036   3.512  10.864   1.288 -1.0404  0.3073 -1.0396
  978MOL0     H29037   3.466  10.674   1.467  3.5663  0.8469  0.1070
  978MOL0     H29038   3.478  10.560   1.331  0.7038  1.0620  1.8697
  978MOL0     H29039   3.309  10.807   1.304 -2.5806  0.3758 -0.6860
  978MOL0     H29040   3.305  10.666   1.201  2.3049  1.1539 -0.7792
  978MOL0     H29041   3.185  10.694   1.477  1.6884 -3.2239  2.5448
  978MOL0     H29042   3.220  10.536   1.425  0.0877  0.7163  0.8750
  978MOL0     H29043   3.108  10.586   1.192  0.4586 -3.1275  1.5521
  978MOL0     H29044   3.054  10.738   1.254  1.4445 -0.5615 -2.6523
  978MOL0     H29045   3.001  10.463   1.377  1.1784  1.5673  1.8738
  978MOL0     H29046   2.920  10.603   1.434  0.5311 -1.1318  0.7933
  978MOL0     H29047   2.878  10.508   1.144 -3.3023  1.1879 -1.3498
  978MOL0     H29048   2.816  10.648   1.218  2.2012 -0.7066  1.2095
  978MOL0     H29049   2.818  10.303   1.389  1.3418  2.6245  2.9683
  978MOL0     H29050   2.651  10.158   1.508 -1.6792 -1.7970  2.1288
  978MOL0     H29051   2.502  10.151   1.399  0.6794  0.8993 -0.9866
  978MOL0     H29052   2.381  10.272   1.587 -0.6825 -1.1256  0.3117
  978MOL0     H29053   2.541  10.282   1.667  0.3000 -0.2674 -0.7976
  978MOL0     H29054   2.543  10.032   1.687  0.2734 -0.4044 -3.0443
  978MOL0     H29055   2.404  10.111   1.776 -1.3472 -1.9196 -0.2612
  978MOL0     H29056   2.341   9.899   1.673 -2.0110  1.6541  3.4610
  978MOL0     H29057   2.387   9.958   1.517  1.7074 -0.1142  1.0100
  978MOL0     H29058   1.984  10.143   1.526  0.0086 -0.0048  4.4753
  978MOL0     H29059   1.789  10.018   1.447  1.1202  0.3738 -1.5678
  978MOL0     H29060   1.563   9.642   1.247  0.5180 -1.2725  0.7684
  978MOL0     H29061   1.374   9.519   1.227  1.1021 -0.6397  1.3193
  978MOL0     H29062   1.142   9.411   1.502 -2.6268 -1.7740 -0.2030
  978MOL0     H29063   1.192   9.388   1.329 -0.9730  0.2853 -2.6031
  978MOL0     H29064   0.981   9.276   1.374  1.1721 -0.2719 -1.1367
  978MOL0     H29065   0.969   9.419   1.258  0.6180  2.7720  0.0665
  978MOL0     H29066   0.887   9.534   1.501 -0.4970  1.0377 -1.4660
  978MOL0     H29067   0.868   9.374   1.547 -0.8914  0.2500  0.8757
  978MOL0     H29068   0.722   9.484   1.298 -4.7575  0.3670  0.8769
  978MOL0     H29069   0.700   9.333   1.372  3.0393 -1.0964 -0.9446
  978MOL0     H29070   0.655   9.608   1.485  0.3925 -0.2105 -0.5502
  978MOL0     H29071   0.645   9.472   1.592  2.0493  1.9489  0.8195
  978MOL0     H29072   0.437   9.486   1.531  0.3685 -2.8516  0.2539
  978MOL0     H29073   0.467   9.382   1.398  1.9060 -0.4447  0.1853
  978MOL0     H29074   0.418   9.682   1.379  1.9474  0.2117 -0.1942
  978MOL0     H29075   0.512   9.602   1.255  0.0159 -3.7013 -0.2608
  978MOL0     H29076   0.341   9.447   1.189  0.6618 -1.3465  1.7350
  978MOL0     H29077   0.287   9.619   1.199 -1.7470  0.5029  1.3572
  978MOL0     H29078   1.200   9.775   1.542  2.7755  2.5764  0.7441
  978MOL0     H29079   1.405   9.887   1.555 -0.2656  2.2073 -1.7880
  978MOL0     H29080   1.997   9.657   1.506  0.6408  0.1985  1.7974
  978MOL0     H29081   2.200   9.781   1.588 -1.4457 -2.1724 -0.7631
  978MOL0     H29082   3.897  10.747   0.969 -2.1003  0.1759  1.5571
  978MOL0     H29083   4.134  10.753   0.931 -2.2021  1.9941 -0.7704
  978MOL0     H29084   4.596  10.502   1.183  1.1856 -1.0414  0.6720
  978MOL0     H29085   4.823  10.539   1.131 -3.3014 -2.8286  2.2119
  978MOL0     H29086   5.086  10.857   0.949 -0.9035  1.0100  0.5389
  978MOL0     H29087   4.927  10.943   0.951  0.3095  0.9654 -1.0494
  978MOL0     H29088   4.854  10.816   0.764 -0.1182  1.2700  0.6925
  978MOL0     H29089   4.979  10.913   0.722 -2.9604  1.1723  0.3673
  978MOL0     H29090   5.143  10.723   0.742 -0.5649  3.1079 -1.2987
  978MOL0     H29091   5.020  10.715   0.611 -0.5913  3.4898 -1.1306
  978MOL0     H29092   5.062  10.486   0.711  0.4048  0.0060  0.3743
  978MOL0     H29093   5.033  10.549   0.872  0.9863 -0.9944 -0.3518
  978MOL0     H29094   4.641  10.495   0.742 -0.8532 -0.0936  3.4969
  978MOL0     H29095   4.722  10.916   0.944  0.3914 -0.6799 -0.6415
  978MOL0     H29096   4.497  10.890   1.019  2.6796  1.7798  0.8985
  979MOL0     O29097  10.211   6.632   3.676 -0.1356  0.1139  0.0829
  979MOL0     C29098  10.239   6.752   3.693  0.2722 -0.1934 -0.3698
  979MOL0     O29099  10.148   6.858   3.675  0.2542 -0.1055 -0.5191
  979MOL0     C29100  10.018   6.838   3.637  0.0322  0.7897 -0.3665
  979MOL0     C29101   9.973   6.891   3.517 -0.6562  0.7237  0.8754
  979MOL0     C29102   9.842   6.869   3.469  0.1866  1.5842 -0.0640
  979MOL0     C29103   9.749   6.811   3.558  0.0745 -0.2619  0.3269
  979MOL0     O29104   9.620   6.804   3.503 -0.6192 -0.0777 -0.5229
  979MOL0     C29105   9.512   6.768   3.590  0.5079 -0.0696 -0.2357
  979MOL0     C29106   9.483   6.622   3.570  0.2181  0.1123  0.2002
  979MOL0     C29107   9.344   6.583   3.619 -0.4050 -0.4357  1.5036
  979MOL0     C29108   9.312   6.435   3.578  0.0430  0.3923  0.0088
  979MOL0     C29109   9.171   6.390   3.568  0.0627 -0.2860 -0.1076
  979MOL0     C29110   9.093   6.413   3.698 -0.8770 -0.0508  0.1630
  979MOL0     C29111   8.947   6.345   3.701  0.1844 -0.6281  0.4750
  979MOL0     C29112   8.854   6.434   3.618 -0.1003  0.2777 -0.2257
  979MOL0     N29113   8.721   6.387   3.651  0.2603 -0.1070  0.3164
  979MOL0     C29114   8.656   6.418   3.767  0.0283 -0.3815 -0.1497
  979MOL0     C29115   8.538   6.352   3.759 -0.0388 -0.1129 -0.0462
  979MOL0     C29116   8.428   6.353   3.868  0.2682  0.0339  0.6144
  979MOL0     C29117   8.285   6.367   3.815  0.4301  0.0675 -0.4725
  979MOL0     C29118   8.189   6.361   3.933 -0.5593  0.3115 -0.2780
  979MOL0     C29119   8.040   6.379   3.897 -0.1652 -0.0925  0.4954
  979MOL0     O29120   8.013   6.520   3.856  0.3662 -0.2843 -0.3131
  979MOL0     C29121   7.876   6.553   3.842  0.1039 -0.1368  0.3415
  979MOL0     C29122   7.769   6.461   3.867 -0.2047 -0.4841  0.3033
  979MOL0     C29123   7.637   6.510   3.894 -0.5825  0.2102 -0.0683
  979MOL0     C29124   7.607   6.645   3.894 -0.4911  0.0861 -0.6242
  979MOL0     C29125   7.468   6.683   3.926  0.7400  0.1349  1.2865
  979MOL0     O29126   7.392   6.591   3.986  0.4628  0.1910 -0.0364
  979MOL0     C29127   7.253   6.608   3.983 -0.2753  0.4037 -0.4150
  979MOL0     C29128   7.185   6.618   3.865 -0.1374 -0.1992  0.5389
  979MOL0     C29129   7.043   6.630   3.853  0.1360 -0.0682 -0.0574
  979MOL0     C29130   6.970   6.629   3.967  0.3977 -0.1462  0.3684
  979MOL0     O29131   6.832   6.640   3.979 -0.0978  0.0386 -1.0942
  979MOL0     C29132   6.736   6.626   3.872 -0.3071 -0.6486  0.2530
  979MOL0     C29133   6.618   6.538   3.916 -0.4019  0.6462 -0.1775
  979MOL0     C29134   6.534   6.582   4.033 -0.5499 -0.8627 -0.9138
  979MOL0     C29135   6.452   6.707   3.994  0.7828 -0.8267  0.6888
  979MOL0     C29136   6.319   6.666   3.920  0.0258 -0.0927  0.3896
  979MOL0     C29137   6.238   6.787   3.912  0.9189 -0.5785  0.6665
  979MOL0     C29138   6.115   6.765   3.821  0.3150  0.2186 -1.5407
  979MOL0     C29139   5.994   6.835   3.884 -0.2183  0.5602  0.4587
  979MOL0    Cl29140   5.912   6.731   3.996  0.4639  0.3847 -0.0261
  979MOL0     C29141   7.037   6.606   4.087 -1.6962 -0.2676  0.9228
  979MOL0     C29142   7.175   6.598   4.099 -0.0555 -0.0736 -0.0785
  979MOL0     O29143   7.426   6.792   3.889 -0.2501 -0.2732 -0.0088
  979MOL0     C29144   7.714   6.731   3.870 -0.3330 -0.4064  1.1345
  979MOL0     C29145   7.842   6.690   3.835  0.7577  0.1304 -0.7811
  979MOL0     N29146   8.533   6.284   3.639  0.5268  0.3613  0.3974
  979MOL0     N29147   8.648   6.301   3.585  0.4426  0.7392  0.0634
  979MOL0     C29148   9.790   6.764   3.683  0.2553  0.1236 -0.2450
  979MOL0     C29149   9.923   6.775   3.724 -0.4040  0.2321 -0.1569
  979MOL0     C29150  10.374   6.784   3.744  0.0813  0.0154  0.0581
  979MOL0     C29151  10.481   6.689   3.752  0.3987 -0.9254  0.4728
  979MOL0     C29152  10.605   6.727   3.799 -0.4503 -0.2098  0.2531
  979MOL0     C29153  10.635   6.860   3.831  0.0596 -0.1807 -0.4426
  979MOL0     O29154  10.763   6.887   3.875 -0.6099 -0.2964 -0.2481
  979MOL0     C29155  10.792   7.028   3.877 -0.3231 -1.4660 -1.3955
  979MOL0     C29156  10.935   7.060   3.917  0.4385 -0.2583  0.7481
  979MOL0     C29157  11.030   7.004   3.811 -0.9123  0.2103 -0.4802
  979MOL0     C29158  11.172   7.052   3.865  0.1711 -0.5822 -0.6528
  979MOL0     C29159  11.218   6.974   3.984 -0.6281 -1.2480 -0.0435
  979MOL0     C29160  11.260   6.919   4.084  0.6319 -0.6863 -0.4430
  979MOL0     C29161  10.528   6.952   3.813 -0.6552 -0.3661  0.2883
  979MOL0     C29162  10.405   6.921   3.763  0.0166 -0.2614 -0.0261
  979MOL0     H29163  10.030   6.954   3.449 -0.1774 -0.5776  0.0301
  979MOL0     H29164   9.806   6.909   3.375 -1.2717 -3.2389 -1.8530
  979MOL0     H29165   9.427   6.831   3.563  0.3334  2.2463  4.6545
  979MOL0     H29166   9.526   6.787   3.697 -0.8221 -4.4830  0.9345
  979MOL0     H29167   9.555   6.566   3.630  1.4551  0.2054 -1.1688
  979MOL0     H29168   9.496   6.592   3.466 -0.2579  0.0439  0.1551
  979MOL0     H29169   9.273   6.649   3.568 -0.2191 -1.1747  0.2675
  979MOL0     H29170   9.337   6.587   3.729  1.3102  0.4845  1.6063
  979MOL0     H29171   9.356   6.417   3.480 -2.2357  0.2635 -1.0398
  979MOL0     H29172   9.365   6.374   3.651  2.2960  2.7923  0.5142
  979MOL0     H29173   9.171   6.281   3.557  3.4589 -0.2404 -1.8873
  979MOL0     H29174   9.124   6.439   3.482 -1.9459  1.5788  1.8958
  979MOL0     H29175   9.091   6.518   3.728  3.6454  0.0678  0.6988
  979MOL0     H29176   9.142   6.367   3.784  0.3744 -0.6149 -0.8246
  979MOL0     H29177   8.965   6.244   3.663  2.2382 -0.1318  0.0448
  979MOL0     H29178   8.907   6.343   3.803  1.3757  2.0840  1.1007
  979MOL0     H29179   8.870   6.431   3.510 -1.5412  2.4477 -0.5844
  979MOL0     H29180   8.863   6.541   3.639  1.3428  0.1549 -0.1396
  979MOL0     H29181   8.681   6.479   3.853 -0.6858  0.5567 -0.5906
  979MOL0     H29182   8.436   6.437   3.939  0.8445 -0.2238  0.8625
  979MOL0     H29183   8.436   6.258   3.921  1.2036 -1.5693 -2.1875
  979MOL0     H29184   8.253   6.293   3.742 -1.5167  2.3163 -2.0402
  979MOL0     H29185   8.270   6.460   3.758 -0.8596 -0.3331 -0.8010
  979MOL0     H29186   8.196   6.269   3.992  1.6596 -1.0050 -2.4448
  979MOL0     H29187   8.212   6.451   3.992 -2.7143 -0.5305  2.0607
  979MOL0     H29188   7.979   6.352   3.983 -1.0682  1.0697  0.2402
  979MOL0     H29189   8.006   6.309   3.820  0.4000 -0.6458  0.7408
  979MOL0     H29190   7.784   6.353   3.861  1.3307 -0.2453 -0.9986
  979MOL0     H29191   7.555   6.441   3.916 -2.6325  2.3168 -0.7293
  979MOL0     H29192   7.232   6.633   3.768 -2.1781  3.6173 -0.0789
  979MOL0     H29193   6.994   6.635   3.756 -1.3476 -2.1952  0.5043
  979MOL0     H29194   6.779   6.584   3.781  1.7192 -0.9696  1.2839
  979MOL0     H29195   6.700   6.726   3.846  2.5874  0.0667 -1.5387
  979MOL0     H29196   6.652   6.439   3.948 -1.7676  0.1277 -0.2653
  979MOL0     H29197   6.564   6.507   3.826 -1.1156  1.9820 -0.2309
  979MOL0     H29198   6.601   6.617   4.113  1.0991  0.0679 -2.6112
  979MOL0     H29199   6.475   6.497   4.067  0.0847  0.0180  2.7928
  979MOL0     H29200   6.432   6.757   4.089 -1.6686  0.0660 -0.2058
  979MOL0     H29201   6.505   6.781   3.933 -3.2859  0.1886 -2.0297
  979MOL0     H29202   6.262   6.587   3.970 -3.4097  2.3267  0.6312
  979MOL0     H29203   6.350   6.630   3.821  2.6472  0.1586  1.0308
  979MOL0     H29204   6.289   6.866   3.856 -3.4811  0.9446 -1.7600
  979MOL0     H29205   6.210   6.826   4.010 -0.1675 -1.3293  0.6804
  979MOL0     H29206   6.133   6.812   3.724  2.1695  0.6789 -1.0054
  979MOL0     H29207   6.103   6.656   3.815 -0.0085  0.0624  1.0230
  979MOL0     H29208   5.920   6.868   3.811  1.8267  2.0366 -1.0542
  979MOL0     H29209   6.039   6.924   3.930 -0.7591  1.0233  0.0956
  979MOL0     H29210   6.983   6.598   4.181  1.1108  0.0957  2.6948
  979MOL0     H29211   7.227   6.578   4.192 -0.5323 -3.0529 -0.3295
  979MOL0     H29212   7.696   6.837   3.881 -1.9098 -0.6565  1.2691
  979MOL0     H29213   7.922   6.762   3.819  0.8096  0.2763  0.1062
  979MOL0     H29214   9.720   6.713   3.748 -1.2565  0.7722 -1.3169
  979MOL0     H29215   9.953   6.718   3.811  1.3393  0.1789 -0.7632
  979MOL0     H29216  10.474   6.584   3.725  5.3507 -1.3293 -0.1514
  979MOL0     H29217  10.678   6.647   3.797  0.9160  0.9974 -1.0879
  979MOL0     H29218  10.721   7.069   3.950  0.1725 -2.6542 -0.2034
  979MOL0     H29219  10.783   7.056   3.772  3.6348 -1.1441 -1.7699
  979MOL0     H29220  10.941   7.169   3.919 -0.0821 -0.2082 -0.1563
  979MOL0     H29221  10.962   7.019   4.015 -1.6298 -2.0878  0.6155
  979MOL0     H29222  11.010   7.057   3.717 -2.3903  0.3257 -0.1160
  979MOL0     H29223  11.027   6.895   3.800  1.2941  0.1396 -0.9649
  979MOL0     H29224  11.241   7.036   3.782  2.2443  1.5003  0.5557
  979MOL0     H29225  11.174   7.160   3.881 -0.4623 -0.4440 -1.4294
  979MOL0     H29226  11.311   6.873   4.166 -0.5687 -0.5895  0.3815
  979MOL0     H29227  10.520   7.054   3.850 -2.3097 -0.3873  0.0572
  979MOL0     H29228  10.340   7.007   3.751  2.4038  1.5704 -0.8179
  980MOL0     O29229   6.428   5.038   2.833 -0.1362 -0.4193 -0.3016
  980MOL0     C29230   6.452   5.155   2.805  0.7930  1.1237  1.0356
  980MOL0     O29231   6.352   5.246   2.792  0.7680  0.2529  0.6505
  980MOL0     C29232   6.216   5.209   2.803 -0.5384 -0.2017 -0.0429
  980MOL0     C29233   6.133   5.276   2.894  0.0318  0.8190 -0.2974
  980MOL0     C29234   5.990   5.250   2.897 -0.1886  1.0082 -0.0224
  980MOL0     C29235   5.940   5.154   2.806 -0.1483 -0.3395  0.3761
  980MOL0     O29236   5.811   5.124   2.800 -0.2371  0.6376 -0.1187
  980MOL0     C29237   5.748   5.139   2.674  0.5395  0.3639 -0.0758
  980MOL0     C29238   5.605   5.078   2.679 -0.0246  0.3241 -0.2176
  980MOL0     C29239   5.502   5.168   2.759 -0.7342  0.3501  0.3205
  980MOL0     C29240   5.362   5.101   2.768 -0.2522  0.3622 -0.0395
  980MOL0     C29241   5.276   5.171   2.864  0.2572 -0.1917 -0.1509
  980MOL0     C29242   5.166   5.075   2.899  0.0921  0.1412 -0.4099
  980MOL0     C29243   5.082   5.142   3.006  0.1529 -0.0159 -1.1551
  980MOL0     C29244   4.990   5.031   3.067  0.1610  0.9220 -0.8705
  980MOL0     N29245   4.881   5.073   3.147  0.4563  0.2871 -0.7622
  980MOL0     C29246   4.767   5.139   3.107  0.2310  0.3950 -0.1444
  980MOL0     C29247   4.705   5.177   3.218  0.1058  0.2977  0.1554
  980MOL0     C29248   4.579   5.257   3.227  0.3989  0.2571  0.5075
  980MOL0     C29249   4.457   5.159   3.220 -0.3423 -0.2567 -0.2967
  980MOL0     C29250   4.387   5.122   3.092 -0.3635  0.0929  0.2134
  980MOL0     C29251   4.295   4.998   3.109  0.1332 -0.7251  0.2175
  980MOL0     O29252   4.287   4.938   2.977 -0.4800 -0.4889 -1.1321
  980MOL0     C29253   4.174   4.862   2.966 -0.5005 -0.2996 -0.5239
  980MOL0     C29254   4.096   4.858   2.850  0.7059 -0.4344  0.7856
  980MOL0     C29255   3.971   4.790   2.834 -0.3472  0.4407  0.3068
  980MOL0     C29256   3.924   4.705   2.942  0.2352  0.2103  0.1512
  980MOL0     C29257   3.794   4.638   2.933 -0.0205 -0.5594  0.3205
  980MOL0     O29258   3.741   4.597   3.051  0.1868 -0.0223 -0.2283
  980MOL0     C29259   3.615   4.549   3.044  0.3712  0.5652 -0.2933
  980MOL0     C29260   3.583   4.425   2.982  0.0747 -0.6560  0.0331
  980MOL0     C29261   3.456   4.378   2.991 -1.0765  0.8088 -0.2236
  980MOL0     C29262   3.361   4.448   3.072  0.5823  0.4723 -0.6758
  980MOL0     O29263   3.240   4.397   3.117 -0.2516 -0.2207  0.3545
  980MOL0     C29264   3.197   4.281   3.057  0.0424  0.0262 -0.2136
  980MOL0     C29265   3.056   4.264   3.102  0.5618  0.6057  0.3203
  980MOL0     C29266   3.006   4.133   3.049  0.6522  0.5855  0.5524
  980MOL0     C29267   2.873   4.091   3.109  0.6901 -0.6868 -0.2658
  980MOL0     C29268   2.820   3.957   3.066  0.0296 -0.1885 -1.0032
  980MOL0     C29269   2.667   3.951   3.090 -0.1483  0.4795  1.2650
  980MOL0     C29270   2.606   3.812   3.042  0.2345  0.1406  1.1487
  980MOL0     C29271   2.597   3.799   2.887 -0.0109 -0.1308  0.5573
  980MOL0    Cl29272   2.474   3.909   2.836 -0.0112 -0.2618  0.2374
  980MOL0     C29273   3.393   4.569   3.138  0.7870  0.1236  0.5503
  980MOL0     C29274   3.517   4.619   3.121 -0.0634 -0.2252  0.1691
  980MOL0     O29275   3.738   4.632   2.820 -0.3367  0.3836 -0.2747
  980MOL0     C29276   4.003   4.706   3.053 -0.0685  0.9923 -0.4726
  980MOL0     C29277   4.124   4.775   3.066  0.4473  0.6218 -0.2244
  980MOL0     N29278   4.773   5.117   3.323  0.2509 -0.6991 -0.9082
  980MOL0     N29279   4.882   5.062   3.280  0.4533 -0.1201 -0.8055
  980MOL0     C29280   6.025   5.078   2.728 -0.2690 -0.0460 -0.2752
  980MOL0     C29281   6.161   5.101   2.732  0.3171  0.5871 -0.5751
  980MOL0     C29282   6.588   5.207   2.804  0.0354  0.1134 -0.0592
  980MOL0     C29283   6.615   5.329   2.738 -0.4808  0.5302  0.3950
  980MOL0     C29284   6.751   5.363   2.719  0.2767 -0.1580 -0.6571
  980MOL0     C29285   6.858   5.296   2.790  0.5118 -0.5933  0.3364
  980MOL0     O29286   6.985   5.335   2.754 -0.4429  0.0521  0.1336
  980MOL0     C29287   7.099   5.301   2.837 -1.2047 -0.2290 -0.0903
  980MOL0     C29288   7.226   5.319   2.754 -0.5550  0.1043 -0.0867
  980MOL0     C29289   7.276   5.193   2.682  0.2481  0.1694 -0.4328
  980MOL0     C29290   7.184   5.142   2.576 -0.6013 -0.2152 -1.0769
  980MOL0     C29291   7.181   5.223   2.460  0.2632  0.0988  0.6623
  980MOL0     C29292   7.168   5.280   2.358 -0.1470 -0.1222 -0.0117
  980MOL0     C29293   6.825   5.197   2.885 -0.5950 -0.4880  0.2175
  980MOL0     C29294   6.693   5.145   2.874 -0.7505 -0.3914  0.1973
  980MOL0     H29295   6.172   5.346   2.967 -0.0547  0.8073 -0.2398
  980MOL0     H29296   5.927   5.307   2.964 -0.7975  0.2519  0.0611
  980MOL0     H29297   5.804   5.090   2.593 -5.1698 -0.8655 -3.8473
  980MOL0     H29298   5.748   5.248   2.662  4.1220  0.3298 -1.7154
  980MOL0     H29299   5.592   4.980   2.727 -4.7325 -0.1674 -1.9356
  980MOL0     H29300   5.570   5.067   2.576  0.0902 -0.4976 -0.1788
  980MOL0     H29301   5.493   5.259   2.698  1.3957  0.5506  0.2078
  980MOL0     H29302   5.556   5.181   2.853  2.5483 -0.8738 -1.2404
  980MOL0     H29303   5.313   5.085   2.671 -1.9131 -2.8932  1.1932
  980MOL0     H29304   5.389   5.008   2.819  1.9056  0.9683  0.0232
  980MOL0     H29305   5.240   5.259   2.809  1.0846 -0.5692 -1.3316
  980MOL0     H29306   5.327   5.201   2.955  0.7802 -0.0010 -0.5018
  980MOL0     H29307   5.203   4.981   2.943  1.0648  1.3353  1.4628
  980MOL0     H29308   5.108   5.049   2.810 -1.8895  0.7469  0.6575
  980MOL0     H29309   5.145   5.182   3.085 -0.9369 -3.0295  1.4442
  980MOL0     H29310   5.021   5.223   2.965 -0.1636 -0.8630 -2.4554
  980MOL0     H29311   5.057   4.974   3.132  1.2544  1.5597 -1.4079
  980MOL0     H29312   4.956   4.967   2.986  1.9145 -2.9602  1.1744
  980MOL0     H29313   4.732   5.158   3.006  0.4025  2.5715  0.1491
  980MOL0     H29314   4.583   5.323   3.140 -0.2913  0.3892  0.5763
  980MOL0     H29315   4.581   5.306   3.325 -0.0780 -0.2505  0.7748
  980MOL0     H29316   4.383   5.208   3.284 -1.2833  0.0903 -1.6149
  980MOL0     H29317   4.473   5.063   3.272  0.2468  1.7042  3.5086
  980MOL0     H29318   4.323   5.202   3.054 -1.5270  0.2548  2.3437
  980MOL0     H29319   4.470   5.097   3.025 -1.2075  0.2413 -0.9262
  980MOL0     H29320   4.202   5.042   3.144  1.3602  0.7330  1.7792
  980MOL0     H29321   4.347   4.935   3.182  0.4437  2.4253  2.9163
  980MOL0     H29322   4.130   4.921   2.769  0.7539 -0.8593  0.4721
  980MOL0     H29323   3.922   4.793   2.737  1.3616 -1.7556 -0.7183
  980MOL0     H29324   3.655   4.360   2.933  0.4824 -0.2668  0.1088
  980MOL0     H29325   3.442   4.279   2.947 -1.4705  0.8601 -0.2192
  980MOL0     H29326   3.258   4.196   3.091 -0.1233 -0.1063 -0.2465
  980MOL0     H29327   3.199   4.275   2.948 -1.5890  0.3916 -0.2903
  980MOL0     H29328   3.000   4.348   3.059 -1.2574  0.3972  2.0818
  980MOL0     H29329   3.068   4.258   3.211 -0.3586  1.2845  0.4737
  980MOL0     H29330   3.084   4.057   3.054  1.0969  0.4505 -3.9958
  980MOL0     H29331   2.991   4.148   2.942  3.1242  1.0803  0.2287
  980MOL0     H29332   2.881   4.106   3.217  0.4533  2.5305 -0.5815
  980MOL0     H29333   2.797   4.158   3.068 -0.3867 -1.3018  0.6703
  980MOL0     H29334   2.876   3.875   3.111  0.9334  0.7760 -0.3083
  980MOL0     H29335   2.838   3.940   2.959  0.2151  0.1495 -1.0288
  980MOL0     H29336   2.610   4.034   3.048  0.6529  1.1409  1.4536
  980MOL0     H29337   2.648   3.963   3.197 -0.4444  1.4045  1.1192
  980MOL0     H29338   2.654   3.724   3.087  1.7171  1.4914  2.3265
  980MOL0     H29339   2.504   3.812   3.082 -0.6050 -0.2882 -0.8726
  980MOL0     H29340   2.561   3.697   2.871 -0.1969  0.0883 -0.4644
  980MOL0     H29341   2.690   3.821   2.835  0.5026  1.6803  2.0892
  980MOL0     H29342   3.322   4.619   3.203  0.5827  0.2316  0.2509
  980MOL0     H29343   3.548   4.711   3.170  2.1335 -2.4094  3.2290
  980MOL0     H29344   3.981   4.652   3.145  1.3857  1.3769  0.1183
  980MOL0     H29345   4.186   4.751   3.151  1.5342 -2.1303 -1.6758
  980MOL0     H29346   5.984   5.005   2.658  1.0758  0.2769 -1.4512
  980MOL0     H29347   6.216   5.032   2.669  0.2648 -0.4049  0.4144
  980MOL0     H29348   6.545   5.396   2.689  2.5476  1.5447 -3.0531
  980MOL0     H29349   6.780   5.452   2.664 -0.5220  1.8907  1.9793
  980MOL0     H29350   7.093   5.197   2.870 -2.7126 -0.7723 -1.9140
  980MOL0     H29351   7.108   5.370   2.921 -2.3287 -1.9570  1.5092
  980MOL0     H29352   7.225   5.408   2.692  2.1680  2.0129  2.3882
  980MOL0     H29353   7.305   5.333   2.828 -0.4511  1.7134 -0.4800
  980MOL0     H29354   7.292   5.115   2.757  1.1205  0.2455 -0.5269
  980MOL0     H29355   7.373   5.223   2.642  0.3654 -1.0253 -1.1098
  980MOL0     H29356   7.230   5.047   2.546 -0.5709 -0.2325 -0.9765
  980MOL0     H29357   7.083   5.127   2.615  0.1345  1.3114  1.6963
  980MOL0     H29358   7.162   5.321   2.259 -0.6476  0.9471  0.4421
  980MOL0     H29359   6.892   5.140   2.948  0.0520 -1.0092 -0.9099
  980MOL0     H29360   6.677   5.052   2.928 -0.2727 -1.4820 -1.4740
  981MOL0     O29361   1.716   5.639   4.957  0.7159 -0.0728 -0.6623
  981MOL0     C29362   1.704   5.722   4.865  0.0495  0.1633 -0.1839
  981MOL0     O29363   1.599   5.740   4.780 -0.7632  0.3964  0.1395
  981MOL0     C29364   1.476   5.678   4.793  0.3503  0.9359  0.0045
  981MOL0     C29365   1.424   5.612   4.905 -0.9302  0.3738  0.0452
  981MOL0     C29366   1.293   5.549   4.915 -0.9036  0.3021 -1.0381
  981MOL0     C29367   1.203   5.568   4.803 -0.7322 -0.1289  0.2638
  981MOL0     O29368   1.071   5.534   4.794  0.3531 -0.0008  0.0873
  981MOL0     C29369   0.990   5.541   4.916 -0.0288 -0.1721 -0.2189
  981MOL0     C29370   0.851   5.497   4.866 -0.2390  0.2902 -0.1155
  981MOL0     C29371   0.769   5.464   4.991  0.2797 -0.5944 -0.3459
  981MOL0     C29372   0.654   5.367   4.944  0.1812  0.8556  0.2820
  981MOL0     C29373   0.550   5.417   4.842  0.5395  0.5204 -0.0008
  981MOL0     C29374   0.417   5.341   4.845  0.0065 -0.1045 -0.1800
  981MOL0     C29375   0.312   5.384   4.747 -0.0829  0.2872  0.7625
  981MOL0     C29376   0.189   5.295   4.752  0.2351  0.2729  1.0771
  981MOL0     N29377   0.093   5.345   4.655  0.1021 -0.0250  0.3819
  981MOL0     C29378   0.066   5.474   4.611  0.6596 -0.5411  0.0890
  981MOL0     C29379  -0.045   5.469   4.541  0.3261 -0.1408  1.3014
  981MOL0     C29380  -0.119   5.586   4.489  0.7075  0.4838  0.1261
  981MOL0     C29381  -0.271   5.575   4.507 -1.0035  0.6368  0.4965
  981MOL0     C29382  -0.327   5.714   4.517 -0.6060 -0.8805 -0.2462
  981MOL0     C29383  -0.472   5.696   4.548  0.5505  0.4081  0.5379
  981MOL0     O29384  -0.531   5.668   4.425  0.1336 -0.1858 -0.3982
  981MOL0     C29385  -0.669   5.663   4.422 -0.1054  0.1113  0.0805
  981MOL0     C29386  -0.732   5.650   4.298 -0.2142  0.0498 -0.1957
  981MOL0     C29387  -0.867   5.652   4.277 -1.3759  0.3239 -0.4468
  981MOL0     C29388  -0.953   5.649   4.385 -0.1696  0.9137 -0.0773
  981MOL0     C29389  -1.099   5.653   4.355  0.6862 -0.5536 -0.2889
  981MOL0     O29390  -1.185   5.643   4.461  0.1602  0.1316  0.6558
  981MOL0     C29391  -1.313   5.604   4.426 -0.2243 -0.6101  0.1412
  981MOL0     C29392  -1.411   5.693   4.371 -0.1547 -0.3031 -1.3543
  981MOL0     C29393  -1.541   5.656   4.348  0.5122  0.4517 -0.6169
  981MOL0     C29394  -1.583   5.536   4.397  0.9062  0.5320 -0.5152
  981MOL0     O29395  -1.710   5.503   4.376  0.0429 -0.1752  0.5154
  981MOL0     C29396  -1.781   5.392   4.443 -0.4543 -0.2369  0.3159
  981MOL0     C29397  -1.930   5.404   4.402 -0.3634  0.0206  0.5807
  981MOL0     C29398  -1.951   5.374   4.249 -0.4785 -0.4947 -0.3209
  981MOL0     C29399  -2.094   5.418   4.194  0.4310 -0.1870  0.2764
  981MOL0     C29400  -2.196   5.313   4.235  0.2888  0.9568  0.9058
  981MOL0     C29401  -2.335   5.324   4.168  0.1184 -1.1757 -0.4685
  981MOL0     C29402  -2.438   5.220   4.205  0.5724 -0.2486 -0.1529
  981MOL0     C29403  -2.562   5.214   4.123 -0.3175 -0.4535 -0.0967
  981MOL0    Cl29404  -2.661   5.356   4.108  0.3331 -0.0006 -0.0239
  981MOL0     C29405  -1.488   5.454   4.457  0.1670 -0.2195 -0.1208
  981MOL0     C29406  -1.353   5.481   4.468  0.3036 -0.0746  0.4200
  981MOL0     O29407  -1.132   5.666   4.234 -0.0996 -0.2880  0.0437
  981MOL0     C29408  -0.906   5.655   4.519  0.0120  0.2413 -0.1595
  981MOL0     C29409  -0.764   5.661   4.527 -0.0926 -0.0713 -0.6740
  981MOL0     N29410  -0.091   5.341   4.545  0.4506 -0.6735 -0.5192
  981MOL0     N29411  -0.008   5.265   4.607  0.1196  0.0973 -0.7279
  981MOL0     C29412   1.257   5.630   4.696  0.8652 -1.1157  0.0252
  981MOL0     C29413   1.389   5.690   4.687 -0.4108 -0.1108 -1.0362
  981MOL0     C29414   1.827   5.798   4.840  0.0886  0.8272 -0.4643
  981MOL0     C29415   1.953   5.768   4.911 -0.2195  0.5712  0.0608
  981MOL0     C29416   2.074   5.836   4.892 -0.3409 -0.2006  0.9012
  981MOL0     C29417   2.060   5.961   4.810  0.9156  0.8677  0.0469
  981MOL0     O29418   2.167   6.038   4.813 -0.8012 -0.2622 -0.3741
  981MOL0     C29419   2.174   6.159   4.735 -0.7987 -0.3790 -0.2659
  981MOL0     C29420   2.187   6.144   4.589  0.1116 -0.0308  0.6504
  981MOL0     C29421   2.330   6.090   4.552 -1.1178 -0.3186  0.6058
  981MOL0     C29422   2.344   6.086   4.392  0.0225 -0.3380  0.6111
  981MOL0     C29423   2.483   6.047   4.364  0.1817  0.6661  0.0580
  981MOL0     C29424   2.596   6.012   4.345  0.2910 -0.3495 -0.3374
  981MOL0     C29425   1.939   5.991   4.737  0.3443  0.9764 -0.0957
  981MOL0     C29426   1.818   5.916   4.759  0.4528  0.1204  0.8645
  981MOL0     H29427   1.493   5.598   4.988  0.2209  3.7582 -0.1921
  981MOL0     H29428   1.254   5.490   4.997 -2.9792  0.8577 -1.5660
  981MOL0     H29429   0.983   5.642   4.956  2.9976 -0.4094  1.2311
  981MOL0     H29430   1.031   5.470   4.988  1.8061 -0.1389 -1.1699
  981MOL0     H29431   0.854   5.397   4.822 -1.3552 -0.0496  0.5440
  981MOL0     H29432   0.810   5.573   4.799  1.1176  3.3456  2.2423
  981MOL0     H29433   0.727   5.548   5.047 -1.6415 -2.6507  1.4772
  981MOL0     H29434   0.836   5.409   5.059  1.0029 -1.1349 -1.4626
  981MOL0     H29435   0.692   5.278   4.893  0.5278  0.8503  0.5481
  981MOL0     H29436   0.595   5.331   5.029  1.0606 -0.0006  0.5485
  981MOL0     H29437   0.596   5.401   4.745  0.0714 -1.5748  0.0928
  981MOL0     H29438   0.526   5.523   4.855 -0.7583  0.2709 -0.1862
  981MOL0     H29439   0.389   5.366   4.948  0.4043  1.2529 -0.3769
  981MOL0     H29440   0.435   5.234   4.833  0.0481  0.1050 -2.4407
  981MOL0     H29441   0.294   5.487   4.779  2.5269 -0.0933  3.9109
  981MOL0     H29442   0.365   5.392   4.651  1.5028  0.9612  1.6558
  981MOL0     H29443   0.154   5.287   4.855  1.2849  0.6898  1.4795
  981MOL0     H29444   0.216   5.192   4.726  2.3484  0.8989  0.5687
  981MOL0     H29445   0.117   5.566   4.638 -1.1742  0.6367 -0.3330
  981MOL0     H29446  -0.100   5.606   4.384 -0.0126  1.4212  0.1626
  981MOL0     H29447  -0.075   5.678   4.529  0.0316  1.7409 -1.9083
  981MOL0     H29448  -0.293   5.504   4.586 -0.2801 -0.7168 -0.4762
  981MOL0     H29449  -0.313   5.522   4.422 -2.9175  0.6699  1.3815
  981MOL0     H29450  -0.271   5.768   4.593  5.5819 -1.5451 -3.6477
  981MOL0     H29451  -0.304   5.752   4.416  0.2129 -2.4736 -0.6887
  981MOL0     H29452  -0.506   5.793   4.584  1.3975  1.2206 -0.7396
  981MOL0     H29453  -0.478   5.613   4.618  1.5721  1.2282  1.6508
  981MOL0     H29454  -0.662   5.658   4.215  1.5685 -2.5763  0.9070
  981MOL0     H29455  -0.908   5.649   4.176 -0.7173  0.1991 -0.7111
  981MOL0     H29456  -1.383   5.795   4.346  2.1927 -0.4536  0.3479
  981MOL0     H29457  -1.604   5.735   4.310  1.7989  3.4640  2.8891
  981MOL0     H29458  -1.769   5.392   4.551  0.5462 -1.6723  0.2376
  981MOL0     H29459  -1.742   5.294   4.414  1.5323  0.6624 -0.1735
  981MOL0     H29460  -1.970   5.503   4.427  0.5107  1.4294 -2.9236
  981MOL0     H29461  -1.984   5.328   4.458 -0.2454 -1.1616 -0.8708
  981MOL0     H29462  -1.948   5.265   4.234 -1.0549 -0.5117 -0.3245
  981MOL0     H29463  -1.868   5.421   4.196 -0.1789 -0.2041  0.4038
  981MOL0     H29464  -2.125   5.518   4.224  1.4099 -0.4898  2.4722
  981MOL0     H29465  -2.083   5.413   4.085 -0.7267  0.2148  0.1347
  981MOL0     H29466  -2.205   5.325   4.343  1.9305 -1.2474  1.3474
  981MOL0     H29467  -2.161   5.213   4.211 -1.7632  0.2258  0.7196
  981MOL0     H29468  -2.315   5.332   4.061 -0.9177  0.6314 -0.5628
  981MOL0     H29469  -2.376   5.421   4.198 -1.0533 -2.5306  2.7169
  981MOL0     H29470  -2.388   5.124   4.185  2.5577  0.7272 -0.0705
  981MOL0     H29471  -2.463   5.238   4.310 -0.8115  3.6907 -0.9977
  981MOL0     H29472  -2.625   5.139   4.171  1.1066 -1.0271  0.9331
  981MOL0     H29473  -2.532   5.184   4.022 -0.2252  0.9488 -0.5071
  981MOL0     H29474  -1.512   5.353   4.488  3.3907 -1.1829 -0.4319
  981MOL0     H29475  -1.277   5.410   4.499  1.4462  1.4612  1.2608
  981MOL0     H29476  -0.976   5.672   4.601  0.0234  2.4272 -0.5507
  981MOL0     H29477  -0.719   5.667   4.625  0.4606 -5.6563 -0.2351
  981MOL0     H29478   1.197   5.644   4.607 -0.1036  1.7863  1.0270
  981MOL0     H29479   1.422   5.736   4.594  1.8998 -0.0867 -0.2587
  981MOL0     H29480   1.950   5.696   4.992 -2.0834 -0.3820 -0.7836
  981MOL0     H29481   2.163   5.817   4.952 -1.1959 -0.4924  2.0989
  981MOL0     H29482   2.266   6.210   4.765  0.0282 -2.5533  1.1798
  981MOL0     H29483   2.093   6.226   4.765  0.7452  1.8410 -0.8216
  981MOL0     H29484   2.116   6.071   4.549 -1.5389  1.3912  0.9027
  981MOL0     H29485   2.168   6.238   4.537 -0.9342 -0.5864 -0.0020
  981MOL0     H29486   2.332   5.994   4.603 -0.0139 -0.9709 -0.6116
  981MOL0     H29487   2.405   6.158   4.594 -0.8317  0.9895 -1.8222
  981MOL0     H29488   2.280   6.008   4.349  3.0205 -2.3711 -0.4319
  981MOL0     H29489   2.313   6.178   4.341 -0.7266 -0.5150  0.7348
  981MOL0     H29490   2.699   5.989   4.325  0.3635  0.8777 -1.5800
  981MOL0     H29491   1.932   6.073   4.666  3.0640  0.1916 -1.4510
  981MOL0     H29492   1.726   5.937   4.706  0.1379 -1.7700  0.5613
  982MOL0     O29493   6.874   6.004   3.626  0.0811 -0.2277 -0.1565
  982MOL0     C29494   6.875   6.040   3.512  0.7543 -0.4223  0.0586
  982MOL0     O29495   6.984   6.038   3.428 -0.0138  0.1163  0.8650
  982MOL0     C29496   7.110   5.995   3.467  0.4922 -0.1333  0.2363
  982MOL0     C29497   7.147   5.890   3.546  0.0805  0.2062 -0.4526
  982MOL0     C29498   7.276   5.847   3.556 -0.1804  0.7730  0.2676
  982MOL0     C29499   7.379   5.913   3.492  0.6344 -0.3438 -0.9011
  982MOL0     O29500   7.515   5.893   3.513 -0.4819 -1.0082 -0.0322
  982MOL0     C29501   7.551   5.757   3.551 -0.8637  0.1018  0.6846
  982MOL0     C29502   7.703   5.772   3.572  0.0712 -0.6286  0.0327
  982MOL0     C29503   7.760   5.628   3.584 -0.0795  0.0862  0.2520
  982MOL0     C29504   7.761   5.559   3.446 -0.2550 -0.0338  0.7424
  982MOL0     C29505   7.837   5.430   3.452 -1.2789 -0.6547  0.2816
  982MOL0     C29506   7.778   5.321   3.367 -0.2246  0.4921  0.0489
  982MOL0     C29507   7.816   5.337   3.224  0.4056 -0.8024  0.1141
  982MOL0     C29508   7.731   5.244   3.137 -0.9401 -0.2269  0.6937
  982MOL0     N29509   7.589   5.287   3.124 -0.4486  0.0189 -1.0229
  982MOL0     C29510   7.548   5.420   3.103 -0.4452  0.9604 -0.0963
  982MOL0     C29511   7.416   5.408   3.095 -0.7883 -0.8211  0.3821
  982MOL0     C29512   7.317   5.518   3.065  1.0170 -0.1098  0.6185
  982MOL0     C29513   7.375   5.647   3.127 -0.0790  0.4862 -0.0604
  982MOL0     C29514   7.316   5.775   3.089 -0.1189 -0.2171  0.4699
  982MOL0     C29515   7.166   5.796   3.120 -1.0889  0.1465  0.2441
  982MOL0     O29516   7.092   5.706   3.036  0.2337  0.2780 -0.5924
  982MOL0     C29517   6.957   5.717   3.042  0.5387  0.3997  0.2199
  982MOL0     C29518   6.882   5.810   3.118  0.0691  0.0162  0.9993
  982MOL0     C29519   6.746   5.823   3.101  0.1204 -0.4826 -0.5947
  982MOL0     C29520   6.679   5.752   2.998  0.4572  0.5589 -0.6648
  982MOL0     C29521   6.530   5.771   2.984 -0.2055  0.3200  0.7526
  982MOL0     O29522   6.464   5.705   2.883  0.5041  0.1648 -0.6967
  982MOL0     C29523   6.333   5.724   2.848 -0.4427  0.5898 -0.1637
  982MOL0     C29524   6.276   5.608   2.788 -1.5139 -0.1215  1.5567
  982MOL0     C29525   6.147   5.603   2.747  0.9530 -0.1692  0.0948
  982MOL0     C29526   6.058   5.712   2.786 -0.2644 -0.0091 -0.0794
  982MOL0     O29527   5.924   5.705   2.746  0.3282 -0.8545  0.0267
  982MOL0     C29528   5.847   5.579   2.779  0.1303 -0.4833  0.4004
  982MOL0     C29529   5.696   5.621   2.802 -0.9473 -0.0569 -0.3273
  982MOL0     C29530   5.608   5.497   2.814  0.1865 -0.3519 -0.2930
  982MOL0     C29531   5.459   5.535   2.845  0.3039 -0.6523  0.3968
  982MOL0     C29532   5.378   5.556   2.717  0.0581 -0.4567  0.0175
  982MOL0     C29533   5.237   5.604   2.745  0.3371 -0.2606 -0.1533
  982MOL0     C29534   5.156   5.645   2.621  0.4605  0.2306 -0.3165
  982MOL0     C29535   5.017   5.706   2.668 -1.0431  0.3391  0.7284
  982MOL0    Cl29536   4.909   5.588   2.754 -0.1669 -0.0623 -0.0238
  982MOL0     C29537   6.111   5.822   2.845 -0.0836  0.0337  0.1286
  982MOL0     C29538   6.246   5.827   2.886 -0.3002 -0.5180 -0.0181
  982MOL0     O29539   6.474   5.817   3.079  0.4180 -0.3667 -0.0379
  982MOL0     C29540   6.744   5.659   2.921 -0.0904 -0.7039  0.1834
  982MOL0     C29541   6.887   5.646   2.945 -0.2686  0.1220 -0.0898
  982MOL0     N29542   7.378   5.276   3.118  0.2727  0.5478 -1.0179
  982MOL0     N29543   7.482   5.204   3.142 -0.9045 -0.1874  0.6253
  982MOL0     C29544   7.346   6.022   3.410  0.3080 -1.1927 -0.1724
  982MOL0     C29545   7.213   6.056   3.391 -0.1192 -0.2951  0.8512
  982MOL0     C29546   6.742   6.078   3.446  0.2120  0.1306 -0.5419
  982MOL0     C29547   6.621   6.058   3.511 -0.2928 -0.7109 -0.0626
  982MOL0     C29548   6.501   6.093   3.454  0.1606 -0.0192 -0.3691
  982MOL0     C29549   6.498   6.157   3.330 -0.0089 -0.8690  0.3079
  982MOL0     O29550   6.375   6.195   3.289 -0.8826 -0.3356  0.3984
  982MOL0     C29551   6.357   6.227   3.147 -0.8106 -0.7133 -0.3400
  982MOL0     C29552   6.210   6.228   3.096  0.0502 -0.1764 -1.1126
  982MOL0     C29553   6.112   6.294   3.193  0.0737  1.0772 -0.2136
  982MOL0     C29554   5.965   6.299   3.136  0.6990 -0.2891 -1.0417
  982MOL0     C29555   5.858   6.331   3.230  1.1657  0.2459 -0.6819
  982MOL0     C29556   5.775   6.341   3.318 -0.3726  0.2087  0.3829
  982MOL0     C29557   6.620   6.185   3.266  0.1882  0.6770  0.3583
  982MOL0     C29558   6.737   6.134   3.313 -0.2080  0.1529 -0.6400
  982MOL0     H29559   7.072   5.827   3.592 -2.0490  0.9323 -2.7111
  982MOL0     H29560   7.291   5.756   3.613  2.4435  0.4979 -0.6827
  982MOL0     H29561   7.524   5.687   3.471  2.5187  2.1986 -2.5661
  982MOL0     H29562   7.494   5.728   3.640 -0.0071 -0.7982  0.9548
  982MOL0     H29563   7.707   5.819   3.671 -3.8947  0.1832 -0.0115
  982MOL0     H29564   7.752   5.826   3.491  1.6226 -1.4734  0.3684
  982MOL0     H29565   7.701   5.568   3.654  1.7217  0.0773  1.8728
  982MOL0     H29566   7.854   5.626   3.640 -0.8021 -0.5850  1.4773
  982MOL0     H29567   7.658   5.545   3.411 -0.2991 -1.2007  1.2670
  982MOL0     H29568   7.814   5.617   3.371 -2.4130 -2.3478 -2.8500
  982MOL0     H29569   7.847   5.405   3.558  0.0770  0.2787  0.3985
  982MOL0     H29570   7.942   5.451   3.430 -0.6913 -2.2322  1.4050
  982MOL0     H29571   7.672   5.302   3.386  0.0369 -3.1041 -1.2546
  982MOL0     H29572   7.837   5.230   3.383  0.5093  0.6572 -1.4942
  982MOL0     H29573   7.813   5.437   3.180  0.4920 -1.4861 -1.4796
  982MOL0     H29574   7.918   5.299   3.226  1.0654  0.8500  2.1750
  982MOL0     H29575   7.733   5.139   3.165 -1.1771 -0.7655 -1.1710
  982MOL0     H29576   7.783   5.248   3.041 -1.3174  0.4704  0.5057
  982MOL0     H29577   7.611   5.505   3.080 -0.3829  0.6030 -1.3584
  982MOL0     H29578   7.222   5.505   3.117  0.7782  3.1263  1.1604
  982MOL0     H29579   7.303   5.528   2.957 -3.7493 -1.3170  0.8710
  982MOL0     H29580   7.478   5.668   3.097 -0.8747  0.8768 -2.7403
  982MOL0     H29581   7.372   5.638   3.236  1.5132  0.5898  0.0235
  982MOL0     H29582   7.372   5.860   3.128  0.4474 -0.9872  1.3846
  982MOL0     H29583   7.316   5.788   2.981 -0.8171 -0.5726  0.4198
  982MOL0     H29584   7.138   5.900   3.105 -2.0921 -0.0785  0.4761
  982MOL0     H29585   7.149   5.769   3.224  3.0582 -1.9402  0.5953
  982MOL0     H29586   6.933   5.872   3.191  2.5573  0.9479 -1.3382
  982MOL0     H29587   6.692   5.895   3.161  1.9544  2.2546 -2.0248
  982MOL0     H29588   6.336   5.519   2.767  0.2176  1.3928 -0.3886
  982MOL0     H29589   6.111   5.518   2.690 -0.3210  1.0454 -0.9833
  982MOL0     H29590   5.894   5.548   2.873 -0.2533  1.9121  1.4753
  982MOL0     H29591   5.856   5.489   2.717  1.5962 -2.8198  3.7329
  982MOL0     H29592   5.675   5.670   2.706 -0.2046 -2.1526 -1.6212
  982MOL0     H29593   5.688   5.674   2.897  1.0443 -0.9310  0.3650
  982MOL0     H29594   5.663   5.427   2.879  3.0988  2.0880  0.0953
  982MOL0     H29595   5.604   5.443   2.719  1.9207  0.6383 -0.9718
  982MOL0     H29596   5.414   5.450   2.897  0.6857  0.4440  2.6738
  982MOL0     H29597   5.452   5.625   2.908 -2.5796 -0.8274  0.4727
  982MOL0     H29598   5.379   5.458   2.668 -1.7303  0.2070 -1.4861
  982MOL0     H29599   5.429   5.635   2.661 -0.2685  0.4616  0.9768
  982MOL0     H29600   5.246   5.687   2.815 -0.3659  0.4980 -0.9421
  982MOL0     H29601   5.181   5.528   2.800 -0.5641  0.7384  0.3313
  982MOL0     H29602   5.218   5.715   2.563  2.7730 -1.2690  0.2174
  982MOL0     H29603   5.126   5.553   2.571  1.1923  0.1470 -0.6172
  982MOL0     H29604   4.954   5.727   2.581  0.6789  0.3091 -0.5976
  982MOL0     H29605   5.045   5.792   2.729  3.3100 -1.0159  0.9522
  982MOL0     H29606   6.045   5.905   2.865 -1.5335 -1.3576  1.4499
  982MOL0     H29607   6.296   5.917   2.922  2.0780 -1.8844  0.3074
  982MOL0     H29608   6.691   5.592   2.854 -0.1084  0.5080 -1.0751
  982MOL0     H29609   6.943   5.573   2.888  0.9051 -0.4876  1.7811
  982MOL0     H29610   7.426   6.086   3.373 -0.2429  1.2652  2.4690
  982MOL0     H29611   7.182   6.135   3.323  4.1273  1.1449  0.3067
  982MOL0     H29612   6.624   6.006   3.606 -0.3604 -3.0053 -1.2299
  982MOL0     H29613   6.412   6.059   3.505  1.8283 -0.8608  2.2427
  982MOL0     H29614   6.415   6.166   3.078  1.5904  1.7840 -0.7177
  982MOL0     H29615   6.396   6.329   3.140 -1.5240 -0.3954  0.1615
  982MOL0     H29616   6.196   6.275   2.998  0.2255  0.4042 -0.8663
  982MOL0     H29617   6.181   6.125   3.076  2.7404 -0.9123 -1.6558
  982MOL0     H29618   6.146   6.397   3.204  0.4049  0.8300  1.4045
  982MOL0     H29619   6.114   6.246   3.292  0.3734  0.9141 -0.2962
  982MOL0     H29620   5.962   6.374   3.057 -0.3400  1.0695  0.2205
  982MOL0     H29621   5.942   6.196   3.107  2.3540 -1.1485  0.4662
  982MOL0     H29622   5.711   6.357   3.402 -0.0033 -0.3407  0.7735
  982MOL0     H29623   6.616   6.237   3.171 -0.0905 -3.2946 -1.9989
  982MOL0     H29624   6.831   6.151   3.263  1.6686 -0.3939  2.4127
  983MOL0     O29625   9.363   7.276   6.189 -0.0450 -0.2103 -0.4346
  983MOL0     C29626   9.346   7.395   6.142 -1.0709  0.1835 -1.1487
  983MOL0     O29627   9.262   7.491   6.197  0.0124 -0.0457  0.3325
  983MOL0     C29628   9.180   7.455   6.294 -0.3604  0.6520 -0.4990
  983MOL0     C29629   9.094   7.342   6.293  0.0123 -0.3150 -0.5163
  983MOL0     C29630   8.994   7.328   6.391  0.7171 -0.4230 -0.9761
  983MOL0     C29631   8.968   7.431   6.485 -0.2500  0.0026 -0.6873
  983MOL0     O29632   8.860   7.444   6.568 -0.0599  0.2324 -0.3335
  983MOL0     C29633   8.744   7.367   6.547  0.0566 -0.3508  0.3076
  983MOL0     C29634   8.606   7.446   6.578 -1.0942 -0.8146  0.1393
  983MOL0     C29635   8.597   7.496   6.722 -0.4325 -0.1818  0.6553
  983MOL0     C29636   8.531   7.403   6.807 -0.0578  0.3525 -0.3963
  983MOL0     C29637   8.516   7.462   6.948 -0.1950  0.9711  0.1755
  983MOL0     C29638   8.421   7.388   7.048  0.4049  0.4431 -0.0895
  983MOL0     C29639   8.423   7.427   7.193 -0.4430  1.1636 -0.5371
  983MOL0     C29640   8.311   7.359   7.273  0.6914  0.4405  0.1462
  983MOL0     N29641   8.305   7.208   7.274 -0.6233  0.5733 -0.7848
  983MOL0     C29642   8.378   7.131   7.363  0.4466  0.2213  0.2642
  983MOL0     C29643   8.334   7.008   7.332 -0.7841 -0.3172  0.0872
  983MOL0     C29644   8.375   6.880   7.389 -0.5515  0.9361  0.2899
  983MOL0     C29645   8.255   6.778   7.375 -0.6161  0.1368  0.0701
  983MOL0     C29646   8.315   6.642   7.408 -0.1648 -0.6039  0.2170
  983MOL0     C29647   8.215   6.533   7.426  0.8541 -0.1106  0.2076
  983MOL0     O29648   8.280   6.399   7.418 -0.2330  0.3748 -0.3977
  983MOL0     C29649   8.191   6.300   7.394  0.6504 -0.0559 -0.8468
  983MOL0     C29650   8.236   6.179   7.339  0.1225  0.3940 -0.0215
  983MOL0     C29651   8.147   6.074   7.309  1.3483 -0.2094 -0.1901
  983MOL0     C29652   8.006   6.087   7.319 -0.4873 -0.9964 -0.0280
  983MOL0     C29653   7.920   5.974   7.274 -0.0011  0.1617 -2.0911
  983MOL0     O29654   7.783   5.990   7.295 -0.5855  0.1740  0.3503
  983MOL0     C29655   7.677   5.920   7.245 -0.0943  0.3653 -0.0542
  983MOL0     C29656   7.691   5.799   7.166 -1.0268 -0.2262  0.1286
  983MOL0     C29657   7.579   5.735   7.119 -0.7340 -0.1947 -0.3453
  983MOL0     C29658   7.453   5.788   7.128 -0.1284  0.1026 -0.1718
  983MOL0     O29659   7.349   5.723   7.070  0.7288 -0.6641 -0.6803
  983MOL0     C29660   7.230   5.797   7.072  0.4177 -0.3071 -0.2581
  983MOL0     C29661   7.121   5.715   7.003 -1.1899 -1.0730  0.7311
  983MOL0     C29662   6.986   5.796   6.993 -1.7207  0.7724  0.2701
  983MOL0     C29663   6.876   5.695   6.949 -0.0683  0.2819  0.1174
  983MOL0     C29664   6.731   5.735   6.979  1.0629 -0.0252  0.4685
  983MOL0     C29665   6.624   5.640   6.916 -0.1712 -0.1399  0.7596
  983MOL0     C29666   6.485   5.672   6.969 -0.1600 -0.5143 -0.4095
  983MOL0     C29667   6.373   5.593   6.903  0.2703  0.9872  0.2834
  983MOL0    Cl29668   6.380   5.422   6.949  0.0567 -0.3496  0.1026
  983MOL0     C29669   7.441   5.896   7.213  0.3828  0.3602  0.5864
  983MOL0     C29670   7.547   5.969   7.272  0.0866  0.0386 -0.2351
  983MOL0     O29671   7.971   5.865   7.243  0.4315  0.2498  0.3199
  983MOL0     C29672   7.960   6.207   7.377  0.5803 -0.6374  0.3678
  983MOL0     C29673   8.048   6.309   7.413  0.4014 -0.4291 -0.4089
  983MOL0     N29674   8.232   7.017   7.248  0.3782  0.3275  0.8330
  983MOL0     N29675   8.214   7.132   7.203 -0.3673  0.2140 -0.8544
  983MOL0     C29676   9.060   7.541   6.491 -0.1988  0.7425 -0.2121
  983MOL0     C29677   9.166   7.542   6.401 -0.8385 -0.5208 -0.6183
  983MOL0     C29678   9.443   7.438   6.041 -0.3687  0.5500  0.3728
  983MOL0     C29679   9.530   7.347   5.988  0.2477 -0.5083 -1.0742
  983MOL0     C29680   9.627   7.380   5.887 -0.1221  1.0489 -0.2762
  983MOL0     C29681   9.643   7.518   5.848 -0.4186  0.6107 -0.2123
  983MOL0     O29682   9.723   7.563   5.743  0.2420 -0.2506  0.1284
  983MOL0     C29683   9.847   7.490   5.709  0.0829  0.1838 -0.2530
  983MOL0     C29684   9.962   7.570   5.650 -0.2076  0.3609 -0.3762
  983MOL0     C29685   9.959   7.552   5.498  0.9627  1.2036  0.9631
  983MOL0     C29686  10.043   7.649   5.415  0.5354  0.4571  0.0298
  983MOL0     C29687  10.024   7.643   5.272  0.5184  0.1128  0.5154
  983MOL0     C29688   9.995   7.645   5.151 -0.2035  0.6820 -0.1714
  983MOL0     C29689   9.547   7.606   5.899 -0.5323 -0.1044  0.1721
  983MOL0     C29690   9.449   7.570   5.991 -0.1278  0.1520 -0.6493
  983MOL0     H29691   9.105   7.269   6.214 -0.3670  0.5157 -1.3494
  983MOL0     H29692   8.927   7.247   6.364  1.0781  0.4643 -5.3671
  983MOL0     H29693   8.757   7.271   6.598 -1.0890 -0.4261  0.4967
  983MOL0     H29694   8.733   7.345   6.441  2.4242  0.2853 -0.1242
  983MOL0     H29695   8.518   7.387   6.553 -1.3157 -1.3409  2.0300
  983MOL0     H29696   8.602   7.534   6.514  1.0063  0.8185  2.0714
  983MOL0     H29697   8.545   7.591   6.705  2.6752  1.3524 -0.9662
  983MOL0     H29698   8.694   7.517   6.768  0.0565 -2.4810  0.7853
  983MOL0     H29699   8.427   7.383   6.778 -0.6595  3.1465 -0.4214
  983MOL0     H29700   8.596   7.316   6.808  1.3159  1.3542  0.0381
  983MOL0     H29701   8.479   7.565   6.950  1.1094  1.4566  0.3870
  983MOL0     H29702   8.615   7.469   6.995 -0.8493  1.5752  1.5547
  983MOL0     H29703   8.446   7.282   7.039  0.4057  0.5883 -2.6772
  983MOL0     H29704   8.321   7.400   7.005 -0.7845  0.5860  2.5116
  983MOL0     H29705   8.512   7.397   7.249 -1.0389  0.7923  0.2394
  983MOL0     H29706   8.437   7.535   7.201 -0.0190  1.0554  0.3677
  983MOL0     H29707   8.216   7.398   7.236  2.3711  2.8655 -1.9736
  983MOL0     H29708   8.321   7.391   7.377  3.0747  4.5769 -1.1220
  983MOL0     H29709   8.468   7.155   7.420  0.2398 -0.7076  1.0138
  983MOL0     H29710   8.397   6.893   7.495 -1.1339 -1.6949  0.8008
  983MOL0     H29711   8.467   6.849   7.338  0.2130 -0.2022  2.2387
  983MOL0     H29712   8.216   6.783   7.273 -1.1093 -0.7468  0.2131
  983MOL0     H29713   8.169   6.806   7.437 -0.6074  0.4811 -0.0670
  983MOL0     H29714   8.385   6.610   7.330 -1.1736 -1.8410 -0.2156
  983MOL0     H29715   8.365   6.648   7.505  0.5685  2.7428 -0.2705
  983MOL0     H29716   8.134   6.553   7.356 -0.9857  0.9345  2.4777
  983MOL0     H29717   8.172   6.550   7.525 -1.6378  1.3990 -1.0256
  983MOL0     H29718   8.342   6.171   7.314 -0.0868  2.0728 -1.6445
  983MOL0     H29719   8.191   5.980   7.277 -0.8549 -1.0920 -0.7914
  983MOL0     H29720   7.786   5.749   7.151 -0.5994  0.4546  0.5280
  983MOL0     H29721   7.599   5.640   7.071 -0.6231 -0.1556 -0.3767
  983MOL0     H29722   7.233   5.897   7.028 -0.4671 -0.0537  0.2323
  983MOL0     H29723   7.193   5.788   7.174 -0.5282  0.4892 -0.5164
  983MOL0     H29724   7.101   5.632   7.072 -2.3136 -0.9381  0.5845
  983MOL0     H29725   7.146   5.677   6.904 -1.1807 -1.9814  1.0682
  983MOL0     H29726   6.995   5.889   6.936 -0.8444  0.4639 -0.0986
  983MOL0     H29727   6.976   5.819   7.100  2.0936 -0.1982  0.9784
  983MOL0     H29728   6.888   5.688   6.840  0.7103  0.5317  0.1769
  983MOL0     H29729   6.890   5.600   7.001 -2.1999 -0.2844 -0.2374
  983MOL0     H29730   6.708   5.838   6.948 -2.6768 -0.8413  0.0228
  983MOL0     H29731   6.722   5.718   7.087  4.5603 -0.8737  0.7547
  983MOL0     H29732   6.647   5.538   6.947 -1.2602 -1.1701 -1.5960
  983MOL0     H29733   6.613   5.644   6.807 -1.1420  0.1898  0.8626
  983MOL0     H29734   6.475   5.665   7.077 -0.5955  0.6149 -0.3660
  983MOL0     H29735   6.479   5.778   6.943 -0.1532 -0.8986 -2.1030
  983MOL0     H29736   6.377   5.612   6.795 -1.7109  0.9385  0.1582
  983MOL0     H29737   6.276   5.632   6.933 -0.2363 -1.3233  1.9604
  983MOL0     H29738   7.346   5.942   7.238 -0.4094  0.1217 -1.7189
  983MOL0     H29739   7.535   6.059   7.332 -0.1122 -0.1298 -0.0209
  983MOL0     H29740   7.853   6.223   7.390  0.2492  0.3513 -2.8011
  983MOL0     H29741   8.000   6.397   7.456 -1.5491 -1.9197  0.6134
  983MOL0     H29742   9.047   7.624   6.560  2.3943  0.0790  1.2296
  983MOL0     H29743   9.243   7.618   6.411 -0.6454 -0.9962  3.1840
  983MOL0     H29744   9.520   7.241   6.010 -1.8413 -0.1886 -0.2557
  983MOL0     H29745   9.677   7.294   5.844  0.5776  1.0808  0.4556
  983MOL0     H29746   9.814   7.407   5.646  0.5423 -0.7035  0.6574
  983MOL0     H29747   9.876   7.441   5.802 -0.0889 -1.3433 -0.9731
  983MOL0     H29748   9.941   7.675   5.674 -1.5745  0.2594 -1.0293
  983MOL0     H29749  10.059   7.533   5.686  0.4053  0.5450 -1.7465
  983MOL0     H29750   9.856   7.569   5.468  1.4748  1.9428 -0.4681
  983MOL0     H29751   9.981   7.449   5.470 -1.2167  0.9688 -0.0966
  983MOL0     H29752  10.045   7.747   5.465  3.8143  0.2594  0.5620
  983MOL0     H29753  10.148   7.624   5.438 -0.0589 -0.3276  2.1937
  983MOL0     H29754   9.985   7.654   5.045  1.8050 -1.2022 -0.5973
  983MOL0     H29755   9.543   7.705   5.855 -1.9425  0.6756  1.9187
  983MOL0     H29756   9.378   7.643   6.029 -0.8814  0.5982 -2.7406
  984MOL0     O29757   3.653   3.254   5.907  0.6351 -0.4053  0.2958
  984MOL0     C29758   3.659   3.154   5.838  0.5554 -0.4458  0.5605
  984MOL0     O29759   3.586   3.043   5.862 -0.4189 -0.3553 -0.0003
  984MOL0     C29760   3.478   3.052   5.952  0.1607  0.1164  0.7335
  984MOL0     C29761   3.480   2.972   6.063  0.2632 -0.6123  0.5235
  984MOL0     C29762   3.378   2.975   6.157 -0.0776  0.2196 -0.9057
  984MOL0     C29763   3.264   3.058   6.138  0.2302 -0.1287 -0.6713
  984MOL0     O29764   3.157   3.056   6.224  0.1359 -0.1615  0.2795
  984MOL0     C29765   3.021   3.090   6.197  0.0084  0.6019  0.1550
  984MOL0     C29766   2.939   3.084   6.327 -0.6391  0.1016  0.0249
  984MOL0     C29767   2.792   3.109   6.304  1.3846 -0.0269  0.0190
  984MOL0     C29768   2.715   3.106   6.435  0.1346 -0.2562  0.2179
  984MOL0     C29769   2.564   3.080   6.408  0.8080  0.4283  0.5539
  984MOL0     C29770   2.484   3.116   6.532 -0.1631 -0.9214 -0.5224
  984MOL0     C29771   2.338   3.148   6.499  0.8064 -0.6088 -0.4375
  984MOL0     C29772   2.266   3.052   6.408 -0.4415  0.9062  0.1237
  984MOL0     N29773   2.122   3.052   6.438 -1.0408  0.1750 -0.1000
  984MOL0     C29774   2.048   2.944   6.478 -0.4903  0.6211  0.3028
  984MOL0     C29775   1.924   2.991   6.505 -0.5863  0.6022 -0.4177
  984MOL0     C29776   1.818   2.898   6.534 -0.1096 -0.0177 -0.0195
  984MOL0     C29777   1.763   2.931   6.672 -0.0037  0.5418  0.9554
  984MOL0     C29778   1.675   2.806   6.708 -0.5381  0.0398  0.1343
  984MOL0     C29779   1.631   2.830   6.854  0.7732 -0.0729 -0.9242
  984MOL0     O29780   1.522   2.757   6.906 -0.6148  0.2600  0.1436
  984MOL0     C29781   1.397   2.801   6.888 -0.8967  0.0602 -0.1561
  984MOL0     C29782   1.324   2.767   6.779 -0.2694 -0.7181 -0.3276
  984MOL0     C29783   1.188   2.810   6.775  0.2036 -0.0954  0.6197
  984MOL0     C29784   1.135   2.906   6.868 -0.4663  0.0343 -0.3786
  984MOL0     C29785   1.003   2.957   6.831  0.6745  0.3177 -0.1816
  984MOL0     O29786   0.938   2.914   6.722 -0.2232 -0.3680 -0.0971
  984MOL0     C29787   0.832   2.980   6.674  0.5054  0.0291 -0.5038
  984MOL0     C29788   0.836   3.086   6.588 -0.2815 -0.6932  0.0847
  984MOL0     C29789   0.721   3.138   6.529  0.6375  0.3502 -0.3144
  984MOL0     C29790   0.594   3.073   6.558 -1.3295  0.4382  0.3989
  984MOL0     O29791   0.471   3.111   6.509  0.2684 -0.7869  0.5407
  984MOL0     C29792   0.464   3.122   6.358  0.1136  0.4014  0.7650
  984MOL0     C29793   0.363   3.226   6.293  0.4585  0.3935  0.2841
  984MOL0     C29794   0.309   3.206   6.156  0.1237  0.9201  0.8689
  984MOL0     C29795   0.207   3.090   6.148 -0.0136 -0.0908  0.4931
  984MOL0     C29796   0.107   3.104   6.032  0.2602 -0.0815 -0.7870
  984MOL0     C29797   0.010   2.985   6.013 -0.6439 -0.9014  0.1955
  984MOL0     C29798  -0.074   3.008   5.892  0.6205 -0.3824  0.4295
  984MOL0     C29799  -0.148   2.880   5.853  0.2148  0.1783  0.8230
  984MOL0    Cl29800  -0.035   2.741   5.836  0.0767 -0.0385  0.0114
  984MOL0     C29801   0.587   2.961   6.641  0.0237 -0.7741  0.0678
  984MOL0     C29802   0.705   2.922   6.710 -1.1002  0.3410  0.2049
  984MOL0     O29803   0.969   3.055   6.896 -0.8654  0.0751  0.2052
  984MOL0     C29804   1.221   2.945   6.978 -0.1463  0.5848 -0.9636
  984MOL0     C29805   1.354   2.898   6.981  0.0296  0.7470  0.6264
  984MOL0     N29806   1.925   3.133   6.487  0.4878 -0.1530 -0.6034
  984MOL0     N29807   2.042   3.164   6.445 -0.4484  0.3047  0.3313
  984MOL0     C29808   3.262   3.131   6.019 -0.6449 -0.2519  0.3257
  984MOL0     C29809   3.369   3.131   5.923  0.3810 -0.0572 -0.4125
  984MOL0     C29810   3.752   3.162   5.726  1.1102  0.1988 -1.3195
  984MOL0     C29811   3.826   3.050   5.694  0.1329 -0.4290 -0.3645
  984MOL0     C29812   3.902   3.054   5.575 -0.0362 -0.2212 -0.0607
  984MOL0     C29813   3.897   3.160   5.488  0.3398 -0.7847 -0.5272
  984MOL0     O29814   3.977   3.143   5.375  0.1589 -0.6223 -0.1904
  984MOL0     C29815   3.982   3.244   5.278  0.3751  0.0294 -0.2160
  984MOL0     C29816   4.103   3.216   5.186  0.6587 -0.0712 -1.0028
  984MOL0     C29817   4.103   3.328   5.075  0.5158  0.7477  0.1202
  984MOL0     C29818   4.210   3.319   4.966 -0.4122  0.4578 -0.4834
  984MOL0     C29819   4.341   3.302   5.031 -0.3687  0.5239 -0.0619
  984MOL0     C29820   4.448   3.290   5.087  0.2717  0.5802 -0.1924
  984MOL0     C29821   3.819   3.276   5.524  0.4773  0.0951 -0.3596
  984MOL0     C29822   3.743   3.277   5.645  0.3171 -0.5427  0.4741
  984MOL0     H29823   3.567   2.907   6.058  0.3040 -0.4877 -3.4815
  984MOL0     H29824   3.384   2.909   6.243  0.2067  2.1510  0.6572
  984MOL0     H29825   2.968   3.021   6.131 -1.0277  0.3686  1.1944
  984MOL0     H29826   3.000   3.191   6.160 -0.4562  0.2654 -0.5278
  984MOL0     H29827   2.983   3.152   6.400 -0.3186 -2.8180  2.7797
  984MOL0     H29828   2.954   2.985   6.372 -1.9200 -1.6128 -2.9862
  984MOL0     H29829   2.762   3.021   6.247 -2.7441  0.6113  0.9463
  984MOL0     H29830   2.758   3.191   6.241 -1.5297 -1.3682 -0.2834
  984MOL0     H29831   2.748   3.023   6.499  1.2500 -0.0562 -0.0741
  984MOL0     H29832   2.727   3.197   6.494  1.2811 -1.0521  1.2808
  984MOL0     H29833   2.549   2.974   6.386 -1.2608  0.4099  1.7585
  984MOL0     H29834   2.532   3.130   6.316 -0.1517  0.0364  0.6677
  984MOL0     H29835   2.534   3.200   6.580 -1.7496 -1.1305  1.6473
  984MOL0     H29836   2.494   3.029   6.597 -1.1934  0.1761  1.1781
  984MOL0     H29837   2.289   3.173   6.594  0.8998 -0.3367 -0.4608
  984MOL0     H29838   2.345   3.237   6.436  0.4088 -1.9428 -2.4720
  984MOL0     H29839   2.302   2.953   6.435  0.4685  1.5878  1.5948
  984MOL0     H29840   2.288   3.085   6.306  1.6914 -0.6253  0.0159
  984MOL0     H29841   2.093   2.845   6.486 -1.9085 -0.0572  0.2062
  984MOL0     H29842   1.859   2.797   6.536  1.7212  0.6775 -0.4975
  984MOL0     H29843   1.738   2.901   6.459  0.6892  2.8585 -0.8798
  984MOL0     H29844   1.699   3.019   6.665 -1.5960 -0.6930 -0.9657
  984MOL0     H29845   1.843   2.940   6.746 -0.3275  1.6213  1.1901
  984MOL0     H29846   1.587   2.809   6.643 -1.4671  0.3529  1.3782
  984MOL0     H29847   1.723   2.708   6.704  2.3259  1.3655 -0.2619
  984MOL0     H29848   1.605   2.936   6.859  0.3373 -0.2350  0.8259
  984MOL0     H29849   1.716   2.821   6.923 -0.5868  1.2359  1.0286
  984MOL0     H29850   1.344   2.706   6.692 -1.2874 -2.1516  0.3896
  984MOL0     H29851   1.129   2.763   6.698 -0.7992  1.6629  0.2755
  984MOL0     H29852   0.930   3.135   6.564 -2.5434  4.2364 -0.0010
  984MOL0     H29853   0.730   3.224   6.463 -0.1126  0.0323 -0.8482
  984MOL0     H29854   0.433   3.024   6.320 -1.2593  0.3914  1.8470
  984MOL0     H29855   0.567   3.138   6.323  0.1217  1.2545  1.1592
  984MOL0     H29856   0.406   3.325   6.306 -0.0825  0.4770  1.5736
  984MOL0     H29857   0.274   3.224   6.357 -0.1431 -3.8632 -0.3889
  984MOL0     H29858   0.383   3.180   6.080 -0.8640 -0.9495  0.4827
  984MOL0     H29859   0.253   3.293   6.122 -1.7073 -1.3253 -2.4224
  984MOL0     H29860   0.252   2.991   6.135  0.0827 -0.1190  1.0363
  984MOL0     H29861   0.155   3.092   6.244  0.7409 -1.7183  0.9626
  984MOL0     H29862   0.163   3.107   5.938  0.9772 -3.9544 -0.6501
  984MOL0     H29863   0.055   3.195   6.063 -0.3608 -0.7017  0.0180
  984MOL0     H29864  -0.043   2.978   6.108  0.9740 -0.6457  1.1662
  984MOL0     H29865   0.069   2.893   6.002  1.5030  0.5496 -1.3788
  984MOL0     H29866  -0.134   3.099   5.902  0.6767 -0.3817  0.7809
  984MOL0     H29867  -0.013   3.027   5.803 -2.6595  1.2923 -1.6590
  984MOL0     H29868  -0.192   2.889   5.753  1.5268 -1.5550  0.0309
  984MOL0     H29869  -0.221   2.874   5.935 -1.2089  1.8671 -0.2397
  984MOL0     H29870   0.492   2.909   6.653 -1.6794  2.4376  1.8187
  984MOL0     H29871   0.689   2.833   6.771  0.0504 -1.6053 -2.1386
  984MOL0     H29872   1.204   3.025   7.050 -2.5757 -2.0750  1.6720
  984MOL0     H29873   1.428   2.932   7.053  1.0712 -0.7626  0.3117
  984MOL0     H29874   3.169   3.182   5.999  0.1793  0.2237 -2.8953
  984MOL0     H29875   3.374   3.202   5.841  1.1404 -1.4776 -1.6445
  984MOL0     H29876   3.839   2.955   5.745  2.0424  1.6465  3.3568
  984MOL0     H29877   3.974   2.975   5.558 -2.1041 -2.8043  2.2331
  984MOL0     H29878   3.990   3.338   5.334  3.8584 -0.0616 -0.3508
  984MOL0     H29879   3.893   3.236   5.215  0.6987  0.9552 -0.8212
  984MOL0     H29880   4.201   3.226   5.233  0.4942 -2.3199 -0.0534
  984MOL0     H29881   4.104   3.113   5.150 -0.2973 -0.9107  1.1743
  984MOL0     H29882   4.103   3.427   5.122 -1.2768  1.2358 -0.8304
  984MOL0     H29883   4.007   3.309   5.026  1.6158 -0.1080 -1.7990
  984MOL0     H29884   4.186   3.234   4.902  0.3771 -0.0645 -0.0923
  984MOL0     H29885   4.212   3.406   4.899  1.0905  0.1291 -0.8924
  984MOL0     H29886   4.542   3.277   5.136  1.2828  0.5293 -2.0442
  984MOL0     H29887   3.810   3.366   5.463  0.9844  0.1859 -0.3044
  984MOL0     H29888   3.675   3.361   5.661  1.9622  1.8183 -3.5353
  985MOL0     O29889   4.333   3.104   9.215  0.2427  0.1165 -1.2367
  985MOL0     C29890   4.349   3.006   9.149 -0.7217 -0.5400 -0.3799
  985MOL0     O29891   4.269   2.894   9.140  0.3755 -0.6843 -0.0676
  985MOL0     C29892   4.147   2.886   9.202  0.2989  0.0047 -0.2196
  985MOL0     C29893   4.044   2.834   9.124 -0.3185 -1.0131 -0.0963
  985MOL0     C29894   3.915   2.825   9.170 -0.6722  0.1270  0.1096
  985MOL0     C29895   3.881   2.867   9.296 -0.5571  0.1826 -0.5345
  985MOL0     O29896   3.749   2.849   9.335  0.1056  0.3209  0.4135
  985MOL0     C29897   3.702   2.851   9.476 -0.3581 -0.7009  0.2968
  985MOL0     C29898   3.675   2.717   9.546  0.7657  0.3433  0.0165
  985MOL0     C29899   3.653   2.740   9.697 -0.1998 -0.3988  0.3876
  985MOL0     C29900   3.526   2.811   9.739 -0.4308  0.5930 -1.1428
  985MOL0     C29901   3.397   2.759   9.676 -0.3862  0.0556  0.2410
  985MOL0     C29902   3.268   2.772   9.765  0.1617 -0.2723 -0.6548
  985MOL0     C29903   3.255   2.918   9.818  0.1443  0.5182  0.4926
  985MOL0     C29904   3.141   2.931   9.930 -0.3509  0.7233 -0.0182
  985MOL0     N29905   3.009   2.880   9.886  0.0546 -0.1734  0.2991
  985MOL0     C29906   2.909   2.966   9.842 -0.2391  0.4411 -0.6636
  985MOL0     C29907   2.810   2.880   9.803  0.8619 -0.5325  1.2942
  985MOL0     C29908   2.676   2.931   9.754  1.0645 -0.4272 -0.2088
  985MOL0     C29909   2.665   2.950   9.608 -0.2305 -0.2625  0.5179
  985MOL0     C29910   2.643   2.808   9.542 -0.9445  0.5479  0.1322
  985MOL0     C29911   2.643   2.817   9.382  1.0289  0.3174  0.0788
  985MOL0     O29912   2.509   2.846   9.332  0.2882 -0.2932 -0.7370
  985MOL0     C29913   2.413   2.747   9.329 -0.3902  0.3027  0.0811
  985MOL0     C29914   2.443   2.617   9.349  0.0125 -0.1746  0.7821
  985MOL0     C29915   2.347   2.519   9.360  0.8132  0.6313  0.3719
  985MOL0     C29916   2.213   2.559   9.341  0.5218 -0.5561 -0.4648
  985MOL0     C29917   2.102   2.456   9.344  0.6800 -0.4503 -0.4704
  985MOL0     O29918   2.133   2.327   9.388 -0.1232  0.9645  0.3705
  985MOL0     C29919   2.026   2.241   9.423 -0.5226 -0.3754 -0.3543
  985MOL0     C29920   2.003   2.122   9.343 -0.1732  0.4842 -0.3034
  985MOL0     C29921   1.895   2.037   9.366 -0.0234 -0.0293  0.1176
  985MOL0     C29922   1.787   2.087   9.444 -0.4640  0.5408  0.2566
  985MOL0     O29923   1.687   1.992   9.455 -0.1478 -0.0217  0.2315
  985MOL0     C29924   1.550   2.047   9.464 -0.3996  0.8867  0.6175
  985MOL0     C29925   1.455   1.979   9.359  0.2235  0.8839 -0.2811
  985MOL0     C29926   1.307   2.026   9.361 -1.1952  0.4558  0.4948
  985MOL0     C29927   1.214   1.929   9.296  0.8489 -0.7637 -0.2907
  985MOL0     C29928   1.063   1.984   9.285 -0.1888  0.2131  0.1038
  985MOL0     C29929   0.963   1.880   9.241  0.5335 -0.3773  0.5673
  985MOL0     C29930   0.820   1.941   9.231 -0.8619  0.5678  0.7520
  985MOL0     C29931   0.752   1.975   9.363  0.1237 -0.3664  0.0867
  985MOL0    Cl29932   0.734   1.827   9.472 -0.1432 -0.0062 -0.4592
  985MOL0     C29933   1.805   2.209   9.519 -0.4338 -1.0177  0.5812
  985MOL0     C29934   1.926   2.283   9.513 -0.5707  0.2145 -0.1698
  985MOL0     O29935   1.989   2.489   9.301 -0.4394  0.1555 -1.0723
  985MOL0     C29936   2.181   2.697   9.321 -0.2450 -0.2884 -0.1307
  985MOL0     C29937   2.283   2.791   9.314 -0.5260 -0.5358 -0.3717
  985MOL0     N29938   2.838   2.753   9.841 -0.1363  0.5321 -0.1376
  985MOL0     N29939   2.959   2.753   9.892  0.4042  0.4642 -0.0087
  985MOL0     C29940   3.980   2.916   9.382 -0.4355  0.5091  0.9063
  985MOL0     C29941   4.110   2.935   9.330  0.1788  0.5423 -0.2818
  985MOL0     C29942   4.460   3.016   9.044  0.3298  0.8302 -0.6073
  985MOL0     C29943   4.532   3.129   9.011  1.3578 -0.1943 -0.0404
  985MOL0     C29944   4.621   3.135   8.900 -0.2043 -0.2959  0.4493
  985MOL0     C29945   4.633   3.021   8.826  0.0872  0.3017  0.1448
  985MOL0     O29946   4.715   3.001   8.714 -0.1240  0.0490 -0.2074
  985MOL0     C29947   4.855   3.019   8.730 -0.1698  0.7852  0.5251
  985MOL0     C29948   4.937   2.939   8.632  0.1637  0.7910 -0.0210
  985MOL0     C29949   5.083   2.979   8.602 -0.1959  0.4978  0.3610
  985MOL0     C29950   5.187   2.966   8.715  0.6376  0.5987 -0.0499
  985MOL0     C29951   5.303   3.041   8.679  0.7645  0.7551 -0.2201
  985MOL0     C29952   5.381   3.118   8.637 -0.1568 -0.6811 -0.1159
  985MOL0     C29953   4.563   2.899   8.864 -0.9866 -1.0217 -0.0192
  985MOL0     C29954   4.485   2.901   8.974 -0.3769 -0.8566  1.0410
  985MOL0     H29955   4.074   2.817   9.021  0.1529 -1.2185  0.0771
  985MOL0     H29956   3.838   2.788   9.104 -0.2930  1.1116 -0.9151
  985MOL0     H29957   3.607   2.904   9.465  0.6346  0.8696 -1.1885
  985MOL0     H29958   3.760   2.923   9.535  0.8380 -1.0752 -0.3935
  985MOL0     H29959   3.756   2.647   9.524  2.1849  1.6003  0.9834
  985MOL0     H29960   3.584   2.671   9.508  1.5552  0.5176 -2.2116
  985MOL0     H29961   3.737   2.800   9.736  2.0280 -2.5405 -0.8601
  985MOL0     H29962   3.662   2.647   9.754  0.4844  0.4573  1.7455
  985MOL0     H29963   3.522   2.802   9.848  0.2309 -1.8970 -1.2588
  985MOL0     H29964   3.533   2.917   9.714  2.0692  0.9937  0.8733
  985MOL0     H29965   3.413   2.655   9.647  2.0668 -0.2714  2.4178
  985MOL0     H29966   3.384   2.820   9.586  2.9010 -2.2264 -2.0001
  985MOL0     H29967   3.276   2.706   9.851 -0.1083 -1.1726 -1.3023
  985MOL0     H29968   3.184   2.746   9.700 -1.2288  0.7856  0.6470
  985MOL0     H29969   3.346   2.964   9.858  0.0763  0.2395  0.9752
  985MOL0     H29970   3.214   2.978   9.736 -2.7604 -1.8766 -0.0167
  985MOL0     H29971   3.127   3.038   9.950  0.1348  1.0419 -1.2907
  985MOL0     H29972   3.173   2.872  10.017 -2.9647  1.3551  1.4713
  985MOL0     H29973   2.908   3.074   9.847 -0.0889  0.4228  3.7682
  985MOL0     H29974   2.651   3.026   9.802 -0.7204  0.5278 -2.8132
  985MOL0     H29975   2.601   2.860   9.790  1.7823 -0.2825  1.7070
  985MOL0     H29976   2.758   2.999   9.578  1.6793 -1.4278  3.9779
  985MOL0     H29977   2.574   3.006   9.584  0.6442  0.7323 -0.5805
  985MOL0     H29978   2.720   2.739   9.578 -0.3348  2.2063  2.2225
  985MOL0     H29979   2.541   2.774   9.566 -1.5061  0.6476 -1.9559
  985MOL0     H29980   2.681   2.727   9.333  0.1577  0.4348 -0.8568
  985MOL0     H29981   2.704   2.905   9.357  0.7747  1.0879  1.9916
  985MOL0     H29982   2.543   2.576   9.356 -0.7665 -2.5982 -1.1402
  985MOL0     H29983   2.370   2.415   9.377 -1.0065 -0.1611 -1.6004
  985MOL0     H29984   2.081   2.082   9.280 -1.7067 -2.9213 -0.2275
  985MOL0     H29985   1.883   1.940   9.318  1.9294  0.0309 -0.6137
  985MOL0     H29986   1.562   2.154   9.445  3.5727  0.3519 -0.8056
  985MOL0     H29987   1.513   2.037   9.567  1.1789 -0.8390  1.0683
  985MOL0     H29988   1.449   1.872   9.379  2.2149  1.0754  1.6577
  985MOL0     H29989   1.501   1.997   9.261  2.0855  0.9894  0.5738
  985MOL0     H29990   1.304   2.128   9.321  1.4986  0.4709  0.1682
  985MOL0     H29991   1.279   2.039   9.466  0.3730 -1.4824  1.2160
  985MOL0     H29992   1.242   1.920   9.190 -0.6258  0.3307 -0.7948
  985MOL0     H29993   1.233   1.837   9.353  1.6670 -0.2589  0.2688
  985MOL0     H29994   1.072   2.055   9.203  2.3413 -0.4558 -0.2950
  985MOL0     H29995   1.041   2.031   9.382 -0.1576 -0.5497  0.4909
  985MOL0     H29996   0.963   1.796   9.311 -0.5956  0.9310  2.2260
  985MOL0     H29997   0.980   1.846   9.138 -0.7467  1.0167 -0.1485
  985MOL0     H29998   0.817   2.035   9.176 -0.5303  2.0131  3.0923
  985MOL0     H29999   0.762   1.861   9.183 -1.2310  0.5204  1.2773
  985MOL0     H30000   0.647   2.004   9.351  0.2817  0.8243  1.3757
  985MOL0     H30001   0.815   2.048   9.414  2.1340 -2.0299  0.1157
  985MOL0     H30002   1.729   2.249   9.584  0.4745  1.8856  0.0051
  985MOL0     H30003   1.942   2.374   9.571  1.2325  0.4785 -1.0008
  985MOL0     H30004   2.080   2.722   9.292 -0.1464  1.3541  0.8687
  985MOL0     H30005   2.250   2.894   9.305 -1.9668 -1.1338 -2.9669
  985MOL0     H30006   3.962   2.935   9.487  1.5962 -0.8313  1.5530
  985MOL0     H30007   4.188   2.982   9.389  0.0273 -0.3320  0.6506
  985MOL0     H30008   4.517   3.216   9.074 -1.8579 -1.8731  1.8254
  985MOL0     H30009   4.692   3.214   8.880  2.0191 -2.0419  1.0160
  985MOL0     H30010   4.893   2.999   8.830  0.2968  2.7283  0.7904
  985MOL0     H30011   4.871   3.126   8.712 -3.2116  1.1010 -0.9113
  985MOL0     H30012   4.945   2.838   8.675  1.2716 -1.4435 -4.7704
  985MOL0     H30013   4.899   2.937   8.529  1.3194  0.2738 -0.4555
  985MOL0     H30014   5.089   3.080   8.560  3.0650  0.7357  1.1164
  985MOL0     H30015   5.123   2.917   8.522 -0.4714  0.6977  0.0687
  985MOL0     H30016   5.142   3.017   8.801 -3.3012 -2.1185 -0.1960
  985MOL0     H30017   5.215   2.862   8.738 -0.6511  0.5284  1.3893
  985MOL0     H30018   5.457   3.183   8.598 -1.4432  0.7931 -0.2386
  985MOL0     H30019   4.586   2.810   8.806  0.4593  1.0366 -2.8429
  985MOL0     H30020   4.429   2.812   9.001 -1.0857 -0.4264  1.0183
  986MOL0     O30021   4.168   2.142   1.378 -0.1024  0.2549  0.0710
  986MOL0     C30022   4.112   2.214   1.300  0.3388  0.7368  0.7001
  986MOL0     O30023   4.166   2.289   1.207  0.5188 -0.0769 -0.6003
  986MOL0     C30024   4.298   2.293   1.170 -0.7243  0.5971  0.3900
  986MOL0     C30025   4.406   2.204   1.192  0.3837 -0.6700  0.1228
  986MOL0     C30026   4.532   2.223   1.142 -0.1201 -0.7603  0.5193
  986MOL0     C30027   4.563   2.340   1.071  0.7180 -0.8219 -0.3053
  986MOL0     O30028   4.687   2.373   1.026 -0.6006 -0.1005 -0.1062
  986MOL0     C30029   4.789   2.386   1.125 -0.1583 -0.2829 -0.3371
  986MOL0     C30030   4.915   2.298   1.090 -0.9897 -0.9799  0.2824
  986MOL0     C30031   5.034   2.353   1.167 -0.6046 -0.4398  0.7577
  986MOL0     C30032   5.056   2.308   1.313  0.5666  0.3940  0.4575
  986MOL0     C30033   5.182   2.374   1.371 -0.6652  0.3719  0.1212
  986MOL0     C30034   5.307   2.321   1.301  0.7316  0.4328  0.5280
  986MOL0     C30035   5.425   2.348   1.384  0.0149  0.5999 -0.0298
  986MOL0     C30036   5.543   2.241   1.371 -0.0934 -0.4145  0.5337
  986MOL0     N30037   5.650   2.290   1.470 -0.7824  0.2221  0.6065
  986MOL0     C30038   5.646   2.254   1.602 -0.4181  0.2572 -0.4257
  986MOL0     C30039   5.768   2.302   1.645  0.5172  0.2712  0.5018
  986MOL0     C30040   5.802   2.310   1.787 -0.5033 -0.3344 -0.2829
  986MOL0     C30041   5.910   2.214   1.840  0.4784 -0.2168 -0.0299
  986MOL0     C30042   6.038   2.209   1.757  0.2088 -0.3515  0.6802
  986MOL0     C30043   6.153   2.138   1.841 -0.1750  0.2704  0.6941
  986MOL0     O30044   6.114   2.009   1.879  0.3126  0.5757  0.1004
  986MOL0     C30045   6.116   1.966   2.017 -0.2140 -0.0561  0.4524
  986MOL0     C30046   6.098   2.051   2.127  0.3614 -0.4530 -0.3176
  986MOL0     C30047   6.059   2.000   2.246  0.2704  0.5020 -0.1214
  986MOL0     C30048   6.027   1.868   2.260 -0.5907 -0.2146 -0.6952
  986MOL0     C30049   5.959   1.820   2.379  0.6413  0.1323  0.7439
  986MOL0     O30050   5.877   1.912   2.437  0.2777  0.0974 -0.1996
  986MOL0     C30051   5.775   1.883   2.528 -0.5191  0.4429  0.2044
  986MOL0     C30052   5.736   1.997   2.604  1.0583 -0.1300  0.3916
  986MOL0     C30053   5.635   1.974   2.700  0.3116  0.0783  0.5548
  986MOL0     C30054   5.595   1.848   2.735  0.8359 -0.1474 -0.3259
  986MOL0     O30055   5.501   1.835   2.839 -0.1165 -0.3337  0.3840
  986MOL0     C30056   5.454   1.702   2.874 -0.0939 -0.2642 -0.5093
  986MOL0     C30057   5.352   1.721   2.996 -0.1140  0.2563  0.9881
  986MOL0     C30058   5.233   1.624   2.998 -0.3266  1.1556  0.9449
  986MOL0     C30059   5.111   1.665   3.075 -0.0098  0.2382  0.7127
  986MOL0     C30060   4.989   1.570   3.057 -0.1631  0.5902  0.3721
  986MOL0     C30061   4.902   1.576   3.179 -0.7271 -0.1759 -0.4193
  986MOL0     C30062   4.820   1.705   3.196  0.2170 -0.9894  1.0683
  986MOL0     C30063   4.686   1.704   3.274 -0.6835  0.5751  0.9357
  986MOL0    Cl30064   4.572   1.809   3.185 -0.2641 -0.0436  0.5136
  986MOL0     C30065   5.644   1.737   2.664  0.4097  0.1327  0.4011
  986MOL0     C30066   5.718   1.757   2.548  0.1653 -0.2022  0.6617
  986MOL0     O30067   5.972   1.703   2.415 -0.0367 -0.1822  0.2509
  986MOL0     C30068   6.064   1.780   2.157 -0.0514  0.1327  0.6653
  986MOL0     C30069   6.112   1.827   2.034  0.0904  0.2539 -0.0227
  986MOL0     N30070   5.825   2.371   1.544 -0.5242  0.5653 -0.6641
  986MOL0     N30071   5.757   2.359   1.436 -0.0777  0.4191 -0.6517
  986MOL0     C30072   4.458   2.432   1.044  0.3535 -0.4849  0.4087
  986MOL0     C30073   4.332   2.404   1.087 -0.0546 -0.2894 -0.8807
  986MOL0     C30074   3.960   2.203   1.309  0.4093 -0.0394  0.7163
  986MOL0     C30075   3.883   2.289   1.222 -0.8671  0.0825  0.0194
  986MOL0     C30076   3.745   2.289   1.214  0.2454  0.1541  0.6616
  986MOL0     C30077   3.669   2.205   1.301  0.1553 -0.2010 -0.0515
  986MOL0     O30078   3.532   2.201   1.297  0.1994  0.1679 -0.8793
  986MOL0     C30079   3.473   2.078   1.324  0.0036  0.0134  0.0598
  986MOL0     C30080   3.347   2.062   1.242  0.7867  0.5414  0.4499
  986MOL0     C30081   3.229   2.126   1.324  0.6218  0.2405 -0.5582
  986MOL0     C30082   3.102   2.077   1.265  0.4588  0.4827  0.6649
  986MOL0     C30083   3.038   2.154   1.158  0.1049  0.0945 -0.1041
  986MOL0     C30084   2.983   2.219   1.068 -0.2460 -0.0421 -0.1572
  986MOL0     C30085   3.744   2.113   1.388  1.1419  0.5551  0.2335
  986MOL0     C30086   3.888   2.109   1.384  0.3197 -0.3751 -1.0618
  986MOL0     H30087   4.391   2.118   1.256 -0.1811  0.1338  1.0954
  986MOL0     H30088   4.621   2.165   1.165 -0.1870 -1.2766 -0.4791
  986MOL0     H30089   4.745   2.363   1.223 -1.9531 -0.6792 -1.1937
  986MOL0     H30090   4.828   2.488   1.131  0.9022 -0.6929 -0.0190
  986MOL0     H30091   4.948   2.313   0.987  0.5419  1.3311  1.0080
  986MOL0     H30092   4.895   2.195   1.121  1.2455 -0.9587  2.0843
  986MOL0     H30093   5.033   2.462   1.162  0.0693 -0.3824  1.6286
  986MOL0     H30094   5.119   2.308   1.115 -1.9392 -1.9528 -0.2102
  986MOL0     H30095   4.966   2.342   1.364  0.7465  0.6902  0.5816
  986MOL0     H30096   5.048   2.201   1.330 -0.9176  0.1089 -1.7203
  986MOL0     H30097   5.186   2.339   1.475  1.7648 -0.0612 -0.0547
  986MOL0     H30098   5.188   2.482   1.354 -1.4913  0.1411 -1.8827
  986MOL0     H30099   5.321   2.359   1.200  0.6250 -1.4919 -0.2614
  986MOL0     H30100   5.292   2.213   1.291 -1.8471  0.7317  0.4742
  986MOL0     H30101   5.467   2.445   1.358 -0.0377  0.8510  0.7944
  986MOL0     H30102   5.402   2.356   1.491  1.8127  0.2916  0.4286
  986MOL0     H30103   5.584   2.234   1.270 -3.5406 -0.4139 -1.0190
  986MOL0     H30104   5.525   2.138   1.405 -0.1893 -1.4822 -2.4022
  986MOL0     H30105   5.562   2.206   1.652 -0.5067 -0.1196 -0.9365
  986MOL0     H30106   5.711   2.291   1.846 -0.1278 -1.5048 -0.0337
  986MOL0     H30107   5.845   2.407   1.812  0.6856  0.0735 -3.5170
  986MOL0     H30108   5.882   2.109   1.852  3.0783 -0.8458  1.1743
  986MOL0     H30109   5.926   2.245   1.944  0.6212 -1.5102  0.3477
  986MOL0     H30110   6.026   2.165   1.657  0.8588  0.3869  0.2728
  986MOL0     H30111   6.064   2.314   1.746  0.2674 -0.5316 -1.4470
  986MOL0     H30112   6.199   2.197   1.921 -1.2102  0.4308  1.1931
  986MOL0     H30113   6.229   2.129   1.763  0.1167 -1.3406  1.1391
  986MOL0     H30114   6.102   2.160   2.127 -0.6945 -0.3316  2.7019
  986MOL0     H30115   6.042   2.077   2.321  4.3516  2.3157 -0.7710
  986MOL0     H30116   5.777   2.095   2.584 -0.8045  1.3199  3.1457
  986MOL0     H30117   5.589   2.064   2.740 -0.0935  2.1924 -4.0085
  986MOL0     H30118   5.542   1.640   2.897  0.7707  0.4057 -1.9141
  986MOL0     H30119   5.400   1.651   2.794 -2.0701 -3.4867  2.5660
  986MOL0     H30120   5.302   1.817   2.998 -0.8815 -0.0823 -0.6177
  986MOL0     H30121   5.411   1.711   3.088  0.3239  0.5377  0.7413
  986MOL0     H30122   5.273   1.532   3.041 -2.4527 -0.3117 -0.0682
  986MOL0     H30123   5.199   1.595   2.899  2.6934 -0.8728  0.3828
  986MOL0     H30124   5.139   1.671   3.180  1.7085  0.3025  0.2781
  986MOL0     H30125   5.083   1.759   3.028 -2.5852 -1.1394 -0.7823
  986MOL0     H30126   5.033   1.470   3.049  0.8494  1.0927 -0.4892
  986MOL0     H30127   4.925   1.590   2.970  0.4107 -0.4204 -0.3004
  986MOL0     H30128   4.958   1.577   3.273 -0.5836 -1.3395 -0.4792
  986MOL0     H30129   4.840   1.487   3.170 -3.0230  1.2706  0.1664
  986MOL0     H30130   4.883   1.791   3.224 -2.2118  2.2547 -2.4283
  986MOL0     H30131   4.781   1.721   3.095 -0.5938  0.7784  1.6246
  986MOL0     H30132   4.699   1.741   3.376 -0.4085  0.2852  1.0076
  986MOL0     H30133   4.650   1.601   3.278  0.2001  0.2655  1.2768
  986MOL0     H30134   5.610   1.635   2.680 -1.1223  0.2880 -1.5356
  986MOL0     H30135   5.745   1.676   2.481  4.3476 -0.3003  2.1687
  986MOL0     H30136   6.039   1.675   2.174 -4.9230  1.1747  1.3351
  986MOL0     H30137   6.153   1.756   1.963  1.8144 -1.6949  2.7125
  986MOL0     H30138   4.490   2.524   0.996  0.2531 -0.3183  0.6539
  986MOL0     H30139   4.256   2.473   1.052  2.4634  2.4604 -1.3067
  986MOL0     H30140   3.930   2.354   1.149  0.3291 -1.6962 -0.8696
  986MOL0     H30141   3.694   2.357   1.148 -0.0107 -1.1428 -0.5350
  986MOL0     H30142   3.468   2.077   1.433  2.1765 -0.2835  0.2023
  986MOL0     H30143   3.542   1.998   1.295  0.1125 -0.2032  0.8914
  986MOL0     H30144   3.354   2.106   1.143  3.8494  0.4466  0.5395
  986MOL0     H30145   3.330   1.955   1.228  2.0053  0.6207 -2.3196
  986MOL0     H30146   3.234   2.235   1.336 -2.9230  0.4101  0.5968
  986MOL0     H30147   3.231   2.092   1.427  1.9116 -1.1324 -1.0002
  986MOL0     H30148   3.109   1.972   1.234 -1.1057  0.8747 -1.1740
  986MOL0     H30149   3.029   2.087   1.345 -0.0264 -1.0155  0.4330
  986MOL0     H30150   2.954   2.295   0.998 -0.0819 -0.0605 -0.2443
  986MOL0     H30151   3.686   2.047   1.452 -0.2405  2.7846  1.4313
  986MOL0     H30152   3.935   2.034   1.448 -0.6296  0.0700  0.2009
  987MOL0     O30153   6.333   8.015   7.604 -0.2931 -0.1275  0.5401
  987MOL0     C30154   6.412   8.017   7.697  0.1177  0.2112 -0.5899
  987MOL0     O30155   6.378   8.018   7.827  0.4220 -0.5079 -0.5209
  987MOL0     C30156   6.252   7.991   7.866 -1.0009 -0.4177 -0.5167
  987MOL0     C30157   6.245   7.982   8.008 -0.2336  0.2983  0.6101
  987MOL0     C30158   6.127   7.950   8.076 -1.0908  0.3639  0.3789
  987MOL0     C30159   6.017   7.901   8.005 -0.0698  0.0210  0.4093
  987MOL0     O30160   5.915   7.849   8.075 -0.1071 -0.4566  0.4472
  987MOL0     C30161   5.798   7.798   8.020 -0.8293  0.2517  0.0821
  987MOL0     C30162   5.693   7.769   8.123  0.1846 -0.0990 -0.1699
  987MOL0     C30163   5.551   7.788   8.066  0.3520  0.5205 -0.0793
  987MOL0     C30164   5.444   7.755   8.170 -0.5434 -1.1352  0.6320
  987MOL0     C30165   5.307   7.744   8.106 -0.2613  0.6311  0.3305
  987MOL0     C30166   5.290   7.627   7.999  1.3862 -0.3493 -0.2186
  987MOL0     C30167   5.134   7.590   7.982  0.4396 -1.0424 -0.4653
  987MOL0     C30168   5.045   7.714   7.945 -0.1562 -0.6221  0.5706
  987MOL0     N30169   4.981   7.761   8.067 -0.4348 -0.3642 -0.2210
  987MOL0     C30170   4.896   7.674   8.136  0.6444  0.2832  0.2336
  987MOL0     C30171   4.852   7.751   8.244  0.0374  0.3428 -0.4519
  987MOL0     C30172   4.753   7.706   8.351 -0.3412 -1.0137  0.7011
  987MOL0     C30173   4.616   7.779   8.342  0.1042  0.4296  0.4158
  987MOL0     C30174   4.521   7.728   8.441  0.8653  1.0664  0.0964
  987MOL0     C30175   4.385   7.790   8.426  0.3678  0.4801  0.6390
  987MOL0     O30176   4.293   7.687   8.473 -0.2168 -0.2640  0.1961
  987MOL0     C30177   4.157   7.722   8.475 -0.5712  0.1144  0.7395
  987MOL0     C30178   4.112   7.846   8.432 -0.3983  0.2111  0.1748
  987MOL0     C30179   3.976   7.875   8.443  0.5362 -0.5716 -0.3981
  987MOL0     C30180   3.883   7.781   8.493  0.4306  0.0900  0.9000
  987MOL0     C30181   3.742   7.816   8.511 -0.1528 -0.5169  0.4744
  987MOL0     O30182   3.648   7.721   8.482  0.1436  0.2353 -0.5268
  987MOL0     C30183   3.519   7.755   8.454  0.3893  0.2314  0.4880
  987MOL0     C30184   3.455   7.677   8.355  0.4501 -0.0411  0.2449
  987MOL0     C30185   3.320   7.697   8.320 -1.1306  0.6885  0.0617
  987MOL0     C30186   3.238   7.780   8.396  0.4060  0.0753  0.9543
  987MOL0     O30187   3.104   7.769   8.378 -0.0588 -0.2206 -0.1823
  987MOL0     C30188   3.021   7.806   8.484  0.3426  0.8575 -0.2467
  987MOL0     C30189   2.880   7.750   8.451  0.9334  0.1531  0.1266
  987MOL0     C30190   2.787   7.807   8.560 -0.1120 -0.6471  0.9082
  987MOL0     C30191   2.640   7.806   8.518 -0.1638 -0.2226  1.0946
  987MOL0     C30192   2.559   7.844   8.633  0.7545  0.7031 -0.2041
  987MOL0     C30193   2.413   7.796   8.624  0.3608  0.5591 -0.2715
  987MOL0     C30194   2.345   7.844   8.498 -0.1393 -0.1100  0.7613
  987MOL0     C30195   2.202   7.794   8.496  0.4310 -0.8262 -0.2307
  987MOL0    Cl30196   2.190   7.630   8.436 -0.0316 -0.1336 -0.1647
  987MOL0     C30197   3.303   7.864   8.489  0.3792  0.1627 -1.0471
  987MOL0     C30198   3.437   7.852   8.520  0.0732 -0.4268  0.9547
  987MOL0     O30199   3.718   7.941   8.533  1.0027  0.5429  0.9819
  987MOL0     C30200   3.927   7.652   8.523 -0.2557 -0.0489 -1.2982
  987MOL0     C30201   4.062   7.621   8.506  0.3452 -0.0043  0.6115
  987MOL0     N30202   4.913   7.878   8.235 -0.8274  0.5439  0.5699
  987MOL0     N30203   4.997   7.879   8.132 -0.5063  0.3605  0.1102
  987MOL0     C30204   6.024   7.906   7.865 -0.2950  0.4232 -0.0364
  987MOL0     C30205   6.141   7.947   7.797  0.4635  0.1544 -0.2596
  987MOL0     C30206   6.549   8.046   7.661  0.3878  0.3893 -0.8215
  987MOL0     C30207   6.595   8.079   7.532 -0.2595  0.1402 -0.5137
  987MOL0     C30208   6.729   8.112   7.508 -0.0350  0.0613 -0.3992
  987MOL0     C30209   6.825   8.105   7.610 -0.6177 -0.2735  0.0362
  987MOL0     O30210   6.960   8.129   7.589  0.1097 -0.0161 -0.2506
  987MOL0     C30211   7.033   8.071   7.481  0.2940 -0.6812 -0.0418
  987MOL0     C30212   7.176   8.032   7.519  0.0421 -0.7287 -0.5546
  987MOL0     C30213   7.273   8.161   7.506  0.7727  0.0708 -0.3291
  987MOL0     C30214   7.363   8.150   7.627  0.6485 -0.3367  0.7359
  987MOL0     C30215   7.472   8.254   7.624 -0.2524 -0.3614  0.5662
  987MOL0     C30216   7.571   8.326   7.628 -0.0944 -0.0046 -0.1283
  987MOL0     C30217   6.784   8.074   7.741 -0.0598  0.3612  0.6657
  987MOL0     C30218   6.646   8.036   7.766 -0.0833 -0.8614 -0.8988
  987MOL0     H30219   6.333   7.994   8.071  1.1045 -1.1349 -0.8723
  987MOL0     H30220   6.118   7.950   8.184 -1.0441 -1.7932  0.4189
  987MOL0     H30221   5.825   7.711   7.959  2.0397 -0.3466  2.0222
  987MOL0     H30222   5.763   7.873   7.949  3.7792  0.5570 -2.2639
  987MOL0     H30223   5.702   7.841   8.205 -1.8912  1.1654 -0.9833
  987MOL0     H30224   5.726   7.670   8.155 -0.6059  0.4750  2.7181
  987MOL0     H30225   5.537   7.727   7.976 -1.5203 -0.4335  0.8026
  987MOL0     H30226   5.540   7.893   8.039  0.0650  0.4598 -0.1989
  987MOL0     H30227   5.468   7.660   8.218 -1.0369 -0.4661  2.2434
  987MOL0     H30228   5.440   7.836   8.243 -0.9441 -0.6591  0.0916
  987MOL0     H30229   5.291   7.843   8.064  2.9444  1.1555  0.0957
  987MOL0     H30230   5.240   7.721   8.189  2.7675  0.5053  2.9150
  987MOL0     H30231   5.348   7.538   8.027  0.6556 -0.6859  0.2769
  987MOL0     H30232   5.327   7.649   7.899 -2.3825 -3.0594 -2.4959
  987MOL0     H30233   5.103   7.517   7.907 -2.2464  0.7720 -1.2540
  987MOL0     H30234   5.102   7.536   8.072  0.0920 -1.1744 -0.6662
  987MOL0     H30235   4.970   7.688   7.870 -0.7448 -1.8073  1.5235
  987MOL0     H30236   5.105   7.791   7.896 -1.0552  0.2211  0.7578
  987MOL0     H30237   4.868   7.582   8.086 -0.1995 -0.0987  1.3687
  987MOL0     H30238   4.808   7.716   8.445  2.2725 -0.6557 -0.7434
  987MOL0     H30239   4.734   7.600   8.334 -0.2596 -0.7328 -1.4456
  987MOL0     H30240   4.576   7.769   8.241 -1.9306  0.0723  1.1978
  987MOL0     H30241   4.629   7.887   8.350  0.1550  0.4360  0.2363
  987MOL0     H30242   4.508   7.619   8.432 -2.0597  1.5053 -3.9469
  987MOL0     H30243   4.555   7.762   8.539 -0.8231  0.1771  1.0387
  987MOL0     H30244   4.375   7.814   8.319  2.7702 -0.0803  0.2313
  987MOL0     H30245   4.369   7.883   8.481  1.0554 -0.0468  1.7472
  987MOL0     H30246   4.179   7.914   8.382  0.4532  1.1211  2.3981
  987MOL0     H30247   3.932   7.968   8.407 -1.4998 -2.0335 -1.9454
  987MOL0     H30248   3.513   7.602   8.303 -1.7454 -2.2546  0.8042
  987MOL0     H30249   3.262   7.643   8.245  1.0467  0.3245 -1.4570
  987MOL0     H30250   3.010   7.912   8.506 -0.9625  0.3202  1.9903
  987MOL0     H30251   3.061   7.757   8.573  1.5127 -0.5323 -1.4710
  987MOL0     H30252   2.873   7.642   8.440 -2.9903  0.4230 -2.2364
  987MOL0     H30253   2.851   7.791   8.353  2.0865 -1.0576 -0.7518
  987MOL0     H30254   2.812   7.914   8.562  1.6446 -0.9337 -1.5521
  987MOL0     H30255   2.808   7.754   8.653 -1.3052  0.1134  1.6302
  987MOL0     H30256   2.632   7.866   8.427  0.7884 -0.4706  0.8320
  987MOL0     H30257   2.618   7.700   8.500  1.3826 -0.4780  0.5713
  987MOL0     H30258   2.559   7.953   8.640  1.7034  0.8681 -2.1341
  987MOL0     H30259   2.615   7.813   8.722 -2.3794 -1.2421  1.3017
  987MOL0     H30260   2.343   7.825   8.703 -0.6181 -2.9479  0.3219
  987MOL0     H30261   2.414   7.687   8.627 -1.8049  0.4265 -2.0241
  987MOL0     H30262   2.340   7.953   8.500  1.0719 -0.0518  1.4994
  987MOL0     H30263   2.400   7.804   8.412 -1.2928  0.4071 -0.2544
  987MOL0     H30264   2.143   7.863   8.435  0.8627  0.1115  0.3890
  987MOL0     H30265   2.166   7.797   8.600  1.6400  1.9063  0.1750
  987MOL0     H30266   3.238   7.931   8.545  0.1011 -1.5211  0.7387
  987MOL0     H30267   3.477   7.916   8.597  0.3590  0.0708  0.3980
  987MOL0     H30268   3.860   7.574   8.557 -0.6290  0.9954  0.4783
  987MOL0     H30269   4.109   7.531   8.544  0.9716  0.1781  0.2797
  987MOL0     H30270   5.935   7.872   7.813 -0.0738  0.3189 -0.3486
  987MOL0     H30271   6.143   7.946   7.688 -1.0260  1.3061 -0.3259
  987MOL0     H30272   6.531   8.069   7.445  2.4938 -2.1231 -2.4390
  987MOL0     H30273   6.770   8.118   7.407  0.3001  3.7456 -0.1893
  987MOL0     H30274   7.037   8.137   7.393  0.0024 -0.8076 -0.1498
  987MOL0     H30275   6.988   7.976   7.453  1.7404 -0.4172 -3.8927
  987MOL0     H30276   7.186   7.990   7.619 -1.2835 -0.4405 -0.2905
  987MOL0     H30277   7.207   7.953   7.450  0.4381 -1.8839  0.9095
  987MOL0     H30278   7.215   8.254   7.503  0.5464 -0.0988 -1.8179
  987MOL0     H30279   7.335   8.164   7.416  0.5840 -0.5540 -0.4819
  987MOL0     H30280   7.305   8.154   7.719 -1.9570  4.3429 -0.8160
  987MOL0     H30281   7.410   8.051   7.628  0.5883 -0.3927 -0.4666
  987MOL0     H30282   7.663   8.380   7.634 -0.1902  0.2305 -0.7884
  987MOL0     H30283   6.861   8.084   7.817  2.8957 -0.2892 -2.0262
  987MOL0     H30284   6.620   8.006   7.867 -1.8455  0.7185 -0.8121
  988MOL0     O30285   3.714   1.579   3.537 -1.2467 -0.5708 -0.3399
  988MOL0     C30286   3.706   1.661   3.448 -1.0158 -0.2302 -0.3723
  988MOL0     O30287   3.609   1.679   3.358 -0.1519  0.7287 -0.0745
  988MOL0     C30288   3.491   1.601   3.370 -0.1150 -0.6650  0.3086
  988MOL0     C30289   3.426   1.590   3.496 -0.2462  0.1334 -0.4636
  988MOL0     C30290   3.307   1.526   3.502  0.6182 -0.0129 -0.6531
  988MOL0     C30291   3.254   1.468   3.382  0.3282 -0.0948 -0.2401
  988MOL0     O30292   3.138   1.403   3.414  0.0947  0.0390 -0.4318
  988MOL0     C30293   3.091   1.288   3.337 -0.0763  0.2440  0.3581
  988MOL0     C30294   2.977   1.207   3.407  0.0658 -0.0035 -0.7771
  988MOL0     C30295   2.964   1.066   3.334  0.5845 -0.7657  0.6254
  988MOL0     C30296   2.859   0.986   3.408 -0.5382  0.0982  0.7273
  988MOL0     C30297   2.820   0.856   3.337  0.9018 -0.1986 -0.3574
  988MOL0     C30298   2.721   0.787   3.431 -0.1757  0.1411  0.2330
  988MOL0     C30299   2.695   0.641   3.388  0.1928 -0.7919 -0.1173
  988MOL0     C30300   2.571   0.586   3.468 -0.5902  0.6094 -0.7700
  988MOL0     N30301   2.540   0.449   3.435  0.8780  0.5501  0.0534
  988MOL0     C30302   2.588   0.335   3.499 -0.0979 -0.5402  0.1908
  988MOL0     C30303   2.519   0.241   3.441 -0.5639  0.5468 -0.8317
  988MOL0     C30304   2.525   0.094   3.493  0.1516 -0.4505  0.5205
  988MOL0     C30305   2.423   0.058   3.599  0.7547  0.3250 -0.8188
  988MOL0     C30306   2.442  -0.098   3.629 -0.4984  0.0128 -0.0896
  988MOL0     C30307   2.338  -0.174   3.546  0.2137 -0.1657 -0.0326
  988MOL0     O30308   2.206  -0.134   3.581  0.0232  0.0384  0.1305
  988MOL0     C30309   2.106  -0.201   3.511  0.1791 -0.2045 -0.1034
  988MOL0     C30310   2.128  -0.286   3.396  0.1072  0.2273 -0.1244
  988MOL0     C30311   2.020  -0.350   3.338 -0.2302  0.5647 -0.3642
  988MOL0     C30312   1.895  -0.345   3.395  0.5898 -0.6280 -0.7148
  988MOL0     C30313   1.781  -0.424   3.336 -0.2741 -0.1541 -0.1916
  988MOL0     O30314   1.658  -0.396   3.383 -0.2472  0.7359  0.0406
  988MOL0     C30315   1.555  -0.453   3.320 -0.0282  1.7679 -0.0050
  988MOL0     C30316   1.486  -0.572   3.368 -0.4708 -0.4958  0.2819
  988MOL0     C30317   1.387  -0.636   3.298  1.0827  0.8465  0.0247
  988MOL0     C30318   1.342  -0.578   3.179 -0.5433 -0.5589 -0.0851
  988MOL0     O30319   1.237  -0.634   3.103  0.5582 -0.2460 -0.0538
  988MOL0     C30320   1.125  -0.545   3.091 -0.4221 -0.3613  0.5364
  988MOL0     C30321   1.087  -0.537   2.936  0.3683 -1.0548  0.8747
  988MOL0     C30322   0.972  -0.445   2.920  0.1462 -0.7648  0.6788
  988MOL0     C30323   0.841  -0.506   2.872 -0.0215 -0.3888 -0.1483
  988MOL0     C30324   0.747  -0.393   2.827  0.7843 -0.5749  0.3119
  988MOL0     C30325   0.610  -0.451   2.794 -0.3725 -0.1791  0.6949
  988MOL0     C30326   0.507  -0.338   2.783 -0.8878  0.1402  0.9422
  988MOL0     C30327   0.384  -0.376   2.701  0.5980 -0.9867 -0.2150
  988MOL0    Cl30328   0.314  -0.536   2.768  0.0275  0.0405 -0.1698
  988MOL0     C30329   1.415  -0.477   3.121  0.0121 -0.0654 -0.1462
  988MOL0     C30330   1.517  -0.411   3.195  0.1505  0.7608  0.1166
  988MOL0     O30331   1.810  -0.497   3.242 -0.2142  0.9837 -0.0936
  988MOL0     C30332   1.876  -0.273   3.518 -0.2947  0.0790  0.4234
  988MOL0     C30333   1.981  -0.202   3.575  0.4817 -0.2328 -0.0803
  988MOL0     N30334   2.435   0.286   3.343 -0.6949  0.0148 -0.9461
  988MOL0     N30335   2.455   0.411   3.339  0.1873  0.3184  0.0593
  988MOL0     C30336   3.317   1.471   3.253  0.2424  0.1898 -0.2314
  988MOL0     C30337   3.431   1.551   3.253  0.6083 -0.0706  0.0687
  988MOL0     C30338   3.824   1.744   3.420 -0.5768 -0.6193  0.0284
  988MOL0     C30339   3.947   1.712   3.474 -0.2577 -0.0773  0.0108
  988MOL0     C30340   4.061   1.795   3.452 -0.3921 -0.4609 -0.7046
  988MOL0     C30341   4.045   1.918   3.382  0.1057 -0.1185 -0.3028
  988MOL0     O30342   4.149   2.000   3.364 -0.1583 -0.0172 -0.5557
  988MOL0     C30343   4.278   1.942   3.338 -0.0424 -0.0293  0.4423
  988MOL0     C30344   4.384   1.978   3.445  0.4514 -0.3405 -0.6734
  988MOL0     C30345   4.410   2.130   3.473  0.3124 -0.1133  0.8346
  988MOL0     C30346   4.483   2.163   3.604 -0.6421 -0.4059  0.4399
  988MOL0     C30347   4.402   2.143   3.729 -0.3205 -0.2930  0.7007
  988MOL0     C30348   4.329   2.136   3.822 -0.3278  0.5168 -0.6050
  988MOL0     C30349   3.920   1.959   3.341  0.5318  0.0863  0.2517
  988MOL0     C30350   3.809   1.875   3.356 -0.7454  0.2649  0.6757
  988MOL0     H30351   3.471   1.641   3.580 -1.0433 -0.3546  0.2759
  988MOL0     H30352   3.261   1.529   3.600 -0.2012  0.3115 -1.0419
  988MOL0     H30353   3.174   1.219   3.322 -0.5220  0.1458 -1.9328
  988MOL0     H30354   3.056   1.328   3.241  1.9556  2.3003  0.3800
  988MOL0     H30355   2.888   1.270   3.399 -0.0674 -0.1104 -0.1897
  988MOL0     H30356   3.002   1.188   3.512  0.5966  1.7044 -0.5634
  988MOL0     H30357   3.055   1.006   3.336  1.6990  0.7192 -1.8294
  988MOL0     H30358   2.943   1.073   3.227 -0.2922 -3.1727  0.5835
  988MOL0     H30359   2.889   0.959   3.509 -0.5086 -0.6636  0.5233
  988MOL0     H30360   2.771   1.050   3.424  2.1653  4.3173  0.2320
  988MOL0     H30361   2.910   0.795   3.320  2.7078  2.3688 -0.5079
  988MOL0     H30362   2.770   0.884   3.244 -3.6000  3.6893  2.7901
  988MOL0     H30363   2.629   0.846   3.436 -0.0691  0.3936 -0.6148
  988MOL0     H30364   2.772   0.779   3.528  1.0077  0.0122 -0.3890
  988MOL0     H30365   2.681   0.632   3.280  1.8089 -0.6700 -0.3538
  988MOL0     H30366   2.782   0.579   3.410  1.5392 -0.3485 -3.6100
  988MOL0     H30367   2.479   0.642   3.449 -1.4755 -0.7569 -0.6946
  988MOL0     H30368   2.598   0.588   3.574 -0.1642 -0.4967 -0.8377
  988MOL0     H30369   2.660   0.322   3.580  2.1157 -1.0809 -1.7768
  988MOL0     H30370   2.622   0.059   3.530  0.0455 -3.5160 -1.6759
  988MOL0     H30371   2.490   0.029   3.413 -1.6810  0.9868  0.0841
  988MOL0     H30372   2.323   0.082   3.561  0.3652  0.8581  0.4914
  988MOL0     H30373   2.435   0.113   3.693 -0.3823  0.3770 -0.6873
  988MOL0     H30374   2.544  -0.136   3.627 -0.5162 -0.0622  0.4694
  988MOL0     H30375   2.407  -0.111   3.732  0.1715  2.7994  0.5855
  988MOL0     H30376   2.332  -0.283   3.553 -2.7114 -0.1550 -1.1213
  988MOL0     H30377   2.358  -0.151   3.441  0.6955 -0.0331  0.0846
  988MOL0     H30378   2.223  -0.281   3.344 -0.0221  0.5746 -0.3301
  988MOL0     H30379   2.049  -0.398   3.245  2.0849  0.8694  0.1353
  988MOL0     H30380   1.521  -0.613   3.462  2.2491 -1.6498 -1.1388
  988MOL0     H30381   1.343  -0.731   3.327 -0.3267  0.5365 -2.8561
  988MOL0     H30382   1.153  -0.450   3.137 -1.6570  0.4317 -0.3099
  988MOL0     H30383   1.033  -0.585   3.134 -1.2937 -0.7913 -1.5712
  988MOL0     H30384   1.067  -0.639   2.903  0.7097 -2.1441  3.6947
  988MOL0     H30385   1.174  -0.500   2.882  0.4363  0.4409  1.9361
  988MOL0     H30386   0.993  -0.365   2.848 -1.5503  1.5394  2.5641
  988MOL0     H30387   0.967  -0.399   3.020  0.6607  1.0522 -0.0909
  988MOL0     H30388   0.863  -0.572   2.787  0.2516  0.0629 -0.4342
  988MOL0     H30389   0.808  -0.572   2.953  0.2884  0.3703  0.6074
  988MOL0     H30390   0.782  -0.339   2.739  0.9805 -0.5860  0.3832
  988MOL0     H30391   0.749  -0.327   2.914 -3.9202 -3.1137  2.7423
  988MOL0     H30392   0.584  -0.511   2.881  1.5954 -4.1788 -1.2173
  988MOL0     H30393   0.616  -0.521   2.711  1.3021 -0.7489  1.2573
  988MOL0     H30394   0.474  -0.315   2.885 -0.1240 -0.6295  1.3836
  988MOL0     H30395   0.547  -0.249   2.734  1.5259 -1.4685 -0.2342
  988MOL0     H30396   0.410  -0.388   2.595 -5.1445  0.3926 -2.1454
  988MOL0     H30397   0.319  -0.289   2.705  1.0601 -0.6478 -0.0299
  988MOL0     H30398   1.380  -0.438   3.026  0.5466  2.0773  0.4799
  988MOL0     H30399   1.560  -0.325   3.147  1.6235 -0.1809 -0.3278
  988MOL0     H30400   1.773  -0.273   3.554 -0.8689 -0.3918 -1.1476
  988MOL0     H30401   1.964  -0.174   3.678  1.2010  0.4953 -0.1508
  988MOL0     H30402   3.262   1.431   3.169  1.5347  0.2239 -1.1230
  988MOL0     H30403   3.490   1.560   3.162 -0.3740 -2.2097 -0.8665
  988MOL0     H30404   3.967   1.630   3.543 -1.1625 -1.4887 -1.3431
  988MOL0     H30405   4.155   1.761   3.496 -0.7823  0.8620  1.2708
  988MOL0     H30406   4.313   1.983   3.243 -0.4621 -0.9097 -0.0973
  988MOL0     H30407   4.269   1.834   3.324  1.1749 -0.7279  4.0005
  988MOL0     H30408   4.341   1.931   3.534  2.0573 -1.2395 -0.3408
  988MOL0     H30409   4.478   1.935   3.411  1.3144  0.0022  1.1506
  988MOL0     H30410   4.324   2.197   3.466  2.5915  2.8173 -1.9901
  988MOL0     H30411   4.481   2.163   3.397  0.0417  0.4629  0.8276
  988MOL0     H30412   4.571   2.099   3.618 -2.1967 -2.4748  1.3275
  988MOL0     H30413   4.513   2.268   3.604  1.7901 -0.9689 -2.1278
  988MOL0     H30414   4.264   2.116   3.905  1.8649  2.0723  1.6446
  988MOL0     H30415   3.908   2.054   3.290 -0.1408 -0.7368 -1.1820
  988MOL0     H30416   3.708   1.898   3.321 -0.0610 -0.3895 -1.9601
  989MOL0     O30417   2.533   5.168   0.398  0.1630 -0.9682  0.7726
  989MOL0     C30418   2.527   5.202   0.517 -0.0010 -0.1764 -0.7376
  989MOL0     O30419   2.412   5.225   0.587 -0.1424  0.2590  0.7685
  989MOL0     C30420   2.291   5.205   0.522 -0.0061  1.3318  0.4340
  989MOL0     C30421   2.244   5.084   0.475  0.1342  0.2317 -1.0365
  989MOL0     C30422   2.125   5.072   0.405 -0.4903  0.2436 -0.5405
  989MOL0     C30423   2.046   5.185   0.379  0.1982  0.2652 -0.2504
  989MOL0     O30424   1.937   5.167   0.307 -0.1220  1.1271  0.4211
  989MOL0     C30425   1.867   5.279   0.247  0.0763  0.8262 -0.3946
  989MOL0     C30426   1.718   5.275   0.290  0.4165  0.3325 -1.0091
  989MOL0     C30427   1.648   5.390   0.224  0.2108 -0.0205  0.0344
  989MOL0     C30428   1.495   5.398   0.256 -0.1205  1.1785 -0.2230
  989MOL0     C30429   1.421   5.521   0.203  1.0026  0.6654  0.6959
  989MOL0     C30430   1.275   5.545   0.254 -0.3986  0.1223 -0.1409
  989MOL0     C30431   1.258   5.577   0.404 -0.3477  0.1947  0.8461
  989MOL0     C30432   1.125   5.509   0.458  0.1242 -0.6457 -0.6104
  989MOL0     N30433   1.139   5.366   0.486  0.3681 -0.1151 -0.4152
  989MOL0     C30434   1.042   5.270   0.485 -0.8690 -0.5250 -0.3685
  989MOL0     C30435   1.100   5.155   0.533 -0.3286 -0.1954 -0.1217
  989MOL0     C30436   1.048   5.017   0.517 -0.3082 -0.1681  0.2820
  989MOL0     C30437   0.919   5.003   0.587  0.0937  0.6826 -0.2720
  989MOL0     C30438   0.888   4.850   0.609 -0.1259 -0.0559 -0.5948
  989MOL0     C30439   0.743   4.832   0.648 -0.8554  0.2967 -0.2956
  989MOL0     O30440   0.647   4.896   0.570 -0.4665 -0.2896  0.1471
  989MOL0     C30441   0.525   4.896   0.624 -0.6355 -0.0798 -0.4298
  989MOL0     C30442   0.425   4.985   0.570  0.1864  0.5397 -0.3833
  989MOL0     C30443   0.297   4.988   0.628  0.3896  0.3278 -0.1423
  989MOL0     C30444   0.260   4.898   0.728 -0.1836 -0.9228 -0.1212
  989MOL0     C30445   0.126   4.907   0.793  0.0355  0.2517  0.3093
  989MOL0     O30446   0.039   4.988   0.740  0.2199  0.1886  0.5393
  989MOL0     C30447  -0.085   4.977   0.789  0.5565 -1.0565  0.5516
  989MOL0     C30448  -0.121   4.985   0.921  0.5295 -0.3874 -0.4519
  989MOL0     C30449  -0.255   4.961   0.960 -0.0562  0.0481  0.4477
  989MOL0     C30450  -0.366   4.952   0.871 -1.0990 -0.5426 -0.0968
  989MOL0     O30451  -0.494   4.941   0.909 -0.9789 -0.2493  0.3031
  989MOL0     C30452  -0.597   4.872   0.829  0.3060  0.3689 -0.6166
  989MOL0     C30453  -0.706   4.964   0.767 -1.0001 -0.8240 -0.0281
  989MOL0     C30454  -0.847   4.900   0.742  0.9978 -0.2775 -0.6317
  989MOL0     C30455  -0.842   4.755   0.694 -0.8973  0.2918  0.0755
  989MOL0     C30456  -0.965   4.727   0.598 -0.1310 -0.2368 -0.2987
  989MOL0     C30457  -1.098   4.738   0.673 -0.9456  0.7879  0.7366
  989MOL0     C30458  -1.205   4.720   0.571 -0.3120  0.1984 -1.3891
  989MOL0     C30459  -1.342   4.764   0.630  0.4036 -0.1258 -0.3354
  989MOL0    Cl30460  -1.416   4.643   0.736 -0.3412 -0.2950 -0.0879
  989MOL0     C30461  -0.320   4.952   0.740 -0.5562 -0.0853  0.5325
  989MOL0     C30462  -0.187   4.964   0.691 -1.3866 -0.1667 -0.7215
  989MOL0     O30463   0.104   4.814   0.871 -0.1660  0.1834 -0.2412
  989MOL0     C30464   0.360   4.818   0.780 -0.4570  0.4895  0.0876
  989MOL0     C30465   0.489   4.810   0.728 -0.2615  0.4872  0.0854
  989MOL0     N30466   1.230   5.181   0.566  0.8172 -0.0947 -0.6575
  989MOL0     N30467   1.245   5.300   0.534 -0.5219 -0.8416  0.0881
  989MOL0     C30468   2.095   5.311   0.420 -0.4418  0.2062 -0.3520
  989MOL0     C30469   2.215   5.315   0.494 -0.4431  0.3887  0.2343
  989MOL0     C30470   2.658   5.199   0.591  0.4069 -0.3416 -0.7762
  989MOL0     C30471   2.780   5.236   0.532  0.3833 -0.2726  0.3513
  989MOL0     C30472   2.901   5.234   0.596 -0.4188  0.0016  0.6928
  989MOL0     C30473   2.903   5.225   0.736 -0.0275 -0.0529 -0.5393
  989MOL0     O30474   3.015   5.257   0.810 -0.0601 -0.0720  0.2188
  989MOL0     C30475   3.131   5.296   0.733 -1.0168  0.8196  0.2675
  989MOL0     C30476   3.236   5.345   0.828 -0.2968 -0.9303  0.8343
  989MOL0     C30477   3.364   5.355   0.759 -0.3686  0.5919 -0.0742
  989MOL0     C30478   3.464   5.433   0.845  0.6013  0.1118 -0.4161
  989MOL0     C30479   3.468   5.578   0.831  0.0323 -0.0403 -0.7481
  989MOL0     C30480   3.481   5.698   0.824  0.5747 -0.3324 -0.0822
  989MOL0     C30481   2.784   5.183   0.802 -0.1711 -0.2896 -0.3846
  989MOL0     C30482   2.671   5.173   0.734  0.0100 -0.1272  1.1550
  989MOL0     H30483   2.300   5.000   0.516 -0.1744  1.1467  1.4530
  989MOL0     H30484   2.098   4.971   0.375 -0.6299  0.3931 -0.9166
  989MOL0     H30485   1.873   5.256   0.140  2.1153 -2.7828  0.3497
  989MOL0     H30486   1.925   5.372   0.254  4.1201 -1.5410  1.2409
  989MOL0     H30487   1.695   5.274   0.397 -3.9677  2.2629 -1.7234
  989MOL0     H30488   1.676   5.185   0.243  1.9806 -1.4270  0.8119
  989MOL0     H30489   1.653   5.387   0.115  1.9758  3.8772 -0.1609
  989MOL0     H30490   1.679   5.488   0.263 -2.2678 -0.2356  2.9292
  989MOL0     H30491   1.433   5.314   0.221  0.6968  0.8112 -0.8323
  989MOL0     H30492   1.487   5.385   0.364  1.6929 -2.6553 -0.3862
  989MOL0     H30493   1.413   5.499   0.096  1.0461 -2.1550  1.1975
  989MOL0     H30494   1.483   5.610   0.215  2.3588 -0.0349 -0.8607
  989MOL0     H30495   1.205   5.478   0.205 -0.6293  0.9419 -0.9612
  989MOL0     H30496   1.250   5.643   0.212  0.4178  0.4135  0.0317
  989MOL0     H30497   1.347   5.538   0.455  0.2987 -2.1692 -1.8050
  989MOL0     H30498   1.257   5.684   0.428  1.5295 -0.0999  2.5382
  989MOL0     H30499   1.049   5.523   0.381 -2.2050 -0.5325  1.5621
  989MOL0     H30500   1.084   5.564   0.544  1.5658 -2.1693  1.1164
  989MOL0     H30501   0.940   5.284   0.449 -0.8838  0.0641 -0.1225
  989MOL0     H30502   1.116   4.946   0.565  0.1651 -0.0440 -0.1934
  989MOL0     H30503   1.043   5.003   0.409 -0.5852 -0.6535  0.3549
  989MOL0     H30504   0.836   5.042   0.528 -2.2360 -3.5383 -0.1543
  989MOL0     H30505   0.904   5.049   0.686 -1.9143 -0.0207 -0.2107
  989MOL0     H30506   0.911   4.792   0.520 -0.5296 -2.6593  0.8903
  989MOL0     H30507   0.949   4.816   0.693  1.9575  2.2537 -1.0625
  989MOL0     H30508   0.734   4.871   0.750  0.8133  2.1717 -0.7984
  989MOL0     H30509   0.731   4.724   0.654 -1.5950  0.4504  2.7937
  989MOL0     H30510   0.461   5.051   0.492  1.0455  2.0091  1.2017
  989MOL0     H30511   0.225   5.052   0.579  1.0285 -0.2102 -1.8381
  989MOL0     H30512  -0.049   5.009   0.999  1.1398 -1.7549 -0.5699
  989MOL0     H30513  -0.282   4.965   1.065 -0.8572  2.1093  0.2063
  989MOL0     H30514  -0.647   4.808   0.902 -0.2913 -0.3237 -1.6072
  989MOL0     H30515  -0.550   4.802   0.759  0.1685 -2.4214  1.8845
  989MOL0     H30516  -0.657   5.019   0.685  1.5798  2.4197  3.2979
  989MOL0     H30517  -0.721   5.052   0.832  1.4093  0.4046 -0.9920
  989MOL0     H30518  -0.904   4.963   0.674 -1.1029 -0.6509  0.6928
  989MOL0     H30519  -0.896   4.904   0.840 -0.3250 -1.1636 -1.2360
  989MOL0     H30520  -0.755   4.746   0.628 -1.8146  1.1946 -1.2866
  989MOL0     H30521  -0.827   4.689   0.780  2.3324  0.5746 -0.1252
  989MOL0     H30522  -0.957   4.626   0.556  1.4224 -0.5209  0.6177
  989MOL0     H30523  -0.956   4.790   0.509  0.9019  2.4764  1.5959
  989MOL0     H30524  -1.108   4.836   0.720 -0.7319  0.3961  1.6253
  989MOL0     H30525  -1.090   4.659   0.748 -1.2954 -2.0393 -1.9574
  989MOL0     H30526  -1.181   4.780   0.482  2.8486  0.9271 -0.1873
  989MOL0     H30527  -1.208   4.615   0.539 -0.5160  0.7939 -3.4947
  989MOL0     H30528  -1.403   4.775   0.539  0.8345  0.4654 -0.5529
  989MOL0     H30529  -1.324   4.857   0.685  3.3168 -0.3107 -0.8140
  989MOL0     H30530  -0.385   4.936   0.655  0.0184 -0.8287  0.2170
  989MOL0     H30531  -0.173   4.955   0.584 -2.5738 -3.7962 -0.6825
  989MOL0     H30532   0.335   4.754   0.864 -3.1787  2.3460  0.8096
  989MOL0     H30533   0.558   4.746   0.783  0.0773  0.4683 -0.3581
  989MOL0     H30534   2.045   5.407   0.421  1.8951  1.5106  0.5095
  989MOL0     H30535   2.242   5.417   0.522  0.6988 -0.0295  0.7025
  989MOL0     H30536   2.777   5.254   0.425 -1.2245 -0.5037  0.3272
  989MOL0     H30537   2.988   5.266   0.540 -0.8388 -1.9577 -1.1712
  989MOL0     H30538   3.108   5.374   0.660 -0.1363  0.3639 -0.5248
  989MOL0     H30539   3.179   5.212   0.681  3.0180  3.2134 -0.3566
  989MOL0     H30540   3.201   5.443   0.862  0.3625 -0.2484 -0.3625
  989MOL0     H30541   3.236   5.282   0.917 -0.5934 -2.5267 -0.2530
  989MOL0     H30542   3.356   5.427   0.677 -1.3865 -1.1992 -1.6188
  989MOL0     H30543   3.395   5.254   0.734 -1.9160  0.1129 -0.1527
  989MOL0     H30544   3.448   5.405   0.950  0.0807 -2.1459 -1.0438
  989MOL0     H30545   3.559   5.392   0.810 -0.2630 -1.5069 -0.9774
  989MOL0     H30546   3.511   5.800   0.817 -1.1790  0.1238 -1.9485
  989MOL0     H30547   2.772   5.193   0.910 -2.0920  3.1432 -0.7877
  989MOL0     H30548   2.577   5.164   0.788 -0.6330 -0.4564  0.0114
  990MOL0     O30549   2.777   0.624   3.894  0.1520 -0.0449  0.0073
  990MOL0     C30550   2.827   0.545   3.812 -0.5167  0.2508 -0.0068
  990MOL0     O30551   2.802   0.414   3.788 -0.1527  0.0584 -0.3744
  990MOL0     C30552   2.694   0.350   3.854  0.3449  0.3114  0.5786
  990MOL0     C30553   2.714   0.208   3.859 -0.4984 -0.6852 -0.5129
  990MOL0     C30554   2.617   0.122   3.917 -0.0938  0.3970 -0.0613
  990MOL0     C30555   2.503   0.176   3.973  0.3976 -0.4399  0.2181
  990MOL0     O30556   2.403   0.084   4.020 -0.3620  0.1743  1.0036
  990MOL0     C30557   2.323   0.125   4.134  0.4691 -0.1014 -0.1717
  990MOL0     C30558   2.265   0.005   4.206  0.0570  0.1312  0.5827
  990MOL0     C30559   2.213   0.038   4.353  0.2455 -0.1810 -0.7415
  990MOL0     C30560   2.084   0.118   4.350  0.0560  0.3026 -0.3934
  990MOL0     C30561   1.961   0.029   4.360 -0.4502 -0.1575 -0.4449
  990MOL0     C30562   1.828   0.100   4.346  0.6630 -0.1231 -0.2784
  990MOL0     C30563   1.783   0.167   4.473  0.1811 -0.4091 -0.4410
  990MOL0     C30564   1.681   0.279   4.444 -0.2214  0.6902  0.2815
  990MOL0     N30565   1.553   0.229   4.388 -0.1822 -0.5342  0.0578
  990MOL0     C30566   1.519   0.216   4.258 -1.3006 -1.0915 -0.0717
  990MOL0     C30567   1.407   0.137   4.265 -0.1510 -0.3327 -0.2165
  990MOL0     C30568   1.321   0.086   4.154  0.8320  0.5308  0.6022
  990MOL0     C30569   1.299  -0.071   4.163 -0.5413 -0.0526  0.1882
  990MOL0     C30570   1.260  -0.141   4.035  0.1536  0.9377  0.2302
  990MOL0     C30571   1.277  -0.293   4.032  0.3369  0.8093  0.3932
  990MOL0     O30572   1.190  -0.358   4.129  0.1028  0.0437  0.3240
  990MOL0     C30573   1.057  -0.386   4.115  0.4752  0.0574  0.9740
  990MOL0     C30574   0.988  -0.390   3.993 -0.6697 -0.3948  0.0435
  990MOL0     C30575   0.850  -0.398   3.984 -0.4779 -0.3035 -0.0285
  990MOL0     C30576   0.772  -0.425   4.102  0.3863 -0.1765  0.0516
  990MOL0     C30577   0.623  -0.437   4.085  0.4730 -0.0380 -0.3404
  990MOL0     O30578   0.553  -0.406   4.193  0.6702 -0.5349 -0.3169
  990MOL0     C30579   0.416  -0.420   4.170 -0.2354  0.4361 -1.1439
  990MOL0     C30580   0.338  -0.327   4.105 -0.1637  0.5029  0.5878
  990MOL0     C30581   0.201  -0.343   4.069  0.4186  0.0383 -0.1786
  990MOL0     C30582   0.140  -0.450   4.122 -0.4027 -0.5131  0.6388
  990MOL0     O30583   0.003  -0.452   4.106  0.0781  0.2300 -0.5545
  990MOL0     C30584  -0.067  -0.552   4.175 -0.3176 -0.3293  0.3699
  990MOL0     C30585  -0.214  -0.517   4.153  0.4600  0.5510 -0.3784
  990MOL0     C30586  -0.292  -0.637   4.191 -0.1461  0.5767  0.0242
  990MOL0     C30587  -0.445  -0.614   4.204  0.1366  0.4412 -0.3438
  990MOL0     C30588  -0.530  -0.750   4.230  0.5288 -1.2395  0.1759
  990MOL0     C30589  -0.680  -0.706   4.256 -0.3716  0.3004  0.5595
  990MOL0     C30590  -0.754  -0.838   4.274  0.0476 -0.9029 -0.1413
  990MOL0     C30591  -0.901  -0.805   4.309 -0.8553 -0.2616  0.2227
  990MOL0    Cl30592  -0.964  -0.691   4.178  0.3410 -0.1071 -0.1973
  990MOL0     C30593   0.215  -0.548   4.185  1.3083 -0.7415  0.6609
  990MOL0     C30594   0.353  -0.536   4.195 -0.8589  0.4211  0.8283
  990MOL0     O30595   0.581  -0.468   3.973  0.1768  0.5449  0.2113
  990MOL0     C30596   0.842  -0.450   4.222  1.1904 -0.3461 -1.2062
  990MOL0     C30597   0.979  -0.415   4.229  0.0733  0.2408  0.1018
  990MOL0     N30598   1.368   0.126   4.395  0.1607 -0.2168 -0.5077
  990MOL0     N30599   1.455   0.181   4.471  0.0424 -0.4826  0.1797
  990MOL0     C30600   2.486   0.320   3.971 -0.5737 -0.1294 -0.3090
  990MOL0     C30601   2.575   0.411   3.903 -0.1599  0.2027  0.2064
  990MOL0     C30602   2.943   0.599   3.740  0.7609 -0.6343 -0.5819
  990MOL0     C30603   3.037   0.517   3.677 -0.9567  0.0991  0.8539
  990MOL0     C30604   3.143   0.579   3.606 -0.0255  0.1721  0.1490
  990MOL0     C30605   3.169   0.716   3.609 -0.6562 -0.3183  0.6852
  990MOL0     O30606   3.277   0.770   3.540  0.3845 -0.2587 -0.3192
  990MOL0     C30607   3.350   0.871   3.597  0.2677 -0.3969 -0.1142
  990MOL0     C30608   3.478   0.885   3.517  0.1667 -0.8618  0.0307
  990MOL0     C30609   3.562   1.007   3.566 -0.2234 -0.3669 -0.0009
  990MOL0     C30610   3.627   0.992   3.709  0.6788  0.2884  0.0363
  990MOL0     C30611   3.729   0.887   3.699 -0.1886  0.2139  0.0705
  990MOL0     C30612   3.808   0.802   3.689 -0.7324  0.3027 -0.8414
  990MOL0     C30613   3.077   0.798   3.668  0.1247  0.1073  0.3357
  990MOL0     C30614   2.968   0.742   3.733 -0.0514 -0.0436 -0.1323
  990MOL0     H30615   2.806   0.180   3.808 -0.5433 -0.1305 -0.9123
  990MOL0     H30616   2.630   0.014   3.918 -0.5466  0.3262  1.4286
  990MOL0     H30617   2.245   0.196   4.102  0.4623  1.0578  2.2167
  990MOL0     H30618   2.373   0.183   4.212 -3.1123  2.5253  0.4942
  990MOL0     H30619   2.339  -0.075   4.224  1.2605  1.0548 -0.1109
  990MOL0     H30620   2.179  -0.028   4.147 -0.0723  2.7917 -0.8425
  990MOL0     H30621   2.294   0.094   4.400 -0.3355 -0.2412  0.3604
  990MOL0     H30622   2.215  -0.048   4.421 -1.6037  1.5805  1.7041
  990MOL0     H30623   2.075   0.184   4.436 -0.9614 -1.8635  1.2457
  990MOL0     H30624   2.083   0.180   4.260  3.3468 -0.7113 -1.2918
  990MOL0     H30625   1.962  -0.017   4.459  0.0158 -0.0075 -0.3775
  990MOL0     H30626   1.961  -0.042   4.276 -2.8833 -1.8413  0.8581
  990MOL0     H30627   1.747   0.030   4.323 -1.3866  2.1085 -0.1530
  990MOL0     H30628   1.833   0.167   4.260  0.2566  0.5473  0.2165
  990MOL0     H30629   1.745   0.094   4.546 -0.1668 -1.0342 -1.2407
  990MOL0     H30630   1.870   0.217   4.516  0.8178 -0.1453 -1.9944
  990MOL0     H30631   1.731   0.352   4.380 -1.9871  0.5617 -1.3137
  990MOL0     H30632   1.640   0.322   4.536 -1.9372 -0.4350  0.0759
  990MOL0     H30633   1.571   0.243   4.166 -2.7555 -1.1740 -0.9600
  990MOL0     H30634   1.364   0.104   4.055  0.3216  0.9407  0.4523
  990MOL0     H30635   1.224   0.137   4.154  0.1263 -0.6993 -1.4298
  990MOL0     H30636   1.222  -0.091   4.238 -1.1379 -2.5213 -0.9873
  990MOL0     H30637   1.393  -0.118   4.195  0.7808  2.2142 -0.1006
  990MOL0     H30638   1.155  -0.117   4.014  0.9164  2.1433 -2.6262
  990MOL0     H30639   1.331  -0.099   3.964 -0.5499  0.7315 -0.6124
  990MOL0     H30640   1.374  -0.322   4.073  0.1234 -0.6979 -0.1222
  990MOL0     H30641   1.280  -0.333   3.930  1.1524  1.0758  0.3029
  990MOL0     H30642   1.044  -0.370   3.902 -1.6195  1.3782 -0.2141
  990MOL0     H30643   0.809  -0.396   3.883  1.7386 -1.9844 -1.0423
  990MOL0     H30644   0.389  -0.233   4.087  0.0458 -0.1347 -2.6515
  990MOL0     H30645   0.139  -0.272   4.015 -0.4904 -0.5516  0.0805
  990MOL0     H30646  -0.060  -0.538   4.283 -1.2205  2.9647  0.1241
  990MOL0     H30647  -0.050  -0.647   4.124 -2.9131 -0.5300 -0.2973
  990MOL0     H30648  -0.234  -0.488   4.050 -0.7882  1.3160  0.0593
  990MOL0     H30649  -0.239  -0.431   4.216 -0.7857  1.1083 -1.5865
  990MOL0     H30650  -0.263  -0.677   4.289 -2.1248  1.7264  1.1536
  990MOL0     H30651  -0.271  -0.718   4.121  0.1111  0.6337  0.0353
  990MOL0     H30652  -0.468  -0.543   4.284 -2.7563 -0.8561  0.0814
  990MOL0     H30653  -0.479  -0.553   4.120  0.7301  0.5351 -0.5239
  990MOL0     H30654  -0.491  -0.801   4.318  0.6966 -2.8481 -0.7942
  990MOL0     H30655  -0.521  -0.817   4.145 -4.1754  1.0924 -2.6429
  990MOL0     H30656  -0.708  -0.648   4.167  2.6687 -2.4546 -2.4795
  990MOL0     H30657  -0.683  -0.650   4.349 -1.9059  1.1345  0.0444
  990MOL0     H30658  -0.742  -0.898   4.183  0.5443 -1.5306  0.3220
  990MOL0     H30659  -0.707  -0.889   4.359  1.5727 -0.7546 -0.8731
  990MOL0     H30660  -0.907  -0.753   4.405 -0.6016 -0.9478  0.6154
  990MOL0     H30661  -0.975  -0.885   4.301 -1.4784  0.4888 -4.6098
  990MOL0     H30662   0.166  -0.639   4.219 -0.3064 -0.1357  0.0442
  990MOL0     H30663   0.419  -0.609   4.240  1.5937  2.4407  0.6732
  990MOL0     H30664   0.788  -0.465   4.315  1.6855 -1.3592 -1.0675
  990MOL0     H30665   1.030  -0.409   4.324  0.1223 -1.2245  0.1905
  990MOL0     H30666   2.388   0.350   4.007 -0.4078 -2.4588  2.3996
  990MOL0     H30667   2.561   0.518   3.892  2.9909  0.5571 -1.5731
  990MOL0     H30668   3.018   0.410   3.672  4.5306 -1.2064  0.5162
  990MOL0     H30669   3.204   0.514   3.544  1.7248  2.2641 -0.4198
  990MOL0     H30670   3.367   0.829   3.696 -1.6983  0.2534  0.5554
  990MOL0     H30671   3.292   0.964   3.596 -1.1265 -1.2390 -0.8655
  990MOL0     H30672   3.523   0.786   3.532 -2.9142 -1.9875  3.0250
  990MOL0     H30673   3.443   0.893   3.413  0.5607  0.6852 -0.0015
  990MOL0     H30674   3.505   1.100   3.573  1.3222  0.5185  2.1841
  990MOL0     H30675   3.640   1.036   3.495 -0.3602 -1.7477 -0.7539
  990MOL0     H30676   3.669   1.091   3.733  1.5921  0.1833 -1.0564
  990MOL0     H30677   3.558   0.957   3.786  1.2476 -0.5182  0.1963
  990MOL0     H30678   3.894   0.740   3.675 -0.8715  0.6461 -3.7767
  990MOL0     H30679   3.076   0.906   3.659 -0.6576  0.1688  1.0270
  990MOL0     H30680   2.889   0.801   3.778 -1.5910 -1.7520 -0.4949
  991MOL0     O30681   0.900   0.547   8.984 -0.3004 -0.7481 -0.2799
  991MOL0     C30682   0.891   0.493   8.879 -0.8972 -0.6174  0.2316
  991MOL0     O30683   0.803   0.384   8.841 -0.8457 -0.5396  0.2863
  991MOL0     C30684   0.747   0.315   8.948  0.7758 -0.6993 -0.5269
  991MOL0     C30685   0.637   0.383   9.009 -0.3540  0.2586  0.0376
  991MOL0     C30686   0.555   0.310   9.092  0.6827  0.0521 -0.2066
  991MOL0     C30687   0.592   0.177   9.135 -0.7202  0.2068  0.2375
  991MOL0     O30688   0.517   0.131   9.238 -0.4316 -0.2387  0.3939
  991MOL0     C30689   0.512  -0.013   9.258  0.0337 -0.4450 -0.6238
  991MOL0     C30690   0.403  -0.043   9.368  0.4787 -0.0418  0.0542
  991MOL0     C30691   0.261  -0.014   9.328 -0.7250  0.2044 -0.3617
  991MOL0     C30692   0.196  -0.123   9.235  0.1537 -0.3083  1.4748
  991MOL0     C30693   0.050  -0.098   9.214  0.7184 -0.8319 -0.3315
  991MOL0     C30694  -0.010  -0.188   9.105 -0.5547 -0.1931  0.4670
  991MOL0     C30695  -0.161  -0.155   9.067 -0.2180 -0.0210 -0.3098
  991MOL0     C30696  -0.207  -0.243   8.953 -0.5111 -0.2422  0.3305
  991MOL0     N30697  -0.233  -0.380   8.974  0.0231  0.1151 -0.6930
  991MOL0     C30698  -0.313  -0.422   9.070 -0.2543 -0.5116 -0.2559
  991MOL0     C30699  -0.301  -0.557   9.081  1.5493 -0.9742 -0.7296
  991MOL0     C30700  -0.361  -0.652   9.185  0.5244  0.1725 -0.3381
  991MOL0     C30701  -0.400  -0.797   9.140  0.4002  0.1542  0.0729
  991MOL0     C30702  -0.414  -0.897   9.254  0.2041 -0.1124 -0.2496
  991MOL0     C30703  -0.541  -0.876   9.336  0.4711 -0.5281 -0.0729
  991MOL0     O30704  -0.652  -0.905   9.243  0.4833  0.2740 -0.0295
  991MOL0     C30705  -0.782  -0.915   9.292 -0.5072  0.0094  0.4125
  991MOL0     C30706  -0.821  -0.904   9.430  0.0874 -0.0389 -0.0039
  991MOL0     C30707  -0.957  -0.896   9.461  0.4347 -0.1718 -0.2111
  991MOL0     C30708  -1.056  -0.919   9.364  0.2938  0.4538 -0.6085
  991MOL0     C30709  -1.201  -0.929   9.402 -0.6202  0.3428  0.1216
  991MOL0     O30710  -1.228  -0.957   9.537 -1.1086 -0.3507  0.4094
  991MOL0     C30711  -1.354  -0.955   9.585 -0.4392 -0.2008 -0.2054
  991MOL0     C30712  -1.383  -0.885   9.695 -0.2064  0.4771  0.4894
  991MOL0     C30713  -1.514  -0.886   9.740 -1.0681 -0.2536 -0.3836
  991MOL0     C30714  -1.620  -0.956   9.677 -0.1901  0.8121 -0.3353
  991MOL0     O30715  -1.749  -0.955   9.737  0.1901 -0.7505 -1.3943
  991MOL0     C30716  -1.857  -1.011   9.668 -0.8799 -1.0517  0.5766
  991MOL0     C30717  -1.988  -0.987   9.742 -0.0573 -0.2226  0.2625
  991MOL0     C30718  -2.100  -1.059   9.662 -0.5079  0.3862 -0.5139
  991MOL0     C30719  -2.243  -1.020   9.721  0.3420  0.4298 -0.1573
  991MOL0     C30720  -2.354  -1.104   9.652 -0.1057  0.3149 -0.2062
  991MOL0     C30721  -2.481  -1.091   9.739  0.1611 -0.4437  0.3853
  991MOL0     C30722  -2.595  -1.180   9.688 -0.0146  0.7802 -0.2881
  991MOL0     C30723  -2.727  -1.158   9.761 -0.6910  0.6128 -0.6811
  991MOL0    Cl30724  -2.853  -1.262   9.682 -0.2608 -0.1427 -0.0926
  991MOL0     C30725  -1.578  -1.032   9.573  0.2823 -0.4869  0.6734
  991MOL0     C30726  -1.449  -1.034   9.520  0.1782  0.3443  0.3462
  991MOL0     O30727  -1.287  -0.900   9.320 -0.3451  0.1298 -0.1617
  991MOL0     C30728  -1.020  -0.931   9.227  0.3167 -0.2827 -0.3410
  991MOL0     C30729  -0.887  -0.934   9.193 -0.2623 -0.1110  1.3537
  991MOL0     N30730  -0.201  -0.599   8.993  0.1852  0.1676  0.5534
  991MOL0     N30731  -0.166  -0.487   8.924  0.6293 -0.1027 -0.6256
  991MOL0     C30732   0.702   0.113   9.072 -1.3612 -1.2033 -0.2826
  991MOL0     C30733   0.772   0.177   8.968  0.0492 -0.5183  0.4847
  991MOL0     C30734   0.975   0.548   8.781 -1.1554  0.1677  0.1681
  991MOL0     C30735   1.066   0.648   8.812 -0.3511  0.1719  0.2585
  991MOL0     C30736   1.158   0.690   8.718 -0.7006  0.0776 -0.0217
  991MOL0     C30737   1.149   0.649   8.586 -0.2601 -1.2593 -0.4384
  991MOL0     O30738   1.237   0.706   8.493 -0.3762 -0.2682  0.3841
  991MOL0     C30739   1.377   0.721   8.521  0.6503 -0.6306 -0.1219
  991MOL0     C30740   1.462   0.715   8.394 -0.1948  0.2600  0.0895
  991MOL0     C30741   1.612   0.728   8.438 -0.7798  0.7022  0.0485
  991MOL0     C30742   1.714   0.751   8.320  0.2089 -0.2331 -0.1150
  991MOL0     C30743   1.704   0.642   8.213 -0.0480 -0.4794  0.3538
  991MOL0     C30744   1.702   0.558   8.121 -0.2249  0.5176  0.4262
  991MOL0     C30745   1.062   0.553   8.544  1.3086 -0.2609  0.6162
  991MOL0     C30746   0.966   0.512   8.645 -0.7681  0.3265 -0.2722
  991MOL0     H30747   0.608   0.487   8.997  1.8917  0.8251 -1.0113
  991MOL0     H30748   0.468   0.357   9.137  0.5355  1.0812 -1.5249
  991MOL0     H30749   0.606  -0.046   9.303 -0.1461 -0.0409  0.0581
  991MOL0     H30750   0.499  -0.058   9.159  0.3558  0.5759 -1.1419
  991MOL0     H30751   0.423   0.013   9.460  2.8770 -0.1346 -0.3489
  991MOL0     H30752   0.420  -0.149   9.392 -0.4576  0.0422  1.1915
  991MOL0     H30753   0.249   0.082   9.278  0.9071 -0.4204 -2.0645
  991MOL0     H30754   0.199  -0.012   9.419  0.3794 -0.0338  0.4122
  991MOL0     H30755   0.262  -0.113   9.148  0.2810 -0.9929  1.4793
  991MOL0     H30756   0.222  -0.221   9.277  0.9865 -0.5587  0.4302
  991MOL0     H30757   0.052   0.002   9.171  0.1183  0.0163  1.5037
  991MOL0     H30758  -0.013  -0.107   9.304  2.2939 -3.8019  0.6242
  991MOL0     H30759  -0.013  -0.291   9.140 -3.4198 -0.0631  0.9044
  991MOL0     H30760   0.061  -0.181   9.022  0.5196  0.7788  1.4306
  991MOL0     H30761  -0.230  -0.177   9.150  0.8520 -0.2842  0.5364
  991MOL0     H30762  -0.175  -0.051   9.036  1.5758  0.5765  0.7350
  991MOL0     H30763  -0.146  -0.240   8.862  0.9720 -3.4986  1.0651
  991MOL0     H30764  -0.297  -0.195   8.913  0.3040  2.1797  1.2540
  991MOL0     H30765  -0.381  -0.360   9.128  0.4015 -1.1229  1.2265
  991MOL0     H30766  -0.451  -0.608   9.229  0.0463 -0.2372 -0.8921
  991MOL0     H30767  -0.281  -0.659   9.260  1.1330 -0.4433 -1.0226
  991MOL0     H30768  -0.330  -0.832   9.063 -0.9684 -1.8878 -0.3295
  991MOL0     H30769  -0.497  -0.793   9.091 -1.0002  2.4421  2.7951
  991MOL0     H30770  -0.413  -0.998   9.211  0.9104 -0.5623  0.7718
  991MOL0     H30771  -0.324  -0.897   9.317  1.0206 -2.7374 -1.2488
  991MOL0     H30772  -0.541  -0.773   9.374  3.9548  0.4064 -2.1308
  991MOL0     H30773  -0.544  -0.950   9.417 -2.4032 -2.3021 -1.6300
  991MOL0     H30774  -0.746  -0.897   9.508  1.2631 -0.4958 -1.0628
  991MOL0     H30775  -0.997  -0.896   9.562 -1.7368 -0.0530 -1.0410
  991MOL0     H30776  -1.309  -0.820   9.741  0.5883  1.3184 -1.8103
  991MOL0     H30777  -1.546  -0.828   9.826 -1.9601  2.4403 -2.4142
  991MOL0     H30778  -1.847  -1.119   9.653 -1.0921 -1.6233  3.7839
  991MOL0     H30779  -1.868  -0.949   9.578 -0.2847  2.2856  2.6508
  991MOL0     H30780  -2.017  -0.882   9.741 -0.1138 -0.2372  0.3596
  991MOL0     H30781  -1.977  -1.011   9.848 -0.3701 -1.9189 -0.0678
  991MOL0     H30782  -2.086  -1.167   9.676  1.8943  0.8769  1.6063
  991MOL0     H30783  -2.083  -1.034   9.557  2.8134  0.7905 -0.0118
  991MOL0     H30784  -2.252  -1.033   9.829 -0.1961  2.1988  0.0421
  991MOL0     H30785  -2.265  -0.917   9.692 -2.6454 -0.5164 -1.6042
  991MOL0     H30786  -2.308  -1.201   9.633  1.1313  1.2834 -2.4889
  991MOL0     H30787  -2.384  -1.062   9.555  1.6307  2.1407 -0.0192
  991MOL0     H30788  -2.516  -0.988   9.735 -2.2709 -1.2373 -1.1320
  991MOL0     H30789  -2.464  -1.104   9.847  1.1245  2.9881  0.7579
  991MOL0     H30790  -2.615  -1.149   9.585  1.7339  1.3471 -0.4785
  991MOL0     H30791  -2.570  -1.285   9.701  0.7275  0.6534 -2.3661
  991MOL0     H30792  -2.757  -1.053   9.766  1.3201  1.1808  2.5572
  991MOL0     H30793  -2.715  -1.192   9.864  2.9027 -0.4540 -1.3161
  991MOL0     H30794  -1.650  -1.094   9.520  0.9862  0.1084 -1.0812
  991MOL0     H30795  -1.425  -1.101   9.438  1.1413  1.7544 -0.5915
  991MOL0     H30796  -1.094  -0.943   9.148  0.6624 -0.2880 -0.6642
  991MOL0     H30797  -0.866  -0.936   9.087 -0.7226 -0.9747  1.2779
  991MOL0     H30798   0.719   0.008   9.096  1.4562 -0.8190 -0.2720
  991MOL0     H30799   0.857   0.134   8.916 -0.5562 -0.8762 -0.2285
  991MOL0     H30800   1.072   0.684   8.915  0.7154  0.8877 -0.0414
  991MOL0     H30801   1.244   0.748   8.750  0.0825 -0.4517 -1.0942
  991MOL0     H30802   1.410   0.642   8.589  0.1502 -1.9593 -1.3753
  991MOL0     H30803   1.397   0.814   8.575 -3.8649 -0.7421  2.1808
  991MOL0     H30804   1.448   0.616   8.350  0.1684  0.1881  0.1350
  991MOL0     H30805   1.436   0.784   8.313  4.5631  0.3299 -1.6974
  991MOL0     H30806   1.635   0.645   8.504 -1.2585  2.2871  2.3377
  991MOL0     H30807   1.624   0.818   8.499  0.6695  1.4875 -1.3210
  991MOL0     H30808   1.700   0.848   8.271  0.2499  0.3461  0.9968
  991MOL0     H30809   1.813   0.755   8.366  0.6767 -1.8869 -0.8765
  991MOL0     H30810   1.717   0.489   8.040 -0.6065  1.2206 -0.2580
  991MOL0     H30811   1.060   0.517   8.442  2.3389  0.0214  0.4904
  991MOL0     H30812   0.890   0.442   8.612  1.8105 -2.3490 -0.9595
  992MOL0     O30813   1.909  10.090   4.413  0.4870  0.1637 -0.1239
  992MOL0     C30814   1.868  10.076   4.302  0.5950 -0.7001  1.1700
  992MOL0     O30815   1.736  10.075   4.270  0.5008  0.3911 -0.9150
  992MOL0     C30816   1.640  10.094   4.365  0.8877 -0.2601  0.3767
  992MOL0     C30817   1.647  10.202   4.457 -0.3344 -0.9203 -1.0584
  992MOL0     C30818   1.551  10.216   4.563  0.5611 -0.7197  1.0039
  992MOL0     C30819   1.442  10.132   4.576  0.7278 -0.0422  0.5657
  992MOL0     O30820   1.339  10.146   4.668 -0.8807  0.1857 -0.4751
  992MOL0     C30821   1.358  10.244   4.769  0.0531  0.0116  0.1172
  992MOL0     C30822   1.242  10.247   4.874 -0.7354 -0.4268 -0.9785
  992MOL0     C30823   1.107  10.273   4.797 -0.9061  0.1331 -0.3577
  992MOL0     C30824   1.002  10.272   4.905 -0.0483 -0.1113 -0.1663
  992MOL0     C30825   0.858  10.311   4.859  0.2705  0.0950  0.0299
  992MOL0     C30826   0.761  10.307   4.978 -0.7421 -1.3364 -0.3561
  992MOL0     C30827   0.622  10.336   4.933 -0.0297  0.6450 -0.0607
  992MOL0     C30828   0.526  10.329   5.054 -0.0146  0.1348  0.4799
  992MOL0     N30829   0.396  10.358   4.997 -0.4358 -0.1571  0.0768
  992MOL0     C30830   0.318  10.268   4.924 -0.1980  0.5777 -0.0583
  992MOL0     C30831   0.204  10.330   4.901  0.7814  0.6737 -0.3460
  992MOL0     C30832   0.080  10.275   4.836 -0.1766 -1.3820 -0.2390
  992MOL0     C30833  -0.040  10.360   4.879  0.6802  0.2279 -0.1719
  992MOL0     C30834  -0.169  10.288   4.855 -0.0942 -0.1000  0.3258
  992MOL0     C30835  -0.285  10.392   4.841 -0.8043  0.4144  0.4717
  992MOL0     O30836  -0.390  10.358   4.748 -0.6064  0.1650 -1.0374
  992MOL0     C30837  -0.509  10.429   4.766  0.2258  0.2768  0.5915
  992MOL0     C30838  -0.620  10.372   4.704  0.5389  0.5093 -0.4481
  992MOL0     C30839  -0.751  10.435   4.720  0.0716  0.3807  0.6542
  992MOL0     C30840  -0.759  10.555   4.789 -0.2047 -0.2443 -0.0223
  992MOL0     C30841  -0.882  10.627   4.798  0.0825  0.2250 -0.3686
  992MOL0     O30842  -0.987  10.569   4.733 -0.2420 -0.1768 -0.0297
  992MOL0     C30843  -1.116  10.621   4.729  0.1590  0.3772  0.0660
  992MOL0     C30844  -1.194  10.566   4.625  0.1874 -0.3109  0.1459
  992MOL0     C30845  -1.324  10.603   4.598 -0.6568 -0.3246 -0.1713
  992MOL0     C30846  -1.387  10.693   4.682 -0.0438  0.5243  0.7678
  992MOL0     O30847  -1.521  10.724   4.673 -0.2306 -0.2988  0.0343
  992MOL0     C30848  -1.596  10.622   4.610  0.1401  0.5368 -0.2067
  992MOL0     C30849  -1.745  10.656   4.641 -0.3659 -0.5030  0.1909
  992MOL0     C30850  -1.842  10.556   4.562 -0.0394  0.4130 -0.5563
  992MOL0     C30851  -1.982  10.611   4.585  0.5842  0.3482  0.0622
  992MOL0     C30852  -2.084  10.522   4.516 -0.1041  0.6523 -0.6428
  992MOL0     C30853  -2.226  10.579   4.504  0.2940  0.6478 -0.2507
  992MOL0     C30854  -2.231  10.711   4.425  0.1585 -0.4929 -0.2570
  992MOL0     C30855  -2.305  10.836   4.480 -0.5228  0.1545 -0.1559
  992MOL0    Cl30856  -2.191  10.914   4.588 -0.2207 -0.2961 -0.3965
  992MOL0     C30857  -1.307  10.766   4.777  0.3905 -0.3147  0.4567
  992MOL0     C30858  -1.173  10.723   4.798 -0.1849 -0.4469 -0.0165
  992MOL0     O30859  -0.887  10.731   4.857  0.4544  0.2330 -0.1927
  992MOL0     C30860  -0.640  10.606   4.850 -0.4949  0.9080 -0.3545
  992MOL0     C30861  -0.521  10.535   4.852  0.4599 -0.2336 -0.3482
  992MOL0     N30862   0.218  10.461   4.947 -0.8615  0.2814 -0.3962
  992MOL0     N30863   0.331  10.479   5.004 -0.0217  0.0348 -0.0901
  992MOL0     C30864   1.427  10.028   4.478 -0.4900  0.8806 -0.0974
  992MOL0     C30865   1.529  10.006   4.375 -0.6995 -0.7254  0.6476
  992MOL0     C30866   1.959  10.047   4.189 -0.6766  0.5496 -0.0797
  992MOL0     C30867   2.090   9.991   4.214  0.2193  0.0104  0.1319
  992MOL0     C30868   2.167   9.964   4.094 -0.8516 -0.4410 -0.0303
  992MOL0     C30869   2.123   9.999   3.967 -0.3100 -0.5385  0.4139
  992MOL0     O30870   2.212   9.980   3.860 -0.0655  0.1091 -0.0012
  992MOL0     C30871   2.214  10.066   3.750  0.0481  0.9071 -0.4487
  992MOL0     C30872   2.254  10.202   3.792  0.2516  0.1720  0.1472
  992MOL0     C30873   2.396  10.212   3.838 -0.8581  0.6255  0.1658
  992MOL0     C30874   2.462  10.341   3.795  0.0020 -0.2050  0.4133
  992MOL0     C30875   2.605  10.346   3.832 -0.0688  0.3504  0.2752
  992MOL0     C30876   2.723  10.362   3.853 -0.2407  0.6794 -0.2457
  992MOL0     C30877   1.996  10.053   3.950 -0.1403  0.0443  0.1855
  992MOL0     C30878   1.911  10.065   4.060 -1.2056 -0.5666  0.4828
  992MOL0     H30879   1.720  10.281   4.465 -2.0870  0.8154 -1.3179
  992MOL0     H30880   1.560  10.301   4.630  0.8971  0.3677 -0.3867
  992MOL0     H30881   1.359  10.343   4.722 -1.4397  1.0633  2.1401
  992MOL0     H30882   1.456  10.233   4.817 -0.0990  0.1273  0.4557
  992MOL0     H30883   1.278  10.322   4.945  3.2423 -0.2674 -2.8664
  992MOL0     H30884   1.231  10.148   4.918 -1.9276 -0.7189 -1.8866
  992MOL0     H30885   1.090  10.202   4.716  0.2875  0.5951 -1.0393
  992MOL0     H30886   1.111  10.369   4.745 -0.7443  0.6907  0.6517
  992MOL0     H30887   0.997  10.177   4.958  0.1514 -0.4408 -0.7295
  992MOL0     H30888   1.024  10.343   4.986 -0.6708  1.0830 -1.0163
  992MOL0     H30889   0.819  10.246   4.779 -0.3198  1.4906 -0.8624
  992MOL0     H30890   0.862  10.407   4.806  0.0894  0.5218  0.7703
  992MOL0     H30891   0.790  10.394   5.037  0.1768 -0.0708 -2.5401
  992MOL0     H30892   0.768  10.209   5.027  0.0436 -0.7940  0.6502
  992MOL0     H30893   0.618  10.438   4.896  0.0976  0.6944  0.0620
  992MOL0     H30894   0.589  10.267   4.855  1.3194 -1.4398  1.1034
  992MOL0     H30895   0.557  10.401   5.131  0.9211  1.3674 -1.0128
  992MOL0     H30896   0.524  10.233   5.108  0.6170  1.5799  3.2569
  992MOL0     H30897   0.338  10.164   4.900  0.2864  0.3432  1.2746
  992MOL0     H30898   0.063  10.171   4.866  0.8814 -1.6001 -0.3660
  992MOL0     H30899   0.097  10.280   4.728 -0.1413  0.7097 -0.1698
  992MOL0     H30900  -0.047  10.445   4.811 -1.3464 -1.0935 -1.7354
  992MOL0     H30901  -0.032  10.394   4.983 -0.3379 -3.7078  1.3772
  992MOL0     H30902  -0.162  10.233   4.760  1.0363 -1.2414  1.0342
  992MOL0     H30903  -0.179  10.218   4.938  2.3192  1.4165  2.0427
  992MOL0     H30904  -0.257  10.497   4.837 -0.8136  0.4093  0.2632
  992MOL0     H30905  -0.330  10.384   4.941  0.8765 -3.3289  1.0795
  992MOL0     H30906  -0.614  10.280   4.647  0.8778 -0.1439  0.6223
  992MOL0     H30907  -0.833  10.386   4.668  0.4509  1.4956 -1.0647
  992MOL0     H30908  -1.143  10.488   4.570  1.8264  0.1049  1.0259
  992MOL0     H30909  -1.379  10.560   4.515 -1.4002  0.0609  0.1078
  992MOL0     H30910  -1.563  10.524   4.644 -1.3483 -0.2343 -0.8961
  992MOL0     H30911  -1.590  10.630   4.501 -1.8834  1.7225 -0.2781
  992MOL0     H30912  -1.763  10.754   4.598  0.0816 -0.8868 -0.9024
  992MOL0     H30913  -1.768  10.656   4.748 -0.2426  0.5204  0.2295
  992MOL0     H30914  -1.836  10.457   4.607 -0.0954  0.2476 -0.9127
  992MOL0     H30915  -1.817  10.556   4.456  0.7765  0.8680 -0.3721
  992MOL0     H30916  -2.002  10.616   4.692 -0.2120  0.1776 -0.0733
  992MOL0     H30917  -1.981  10.712   4.544  1.6174 -0.5873 -2.4679
  992MOL0     H30918  -2.090  10.434   4.579 -1.4998  1.7663  0.8605
  992MOL0     H30919  -2.039  10.497   4.419  0.8007  0.4419 -0.1781
  992MOL0     H30920  -2.277  10.581   4.600 -0.8595  4.2563 -0.7748
  992MOL0     H30921  -2.278  10.508   4.439  1.4274 -0.6433  0.2233
  992MOL0     H30922  -2.131  10.743   4.396  0.9646 -0.1574  2.5509
  992MOL0     H30923  -2.278  10.677   4.332  2.6968 -0.7604 -1.5188
  992MOL0     H30924  -2.399  10.827   4.536  1.2397 -1.2337  2.8552
  992MOL0     H30925  -2.328  10.889   4.387 -4.5984 -2.1013 -0.6924
  992MOL0     H30926  -1.340  10.850   4.836  0.6423  1.2158 -1.4948
  992MOL0     H30927  -1.119  10.776   4.875  1.3046 -2.1205  0.1600
  992MOL0     H30928  -0.639  10.703   4.900  2.3624  0.4997  0.5187
  992MOL0     H30929  -0.439  10.573   4.912  0.7303 -1.2602 -0.0534
  992MOL0     H30930   1.342   9.961   4.473  1.0380 -1.1858  0.2107
  992MOL0     H30931   1.528   9.925   4.303  4.1925 -1.8443  1.4933
  992MOL0     H30932   2.117   9.958   4.313  0.5673  3.3860  1.2808
  992MOL0     H30933   2.271   9.934   4.099 -0.3851  1.1869  0.8942
  992MOL0     H30934   2.123  10.061   3.688  0.6215 -1.8178 -1.1831
  992MOL0     H30935   2.288  10.028   3.680 -0.1578 -0.4778  0.0628
  992MOL0     H30936   2.246  10.265   3.703 -1.6420 -0.9835 -0.5644
  992MOL0     H30937   2.187  10.237   3.871 -2.1776 -0.9779 -1.2896
  992MOL0     H30938   2.451  10.127   3.797 -1.0778  0.5534  0.0123
  992MOL0     H30939   2.401  10.207   3.947 -2.1232  3.1136  0.4114
  992MOL0     H30940   2.432  10.362   3.692 -0.7616  0.5007  0.7640
  992MOL0     H30941   2.413  10.424   3.846  0.0659  1.3330 -1.9092
  992MOL0     H30942   2.825  10.376   3.883 -0.5476  2.5897  0.0247
  992MOL0     H30943   1.965  10.099   3.856  3.1151  3.0447  0.3454
  992MOL0     H30944   1.807  10.093   4.047 -0.8263  1.7254  1.9169
  993MOL0     O30945   5.798   0.136   5.889  0.0267  0.2924  0.1770
  993MOL0     C30946   5.892   0.160   5.969 -0.4997 -0.7523  0.1977
  993MOL0     O30947   5.884   0.191   6.100  0.1745 -0.1516 -0.1946
  993MOL0     C30948   5.778   0.145   6.178  0.0975 -0.2733  0.1412
  993MOL0     C30949   5.792   0.068   6.294 -0.1845 -0.0953  0.1773
  993MOL0     C30950   5.682   0.039   6.374 -0.1940 -0.2851 -0.0169
  993MOL0     C30951   5.553   0.093   6.343 -0.3441 -0.8475 -0.0337
  993MOL0     O30952   5.443   0.071   6.411 -0.2999 -0.1103 -0.2305
  993MOL0     C30953   5.463   0.027   6.546 -0.1500 -0.5039 -0.0721
  993MOL0     C30954   5.333   0.047   6.625 -0.3820  0.2685 -0.4120
  993MOL0     C30955   5.226  -0.065   6.594 -0.4929 -0.0920 -0.0294
  993MOL0     C30956   5.097  -0.037   6.667  0.4711 -0.2667 -0.6489
  993MOL0     C30957   4.971  -0.107   6.617  0.4708 -0.6658 -0.3252
  993MOL0     C30958   4.844  -0.049   6.693  0.1506 -0.5061 -0.7837
  993MOL0     C30959   4.832  -0.089   6.841  0.3932  0.6407 -0.7009
  993MOL0     C30960   4.808  -0.242   6.868  0.5813 -0.3520 -0.1432
  993MOL0     N30961   4.672  -0.289   6.832  0.6175 -0.3843  0.0066
  993MOL0     C30962   4.568  -0.208   6.791 -0.3347  0.4106 -0.0884
  993MOL0     C30963   4.466  -0.303   6.765  0.2106 -0.6476  0.1512
  993MOL0     C30964   4.329  -0.274   6.712 -0.4269 -0.0699 -0.2348
  993MOL0     C30965   4.247  -0.397   6.677 -0.8785 -0.9639 -0.1864
  993MOL0     C30966   4.111  -0.343   6.626  0.2110  0.4040  0.4533
  993MOL0     C30967   4.037  -0.459   6.554  0.5201  0.1984  0.1344
  993MOL0     O30968   4.105  -0.515   6.439  0.1701  0.4641  0.2379
  993MOL0     C30969   4.061  -0.642   6.398 -1.1710 -0.7331 -0.5821
  993MOL0     C30970   3.930  -0.659   6.346 -0.6547 -0.2274 -0.0889
  993MOL0     C30971   3.894  -0.787   6.312  0.6626 -0.1121 -0.1607
  993MOL0     C30972   3.987  -0.895   6.306 -0.7868 -0.1818  0.1283
  993MOL0     C30973   3.953  -1.037   6.257 -0.3873 -0.7681  0.3166
  993MOL0     O30974   4.033  -1.143   6.291  0.1664  1.0772  0.5828
  993MOL0     C30975   4.018  -1.271   6.248  0.8392 -0.4126  0.1798
  993MOL0     C30976   3.977  -1.297   6.115  0.1737  1.0611  0.4408
  993MOL0     C30977   3.988  -1.429   6.068  0.9170  0.4961  0.2452
  993MOL0     C30978   4.009  -1.536   6.160 -0.4937 -0.3711  0.1889
  993MOL0     O30979   4.012  -1.664   6.117  0.1155  0.1568  0.1988
  993MOL0     C30980   3.897  -1.718   6.083  0.5271 -0.5346  0.2970
  993MOL0     C30981   3.926  -1.862   6.060 -0.8075  0.3454 -0.3719
  993MOL0     C30982   4.032  -1.939   6.151 -0.1171  0.1383 -0.3432
  993MOL0     C30983   4.016  -2.088   6.138 -0.7344  0.6903  0.3648
  993MOL0     C30984   4.134  -2.159   6.190 -0.4953 -0.2338  0.1725
  993MOL0     C30985   4.255  -2.148   6.097 -0.2039  0.0644  0.4062
  993MOL0     C30986   4.371  -2.233   6.143 -0.1578 -0.2035 -0.3001
  993MOL0     C30987   4.510  -2.215   6.074  0.3793  0.0509 -0.4710
  993MOL0    Cl30988   4.595  -2.068   6.130  0.0159  0.3678  0.0028
  993MOL0     C30989   4.040  -1.508   6.297  0.1944  0.0084  0.7595
  993MOL0     C30990   4.054  -1.377   6.330  0.7633  0.0912 -0.2056
  993MOL0     O30991   3.843  -1.052   6.206  0.0224  0.3044 -0.7826
  993MOL0     C30992   4.124  -0.868   6.338  0.2548  0.3820 -0.2865
  993MOL0     C30993   4.155  -0.747   6.395 -0.1605  0.3817  0.5646
  993MOL0     N30994   4.513  -0.433   6.804 -0.0932  0.4880  0.4454
  993MOL0     N30995   4.636  -0.424   6.843 -0.6417 -0.2614 -0.0492
  993MOL0     C30996   5.545   0.180   6.232  0.2777  0.0997  0.4858
  993MOL0     C30997   5.652   0.202   6.147 -0.3020  0.1296 -0.6668
  993MOL0     C30998   6.025   0.189   5.912  0.0856  0.7717 -1.2775
  993MOL0     C30999   6.120   0.262   5.980  0.5106 -0.1585 -0.7615
  993MOL0     C31000   6.250   0.284   5.932  0.4192 -0.6934 -0.8458
  993MOL0     C31001   6.291   0.219   5.815 -0.1623  0.0958  0.3714
  993MOL0     O31002   6.417   0.234   5.768 -0.7331 -0.2275 -0.0208
  993MOL0     C31003   6.456   0.201   5.633  0.5289  0.0453  0.2837
  993MOL0     C31004   6.488   0.047   5.617  0.5256  0.2265  0.1876
  993MOL0     C31005   6.629   0.017   5.668  1.0474 -0.1435  0.3514
  993MOL0     C31006   6.678  -0.115   5.611 -0.1351  1.6733  0.4160
  993MOL0     C31007   6.822  -0.143   5.649 -0.1715 -0.2606 -0.4919
  993MOL0     C31008   6.944  -0.165   5.667  0.5227  0.1855  0.0679
  993MOL0     C31009   6.189   0.147   5.736 -0.3157  0.1547  0.0147
  993MOL0     C31010   6.062   0.137   5.789 -0.7826  0.1152  0.8477
  993MOL0     H31011   5.892   0.030   6.314  0.1925 -0.9719 -2.8700
  993MOL0     H31012   5.692  -0.027   6.460 -0.8672  0.4150  0.6153
  993MOL0     H31013   5.536   0.093   6.596 -0.3798 -0.5643  0.3476
  993MOL0     H31014   5.497  -0.076   6.559 -0.0974 -0.4083  0.6107
  993MOL0     H31015   5.292   0.146   6.603  0.5311  0.9553  0.8458
  993MOL0     H31016   5.364   0.044   6.730  2.0103  0.5905 -1.0318
  993MOL0     H31017   5.265  -0.164   6.619 -2.3607 -0.5040  1.5173
  993MOL0     H31018   5.209  -0.048   6.487 -1.0842  1.9671  0.3464
  993MOL0     H31019   5.104  -0.079   6.768 -1.6344  0.7272 -0.0242
  993MOL0     H31020   5.085   0.071   6.681 -3.0017 -0.6746  0.4629
  993MOL0     H31021   4.972  -0.217   6.622  0.4676 -0.6134  1.4357
  993MOL0     H31022   4.966  -0.079   6.512  1.2089  0.6195 -0.0331
  993MOL0     H31023   4.751  -0.067   6.638  0.3763 -0.2677 -1.2465
  993MOL0     H31024   4.843   0.059   6.676 -0.7521 -0.8738 -3.5075
  993MOL0     H31025   4.913  -0.067   6.911  1.6649 -3.4499 -0.6580
  993MOL0     H31026   4.751  -0.022   6.874 -1.7494 -1.4973 -1.3735
  993MOL0     H31027   4.805  -0.260   6.976 -4.0363 -3.2325 -0.4712
  993MOL0     H31028   4.875  -0.308   6.812  0.2933  1.0013 -2.2263
  993MOL0     H31029   4.573  -0.102   6.772 -2.4318  0.3351 -1.3098
  993MOL0     H31030   4.342  -0.215   6.620  1.1471  1.1684  0.7313
  993MOL0     H31031   4.278  -0.203   6.777  1.5168  0.9021  0.3095
  993MOL0     H31032   4.235  -0.458   6.767  2.9599 -1.1733  0.3405
  993MOL0     H31033   4.302  -0.449   6.599 -0.3422  0.7096 -0.9786
  993MOL0     H31034   4.066  -0.302   6.717 -1.0208  3.2654 -1.3282
  993MOL0     H31035   4.129  -0.256   6.563  1.6908 -0.4105 -0.2916
  993MOL0     H31036   3.941  -0.424   6.513  0.4424 -1.2783 -1.0332
  993MOL0     H31037   4.010  -0.535   6.628  1.5303  0.0193  0.3307
  993MOL0     H31038   3.867  -0.572   6.333 -0.5812 -0.3859 -1.6571
  993MOL0     H31039   3.791  -0.803   6.280  0.6337 -2.4417  0.8461
  993MOL0     H31040   3.942  -1.228   6.039  1.3221  4.5816  2.8582
  993MOL0     H31041   3.974  -1.448   5.962  0.4417 -0.5081  0.4772
  993MOL0     H31042   3.862  -1.682   5.986  2.0131  0.9668  0.2792
  993MOL0     H31043   3.823  -1.711   6.163 -2.4351 -0.3748 -2.2332
  993MOL0     H31044   3.972  -1.874   5.962 -1.9543  1.2999 -1.0490
  993MOL0     H31045   3.832  -1.917   6.053 -0.8827  0.5114 -0.6663
  993MOL0     H31046   4.026  -1.918   6.258 -0.8756 -0.1558 -0.3212
  993MOL0     H31047   4.127  -1.901   6.113  0.3362  1.0592  1.5652
  993MOL0     H31048   3.931  -2.128   6.195  0.4835 -1.2171  0.9377
  993MOL0     H31049   4.005  -2.110   6.032 -2.5835  0.2860  0.6126
  993MOL0     H31050   4.102  -2.264   6.188 -2.5835  0.3327  0.8453
  993MOL0     H31051   4.151  -2.141   6.297 -2.0283 -1.3635  0.6455
  993MOL0     H31052   4.288  -2.044   6.096 -4.1827  1.5245 -1.9303
  993MOL0     H31053   4.232  -2.179   5.995  1.0516 -3.4487  1.0592
  993MOL0     H31054   4.378  -2.214   6.250 -0.7615  0.4227 -0.3650
  993MOL0     H31055   4.335  -2.334   6.121  0.6977 -0.0407 -2.8016
  993MOL0     H31056   4.486  -2.222   5.967 -0.6432 -2.7917 -0.1528
  993MOL0     H31057   4.570  -2.301   6.105 -0.5517 -0.1423  0.8742
  993MOL0     H31058   4.067  -1.586   6.368  0.0278  0.4757  1.3390
  993MOL0     H31059   4.101  -1.351   6.424 -0.3293  0.7107  0.1913
  993MOL0     H31060   4.192  -0.953   6.333 -0.0816  0.1616 -1.3018
  993MOL0     H31061   4.255  -0.721   6.430  1.2917 -2.1700 -1.4263
  993MOL0     H31062   5.445   0.213   6.206 -0.5792 -1.3985  1.6944
  993MOL0     H31063   5.653   0.266   6.059  3.5863  0.0032 -0.8586
  993MOL0     H31064   6.084   0.316   6.068  2.4525  2.5256 -1.4942
  993MOL0     H31065   6.308   0.354   5.992 -0.7398 -0.2816 -0.1617
  993MOL0     H31066   6.530   0.270   5.591  0.4616 -1.3321 -2.2914
  993MOL0     H31067   6.367   0.228   5.575  1.1803 -0.5058 -1.0183
  993MOL0     H31068   6.402   0.004   5.670 -0.7849 -0.1548 -2.0890
  993MOL0     H31069   6.494   0.023   5.511  0.3746  0.8762  0.0266
  993MOL0     H31070   6.622   0.010   5.777  0.1484  0.3282  0.3361
  993MOL0     H31071   6.691   0.098   5.630 -0.1157  0.5029 -0.2505
  993MOL0     H31072   6.608  -0.193   5.646 -1.8045  1.5093 -2.9132
  993MOL0     H31073   6.660  -0.115   5.503 -1.4916 -2.3543  0.4589
  993MOL0     H31074   7.049  -0.174   5.686  0.1280 -2.0891  1.5672
  993MOL0     H31075   6.203   0.095   5.642 -1.1854 -1.4352  0.7162
  993MOL0     H31076   5.990   0.077   5.734 -0.3349 -1.3352  1.7987
  994MOL0     O31077   7.804   0.516   5.828 -0.2915 -0.2343  0.9721
  994MOL0     C31078   7.827   0.552   5.945 -0.3806 -0.5967  0.3260
  994MOL0     O31079   7.742   0.628   6.024 -0.2166 -0.7091 -0.0922
  994MOL0     C31080   7.611   0.634   5.987  0.8556  0.3383 -0.2696
  994MOL0     C31081   7.545   0.519   5.948  0.9455 -0.4383 -1.6556
  994MOL0     C31082   7.410   0.541   5.908  0.3501  0.6728  0.2678
  994MOL0     C31083   7.353   0.660   5.910  0.1976 -0.0525  0.6773
  994MOL0     O31084   7.220   0.657   5.881  0.1105  0.7277 -0.4241
  994MOL0     C31085   7.153   0.774   5.838 -0.0543 -0.4216  0.2263
  994MOL0     C31086   7.040   0.736   5.737 -0.0188  0.2598 -1.1326
  994MOL0     C31087   6.984   0.862   5.678  0.6850  0.1840  0.1586
  994MOL0     C31088   6.919   0.847   5.533  0.2718 -0.2757  0.6109
  994MOL0     C31089   6.786   0.772   5.543  0.2687 -0.2937 -1.0604
  994MOL0     C31090   6.687   0.850   5.642  0.0746 -0.5243 -0.0911
  994MOL0     C31091   6.554   0.781   5.645  0.1652  0.0089 -0.0637
  994MOL0     C31092   6.469   0.824   5.520 -0.3147  0.3969 -0.5272
  994MOL0     N31093   6.352   0.729   5.513 -0.4185 -0.3444 -0.4352
  994MOL0     C31094   6.277   0.694   5.630  0.5913 -0.2054  0.4902
  994MOL0     C31095   6.200   0.588   5.591  0.8266 -0.8759 -0.0328
  994MOL0     C31096   6.112   0.497   5.667 -0.7771 -0.0530  0.7260
  994MOL0     C31097   5.964   0.536   5.642  0.6638  0.1204  0.3008
  994MOL0     C31098   5.866   0.427   5.687 -0.0712 -0.3038 -0.3917
  994MOL0     C31099   5.856   0.311   5.596  0.1003  0.5243 -0.3683
  994MOL0     O31100   5.779   0.350   5.476  1.1529  0.0176  0.2860
  994MOL0     C31101   5.676   0.262   5.445 -1.3184 -0.2656  0.0711
  994MOL0     C31102   5.645   0.250   5.307  0.8247  0.2482 -0.2420
  994MOL0     C31103   5.550   0.158   5.267  0.2572 -0.3277  0.2213
  994MOL0     C31104   5.476   0.084   5.365 -0.1714  0.6507  0.0034
  994MOL0     C31105   5.381  -0.020   5.314 -0.1473 -0.2224  0.9235
  994MOL0     O31106   5.287  -0.065   5.399 -0.4149 -0.2364 -0.5993
  994MOL0     C31107   5.171  -0.122   5.362 -0.0672 -0.3372  0.0915
  994MOL0     C31108   5.114  -0.206   5.449  0.8860  0.8266 -0.0906
  994MOL0     C31109   4.988  -0.276   5.430 -0.5042  0.4644  0.2365
  994MOL0     C31110   4.921  -0.257   5.310 -0.9151  1.1992 -0.9772
  994MOL0     O31111   4.790  -0.300   5.298  0.2557 -0.2857  0.4080
  994MOL0     C31112   4.780  -0.435   5.271 -0.2567  0.0461 -0.9802
  994MOL0     C31113   4.628  -0.440   5.240 -0.9469  0.9670 -0.4260
  994MOL0     C31114   4.588  -0.588   5.219 -0.1194  0.0970  0.0731
  994MOL0     C31115   4.438  -0.593   5.222  0.1496  0.3909  0.1210
  994MOL0     C31116   4.375  -0.727   5.223  0.3859  0.3458 -1.0715
  994MOL0     C31117   4.396  -0.801   5.091 -0.3718 -1.3789 -0.1791
  994MOL0     C31118   4.310  -0.919   5.063 -0.6737 -0.3780  0.2067
  994MOL0     C31119   4.340  -0.978   4.925  0.4255  0.2436 -0.0492
  994MOL0    Cl31120   4.294  -0.867   4.795  0.2080 -0.3587  0.2522
  994MOL0     C31121   4.985  -0.176   5.210 -0.1516 -0.1612  0.1461
  994MOL0     C31122   5.103  -0.110   5.241 -0.0764 -0.8904 -1.1716
  994MOL0     O31123   5.384  -0.039   5.192  1.0046 -0.7399  0.2514
  994MOL0     C31124   5.510   0.105   5.500  0.3210 -0.0697  0.0403
  994MOL0     C31125   5.602   0.195   5.544 -0.0017  0.4250  0.6865
  994MOL0     N31126   6.236   0.561   5.456  0.1343 -0.0384 -0.0835
  994MOL0     N31127   6.316   0.651   5.403 -0.5888 -0.4592 -0.7564
  994MOL0     C31128   7.411   0.776   5.971 -0.6016  0.4202  0.3186
  994MOL0     C31129   7.548   0.760   6.004 -0.4973  0.1915 -0.8275
  994MOL0     C31130   7.967   0.551   6.005  0.2180 -0.1588 -0.1201
  994MOL0     C31131   7.998   0.593   6.134 -0.0550  0.0875 -0.5273
  994MOL0     C31132   8.125   0.585   6.186  0.2318  0.0161  1.0531
  994MOL0     C31133   8.224   0.521   6.103 -0.5221  0.5834  0.1961
  994MOL0     O31134   8.351   0.506   6.137  0.7047 -0.1128 -0.5839
  994MOL0     C31135   8.366   0.433   6.260 -0.3619 -1.0134 -0.0691
  994MOL0     C31136   8.512   0.401   6.273  0.2338 -0.1824 -1.1486
  994MOL0     C31137   8.580   0.533   6.309 -0.2380 -0.4183  0.4133
  994MOL0     C31138   8.720   0.500   6.360 -0.2273 -0.3219  0.2680
  994MOL0     C31139   8.805   0.622   6.379  0.3816  0.1294  0.3690
  994MOL0     C31140   8.861   0.727   6.379  0.1537  0.1320 -0.0767
  994MOL0     C31141   8.194   0.484   5.978  0.4042  0.3109 -0.1914
  994MOL0     C31142   8.067   0.501   5.923  0.0306  0.4182 -0.1877
  994MOL0     H31143   7.585   0.419   5.962 -1.3982 -1.1328  0.8396
  994MOL0     H31144   7.352   0.453   5.883 -1.2301  2.2513 -2.0338
  994MOL0     H31145   7.218   0.842   5.782 -1.7284  0.7712 -0.3432
  994MOL0     H31146   7.122   0.837   5.922  2.3478  0.3908  0.6071
  994MOL0     H31147   6.969   0.685   5.802  2.0578 -2.3506 -0.7268
  994MOL0     H31148   7.067   0.667   5.657 -1.6873  0.0861 -1.5679
  994MOL0     H31149   7.058   0.937   5.652  0.7858 -0.7855 -2.6323
  994MOL0     H31150   6.907   0.901   5.747 -0.8279  1.0678 -1.9257
  994MOL0     H31151   6.885   0.939   5.485  1.5542  0.2407  0.6527
  994MOL0     H31152   6.989   0.786   5.476  0.0975 -0.9788  1.1416
  994MOL0     H31153   6.808   0.678   5.595 -2.7995 -0.1318  0.7969
  994MOL0     H31154   6.750   0.746   5.443 -1.9213 -2.9915  0.3013
  994MOL0     H31155   6.681   0.956   5.614  2.1663 -0.9097 -2.3312
  994MOL0     H31156   6.727   0.846   5.744  0.0874 -1.3138 -0.1236
  994MOL0     H31157   6.561   0.673   5.659  2.7940 -0.0009 -0.8695
  994MOL0     H31158   6.491   0.822   5.724 -0.4283 -0.6006 -0.2071
  994MOL0     H31159   6.537   0.813   5.435  2.7913 -0.8846  1.8799
  994MOL0     H31160   6.444   0.930   5.524  2.9607  1.2487  0.1207
  994MOL0     H31161   6.284   0.746   5.725  1.7627  0.5750  0.0024
  994MOL0     H31162   6.137   0.512   5.772 -3.3014  2.4683  1.0556
  994MOL0     H31163   6.142   0.398   5.631  1.5603  0.7587  0.2283
  994MOL0     H31164   5.942   0.543   5.535  2.2103 -0.2749 -0.0607
  994MOL0     H31165   5.932   0.632   5.682 -1.8652  0.7425 -2.8434
  994MOL0     H31166   5.911   0.387   5.779  0.9623  0.4121 -0.5761
  994MOL0     H31167   5.772   0.475   5.715  0.2944 -0.0032  0.3614
  994MOL0     H31168   5.816   0.222   5.646  0.4810  0.9080  0.6370
  994MOL0     H31169   5.956   0.282   5.562  0.6140 -1.0211  2.1595
  994MOL0     H31170   5.686   0.306   5.224  1.6642  0.6353  0.4216
  994MOL0     H31171   5.537   0.139   5.161 -3.8499 -0.5134  0.6107
  994MOL0     H31172   5.168  -0.217   5.543 -1.9590  2.6913  1.9291
  994MOL0     H31173   4.944  -0.330   5.513  0.2900 -0.6605 -0.0568
  994MOL0     H31174   4.805  -0.505   5.350 -1.3397 -1.7572 -2.1424
  994MOL0     H31175   4.835  -0.457   5.179  1.6378 -1.2041  0.3986
  994MOL0     H31176   4.612  -0.375   5.153  3.1235  0.1547 -2.0152
  994MOL0     H31177   4.578  -0.404   5.330 -2.7648  0.0897 -1.0333
  994MOL0     H31178   4.637  -0.653   5.292  0.6505 -0.6462 -1.0751
  994MOL0     H31179   4.620  -0.632   5.125 -0.3753 -0.4372  0.2327
  994MOL0     H31180   4.397  -0.531   5.303 -3.7486  0.3937 -1.6414
  994MOL0     H31181   4.409  -0.536   5.133  2.7802  1.9240  0.1405
  994MOL0     H31182   4.269  -0.705   5.241  0.6941 -0.4945  2.5600
  994MOL0     H31183   4.423  -0.781   5.305 -0.4513  0.5514 -0.4283
  994MOL0     H31184   4.503  -0.820   5.081  0.2356  1.8748 -1.2076
  994MOL0     H31185   4.377  -0.720   5.019  0.6802 -0.1394  0.8844
  994MOL0     H31186   4.332  -0.988   5.146 -0.9865  0.2087  0.7856
  994MOL0     H31187   4.204  -0.895   5.056 -0.5284 -0.0104 -0.9432
  994MOL0     H31188   4.288  -1.073   4.908  0.9134 -0.3140  1.4064
  994MOL0     H31189   4.447  -1.003   4.929  0.4778  0.1240 -1.6070
  994MOL0     H31190   4.930  -0.149   5.121 -2.1411 -1.2456  0.9918
  994MOL0     H31191   5.144  -0.044   5.165 -2.4432  3.0905  0.6402
  994MOL0     H31192   5.456   0.047   5.574  2.0828 -2.2423 -0.2764
  994MOL0     H31193   5.611   0.204   5.652 -0.4155 -0.3974  0.8019
  994MOL0     H31194   7.352   0.865   5.990  2.7241  2.7503  0.7168
  994MOL0     H31195   7.602   0.853   6.019 -2.9876  1.5216  0.5984
  994MOL0     H31196   7.921   0.628   6.203 -2.0145 -5.3363  0.5657
  994MOL0     H31197   8.150   0.632   6.280 -2.1919  1.1193  1.2322
  994MOL0     H31198   8.315   0.336   6.250  1.0197 -1.9637  1.4688
  994MOL0     H31199   8.326   0.480   6.350  0.5248 -3.1527  1.5353
  994MOL0     H31200   8.517   0.323   6.350 -2.1802 -1.1736 -1.8876
  994MOL0     H31201   8.557   0.358   6.183 -1.1936 -0.5588 -1.7170
  994MOL0     H31202   8.527   0.600   6.376  2.9675  2.7837  0.0642
  994MOL0     H31203   8.583   0.595   6.219  2.4505  0.1277  0.7806
  994MOL0     H31204   8.730   0.452   6.458 -0.2517  0.3896  0.6299
  994MOL0     H31205   8.762   0.431   6.286 -1.0859  0.2411 -0.7660
  994MOL0     H31206   8.915   0.819   6.367  4.1778 -2.3554 -4.0637
  994MOL0     H31207   8.272   0.451   5.909  1.6323  2.2044  0.2167
  994MOL0     H31208   8.049   0.456   5.826 -0.0292  0.1508 -0.0543
  995MOL0     O31209   3.856   6.256   0.084  0.4658  0.3722  0.0671
  995MOL0     C31210   3.957   6.206   0.137 -1.2129 -0.1038 -0.0324
  995MOL0     O31211   3.960   6.092   0.220 -0.9739 -0.0530  0.3161
  995MOL0     C31212   3.844   6.041   0.262 -0.7281  0.3879 -0.3323
  995MOL0     C31213   3.800   5.915   0.218  1.2475 -0.5639 -0.0760
  995MOL0     C31214   3.684   5.863   0.274 -1.1818  0.8771 -0.5645
  995MOL0     C31215   3.630   5.917   0.390 -0.2108 -0.4795  0.5526
  995MOL0     O31216   3.531   5.855   0.452  0.4613 -0.5465  0.2501
  995MOL0     C31217   3.441   5.776   0.385  0.1123  0.9920 -0.0847
  995MOL0     C31218   3.335   5.720   0.485  0.8231 -0.5756  0.3167
  995MOL0     C31219   3.224   5.654   0.400 -0.1794 -0.2340  0.3358
  995MOL0     C31220   3.092   5.660   0.473  0.5079  0.3290 -0.3689
  995MOL0     C31221   2.981   5.634   0.380  0.8022  0.2547 -0.1424
  995MOL0     C31222   2.853   5.598   0.462 -0.0101  0.6462 -0.3295
  995MOL0     C31223   2.746   5.558   0.362  0.5798  0.7729  0.3241
  995MOL0     C31224   2.605   5.582   0.429 -0.0307 -0.0302  0.1300
  995MOL0     N31225   2.497   5.541   0.336  0.0443  0.2697 -0.2249
  995MOL0     C31226   2.483   5.427   0.253 -0.1010 -0.2023  0.8432
  995MOL0     C31227   2.355   5.434   0.206  0.2508 -0.4961 -0.4977
  995MOL0     C31228   2.285   5.328   0.132 -0.3576 -0.0455  0.1739
  995MOL0     C31229   2.350   5.318  -0.006  0.4927 -0.1989 -0.5281
  995MOL0     C31230   2.268   5.240  -0.106  0.7656 -0.3165 -0.4220
  995MOL0     C31231   2.246   5.091  -0.074 -0.0320  0.1763  1.5065
  995MOL0     O31232   2.128   5.070  -0.002 -0.0004  0.5384  0.2218
  995MOL0     C31233   2.012   5.045  -0.070  0.3699  0.4845 -0.4454
  995MOL0     C31234   1.903   4.997   0.016  0.7571 -0.3825  0.5116
  995MOL0     C31235   1.784   4.983  -0.034  0.7879 -0.9198 -0.4517
  995MOL0     C31236   1.759   4.997  -0.167 -0.9079  0.2189 -0.3911
  995MOL0     C31237   1.630   4.949  -0.224  0.9434  0.1396 -0.7826
  995MOL0     O31238   1.607   4.976  -0.361  0.0027 -0.4200  1.1081
  995MOL0     C31239   1.492   4.931  -0.419  0.3258  0.2656  0.3282
  995MOL0     C31240   1.495   4.903  -0.560 -0.1491  0.7642 -0.7695
  995MOL0     C31241   1.378   4.876  -0.627 -0.7677 -0.2087 -0.3455
  995MOL0     C31242   1.250   4.890  -0.571  0.2197 -0.9542  0.2492
  995MOL0     O31243   1.131   4.882  -0.640 -0.3946 -0.1772  0.0047
  995MOL0     C31244   1.133   4.870  -0.785 -0.0539  0.4222 -0.3887
  995MOL0     C31245   0.996   4.909  -0.834  0.6993 -0.3211 -0.2923
  995MOL0     C31246   0.886   4.814  -0.790  0.4436 -0.0636  0.5023
  995MOL0     C31247   0.754   4.860  -0.863 -0.5370 -0.1737 -0.2145
  995MOL0     C31248   0.642   4.752  -0.855  0.7694 -0.7153 -0.0288
  995MOL0     C31249   0.518   4.807  -0.934 -0.7801 -0.1730  0.2805
  995MOL0     C31250   0.411   4.701  -0.926 -0.2979  0.8002  0.2851
  995MOL0     C31251   0.271   4.751  -0.974 -0.4414 -1.3249  0.2196
  995MOL0    Cl31252   0.269   4.843  -1.130  0.2510  0.0868 -0.1158
  995MOL0     C31253   1.245   4.925  -0.438 -0.3279 -1.0511  0.0113
  995MOL0     C31254   1.361   4.942  -0.363 -0.9570  1.1088 -1.3479
  995MOL0     O31255   1.550   4.887  -0.149  0.2083 -0.3287  0.2916
  995MOL0     C31256   1.867   5.043  -0.249  0.2647 -0.5101  0.7134
  995MOL0     C31257   1.988   5.084  -0.198  0.3668 -0.0870  0.3298
  995MOL0     N31258   2.296   5.546   0.264 -0.4531 -0.6319  0.5075
  995MOL0     N31259   2.378   5.604   0.346 -0.2055  0.3554 -0.7004
  995MOL0     C31260   3.672   6.038   0.435  0.3291 -0.2302 -0.0127
  995MOL0     C31261   3.786   6.097   0.372  1.1259 -0.0779  0.2511
  995MOL0     C31262   4.081   6.280   0.114 -0.2130  0.3800  0.0518
  995MOL0     C31263   4.131   6.305  -0.017 -0.0147 -0.0616  0.4120
  995MOL0     C31264   4.256   6.368  -0.030 -0.3146 -0.1094 -0.3865
  995MOL0     C31265   4.332   6.402   0.085 -0.3926  0.3926  0.8789
  995MOL0     O31266   4.463   6.441   0.051  0.2434  0.0290 -0.2923
  995MOL0     C31267   4.568   6.356   0.101  0.9184  0.6498 -0.1102
  995MOL0     C31268   4.667   6.346  -0.020  0.0658 -0.0852 -0.4569
  995MOL0     C31269   4.768   6.233  -0.002  0.1281 -0.4121  0.7080
  995MOL0     C31270   4.808   6.145  -0.127  0.1831 -0.7886  1.1458
  995MOL0     C31271   4.903   6.208  -0.223 -1.1865  0.5153 -0.0510
  995MOL0     C31272   4.971   6.250  -0.313 -0.4830 -0.6359 -0.2995
  995MOL0     C31273   4.284   6.371   0.208 -0.0547  0.1481  0.1256
  995MOL0     C31274   4.156   6.312   0.227 -0.5107  0.4734 -0.6143
  995MOL0     H31275   3.856   5.859   0.144 -1.1240 -1.0837 -1.5970
  995MOL0     H31276   3.645   5.771   0.233 -1.0031 -0.3135  1.7801
  995MOL0     H31277   3.491   5.692   0.335  0.2997  2.5889 -2.7575
  995MOL0     H31278   3.392   5.834   0.306  1.9829  1.3929 -0.9919
  995MOL0     H31279   3.297   5.805   0.543  0.9254 -0.9697  0.9779
  995MOL0     H31280   3.373   5.641   0.551  0.0847 -2.6697 -1.6174
  995MOL0     H31281   3.248   5.549   0.381  0.4313 -0.3009  1.4167
  995MOL0     H31282   3.214   5.708   0.305  2.4048  1.1914  0.7798
  995MOL0     H31283   3.096   5.584   0.551 -0.9887 -0.0498 -0.6276
  995MOL0     H31284   3.079   5.754   0.528  1.5371  0.7613 -0.8490
  995MOL0     H31285   3.003   5.557   0.306 -0.8330  1.6447 -2.1754
  995MOL0     H31286   2.971   5.727   0.324  2.6201  0.2887 -0.4665
  995MOL0     H31287   2.819   5.689   0.513 -0.3705  0.6682 -0.6056
  995MOL0     H31288   2.882   5.523   0.537  0.0556 -0.0493 -1.0431
  995MOL0     H31289   2.754   5.614   0.268 -1.6874 -1.3313 -1.2806
  995MOL0     H31290   2.742   5.450   0.344 -1.9677  0.8127  0.2430
  995MOL0     H31291   2.592   5.690   0.444  2.4760  0.1456  1.5184
  995MOL0     H31292   2.591   5.525   0.521  0.3262  0.3101  0.3982
  995MOL0     H31293   2.550   5.343   0.240  0.7187  0.4727  0.6262
  995MOL0     H31294   2.177   5.342   0.125 -0.5950 -0.3843  2.2782
  995MOL0     H31295   2.302   5.233   0.184  0.2123 -0.2564 -0.3832
  995MOL0     H31296   2.446   5.267   0.010  0.1814 -0.4169  0.7756
  995MOL0     H31297   2.365   5.417  -0.052 -0.9935  0.1035 -0.4174
  995MOL0     H31298   2.171   5.289  -0.119  0.7123 -0.3313 -0.0901
  995MOL0     H31299   2.325   5.238  -0.199  2.8969 -3.8135  0.7871
  995MOL0     H31300   2.336   5.058  -0.021  0.8879 -2.0728 -1.2358
  995MOL0     H31301   2.246   5.030  -0.165 -0.8672  2.1089  0.1486
  995MOL0     H31302   1.920   4.985   0.123 -0.3905  0.6154  0.8410
  995MOL0     H31303   1.706   4.965   0.039  1.2683 -0.5239  0.1693
  995MOL0     H31304   1.595   4.896  -0.601  0.9817 -4.2978  1.9798
  995MOL0     H31305   1.406   4.851  -0.729 -0.3188  1.0567 -0.5452
  995MOL0     H31306   1.153   4.767  -0.814 -1.2534 -0.7377  2.4771
  995MOL0     H31307   1.210   4.935  -0.829  0.1749 -1.1871 -2.5039
  995MOL0     H31308   0.997   4.919  -0.943 -2.3021 -0.9416 -0.4727
  995MOL0     H31309   0.975   5.013  -0.805  2.6706 -0.4598  1.8686
  995MOL0     H31310   0.863   4.816  -0.683  0.1212 -3.6331  0.6171
  995MOL0     H31311   0.906   4.708  -0.804  1.3348 -0.1640  2.3039
  995MOL0     H31312   0.719   4.950  -0.812  3.3738  1.7416 -0.5238
  995MOL0     H31313   0.785   4.869  -0.968 -1.1580 -0.5999 -0.4435
  995MOL0     H31314   0.600   4.722  -0.759 -1.7913 -1.4166 -1.2809
  995MOL0     H31315   0.680   4.662  -0.906  1.6319  0.3883 -1.4163
  995MOL0     H31316   0.559   4.830  -1.032  0.4279 -0.1044  0.7850
  995MOL0     H31317   0.480   4.900  -0.890  2.5950  1.1104  0.7610
  995MOL0     H31318   0.441   4.618  -0.990 -0.2867  0.0764  1.2019
  995MOL0     H31319   0.392   4.671  -0.822 -1.7376  0.9912  0.0959
  995MOL0     H31320   0.231   4.813  -0.893 -1.0173  0.5804 -1.4445
  995MOL0     H31321   0.207   4.666  -0.997  0.6448 -1.4252 -3.0361
  995MOL0     H31322   1.144   4.930  -0.397 -0.6004 -1.9904 -0.5149
  995MOL0     H31323   1.348   4.981  -0.263 -1.9061  0.0386 -1.0420
  995MOL0     H31324   1.859   5.046  -0.358 -0.4815 -1.3757  0.7311
  995MOL0     H31325   2.060   5.138  -0.259 -0.9744  1.7958  0.3313
  995MOL0     H31326   3.636   6.086   0.526  1.9979 -0.4514  0.7906
  995MOL0     H31327   3.828   6.188   0.416  0.9553  0.6175 -0.9799
  995MOL0     H31328   4.079   6.277  -0.107 -0.4499  1.0101  0.3198
  995MOL0     H31329   4.308   6.363  -0.125  1.4664 -0.3391  0.5346
  995MOL0     H31330   4.520   6.257   0.106  1.4046  0.4425  0.5620
  995MOL0     H31331   4.605   6.390   0.198 -2.0865  1.5351  0.8508
  995MOL0     H31332   4.595   6.334  -0.102 -4.2932  2.9964  2.4594
  995MOL0     H31333   4.720   6.440  -0.041  2.4330 -1.5426 -1.4371
  995MOL0     H31334   4.725   6.174   0.080 -0.2379  2.0309  2.3897
  995MOL0     H31335   4.861   6.271   0.042 -0.1515 -1.4707  2.3206
  995MOL0     H31336   4.853   6.053  -0.089  1.5536 -0.3372  0.6824
  995MOL0     H31337   4.711   6.119  -0.172 -0.9951  1.2128  2.3840
  995MOL0     H31338   5.028   6.285  -0.396 -0.9499  0.4172 -0.1989
  995MOL0     H31339   4.354   6.390   0.289  0.6677  0.5463 -0.5779
  995MOL0     H31340   4.112   6.303   0.326 -1.8328 -0.3254 -1.2610
  996MOL0     O31341   6.341   1.436   6.170  0.0089 -0.0257  0.3251
  996MOL0     C31342   6.416   1.508   6.244  0.2508 -0.2026 -0.5919
  996MOL0     O31343   6.371   1.599   6.335  0.8511 -0.5960  0.3052
  996MOL0     C31344   6.236   1.595   6.366  0.2270  0.4633  0.7294
  996MOL0     C31345   6.204   1.508   6.475 -0.3966 -0.8116  0.3954
  996MOL0     C31346   6.065   1.500   6.511  0.7238  0.1732 -0.4008
  996MOL0     C31347   5.969   1.579   6.451 -0.1951 -0.7160  0.4662
  996MOL0     O31348   5.840   1.577   6.501  0.0054  0.4656 -0.1417
  996MOL0     C31349   5.747   1.672   6.445 -0.2216  0.8464 -0.4895
  996MOL0     C31350   5.603   1.646   6.509  0.0366 -0.5617 -0.7155
  996MOL0     C31351   5.503   1.728   6.429 -0.5043  0.2557  0.0595
  996MOL0     C31352   5.369   1.740   6.486  0.2151 -0.1583 -0.2181
  996MOL0     C31353   5.282   1.825   6.392  0.1465  0.0672  0.2533
  996MOL0     C31354   5.141   1.846   6.459  0.4827 -0.4517  0.3954
  996MOL0     C31355   5.040   1.913   6.368  0.8346 -0.1190  0.4038
  996MOL0     C31356   4.906   1.943   6.439  0.0323 -0.9308  0.3754
  996MOL0     N31357   4.795   1.864   6.375  0.0582 -0.4492  0.1907
  996MOL0     C31358   4.801   1.731   6.353 -0.1737  0.8320  0.9509
  996MOL0     C31359   4.683   1.700   6.278  0.7534  0.0961 -0.6830
  996MOL0     C31360   4.672   1.576   6.182 -1.1753 -0.6310 -0.2346
  996MOL0     C31361   4.518   1.556   6.166  0.4964 -0.2384  0.5768
  996MOL0     C31362   4.481   1.443   6.064  0.6587 -0.4385 -0.4282
  996MOL0     C31363   4.320   1.429   6.059 -0.0044  0.3872 -0.1623
  996MOL0     O31364   4.275   1.315   5.981 -0.1764 -0.6820 -0.2452
  996MOL0     C31365   4.134   1.297   5.973  0.1262  0.8787  0.0181
  996MOL0     C31366   4.047   1.390   6.016  0.2719 -0.7821 -0.0573
  996MOL0     C31367   3.912   1.360   6.024 -0.7541  0.4014 -0.5027
  996MOL0     C31368   3.869   1.229   5.998  0.0435  0.4564 -0.4041
  996MOL0     C31369   3.727   1.184   6.015 -0.6083 -0.3922 -0.1971
  996MOL0     O31370   3.641   1.280   6.066  0.3830 -0.4167 -0.0388
  996MOL0     C31371   3.511   1.235   6.068 -0.1409  0.5848 -0.5602
  996MOL0     C31372   3.481   1.150   6.173  0.8245  0.5358  0.7187
  996MOL0     C31373   3.354   1.097   6.200 -0.1657 -1.0709  0.3304
  996MOL0     C31374   3.250   1.120   6.108  0.5402 -0.4073  0.1732
  996MOL0     O31375   3.135   1.054   6.132 -0.2524  0.1032  0.3904
  996MOL0     C31376   3.011   1.104   6.080  0.3716  0.9837 -0.1407
  996MOL0     C31377   2.895   1.024   6.146 -0.0469 -0.4181  1.2890
  996MOL0     C31378   2.764   1.101   6.121 -0.7109  0.0124 -0.1526
  996MOL0     C31379   2.645   1.033   6.189  0.4484  0.3012 -0.1015
  996MOL0     C31380   2.517   1.106   6.152 -0.3269  0.2122  0.6148
  996MOL0     C31381   2.392   1.060   6.220 -0.2514  1.2561 -0.7822
  996MOL0     C31382   2.281   1.168   6.183  0.3757 -0.4830  0.7676
  996MOL0     C31383   2.142   1.131   6.246  0.3706  0.0684  0.0984
  996MOL0    Cl31384   2.146   1.130   6.430 -0.3443 -0.0885 -0.2229
  996MOL0     C31385   3.279   1.210   5.999  0.4776 -0.6087  0.2627
  996MOL0     C31386   3.406   1.274   5.979 -0.2369 -0.5581 -0.9789
  996MOL0     O31387   3.693   1.072   5.976 -0.1607 -0.3619  0.3910
  996MOL0     C31388   3.962   1.139   5.950 -0.2646  0.0583  0.5950
  996MOL0     C31389   4.096   1.166   5.947  0.1457 -0.4238  0.0758
  996MOL0     N31390   4.590   1.806   6.291 -1.1328 -0.4024  0.0825
  996MOL0     N31391   4.660   1.905   6.353  0.3789 -0.7386  0.3272
  996MOL0     C31392   5.999   1.664   6.341 -0.2833 -1.1626  0.8221
  996MOL0     C31393   6.138   1.674   6.299  0.2654  0.5893 -0.6687
  996MOL0     C31394   6.559   1.477   6.251 -0.7887  0.1041 -0.6528
  996MOL0     C31395   6.647   1.575   6.311 -0.1172 -0.2231 -0.4310
  996MOL0     C31396   6.781   1.562   6.313  1.2606  0.4830  0.6324
  996MOL0     C31397   6.835   1.441   6.263  0.8520 -0.6911  0.5528
  996MOL0     O31398   6.972   1.427   6.277  0.0736 -0.2619 -0.3110
  996MOL0     C31399   7.028   1.294   6.273  0.1660  0.2952 -0.2697
  996MOL0     C31400   7.157   1.308   6.356 -0.0852  0.5840 -0.6858
  996MOL0     C31401   7.234   1.173   6.356  0.0890 -0.3625 -0.8458
  996MOL0     C31402   7.343   1.163   6.245  0.3404 -0.4328  0.3352
  996MOL0     C31403   7.283   1.134   6.109 -0.3069 -0.9909 -0.2833
  996MOL0     C31404   7.235   1.128   5.994  0.2741  0.4576 -0.5596
  996MOL0     C31405   6.751   1.342   6.211  0.1846  1.1885 -0.7181
  996MOL0     C31406   6.615   1.365   6.212  0.0274  0.9676  0.1081
  996MOL0     H31407   6.281   1.446   6.520  1.8820  0.0946 -1.9838
  996MOL0     H31408   6.022   1.436   6.587 -1.9071 -0.7205 -2.4986
  996MOL0     H31409   5.749   1.659   6.337  3.9284 -0.0283 -0.4834
  996MOL0     H31410   5.777   1.773   6.478 -1.4273  0.9366  0.3944
  996MOL0     H31411   5.603   1.678   6.613  0.1415 -1.0460 -0.5637
  996MOL0     H31412   5.581   1.539   6.504 -0.1398 -0.5001 -1.4137
  996MOL0     H31413   5.500   1.682   6.330 -1.6820  0.2926  0.0714
  996MOL0     H31414   5.551   1.826   6.426 -0.5591  0.5261  3.4283
  996MOL0     H31415   5.319   1.645   6.506  0.5361 -0.2468  0.1845
  996MOL0     H31416   5.374   1.788   6.584 -2.6996 -0.4099  0.1507
  996MOL0     H31417   5.283   1.778   6.293  0.5798  2.2427 -0.8328
  996MOL0     H31418   5.328   1.924   6.389  0.5686 -0.1504 -1.6704
  996MOL0     H31419   5.154   1.905   6.550 -3.0401 -2.7645  2.6620
  996MOL0     H31420   5.096   1.753   6.496 -0.9781 -0.5076 -1.3665
  996MOL0     H31421   5.080   2.012   6.346  1.4924 -0.4462  0.0755
  996MOL0     H31422   5.027   1.859   6.273  1.6982 -1.6980  1.1457
  996MOL0     H31423   4.886   2.050   6.446  2.1228 -0.5741  1.4822
  996MOL0     H31424   4.910   1.919   6.546 -1.4300  0.5047  0.7915
  996MOL0     H31425   4.892   1.675   6.369 -0.9489 -1.4124 -1.7127
  996MOL0     H31426   4.722   1.485   6.216 -0.3057  0.0263  0.2993
  996MOL0     H31427   4.717   1.599   6.085 -1.0925  1.4394  0.2427
  996MOL0     H31428   4.471   1.651   6.139  0.4816 -1.1509 -3.1698
  996MOL0     H31429   4.474   1.517   6.258  0.4306 -0.4622  0.4515
  996MOL0     H31430   4.516   1.469   5.964  3.3836 -0.4242  0.4553
  996MOL0     H31431   4.519   1.347   6.100 -0.4289 -0.1384  1.7142
  996MOL0     H31432   4.274   1.521   6.023 -1.1759  0.3830  1.2326
  996MOL0     H31433   4.286   1.402   6.159  1.6040 -0.3714  0.2145
  996MOL0     H31434   4.076   1.493   6.038 -1.9700 -0.1157 -0.0290
  996MOL0     H31435   3.841   1.431   6.065  0.3643  0.9138  0.6139
  996MOL0     H31436   3.557   1.126   6.247  2.5390  0.1225 -1.0816
  996MOL0     H31437   3.352   1.035   6.288  0.3688  1.7704  2.4937
  996MOL0     H31438   3.006   1.083   5.973  1.6385  0.2993 -0.0798
  996MOL0     H31439   2.987   1.209   6.100  0.6308  2.0735 -4.5295
  996MOL0     H31440   2.918   1.007   6.251  2.5700 -0.9170  0.7009
  996MOL0     H31441   2.875   0.927   6.098  1.2617  0.9960 -2.4873
  996MOL0     H31442   2.739   1.097   6.015 -1.1464 -2.1689 -0.0282
  996MOL0     H31443   2.773   1.206   6.151  0.8325  0.2134 -1.2079
  996MOL0     H31444   2.651   0.924   6.180  3.8272  0.2675  0.9438
  996MOL0     H31445   2.655   1.042   6.298 -0.9839  0.6111  0.0189
  996MOL0     H31446   2.495   1.084   6.047 -1.5282  0.4279  0.8049
  996MOL0     H31447   2.531   1.214   6.140 -0.6039  0.0508 -1.6071
  996MOL0     H31448   2.406   1.056   6.328  0.7778 -1.5250 -0.9224
  996MOL0     H31449   2.365   0.959   6.186  0.8905  1.0173 -1.0284
  996MOL0     H31450   2.312   1.268   6.216 -2.4478  1.2317 -1.3327
  996MOL0     H31451   2.274   1.179   6.074  1.8115  0.6264  0.7519
  996MOL0     H31452   2.108   1.039   6.197  0.1854  0.8772 -1.3328
  996MOL0     H31453   2.066   1.205   6.218  0.8765  0.2260 -0.9000
  996MOL0     H31454   3.206   1.254   5.932 -0.7719  2.2003  3.1666
  996MOL0     H31455   3.427   1.353   5.908  2.7030 -0.2811  0.0626
  996MOL0     H31456   3.937   1.038   5.919  0.6196  0.0448 -0.1289
  996MOL0     H31457   4.178   1.100   5.921  1.3236  1.2141 -0.5537
  996MOL0     H31458   5.928   1.729   6.291  1.6228 -1.0986 -2.0620
  996MOL0     H31459   6.165   1.727   6.208  0.4006 -0.3886 -1.2099
  996MOL0     H31460   6.597   1.655   6.365 -1.3687  0.7672 -2.8884
  996MOL0     H31461   6.851   1.621   6.371 -0.6303  1.2044  2.3172
  996MOL0     H31462   7.043   1.258   6.171  1.1866 -1.3327  0.4270
  996MOL0     H31463   6.960   1.221   6.318  0.2552  0.0610 -0.5121
  996MOL0     H31464   7.226   1.385   6.322  3.2769 -2.8308 -2.3815
  996MOL0     H31465   7.124   1.326   6.459  0.4458  0.0969 -0.4266
  996MOL0     H31466   7.153   1.099   6.363  0.6868 -0.9788 -0.3311
  996MOL0     H31467   7.279   1.159   6.455 -2.5145  0.4444  0.5558
  996MOL0     H31468   7.401   1.255   6.237 -0.2269 -0.2173 -3.4905
  996MOL0     H31469   7.408   1.080   6.272 -1.5770 -1.6134  1.5895
  996MOL0     H31470   7.203   1.135   5.892  0.6210  1.4119 -0.6173
  996MOL0     H31471   6.788   1.253   6.161  0.9974  0.6244  0.8239
  996MOL0     H31472   6.545   1.286   6.186 -0.7839  2.0579 -1.1230
  997MOL0     O31473   2.446   4.566   3.795  0.1300 -0.2835  0.0560
  997MOL0     C31474   2.423   4.639   3.700  0.1174  0.2441  0.4378
  997MOL0     O31475   2.305   4.630   3.623 -0.6731  0.4424  0.3773
  997MOL0     C31476   2.210   4.539   3.656  0.1235  0.3880 -0.2192
  997MOL0     C31477   2.238   4.402   3.687  0.1089  0.5308  0.5919
  997MOL0     C31478   2.125   4.311   3.707 -0.1168 -0.1258  0.5281
  997MOL0     C31479   1.991   4.351   3.712 -0.6772 -0.6374 -0.5907
  997MOL0     O31480   1.879   4.268   3.746 -1.0467 -0.3938  0.7770
  997MOL0     C31481   1.885   4.134   3.708  0.0357 -0.6701 -0.1345
  997MOL0     C31482   1.743   4.073   3.723  0.2585 -0.2526 -0.0660
  997MOL0     C31483   1.719   4.037   3.872 -0.9317 -0.1609 -0.6408
  997MOL0     C31484   1.583   3.972   3.883 -0.6863  0.5322  0.6836
  997MOL0     C31485   1.530   3.941   4.025 -0.1541  0.7938 -0.8565
  997MOL0     C31486   1.384   3.875   4.023 -0.4796  0.1672 -0.6237
  997MOL0     C31487   1.337   3.869   4.173 -0.0839 -0.3280 -0.0916
  997MOL0     C31488   1.213   3.785   4.185 -0.7514 -0.1247  0.0273
  997MOL0     N31489   1.116   3.839   4.095  0.8047 -0.5013  0.5337
  997MOL0     C31490   1.064   3.971   4.096 -0.3174  0.2095 -0.7417
  997MOL0     C31491   0.966   3.972   4.004  0.5625  0.5670  0.3549
  997MOL0     C31492   0.871   4.087   3.967 -0.5774 -0.2541 -0.7178
  997MOL0     C31493   0.726   4.088   4.024 -0.6076  0.2680 -0.0098
  997MOL0     C31494   0.635   3.980   3.978 -0.9837  0.2390  0.0123
  997MOL0     C31495   0.488   4.004   4.003 -0.5720  0.5942  0.3227
  997MOL0     O31496   0.419   3.882   3.995 -0.7194  0.0608  0.2169
  997MOL0     C31497   0.281   3.885   4.029  0.0489  0.2847  0.1622
  997MOL0     C31498   0.222   3.774   3.986  0.1401 -0.3205  0.3947
  997MOL0     C31499   0.086   3.746   4.029 -0.2465 -0.6776  0.3467
  997MOL0     C31500   0.025   3.817   4.136  0.4089 -0.1422  0.2940
  997MOL0     C31501  -0.111   3.787   4.176  0.1108  0.9979  0.5588
  997MOL0     O31502  -0.179   3.677   4.116  0.2090  0.6540 -0.0814
  997MOL0     C31503  -0.313   3.657   4.159  0.0315 -0.1814 -0.3791
  997MOL0     C31504  -0.336   3.612   4.285 -0.3756  0.3825 -0.8819
  997MOL0     C31505  -0.462   3.595   4.333 -0.1239 -0.4832  0.5554
  997MOL0     C31506  -0.565   3.595   4.248 -0.4560  0.2690  0.8136
  997MOL0     O31507  -0.688   3.553   4.283 -0.4293 -1.0183  0.0481
  997MOL0     C31508  -0.711   3.462   4.391 -0.3034 -0.4237  0.5159
  997MOL0     C31509  -0.864   3.433   4.392  0.3248 -0.9397  0.0293
  997MOL0     C31510  -0.922   3.370   4.270  0.3097 -0.5344  1.0800
  997MOL0     C31511  -1.070   3.332   4.282  0.1072  0.1859 -1.0590
  997MOL0     C31512  -1.107   3.203   4.188  0.3133 -0.1143  0.0853
  997MOL0     C31513  -1.264   3.204   4.181 -0.3830  0.6050 -0.1030
  997MOL0     C31514  -1.312   3.092   4.088  0.5825  0.3413 -0.2640
  997MOL0     C31515  -1.462   3.065   4.118  0.3815 -0.3087  0.2599
  997MOL0    Cl31516  -1.526   2.910   4.063 -0.4821 -0.2965  0.4811
  997MOL0     C31517  -0.543   3.627   4.115 -0.2860  0.4152  0.7328
  997MOL0     C31518  -0.415   3.653   4.065  1.3985  0.3547  0.4556
  997MOL0     O31519  -0.162   3.866   4.258  0.4363 -0.2970 -1.3205
  997MOL0     C31520   0.098   3.937   4.169 -0.1817  0.3125  0.2174
  997MOL0     C31521   0.215   3.968   4.111  0.7779  0.2141 -0.7894
  997MOL0     N31522   0.965   3.849   3.938  0.3535 -0.0918  0.2080
  997MOL0     N31523   1.055   3.773   3.998  0.5614 -0.4671 -0.2199
  997MOL0     C31524   1.967   4.488   3.687 -0.4166 -0.5965 -0.3448
  997MOL0     C31525   2.072   4.577   3.662 -0.3573  0.1684  0.5454
  997MOL0     C31526   2.534   4.720   3.643 -0.1324  0.6540 -0.6505
  997MOL0     C31527   2.534   4.750   3.499 -0.1107 -0.7874 -0.2317
  997MOL0     C31528   2.633   4.826   3.449 -0.3022 -0.1623  0.6634
  997MOL0     C31529   2.719   4.891   3.532  0.0386 -0.1118  0.1663
  997MOL0     O31530   2.802   4.979   3.471 -0.1366 -0.3715 -1.0981
  997MOL0     C31531   2.784   5.111   3.516 -0.0711 -0.3848  0.2869
  997MOL0     C31532   2.825   5.187   3.394  0.4069 -0.2882  0.0504
  997MOL0     C31533   2.972   5.177   3.363  0.6031 -0.0062  0.1105
  997MOL0     C31534   3.014   5.266   3.248 -0.2348  0.9616 -0.7496
  997MOL0     C31535   3.154   5.311   3.275 -0.2237  0.0685 -0.8054
  997MOL0     C31536   3.269   5.342   3.295 -0.2409  0.3731  0.9749
  997MOL0     C31537   2.716   4.871   3.673 -0.0833 -0.1649 -0.0886
  997MOL0     C31538   2.627   4.779   3.725  0.5241 -0.0641 -0.4556
  997MOL0     H31539   2.333   4.354   3.702 -0.5412 -0.6358  1.0839
  997MOL0     H31540   2.150   4.208   3.730 -1.1548 -1.2583 -2.9120
  997MOL0     H31541   1.954   4.072   3.767 -0.9813 -0.0233  1.7830
  997MOL0     H31542   1.908   4.129   3.601  2.1913 -3.6471  0.3130
  997MOL0     H31543   1.729   3.988   3.655 -2.3288 -3.2232  3.7614
  997MOL0     H31544   1.665   4.144   3.694  1.5571  1.7637  1.0984
  997MOL0     H31545   1.724   4.129   3.930 -1.8044 -0.6143  0.1852
  997MOL0     H31546   1.797   3.970   3.908  0.1804  0.2810 -2.1279
  997MOL0     H31547   1.514   4.038   3.830 -0.8416  0.9648  1.4002
  997MOL0     H31548   1.579   3.884   3.818  1.7389  0.9795 -0.1862
  997MOL0     H31549   1.546   4.024   4.094  1.4958 -0.4893  0.3887
  997MOL0     H31550   1.587   3.859   4.069 -1.0055 -1.4872 -3.6635
  997MOL0     H31551   1.404   3.778   3.977 -0.4681  0.4881 -1.2966
  997MOL0     H31552   1.317   3.931   3.958 -2.1414 -3.0964 -1.9184
  997MOL0     H31553   1.412   3.816   4.233  1.3841 -1.1580 -2.4841
  997MOL0     H31554   1.324   3.966   4.221 -1.0946 -1.0013  1.0485
  997MOL0     H31555   1.168   3.776   4.285 -1.7175  2.2989 -0.1136
  997MOL0     H31556   1.238   3.684   4.153 -1.0018 -1.0723  2.5353
  997MOL0     H31557   1.084   4.050   4.168 -1.0832 -0.5141  0.2953
  997MOL0     H31558   0.861   4.079   3.858 -2.2865  1.5022 -0.7586
  997MOL0     H31559   0.921   4.181   3.991 -1.3816  0.3910 -1.4541
  997MOL0     H31560   0.680   4.182   3.992  1.3284  1.8767  1.7049
  997MOL0     H31561   0.731   4.084   4.133  2.0936 -1.0181 -0.0961
  997MOL0     H31562   0.637   3.994   3.869 -0.6280  0.8763  0.0987
  997MOL0     H31563   0.672   3.884   4.016 -0.3873  1.5779  3.1241
  997MOL0     H31564   0.446   4.059   3.919  0.5587  0.6076 -0.2491
  997MOL0     H31565   0.474   4.053   4.100 -0.9763 -0.2441  0.7078
  997MOL0     H31566   0.273   3.709   3.917  0.3687 -1.3219  1.4867
  997MOL0     H31567   0.032   3.662   3.989 -1.5705 -0.7083  2.0853
  997MOL0     H31568  -0.252   3.602   4.354 -0.8015  2.6999  0.0539
  997MOL0     H31569  -0.486   3.574   4.437 -2.4547 -1.9821 -0.2129
  997MOL0     H31570  -0.678   3.500   4.487 -0.4485 -1.1153  0.8469
  997MOL0     H31571  -0.654   3.371   4.368 -0.2051  0.4255 -3.1900
  997MOL0     H31572  -0.932   3.519   4.395  0.3734 -0.8979 -0.0698
  997MOL0     H31573  -0.898   3.376   4.479 -0.6471 -0.1574  0.1836
  997MOL0     H31574  -0.862   3.284   4.241  2.1192  1.6975 -2.6841
  997MOL0     H31575  -0.898   3.439   4.188 -0.7440 -0.0407  1.1713
  997MOL0     H31576  -1.099   3.298   4.382  1.2756 -0.0939 -0.7957
  997MOL0     H31577  -1.126   3.423   4.261 -1.2545 -0.9043 -2.3097
  997MOL0     H31578  -1.073   3.111   4.236  2.1892  0.2895 -0.4158
  997MOL0     H31579  -1.049   3.213   4.096  0.4192  1.2673  0.2816
  997MOL0     H31580  -1.283   3.302   4.136  3.7721  2.9754  2.5471
  997MOL0     H31581  -1.313   3.187   4.277  2.2422 -0.6913  1.1354
  997MOL0     H31582  -1.287   3.124   3.987 -0.3687  0.4862 -0.4535
  997MOL0     H31583  -1.255   3.005   4.123  0.1073 -0.1764 -0.7576
  997MOL0     H31584  -1.513   3.139   4.055 -0.4074 -2.9152 -2.3492
  997MOL0     H31585  -1.487   3.087   4.223  1.6225 -0.2192  0.5545
  997MOL0     H31586  -0.634   3.620   4.055  0.1946 -0.4127  0.0752
  997MOL0     H31587  -0.412   3.676   3.959 -0.5523 -0.9036  0.0621
  997MOL0     H31588   0.067   4.004   4.248  1.7699  2.7357 -0.9477
  997MOL0     H31589   0.263   4.060   4.142  1.8254 -0.0481 -1.6136
  997MOL0     H31590   1.866   4.526   3.689  0.2491  1.2798  1.9915
  997MOL0     H31591   2.063   4.684   3.646 -1.8240 -0.1757 -1.3592
  997MOL0     H31592   2.450   4.714   3.441 -0.8806  0.4724  0.0680
  997MOL0     H31593   2.637   4.851   3.344  1.4074  0.9576  0.9395
  997MOL0     H31594   2.845   5.146   3.600 -0.4825  0.4489  0.2477
  997MOL0     H31595   2.684   5.130   3.557  0.1139 -1.8885  1.5768
  997MOL0     H31596   2.768   5.163   3.304  1.0036 -2.2359  0.1473
  997MOL0     H31597   2.797   5.290   3.419 -0.6034 -0.0798 -1.7436
  997MOL0     H31598   3.002   5.076   3.335 -1.8423  0.2658 -4.3080
  997MOL0     H31599   3.022   5.194   3.459  2.1825 -2.1414 -0.2728
  997MOL0     H31600   3.013   5.200   3.161 -2.8402  0.2983 -0.3059
  997MOL0     H31601   2.945   5.351   3.241 -0.7216  0.8341  1.5636
  997MOL0     H31602   3.368   5.376   3.316 -0.1503 -0.8867  2.7883
  997MOL0     H31603   2.768   4.934   3.744 -1.4600  1.6175 -0.5995
  997MOL0     H31604   2.614   4.779   3.832 -0.9415  0.4445 -0.6031
  998MOL0     O31605   2.997   9.957   5.222  0.5325  0.1823 -0.1103
  998MOL0     C31606   3.053   9.887   5.137  0.6008 -0.2261 -0.1599
  998MOL0     O31607   3.046   9.751   5.135  0.2908  0.2808  0.0338
  998MOL0     C31608   2.964   9.688   5.221  1.6068  0.3732 -0.2762
  998MOL0     C31609   3.003   9.670   5.351 -0.6288 -0.3716 -0.2067
  998MOL0     C31610   2.921   9.614   5.447  0.6407  0.0199 -0.2356
  998MOL0     C31611   2.802   9.553   5.406  0.7318  0.2620 -0.6246
  998MOL0     O31612   2.715   9.477   5.479 -0.3155 -0.4705 -0.1428
  998MOL0     C31613   2.761   9.388   5.579  0.1467 -0.0373 -0.1261
  998MOL0     C31614   2.686   9.261   5.579 -0.0950  0.8114 -1.0729
  998MOL0     C31615   2.727   9.159   5.692  0.8867  1.1264  0.4884
  998MOL0     C31616   2.614   9.060   5.732 -0.3717 -0.8735 -0.4856
  998MOL0     C31617   2.592   8.947   5.633 -0.4399  0.2018 -0.1007
  998MOL0     C31618   2.708   8.855   5.599  0.2866  0.6424 -0.6748
  998MOL0     C31619   2.654   8.736   5.518  0.8787  0.5859  0.4569
  998MOL0     C31620   2.771   8.646   5.475 -0.5471 -0.8309 -0.0007
  998MOL0     N31621   2.743   8.554   5.363  0.5948  0.0450 -0.1083
  998MOL0     C31622   2.648   8.458   5.376  0.4750  1.2277  0.7183
  998MOL0     C31623   2.597   8.436   5.253 -0.9115  0.4265 -0.0035
  998MOL0     C31624   2.481   8.348   5.222 -0.5973 -0.9353 -1.3246
  998MOL0     C31625   2.349   8.422   5.184  0.0116  0.5425 -0.3243
  998MOL0     C31626   2.249   8.316   5.135  0.9664 -0.2359 -0.5376
  998MOL0     C31627   2.108   8.381   5.127  0.9604 -0.2596  1.1465
  998MOL0     O31628   2.011   8.272   5.127  0.2824 -0.7687 -0.2749
  998MOL0     C31629   1.882   8.284   5.073 -0.0410 -0.1216 -0.5770
  998MOL0     C31630   1.842   8.397   4.992 -0.6518 -0.2291 -0.5424
  998MOL0     C31631   1.709   8.413   4.956 -0.1764  0.4996  0.7190
  998MOL0     C31632   1.609   8.312   4.988 -0.3605 -0.7810 -0.7766
  998MOL0     C31633   1.463   8.337   4.970  0.3191  0.7214  0.6199
  998MOL0     O31634   1.411   8.408   4.872 -0.2750  0.2817 -0.1931
  998MOL0     C31635   1.279   8.454   4.874  0.1758 -0.4523  0.0240
  998MOL0     C31636   1.176   8.392   4.804 -0.2779  0.4064 -1.0132
  998MOL0     C31637   1.044   8.434   4.811  0.1740  0.3494 -0.4810
  998MOL0     C31638   1.010   8.544   4.879  0.6853 -0.2496  0.3334
  998MOL0     O31639   0.893   8.620   4.871  1.4969  0.0526 -0.0675
  998MOL0     C31640   0.782   8.555   4.811 -0.4760 -1.0140 -1.0208
  998MOL0     C31641   0.665   8.597   4.883  0.6605  0.3731 -0.1545
  998MOL0     C31642   0.532   8.544   4.807  0.4100 -0.1323  0.5008
  998MOL0     C31643   0.399   8.592   4.858  1.1880  0.2997  0.4477
  998MOL0     C31644   0.287   8.549   4.758  0.5186 -0.2169  0.7144
  998MOL0     C31645   0.151   8.620   4.787  0.5370  0.4197 -0.4510
  998MOL0     C31646   0.034   8.595   4.689  0.4442  0.8335  0.0925
  998MOL0     C31647   0.058   8.638   4.541  0.1623  0.1126  0.0162
  998MOL0    Cl31648   0.071   8.819   4.526 -0.2619 -0.4168 -0.3358
  998MOL0     C31649   1.103   8.609   4.955  0.8885 -0.7676 -0.1504
  998MOL0     C31650   1.240   8.572   4.947  0.6449  0.0406 -0.8902
  998MOL0     O31651   1.399   8.278   5.054 -0.3858 -0.5288 -0.5064
  998MOL0     C31652   1.652   8.200   5.067 -0.0010  0.1585 -0.5326
  998MOL0     C31653   1.787   8.187   5.109  0.1748 -0.4234  0.0023
  998MOL0     N31654   2.678   8.510   5.163 -0.3178 -0.5218 -0.1439
  998MOL0     N31655   2.756   8.588   5.232  0.4290 -0.4560  0.3792
  998MOL0     C31656   2.765   9.560   5.274  0.1280 -0.2800 -0.2970
  998MOL0     C31657   2.852   9.619   5.181  1.1830  0.0742  0.2590
  998MOL0     C31658   3.130   9.947   5.027  0.0752  0.2173  0.0461
  998MOL0     C31659   3.165   9.868   4.906 -0.5796 -0.4547 -0.0356
  998MOL0     C31660   3.237   9.931   4.805  0.7604 -0.2534  0.5757
  998MOL0     C31661   3.279  10.067   4.814  0.6712 -0.2304 -0.0909
  998MOL0     O31662   3.364  10.092   4.713  0.9296  0.4427  0.3902
  998MOL0     C31663   3.373  10.221   4.659  0.0799 -0.4123 -0.0004
  998MOL0     C31664   3.488  10.228   4.561  0.5467 -0.6347 -0.2546
  998MOL0     C31665   3.617  10.220   4.642  0.0439 -0.3487  0.4996
  998MOL0     C31666   3.749  10.198   4.562  0.1294  0.1979 -0.1540
  998MOL0     C31667   3.858  10.208   4.654  0.1883 -0.5577 -1.1060
  998MOL0     C31668   3.944  10.241   4.730 -0.1418 -0.9752 -0.8399
  998MOL0     C31669   3.243  10.146   4.929  0.1360  0.3148  0.3906
  998MOL0     C31670   3.170  10.077   5.032  0.6774 -0.2816 -0.5790
  998MOL0     H31671   3.098   9.713   5.382 -0.6105 -2.4958  3.2149
  998MOL0     H31672   2.951   9.608   5.551 -3.2411 -2.0000  0.9810
  998MOL0     H31673   2.749   9.442   5.673  0.1378  0.4743 -0.4168
  998MOL0     H31674   2.870   9.376   5.570  0.2749  0.8839  0.1155
  998MOL0     H31675   2.702   9.208   5.484  0.4937  0.0657 -0.5673
  998MOL0     H31676   2.582   9.293   5.588 -0.0706  0.2813  1.8472
  998MOL0     H31677   2.739   9.223   5.780 -0.6220  0.9657  0.8327
  998MOL0     H31678   2.821   9.110   5.666  0.3870 -0.1587  1.0475
  998MOL0     H31679   2.632   9.011   5.828 -0.8154  0.6127  0.3877
  998MOL0     H31680   2.527   9.123   5.756  2.0699  2.7927 -0.4567
  998MOL0     H31681   2.556   8.995   5.542 -0.0677 -0.0236 -0.3673
  998MOL0     H31682   2.513   8.880   5.671  0.7187 -0.2563  1.6471
  998MOL0     H31683   2.764   8.821   5.687 -2.1321 -0.6191  0.4943
  998MOL0     H31684   2.784   8.902   5.536  0.6552 -0.5416 -1.1385
  998MOL0     H31685   2.583   8.673   5.574  2.8460 -1.3058  0.9421
  998MOL0     H31686   2.587   8.768   5.438 -3.2219 -0.4784  3.1290
  998MOL0     H31687   2.802   8.586   5.562  2.2708 -0.0504 -0.3757
  998MOL0     H31688   2.856   8.705   5.441 -1.1836  0.9869  1.3759
  998MOL0     H31689   2.599   8.419   5.466 -1.7104 -0.5170 -1.1006
  998MOL0     H31690   2.447   8.285   5.305  0.3288 -1.3768 -1.2648
  998MOL0     H31691   2.505   8.277   5.142  0.2330 -1.9586 -0.1835
  998MOL0     H31692   2.368   8.498   5.108  1.6084 -0.0454 -0.5696
  998MOL0     H31693   2.317   8.472   5.276  4.1224 -0.1962  1.7535
  998MOL0     H31694   2.277   8.272   5.039  4.2228 -0.1737  0.2420
  998MOL0     H31695   2.246   8.235   5.209 -0.4485  0.0356 -0.2703
  998MOL0     H31696   2.112   8.428   5.028  0.2424 -0.9830  0.7634
  998MOL0     H31697   2.084   8.448   5.209  0.4745  1.0242 -0.0070
  998MOL0     H31698   1.910   8.475   4.961 -2.8708  2.5941  1.1098
  998MOL0     H31699   1.678   8.496   4.894  3.3973  0.3809 -1.5054
  998MOL0     H31700   1.192   8.307   4.738 -1.7819 -1.3122  0.7370
  998MOL0     H31701   0.967   8.383   4.754  0.1944  0.9785 -1.0903
  998MOL0     H31702   0.793   8.446   4.805  3.0694 -0.6916 -3.3156
  998MOL0     H31703   0.768   8.588   4.707 -1.1356 -0.2651 -0.7053
  998MOL0     H31704   0.663   8.707   4.886 -2.1289  0.5141 -2.9785
  998MOL0     H31705   0.668   8.575   4.990  0.9399  4.0799  0.7346
  998MOL0     H31706   0.545   8.435   4.810  1.7136 -0.1694 -2.8365
  998MOL0     H31707   0.535   8.560   4.699 -2.2385 -0.9853  0.2422
  998MOL0     H31708   0.367   8.561   4.958 -0.7175  0.7826  0.0175
  998MOL0     H31709   0.403   8.701   4.868 -0.1417  0.4874 -0.8324
  998MOL0     H31710   0.272   8.440   4.762 -0.4877 -0.1068  0.2977
  998MOL0     H31711   0.302   8.566   4.651 -2.5817 -2.3290 -0.1995
  998MOL0     H31712   0.178   8.726   4.795 -0.5381  0.6459  0.3022
  998MOL0     H31713   0.123   8.577   4.883  3.2368  1.9988  1.1929
  998MOL0     H31714   0.009   8.488   4.683  0.9526  0.7786 -1.5254
  998MOL0     H31715  -0.054   8.646   4.730 -0.7723 -1.3220  0.3372
  998MOL0     H31716  -0.029   8.609   4.482 -1.5065  0.8746  2.0005
  998MOL0     H31717   0.139   8.587   4.488 -0.4485  1.1331 -2.0120
  998MOL0     H31718   1.075   8.692   5.019  1.3474 -0.6132 -0.1401
  998MOL0     H31719   1.316   8.620   5.008 -2.3188  2.0680  1.4955
  998MOL0     H31720   1.588   8.125   5.113  1.2021 -1.5133 -1.4886
  998MOL0     H31721   1.825   8.100   5.161 -0.1876 -0.1699  0.6957
  998MOL0     H31722   2.670   9.521   5.241 -0.4720 -0.1451  1.2233
  998MOL0     H31723   2.828   9.633   5.076  2.6084 -0.8132 -0.2135
  998MOL0     H31724   3.136   9.765   4.886  1.6993 -1.3417  0.9369
  998MOL0     H31725   3.258   9.877   4.713  1.5982  0.2915  0.4361
  998MOL0     H31726   3.376  10.302   4.732  2.1883  0.7120 -1.2326
  998MOL0     H31727   3.277  10.246   4.612  0.7611 -0.6547 -1.5656
  998MOL0     H31728   3.473  10.153   4.483  0.2662 -2.6409  1.6208
  998MOL0     H31729   3.479  10.324   4.510  0.5570 -0.7298 -0.4363
  998MOL0     H31730   3.610  10.141   4.718  0.2663 -0.5078  0.3568
  998MOL0     H31731   3.622  10.316   4.694 -3.1842  1.3785 -2.0407
  998MOL0     H31732   3.758  10.103   4.508  1.1597  1.0960 -1.6178
  998MOL0     H31733   3.756  10.267   4.478  0.0938 -1.2331 -1.3797
  998MOL0     H31734   4.018  10.241   4.807 -1.4515 -1.5154  0.4624
  998MOL0     H31735   3.265  10.251   4.946  0.9049  0.0968  0.7776
  998MOL0     H31736   3.146  10.140   5.116  3.1422  1.5016 -1.1059
  999MOL0     O31737   9.692   5.647   9.593 -0.4670  0.3319  0.6966
  999MOL0     C31738   9.669   5.537   9.637 -0.7063 -0.7073 -0.4785
  999MOL0     O31739   9.542   5.496   9.691 -0.9588  0.7253 -0.1266
  999MOL0     C31740   9.438   5.590   9.684  0.1761  0.3221 -0.4063
  999MOL0     C31741   9.344   5.569   9.589 -0.2265 -0.0289 -0.2989
  999MOL0     C31742   9.252   5.667   9.562 -0.0250 -0.2174  0.5996
  999MOL0     C31743   9.228   5.783   9.649  0.4479  0.2033  0.6233
  999MOL0     O31744   9.120   5.860   9.614  0.6329  0.5218 -0.6258
  999MOL0     C31745   9.055   5.954   9.704  0.3179  0.9384  0.3447
  999MOL0     C31746   9.113   6.095   9.667  0.0171  0.3009 -1.1338
  999MOL0     C31747   9.110   6.112   9.515  0.6263 -0.0511 -0.3213
  999MOL0     C31748   9.158   6.251   9.468  0.2294  0.1662 -0.4804
  999MOL0     C31749   9.179   6.253   9.321  0.2001 -1.3049  0.6577
  999MOL0     C31750   9.234   6.398   9.276 -0.2674 -0.2526 -1.3265
  999MOL0     C31751   9.206   6.402   9.124  0.3323 -0.0820 -0.2677
  999MOL0     C31752   9.242   6.534   9.062  0.3459  0.0603  0.4279
  999MOL0     N31753   9.194   6.661   9.110  0.6057 -0.4822  0.3805
  999MOL0     C31754   9.063   6.694   9.145 -0.4564 -0.1165  0.1118
  999MOL0     C31755   9.065   6.805   9.221 -0.1097 -0.0330  0.2327
  999MOL0     C31756   8.937   6.870   9.266  0.4913  0.3942 -0.2602
  999MOL0     C31757   8.866   6.778   9.365 -0.2392  0.0386 -0.1709
  999MOL0     C31758   8.937   6.787   9.506  0.3459 -0.0264  0.8046
  999MOL0     C31759   8.841   6.717   9.606 -0.8616  0.7881  0.1673
  999MOL0     O31760   8.847   6.571   9.582  0.1881 -0.0887  0.2502
  999MOL0     C31761   8.756   6.490   9.651  0.0091 -0.0477  0.4669
  999MOL0     C31762   8.688   6.544   9.757 -0.1514 -0.2338 -0.3278
  999MOL0     C31763   8.591   6.461   9.825 -0.2001 -0.2274 -0.8345
  999MOL0     C31764   8.559   6.331   9.780 -0.5256 -0.3694  0.1315
  999MOL0     C31765   8.455   6.250   9.842 -0.8254  0.1157 -0.6628
  999MOL0     O31766   8.349   6.316   9.894  0.2269 -0.4191 -0.7186
  999MOL0     C31767   8.238   6.253   9.943 -0.2588 -0.1279  0.4858
  999MOL0     C31768   8.155   6.320  10.026  0.9733 -0.8048 -0.9097
  999MOL0     C31769   8.040   6.251  10.075 -0.8327  1.1487 -1.0938
  999MOL0     C31770   8.002   6.121  10.031  0.2997  0.3861 -0.4500
  999MOL0     O31771   7.880   6.074  10.080 -0.4741 -0.0372 -0.1361
  999MOL0     C31772   7.813   5.979   9.995 -0.1082 -0.6336 -0.0538
  999MOL0     C31773   7.668   5.963  10.036  0.4605 -0.8021  0.3797
  999MOL0     C31774   7.580   6.088   9.993 -0.0020 -0.1810  0.8931
  999MOL0     C31775   7.436   6.063  10.032  0.1125 -0.2493  0.4196
  999MOL0     C31776   7.345   6.166   9.976 -0.7666 -0.9098  0.7070
  999MOL0     C31777   7.201   6.127  10.016 -0.2961 -0.3107 -0.2022
  999MOL0     C31778   7.108   6.231   9.975  0.3010  0.2758  0.5046
  999MOL0     C31779   6.962   6.177   9.962 -0.1757 -0.2916  0.0776
  999MOL0    Cl31780   6.915   6.090  10.109  0.3007  0.2877 -0.0759
  999MOL0     C31781   8.087   6.054   9.939 -0.4354  0.2024  0.7273
  999MOL0     C31782   8.201   6.125   9.892  0.5873 -0.6010 -1.1105
  999MOL0     O31783   8.482   6.128   9.857 -0.1200 -0.3428 -0.8473
  999MOL0     C31784   8.642   6.282   9.678  0.7090 -0.0194 -0.6967
  999MOL0     C31785   8.738   6.359   9.607  0.3260 -0.4852 -0.1040
  999MOL0     N31786   9.197   6.834   9.243  0.7486  1.2615  0.2537
  999MOL0     N31787   9.267   6.739   9.191 -0.2412 -0.6666  0.4682
  999MOL0     C31788   9.322   5.797   9.750 -0.0987 -0.3696  1.0770
  999MOL0     C31789   9.438   5.709   9.751  0.1343 -0.7784  0.0120
  999MOL0     C31790   9.791   5.447   9.617  0.0814 -0.5974 -0.7801
  999MOL0     C31791   9.923   5.487   9.608 -0.0368  0.0089 -0.1870
  999MOL0     C31792  10.021   5.390   9.591  0.0653  0.0573  0.8422
  999MOL0     C31793  10.000   5.253   9.595 -0.9288  0.1510 -0.7127
  999MOL0     O31794  10.096   5.162   9.571 -0.0661  0.0932  1.1500
  999MOL0     C31795  10.079   5.023   9.543  0.3721 -0.1212 -0.1710
  999MOL0     C31796  10.210   4.958   9.515 -0.0021  0.2746 -0.1168
  999MOL0     C31797  10.311   4.965   9.626 -1.1714  0.0685 -0.1211
  999MOL0     C31798  10.443   4.925   9.562  0.5095 -0.1124 -0.1093
  999MOL0     C31799  10.533   4.887   9.666 -0.6367 -0.4014 -0.2207
  999MOL0     C31800  10.594   4.854   9.763 -1.4896 -0.2901  0.1458
  999MOL0     C31801   9.872   5.213   9.629  0.4387  0.2296  1.1698
  999MOL0     C31802   9.764   5.307   9.629 -0.2358  0.2423 -0.7775
  999MOL0     H31803   9.358   5.480   9.529  0.4357  0.4085 -0.8027
  999MOL0     H31804   9.175   5.641   9.490 -1.1416  2.3983  0.7138
  999MOL0     H31805   9.073   5.930   9.809 -0.0011 -0.8822  0.0271
  999MOL0     H31806   8.948   5.953   9.684  0.1632 -0.0489  1.1484
  999MOL0     H31807   9.216   6.088   9.703  0.0834  0.2924 -1.3249
  999MOL0     H31808   9.063   6.175   9.722 -0.2498 -0.3146 -0.4603
  999MOL0     H31809   9.007   6.094   9.485  0.4439  0.4403 -0.0179
  999MOL0     H31810   9.170   6.033   9.468 -1.0778 -0.6345 -1.5888
  999MOL0     H31811   9.071   6.317   9.475  0.3314  0.1858  1.0523
  999MOL0     H31812   9.240   6.296   9.526 -0.3282  0.5807 -0.0068
  999MOL0     H31813   9.088   6.230   9.266  1.5105  0.9408 -2.8026
  999MOL0     H31814   9.251   6.175   9.295  1.3588 -0.3740  0.9736
  999MOL0     H31815   9.339   6.415   9.302 -0.4849  1.1038 -1.2283
  999MOL0     H31816   9.170   6.471   9.326 -2.5392 -1.3367 -2.5182
  999MOL0     H31817   9.273   6.337   9.068  0.3917  1.3095 -1.8701
  999MOL0     H31818   9.106   6.359   9.109  0.2279  0.7564 -2.1781
  999MOL0     H31819   9.223   6.530   8.954  2.3737  0.7494  0.0096
  999MOL0     H31820   9.351   6.537   9.054  0.6362 -3.4679  1.1387
  999MOL0     H31821   8.988   6.630   9.099 -1.6494  0.2555  1.4697
  999MOL0     H31822   8.859   6.883   9.190  1.0865  0.7782 -0.8121
  999MOL0     H31823   8.958   6.968   9.310 -0.2726  1.3147 -1.8663
  999MOL0     H31824   8.868   6.676   9.327 -0.4950  1.2818 -3.9511
  999MOL0     H31825   8.767   6.823   9.378 -0.7369 -1.4757  1.6828
  999MOL0     H31826   9.035   6.739   9.500 -0.2595 -1.0809 -1.5382
  999MOL0     H31827   8.938   6.895   9.523  2.2794  0.3555 -1.3210
  999MOL0     H31828   8.740   6.760   9.601 -0.9774  0.6929  1.3409
  999MOL0     H31829   8.874   6.745   9.706  0.4265  0.9526 -0.2918
  999MOL0     H31830   8.694   6.641   9.805 -1.0322 -0.7194  0.8029
  999MOL0     H31831   8.541   6.503   9.912 -1.3702 -1.9003 -0.6520
  999MOL0     H31832   8.171   6.421  10.061 -2.5614 -0.5213  0.2441
  999MOL0     H31833   7.995   6.304  10.158  2.2195 -0.1039  1.5829
  999MOL0     H31834   7.865   5.884  10.007 -1.5078 -1.6923 -1.7656
  999MOL0     H31835   7.812   5.995   9.887 -1.6611 -0.6033 -0.0650
  999MOL0     H31836   7.667   5.961  10.145  1.3281  1.5306  0.4862
  999MOL0     H31837   7.627   5.872   9.991  0.8889 -0.4038 -0.8599
  999MOL0     H31838   7.593   6.104   9.885 -0.4562 -4.3810  0.0391
  999MOL0     H31839   7.616   6.177  10.046  0.2141 -0.7312  1.6807
  999MOL0     H31840   7.397   5.968   9.996  1.7767 -0.3473 -1.2938
  999MOL0     H31841   7.442   6.070  10.141  0.8727 -2.0667  0.5264
  999MOL0     H31842   7.362   6.183   9.869 -1.1383  2.0713  1.0189
  999MOL0     H31843   7.368   6.264  10.019  0.9280 -0.5537 -0.8802
  999MOL0     H31844   7.191   6.116  10.125  0.8445 -0.7264 -0.1247
  999MOL0     H31845   7.183   6.025   9.980 -0.0683 -0.2197 -0.5760
  999MOL0     H31846   7.098   6.313  10.047 -1.5217  0.5118  0.0447
  999MOL0     H31847   7.143   6.285   9.887 -0.0292 -2.5341 -1.4751
  999MOL0     H31848   6.942   6.102   9.884 -2.0027 -1.0977  1.2546
  999MOL0     H31849   6.896   6.261   9.943  1.6716  1.2047 -0.0143
  999MOL0     H31850   8.068   5.956   9.896  0.0695 -0.7279  2.5090
  999MOL0     H31851   8.247   6.085   9.802  0.6280  1.8714 -2.2859
  999MOL0     H31852   8.622   6.184   9.635  0.4505  0.7691 -2.4741
  999MOL0     H31853   8.793   6.312   9.526  0.8345  0.0622 -0.0758
  999MOL0     H31854   9.307   5.894   9.798 -0.0771  0.8546 -1.2253
  999MOL0     H31855   9.521   5.726   9.820 -0.1041  1.1697 -0.1391
  999MOL0     H31856   9.955   5.590   9.606  1.3477 -0.3928  0.3361
  999MOL0     H31857  10.120   5.434   9.578 -1.2205  2.6225 -1.4126
  999MOL0     H31858  10.011   5.006   9.459 -0.0697  1.6566 -0.2252
  999MOL0     H31859  10.037   4.975   9.632 -1.7182  1.4017 -0.2519
  999MOL0     H31860  10.199   4.856   9.477  0.2458  0.5621 -0.9895
  999MOL0     H31861  10.263   5.011   9.435  0.6113  1.9089  1.3095
  999MOL0     H31862  10.291   4.896   9.708  0.1399  0.7417  0.8014
  999MOL0     H31863  10.319   5.066   9.668  0.6476 -0.8758  2.0307
  999MOL0     H31864  10.438   4.841   9.492 -2.2628 -1.9345  2.0587
  999MOL0     H31865  10.478   5.015   9.511 -2.1823  1.1485  0.1096
  999MOL0     H31866  10.642   4.836   9.857  0.0096 -2.1594 -0.9027
  999MOL0     H31867   9.863   5.108   9.653 -1.5453  0.0286 -0.2620
  999MOL0     H31868   9.660   5.277   9.643 -0.4659  1.0750 -0.6268
 1000MOL0     O31869   5.933   4.606   1.897 -0.0496 -0.2833  0.1905
 1000MOL0     C31870   5.982   4.720   1.879  0.1469 -0.4470  0.4688
 1000MOL0     O31871   5.909   4.829   1.858  0.8550 -0.4324  0.3748
 1000MOL0     C31872   5.774   4.808   1.856 -0.1656  0.0221 -0.7733
 1000MOL0     C31873   5.685   4.811   1.965  0.1988 -0.2200  0.3792
 1000MOL0     C31874   5.545   4.797   1.962  0.0694 -0.1482  0.2432
 1000MOL0     C31875   5.487   4.797   1.834 -0.0608 -0.5846 -0.4431
 1000MOL0     O31876   5.354   4.766   1.810  0.3495  0.1319 -0.1689
 1000MOL0     C31877   5.286   4.689   1.910  0.1255 -0.6064  0.5404
 1000MOL0     C31878   5.156   4.634   1.838  0.8342  0.1035 -0.1145
 1000MOL0     C31879   5.024   4.612   1.923 -0.4237  0.4792 -0.1565
 1000MOL0     C31880   4.916   4.550   1.830 -0.9088  0.0131  0.0798
 1000MOL0     C31881   4.780   4.565   1.896 -0.2583  0.0001  0.1730
 1000MOL0     C31882   4.664   4.498   1.821 -0.4058  0.0915 -0.1828
 1000MOL0     C31883   4.542   4.461   1.901  1.6157 -0.8098 -0.1262
 1000MOL0     C31884   4.491   4.598   1.964  0.5875 -0.1696  0.3499
 1000MOL0     N31885   4.364   4.569   2.026  0.0143  1.2007 -0.7685
 1000MOL0     C31886   4.251   4.539   1.967  0.3935  1.0449  0.8345
 1000MOL0     C31887   4.157   4.515   2.060  0.0066 -0.4458  0.4369
 1000MOL0     C31888   4.008   4.480   2.040 -0.2543  0.2492  0.4741
 1000MOL0     C31889   3.927   4.410   2.143 -0.8065 -0.0253 -0.0035
 1000MOL0     C31890   3.777   4.416   2.100  0.5399 -0.2989  0.0363
 1000MOL0     C31891   3.747   4.340   1.964 -0.2773  0.2797 -1.3332
 1000MOL0     O31892   3.739   4.201   1.975 -0.6425 -0.4351  0.0355
 1000MOL0     C31893   3.616   4.139   1.999  0.2273 -0.7036 -0.0439
 1000MOL0     C31894   3.620   4.023   2.063  0.6888 -0.3364  0.0496
 1000MOL0     C31895   3.507   3.959   2.107  0.5185  0.2742 -0.1016
 1000MOL0     C31896   3.377   4.009   2.082 -0.0478 -0.1647 -1.0524
 1000MOL0     C31897   3.258   3.937   2.130  0.5855 -0.0183 -0.3042
 1000MOL0     O31898   3.138   3.999   2.102 -0.0370  0.3008  0.1534
 1000MOL0     C31899   3.021   3.931   2.106 -0.3099  0.7961  0.7269
 1000MOL0     C31900   3.011   3.796   2.060  0.0498  0.4959 -0.4310
 1000MOL0     C31901   2.894   3.723   2.054 -0.1957 -0.9063 -0.0153
 1000MOL0     C31902   2.782   3.777   2.113 -0.1410 -0.4008 -0.0087
 1000MOL0     O31903   2.656   3.715   2.116 -0.1910  0.3975 -0.6409
 1000MOL0     C31904   2.638   3.598   2.038 -0.0946 -0.3215  0.1727
 1000MOL0     C31905   2.499   3.535   2.050 -0.0909  0.5361 -0.4791
 1000MOL0     C31906   2.388   3.641   2.032 -0.3608 -0.0417  0.6965
 1000MOL0     C31907   2.243   3.590   2.028  0.6130 -0.4157 -0.2084
 1000MOL0     C31908   2.194   3.506   2.142 -0.8713  0.6369  0.1448
 1000MOL0     C31909   2.045   3.493   2.147  0.3155  1.0310  0.1474
 1000MOL0     C31910   2.006   3.458   2.296 -0.0237  0.1893 -0.4698
 1000MOL0     C31911   2.017   3.305   2.327  0.6396  0.2437 -0.4007
 1000MOL0    Cl31912   1.947   3.260   2.482  0.2754  0.3422 -0.4247
 1000MOL0     C31913   2.785   3.908   2.166 -0.8257 -0.1440 -0.2220
 1000MOL0     C31914   2.906   3.986   2.157 -0.2341  0.5081  0.1396
 1000MOL0     O31915   3.277   3.825   2.176  0.0348 -0.3231  0.1954
 1000MOL0     C31916   3.367   4.141   2.022  0.0408  0.1746 -0.7996
 1000MOL0     C31917   3.486   4.194   1.985  0.2556  0.4589 -0.6583
 1000MOL0     N31918   4.218   4.532   2.188 -0.1587  0.0492 -0.1738
 1000MOL0     N31919   4.340   4.559   2.164  0.3321  0.3450 -0.4147
 1000MOL0     C31920   5.569   4.819   1.725 -0.3137 -0.7043  0.6616
 1000MOL0     C31921   5.710   4.814   1.732  1.0486  0.2358  0.5190
 1000MOL0     C31922   6.133   4.744   1.858  0.0278 -0.5645  0.7511
 1000MOL0     C31923   6.213   4.629   1.837 -0.2218  0.1492 -0.2041
 1000MOL0     C31924   6.351   4.638   1.814  0.8824  0.0527 -0.1995
 1000MOL0     C31925   6.407   4.764   1.819 -0.6937  0.4403  0.9647
 1000MOL0     O31926   6.541   4.784   1.785 -0.0589  0.0827 -0.2928
 1000MOL0     C31927   6.598   4.685   1.706  0.2402  0.0068 -0.0719
 1000MOL0     C31928   6.739   4.728   1.656 -1.1697  0.5611 -0.6219
 1000MOL0     C31929   6.798   4.609   1.569  0.0154 -0.2176 -0.3313
 1000MOL0     C31930   6.938   4.646   1.513 -0.8958  0.7265  0.5632
 1000MOL0     C31931   6.929   4.758   1.416 -0.4383  1.3624 -0.1111
 1000MOL0     C31932   6.939   4.839   1.329  0.5120 -0.3174  1.0422
 1000MOL0     C31933   6.338   4.875   1.840  0.7520 -0.0095 -1.2566
 1000MOL0     C31934   6.198   4.872   1.862 -0.3651 -0.4719 -0.3144
 1000MOL0     H31935   5.725   4.813   2.066  0.7576 -1.3751  0.2014
 1000MOL0     H31936   5.488   4.772   2.051  0.9893 -1.5485  0.4749
 1000MOL0     H31937   5.267   4.765   1.986 -0.3218  0.3401 -0.4898
 1000MOL0     H31938   5.351   4.606   1.941  2.1819 -0.0869 -1.9537
 1000MOL0     H31939   5.193   4.541   1.794  1.2220  0.3146 -0.2427
 1000MOL0     H31940   5.127   4.691   1.750 -0.8204  0.2242  0.4805
 1000MOL0     H31941   4.983   4.707   1.958 -2.9773 -1.0729  1.3545
 1000MOL0     H31942   5.034   4.545   2.009 -0.6988  0.5371 -0.0793
 1000MOL0     H31943   4.919   4.590   1.729  1.9607  3.1770  1.2260
 1000MOL0     H31944   4.946   4.444   1.832  1.7493  0.7033  0.6555
 1000MOL0     H31945   4.757   4.672   1.897  0.4530  0.1755 -0.8122
 1000MOL0     H31946   4.772   4.524   1.997  0.7351  2.1361  1.1760
 1000MOL0     H31947   4.697   4.410   1.766 -2.9407  1.0243 -3.4792
 1000MOL0     H31948   4.632   4.574   1.749 -1.4595 -0.0483  0.1200
 1000MOL0     H31949   4.461   4.420   1.840 -1.0034  2.7515  0.6395
 1000MOL0     H31950   4.567   4.389   1.979  4.3201  0.1000 -0.0643
 1000MOL0     H31951   4.470   4.674   1.887 -2.6518 -1.8400 -0.6055
 1000MOL0     H31952   4.563   4.641   2.034  0.5929 -1.3830  1.1101
 1000MOL0     H31953   4.233   4.533   1.860  2.0514 -0.7394  0.6101
 1000MOL0     H31954   4.010   4.411   1.955  2.2144 -0.0786  0.7102
 1000MOL0     H31955   3.947   4.564   2.005 -1.9360 -1.3998 -0.7783
 1000MOL0     H31956   3.935   4.443   2.247  2.4978 -4.0624  1.2745
 1000MOL0     H31957   3.957   4.306   2.153 -0.5559  0.1740  1.4246
 1000MOL0     H31958   3.723   4.365   2.179  1.2942 -0.3719  0.5162
 1000MOL0     H31959   3.735   4.517   2.091 -1.2884 -1.1182 -1.1804
 1000MOL0     H31960   3.825   4.360   1.889  0.8760  1.0529  0.0132
 1000MOL0     H31961   3.658   4.389   1.925 -1.2825 -3.0008 -3.6187
 1000MOL0     H31962   3.720   3.982   2.075  1.0404  0.7061  0.8081
 1000MOL0     H31963   3.517   3.867   2.165 -2.5700  2.0239  3.6263
 1000MOL0     H31964   3.103   3.749   2.024  0.7448 -0.1566  2.0288
 1000MOL0     H31965   2.893   3.631   1.997  2.9774 -0.6934 -0.5723
 1000MOL0     H31966   2.713   3.529   2.077  0.2750 -0.7477 -1.2484
 1000MOL0     H31967   2.663   3.618   1.933 -3.1659  0.2324 -0.5642
 1000MOL0     H31968   2.491   3.486   2.147 -1.4546 -0.7448 -1.1962
 1000MOL0     H31969   2.478   3.463   1.970  1.8970 -0.7574  0.0919
 1000MOL0     H31970   2.413   3.698   1.942  0.3097 -1.3187  0.0432
 1000MOL0     H31971   2.391   3.717   2.111 -1.8135  1.1807 -0.3679
 1000MOL0     H31972   2.164   3.662   2.004  1.0476 -0.3599 -1.5325
 1000MOL0     H31973   2.240   3.516   1.948 -1.9211 -0.5265 -0.0754
 1000MOL0     H31974   2.212   3.571   2.228 -0.2267  2.0575 -1.0111
 1000MOL0     H31975   2.244   3.409   2.157 -2.2163 -0.3172 -1.2196
 1000MOL0     H31976   2.013   3.406   2.088  3.0266  0.5078 -0.6963
 1000MOL0     H31977   1.996   3.584   2.113  0.2762  0.1331 -2.4230
 1000MOL0     H31978   2.068   3.519   2.363 -0.4725 -0.8236  0.9018
 1000MOL0     H31979   1.902   3.487   2.312 -0.4576 -1.9090  0.8812
 1000MOL0     H31980   2.123   3.281   2.325  0.7092  0.5321 -2.2832
 1000MOL0     H31981   1.966   3.241   2.254  0.5492 -1.2647  0.9393
 1000MOL0     H31982   2.698   3.948   2.218 -0.7145 -1.2991  0.9146
 1000MOL0     H31983   2.887   4.086   2.194  0.0297 -0.2729  2.5219
 1000MOL0     H31984   3.279   4.199   1.995 -0.5892 -0.8184 -0.9231
 1000MOL0     H31985   3.467   4.291   1.940 -0.5141  0.7975  0.3594
 1000MOL0     H31986   5.528   4.826   1.625  3.3878 -1.3837 -1.1030
 1000MOL0     H31987   5.774   4.818   1.644 -0.4905  2.1827 -0.5983
 1000MOL0     H31988   6.168   4.530   1.831  2.0851 -1.0779  1.2780
 1000MOL0     H31989   6.403   4.543   1.807 -1.3103 -1.4534  2.0731
 1000MOL0     H31990   6.531   4.667   1.621 -1.8296  1.8711  1.0290
 1000MOL0     H31991   6.610   4.598   1.771  1.1441 -1.2368 -1.8571
 1000MOL0     H31992   6.735   4.823   1.603 -2.1280  1.0346  0.2560
 1000MOL0     H31993   6.797   4.751   1.746 -1.7414 -0.4585  0.0322
 1000MOL0     H31994   6.723   4.595   1.490  2.6364 -0.5807 -2.9366
 1000MOL0     H31995   6.791   4.517   1.627  0.2490 -0.8967 -1.3476
 1000MOL0     H31996   7.016   4.666   1.587  0.2768  1.2865 -0.7739
 1000MOL0     H31997   6.985   4.561   1.462 -0.7326  0.5856  0.9472
 1000MOL0     H31998   6.952   4.913   1.253 -3.5621 -0.6936 -0.2860
 1000MOL0     H31999   6.391   4.969   1.830 -0.2235  1.1365  2.6016
 1000MOL0     H32000   6.129   4.955   1.876 -0.1814  0.1342 -2.6435
 1001MOL0     O32001  10.332   8.691   0.107  0.7860  0.5799  0.1735
 1001MOL0     C32002  10.348   8.807   0.126  0.1753 -0.7049 -0.2197
 1001MOL0     O32003  10.252   8.915   0.092 -0.1899  0.0337 -0.2080
 1001MOL0     C32004  10.124   8.877   0.040 -0.1042 -0.6975  0.1574
 1001MOL0     C32005  10.063   8.946  -0.066 -1.3143  0.0275 -0.1969
 1001MOL0     C32006   9.934   8.927  -0.109  0.0549 -0.1767 -0.1789
 1001MOL0     C32007   9.846   8.847  -0.032  0.3440 -0.6779 -0.4317
 1001MOL0     O32008   9.711   8.863  -0.057 -0.1599  0.2545  0.3626
 1001MOL0     C32009   9.623   8.798   0.034 -0.1053  0.1096 -0.0583
 1001MOL0     C32010   9.480   8.811  -0.017  0.2094  0.2360  0.0813
 1001MOL0     C32011   9.395   8.757   0.090  0.0630  0.0060 -0.4236
 1001MOL0     C32012   9.248   8.765   0.044  0.2540  0.1425  0.0801
 1001MOL0     C32013   9.169   8.806   0.164  0.4148 -0.0692  0.6882
 1001MOL0     C32014   9.130   8.702   0.267  0.7295  0.6741 -0.1873
 1001MOL0     C32015   9.058   8.580   0.209 -0.4073  0.4353  0.2856
 1001MOL0     C32016   8.928   8.611   0.135 -1.0171 -0.3754 -0.0561
 1001MOL0     N32017   8.830   8.505   0.142  0.1272 -0.2460 -0.2683
 1001MOL0     C32018   8.823   8.402   0.057 -0.5153 -0.1925 -0.4997
 1001MOL0     C32019   8.739   8.303   0.103 -0.0181  0.6128 -0.1159
 1001MOL0     C32020   8.692   8.170   0.043 -0.4652  0.5446  0.2681
 1001MOL0     C32021   8.568   8.210  -0.041  1.1518  0.3541  0.5696
 1001MOL0     C32022   8.429   8.235   0.024  0.6151  0.1727  0.2162
 1001MOL0     C32023   8.309   8.239  -0.069 -0.1200  0.6112  0.4876
 1001MOL0     O32024   8.191   8.291   0.002 -0.0130 -0.3693  0.3532
 1001MOL0     C32025   8.063   8.280  -0.056 -0.2920 -0.0015 -0.7711
 1001MOL0     C32026   8.033   8.231  -0.183  0.7723 -0.6950 -0.8553
 1001MOL0     C32027   7.900   8.243  -0.234 -0.3492 -0.2419  0.0169
 1001MOL0     C32028   7.785   8.272  -0.152 -0.7420  0.0684 -0.8037
 1001MOL0     C32029   7.641   8.266  -0.191  0.0771  0.9325 -0.1536
 1001MOL0     O32030   7.612   8.221  -0.320  0.1298 -0.1243 -0.1089
 1001MOL0     C32031   7.477   8.220  -0.355  0.0875 -0.3463  1.1363
 1001MOL0     C32032   7.384   8.147  -0.282 -0.0096  0.0094  0.0966
 1001MOL0     C32033   7.244   8.150  -0.315  0.4304  0.5799  0.2189
 1001MOL0     C32034   7.200   8.235  -0.413  0.0003 -0.1870 -0.2851
 1001MOL0     O32035   7.062   8.259  -0.434  0.4429 -0.3861 -0.2990
 1001MOL0     C32036   6.997   8.140  -0.475  1.1235  1.0654 -0.0208
 1001MOL0     C32037   6.901   8.173  -0.578  0.7925  0.4576  0.2623
 1001MOL0     C32038   6.798   8.060  -0.607 -0.1547  0.1702 -0.4288
 1001MOL0     C32039   6.699   8.101  -0.723 -0.4163 -1.5093 -0.5446
 1001MOL0     C32040   6.619   7.984  -0.788 -0.3942  0.0634  0.5177
 1001MOL0     C32041   6.560   7.886  -0.690 -0.0476  0.1267  0.8967
 1001MOL0     C32042   6.452   7.951  -0.599 -0.6209  0.2514 -0.3676
 1001MOL0     C32043   6.349   8.036  -0.673  0.5064 -0.1271  0.2453
 1001MOL0    Cl32044   6.187   8.024  -0.574  0.6632 -0.1669  0.0393
 1001MOL0     C32045   7.296   8.310  -0.484 -0.3078  0.1268  0.4379
 1001MOL0     C32046   7.432   8.306  -0.457 -0.6046  0.8434  1.0198
 1001MOL0     O32047   7.557   8.305  -0.106  0.4363  0.7530 -0.1384
 1001MOL0     C32048   7.819   8.314  -0.022  0.2825  0.1907  0.0074
 1001MOL0     C32049   7.952   8.320   0.023 -0.8416  0.5721  0.6684
 1001MOL0     N32050   8.686   8.366   0.212  0.5593  0.1885 -0.8196
 1001MOL0     N32051   8.738   8.482   0.236  0.3784  0.0508  0.4731
 1001MOL0     C32052   9.912   8.772   0.077  0.2528  0.0452  1.0128
 1001MOL0     C32053  10.038   8.802   0.121 -0.0325  0.9238  0.2162
 1001MOL0     C32054  10.475   8.847   0.181  0.2884 -0.2708  0.3307
 1001MOL0     C32055  10.499   8.980   0.227  0.1646  0.6036  0.3579
 1001MOL0     C32056  10.621   9.019   0.276  0.2873  0.8404 -0.7306
 1001MOL0     C32057  10.725   8.924   0.286 -0.2805 -0.1185  0.4684
 1001MOL0     O32058  10.845   8.950   0.347 -0.7324 -1.2922  0.0941
 1001MOL0     C32059  10.902   9.078   0.347  0.8775  0.0099 -1.4215
 1001MOL0     C32060  10.985   9.104   0.224 -0.9148 -0.2344  0.1280
 1001MOL0     C32061  11.050   9.243   0.235 -0.0828  0.1490 -0.0169
 1001MOL0     C32062  11.200   9.240   0.273 -0.2564 -0.4878  0.5995
 1001MOL0     C32063  11.214   9.169   0.395 -0.9883 -0.0672  0.2381
 1001MOL0     C32064  11.224   9.104   0.494 -0.2285  0.0835 -0.1909
 1001MOL0     C32065  10.701   8.794   0.240  0.4801 -0.4175  0.1027
 1001MOL0     C32066  10.585   8.755   0.180 -0.0703  0.1645  0.4782
 1001MOL0     H32067  10.121   9.018  -0.123  0.8435 -2.3135 -1.1569
 1001MOL0     H32068   9.889   8.987  -0.187  0.4585  0.2212 -0.1088
 1001MOL0     H32069   9.634   8.840   0.135 -4.0862 -0.7554  0.9140
 1001MOL0     H32070   9.636   8.689   0.033  1.7708  0.3026 -2.0455
 1001MOL0     H32071   9.460   8.757  -0.110 -1.3269  2.0321 -0.6944
 1001MOL0     H32072   9.453   8.915  -0.038  2.0465  0.8297  0.4644
 1001MOL0     H32073   9.413   8.815   0.181 -0.6365 -0.4239  0.0026
 1001MOL0     H32074   9.421   8.652   0.106 -2.1918 -0.6462 -0.6436
 1001MOL0     H32075   9.233   8.847  -0.027  1.8086  0.4099  0.0281
 1001MOL0     H32076   9.203   8.673   0.006  1.1128 -1.4321  2.6816
 1001MOL0     H32077   9.078   8.848   0.120  0.6852 -0.1907  0.0040
 1001MOL0     H32078   9.215   8.894   0.210 -1.4010  0.4935  1.5501
 1001MOL0     H32079   9.059   8.753   0.332  2.4323  0.1397  2.2463
 1001MOL0     H32080   9.211   8.671   0.335 -1.5370 -4.0049  0.7324
 1001MOL0     H32081   9.129   8.515   0.157 -2.0916 -2.9773  1.9083
 1001MOL0     H32082   9.030   8.517   0.294 -0.6754  1.1529  0.7390
 1001MOL0     H32083   8.957   8.633   0.032 -0.1743 -0.2497  0.2001
 1001MOL0     H32084   8.885   8.699   0.184 -0.1899  0.2178 -0.3768
 1001MOL0     H32085   8.881   8.391  -0.034 -0.2447  1.6440 -0.5854
 1001MOL0     H32086   8.688   8.091   0.118 -1.3296 -0.4111 -0.7428
 1001MOL0     H32087   8.767   8.125  -0.022 -0.0031 -3.2838  3.1163
 1001MOL0     H32088   8.554   8.124  -0.107 -1.5894  1.2237 -0.1132
 1001MOL0     H32089   8.587   8.305  -0.092  1.5001 -0.7919 -1.5499
 1001MOL0     H32090   8.420   8.143   0.084  3.0229  0.2995  0.8846
 1001MOL0     H32091   8.436   8.325   0.086 -2.0507  0.3948  0.2812
 1001MOL0     H32092   8.278   8.136  -0.090  0.1839  0.3360  1.3287
 1001MOL0     H32093   8.329   8.302  -0.156  1.8215  1.0389  1.2057
 1001MOL0     H32094   8.112   8.190  -0.246  0.2071 -1.8656 -0.8168
 1001MOL0     H32095   7.891   8.220  -0.340  1.5878 -0.4090 -0.1492
 1001MOL0     H32096   7.406   8.076  -0.203 -0.7168 -0.8650 -0.4747
 1001MOL0     H32097   7.177   8.097  -0.248  1.0642  1.1115  1.3113
 1001MOL0     H32098   6.950   8.081  -0.396 -0.4207  0.9400 -0.9973
 1001MOL0     H32099   7.059   8.065  -0.523 -0.7802  0.3126 -1.4105
 1001MOL0     H32100   6.965   8.185  -0.667 -2.8418  1.1936 -2.4748
 1001MOL0     H32101   6.837   8.260  -0.562 -0.0068  0.3097 -1.8310
 1001MOL0     H32102   6.736   8.052  -0.518 -0.4313 -1.8342 -0.7603
 1001MOL0     H32103   6.857   7.970  -0.626  0.5237  0.3955  0.5642
 1001MOL0     H32104   6.633   8.183  -0.693  1.1807  0.0689 -1.1760
 1001MOL0     H32105   6.767   8.135  -0.801 -1.1362  0.4436 -0.3755
 1001MOL0     H32106   6.689   7.931  -0.853 -0.6280  1.3236 -0.8111
 1001MOL0     H32107   6.552   8.023  -0.864  1.5279  0.2447 -1.1700
 1001MOL0     H32108   6.642   7.835  -0.639 -0.8364 -1.0796  1.0009
 1001MOL0     H32109   6.508   7.807  -0.746 -1.3098  0.5033  1.4878
 1001MOL0     H32110   6.397   7.875  -0.542 -1.0071  0.0156 -1.0415
 1001MOL0     H32111   6.500   8.014  -0.524  0.7186 -0.9812 -0.1629
 1001MOL0     H32112   6.336   7.999  -0.775  0.9286  1.5616 -0.4635
 1001MOL0     H32113   6.369   8.144  -0.666  1.8682 -0.3450  0.1221
 1001MOL0     H32114   7.256   8.369  -0.566  0.7863 -0.0517 -0.2387
 1001MOL0     H32115   7.505   8.367  -0.509 -1.7433  0.1526 -1.5349
 1001MOL0     H32116   7.739   8.343   0.045  0.9172  2.4100 -0.1247
 1001MOL0     H32117   7.971   8.352   0.125  2.2346 -0.1730  0.4158
 1001MOL0     H32118   9.849   8.707   0.135 -0.7224  1.9370  2.1865
 1001MOL0     H32119  10.081   8.784   0.219 -0.5905  1.0107  0.4818
 1001MOL0     H32120  10.420   9.055   0.228  0.6050  1.2646  4.5174
 1001MOL0     H32121  10.631   9.122   0.308  1.6558  1.3133 -2.5425
 1001MOL0     H32122  10.963   9.089   0.437  2.6528  3.4137 -2.8450
 1001MOL0     H32123  10.823   9.154   0.354  0.3003 -0.7455  2.3937
 1001MOL0     H32124  11.062   9.030   0.204 -0.5193 -0.5420  2.5048
 1001MOL0     H32125  10.921   9.096   0.135 -0.4113 -2.2814 -0.0953
 1001MOL0     H32126  10.991   9.317   0.290 -0.1460 -0.3157  0.5542
 1001MOL0     H32127  11.049   9.280   0.132  0.7233 -1.2472 -0.5436
 1001MOL0     H32128  11.256   9.189   0.194 -0.2020 -2.1263  1.6372
 1001MOL0     H32129  11.239   9.342   0.274  1.7981 -1.2094  0.0636
 1001MOL0     H32130  11.240   9.058   0.589 -1.0058 -1.8418 -0.9195
 1001MOL0     H32131  10.781   8.722   0.252 -0.2758 -1.6553 -1.8945
 1001MOL0     H32132  10.571   8.652   0.151 -2.3918  0.2905  0.9316
 1002MOL0     O32133   4.021   7.868   3.547 -0.1548  0.3704 -0.6928
 1002MOL0     C32134   4.080   7.963   3.492 -0.0597  0.1569  0.6543
 1002MOL0     O32135   4.028   8.062   3.416 -0.3337  0.4835  0.2608
 1002MOL0     C32136   3.901   8.033   3.370  0.2345 -0.5762  0.0788
 1002MOL0     C32137   3.888   7.933   3.273 -0.2569 -0.3077 -1.0415
 1002MOL0     C32138   3.765   7.905   3.222  0.4287 -0.1123 -0.2876
 1002MOL0     C32139   3.645   7.959   3.273 -0.6448 -0.2231 -0.1284
 1002MOL0     O32140   3.530   7.923   3.207 -0.9334  0.4057  0.3716
 1002MOL0     C32141   3.400   7.951   3.253 -0.0460  1.0923 -0.3227
 1002MOL0     C32142   3.319   8.051   3.166 -0.0193  0.5261 -0.4372
 1002MOL0     C32143   3.176   8.066   3.233  0.2456  0.6377  0.1053
 1002MOL0     C32144   3.121   8.207   3.193  0.2198  0.1645  0.4864
 1002MOL0     C32145   2.973   8.224   3.183  0.4043  0.0787  0.2195
 1002MOL0     C32146   2.912   8.286   3.052 -0.3176 -0.4366 -0.0625
 1002MOL0     C32147   2.916   8.203   2.933 -0.0774  0.2689 -0.4068
 1002MOL0     C32148   2.862   8.276   2.802 -0.0971  0.1961  0.1011
 1002MOL0     N32149   2.720   8.328   2.815 -0.4292 -0.6641  0.4174
 1002MOL0     C32150   2.615   8.250   2.852  0.3884  0.0917  0.1453
 1002MOL0     C32151   2.523   8.341   2.889 -0.4375 -0.4287  0.5510
 1002MOL0     C32152   2.391   8.341   2.963 -0.1271 -0.2605 -0.9849
 1002MOL0     C32153   2.301   8.224   2.918 -1.2166 -0.7209  1.0341
 1002MOL0     C32154   2.207   8.172   3.024  0.5769 -0.3010 -0.3769
 1002MOL0     C32155   2.142   8.040   2.984  0.3820  0.6524  0.6738
 1002MOL0     O32156   2.087   7.996   3.111  0.7206 -0.5002 -0.1996
 1002MOL0     C32157   2.078   7.860   3.149 -0.6633  0.2402 -0.1593
 1002MOL0     C32158   2.021   7.839   3.272 -0.3659 -0.6009 -0.1613
 1002MOL0     C32159   2.013   7.711   3.328  0.5371 -0.0949 -0.7346
 1002MOL0     C32160   2.038   7.601   3.250 -0.4008  1.0604  0.0771
 1002MOL0     C32161   1.988   7.469   3.291  0.0931 -0.0613 -0.0712
 1002MOL0     O32162   1.948   7.464   3.425  0.1351  0.2455  0.0444
 1002MOL0     C32163   1.911   7.338   3.463 -0.1820 -0.0578 -0.0354
 1002MOL0     C32164   1.971   7.283   3.575  1.3991 -0.0856  0.7880
 1002MOL0     C32165   1.942   7.156   3.625  0.3130  0.3028  0.1932
 1002MOL0     C32166   1.836   7.083   3.577  0.8038  0.9443  0.0891
 1002MOL0     O32167   1.811   6.966   3.645  0.2959  0.1973  0.1011
 1002MOL0     C32168   1.746   6.853   3.581 -0.4298  0.4851 -0.1076
 1002MOL0     C32169   1.832   6.726   3.615 -0.6695 -0.5655 -0.7101
 1002MOL0     C32170   1.880   6.703   3.762 -0.2741 -0.9238 -0.0336
 1002MOL0     C32171   1.969   6.814   3.829  0.4786 -0.1837  0.1755
 1002MOL0     C32172   2.055   6.765   3.939 -0.4655 -0.6619 -0.6855
 1002MOL0     C32173   2.140   6.885   3.994 -0.2866 -0.3409  0.6400
 1002MOL0     C32174   2.205   6.855   4.132  1.2346  0.0936  0.3402
 1002MOL0     C32175   2.324   6.932   4.158 -0.1748  0.0787  0.3360
 1002MOL0    Cl32176   2.443   6.897   4.030 -0.0677  0.7007  1.0268
 1002MOL0     C32177   1.769   7.140   3.466  0.2796  0.0330 -0.2981
 1002MOL0     C32178   1.805   7.259   3.409 -0.2766 -0.2569  0.2192
 1002MOL0     O32179   1.996   7.375   3.217  0.4812 -0.1209 -0.3521
 1002MOL0     C32180   2.099   7.615   3.128  0.1971  0.4750 -0.3860
 1002MOL0     C32181   2.117   7.750   3.083 -0.5208 -0.2372 -1.3316
 1002MOL0     N32182   2.570   8.461   2.845  0.9640  0.0751 -0.2896
 1002MOL0     N32183   2.691   8.456   2.814  0.3778 -0.2596 -0.0921
 1002MOL0     C32184   3.654   8.062   3.372  0.1899 -0.3765  0.2920
 1002MOL0     C32185   3.784   8.102   3.411 -0.1660  0.2522 -0.4219
 1002MOL0     C32186   4.214   7.996   3.544 -0.4652 -0.0275 -0.6270
 1002MOL0     C32187   4.309   7.896   3.567  0.3940 -0.0041  0.1445
 1002MOL0     C32188   4.439   7.924   3.607 -0.2142  0.4804  0.3767
 1002MOL0     C32189   4.479   8.059   3.621  0.1168  0.2172  0.2242
 1002MOL0     O32190   4.607   8.079   3.673  0.1642  0.0258 -0.3630
 1002MOL0     C32191   4.652   8.221   3.686 -0.1755  0.1820 -0.0822
 1002MOL0     C32192   4.793   8.219   3.749 -0.1041 -0.6731 -0.7839
 1002MOL0     C32193   4.911   8.180   3.658  0.7085 -0.6537  0.0175
 1002MOL0     C32194   5.045   8.179   3.743 -0.4977  0.3051  0.6755
 1002MOL0     C32195   5.094   8.316   3.759  0.7402 -0.0503  0.3686
 1002MOL0     C32196   5.133   8.434   3.762  0.0674  0.2832  0.1422
 1002MOL0     C32197   4.378   8.156   3.604 -0.5132  0.4029 -0.3424
 1002MOL0     C32198   4.248   8.128   3.569  0.2516  0.1289  0.5460
 1002MOL0     H32199   3.980   7.895   3.229  2.0586  0.2585  2.8460
 1002MOL0     H32200   3.767   7.832   3.142 -0.6296 -1.3530  0.7611
 1002MOL0     H32201   3.396   7.970   3.361 -1.1059  1.5411 -0.4288
 1002MOL0     H32202   3.345   7.858   3.237  1.0542  0.0150  1.6806
 1002MOL0     H32203   3.309   8.019   3.062  2.3538 -0.6701 -0.3791
 1002MOL0     H32204   3.379   8.143   3.167  2.8958 -1.1380  2.7629
 1002MOL0     H32205   3.182   8.057   3.341  0.8247  0.2431  0.0435
 1002MOL0     H32206   3.106   7.984   3.212  2.6197 -2.6774  3.6321
 1002MOL0     H32207   3.168   8.274   3.265  0.1533 -1.8202  2.4629
 1002MOL0     H32208   3.162   8.240   3.097 -1.5210  0.3686 -0.2308
 1002MOL0     H32209   2.937   8.290   3.263  0.7503 -0.0014  0.4425
 1002MOL0     H32210   2.925   8.126   3.179 -1.4087  0.9647 -2.6245
 1002MOL0     H32211   2.963   8.380   3.026 -3.2594  1.6754  1.2571
 1002MOL0     H32212   2.808   8.313   3.069  0.0612 -0.3438  2.5490
 1002MOL0     H32213   3.017   8.165   2.912 -0.1809  0.8437 -2.1507
 1002MOL0     H32214   2.860   8.113   2.959 -0.8113  0.9017  0.2572
 1002MOL0     H32215   2.858   8.200   2.723 -4.4544 -0.2072  0.4472
 1002MOL0     H32216   2.936   8.353   2.780 -0.4168 -0.1513 -2.6636
 1002MOL0     H32217   2.627   8.143   2.862  0.3165 -0.0321 -0.9604
 1002MOL0     H32218   2.342   8.437   2.945 -2.5565 -1.4689 -1.1290
 1002MOL0     H32219   2.420   8.340   3.069 -2.0320  2.2791 -0.3282
 1002MOL0     H32220   2.364   8.145   2.876  0.2753  1.6472 -1.5267
 1002MOL0     H32221   2.240   8.254   2.832 -2.1646 -2.5963  1.0058
 1002MOL0     H32222   2.261   8.147   3.115  1.6409  1.4871 -0.4669
 1002MOL0     H32223   2.129   8.246   3.043 -2.8532 -4.0237  1.6873
 1002MOL0     H32224   2.218   7.970   2.946  1.2385  1.9337 -0.0560
 1002MOL0     H32225   2.067   8.059   2.906  0.9863  2.1432  0.4164
 1002MOL0     H32226   1.996   7.929   3.326  0.9301 -0.8072  0.8076
 1002MOL0     H32227   1.951   7.705   3.417  0.8874 -2.2702 -0.5721
 1002MOL0     H32228   2.044   7.353   3.615  2.1837 -1.3433  1.6420
 1002MOL0     H32229   2.011   7.113   3.697 -0.0495 -1.5638 -0.5157
 1002MOL0     H32230   1.743   6.874   3.474 -0.4282  0.7785 -0.0522
 1002MOL0     H32231   1.645   6.837   3.618 -0.3058 -0.5335 -0.1967
 1002MOL0     H32232   1.928   6.740   3.564 -0.8631  1.8673 -0.5402
 1002MOL0     H32233   1.785   6.633   3.582 -3.2439  0.5108 -0.3786
 1002MOL0     H32234   1.946   6.616   3.752  2.4592  1.2275 -2.2441
 1002MOL0     H32235   1.785   6.682   3.812 -0.5657  0.1079 -0.1360
 1002MOL0     H32236   2.042   6.860   3.761 -0.3291  2.7427  1.1225
 1002MOL0     H32237   1.899   6.888   3.870 -1.9917 -0.8234 -2.5325
 1002MOL0     H32238   2.110   6.682   3.893 -0.3902 -0.6618 -0.5982
 1002MOL0     H32239   1.992   6.726   4.020 -0.2083  0.6838  0.1898
 1002MOL0     H32240   2.085   6.979   4.000 -1.5218 -0.7284 -2.5675
 1002MOL0     H32241   2.218   6.912   3.923 -0.9067  3.7462  1.2949
 1002MOL0     H32242   2.129   6.870   4.209  1.9325 -1.2370  1.3367
 1002MOL0     H32243   2.225   6.747   4.142  0.7957 -0.1678 -1.2642
 1002MOL0     H32244   2.359   6.915   4.260  0.4360  0.3104  0.1652
 1002MOL0     H32245   2.301   7.039   4.151  2.3791  0.6519 -0.2817
 1002MOL0     H32246   1.677   7.098   3.426  0.4592  0.9054 -1.7074
 1002MOL0     H32247   1.742   7.290   3.326 -1.2938  0.9501  1.3869
 1002MOL0     H32248   2.132   7.537   3.060  2.1125  2.3744 -1.7938
 1002MOL0     H32249   2.151   7.762   2.981  3.4506  0.2359 -0.1367
 1002MOL0     H32250   3.562   8.108   3.405  1.2055  1.1862  1.0851
 1002MOL0     H32251   3.795   8.188   3.477 -2.7285  0.0580  0.3709
 1002MOL0     H32252   4.268   7.797   3.546  1.8249 -0.3343 -1.2522
 1002MOL0     H32253   4.519   7.851   3.614 -0.1596  0.3387 -1.2211
 1002MOL0     H32254   4.588   8.269   3.761 -1.0083 -2.4039  0.9600
 1002MOL0     H32255   4.666   8.279   3.595  0.3131  2.7886  1.5372
 1002MOL0     H32256   4.815   8.323   3.775  1.5342 -0.5486 -2.4301
 1002MOL0     H32257   4.789   8.158   3.839  0.1925  0.6350  0.1398
 1002MOL0     H32258   4.916   8.255   3.579  2.6383 -0.6689  0.0907
 1002MOL0     H32259   4.896   8.086   3.605  1.5293  0.0502 -1.5017
 1002MOL0     H32260   5.027   8.144   3.845 -1.0819  2.1432  1.2567
 1002MOL0     H32261   5.116   8.115   3.690  0.1859  1.6218 -0.0491
 1002MOL0     H32262   5.158   8.539   3.765  0.5055  0.2286 -1.0602
 1002MOL0     H32263   4.418   8.256   3.620  1.1452 -0.1580 -0.8143
 1002MOL0     H32264   4.179   8.212   3.571  1.9973  1.6803  3.9000
 1003MOL0     O32265   6.748   8.695   1.696  0.1846 -0.6271  0.1453
 1003MOL0     C32266   6.665   8.755   1.756  0.2360  0.3798  0.0222
 1003MOL0     O32267   6.537   8.791   1.713 -1.0633  0.5272 -0.5288
 1003MOL0     C32268   6.477   8.713   1.621 -0.3811 -0.4923 -0.4401
 1003MOL0     C32269   6.468   8.761   1.489  0.1560  0.0509 -0.2652
 1003MOL0     C32270   6.396   8.689   1.392  0.0696  0.3266  0.4219
 1003MOL0     C32271   6.328   8.566   1.427 -0.2475  0.2979  0.3429
 1003MOL0     O32272   6.257   8.492   1.342  0.1114  0.0630 -0.1061
 1003MOL0     C32273   6.253   8.534   1.201  0.7112  0.9253  0.2875
 1003MOL0     C32274   6.149   8.651   1.179  0.1939 -0.7341 -0.1094
 1003MOL0     C32275   6.020   8.617   1.247  0.3191 -0.3832  0.1773
 1003MOL0     C32276   5.916   8.711   1.187 -0.0033 -0.4801  0.1157
 1003MOL0     C32277   5.782   8.674   1.246 -0.4326 -0.1350 -0.2096
 1003MOL0     C32278   5.683   8.791   1.211 -0.5383  0.3564 -1.2834
 1003MOL0     C32279   5.541   8.755   1.244 -0.0070 -0.3192 -0.1142
 1003MOL0     C32280   5.509   8.778   1.393  0.5577  0.5704 -1.3916
 1003MOL0     N32281   5.372   8.739   1.431 -0.3844 -0.2581  1.0186
 1003MOL0     C32282   5.314   8.615   1.407 -0.2782 -0.7335  0.8579
 1003MOL0     C32283   5.185   8.632   1.410 -0.0229 -0.0881 -0.1300
 1003MOL0     C32284   5.081   8.539   1.360 -0.2881  1.1997  0.3148
 1003MOL0     C32285   4.952   8.538   1.439  0.4657  0.0814 -0.4348
 1003MOL0     C32286   4.978   8.455   1.572 -0.3609 -0.1261  0.4079
 1003MOL0     C32287   4.846   8.403   1.640 -0.3607 -0.2523  0.1139
 1003MOL0     O32288   4.777   8.523   1.674  0.3005  0.0864 -0.0749
 1003MOL0     C32289   4.639   8.536   1.694 -0.3880  0.4746  0.5645
 1003MOL0     C32290   4.557   8.433   1.741 -0.1045 -0.0451  0.4571
 1003MOL0     C32291   4.421   8.437   1.719  0.7156 -0.1037  0.7202
 1003MOL0     C32292   4.368   8.558   1.668  0.6719 -0.5297 -0.2337
 1003MOL0     C32293   4.221   8.583   1.663 -0.2022 -0.3322 -1.0109
 1003MOL0     O32294   4.175   8.709   1.633 -0.2242  0.1159 -0.3880
 1003MOL0     C32295   4.042   8.731   1.630 -0.0072 -1.0040 -0.1962
 1003MOL0     C32296   3.999   8.846   1.710 -0.2398 -0.0349  0.5409
 1003MOL0     C32297   3.866   8.875   1.724  0.4570 -0.0382 -0.2375
 1003MOL0     C32298   3.773   8.805   1.642 -0.1369 -0.0963 -0.0634
 1003MOL0     O32299   3.635   8.816   1.652  0.6982 -0.4123  0.4198
 1003MOL0     C32300   3.584   8.935   1.723  0.4003  0.0183  0.3907
 1003MOL0     C32301   3.431   8.933   1.739  0.5958 -0.1926  0.1390
 1003MOL0     C32302   3.356   8.931   1.607 -0.1100  0.2105 -1.0752
 1003MOL0     C32303   3.201   8.909   1.624  0.6989 -0.2371  0.3325
 1003MOL0     C32304   3.125   8.899   1.486 -0.2601 -0.4911  0.2212
 1003MOL0     C32305   2.978   8.871   1.520 -0.2148 -0.6309 -0.9449
 1003MOL0     C32306   2.876   8.857   1.406  0.4909  0.1470 -0.4557
 1003MOL0     C32307   2.764   8.761   1.419 -0.2872  0.4339  0.6804
 1003MOL0    Cl32308   2.674   8.770   1.575 -0.4352 -0.4456  0.2428
 1003MOL0     C32309   3.823   8.699   1.561  1.2341 -1.1867 -0.2896
 1003MOL0     C32310   3.953   8.660   1.556 -1.1883  0.2167 -0.7214
 1003MOL0     O32311   4.147   8.500   1.715 -0.4444 -0.0876  0.3349
 1003MOL0     C32312   4.447   8.666   1.637  0.5507  0.0477  0.4553
 1003MOL0     C32313   4.589   8.657   1.653  0.1656 -0.2604  0.4256
 1003MOL0     N32314   5.163   8.761   1.427 -0.1708 -1.1776 -0.3856
 1003MOL0     N32315   5.276   8.824   1.438  0.5962  0.6420  0.0505
 1003MOL0     C32316   6.338   8.526   1.559 -0.1357  0.3213 -0.0563
 1003MOL0     C32317   6.408   8.596   1.657  0.2778 -0.4252  0.5536
 1003MOL0     C32318   6.708   8.798   1.897  0.7743  0.6812 -0.4226
 1003MOL0     C32319   6.743   8.691   1.987  0.3052  0.4052  0.1528
 1003MOL0     C32320   6.775   8.708   2.115  0.1467 -0.1979  0.2665
 1003MOL0     C32321   6.790   8.837   2.176 -0.1456 -0.4284  0.2973
 1003MOL0     O32322   6.851   8.859   2.297 -0.3677 -0.1776 -0.2257
 1003MOL0     C32323   6.760   8.884   2.398 -0.0651  0.2841 -0.2765
 1003MOL0     C32324   6.744   9.031   2.431  0.6653  0.1124  0.0511
 1003MOL0     C32325   6.865   9.089   2.513  0.1042  0.2909  0.0112
 1003MOL0     C32326   6.882   9.236   2.532  0.4993 -0.3553 -0.0666
 1003MOL0     C32327   6.757   9.306   2.554 -0.0522 -0.0649  0.2134
 1003MOL0     C32328   6.643   9.354   2.555 -0.7680 -0.4163 -0.5769
 1003MOL0     C32329   6.752   8.948   2.091 -0.2915 -0.9088  0.2811
 1003MOL0     C32330   6.711   8.925   1.954 -0.5093 -0.0724 -0.1126
 1003MOL0     H32331   6.513   8.855   1.458 -2.1798  0.3749 -3.0807
 1003MOL0     H32332   6.385   8.730   1.293 -1.1878  1.4839  0.9956
 1003MOL0     H32333   6.227   8.445   1.144  4.9447  0.0825 -0.6710
 1003MOL0     H32334   6.349   8.554   1.153  0.3100  0.4831 -0.7183
 1003MOL0     H32335   6.147   8.655   1.070  3.0319 -0.8291 -0.2339
 1003MOL0     H32336   6.182   8.743   1.227 -0.2743 -2.3772  3.7926
 1003MOL0     H32337   6.006   8.618   1.356 -3.4307  0.8098 -0.1719
 1003MOL0     H32338   6.004   8.511   1.225  1.0785 -0.5413  0.3273
 1003MOL0     H32339   5.941   8.814   1.215 -0.7852 -0.5497  1.1732
 1003MOL0     H32340   5.906   8.698   1.079  1.5793  1.1137 -0.2660
 1003MOL0     H32341   5.792   8.656   1.353  3.8505 -0.3525 -0.4839
 1003MOL0     H32342   5.759   8.584   1.189  1.2113  0.4615 -1.9523
 1003MOL0     H32343   5.685   8.811   1.103  3.5615  0.2862 -1.3574
 1003MOL0     H32344   5.709   8.885   1.260  2.2885 -0.3134 -1.3753
 1003MOL0     H32345   5.476   8.813   1.179  0.0429 -1.1790 -0.9499
 1003MOL0     H32346   5.519   8.651   1.217 -1.6926 -0.0653  0.1590
 1003MOL0     H32347   5.534   8.880   1.424  2.9640  0.0512 -1.4174
 1003MOL0     H32348   5.575   8.723   1.460 -1.2184  0.0642  0.0151
 1003MOL0     H32349   5.364   8.526   1.372  0.8048  0.4244 -0.7050
 1003MOL0     H32350   5.129   8.442   1.345  3.0769  2.9240 -1.3355
 1003MOL0     H32351   5.052   8.579   1.263 -2.1167  1.5615  0.9720
 1003MOL0     H32352   4.890   8.470   1.380  2.2020 -0.1726 -2.0567
 1003MOL0     H32353   4.913   8.640   1.446 -0.9382 -0.4991  0.9766
 1003MOL0     H32354   5.036   8.364   1.555 -0.2425 -0.2810  1.5683
 1003MOL0     H32355   5.033   8.518   1.643  0.2092 -1.4578  1.1794
 1003MOL0     H32356   4.862   8.349   1.734  0.9094  3.3419  2.1404
 1003MOL0     H32357   4.800   8.338   1.564 -1.1348 -1.3419  1.4630
 1003MOL0     H32358   4.607   8.344   1.778  0.8919  0.8056  1.1828
 1003MOL0     H32359   4.345   8.361   1.735 -0.9910  0.6212 -2.9404
 1003MOL0     H32360   4.070   8.895   1.776 -1.5712 -0.2372  2.2255
 1003MOL0     H32361   3.849   8.955   1.796  2.5606  1.6922 -1.5225
 1003MOL0     H32362   3.608   9.028   1.671  1.6215 -1.4624 -1.8442
 1003MOL0     H32363   3.625   8.937   1.824 -0.8064 -1.8322  0.9758
 1003MOL0     H32364   3.407   9.029   1.786  1.6939  0.1103  0.1158
 1003MOL0     H32365   3.408   8.852   1.808 -2.9733 -0.4702 -1.1577
 1003MOL0     H32366   3.398   8.853   1.542  1.4360  0.3415 -0.2868
 1003MOL0     H32367   3.374   9.027   1.558 -2.4902  1.1268 -0.2794
 1003MOL0     H32368   3.183   8.813   1.674  0.6427 -1.4534 -1.9048
 1003MOL0     H32369   3.163   8.990   1.686 -1.9268 -0.7576 -0.4754
 1003MOL0     H32370   3.167   8.829   1.413  2.2462  1.1273 -0.0165
 1003MOL0     H32371   3.136   8.994   1.433 -1.7542 -0.4275 -0.0057
 1003MOL0     H32372   2.951   8.945   1.595  0.0139  0.0992 -1.5718
 1003MOL0     H32373   2.960   8.772   1.564 -1.5439 -0.1943 -0.4680
 1003MOL0     H32374   2.828   8.953   1.387  0.2604  0.1767  0.2386
 1003MOL0     H32375   2.930   8.845   1.312  0.3764  3.1770 -1.0059
 1003MOL0     H32376   2.803   8.660   1.405  1.1575  1.2374 -1.6030
 1003MOL0     H32377   2.689   8.776   1.340 -1.8697 -0.6221  1.9239
 1003MOL0     H32378   3.753   8.637   1.506 -2.6058  1.0391  1.6014
 1003MOL0     H32379   3.978   8.575   1.495  1.4546  0.7934 -0.5617
 1003MOL0     H32380   4.404   8.760   1.603  0.2639 -0.1103  0.3758
 1003MOL0     H32381   4.654   8.742   1.634 -0.8968  0.3056 -0.8181
 1003MOL0     H32382   6.297   8.435   1.601  0.5550  1.3948  3.1901
 1003MOL0     H32383   6.387   8.572   1.761  0.0174 -2.3352  0.1110
 1003MOL0     H32384   6.742   8.592   1.943  1.3878  0.2888  0.3480
 1003MOL0     H32385   6.804   8.622   2.174 -0.7651 -0.4046  0.4203
 1003MOL0     H32386   6.793   8.833   2.488  3.1524  1.4724 -0.6411
 1003MOL0     H32387   6.660   8.848   2.372  0.6842 -1.3752 -0.9639
 1003MOL0     H32388   6.720   9.085   2.339  1.5313  0.7596  0.1914
 1003MOL0     H32389   6.652   9.050   2.488  0.4585  0.0886 -0.2735
 1003MOL0     H32390   6.951   9.047   2.461 -0.0226  0.6685 -0.5065
 1003MOL0     H32391   6.869   9.050   2.615  0.6150  2.4981  0.9067
 1003MOL0     H32392   6.955   9.268   2.606 -1.8299 -0.0678  2.2605
 1003MOL0     H32393   6.917   9.279   2.438 -1.4284 -0.5452 -0.9381
 1003MOL0     H32394   6.545   9.397   2.549  0.1372  1.7856 -0.6370
 1003MOL0     H32395   6.771   9.050   2.124 -2.0379 -1.2470  2.6042
 1003MOL0     H32396   6.695   9.017   1.899  0.5189  1.4401  1.9737
 1004MOL0     O32397   2.350   1.374   1.746 -0.9968  0.4947  0.6036
 1004MOL0     C32398   2.456   1.315   1.717  0.0504  0.5072  0.1094
 1004MOL0     O32399   2.467   1.203   1.633 -0.4168  0.7034 -0.2919
 1004MOL0     C32400   2.364   1.151   1.558  0.2326 -1.1405 -0.6746
 1004MOL0     C32401   2.394   1.049   1.465  0.8538  0.5443  0.7931
 1004MOL0     C32402   2.296   0.998   1.378 -0.3844 -0.0805 -0.3021
 1004MOL0     C32403   2.161   1.027   1.379 -0.0745 -1.2616 -0.2853
 1004MOL0     O32404   2.075   0.966   1.292 -1.0951 -0.5585  0.9684
 1004MOL0     C32405   1.931   0.993   1.298  0.4835  0.7168 -0.3572
 1004MOL0     C32406   1.864   0.917   1.185 -0.3288 -0.4102  0.6133
 1004MOL0     C32407   1.719   0.953   1.155 -0.1619 -0.3180  0.5838
 1004MOL0     C32408   1.626   0.901   1.274 -0.4904 -0.3695 -0.0946
 1004MOL0     C32409   1.484   0.930   1.233  0.4754 -0.0986  0.1927
 1004MOL0     C32410   1.383   0.880   1.344 -0.2894 -0.1394  0.1054
 1004MOL0     C32411   1.237   0.897   1.290 -0.2426  0.0623 -0.5295
 1004MOL0     C32412   1.132   0.831   1.381  0.9547  0.3881  0.4386
 1004MOL0     N32413   0.996   0.869   1.326  0.4755 -0.6841 -0.1668
 1004MOL0     C32414   0.947   0.791   1.225  0.7443  0.0202  0.6414
 1004MOL0     C32415   0.874   0.873   1.150  0.4988  0.3017 -0.5707
 1004MOL0     C32416   0.801   0.841   1.022 -0.9362  0.1917  0.8387
 1004MOL0     C32417   0.655   0.809   1.039 -0.7015 -0.6197  0.6379
 1004MOL0     C32418   0.600   0.746   0.907  0.1176 -0.1387 -0.0006
 1004MOL0     C32419   0.685   0.643   0.830 -0.9086  0.0060 -0.6246
 1004MOL0     O32420   0.615   0.590   0.713 -0.3894  0.0433  0.0491
 1004MOL0     C32421   0.523   0.492   0.731  0.3400 -0.1992 -0.4648
 1004MOL0     C32422   0.394   0.506   0.666 -1.0272 -0.7083  0.2415
 1004MOL0     C32423   0.299   0.405   0.672  1.0293  0.4531 -0.2969
 1004MOL0     C32424   0.333   0.282   0.731  0.2313 -0.2262  0.4439
 1004MOL0     C32425   0.222   0.186   0.736  0.6228 -0.4595 -0.6328
 1004MOL0     O32426   0.102   0.219   0.673 -0.2039 -0.3969 -0.6272
 1004MOL0     C32427  -0.028   0.157   0.702  0.2333 -0.6536 -0.3278
 1004MOL0     C32428  -0.059   0.103   0.829 -0.5355 -0.2430  0.0204
 1004MOL0     C32429  -0.187   0.059   0.851  0.9309 -0.3452 -0.5390
 1004MOL0     C32430  -0.294   0.059   0.754 -0.7585  0.5331 -1.3147
 1004MOL0     O32431  -0.416   0.007   0.781  0.6202 -0.0219 -0.1454
 1004MOL0     C32432  -0.446  -0.029   0.924  0.5650 -0.2218  0.0793
 1004MOL0     C32433  -0.600  -0.061   0.926 -0.2732 -0.7788 -0.8835
 1004MOL0     C32434  -0.630  -0.189   0.844  0.0781  0.7240 -0.7297
 1004MOL0     C32435  -0.773  -0.221   0.852  0.4231  0.4498 -0.2051
 1004MOL0     C32436  -0.813  -0.336   0.757 -0.5652 -0.2547  0.0471
 1004MOL0     C32437  -0.958  -0.332   0.715 -1.4188 -0.1747  0.5109
 1004MOL0     C32438  -0.983  -0.430   0.604 -0.4778 -0.4733  0.1336
 1004MOL0     C32439  -1.133  -0.473   0.595 -0.0162  0.9966 -0.7482
 1004MOL0    Cl32440  -1.194  -0.544   0.742  0.4545  0.1543  0.0114
 1004MOL0     C32441  -0.258   0.123   0.637  0.4297  0.9763 -0.1043
 1004MOL0     C32442  -0.130   0.179   0.608 -0.0183  0.6431 -0.0402
 1004MOL0     O32443   0.253   0.078   0.781  0.4312  0.2469  0.6158
 1004MOL0     C32444   0.456   0.267   0.798 -0.6390 -0.0422  0.8395
 1004MOL0     C32445   0.552   0.377   0.796  0.0952  0.3993  0.1803
 1004MOL0     N32446   0.859   0.998   1.216  1.2218  0.4021 -0.1639
 1004MOL0     N32447   0.939   0.991   1.314 -0.9158 -0.2576 -0.3833
 1004MOL0     C32448   2.129   1.133   1.468 -0.7913  0.3837 -0.5265
 1004MOL0     C32449   2.229   1.193   1.551  0.1429  0.5275 -0.6435
 1004MOL0     C32450   2.572   1.353   1.797 -0.6210  0.1307 -0.2724
 1004MOL0     C32451   2.558   1.411   1.920 -0.6842  0.2791 -0.0598
 1004MOL0     C32452   2.669   1.439   2.002  0.3930  0.0270 -0.0457
 1004MOL0     C32453   2.803   1.422   1.948 -0.2928 -0.3186 -0.3835
 1004MOL0     O32454   2.905   1.446   2.034 -0.5279  0.0593 -1.1034
 1004MOL0     C32455   3.029   1.487   1.981 -0.1164 -0.5846  0.1588
 1004MOL0     C32456   3.085   1.587   2.080  0.8448  0.6138 -0.6461
 1004MOL0     C32457   3.043   1.554   2.230  0.6277 -0.3852  0.1266
 1004MOL0     C32458   2.910   1.618   2.265  0.8362 -0.0772 -0.3334
 1004MOL0     C32459   2.879   1.579   2.407 -0.1421 -0.5812  0.7264
 1004MOL0     C32460   2.843   1.549   2.521 -0.9076  0.2489 -0.0470
 1004MOL0     C32461   2.817   1.364   1.822 -0.0540  0.3918 -0.5836
 1004MOL0     C32462   2.702   1.336   1.749 -0.3925 -0.1882 -0.6240
 1004MOL0     H32463   2.492   1.003   1.452 -0.0391 -2.6214  3.7788
 1004MOL0     H32464   2.326   0.925   1.304  1.4747 -1.2349  1.4779
 1004MOL0     H32465   1.904   1.099   1.292 -1.6859  0.2136 -0.0798
 1004MOL0     H32466   1.892   0.957   1.394  0.5811  0.8547 -0.2652
 1004MOL0     H32467   1.867   0.812   1.216 -0.7301  0.2392  3.1320
 1004MOL0     H32468   1.930   0.931   1.099 -0.7018 -0.9547  0.2318
 1004MOL0     H32469   1.683   0.897   1.068 -0.2912 -2.1924  1.7927
 1004MOL0     H32470   1.714   1.061   1.134  1.7960 -0.0038  1.5390
 1004MOL0     H32471   1.649   0.795   1.288  0.5870  0.0034  1.1245
 1004MOL0     H32472   1.640   0.941   1.375 -0.1315  1.2599 -0.7609
 1004MOL0     H32473   1.467   0.870   1.143  0.7925  0.5921 -0.3356
 1004MOL0     H32474   1.469   1.037   1.220 -0.1758  0.2460  3.0849
 1004MOL0     H32475   1.398   0.932   1.440  1.4478  2.3163 -1.3809
 1004MOL0     H32476   1.400   0.775   1.368 -0.4143  0.1149  1.4323
 1004MOL0     H32477   1.197   0.999   1.289 -1.3304 -0.2900  1.3923
 1004MOL0     H32478   1.220   0.859   1.189 -1.2566  0.7561 -0.6454
 1004MOL0     H32479   1.146   0.875   1.481  0.0272  0.6914  0.4468
 1004MOL0     H32480   1.144   0.723   1.379 -3.0888 -0.2395  1.0591
 1004MOL0     H32481   0.959   0.688   1.193  1.8800  1.1528 -3.1345
 1004MOL0     H32482   0.853   0.760   0.972 -1.8065  0.2896 -0.2594
 1004MOL0     H32483   0.812   0.924   0.952  2.4662 -1.7836 -1.2438
 1004MOL0     H32484   0.593   0.897   1.057  0.3518 -0.0760  1.6998
 1004MOL0     H32485   0.633   0.737   1.118  0.0341 -2.3954 -0.6909
 1004MOL0     H32486   0.501   0.706   0.928  0.2006 -0.4961 -0.2717
 1004MOL0     H32487   0.583   0.823   0.831 -1.2281 -1.3953 -1.0312
 1004MOL0     H32488   0.716   0.569   0.904  0.3963 -0.4736 -1.6220
 1004MOL0     H32489   0.772   0.701   0.799 -1.6711  1.4736 -0.0916
 1004MOL0     H32490   0.373   0.599   0.614  1.4383 -0.1826  0.0597
 1004MOL0     H32491   0.208   0.409   0.612 -0.6400 -1.5696  1.9324
 1004MOL0     H32492   0.010   0.085   0.911 -2.2330  0.4167  1.6615
 1004MOL0     H32493  -0.205   0.010   0.946 -0.4839  2.6331  0.8642
 1004MOL0     H32494  -0.442   0.065   0.979  1.2112 -0.1913 -0.0074
 1004MOL0     H32495  -0.386  -0.108   0.970  1.6018  0.1496 -0.5889
 1004MOL0     H32496  -0.652   0.030   0.894  0.8669 -0.4737 -1.9369
 1004MOL0     H32497  -0.635  -0.073   1.029 -1.0525  0.2507 -1.0056
 1004MOL0     H32498  -0.564  -0.271   0.872  2.1938  2.1585 -1.2315
 1004MOL0     H32499  -0.624  -0.172   0.736  2.8056  1.4230 -0.5441
 1004MOL0     H32500  -0.786  -0.250   0.957  3.7286 -2.6306 -0.4617
 1004MOL0     H32501  -0.842  -0.137   0.844 -0.8181 -0.4092  1.0666
 1004MOL0     H32502  -0.790  -0.429   0.808  1.3809  0.6989  1.0347
 1004MOL0     H32503  -0.753  -0.337   0.665 -1.5508 -0.5881 -0.6088
 1004MOL0     H32504  -0.990  -0.230   0.692  0.1010 -0.2592 -2.6030
 1004MOL0     H32505  -1.016  -0.347   0.806  0.5329 -1.1115  1.6912
 1004MOL0     H32506  -0.958  -0.392   0.504  0.8575 -1.8145 -0.0697
 1004MOL0     H32507  -0.920  -0.519   0.612  0.5283  0.0917 -1.1596
 1004MOL0     H32508  -1.144  -0.547   0.516 -0.0752 -0.6465  0.7291
 1004MOL0     H32509  -1.191  -0.383   0.573  2.0132  3.0256  1.6437
 1004MOL0     H32510  -0.337   0.154   0.570 -0.7165  2.3512  1.7959
 1004MOL0     H32511  -0.104   0.226   0.514  1.6169 -1.0041 -0.4813
 1004MOL0     H32512   0.465   0.170   0.846  0.7804 -0.5025 -0.2839
 1004MOL0     H32513   0.642   0.367   0.857 -0.5357 -2.6421  0.7683
 1004MOL0     H32514   2.023   1.159   1.468 -1.2649 -0.9917 -4.0424
 1004MOL0     H32515   2.186   1.262   1.623 -1.0816 -1.1037  0.2501
 1004MOL0     H32516   2.463   1.444   1.959 -0.0293  0.7076  1.2211
 1004MOL0     H32517   2.646   1.472   2.103 -1.4207  0.6875 -0.6424
 1004MOL0     H32518   3.018   1.536   1.883  3.9561 -3.5082 -2.0451
 1004MOL0     H32519   3.095   1.401   1.965 -0.9327 -0.8315 -2.3293
 1004MOL0     H32520   3.193   1.576   2.086  1.0226  1.5055 -1.7854
 1004MOL0     H32521   3.062   1.689   2.049  0.0517  0.9655  0.9772
 1004MOL0     H32522   3.120   1.595   2.295 -1.2983 -1.9920  3.7108
 1004MOL0     H32523   3.039   1.446   2.246 -1.4457 -0.5108 -0.8273
 1004MOL0     H32524   2.922   1.726   2.261  0.7216  0.0949  2.2551
 1004MOL0     H32525   2.830   1.585   2.198 -1.1272  0.4760  1.6041
 1004MOL0     H32526   2.803   1.513   2.614 -1.1309 -2.4908 -1.0880
 1004MOL0     H32527   2.920   1.356   1.790  0.5841  1.8367  0.9554
 1004MOL0     H32528   2.722   1.298   1.650  2.2835  0.3781 -0.3810
 1005MOL0     O32529   8.551   4.715   8.443  0.4539 -0.6175  0.6489
 1005MOL0     C32530   8.530   4.748   8.326 -0.7110  0.0337 -0.9848
 1005MOL0     O32531   8.406   4.774   8.281 -1.0885  0.3308  0.7971
 1005MOL0     C32532   8.292   4.781   8.358  0.7981  0.0563 -0.0392
 1005MOL0     C32533   8.277   4.723   8.489  0.0767 -1.1597  0.1615
 1005MOL0     C32534   8.164   4.745   8.560 -0.6171  0.7617  0.1005
 1005MOL0     C32535   8.060   4.818   8.512  0.2089  0.5377 -0.3991
 1005MOL0     O32536   7.949   4.850   8.586  0.7422  0.0677 -0.0325
 1005MOL0     C32537   7.938   4.803   8.714  0.2652  0.4118 -0.1976
 1005MOL0     C32538   7.805   4.848   8.779 -0.7208  0.4355  0.6289
 1005MOL0     C32539   7.798   4.817   8.920 -0.2269  0.1960 -0.5161
 1005MOL0     C32540   7.687   4.886   8.999 -0.3902  0.0926  0.2453
 1005MOL0     C32541   7.541   4.846   8.977 -0.1829  0.7384  0.3649
 1005MOL0     C32542   7.440   4.898   9.078  0.1773  0.4399 -0.8016
 1005MOL0     C32543   7.299   4.894   9.018 -0.5933  0.4890 -0.9561
 1005MOL0     C32544   7.193   4.939   9.115 -0.9546  0.1277  0.6963
 1005MOL0     N32545   7.168   4.833   9.209  0.3859 -0.3590  0.3239
 1005MOL0     C32546   7.118   4.709   9.168  0.0638 -0.1389 -0.3019
 1005MOL0     C32547   7.089   4.649   9.281  0.6858  0.6659 -0.0502
 1005MOL0     C32548   7.043   4.505   9.295  0.3425  0.5232  0.3418
 1005MOL0     C32549   6.891   4.486   9.285 -0.0054 -0.3980 -0.3528
 1005MOL0     C32550   6.863   4.365   9.374 -0.1121 -0.2447  0.1898
 1005MOL0     C32551   6.725   4.296   9.363 -0.5599  1.0346  0.6402
 1005MOL0     O32552   6.617   4.381   9.371  0.0781  0.5607  0.1442
 1005MOL0     C32553   6.487   4.338   9.393 -0.4030 -0.7956 -0.7722
 1005MOL0     C32554   6.396   4.437   9.430  1.5354 -0.4868  0.4504
 1005MOL0     C32555   6.261   4.400   9.462  0.6847 -0.4585  0.0861
 1005MOL0     C32556   6.222   4.256   9.454 -0.3809 -0.3811  0.3141
 1005MOL0     C32557   6.085   4.213   9.482  0.3479 -1.1095 -0.8446
 1005MOL0     O32558   5.999   4.314   9.508 -0.5418  0.4455  0.0928
 1005MOL0     C32559   5.866   4.280   9.507  0.5723  0.3879 -0.1380
 1005MOL0     C32560   5.784   4.312   9.397  0.0193 -0.1667 -0.2675
 1005MOL0     C32561   5.651   4.283   9.390  0.0816 -0.1343 -0.8709
 1005MOL0     C32562   5.595   4.210   9.491 -0.0993  0.0344 -0.4512
 1005MOL0     O32563   5.462   4.169   9.498 -0.1558 -0.5806  0.5760
 1005MOL0     C32564   5.382   4.148   9.380 -0.2754 -0.0439 -0.6678
 1005MOL0     C32565   5.246   4.086   9.422 -0.2828  0.3481 -0.1717
 1005MOL0     C32566   5.159   4.036   9.309  0.3270  0.3516 -0.1150
 1005MOL0     C32567   5.037   3.953   9.361  0.0231  0.3850  0.3359
 1005MOL0     C32568   4.948   3.891   9.250  0.3077 -0.0108 -0.4456
 1005MOL0     C32569   4.858   3.996   9.183  0.4179  0.2479  0.0974
 1005MOL0     C32570   4.750   3.921   9.100  0.7228 -0.6438 -0.0878
 1005MOL0     C32571   4.791   3.881   8.956  0.5000  0.0136 -0.0661
 1005MOL0    Cl32572   4.818   4.033   8.858  0.0186  1.0497  0.2886
 1005MOL0     C32573   5.673   4.176   9.602  0.1067 -0.1759 -0.9344
 1005MOL0     C32574   5.806   4.217   9.619  0.5684  0.2543 -0.6109
 1005MOL0     O32575   6.056   4.097   9.461 -0.1751  0.0793 -0.7428
 1005MOL0     C32576   6.324   4.158   9.422 -0.1066 -0.0304  0.3283
 1005MOL0     C32577   6.453   4.203   9.393 -0.5930  1.5159  0.2527
 1005MOL0     N32578   7.107   4.740   9.386 -0.3003 -0.0479 -0.8393
 1005MOL0     N32579   7.152   4.851   9.343  0.9417  0.4662  0.9130
 1005MOL0     C32580   8.077   4.883   8.385  0.2572  0.1523  0.5686
 1005MOL0     C32581   8.188   4.866   8.314 -0.1565 -0.1573 -0.0349
 1005MOL0     C32582   8.653   4.770   8.235  0.0551 -0.2230 -0.0937
 1005MOL0     C32583   8.630   4.834   8.112 -0.5046  0.1534  0.7073
 1005MOL0     C32584   8.751   4.854   8.031 -0.3256 -0.5003  0.8743
 1005MOL0     C32585   8.879   4.818   8.071 -0.0862 -0.4026  0.2796
 1005MOL0     O32586   8.981   4.837   7.981 -0.6977  0.6428  0.0122
 1005MOL0     C32587   9.122   4.835   8.033  0.4438  0.3940  0.3631
 1005MOL0     C32588   9.205   4.897   7.914  0.2347 -0.2425 -0.2336
 1005MOL0     C32589   9.190   5.055   7.903 -0.8692 -0.1163 -0.7572
 1005MOL0     C32590   9.269   5.120   7.789 -0.8249 -0.0099 -0.6600
 1005MOL0     C32591   9.410   5.086   7.778 -0.3272  0.4513 -1.0345
 1005MOL0     C32592   9.529   5.071   7.774 -0.3296  0.1201 -0.0291
 1005MOL0     C32593   8.891   4.756   8.198  0.3231 -0.3610  0.6033
 1005MOL0     C32594   8.783   4.725   8.273  0.3437  0.0399  0.2767
 1005MOL0     H32595   8.353   4.678   8.553 -1.3495 -0.2812  2.6005
 1005MOL0     H32596   8.162   4.701   8.659  0.3821 -0.1056 -0.2534
 1005MOL0     H32597   8.012   4.844   8.783 -0.0321 -1.2892  1.2019
 1005MOL0     H32598   7.941   4.694   8.723 -4.3339  0.2100  1.2796
 1005MOL0     H32599   7.722   4.797   8.730 -0.7363  0.6444  0.4326
 1005MOL0     H32600   7.788   4.956   8.767 -1.3081  0.2539 -0.2195
 1005MOL0     H32601   7.897   4.836   8.964 -0.4025 -0.6884  0.2710
 1005MOL0     H32602   7.777   4.712   8.938 -0.3256  0.4465  1.0148
 1005MOL0     H32603   7.709   4.870   9.105 -0.8687  1.9267  0.6555
 1005MOL0     H32604   7.704   4.993   8.991  0.6713 -0.0972 -0.2430
 1005MOL0     H32605   7.554   4.738   8.979 -1.1815  0.5390 -1.5615
 1005MOL0     H32606   7.515   4.873   8.874  1.3667 -0.2272 -0.3200
 1005MOL0     H32607   7.476   4.998   9.106 -0.6473 -0.2077  3.2077
 1005MOL0     H32608   7.450   4.840   9.170  2.4669  3.2186  0.8893
 1005MOL0     H32609   7.299   4.958   8.929  0.4331 -1.1075 -2.1853
 1005MOL0     H32610   7.283   4.793   8.979  0.5123  1.0770 -3.1039
 1005MOL0     H32611   7.098   4.963   9.065 -0.3405 -0.2198 -0.6642
 1005MOL0     H32612   7.225   5.034   9.160 -3.0163  1.2268  0.0213
 1005MOL0     H32613   7.110   4.669   9.068 -1.6418  0.1140 -0.2996
 1005MOL0     H32614   7.083   4.469   9.391 -0.0810  0.3450  0.4510
 1005MOL0     H32615   7.092   4.456   9.210  1.8022  1.5357  0.5652
 1005MOL0     H32616   6.847   4.474   9.185  0.3241  0.8203 -0.6557
 1005MOL0     H32617   6.833   4.570   9.324 -1.2651 -0.6775 -1.5189
 1005MOL0     H32618   6.931   4.283   9.352 -1.4985 -2.2041  2.6180
 1005MOL0     H32619   6.876   4.394   9.479 -0.3568 -2.1044  0.7602
 1005MOL0     H32620   6.717   4.216   9.438  0.3908  0.2410 -0.0827
 1005MOL0     H32621   6.721   4.254   9.262  0.2077 -0.7183  1.3051
 1005MOL0     H32622   6.426   4.541   9.436 -4.0287  1.3908  0.4615
 1005MOL0     H32623   6.190   4.475   9.494 -0.5470 -1.6101  0.1613
 1005MOL0     H32624   5.829   4.377   9.322 -1.9688  0.4844 -0.9460
 1005MOL0     H32625   5.600   4.309   9.299  0.7539 -2.0528 -1.8518
 1005MOL0     H32626   5.444   4.085   9.316  2.4669  1.9296 -0.1296
 1005MOL0     H32627   5.362   4.247   9.336 -0.0914  0.6358  0.7275
 1005MOL0     H32628   5.187   4.148   9.490 -3.1202 -2.1177 -0.2138
 1005MOL0     H32629   5.273   4.004   9.489  5.7031  1.9871  0.0256
 1005MOL0     H32630   5.220   3.968   9.248 -1.7363  0.4867 -2.4758
 1005MOL0     H32631   5.130   4.120   9.245 -2.1553 -1.9635 -2.3419
 1005MOL0     H32632   5.071   3.877   9.431 -0.2395 -0.3371 -0.3151
 1005MOL0     H32633   4.970   4.019   9.417 -0.5172 -0.1445  0.3089
 1005MOL0     H32634   4.883   3.812   9.290  2.8506 -2.2246 -0.4050
 1005MOL0     H32635   5.023   3.838   9.191  3.1118  2.0346  1.0161
 1005MOL0     H32636   4.918   4.066   9.123 -0.9912 -0.5524 -2.4264
 1005MOL0     H32637   4.810   4.050   9.265 -1.5463 -3.4581  1.6321
 1005MOL0     H32638   4.718   3.829   9.150 -2.2490 -0.5925 -1.6610
 1005MOL0     H32639   4.661   3.984   9.090  1.7826  1.9698  4.3103
 1005MOL0     H32640   4.702   3.826   8.923 -1.1047 -1.4120  5.6463
 1005MOL0     H32641   4.877   3.813   8.955 -0.7473 -1.6988  2.3032
 1005MOL0     H32642   5.629   4.124   9.687  3.9975 -0.8149  0.9028
 1005MOL0     H32643   5.876   4.183   9.695  0.0964 -1.9082 -1.0766
 1005MOL0     H32644   6.321   4.049   9.424 -0.5427 -0.0606 -1.0953
 1005MOL0     H32645   6.527   4.130   9.361 -0.7259  2.4791 -2.5483
 1005MOL0     H32646   7.994   4.952   8.369 -1.6817 -1.4595  2.8340
 1005MOL0     H32647   8.197   4.918   8.219  1.7667  0.4815  0.4532
 1005MOL0     H32648   8.531   4.874   8.092  0.6452  2.3339 -1.1406
 1005MOL0     H32649   8.742   4.899   7.933 -0.1515  2.3010  2.0519
 1005MOL0     H32650   9.143   4.734   8.070 -1.7452 -0.0737  0.4809
 1005MOL0     H32651   9.137   4.901   8.119 -2.5246 -2.1318  3.0443
 1005MOL0     H32652   9.311   4.873   7.925  0.4065 -2.0225 -4.1780
 1005MOL0     H32653   9.171   4.855   7.819  0.3738  0.6157 -0.6626
 1005MOL0     H32654   9.232   5.094   7.996 -2.0664 -2.1651  0.7316
 1005MOL0     H32655   9.084   5.079   7.894 -0.4884  1.2939 -1.9799
 1005MOL0     H32656   9.216   5.096   7.696 -0.0905 -2.8240 -0.4119
 1005MOL0     H32657   9.267   5.225   7.819  2.0169 -0.2541  0.7099
 1005MOL0     H32658   9.634   5.052   7.771 -0.5271 -1.1627 -3.8750
 1005MOL0     H32659   8.986   4.724   8.238  0.8062  1.9734  1.4296
 1005MOL0     H32660   8.795   4.655   8.355 -0.0231 -0.0466  0.2582
 1006MOL0     O32661   1.564   6.645   2.153 -0.2012  0.1775  0.1904
 1006MOL0     C32662   1.659   6.637   2.230 -0.1000  0.3869  0.1607
 1006MOL0     O32663   1.696   6.528   2.309  1.1165  0.3701 -0.3739
 1006MOL0     C32664   1.609   6.418   2.319  0.0661  0.4691 -0.3423
 1006MOL0     C32665   1.680   6.305   2.371 -0.1229  0.0705 -0.2584
 1006MOL0     C32666   1.619   6.181   2.397  0.6607 -0.7286 -0.4304
 1006MOL0     C32667   1.484   6.162   2.363  0.1208  0.4404 -0.8897
 1006MOL0     O32668   1.435   6.031   2.377  0.1720 -0.6736  0.0623
 1006MOL0     C32669   1.299   6.010   2.332  0.1499  1.3357  0.4439
 1006MOL0     C32670   1.193   6.039   2.442 -1.0683  0.9866  0.8191
 1006MOL0     C32671   1.049   6.011   2.401 -0.2357 -0.5141  0.4731
 1006MOL0     C32672   1.008   5.860   2.400 -0.0710  0.7250 -0.1827
 1006MOL0     C32673   0.860   5.826   2.363 -0.5168 -0.2915 -0.5928
 1006MOL0     C32674   0.834   5.678   2.364  0.7306  0.1418 -0.2671
 1006MOL0     C32675   0.704   5.650   2.288 -1.0381 -0.4830 -0.1605
 1006MOL0     C32676   0.675   5.505   2.316  0.5817 -0.1607  0.1624
 1006MOL0     N32677   0.540   5.467   2.265  0.3828  0.9512 -0.3697
 1006MOL0     C32678   0.494   5.473   2.130 -1.0571 -0.1815 -1.0049
 1006MOL0     C32679   0.372   5.413   2.123 -0.1358  0.6328  0.1721
 1006MOL0     C32680   0.289   5.393   2.004  0.0137  0.0010  0.6633
 1006MOL0     C32681   0.147   5.454   2.028  0.2145 -0.6687  0.0132
 1006MOL0     C32682   0.056   5.434   1.905 -0.8627 -0.6319  0.5357
 1006MOL0     C32683  -0.022   5.307   1.920 -0.6882 -0.0557 -0.0309
 1006MOL0     O32684  -0.134   5.345   1.996 -0.0360 -0.4362 -0.0624
 1006MOL0     C32685  -0.248   5.365   1.931  0.2144 -0.1245 -0.0200
 1006MOL0     C32686  -0.260   5.411   1.796 -0.5242  0.3133 -0.9240
 1006MOL0     C32687  -0.384   5.408   1.734 -0.8153 -1.0636  0.8880
 1006MOL0     C32688  -0.501   5.388   1.800 -0.2729  0.3782 -0.6671
 1006MOL0     C32689  -0.632   5.389   1.734 -0.0537  0.4867 -0.4823
 1006MOL0     O32690  -0.729   5.329   1.806 -0.0783 -0.0274  0.0170
 1006MOL0     C32691  -0.848   5.317   1.742  0.7989 -0.4627 -0.5203
 1006MOL0     C32692  -0.960   5.374   1.804  0.7151 -0.5423  0.0769
 1006MOL0     C32693  -1.095   5.380   1.739 -0.7180  0.2316 -0.2197
 1006MOL0     C32694  -1.113   5.313   1.614 -0.0706 -0.0844  0.4108
 1006MOL0     O32695  -1.231   5.299   1.548 -0.2759 -0.7336  0.3742
 1006MOL0     C32696  -1.355   5.343   1.601  0.2152 -0.5673 -0.4724
 1006MOL0     C32697  -1.464   5.263   1.541 -0.0557  0.0877  0.6365
 1006MOL0     C32698  -1.484   5.276   1.388 -0.1562 -0.1127  1.1342
 1006MOL0     C32699  -1.574   5.156   1.324 -0.1754  0.3995  0.1612
 1006MOL0     C32700  -1.591   5.184   1.184 -0.2485  0.6080  0.6125
 1006MOL0     C32701  -1.700   5.088   1.125 -0.1997 -0.5194  0.1359
 1006MOL0     C32702  -1.836   5.103   1.185  0.3852  0.5688 -0.7155
 1006MOL0     C32703  -1.941   5.056   1.086  0.0498  0.8077 -0.0127
 1006MOL0    Cl32704  -1.975   5.156   0.945 -0.3997  0.1914  0.0178
 1006MOL0     C32705  -1.001   5.246   1.560  0.3625 -0.5570  0.5236
 1006MOL0     C32706  -0.875   5.245   1.624 -0.8936 -0.2677  0.4840
 1006MOL0     O32707  -0.646   5.438   1.628 -0.0010 -0.2997 -0.4358
 1006MOL0     C32708  -0.494   5.339   1.932  0.0828  0.2552  0.2625
 1006MOL0     C32709  -0.371   5.332   2.001 -0.2757 -0.4677  0.5301
 1006MOL0     N32710   0.345   5.368   2.252 -0.2949 -0.4415 -0.2180
 1006MOL0     N32711   0.439   5.402   2.339 -0.1600  0.0604  0.0164
 1006MOL0     C32712   1.412   6.269   2.309 -0.2193  0.3246 -0.8046
 1006MOL0     C32713   1.474   6.396   2.286  0.5135 -0.3783 -0.1020
 1006MOL0     C32714   1.750   6.748   2.223 -0.4547 -0.0155  0.3052
 1006MOL0     C32715   1.859   6.755   2.314  1.4014 -0.1155  0.1314
 1006MOL0     C32716   1.947   6.852   2.296  0.1470 -0.2784 -0.0661
 1006MOL0     C32717   1.949   6.951   2.198  0.0730 -0.2965 -0.4587
 1006MOL0     O32718   2.029   7.057   2.178 -0.1407 -0.2569  0.2760
 1006MOL0     C32719   2.113   7.094   2.284 -1.1482 -0.2946 -0.0026
 1006MOL0     C32720   2.228   7.187   2.242  0.1856  0.3379  0.5779
 1006MOL0     C32721   2.192   7.292   2.137 -0.6804 -0.0366  0.7178
 1006MOL0     C32722   2.268   7.420   2.131 -0.6812  0.1061 -0.3646
 1006MOL0     C32723   2.420   7.415   2.093  1.0394 -0.1658 -0.3228
 1006MOL0     C32724   2.542   7.403   2.075 -0.7105  0.0643 -0.2250
 1006MOL0     C32725   1.841   6.941   2.107 -0.1360  0.1619 -0.6180
 1006MOL0     C32726   1.736   6.843   2.116  0.1090  0.2764 -1.2143
 1006MOL0     H32727   1.781   6.326   2.403 -0.6284  0.0659  1.4622
 1006MOL0     H32728   1.670   6.094   2.439  1.8954  0.1665 -0.0257
 1006MOL0     H32729   1.300   5.904   2.306  2.1634  1.2470  0.6828
 1006MOL0     H32730   1.281   6.065   2.239  0.6230  0.2930 -0.2970
 1006MOL0     H32731   1.190   6.145   2.468  0.2732  1.1583  0.3437
 1006MOL0     H32732   1.194   5.975   2.531 -0.1781  0.9222  0.7689
 1006MOL0     H32733   1.036   6.054   2.301  1.2715 -0.5160  0.2592
 1006MOL0     H32734   0.980   6.053   2.475 -1.4638  0.0188 -0.9287
 1006MOL0     H32735   1.074   5.813   2.327 -1.0856  2.5800 -2.4102
 1006MOL0     H32736   1.020   5.809   2.496  0.6740 -1.3693 -1.3230
 1006MOL0     H32737   0.852   5.865   2.261  1.4332  1.3977 -0.1705
 1006MOL0     H32738   0.789   5.868   2.435 -0.4401 -0.9516 -0.1197
 1006MOL0     H32739   0.843   5.638   2.466 -0.8330  0.3742 -0.0126
 1006MOL0     H32740   0.907   5.624   2.304  0.4056 -0.5352 -0.0566
 1006MOL0     H32741   0.622   5.713   2.326 -2.0866 -1.2989 -1.0090
 1006MOL0     H32742   0.711   5.675   2.182  1.6673 -1.9143 -0.3954
 1006MOL0     H32743   0.678   5.484   2.424  1.2019  0.3179  0.2429
 1006MOL0     H32744   0.744   5.442   2.260 -0.6057  0.0717 -1.6453
 1006MOL0     H32745   0.557   5.503   2.047  0.7292  2.2641  1.0394
 1006MOL0     H32746   0.286   5.285   1.986  1.1684  0.3898 -2.5204
 1006MOL0     H32747   0.332   5.443   1.916 -2.4994 -0.0393 -0.6980
 1006MOL0     H32748   0.154   5.562   2.048 -0.7747 -0.4222 -0.8738
 1006MOL0     H32749   0.089   5.415   2.112 -2.2601 -0.0902 -1.3219
 1006MOL0     H32750  -0.005   5.523   1.888 -2.4370 -1.7254  0.2580
 1006MOL0     H32751   0.119   5.427   1.815  2.3428 -0.5498  2.6201
 1006MOL0     H32752   0.040   5.236   1.977  0.3491 -2.0184 -3.3090
 1006MOL0     H32753  -0.034   5.256   1.824  1.0514 -1.4830  0.4432
 1006MOL0     H32754  -0.172   5.442   1.740  0.0645  2.7866  1.1622
 1006MOL0     H32755  -0.387   5.444   1.632 -0.7295 -4.0967 -0.2699
 1006MOL0     H32756  -0.933   5.433   1.890  1.5751  0.8715 -1.1191
 1006MOL0     H32757  -1.174   5.448   1.769 -0.6595  2.8808 -5.0065
 1006MOL0     H32758  -1.378   5.448   1.581 -2.9313 -0.3700  3.0494
 1006MOL0     H32759  -1.364   5.344   1.710 -0.4647  2.7146 -0.4651
 1006MOL0     H32760  -1.558   5.302   1.581 -0.8623 -2.9207  1.9599
 1006MOL0     H32761  -1.467   5.158   1.571 -0.9027 -0.0973 -0.0518
 1006MOL0     H32762  -1.386   5.286   1.340  0.4157 -0.2132  2.2604
 1006MOL0     H32763  -1.536   5.370   1.370  2.7156  1.2584 -0.6764
 1006MOL0     H32764  -1.524   5.060   1.340 -0.3736  0.3382  0.4221
 1006MOL0     H32765  -1.667   5.156   1.381 -0.1737  0.3871  0.1640
 1006MOL0     H32766  -1.497   5.150   1.139 -0.5704  2.0459 -1.2361
 1006MOL0     H32767  -1.604   5.287   1.151 -1.0273  0.2405 -0.2852
 1006MOL0     H32768  -1.664   4.986   1.139 -0.8796 -0.9126 -0.9573
 1006MOL0     H32769  -1.704   5.110   1.018 -1.3952  2.3666  0.6793
 1006MOL0     H32770  -1.838   5.041   1.275 -1.4988 -1.5764 -2.1090
 1006MOL0     H32771  -1.857   5.209   1.202  0.2598  0.1801  1.9084
 1006MOL0     H32772  -2.043   5.041   1.122  0.3439 -1.9739 -0.1235
 1006MOL0     H32773  -1.914   4.955   1.054 -1.3898  0.3608  0.1141
 1006MOL0     H32774  -1.004   5.205   1.459  1.8305  0.1818  0.1671
 1006MOL0     H32775  -0.793   5.199   1.569 -1.1369  0.6617 -0.6875
 1006MOL0     H32776  -0.585   5.306   1.983  0.7231 -3.3855 -0.6796
 1006MOL0     H32777  -0.372   5.301   2.105  1.1266 -0.8429  0.4579
 1006MOL0     H32778   1.311   6.248   2.273  0.1197 -1.5367 -0.7753
 1006MOL0     H32779   1.415   6.477   2.244  1.7333  1.2650  1.1938
 1006MOL0     H32780   1.890   6.687   2.392  0.6260 -1.2327 -0.4945
 1006MOL0     H32781   2.033   6.838   2.361  1.3894 -1.8173 -1.9362
 1006MOL0     H32782   2.153   7.009   2.338 -0.8771  0.9113  1.7867
 1006MOL0     H32783   2.059   7.146   2.364  2.2659  0.0263  2.3018
 1006MOL0     H32784   2.272   7.235   2.331 -0.2983  1.4973  0.2090
 1006MOL0     H32785   2.312   7.126   2.207  0.0242  0.7867 -0.6407
 1006MOL0     H32786   2.086   7.318   2.143 -1.0565 -0.9081 -1.4163
 1006MOL0     H32787   2.223   7.241   2.046 -1.6807  1.5469 -0.5535
 1006MOL0     H32788   2.230   7.479   2.048 -0.9236 -1.5723 -1.5071
 1006MOL0     H32789   2.263   7.480   2.222  3.4915  0.7337 -0.3256
 1006MOL0     H32790   2.645   7.373   2.069 -0.5588  0.0259  1.8502
 1006MOL0     H32791   1.809   7.021   2.041 -1.5692  1.0789  1.0991
 1006MOL0     H32792   1.646   6.838   2.057 -0.1988 -2.9961 -0.6320
 1007MOL0     O32793   9.416   8.901   0.435  0.3097 -0.2595  0.0706
 1007MOL0     C32794   9.433   9.020   0.453  0.6944 -0.1744  0.5446
 1007MOL0     O32795   9.336   9.111   0.494  0.3066 -0.0392 -0.0338
 1007MOL0     C32796   9.198   9.080   0.496  0.7718  0.0953  0.2527
 1007MOL0     C32797   9.143   8.956   0.556  0.1959 -0.0269 -0.4741
 1007MOL0     C32798   9.005   8.923   0.551  0.7029  0.2145 -0.0027
 1007MOL0     C32799   8.915   9.015   0.489  0.3743  0.1870  0.9341
 1007MOL0     O32800   8.781   8.988   0.461 -0.3708  0.4666 -0.5757
 1007MOL0     C32801   8.732   8.859   0.424  0.0065  0.0278 -0.1288
 1007MOL0     C32802   8.583   8.868   0.413  0.0721  0.3253  0.7702
 1007MOL0     C32803   8.529   8.957   0.296  0.2819  0.6209 -0.7965
 1007MOL0     C32804   8.374   8.951   0.297 -0.4898  0.2387  0.6429
 1007MOL0     C32805   8.306   9.006   0.173  1.0088 -0.2913  0.1075
 1007MOL0     C32806   8.153   8.970   0.178  0.0063  0.5588 -0.4691
 1007MOL0     C32807   8.068   9.034   0.071  0.1761  0.2949  0.1452
 1007MOL0     C32808   7.937   8.956   0.051  0.1144 -0.9136  0.2739
 1007MOL0     N32809   7.840   9.039  -0.020  0.2792 -1.0000  0.3984
 1007MOL0     C32810   7.807   9.034  -0.158 -0.8367  0.1659 -0.0124
 1007MOL0     C32811   7.721   9.126  -0.179 -0.4811 -0.8263 -0.7475
 1007MOL0     C32812   7.654   9.170  -0.302  0.0261 -0.3567  0.6656
 1007MOL0     C32813   7.547   9.080  -0.371 -0.1089 -0.8040 -1.1759
 1007MOL0     C32814   7.426   9.063  -0.272 -0.1700  0.3651  0.4357
 1007MOL0     C32815   7.307   9.002  -0.337  0.3423  0.2444  0.9386
 1007MOL0     O32816   7.260   9.095  -0.442  0.0188 -0.1969  0.1079
 1007MOL0     C32817   7.130   9.122  -0.463  1.0663  0.8234  0.3791
 1007MOL0     C32818   7.095   9.246  -0.508 -0.1672  0.3768 -0.1635
 1007MOL0     C32819   6.964   9.282  -0.537  0.6024 -0.6686  1.0430
 1007MOL0     C32820   6.865   9.182  -0.545 -0.2440 -0.5572 -0.3470
 1007MOL0     C32821   6.728   9.206  -0.601 -0.1513  0.1649 -0.5832
 1007MOL0     O32822   6.635   9.105  -0.586  0.8441 -0.4437  0.5370
 1007MOL0     C32823   6.502   9.117  -0.594 -0.6747  0.2268 -0.2829
 1007MOL0     C32824   6.444   9.000  -0.639  0.2607  0.1960 -0.1055
 1007MOL0     C32825   6.304   8.993  -0.663  0.2115  0.3160  0.7737
 1007MOL0     C32826   6.219   9.099  -0.647 -0.7510 -0.6088 -0.1821
 1007MOL0     O32827   6.083   9.101  -0.668 -0.0408 -0.3358  0.0928
 1007MOL0     C32828   6.022   8.991  -0.738  0.3888  0.9026  0.9546
 1007MOL0     C32829   5.869   9.011  -0.712  0.3138  0.4236 -0.2631
 1007MOL0     C32830   5.799   8.892  -0.771  0.0533 -0.1518  0.3264
 1007MOL0     C32831   5.644   8.914  -0.751 -0.4686 -0.4251  0.2682
 1007MOL0     C32832   5.560   8.798  -0.795 -0.7070  0.6484  0.5546
 1007MOL0     C32833   5.544   8.782  -0.947 -0.3985  0.3180 -0.8857
 1007MOL0     C32834   5.499   8.636  -0.974  0.3442  0.5089 -0.1337
 1007MOL0     C32835   5.450   8.609  -1.118  0.4538 -0.1324 -0.0139
 1007MOL0    Cl32836   5.286   8.652  -1.153 -0.3074 -0.0798  0.2913
 1007MOL0     C32837   6.282   9.218  -0.609  0.3078  0.0617  0.2364
 1007MOL0     C32838   6.418   9.225  -0.573  1.2119  0.2356 -0.2326
 1007MOL0     O32839   6.717   9.320  -0.648 -0.0408 -0.3935 -0.2632
 1007MOL0     C32840   6.903   9.053  -0.512  0.3586  0.5461 -0.4742
 1007MOL0     C32841   7.032   9.017  -0.461  0.1620 -0.9156 -0.3267
 1007MOL0     N32842   7.705   9.202  -0.059 -0.4655 -0.3797  0.2481
 1007MOL0     N32843   7.754   9.130   0.037 -0.2095  0.5277  0.1154
 1007MOL0     C32844   8.970   9.140   0.442  0.4237  0.3276 -1.0265
 1007MOL0     C32845   9.105   9.168   0.436  0.4367 -0.4991 -0.8757
 1007MOL0     C32846   9.566   9.081   0.430  0.2416 -0.2980  0.4162
 1007MOL0     C32847   9.595   9.221   0.421  0.4154  0.1367  0.0629
 1007MOL0     C32848   9.725   9.260   0.389  0.9005 -0.6330 -0.7691
 1007MOL0     C32849   9.827   9.172   0.376  0.0122  1.3451 -0.2148
 1007MOL0     O32850   9.951   9.219   0.346 -0.0292 -0.1859 -0.6178
 1007MOL0     C32851  10.030   9.148   0.247  0.6078  0.4388 -0.3851
 1007MOL0     C32852  10.096   9.247   0.154 -0.3168  0.6360 -0.7636
 1007MOL0     C32853  10.208   9.318   0.235  0.4181  0.1528 -0.2601
 1007MOL0     C32854  10.284   9.411   0.144 -0.3965 -0.6902 -0.4885
 1007MOL0     C32855  10.398   9.341   0.079 -0.5514 -0.5564 -0.1384
 1007MOL0     C32856  10.501   9.283   0.044  0.8785 -0.2178  0.6714
 1007MOL0     C32857   9.798   9.039   0.387  0.7303  0.7334  1.0053
 1007MOL0     C32858   9.675   8.995   0.418  0.7028  0.4195  1.0410
 1007MOL0     H32859   9.223   8.897   0.600  0.2663 -0.7556 -1.5423
 1007MOL0     H32860   8.969   8.830   0.596  2.1122  0.4732  1.7826
 1007MOL0     H32861   8.745   8.787   0.505  1.7956 -1.8465 -1.9523
 1007MOL0     H32862   8.776   8.821   0.331  0.9317 -0.4265  0.4697
 1007MOL0     H32863   8.550   8.922   0.502  0.2100  2.5678 -0.4713
 1007MOL0     H32864   8.541   8.766   0.411 -1.1188  0.8089 -0.7040
 1007MOL0     H32865   8.573   8.910   0.208 -1.3946 -1.7305 -0.4587
 1007MOL0     H32866   8.560   9.061   0.311  0.9901  0.2600  0.3619
 1007MOL0     H32867   8.354   8.844   0.305  1.7637 -0.1467  1.6261
 1007MOL0     H32868   8.330   8.999   0.385 -1.8999 -0.6272  0.4463
 1007MOL0     H32869   8.351   8.966   0.082 -2.5811 -0.3847 -1.8149
 1007MOL0     H32870   8.322   9.114   0.162 -2.2568  0.3225  0.3359
 1007MOL0     H32871   8.111   8.977   0.278 -3.1113  0.5530 -1.6654
 1007MOL0     H32872   8.149   8.861   0.171 -1.5689  0.0336  4.6593
 1007MOL0     H32873   8.051   9.136   0.107  1.1618  0.6301 -0.3114
 1007MOL0     H32874   8.126   9.034  -0.021  2.3186 -2.0528  1.3864
 1007MOL0     H32875   7.903   8.941   0.154  2.6687 -0.2888  1.2640
 1007MOL0     H32876   7.954   8.868  -0.011 -0.1527  0.6893 -2.2278
 1007MOL0     H32877   7.847   8.967  -0.233 -1.3171  0.7744 -0.8305
 1007MOL0     H32878   7.733   9.181  -0.377 -0.8451 -0.3793 -0.2664
 1007MOL0     H32879   7.618   9.272  -0.293 -0.9884 -0.4140 -1.9478
 1007MOL0     H32880   7.589   8.980  -0.386 -0.2466 -0.9262 -0.7613
 1007MOL0     H32881   7.523   9.123  -0.469 -3.1031  2.2981  0.7040
 1007MOL0     H32882   7.454   9.003  -0.185  0.0839 -0.4606 -0.2006
 1007MOL0     H32883   7.403   9.160  -0.228  0.2199 -0.1274  1.7621
 1007MOL0     H32884   7.227   8.977  -0.267 -0.6329  2.4893  0.7166
 1007MOL0     H32885   7.331   8.909  -0.388  0.6780  1.3210 -0.9410
 1007MOL0     H32886   7.178   9.316  -0.513  2.0992 -2.2336 -1.7476
 1007MOL0     H32887   6.954   9.385  -0.567  0.7087 -1.0095 -0.2290
 1007MOL0     H32888   6.497   8.905  -0.629 -2.4636 -1.2823  1.3376
 1007MOL0     H32889   6.281   8.891  -0.694  0.7831  0.3332  0.2599
 1007MOL0     H32890   6.049   8.895  -0.692 -0.8834  0.4045  0.6994
 1007MOL0     H32891   6.044   8.992  -0.845 -2.6842 -0.1046  0.2282
 1007MOL0     H32892   5.836   9.098  -0.770  1.2871  0.4708 -0.7799
 1007MOL0     H32893   5.851   9.022  -0.605  1.7668 -2.7698  0.4232
 1007MOL0     H32894   5.839   8.800  -0.728  1.8165  0.6703  0.5299
 1007MOL0     H32895   5.825   8.891  -0.877 -0.4701  3.3198  0.0210
 1007MOL0     H32896   5.631   8.931  -0.644  1.2608  1.1207  0.2892
 1007MOL0     H32897   5.616   9.005  -0.805 -1.5618 -1.1703 -0.4452
 1007MOL0     H32898   5.461   8.816  -0.752 -0.1287  3.6716  0.8834
 1007MOL0     H32899   5.606   8.709  -0.751 -0.8589  0.1110 -0.3579
 1007MOL0     H32900   5.639   8.773  -1.001 -1.0366 -1.7135 -1.7471
 1007MOL0     H32901   5.481   8.859  -0.993  1.0748  1.3900 -1.1965
 1007MOL0     H32902   5.580   8.564  -0.961 -0.7256 -0.7767 -0.3879
 1007MOL0     H32903   5.413   8.611  -0.911  0.6225 -1.3111 -0.4341
 1007MOL0     H32904   5.450   8.502  -1.140  1.8996  0.0106 -0.8136
 1007MOL0     H32905   5.520   8.656  -1.188 -0.4068 -0.3681 -1.0562
 1007MOL0     H32906   6.221   9.308  -0.608  1.0153  0.5462  0.1732
 1007MOL0     H32907   6.465   9.311  -0.526 -0.2582  0.7004  0.4487
 1007MOL0     H32908   6.829   8.975  -0.516  0.3673  0.5411 -0.5222
 1007MOL0     H32909   7.058   8.913  -0.445  1.5290 -0.6686 -0.8098
 1007MOL0     H32910   8.897   9.211   0.405 -2.5593 -2.4544 -1.0262
 1007MOL0     H32911   9.129   9.264   0.391 -1.2240 -0.3037 -1.3914
 1007MOL0     H32912   9.508   9.284   0.436  0.6748  0.5932 -0.3019
 1007MOL0     H32913   9.751   9.365   0.381 -1.3588 -0.0347 -0.7161
 1007MOL0     H32914   9.965   9.093   0.177 -0.7627 -0.2782  1.3587
 1007MOL0     H32915  10.091   9.066   0.286 -1.0388 -0.9083 -0.5011
 1007MOL0     H32916  10.140   9.185   0.075  3.2526  1.7801  0.1311
 1007MOL0     H32917  10.023   9.316   0.109  0.3938  0.7129 -1.8512
 1007MOL0     H32918  10.275   9.239   0.272  0.6175  0.1393 -0.6443
 1007MOL0     H32919  10.163   9.373   0.318 -3.3749 -1.5031 -1.0198
 1007MOL0     H32920  10.227   9.452   0.061 -0.5579 -0.4780 -0.2741
 1007MOL0     H32921  10.306   9.501   0.202  1.7878 -2.0896  1.0391
 1007MOL0     H32922  10.597   9.245   0.014  0.6260 -1.4439  1.3227
 1007MOL0     H32923   9.876   8.964   0.382 -3.2075 -3.8695  0.8988
 1007MOL0     H32924   9.662   8.890   0.441 -2.7874  0.3757 -0.4782
 1008MOL0     O32925   3.899  10.368  10.275  0.4730  1.2176  0.1971
 1008MOL0     C32926   3.992  10.424  10.323 -0.3519  0.0444 -0.3417
 1008MOL0     O32927   3.993  10.479  10.449 -0.1658 -0.1661  0.1524
 1008MOL0     C32928   3.879  10.470  10.527  0.3457 -0.2793  0.4705
 1008MOL0     C32929   3.806  10.584  10.568  0.6431 -0.6035  0.5715
 1008MOL0     C32930   3.691  10.584  10.642 -0.1248  0.9543 -1.1109
 1008MOL0     C32931   3.640  10.459  10.687  0.0265 -0.2954  0.8270
 1008MOL0     O32932   3.526  10.450  10.762 -0.0565  0.2159  0.2207
 1008MOL0     C32933   3.426  10.552  10.749 -0.9938 -0.8938  0.1054
 1008MOL0     C32934   3.322  10.514  10.843  0.1502 -0.2095 -0.8212
 1008MOL0     C32935   3.216  10.627  10.838 -0.3043 -1.3509  0.6649
 1008MOL0     C32936   3.114  10.612  10.717  0.9644  0.1241 -0.1090
 1008MOL0     C32937   3.008  10.723  10.737  0.0613  0.3596  1.5572
 1008MOL0     C32938   2.893  10.706  10.626  0.0114 -0.1528  0.2736
 1008MOL0     C32939   2.938  10.743  10.484  1.4012  1.6380 -0.8850
 1008MOL0     C32940   2.962  10.889  10.472 -0.0918 -0.3714  0.5361
 1008MOL0     N32941   2.834  10.964  10.487  0.3400  0.0471 -0.3795
 1008MOL0     C32942   2.728  10.981  10.407  1.0263  0.4424  0.2057
 1008MOL0     C32943   2.629  11.015  10.494 -0.3569 -0.1679  0.1149
 1008MOL0     C32944   2.485  11.044  10.468 -0.5058  0.0904  0.4644
 1008MOL0     C32945   2.453  11.196  10.468 -0.1154 -0.6179 -0.6197
 1008MOL0     C32946   2.423  11.258  10.614 -0.2276  0.1852  0.2864
 1008MOL0     C32947   2.298  11.201  10.682 -0.3435 -0.1977 -0.0376
 1008MOL0     O32948   2.181  11.262  10.626 -0.4695  0.8181 -0.1095
 1008MOL0     C32949   2.084  11.176  10.583 -0.2854  0.1697 -0.2368
 1008MOL0     C32950   2.110  11.059  10.513 -0.1815 -0.2195  0.2418
 1008MOL0     C32951   2.010  10.970  10.468  0.2443 -0.3233 -0.6147
 1008MOL0     C32952   1.881  10.992  10.502 -0.1893 -0.3380  0.2217
 1008MOL0     C32953   1.774  10.903  10.446 -0.1814  0.0105 -0.2013
 1008MOL0     O32954   1.650  10.965  10.437 -0.8039  0.7365 -0.3236
 1008MOL0     C32955   1.538  10.898  10.400  0.2730 -0.0996  0.6763
 1008MOL0     C32956   1.474  10.936  10.276  0.4455  1.0618 -0.1489
 1008MOL0     C32957   1.366  10.864  10.229  0.9292  0.1812 -0.6004
 1008MOL0     C32958   1.309  10.764  10.306  0.6543  0.9969  0.9704
 1008MOL0     O32959   1.202  10.688  10.265 -0.5391  0.2054 -0.8954
 1008MOL0     C32960   1.134  10.704  10.141  0.3241 -0.2355 -0.0345
 1008MOL0     C32961   1.068  10.569  10.105 -0.4024 -0.6358  0.1581
 1008MOL0     C32962   1.019  10.579   9.969 -1.2689 -0.4228  0.2033
 1008MOL0     C32963   0.978  10.440   9.921 -0.2504  0.3714  0.0449
 1008MOL0     C32964   0.952  10.431   9.773  0.1509 -0.3541 -0.3066
 1008MOL0     C32965   0.887  10.297   9.728 -0.2127 -0.2237  0.3995
 1008MOL0     C32966   0.990  10.179   9.714 -0.3805 -0.4290 -0.0481
 1008MOL0     C32967   0.930  10.055   9.648  1.7578  0.5373 -0.7960
 1008MOL0    Cl32968   0.915  10.058   9.472  0.5522  0.3733 -0.0782
 1008MOL0     C32969   1.361  10.742  10.430  0.5154 -0.6525 -0.3349
 1008MOL0     C32970   1.485  10.794  10.474  0.0161  0.1170  0.6887
 1008MOL0     O32971   1.801  10.787  10.421 -0.7512 -0.5368 -0.0622
 1008MOL0     C32972   1.853  11.115  10.563 -0.1515  0.1154  0.4550
 1008MOL0     C32973   1.951  11.206  10.595 -0.1975  0.1457  0.3374
 1008MOL0     N32974   2.687  11.040  10.622  0.0241  0.6934 -0.5088
 1008MOL0     N32975   2.815  11.018  10.610 -0.2596  0.1087  0.2752
 1008MOL0     C32976   3.714  10.342  10.657  0.3144  0.5662  0.6151
 1008MOL0     C32977   3.826  10.340  10.574 -0.0339 -0.6978 -0.6621
 1008MOL0     C32978   4.096  10.440  10.227  0.5144  0.2783  0.5310
 1008MOL0     C32979   4.080  10.454  10.085 -0.2155  0.4717 -0.4237
 1008MOL0     C32980   4.189  10.477   9.999 -0.9878 -0.3292  0.1597
 1008MOL0     C32981   4.325  10.483  10.048 -0.3302  0.3528  0.1346
 1008MOL0     O32982   4.439  10.484   9.973  0.1449  0.0829 -0.0557
 1008MOL0     C32983   4.429  10.436   9.836  0.2845 -0.5592  0.7757
 1008MOL0     C32984   4.556  10.451   9.761 -0.5811 -0.2885 -0.7206
 1008MOL0     C32985   4.581  10.594   9.723 -0.4824  0.3542  0.0654
 1008MOL0     C32986   4.689  10.627   9.618 -0.9850  0.0046  0.2905
 1008MOL0     C32987   4.821  10.590   9.671 -0.8666 -0.1432 -0.5485
 1008MOL0     C32988   4.925  10.552   9.723  0.0279  0.9372 -0.6134
 1008MOL0     C32989   4.343  10.471  10.191 -0.1068 -0.4147 -0.3617
 1008MOL0     C32990   4.232  10.444  10.276 -0.0812  0.7864 -0.1865
 1008MOL0     H32991   3.851  10.681  10.547 -3.6800  1.5389  0.0553
 1008MOL0     H32992   3.645  10.679  10.667  1.2002  0.8784  2.0890
 1008MOL0     H32993   3.388  10.546  10.647  1.4027  0.3676 -0.9559
 1008MOL0     H32994   3.469  10.649  10.776 -0.9977 -1.2375  1.4265
 1008MOL0     H32995   3.372  10.516  10.941 -2.1240 -2.3973  0.5045
 1008MOL0     H32996   3.277  10.416  10.828  2.2444 -1.5179  0.8486
 1008MOL0     H32997   3.265  10.724  10.840  0.7912 -1.8993  2.0285
 1008MOL0     H32998   3.151  10.616  10.926 -0.8833 -0.7546  0.3204
 1008MOL0     H32999   3.163  10.616  10.619 -1.0375  0.1144 -1.1630
 1008MOL0     H33000   3.059  10.518  10.728  1.5211 -0.0801  1.0756
 1008MOL0     H33001   3.066  10.816  10.733  0.4964  0.1502 -3.4240
 1008MOL0     H33002   2.952  10.715  10.831 -2.7535 -0.4537 -0.0924
 1008MOL0     H33003   2.807  10.760  10.667  0.2133  0.7268 -0.4315
 1008MOL0     H33004   2.875  10.599  10.622  0.4404 -0.2143 -0.1523
 1008MOL0     H33005   3.031  10.707  10.440  0.0416  3.2534 -5.6629
 1008MOL0     H33006   2.857  10.708  10.419  1.0023 -0.8068  0.7573
 1008MOL0     H33007   2.994  10.907  10.369  0.8126 -0.4448  0.7918
 1008MOL0     H33008   3.046  10.927  10.531 -0.8789  0.1494  1.3616
 1008MOL0     H33009   2.723  10.961  10.301 -3.0954  0.5125  0.2357
 1008MOL0     H33010   2.432  10.984  10.543  1.3481 -0.3717  1.4615
 1008MOL0     H33011   2.460  10.999  10.372 -0.9539  1.0412  0.1205
 1008MOL0     H33012   2.365  11.219  10.407 -0.3962  0.3887  0.1423
 1008MOL0     H33013   2.540  11.254  10.433 -1.0656  1.8373  0.8597
 1008MOL0     H33014   2.512  11.237  10.674  0.8153 -0.1131 -1.3239
 1008MOL0     H33015   2.421  11.367  10.605  0.1632  0.1351 -0.4746
 1008MOL0     H33016   2.310  11.226  10.788  3.7893 -1.2394 -0.0783
 1008MOL0     H33017   2.294  11.091  10.682  0.0740 -0.2824  2.4263
 1008MOL0     H33018   2.216  11.041  10.502  0.4469  0.2660  4.1219
 1008MOL0     H33019   2.041  10.881  10.415 -1.2802 -2.2852  1.5327
 1008MOL0     H33020   1.513  11.016  10.214  2.3997 -0.1224 -0.5178
 1008MOL0     H33021   1.331  10.888  10.129 -0.4942 -0.8823 -0.3850
 1008MOL0     H33022   1.198  10.741  10.060  1.7636  0.1371  1.2378
 1008MOL0     H33023   1.054  10.778  10.158  0.3484 -0.9009  3.7817
 1008MOL0     H33024   0.989  10.556  10.180  0.5807  0.7862  1.5283
 1008MOL0     H33025   1.140  10.487  10.116 -0.3644 -0.8005 -1.1930
 1008MOL0     H33026   1.105  10.614   9.912 -0.1288 -0.8178  1.5927
 1008MOL0     H33027   0.929  10.638   9.951 -2.0675 -1.8987 -0.8961
 1008MOL0     H33028   1.047  10.359   9.945  0.7582  0.4261 -2.3740
 1008MOL0     H33029   0.885  10.420   9.975  0.7689 -0.7037  1.4836
 1008MOL0     H33030   1.049  10.441   9.722  1.3343 -0.1936  1.8252
 1008MOL0     H33031   0.891  10.514   9.735  1.1892 -0.0247 -1.3107
 1008MOL0     H33032   0.848  10.323   9.630 -0.6525 -1.7173  0.1508
 1008MOL0     H33033   0.805  10.274   9.797 -2.0214 -0.9205 -1.8625
 1008MOL0     H33034   1.064  10.224   9.646 -1.6560  1.6641 -0.1393
 1008MOL0     H33035   1.028  10.162   9.815  1.3391 -3.1854 -1.0304
 1008MOL0     H33036   0.834  10.038   9.696  2.5127  2.5163  1.6211
 1008MOL0     H33037   0.993   9.969   9.672  1.7901  0.9528  0.6819
 1008MOL0     H33038   1.312  10.670  10.495  1.8133 -1.0293  0.2457
 1008MOL0     H33039   1.524  10.777  10.574 -0.6378  0.7720  1.0689
 1008MOL0     H33040   1.749  11.140  10.583 -1.3772 -0.9469 -3.6719
 1008MOL0     H33041   1.917  11.293  10.651 -0.1138 -1.0182  2.2757
 1008MOL0     H33042   3.675  10.244  10.686 -0.6214  1.0387  0.9999
 1008MOL0     H33043   3.872  10.247  10.544 -0.4126 -0.4435 -2.1270
 1008MOL0     H33044   3.981  10.459  10.041 -0.5647 -0.9011  0.1416
 1008MOL0     H33045   4.167  10.488   9.893  1.2092  0.1016 -0.3095
 1008MOL0     H33046   4.352  10.486   9.776  1.6869 -0.8566 -1.3951
 1008MOL0     H33047   4.407  10.329   9.835  1.8366 -0.9066  1.3052
 1008MOL0     H33048   4.647  10.415   9.809  0.6182 -0.2113 -2.8209
 1008MOL0     H33049   4.550  10.385   9.674  0.7984 -1.7131  0.2157
 1008MOL0     H33050   4.603  10.656   9.811  0.6126  2.8417 -1.8205
 1008MOL0     H33051   4.483  10.627   9.687  0.2240  0.7374 -1.5934
 1008MOL0     H33052   4.674  10.562   9.531  0.5557 -0.4333  0.3215
 1008MOL0     H33053   4.691  10.732   9.588 -3.8559 -0.0998 -0.5745
 1008MOL0     H33054   5.012  10.524   9.780 -1.9047  1.2021  2.6630
 1008MOL0     H33055   4.439  10.485  10.240  0.4889  0.0613 -1.6111
 1008MOL0     H33056   4.247  10.441  10.384 -3.2055  1.2063  0.3438
 1009MOL0     O33057   9.879   1.718   4.220 -0.1347 -0.1043 -0.1769
 1009MOL0     C33058   9.975   1.792   4.199  0.7158 -0.5576  0.8436
 1009MOL0     O33059   9.981   1.905   4.122 -0.7019  0.4569  0.6488
 1009MOL0     C33060   9.909   1.931   4.016 -0.4173  0.2553 -0.5338
 1009MOL0     C33061   9.955   2.048   3.941 -0.3889  0.3798  0.4158
 1009MOL0     C33062   9.867   2.092   3.835 -0.7043  0.0603 -0.4725
 1009MOL0     C33063   9.762   2.010   3.785 -0.7162 -0.7754 -0.2614
 1009MOL0     O33064   9.685   2.061   3.679 -0.3341 -0.9745 -0.2989
 1009MOL0     C33065   9.545   2.038   3.670 -0.0055  0.0433 -1.0110
 1009MOL0     C33066   9.485   2.161   3.599  0.8131  0.1208 -0.4894
 1009MOL0     C33067   9.331   2.142   3.608  0.2631  0.0197 -0.2998
 1009MOL0     C33068   9.258   2.270   3.561 -0.0235 -0.4151 -0.2650
 1009MOL0     C33069   9.104   2.247   3.550 -0.7881  0.7703 -0.1075
 1009MOL0     C33070   9.030   2.368   3.490 -0.4934 -0.5107  0.1958
 1009MOL0     C33071   8.880   2.363   3.458  0.5040 -0.0976 -0.7952
 1009MOL0     C33072   8.816   2.504   3.458  0.5132  0.0141 -0.0354
 1009MOL0     N33073   8.674   2.504   3.436  0.6005 -0.9630  0.9951
 1009MOL0     C33074   8.619   2.441   3.326  0.3084  0.2710 -0.2389
 1009MOL0     C33075   8.499   2.497   3.317 -0.2835 -0.2620 -1.0029
 1009MOL0     C33076   8.401   2.456   3.212  0.4781 -0.2314 -0.4794
 1009MOL0     C33077   8.339   2.576   3.144 -0.0348  0.4719 -0.0262
 1009MOL0     C33078   8.192   2.605   3.171 -0.4097  0.1268  0.0601
 1009MOL0     C33079   8.136   2.717   3.091 -0.2010 -0.2320  0.7677
 1009MOL0     O33080   8.121   2.691   2.949 -0.2317  0.8541  0.3995
 1009MOL0     C33081   8.052   2.788   2.875 -0.3355  0.4940 -0.3727
 1009MOL0     C33082   8.058   2.779   2.737  0.0931  0.7628 -0.4313
 1009MOL0     C33083   7.988   2.873   2.661  0.3443 -0.2730 -1.0212
 1009MOL0     C33084   7.907   2.978   2.717 -0.2013  0.5035 -0.2629
 1009MOL0     C33085   7.844   3.082   2.632 -0.0806  0.3302  0.4623
 1009MOL0     O33086   7.823   3.197   2.703 -0.4366 -0.1679 -0.7421
 1009MOL0     C33087   7.709   3.266   2.669 -0.3100  0.8238  0.1403
 1009MOL0     C33088   7.586   3.209   2.685  0.5669 -0.2831 -0.5699
 1009MOL0     C33089   7.474   3.285   2.650  0.1006 -0.1547  0.5527
 1009MOL0     C33090   7.483   3.420   2.597  0.3025  0.5265 -0.1134
 1009MOL0     O33091   7.373   3.491   2.541  0.7058 -0.8105 -0.3548
 1009MOL0     C33092   7.246   3.423   2.520 -0.5827  0.2972  0.1605
 1009MOL0     C33093   7.143   3.528   2.471 -0.7158  0.3651 -0.3552
 1009MOL0     C33094   7.020   3.469   2.412 -0.6702 -0.1182 -0.0342
 1009MOL0     C33095   6.939   3.361   2.500 -0.5194  0.2705  0.0970
 1009MOL0     C33096   6.811   3.311   2.434  0.1868  0.0655  0.2215
 1009MOL0     C33097   6.699   3.418   2.445  0.1547  0.2502  0.2139
 1009MOL0     C33098   6.648   3.430   2.595  0.9031  0.0444 -0.2416
 1009MOL0     C33099   6.532   3.534   2.625 -0.4878  0.0713 -0.8215
 1009MOL0    Cl33100   6.377   3.444   2.595  0.3436  0.1416 -0.3643
 1009MOL0     C33101   7.614   3.473   2.602 -0.3646  0.3275  0.0210
 1009MOL0     C33102   7.721   3.394   2.629  0.7109  0.1213  1.5367
 1009MOL0     O33103   7.823   3.064   2.514  0.5572 -0.2800 -0.4227
 1009MOL0     C33104   7.890   2.978   2.858 -0.5665 -0.0193  0.1282
 1009MOL0     C33105   7.965   2.882   2.931 -0.5164  0.5928 -0.4080
 1009MOL0     N33106   8.486   2.595   3.420  0.8495  0.2554  0.9663
 1009MOL0     N33107   8.589   2.597   3.491 -0.4115  0.5612 -0.2336
 1009MOL0     C33108   9.730   1.895   3.856 -0.5675  0.2338 -0.2970
 1009MOL0     C33109   9.790   1.862   3.976  0.7651 -0.4260  0.5493
 1009MOL0     C33110  10.100   1.775   4.284 -1.0791  1.0845  0.0595
 1009MOL0     C33111  10.217   1.851   4.254 -0.0874 -0.2243  0.1387
 1009MOL0     C33112  10.316   1.880   4.352  0.1414  0.3180  0.0283
 1009MOL0     C33113  10.307   1.798   4.466  0.3702 -1.4387 -0.0243
 1009MOL0     O33114  10.406   1.820   4.560 -0.3195  0.6582  0.2297
 1009MOL0     C33115  10.541   1.783   4.525  0.3691  0.2103 -0.0145
 1009MOL0     C33116  10.619   1.825   4.645 -0.0171 -0.3606  0.3315
 1009MOL0     C33117  10.774   1.819   4.622  0.6720 -0.2977  0.9706
 1009MOL0     C33118  10.825   1.947   4.568 -0.3023  0.7846  0.5734
 1009MOL0     C33119  10.976   1.940   4.566 -0.5233  0.7053 -0.1774
 1009MOL0     C33120  11.100   1.929   4.576  0.3113  0.5672  0.6661
 1009MOL0     C33121  10.203   1.708   4.494 -0.7365 -0.0492 -0.4700
 1009MOL0     C33122  10.097   1.700   4.411  0.0816  0.1003 -0.1276
 1009MOL0     H33123  10.042   2.100   3.982 -0.6860  1.0944  0.1556
 1009MOL0     H33124   9.882   2.192   3.796 -4.1486  0.1802 -1.8481
 1009MOL0     H33125   9.511   2.036   3.774  0.0045 -0.2907 -1.0113
 1009MOL0     H33126   9.519   1.945   3.619 -5.4598  0.3714  0.5669
 1009MOL0     H33127   9.511   2.156   3.493  2.9729 -3.2164  0.0663
 1009MOL0     H33128   9.519   2.252   3.649  1.6211 -0.7294  0.5456
 1009MOL0     H33129   9.296   2.101   3.703  0.7604 -1.5442 -0.7513
 1009MOL0     H33130   9.306   2.065   3.534 -1.1187 -0.0189  0.1823
 1009MOL0     H33131   9.284   2.354   3.625  0.6147  0.4990 -1.6696
 1009MOL0     H33132   9.288   2.297   3.459  0.0813 -1.7879 -0.6280
 1009MOL0     H33133   9.072   2.231   3.653  0.6942  4.0843  1.0208
 1009MOL0     H33134   9.071   2.162   3.489 -2.7540  2.3025 -1.2929
 1009MOL0     H33135   9.074   2.385   3.391 -2.4210  0.2338 -0.5854
 1009MOL0     H33136   9.052   2.460   3.544 -0.9208 -1.0587  1.3524
 1009MOL0     H33137   8.874   2.326   3.355 -0.7109 -2.5777  0.0910
 1009MOL0     H33138   8.821   2.307   3.531  0.1976  3.4511  1.9167
 1009MOL0     H33139   8.869   2.577   3.396 -2.3197  3.2924  1.0965
 1009MOL0     H33140   8.840   2.541   3.558 -0.3639  0.4704  0.0079
 1009MOL0     H33141   8.671   2.384   3.249 -1.1126  0.2462 -1.2167
 1009MOL0     H33142   8.325   2.397   3.265  0.6203  1.7891  2.1553
 1009MOL0     H33143   8.455   2.396   3.138  1.4629  2.2250 -1.8755
 1009MOL0     H33144   8.353   2.557   3.038  3.0558  1.7337  0.0477
 1009MOL0     H33145   8.404   2.660   3.168  1.0438 -0.4837  0.4927
 1009MOL0     H33146   8.129   2.517   3.154 -2.5910  1.2518  1.7784
 1009MOL0     H33147   8.180   2.632   3.277 -0.1636 -2.4343  0.8343
 1009MOL0     H33148   8.192   2.811   3.097 -1.4428  0.7212 -1.3148
 1009MOL0     H33149   8.036   2.730   3.133 -0.1490 -0.1493  0.8670
 1009MOL0     H33150   8.110   2.697   2.689 -1.9185 -0.0408 -1.3967
 1009MOL0     H33151   7.979   2.876   2.553 -2.1804  1.9403 -0.8625
 1009MOL0     H33152   7.577   3.116   2.741  1.6912  1.2900  2.4144
 1009MOL0     H33153   7.375   3.243   2.658 -0.6034  1.1303 -1.0872
 1009MOL0     H33154   7.211   3.375   2.611 -0.7547 -0.8728 -0.4982
 1009MOL0     H33155   7.265   3.346   2.444  2.7675 -0.5837  1.7247
 1009MOL0     H33156   7.180   3.597   2.395 -1.7047  1.3751  0.0454
 1009MOL0     H33157   7.111   3.583   2.560 -0.8001  1.0107 -0.7761
 1009MOL0     H33158   7.044   3.423   2.316  0.7475  2.5612 -1.0682
 1009MOL0     H33159   6.959   3.559   2.396 -0.7298  0.0808  1.2351
 1009MOL0     H33160   7.005   3.275   2.519 -1.8605 -0.8448 -0.1328
 1009MOL0     H33161   6.919   3.408   2.596  3.2765  1.6495  0.3939
 1009MOL0     H33162   6.773   3.220   2.482  1.4233 -0.3342  0.4784
 1009MOL0     H33163   6.835   3.281   2.331  1.5993  0.9785  0.2573
 1009MOL0     H33164   6.624   3.380   2.375  2.2771 -2.7128 -0.6123
 1009MOL0     H33165   6.723   3.518   2.406 -1.7533 -0.5923 -3.6081
 1009MOL0     H33166   6.600   3.335   2.622 -0.6304  0.1135 -2.4016
 1009MOL0     H33167   6.728   3.448   2.666 -0.5817  2.2233  0.9880
 1009MOL0     H33168   6.550   3.629   2.573  1.2179  0.7770  0.9431
 1009MOL0     H33169   6.532   3.554   2.733 -0.1372 -2.2329 -0.3348
 1009MOL0     H33170   7.635   3.577   2.577  1.1732 -0.0343 -0.2775
 1009MOL0     H33171   7.823   3.430   2.627  1.9874 -3.0160  3.1072
 1009MOL0     H33172   7.820   3.046   2.905 -1.6928  0.6110 -2.2841
 1009MOL0     H33173   7.961   2.891   3.039 -0.1112  0.4418 -0.3781
 1009MOL0     H33174   9.651   1.839   3.807  0.5287 -0.7536 -0.9828
 1009MOL0     H33175   9.734   1.786   4.030 -1.7802  0.6018 -0.4955
 1009MOL0     H33176  10.221   1.890   4.152 -0.0260 -0.3384  0.0975
 1009MOL0     H33177  10.398   1.948   4.329  0.4348  0.5043  1.5474
 1009MOL0     H33178  10.582   1.832   4.436  0.9287 -1.1623 -0.5401
 1009MOL0     H33179  10.540   1.674   4.512  0.3458 -0.0531  1.9039
 1009MOL0     H33180  10.587   1.928   4.663 -0.7726 -0.0105 -2.4557
 1009MOL0     H33181  10.597   1.765   4.733  1.3063 -0.6286  0.4963
 1009MOL0     H33182  10.779   1.746   4.541  0.1337 -0.7195  1.3139
 1009MOL0     H33183  10.831   1.780   4.707  0.7032  1.4968  1.8270
 1009MOL0     H33184  10.783   1.974   4.471 -0.6200 -4.7065 -1.1590
 1009MOL0     H33185  10.797   2.028   4.636 -1.9634 -0.0000  0.8722
 1009MOL0     H33186  11.207   1.935   4.572  0.3249  0.2161 -2.7454
 1009MOL0     H33187  10.198   1.674   4.597 -2.8188  0.0096 -0.5098
 1009MOL0     H33188  10.014   1.637   4.439  1.2704 -1.5015 -0.0231
 1010MOL0     O33189   9.945   0.103   5.581  0.1722 -0.5649  0.0156
 1010MOL0     C33190  10.031   0.178   5.642 -0.0918  0.0643 -0.1991
 1010MOL0     O33191  10.002   0.296   5.702  0.3079  0.4548 -0.1324
 1010MOL0     C33192   9.867   0.331   5.688 -0.0648  0.1198 -0.8320
 1010MOL0     C33193   9.814   0.393   5.576 -0.1979  0.1295 -0.5159
 1010MOL0     C33194   9.680   0.417   5.570  0.4202 -0.1070  0.1960
 1010MOL0     C33195   9.586   0.395   5.674 -0.3916 -0.4231  0.0705
 1010MOL0     O33196   9.449   0.403   5.664  0.5098 -0.0130  0.2127
 1010MOL0     C33197   9.381   0.426   5.537  0.3845  0.1127  0.6311
 1010MOL0     C33198   9.228   0.419   5.556  0.3174 -0.2757  0.6855
 1010MOL0     C33199   9.164   0.424   5.420 -0.0850  0.2791 -0.1143
 1010MOL0     C33200   9.013   0.436   5.422 -0.9702  0.0233 -0.3416
 1010MOL0     C33201   8.953   0.482   5.291  0.4137  0.5022  0.6462
 1010MOL0     C33202   8.798   0.489   5.282  0.8218  0.4706 -0.4645
 1010MOL0     C33203   8.755   0.492   5.133  0.5562 -0.2938  0.0288
 1010MOL0     C33204   8.614   0.430   5.114  0.5454 -0.3479 -0.1461
 1010MOL0     N33205   8.510   0.522   5.143 -0.6040 -0.1029  0.8104
 1010MOL0     C33206   8.494   0.649   5.100 -0.0036  0.1889 -0.8084
 1010MOL0     C33207   8.379   0.689   5.165 -1.2097  0.1195 -0.1477
 1010MOL0     C33208   8.302   0.811   5.146  0.9372  0.5391 -0.2061
 1010MOL0     C33209   8.183   0.776   5.047  0.7696  0.1358  0.3955
 1010MOL0     C33210   8.086   0.889   5.010  0.8041  0.3276  0.5488
 1010MOL0     C33211   8.022   0.871   4.870  0.7296  0.3420 -0.0114
 1010MOL0     O33212   7.954   0.996   4.840 -0.1888  0.1892  0.0558
 1010MOL0     C33213   7.844   0.996   4.756 -0.2440  0.0242  0.7056
 1010MOL0     C33214   7.802   0.883   4.677  0.5824  0.4928 -0.0035
 1010MOL0     C33215   7.679   0.878   4.611 -0.3280 -0.2540  0.2806
 1010MOL0     C33216   7.591   0.994   4.618 -0.5999 -0.3312  0.7266
 1010MOL0     C33217   7.481   1.011   4.529  0.7520  0.1250  0.2319
 1010MOL0     O33218   7.403   1.127   4.548 -0.1242  0.3687  0.7896
 1010MOL0     C33219   7.281   1.153   4.488  0.2922  0.3552 -0.1599
 1010MOL0     C33220   7.243   1.282   4.465  0.6828  0.2380  0.2137
 1010MOL0     C33221   7.101   1.310   4.428 -0.7706 -0.4272 -0.0479
 1010MOL0     C33222   7.012   1.213   4.400  0.0292 -0.1342  0.0324
 1010MOL0     O33223   6.892   1.258   4.351  0.2200  0.4235 -0.8071
 1010MOL0     C33224   6.784   1.171   4.306  0.3337  0.0751  0.5463
 1010MOL0     C33225   6.672   1.270   4.257  0.0125  0.3380 -0.1097
 1010MOL0     C33226   6.547   1.202   4.214  0.1165 -0.1357  0.5490
 1010MOL0     C33227   6.439   1.304   4.212  0.8192  0.0792  0.1726
 1010MOL0     C33228   6.300   1.234   4.192  0.2189 -0.1488  0.0163
 1010MOL0     C33229   6.267   1.177   4.055  0.2900 -0.8444  0.2666
 1010MOL0     C33230   6.119   1.149   4.049  0.5027 -0.2099 -0.2630
 1010MOL0     C33231   6.047   1.218   3.939  0.5416 -0.4333  0.3271
 1010MOL0    Cl33232   5.870   1.192   3.960 -0.1075 -0.0756 -0.3556
 1010MOL0     C33233   7.051   1.082   4.412 -0.4459  0.1800 -0.1423
 1010MOL0     C33234   7.182   1.055   4.455 -0.3598 -0.1857 -0.8253
 1010MOL0     O33235   7.451   0.932   4.443 -0.7427  0.4411  0.4060
 1010MOL0     C33236   7.637   1.103   4.691 -1.0861 -0.4622 -0.5244
 1010MOL0     C33237   7.765   1.108   4.750 -0.4299  0.4303  0.0159
 1010MOL0     N33238   8.337   0.605   5.262 -0.1441  0.1152  0.4292
 1010MOL0     N33239   8.411   0.498   5.237 -0.2555 -0.2285 -0.0617
 1010MOL0     C33240   9.640   0.351   5.795  0.2227  0.6527 -0.1754
 1010MOL0     C33241   9.780   0.319   5.802  0.3955 -0.1655  0.5710
 1010MOL0     C33242  10.174   0.134   5.634 -0.1615 -0.3782 -0.4192
 1010MOL0     C33243  10.213   0.005   5.590 -0.1216 -0.1915 -0.4466
 1010MOL0     C33244  10.347  -0.034   5.582  0.4675  0.9338  0.5399
 1010MOL0     C33245  10.448   0.051   5.642  0.5480 -0.1938  0.8476
 1010MOL0     O33246  10.569  -0.004   5.652 -0.1177 -0.5629  0.6201
 1010MOL0     C33247  10.668   0.092   5.687  0.5475  0.7638 -0.9488
 1010MOL0     C33248  10.795   0.009   5.680  0.1510  0.0532 -0.1235
 1010MOL0     C33249  10.929   0.091   5.671 -0.4311  0.4843 -0.2233
 1010MOL0     C33250  11.065   0.020   5.649 -0.3029 -0.3480  0.3420
 1010MOL0     C33251  11.093  -0.070   5.764  0.1947  0.4882  0.1398
 1010MOL0     C33252  11.107  -0.149   5.856 -0.5137  0.3693  0.0048
 1010MOL0     C33253  10.409   0.186   5.674  0.0745  0.2896 -0.9970
 1010MOL0     C33254  10.277   0.228   5.666 -0.5017 -0.3735  0.0438
 1010MOL0     H33255   9.876   0.393   5.487  1.2651 -1.1234  0.4601
 1010MOL0     H33256   9.656   0.459   5.473 -1.4683 -0.8530  0.2868
 1010MOL0     H33257   9.401   0.356   5.455 -2.8066  0.0410 -0.2411
 1010MOL0     H33258   9.401   0.525   5.496  2.8406 -0.9344 -0.9836
 1010MOL0     H33259   9.190   0.504   5.613 -1.0991 -1.6186  1.8227
 1010MOL0     H33260   9.216   0.328   5.616 -0.7865 -1.3768 -1.0964
 1010MOL0     H33261   9.192   0.332   5.367  0.1395  1.3125 -1.8644
 1010MOL0     H33262   9.204   0.520   5.385  0.0303  0.4851  0.5815
 1010MOL0     H33263   8.960   0.341   5.436 -1.3151  0.1746 -0.5950
 1010MOL0     H33264   8.983   0.504   5.503 -0.1675  0.3727 -0.3306
 1010MOL0     H33265   8.986   0.414   5.213 -1.6674 -0.2010  0.3172
 1010MOL0     H33266   8.995   0.578   5.258 -0.4525  0.4711 -0.6099
 1010MOL0     H33267   8.765   0.574   5.342  2.7135  0.5597  0.5258
 1010MOL0     H33268   8.765   0.396   5.328  0.8496 -0.1203 -1.5994
 1010MOL0     H33269   8.764   0.598   5.107  0.9439  0.1904  1.9740
 1010MOL0     H33270   8.825   0.444   5.063 -0.0158 -0.3122 -0.5433
 1010MOL0     H33271   8.606   0.345   5.183 -0.8859 -0.5291 -0.4893
 1010MOL0     H33272   8.600   0.390   5.013  3.4651  0.4599 -0.9465
 1010MOL0     H33273   8.541   0.704   5.019 -0.4645 -1.1547 -2.0542
 1010MOL0     H33274   8.375   0.886   5.112  1.3340  0.0155 -0.5202
 1010MOL0     H33275   8.268   0.839   5.246 -1.6094 -0.9476 -0.5656
 1010MOL0     H33276   8.127   0.694   5.092  1.7053 -1.4242 -1.1561
 1010MOL0     H33277   8.229   0.737   4.956  2.9493 -0.4397  1.6685
 1010MOL0     H33278   8.003   0.903   5.081 -1.7364 -4.1659 -1.1262
 1010MOL0     H33279   8.150   0.978   5.003 -0.2367  0.9618 -3.6756
 1010MOL0     H33280   7.955   0.785   4.875  0.1856  0.8026  0.8968
 1010MOL0     H33281   8.083   0.859   4.780 -3.8889 -0.2396 -3.4173
 1010MOL0     H33282   7.870   0.799   4.676  3.1147  2.1125 -5.8227
 1010MOL0     H33283   7.649   0.809   4.533 -0.5187 -1.3849  1.3175
 1010MOL0     H33284   7.316   1.361   4.484  1.0619  0.4926 -2.0156
 1010MOL0     H33285   7.079   1.417   4.424  3.4206  0.6388  0.6453
 1010MOL0     H33286   6.754   1.105   4.388  1.2137 -1.0367 -0.0035
 1010MOL0     H33287   6.825   1.112   4.224  0.8681  3.1246 -1.5526
 1010MOL0     H33288   6.727   1.332   4.185  0.5994 -0.2483 -0.1788
 1010MOL0     H33289   6.646   1.334   4.341 -1.1872  0.5634 -0.6361
 1010MOL0     H33290   6.531   1.117   4.281 -2.6025 -0.7661 -0.7666
 1010MOL0     H33291   6.564   1.160   4.115  2.7442 -2.1566  1.7267
 1010MOL0     H33292   6.446   1.367   4.301 -0.9259  1.4270 -0.5936
 1010MOL0     H33293   6.439   1.360   4.118  1.1187 -0.5480 -0.2084
 1010MOL0     H33294   6.222   1.310   4.205 -1.2035 -1.6464  0.6471
 1010MOL0     H33295   6.297   1.154   4.267 -1.7842 -0.7133 -0.6045
 1010MOL0     H33296   6.319   1.082   4.041 -0.6041 -1.5824  1.7095
 1010MOL0     H33297   6.291   1.255   3.981 -0.5976  0.7139  1.5538
 1010MOL0     H33298   6.105   1.040   4.043  0.1849 -0.4593  3.0559
 1010MOL0     H33299   6.078   1.171   4.148  2.4981  2.1992  0.1072
 1010MOL0     H33300   6.070   1.187   3.837  1.2331  1.3684 -0.0984
 1010MOL0     H33301   6.079   1.322   3.940  0.3226 -0.3660  0.3506
 1010MOL0     H33302   7.001   0.992   4.377  0.3036  0.1534 -1.1921
 1010MOL0     H33303   7.217   0.953   4.466  2.4554  0.9390  3.1877
 1010MOL0     H33304   7.585   1.198   4.697  0.8992  0.6929 -0.7183
 1010MOL0     H33305   7.790   1.200   4.803 -0.9306  0.1241  0.8177
 1010MOL0     H33306   9.570   0.328   5.875 -1.4246 -2.1831 -2.2613
 1010MOL0     H33307   9.821   0.298   5.900  1.8442  2.7518  0.7134
 1010MOL0     H33308  10.139  -0.072   5.569 -0.4742 -0.1461  0.6066
 1010MOL0     H33309  10.385  -0.132   5.556 -2.6640 -0.1738 -0.2326
 1010MOL0     H33310  10.651   0.132   5.788 -1.6289 -3.2331  0.4711
 1010MOL0     H33311  10.675   0.182   5.625  1.7114  1.4728  0.1436
 1010MOL0     H33312  10.786  -0.066   5.759  2.5022 -1.8158 -1.4814
 1010MOL0     H33313  10.777  -0.047   5.588 -3.0520  0.5159  0.1179
 1010MOL0     H33314  10.946   0.152   5.761 -2.3164 -2.0751  2.0606
 1010MOL0     H33315  10.920   0.161   5.588  2.2388  0.0038 -0.9932
 1010MOL0     H33316  11.069  -0.037   5.556  1.1647 -1.2098  0.8998
 1010MOL0     H33317  11.143   0.096   5.646  0.3806 -1.0325  0.4870
 1010MOL0     H33318  11.132  -0.206   5.943 -0.1607  1.4630  0.6310
 1010MOL0     H33319  10.477   0.268   5.696 -1.5964  1.4297  0.1156
 1010MOL0     H33320  10.243   0.331   5.675  4.1251  1.2735  1.1746
 1011MOL0     O33321   4.181   0.498   3.686 -0.1627  0.2102 -0.7267
 1011MOL0     C33322   4.291   0.523   3.738  0.3096  0.4089 -0.8756
 1011MOL0     O33323   4.317   0.623   3.825 -0.6285  0.2467 -0.7235
 1011MOL0     C33324   4.205   0.683   3.884 -1.3268  0.2932  0.0456
 1011MOL0     C33325   4.221   0.818   3.913 -0.3131 -0.0523 -0.4877
 1011MOL0     C33326   4.124   0.883   3.995 -0.3205 -0.0009 -0.2107
 1011MOL0     C33327   4.000   0.831   4.028  0.7161  0.3812 -0.8962
 1011MOL0     O33328   3.897   0.899   4.086  0.3866 -0.2704 -0.0616
 1011MOL0     C33329   3.761   0.846   4.112  0.4028  0.2424 -0.9212
 1011MOL0     C33330   3.668   0.947   4.180 -0.6357  0.6822  0.2470
 1011MOL0     C33331   3.525   0.907   4.193  0.2790  0.1008 -0.6235
 1011MOL0     C33332   3.510   0.825   4.319 -0.2047  0.2140  0.5664
 1011MOL0     C33333   3.489   0.901   4.456  0.9235 -0.6304 -0.5629
 1011MOL0     C33334   3.395   0.811   4.532  0.2017  1.1591 -1.0139
 1011MOL0     C33335   3.382   0.868   4.677  0.9527  0.3276  0.1544
 1011MOL0     C33336   3.297   0.771   4.754  0.0242 -0.1488  0.0888
 1011MOL0     N33337   3.343   0.762   4.895  0.7699  0.1769  0.1454
 1011MOL0     C33338   3.341   0.853   5.001 -0.7159  0.2411  0.5738
 1011MOL0     C33339   3.369   0.783   5.111 -0.5888  0.8144 -0.9882
 1011MOL0     C33340   3.386   0.839   5.246 -0.1377  0.2420 -0.6389
 1011MOL0     C33341   3.239   0.824   5.311  0.1358 -0.7464  0.1685
 1011MOL0     C33342   3.238   0.891   5.451 -0.0012  0.1393 -0.4377
 1011MOL0     C33343   3.104   0.857   5.522 -0.0639 -0.4798  0.8571
 1011MOL0     O33344   2.981   0.882   5.454  0.6166 -0.2281 -0.4721
 1011MOL0     C33345   2.860   0.821   5.486  0.3861  0.0987  0.0727
 1011MOL0     C33346   2.850   0.719   5.585  0.8165 -0.2874  0.5289
 1011MOL0     C33347   2.735   0.647   5.595  0.4066  0.2637 -0.1271
 1011MOL0     C33348   2.626   0.672   5.506 -0.0663 -0.4089 -0.6683
 1011MOL0     C33349   2.498   0.603   5.510 -0.8563 -0.4089  0.0790
 1011MOL0     O33350   2.390   0.658   5.445 -0.0672 -1.0019 -0.3002
 1011MOL0     C33351   2.280   0.577   5.460 -0.2246  0.5587 -0.7598
 1011MOL0     C33352   2.191   0.594   5.572 -0.6025  0.3014 -0.1807
 1011MOL0     C33353   2.073   0.522   5.566 -1.0173 -0.3587 -0.3912
 1011MOL0     C33354   2.033   0.439   5.465 -0.6636  0.3237  0.5461
 1011MOL0     O33355   1.926   0.353   5.448  0.0695 -0.3867  0.2478
 1011MOL0     C33356   1.807   0.418   5.429  0.0575  0.0658 -1.0554
 1011MOL0     C33357   1.695   0.312   5.387 -0.6972 -0.0261 -0.0306
 1011MOL0     C33358   1.575   0.384   5.330  0.2375  0.7088 -0.7576
 1011MOL0     C33359   1.453   0.298   5.291 -0.1536  0.3526  0.2695
 1011MOL0     C33360   1.348   0.295   5.402 -0.5736 -0.8992  0.2805
 1011MOL0     C33361   1.225   0.215   5.368  0.3642 -0.4641  0.5379
 1011MOL0     C33362   1.150   0.287   5.251 -0.4049  0.3870  0.4175
 1011MOL0     C33363   1.021   0.228   5.212  0.6165  0.2274  0.5872
 1011MOL0    Cl33364   1.048   0.060   5.157 -0.6597  0.0264 -0.3376
 1011MOL0     C33365   2.127   0.423   5.359  0.0936 -0.1077  1.0813
 1011MOL0     C33366   2.242   0.493   5.345 -0.6867 -0.0809  1.1690
 1011MOL0     O33367   2.501   0.493   5.566 -0.7510  0.9554 -0.5102
 1011MOL0     C33368   2.633   0.775   5.419  0.0559 -0.0282  0.8271
 1011MOL0     C33369   2.751   0.854   5.407 -0.6398  0.6703  0.1289
 1011MOL0     N33370   3.388   0.654   5.079  0.2707  0.3191 -0.3619
 1011MOL0     N33371   3.366   0.640   4.952 -0.4638  0.4415 -0.1894
 1011MOL0     C33372   3.981   0.695   3.985 -0.7897 -0.5351 -0.1572
 1011MOL0     C33373   4.083   0.622   3.919 -0.1157 -0.2519  0.3060
 1011MOL0     C33374   4.403   0.438   3.716 -0.0594  0.2415  0.3893
 1011MOL0     C33375   4.531   0.465   3.775 -0.8291 -0.6611 -0.0777
 1011MOL0     C33376   4.634   0.374   3.753 -0.0929 -0.5901 -0.6943
 1011MOL0     C33377   4.620   0.266   3.668  0.5229  0.1139  0.5377
 1011MOL0     O33378   4.719   0.178   3.665  0.2013  0.1154 -0.0920
 1011MOL0     C33379   4.731   0.071   3.562  0.6041  0.4017  0.0641
 1011MOL0     C33380   4.800   0.126   3.440  0.0849 -0.6541 -0.0513
 1011MOL0     C33381   4.950   0.164   3.477 -0.6523 -0.0751  0.4444
 1011MOL0     C33382   5.045   0.030   3.449  0.3898  0.7261 -0.4368
 1011MOL0     C33383   5.126   0.042   3.327 -0.7026  0.2744 -0.3494
 1011MOL0     C33384   5.190   0.052   3.225 -0.3360 -0.6588 -0.2123
 1011MOL0     C33385   4.500   0.245   3.609 -0.2920  1.1755 -0.3187
 1011MOL0     C33386   4.398   0.337   3.626  0.2895  0.6288  0.1112
 1011MOL0     H33387   4.308   0.877   3.889 -1.4168  1.7012 -0.3572
 1011MOL0     H33388   4.148   0.984   4.027 -3.9177 -0.2386  4.2703
 1011MOL0     H33389   3.768   0.759   4.178 -0.7460  0.5615 -0.3512
 1011MOL0     H33390   3.701   0.826   4.022 -0.1679  2.7933 -1.1851
 1011MOL0     H33391   3.667   1.035   4.114 -2.3723 -0.3020 -1.1446
 1011MOL0     H33392   3.709   0.981   4.275 -0.6065 -1.3298  0.9911
 1011MOL0     H33393   3.491   0.845   4.110  3.2672 -1.0025 -1.1456
 1011MOL0     H33394   3.454   0.990   4.201  0.4975  0.2664 -0.3810
 1011MOL0     H33395   3.419   0.766   4.308 -0.0816  0.2077 -0.4558
 1011MOL0     H33396   3.595   0.760   4.343  0.5807  1.9044  2.6629
 1011MOL0     H33397   3.440   0.998   4.438 -1.7509 -1.3130  2.1905
 1011MOL0     H33398   3.581   0.936   4.505  1.8711 -0.4966 -2.3774
 1011MOL0     H33399   3.425   0.706   4.533  0.7317  1.3005  0.0277
 1011MOL0     H33400   3.297   0.807   4.484  0.0006  0.6647 -0.5658
 1011MOL0     H33401   3.482   0.878   4.721  1.0188  0.2011  0.0355
 1011MOL0     H33402   3.332   0.965   4.682  0.6919  0.2095 -0.1582
 1011MOL0     H33403   3.315   0.671   4.716  1.0711 -0.3313  1.0096
 1011MOL0     H33404   3.190   0.791   4.745 -0.0111 -0.3435  0.0702
 1011MOL0     H33405   3.312   0.958   4.993 -0.2304  0.3622  0.3286
 1011MOL0     H33406   3.422   0.942   5.238  1.5995 -0.3586 -1.0592
 1011MOL0     H33407   3.453   0.782   5.311  0.8158  3.2758  1.2927
 1011MOL0     H33408   3.203   0.722   5.326 -0.4978 -0.3381  1.5870
 1011MOL0     H33409   3.164   0.874   5.249 -0.3301  0.2171  1.4472
 1011MOL0     H33410   3.314   0.849   5.518 -2.8767 -1.7600  1.8895
 1011MOL0     H33411   3.256   0.999   5.448  3.8272 -0.2430  2.0412
 1011MOL0     H33412   3.092   0.920   5.611  0.5698  1.9860 -0.7161
 1011MOL0     H33413   3.105   0.754   5.560 -3.3608 -1.2618 -0.8102
 1011MOL0     H33414   2.933   0.678   5.641  0.9975 -0.4189  0.1680
 1011MOL0     H33415   2.735   0.568   5.669  0.9414  1.2686  0.9759
 1011MOL0     H33416   2.213   0.652   5.661 -1.7917  0.0438  0.3073
 1011MOL0     H33417   2.006   0.526   5.651  2.0898 -1.1951  2.3136
 1011MOL0     H33418   1.823   0.489   5.347 -0.5212  1.0184 -0.3740
 1011MOL0     H33419   1.773   0.463   5.523 -2.3371 -1.9656 -0.8459
 1011MOL0     H33420   1.658   0.257   5.474 -0.1493 -0.3832 -0.0145
 1011MOL0     H33421   1.745   0.239   5.322  0.9554 -0.2660  1.4534
 1011MOL0     H33422   1.598   0.444   5.241  0.8005  1.9647  0.1959
 1011MOL0     H33423   1.548   0.462   5.401  0.4352  1.3320 -1.3566
 1011MOL0     H33424   1.413   0.349   5.203 -0.8904  0.6162  0.7481
 1011MOL0     H33425   1.492   0.198   5.269  0.0419  0.8073 -1.6686
 1011MOL0     H33426   1.325   0.400   5.425  3.4119 -0.1231  1.5915
 1011MOL0     H33427   1.396   0.244   5.486  0.3479 -2.0538 -0.9090
 1011MOL0     H33428   1.159   0.210   5.455  0.5670 -0.0492  0.7172
 1011MOL0     H33429   1.250   0.111   5.345 -0.2078 -0.1948 -1.4399
 1011MOL0     H33430   1.132   0.392   5.275  4.2729  1.6617 -0.5823
 1011MOL0     H33431   1.206   0.296   5.157 -4.0320 -4.2908 -2.6843
 1011MOL0     H33432   0.984   0.277   5.121  3.0695 -1.1812 -1.2782
 1011MOL0     H33433   0.950   0.236   5.295  1.2032 -2.1992  1.4219
 1011MOL0     H33434   2.111   0.345   5.285  0.8199 -0.1159  0.9303
 1011MOL0     H33435   2.311   0.476   5.263 -2.5790 -3.2594  0.0431
 1011MOL0     H33436   2.558   0.792   5.343  3.3738  0.0083 -2.7781
 1011MOL0     H33437   2.762   0.932   5.334  0.9291  1.9755  1.6671
 1011MOL0     H33438   3.882   0.651   3.985 -0.0778 -2.2607  1.6436
 1011MOL0     H33439   4.054   0.521   3.891 -1.2500  0.0533  0.3411
 1011MOL0     H33440   4.546   0.541   3.850  0.3002 -2.7746  1.9634
 1011MOL0     H33441   4.724   0.400   3.808 -2.2362  0.4630  2.6224
 1011MOL0     H33442   4.632   0.029   3.546 -1.3416  3.3659  3.0920
 1011MOL0     H33443   4.790  -0.011   3.605 -0.8466 -1.7566 -1.8142
 1011MOL0     H33444   4.785   0.054   3.359  0.5674 -0.0737 -0.6721
 1011MOL0     H33445   4.746   0.213   3.401  2.7468 -0.7981 -4.7986
 1011MOL0     H33446   4.964   0.204   3.578  2.8530 -0.1861  0.1295
 1011MOL0     H33447   4.994   0.236   3.407 -0.0431 -0.5815  0.2902
 1011MOL0     H33448   5.104   0.014   3.539 -0.6863 -1.6555 -0.0755
 1011MOL0     H33449   4.982  -0.060   3.447  1.8278 -0.6545  4.2244
 1011MOL0     H33450   5.257   0.062   3.142  3.7293 -2.4208  2.5381
 1011MOL0     H33451   4.461   0.156   3.560 -2.6967  0.7337  2.1495
 1011MOL0     H33452   4.315   0.310   3.562  0.7392 -3.3947  0.9600
 1012MOL0     O33453   6.095   3.386   8.681 -0.2621 -0.1439 -0.6247
 1012MOL0     C33454   6.093   3.343   8.798  0.4803  0.1688 -0.4303
 1012MOL0     O33455   5.979   3.326   8.873 -0.1579 -0.2306  0.2967
 1012MOL0     C33456   5.865   3.386   8.837 -0.6345  0.6325 -0.4364
 1012MOL0     C33457   5.754   3.307   8.827 -0.9123 -0.1655  0.9273
 1012MOL0     C33458   5.634   3.352   8.778  0.2609 -0.6461 -0.2693
 1012MOL0     C33459   5.617   3.490   8.735 -0.2372  0.1241 -0.3986
 1012MOL0     O33460   5.511   3.532   8.668 -0.2479 -0.3591  0.0766
 1012MOL0     C33461   5.535   3.620   8.560 -0.0116  0.3764 -0.0304
 1012MOL0     C33462   5.412   3.625   8.468  0.3320  0.5378  0.5375
 1012MOL0     C33463   5.370   3.489   8.398  0.1974 -0.7616  0.4098
 1012MOL0     C33464   5.248   3.535   8.301  0.2024  0.5444  0.2031
 1012MOL0     C33465   5.240   3.442   8.179  0.0387  0.6018 -0.1528
 1012MOL0     C33466   5.209   3.301   8.199  0.3823  0.6187 -0.2095
 1012MOL0     C33467   5.092   3.263   8.279  0.1870 -0.3620 -0.6161
 1012MOL0     C33468   4.960   3.325   8.219  0.0526  0.3903 -0.4828
 1012MOL0     N33469   4.836   3.278   8.284  0.4309 -0.2197 -0.0090
 1012MOL0     C33470   4.709   3.317   8.248 -0.6008 -0.5634 -0.6673
 1012MOL0     C33471   4.631   3.309   8.357 -0.0542  0.8607  0.4679
 1012MOL0     C33472   4.485   3.335   8.355  0.3832  0.1277 -0.7121
 1012MOL0     C33473   4.407   3.220   8.412  0.2666 -0.0521 -0.6033
 1012MOL0     C33474   4.253   3.251   8.383  0.2370 -0.5390 -0.1969
 1012MOL0     C33475   4.166   3.147   8.445 -0.1532  0.6420 -0.7311
 1012MOL0     O33476   4.024   3.191   8.427  0.3988  0.4548 -0.3540
 1012MOL0     C33477   3.934   3.096   8.475  0.0229 -0.4500 -0.2814
 1012MOL0     C33478   3.954   2.967   8.523 -0.0274 -0.7303  0.4547
 1012MOL0     C33479   3.855   2.885   8.561  0.2900 -0.5453 -0.6724
 1012MOL0     C33480   3.721   2.937   8.558 -0.4116  0.0144  0.1620
 1012MOL0     C33481   3.612   2.849   8.607 -0.4482 -0.3442 -0.5255
 1012MOL0     O33482   3.487   2.911   8.599 -0.7305  0.6702  0.0276
 1012MOL0     C33483   3.378   2.828   8.621 -0.0750 -0.2437  0.3269
 1012MOL0     C33484   3.301   2.772   8.513 -0.7885 -0.3044  0.7417
 1012MOL0     C33485   3.187   2.694   8.532  0.1311 -0.1141 -0.2736
 1012MOL0     C33486   3.139   2.681   8.665 -0.0524 -0.7928 -0.8300
 1012MOL0     O33487   3.018   2.616   8.669 -0.1172  0.3189 -0.5263
 1012MOL0     C33488   2.940   2.611   8.787 -0.0951 -0.0349 -0.9284
 1012MOL0     C33489   2.812   2.551   8.738  0.0839 -0.3127 -0.2340
 1012MOL0     C33490   2.702   2.529   8.844  0.4457 -0.1981  0.1596
 1012MOL0     C33491   2.646   2.662   8.890 -0.1030  0.5886 -1.0966
 1012MOL0     C33492   2.513   2.653   8.973  0.6361 -0.8939 -0.8959
 1012MOL0     C33493   2.384   2.642   8.888 -0.6531  0.1077 -0.5642
 1012MOL0     C33494   2.271   2.638   8.993  0.2547  0.5305  0.7278
 1012MOL0     C33495   2.130   2.663   8.945 -0.6452  0.8860  0.3238
 1012MOL0    Cl33496   2.110   2.812   8.836 -0.2126 -0.4137 -0.8608
 1012MOL0     C33497   3.208   2.734   8.770 -0.0483 -0.4166  0.0452
 1012MOL0     C33498   3.328   2.805   8.753 -0.0959 -0.3587  0.6980
 1012MOL0     O33499   3.636   2.744   8.655 -0.3746 -0.4050  0.2630
 1012MOL0     C33500   3.699   3.064   8.513  0.6835 -0.2323  0.4518
 1012MOL0     C33501   3.804   3.144   8.478 -0.0302  0.2080  0.1545
 1012MOL0     N33502   4.705   3.252   8.458 -0.4146 -0.3107 -0.1504
 1012MOL0     N33503   4.831   3.236   8.417  0.3483 -0.0478 -0.5870
 1012MOL0     C33504   5.721   3.574   8.764  0.4910 -0.4048  0.6440
 1012MOL0     C33505   5.846   3.523   8.819  0.9334  0.2897 -0.3346
 1012MOL0     C33506   6.229   3.323   8.867 -0.0874 -0.8479 -0.1556
 1012MOL0     C33507   6.237   3.249   8.992 -0.1158 -0.0727  0.7176
 1012MOL0     C33508   6.362   3.223   9.044 -0.0537  0.3758 -0.9395
 1012MOL0     C33509   6.481   3.280   8.987  1.1756  0.1253  0.3458
 1012MOL0     O33510   6.596   3.256   9.055  0.0784  0.4304  0.7023
 1012MOL0     C33511   6.701   3.350   9.025 -0.0116  0.2063 -0.4955
 1012MOL0     C33512   6.827   3.305   9.108 -0.2866 -1.2650 -0.0900
 1012MOL0     C33513   6.945   3.385   9.076 -0.2141 -0.5723  0.7157
 1012MOL0     C33514   7.068   3.326   9.139 -0.4361 -0.6011 -0.2139
 1012MOL0     C33515   7.189   3.394   9.090 -0.2404  0.5875  0.3662
 1012MOL0     C33516   7.295   3.450   9.059  0.4581 -0.6805 -0.6209
 1012MOL0     C33517   6.469   3.369   8.876 -0.7860  0.0504  0.2825
 1012MOL0     C33518   6.345   3.389   8.811 -0.3135  0.1813 -0.2274
 1012MOL0     H33519   5.767   3.202   8.848 -0.8493 -1.2645 -3.5646
 1012MOL0     H33520   5.550   3.285   8.767 -0.9482  1.1446 -3.1091
 1012MOL0     H33521   5.619   3.579   8.504 -1.3595 -2.2228 -0.3231
 1012MOL0     H33522   5.564   3.723   8.582  1.2531  0.0290  0.0213
 1012MOL0     H33523   5.427   3.687   8.380  1.2993 -4.1592 -3.0246
 1012MOL0     H33524   5.329   3.669   8.524  0.0845  1.2018 -0.3370
 1012MOL0     H33525   5.352   3.412   8.474  4.6386 -0.4173  2.1521
 1012MOL0     H33526   5.455   3.455   8.338 -0.2019 -0.6764 -0.2115
 1012MOL0     H33527   5.149   3.541   8.347 -0.3239 -1.3053 -0.6010
 1012MOL0     H33528   5.274   3.635   8.265 -0.1162  0.3918 -0.4724
 1012MOL0     H33529   5.334   3.441   8.124 -0.7000  3.1775 -1.5868
 1012MOL0     H33530   5.162   3.488   8.118 -0.3277 -0.3301 -0.4134
 1012MOL0     H33531   5.295   3.248   8.240  0.2689  1.8217  1.6951
 1012MOL0     H33532   5.183   3.253   8.104 -1.8371  2.4596 -0.6208
 1012MOL0     H33533   5.087   3.154   8.285 -0.3642 -0.2781  1.1697
 1012MOL0     H33534   5.119   3.298   8.379  0.1448 -0.6004 -0.5201
 1012MOL0     H33535   4.953   3.300   8.113  0.9573  1.0439 -0.7087
 1012MOL0     H33536   4.968   3.434   8.221  1.9950  0.3621  3.3791
 1012MOL0     H33537   4.673   3.371   8.162 -0.3328 -2.4837 -2.0584
 1012MOL0     H33538   4.444   3.348   8.254  0.7506  0.2135 -0.8538
 1012MOL0     H33539   4.466   3.419   8.423 -0.1897 -0.1568 -0.5186
 1012MOL0     H33540   4.419   3.224   8.520  1.5896 -2.3201 -0.5943
 1012MOL0     H33541   4.430   3.122   8.368 -2.0797 -1.2341  0.6298
 1012MOL0     H33542   4.225   3.348   8.425 -3.1705 -1.0766 -0.9353
 1012MOL0     H33543   4.222   3.261   8.279  2.5273 -0.8463 -0.9688
 1012MOL0     H33544   4.197   3.156   8.550 -1.4113  3.9940 -0.5412
 1012MOL0     H33545   4.189   3.049   8.402  2.2172  1.6208 -1.8744
 1012MOL0     H33546   4.056   2.930   8.535  0.0095  0.1137  3.7710
 1012MOL0     H33547   3.874   2.789   8.608  1.1434  0.8261  1.9522
 1012MOL0     H33548   3.328   2.776   8.408  2.5423 -0.0452  1.5098
 1012MOL0     H33549   3.126   2.640   8.461  0.6927 -0.5781 -0.4094
 1012MOL0     H33550   2.926   2.705   8.841  2.8779 -0.9342  1.7427
 1012MOL0     H33551   2.986   2.545   8.861 -0.3107  0.7804 -0.0509
 1012MOL0     H33552   2.843   2.451   8.708  0.8285 -1.1742  3.0421
 1012MOL0     H33553   2.777   2.601   8.647  1.2325  0.1912 -0.4166
 1012MOL0     H33554   2.730   2.468   8.930 -2.0332 -1.8643 -0.1283
 1012MOL0     H33555   2.624   2.473   8.792  1.1198  0.4659 -1.6515
 1012MOL0     H33556   2.727   2.709   8.946  0.4035 -3.2146  1.7724
 1012MOL0     H33557   2.621   2.724   8.803  3.5121  1.0776 -1.9528
 1012MOL0     H33558   2.507   2.743   9.035  0.4589 -0.7828 -1.0728
 1012MOL0     H33559   2.522   2.572   9.046  0.3982  1.1707  1.5342
 1012MOL0     H33560   2.391   2.556   8.821  3.4566  0.1818 -0.4664
 1012MOL0     H33561   2.371   2.732   8.827  1.0321  1.9945  1.6783
 1012MOL0     H33562   2.269   2.543   9.046  0.6451 -0.5591 -1.1229
 1012MOL0     H33563   2.277   2.719   9.066 -0.2529  0.3459  0.9773
 1012MOL0     H33564   2.063   2.690   9.027 -0.6405 -1.6080  1.2173
 1012MOL0     H33565   2.101   2.572   8.892  0.3296  0.4441  0.5317
 1012MOL0     H33566   3.176   2.717   8.872  0.7873  2.4539  0.8804
 1012MOL0     H33567   3.391   2.848   8.831  1.0997 -2.4552  0.9570
 1012MOL0     H33568   3.602   3.110   8.525 -1.2269 -4.0006  1.0961
 1012MOL0     H33569   3.786   3.241   8.434  2.9298  0.6960 -0.1868
 1012MOL0     H33570   5.709   3.682   8.754  2.6434  0.0650  2.2972
 1012MOL0     H33571   5.908   3.607   8.850 -3.3926  3.5308  0.5398
 1012MOL0     H33572   6.148   3.226   9.050 -0.5683 -0.9994 -0.3205
 1012MOL0     H33573   6.367   3.160   9.133  3.5935 -2.0834 -2.6251
 1012MOL0     H33574   6.665   3.450   9.049  1.8463  0.3597  2.0872
 1012MOL0     H33575   6.723   3.357   8.918  2.4002  1.3292  0.0026
 1012MOL0     H33576   6.793   3.308   9.212 -0.1514 -1.0009 -0.0524
 1012MOL0     H33577   6.838   3.200   9.079 -2.0108 -1.4305 -0.2888
 1012MOL0     H33578   6.930   3.489   9.107  0.9669  0.3197 -1.4189
 1012MOL0     H33579   6.958   3.386   8.967  2.3757 -2.2689  0.9294
 1012MOL0     H33580   7.065   3.335   9.248  2.0873 -0.2149 -0.1218
 1012MOL0     H33581   7.086   3.222   9.112 -0.4549 -0.6493 -0.0454
 1012MOL0     H33582   7.390   3.486   9.026 -0.1771 -0.7843 -2.7625
 1012MOL0     H33583   6.559   3.417   8.840 -0.5013  0.0297  0.9382
 1012MOL0     H33584   6.335   3.439   8.715 -2.1525  2.4669  1.0698
 1013MOL0     O33585   2.401   0.312   4.430  0.4060 -0.8501  0.1077
 1013MOL0     C33586   2.482   0.395   4.486  1.0500  0.0362  0.3947
 1013MOL0     O33587   2.445   0.467   4.600 -0.8978 -0.0473 -0.0252
 1013MOL0     C33588   2.317   0.434   4.647 -0.0524 -0.1405  0.3562
 1013MOL0     C33589   2.204   0.473   4.579  0.2121 -0.7575  1.0665
 1013MOL0     C33590   2.076   0.444   4.647  0.1817  0.8206 -0.0240
 1013MOL0     C33591   2.066   0.375   4.770 -0.1927  0.0512 -0.7510
 1013MOL0     O33592   1.943   0.345   4.832  0.1455  0.5680  0.3966
 1013MOL0     C33593   1.938   0.298   4.973  0.0275 -0.0909 -0.0236
 1013MOL0     C33594   1.791   0.284   5.019 -0.2093  0.0500  0.5685
 1013MOL0     C33595   1.720   0.189   4.921 -0.9492 -0.2312  1.1686
 1013MOL0     C33596   1.580   0.156   4.962 -0.2922  1.6583  0.3309
 1013MOL0     C33597   1.514   0.050   4.883 -0.1090 -0.1941  0.1027
 1013MOL0     C33598   1.363   0.034   4.927  0.0703 -0.9887 -0.0141
 1013MOL0     C33599   1.309  -0.094   4.864 -0.5346 -0.1132  1.2480
 1013MOL0     C33600   1.284  -0.087   4.711 -0.3128 -1.9482 -1.1572
 1013MOL0     N33601   1.136  -0.068   4.670 -0.3844 -1.1125 -0.1890
 1013MOL0     C33602   1.100   0.048   4.596  0.7876  0.3545 -0.0373
 1013MOL0     C33603   0.988   0.008   4.531 -1.6175  0.0402 -0.2702
 1013MOL0     C33604   0.911   0.095   4.435 -0.1824 -0.3328  0.9922
 1013MOL0     C33605   0.897   0.040   4.290 -0.6462 -0.1058 -0.6344
 1013MOL0     C33606   0.835  -0.098   4.284 -0.5759  0.8195  0.7193
 1013MOL0     C33607   0.691  -0.107   4.338 -0.4181 -0.2423 -0.1658
 1013MOL0     O33608   0.616  -0.010   4.271 -0.4135  0.6700  0.1789
 1013MOL0     C33609   0.479  -0.011   4.285  0.6159  0.1582  1.0290
 1013MOL0     C33610   0.414  -0.103   4.363 -0.1671  0.0065 -0.0559
 1013MOL0     C33611   0.273  -0.108   4.354 -0.1144 -0.6030  0.6127
 1013MOL0     C33612   0.200  -0.024   4.264 -0.6972 -0.8478  1.0520
 1013MOL0     C33613   0.054  -0.034   4.246  0.2712 -0.7004  0.9353
 1013MOL0     O33614   0.014   0.008   4.124 -0.2825  0.1548 -0.2769
 1013MOL0     C33615  -0.113  -0.005   4.078  0.1265 -0.1836 -1.2228
 1013MOL0     C33616  -0.187   0.112   4.048  0.0946  0.3970 -0.0874
 1013MOL0     C33617  -0.313   0.102   4.000  0.0387  0.1436  0.3443
 1013MOL0     C33618  -0.358  -0.025   3.966 -0.0581 -0.4507  0.1830
 1013MOL0     O33619  -0.486  -0.027   3.903  0.0236  0.2294 -0.1352
 1013MOL0     C33620  -0.545  -0.158   3.870 -0.5486  0.3461 -0.0085
 1013MOL0     C33621  -0.675  -0.131   3.803  0.6640 -0.1643  0.1120
 1013MOL0     C33622  -0.767  -0.251   3.820 -0.0820 -0.4660 -0.3167
 1013MOL0     C33623  -0.892  -0.223   3.739 -0.9059  1.0903  0.5530
 1013MOL0     C33624  -0.991  -0.337   3.752  0.4079  0.2633  0.2919
 1013MOL0     C33625  -1.088  -0.326   3.872  0.6334  0.3568  0.6698
 1013MOL0     C33626  -1.193  -0.430   3.866 -0.0428  0.5625 -0.2798
 1013MOL0     C33627  -1.300  -0.424   3.759 -0.0087 -0.4200  0.4607
 1013MOL0    Cl33628  -1.432  -0.329   3.832  0.1143 -0.4096 -0.2267
 1013MOL0     C33629  -0.278  -0.139   3.970  0.4188  0.8493 -0.8905
 1013MOL0     C33630  -0.159  -0.125   4.035 -0.7630 -0.6336 -0.0075
 1013MOL0     O33631  -0.023  -0.084   4.333 -0.8634  0.7581 -0.3530
 1013MOL0     C33632   0.274   0.058   4.175 -0.4021  0.2924 -0.8135
 1013MOL0     C33633   0.410   0.072   4.192  0.8445 -0.5322  0.2775
 1013MOL0     N33634   0.952  -0.116   4.567  0.2550 -0.2233  0.5765
 1013MOL0     N33635   1.042  -0.162   4.647  0.0377 -0.3539 -0.1152
 1013MOL0     C33636   2.185   0.342   4.831  0.1307 -0.6722  0.2207
 1013MOL0     C33637   2.308   0.369   4.770 -0.2321 -0.2496  0.2083
 1013MOL0     C33638   2.614   0.404   4.428  0.2038  1.4690 -0.2863
 1013MOL0     C33639   2.633   0.356   4.295 -0.0607  1.1375  0.4375
 1013MOL0     C33640   2.752   0.388   4.226 -0.1233 -0.3915 -0.9422
 1013MOL0     C33641   2.851   0.458   4.282 -0.9705  0.4343 -0.6315
 1013MOL0     O33642   2.969   0.480   4.206  0.4346 -0.4946 -0.4088
 1013MOL0     C33643   3.060   0.572   4.266 -0.5197  0.5959  0.7283
 1013MOL0     C33644   3.153   0.635   4.174  0.0521  0.5664  0.0286
 1013MOL0     C33645   3.231   0.527   4.089 -0.6694  0.9686  0.2078
 1013MOL0     C33646   3.288   0.417   4.179 -0.2397 -1.2508 -0.4471
 1013MOL0     C33647   3.381   0.462   4.280 -0.1901  0.7849 -0.0641
 1013MOL0     C33648   3.471   0.490   4.358 -0.8947 -0.2586 -0.0825
 1013MOL0     C33649   2.832   0.504   4.412  0.4049 -0.4078  0.5269
 1013MOL0     C33650   2.715   0.471   4.480 -0.4363 -0.3941  1.4493
 1013MOL0     H33651   2.199   0.535   4.490  0.1708  0.6510  2.0255
 1013MOL0     H33652   1.984   0.477   4.599  0.0369  0.2061 -0.1797
 1013MOL0     H33653   1.987   0.377   5.031  1.3632 -1.1242  0.3131
 1013MOL0     H33654   1.991   0.203   4.988  0.9297  0.4528  0.3465
 1013MOL0     H33655   1.753   0.387   5.019  5.6872  2.6598  0.8663
 1013MOL0     H33656   1.804   0.237   5.117  0.7323 -2.2372 -0.5845
 1013MOL0     H33657   1.785   0.102   4.908 -2.2970 -0.8713 -2.3026
 1013MOL0     H33658   1.709   0.231   4.821 -1.5770 -0.7667  0.9999
 1013MOL0     H33659   1.587   0.111   5.061 -1.3961  0.1109 -0.2463
 1013MOL0     H33660   1.518   0.245   4.971  1.4267  3.0576 -1.0985
 1013MOL0     H33661   1.567  -0.043   4.904 -0.2819  0.3254  3.4347
 1013MOL0     H33662   1.526   0.076   4.777  1.0998  0.1637  0.3129
 1013MOL0     H33663   1.298   0.120   4.910  2.1845  1.4537  3.0959
 1013MOL0     H33664   1.357   0.024   5.036 -0.2341 -0.4198  0.0250
 1013MOL0     H33665   1.382  -0.173   4.884  0.0945  0.2851  0.5922
 1013MOL0     H33666   1.219  -0.115   4.922  1.1215 -0.2662  3.9484
 1013MOL0     H33667   1.310  -0.183   4.665  2.0941 -1.4946 -0.8881
 1013MOL0     H33668   1.355  -0.011   4.676 -0.0502 -0.5887  2.0168
 1013MOL0     H33669   1.156   0.139   4.577  0.2184  0.9621  1.0986
 1013MOL0     H33670   0.967   0.189   4.433  0.6183 -0.8066 -0.7016
 1013MOL0     H33671   0.813   0.116   4.479 -0.0758  0.1451  1.0055
 1013MOL0     H33672   0.997   0.023   4.249 -0.6755 -0.1418 -0.6904
 1013MOL0     H33673   0.858   0.120   4.227 -0.4131  0.0729 -0.5524
 1013MOL0     H33674   0.842  -0.127   4.179  0.9056 -0.2813  1.0910
 1013MOL0     H33675   0.901  -0.163   4.342 -0.8213 -0.7720 -0.7147
 1013MOL0     H33676   0.691  -0.107   4.448  2.3289 -1.5288 -0.0827
 1013MOL0     H33677   0.655  -0.206   4.309  1.2481 -0.4629 -1.6414
 1013MOL0     H33678   0.461  -0.169   4.435  1.3981 -0.0469 -1.0834
 1013MOL0     H33679   0.226  -0.169   4.430 -0.7691 -0.6084  0.2086
 1013MOL0     H33680  -0.142   0.209   4.066 -0.8076  0.7164  0.5284
 1013MOL0     H33681  -0.376   0.190   3.989  0.2856  0.1367 -1.3725
 1013MOL0     H33682  -0.551  -0.221   3.959  1.2474  1.4301  0.9297
 1013MOL0     H33683  -0.479  -0.205   3.797  0.0055  0.6608  0.2780
 1013MOL0     H33684  -0.667  -0.095   3.700 -0.1585  1.9676  0.7223
 1013MOL0     H33685  -0.718  -0.049   3.862 -0.0047 -1.0692  0.9122
 1013MOL0     H33686  -0.783  -0.275   3.926 -0.7544 -3.0959 -0.9427
 1013MOL0     H33687  -0.709  -0.336   3.786 -0.7566 -1.1300  0.1663
 1013MOL0     H33688  -0.937  -0.126   3.761 -0.8003  1.5013 -0.9169
 1013MOL0     H33689  -0.856  -0.208   3.637 -1.8921 -0.2626 -0.0235
 1013MOL0     H33690  -0.932  -0.428   3.763 -0.4597 -0.2137  1.1841
 1013MOL0     H33691  -1.055  -0.345   3.663 -0.1695 -0.4273  0.7573
 1013MOL0     H33692  -1.141  -0.230   3.875 -0.2474 -0.1303  0.8795
 1013MOL0     H33693  -1.038  -0.337   3.969  0.8050  0.8662  0.6452
 1013MOL0     H33694  -1.142  -0.527   3.856  0.0414  0.4674  0.8854
 1013MOL0     H33695  -1.239  -0.433   3.966  0.7558 -1.9105  0.0925
 1013MOL0     H33696  -1.335  -0.526   3.738  0.2718 -0.4148 -0.0412
 1013MOL0     H33697  -1.253  -0.378   3.672 -0.6304  2.0494  1.3554
 1013MOL0     H33698  -0.296  -0.240   3.935 -1.1234  0.8745 -0.2383
 1013MOL0     H33699  -0.090  -0.209   4.037  0.3717  0.2670  2.2779
 1013MOL0     H33700   0.225   0.106   4.091 -1.1960 -1.7310 -1.5524
 1013MOL0     H33701   0.465   0.144   4.133 -2.0384 -0.0282 -2.0622
 1013MOL0     H33702   2.182   0.289   4.926 -2.7612 -2.9404 -0.9657
 1013MOL0     H33703   2.402   0.340   4.817 -0.1384  2.0292  1.6023
 1013MOL0     H33704   2.556   0.302   4.241  0.2518 -0.3420  1.3942
 1013MOL0     H33705   2.770   0.361   4.122  1.8969  0.1127 -0.7559
 1013MOL0     H33706   3.118   0.516   4.341  1.5753  2.7179  0.8043
 1013MOL0     H33707   3.010   0.659   4.311 -0.0848  0.6250  1.1640
 1013MOL0     H33708   3.105   0.712   4.112 -2.2521 -0.1374  0.8679
 1013MOL0     H33709   3.227   0.694   4.229 -0.3983  2.8385 -1.6483
 1013MOL0     H33710   3.318   0.577   4.046 -0.2425 -0.6944 -0.9195
 1013MOL0     H33711   3.173   0.475   4.013  1.4868  1.1033 -1.6251
 1013MOL0     H33712   3.207   0.361   4.228  0.6652 -3.1168 -0.9670
 1013MOL0     H33713   3.347   0.351   4.114 -0.9535 -0.9275 -1.4525
 1013MOL0     H33714   3.550   0.526   4.422 -1.1437 -0.2373  0.2162
 1013MOL0     H33715   2.903   0.563   4.469  2.3973 -2.6431  0.4727
 1013MOL0     H33716   2.708   0.519   4.577  0.9535  3.6280 -0.2210
 1014MOL0     O33717   9.172   1.357   3.808 -1.0214  0.6820 -0.5219
 1014MOL0     C33718   9.210   1.358   3.694  0.3713 -0.6498  0.0485
 1014MOL0     O33719   9.330   1.300   3.652  0.0765 -0.1220 -0.2179
 1014MOL0     C33720   9.422   1.282   3.751 -0.1332  0.2996  0.2266
 1014MOL0     C33721   9.397   1.182   3.847  0.2923  0.4361  0.2481
 1014MOL0     C33722   9.499   1.156   3.939  0.1817  0.0558 -0.8288
 1014MOL0     C33723   9.623   1.220   3.940 -0.7575 -0.9256  0.3304
 1014MOL0     O33724   9.725   1.192   4.023  0.6887  0.0325  0.0095
 1014MOL0     C33725   9.711   1.077   4.107 -0.5966 -0.9263 -0.3065
 1014MOL0     C33726   9.852   1.048   4.145 -0.0323  0.0689 -0.4259
 1014MOL0     C33727   9.875   0.901   4.191 -1.3549  0.0405  0.7320
 1014MOL0     C33728  10.016   0.883   4.267  0.3136  0.9853 -0.6360
 1014MOL0     C33729  10.010   0.872   4.418  0.1748  0.1592 -0.1456
 1014MOL0     C33730   9.961   1.010   4.471  0.0208  1.0122  0.2405
 1014MOL0     C33731   9.965   1.015   4.635  0.1421 -0.3468  0.0202
 1014MOL0     C33732   9.872   0.908   4.704 -0.2195 -0.0340  0.0471
 1014MOL0     N33733   9.730   0.917   4.655 -0.1628 -0.8117 -1.7113
 1014MOL0     C33734   9.651   1.018   4.706  0.1743  0.4916 -0.4071
 1014MOL0     C33735   9.566   1.041   4.608  0.3959  0.1600  0.0802
 1014MOL0     C33736   9.465   1.147   4.617 -0.1819  0.0868 -0.1192
 1014MOL0     C33737   9.336   1.128   4.532  0.2161 -0.3372 -0.4150
 1014MOL0     C33738   9.250   1.010   4.580 -0.4502  1.0670  0.6147
 1014MOL0     C33739   9.161   0.973   4.464 -0.5694  0.0265 -0.8307
 1014MOL0     O33740   9.049   0.893   4.518  0.0403 -0.4251  0.2685
 1014MOL0     C33741   8.933   0.911   4.457  0.5748 -0.6896  0.8355
 1014MOL0     C33742   8.826   0.951   4.536  0.0837 -0.1760  0.7274
 1014MOL0     C33743   8.700   0.980   4.483  0.2717  0.3218 -1.2212
 1014MOL0     C33744   8.681   0.966   4.344 -0.2470 -1.1295 -0.7374
 1014MOL0     C33745   8.554   0.994   4.276  1.5067  0.3705 -0.8262
 1014MOL0     O33746   8.449   1.032   4.360 -0.3329 -0.1700 -0.0897
 1014MOL0     C33747   8.318   1.067   4.325  0.0262  0.5717 -0.0402
 1014MOL0     C33748   8.222   1.058   4.423  0.8254 -0.3936  0.6279
 1014MOL0     C33749   8.092   1.097   4.401  0.7129  0.2113 -0.6221
 1014MOL0     C33750   8.053   1.168   4.288  0.7722 -0.7614 -0.0123
 1014MOL0     O33751   7.923   1.219   4.270 -0.3989  0.6383 -0.0410
 1014MOL0     C33752   7.840   1.236   4.377 -0.2126 -0.2500  0.1000
 1014MOL0     C33753   7.709   1.306   4.332 -0.2915 -1.1053  0.1704
 1014MOL0     C33754   7.623   1.221   4.244 -0.7762  0.3149 -0.5643
 1014MOL0     C33755   7.492   1.288   4.204  0.4406 -0.1685 -0.8926
 1014MOL0     C33756   7.405   1.201   4.121  0.1815 -0.0698 -0.5500
 1014MOL0     C33757   7.288   1.297   4.085 -0.5900 -0.2396 -1.0805
 1014MOL0     C33758   7.190   1.226   3.993 -0.7396  0.4793 -0.2839
 1014MOL0     C33759   7.081   1.332   3.951 -0.7067  0.7820  0.2082
 1014MOL0    Cl33760   6.931   1.244   3.884  0.6127  0.2908 -0.1502
 1014MOL0     C33761   8.151   1.171   4.183 -0.3467  0.1777  0.3192
 1014MOL0     C33762   8.284   1.119   4.195 -0.3360 -0.4835  0.2144
 1014MOL0     O33763   8.545   0.973   4.153  0.0113  0.0756  0.1634
 1014MOL0     C33764   8.790   0.919   4.261 -0.1736 -0.6807 -0.3538
 1014MOL0     C33765   8.914   0.890   4.322 -0.0920 -0.7644 -0.9937
 1014MOL0     N33766   9.589   0.955   4.509 -0.0968  0.1639 -0.3831
 1014MOL0     N33767   9.686   0.874   4.539 -0.0824  0.7038  0.5186
 1014MOL0     C33768   9.649   1.322   3.848 -0.4715 -0.2387  0.1996
 1014MOL0     C33769   9.546   1.353   3.755 -0.0242 -0.2643  0.5681
 1014MOL0     C33770   9.117   1.402   3.580  0.0384 -0.2275 -0.6367
 1014MOL0     C33771   8.988   1.447   3.611 -0.2817  0.7678 -0.1356
 1014MOL0     C33772   8.894   1.478   3.509 -0.7514  0.4063  0.1399
 1014MOL0     C33773   8.942   1.487   3.382  0.1161 -0.5554  0.1792
 1014MOL0     O33774   8.852   1.542   3.292 -0.0308 -0.0900  0.5856
 1014MOL0     C33775   8.895   1.544   3.147 -0.0773  0.4045  0.7135
 1014MOL0     C33776   8.784   1.589   3.046  0.9390 -0.2343  0.6537
 1014MOL0     C33777   8.697   1.476   2.984 -0.6974  0.3129 -1.3920
 1014MOL0     C33778   8.573   1.533   2.920 -0.4376  0.1738  0.9475
 1014MOL0     C33779   8.603   1.625   2.805  0.1206  0.0499  0.4260
 1014MOL0     C33780   8.623   1.703   2.713 -0.0925  0.2374 -0.2022
 1014MOL0     C33781   9.073   1.448   3.350 -0.8267  0.3659 -0.1512
 1014MOL0     C33782   9.162   1.406   3.447 -0.3243  0.3034 -0.4010
 1014MOL0     H33783   9.304   1.126   3.848  1.7339 -2.0918  0.4464
 1014MOL0     H33784   9.479   1.071   4.003  0.7576 -1.0953 -2.1324
 1014MOL0     H33785   9.676   0.989   4.052  0.9671 -2.1177  0.5191
 1014MOL0     H33786   9.651   1.090   4.198  1.1573 -0.4656  0.8378
 1014MOL0     H33787   9.879   1.111   4.230 -0.3064  0.6907 -0.7930
 1014MOL0     H33788   9.920   1.072   4.063 -1.1900  4.4426 -0.3760
 1014MOL0     H33789   9.872   0.843   4.099  1.1192 -0.2436  0.7670
 1014MOL0     H33790   9.793   0.876   4.258 -1.3253  2.8158  1.9232
 1014MOL0     H33791  10.054   0.783   4.243 -1.0321 -1.7785  6.3218
 1014MOL0     H33792  10.085   0.963   4.237  0.4014  0.2581 -2.5263
 1014MOL0     H33793  10.105   0.839   4.462 -0.2364  0.4847  1.0461
 1014MOL0     H33794   9.937   0.792   4.433 -0.3266  0.6353 -0.0186
 1014MOL0     H33795   9.861   1.035   4.434  0.4802  0.2855 -1.6316
 1014MOL0     H33796  10.027   1.089   4.434 -1.3994  3.0000  1.7357
 1014MOL0     H33797  10.062   0.992   4.680  0.1814  1.4090  0.8896
 1014MOL0     H33798   9.940   1.117   4.664  1.5342 -0.2487  0.9285
 1014MOL0     H33799   9.885   0.931   4.811 -0.1924  0.0059  0.0352
 1014MOL0     H33800   9.911   0.810   4.678  0.5292 -0.2103  1.6787
 1014MOL0     H33801   9.660   1.064   4.804 -1.4929  0.1387 -0.0493
 1014MOL0     H33802   9.513   1.237   4.577  1.3483 -0.0623  1.2618
 1014MOL0     H33803   9.444   1.165   4.723  1.6523 -1.5594  0.5835
 1014MOL0     H33804   9.363   1.108   4.428  1.2378 -0.0674 -0.2041
 1014MOL0     H33805   9.282   1.222   4.549  3.9988  2.1402 -1.0729
 1014MOL0     H33806   9.311   0.929   4.620 -1.7935 -0.3135 -0.0200
 1014MOL0     H33807   9.191   1.039   4.667 -1.1838 -0.8203  0.7827
 1014MOL0     H33808   9.219   0.925   4.385  0.9377  0.7031 -0.1922
 1014MOL0     H33809   9.133   1.061   4.405  1.6403  0.0382 -1.9751
 1014MOL0     H33810   8.832   0.939   4.644 -2.9664 -2.2263  0.8022
 1014MOL0     H33811   8.618   0.995   4.552  1.4505 -0.0477  0.2980
 1014MOL0     H33812   8.246   1.035   4.526  2.9040  1.4623  0.6559
 1014MOL0     H33813   8.016   1.090   4.478 -1.4606 -1.2239 -2.7235
 1014MOL0     H33814   7.885   1.305   4.450  0.9688 -2.1569  1.2623
 1014MOL0     H33815   7.814   1.143   4.427  0.1757  0.5138  1.8270
 1014MOL0     H33816   7.729   1.399   4.278  0.1647 -2.2766 -1.7851
 1014MOL0     H33817   7.642   1.332   4.415  0.0692  1.5733 -0.2899
 1014MOL0     H33818   7.616   1.120   4.284  1.7129  0.9188  1.7382
 1014MOL0     H33819   7.684   1.210   4.154  1.0544  0.0374  0.6623
 1014MOL0     H33820   7.438   1.336   4.287 -1.7562 -0.3355 -2.1633
 1014MOL0     H33821   7.514   1.373   4.138 -1.1853  0.1324 -1.0739
 1014MOL0     H33822   7.361   1.112   4.168 -0.9566  0.4678 -0.5697
 1014MOL0     H33823   7.441   1.163   4.025 -2.8855  0.8014 -2.1758
 1014MOL0     H33824   7.317   1.385   4.027 -3.6260  1.7406  0.1273
 1014MOL0     H33825   7.237   1.326   4.177  1.1244  0.3169 -0.2686
 1014MOL0     H33826   7.240   1.179   3.908  1.3881  0.8603  0.6728
 1014MOL0     H33827   7.144   1.152   4.059  0.8974  0.9179  1.4579
 1014MOL0     H33828   7.116   1.405   3.877 -0.6221  0.1410 -0.3897
 1014MOL0     H33829   7.049   1.390   4.038 -0.1136 -0.7154  1.4790
 1014MOL0     H33830   8.117   1.224   4.094  1.1291  2.9435  1.2952
 1014MOL0     H33831   8.357   1.131   4.116  0.0389  0.6307  0.7023
 1014MOL0     H33832   8.772   0.897   4.156  0.8530 -0.5910 -0.5546
 1014MOL0     H33833   8.998   0.866   4.259  0.9990  3.3400 -1.3674
 1014MOL0     H33834   9.747   1.369   3.846 -0.6687  0.1904  0.5142
 1014MOL0     H33835   9.565   1.427   3.678  1.3946  0.7686  1.8670
 1014MOL0     H33836   8.958   1.441   3.715 -1.1874  0.8874 -0.3860
 1014MOL0     H33837   8.788   1.490   3.525 -0.9303 -0.3950 -0.3687
 1014MOL0     H33838   8.930   1.445   3.118  1.5238  1.1483  0.0021
 1014MOL0     H33839   8.977   1.616   3.142 -0.5877  0.9069 -0.8139
 1014MOL0     H33840   8.717   1.665   3.088 -1.4274 -2.3689  0.9998
 1014MOL0     H33841   8.839   1.635   2.963  1.8205  0.2388  1.4821
 1014MOL0     H33842   8.656   1.407   3.059  0.9805  1.0187  0.2691
 1014MOL0     H33843   8.755   1.410   2.919 -1.6751 -0.9471 -1.0296
 1014MOL0     H33844   8.527   1.445   2.874  2.8778 -0.7148 -1.0175
 1014MOL0     H33845   8.505   1.581   2.991  0.6767 -1.8425  3.5423
 1014MOL0     H33846   8.648   1.780   2.642  2.2753 -0.5119 -0.2783
 1014MOL0     H33847   9.113   1.454   3.249  1.3565  0.9332  0.6851
 1014MOL0     H33848   9.260   1.371   3.417  0.0692  0.2382  0.9362
 1015MOL0     O33849   7.591   6.437   9.844  0.3228  0.3036  0.2512
 1015MOL0     C33850   7.624   6.524   9.759  0.7071 -0.8882 -0.9468
 1015MOL0     O33851   7.531   6.601   9.692 -0.5770 -0.0924  0.4766
 1015MOL0     C33852   7.404   6.619   9.734  0.5606 -0.3398  0.0707
 1015MOL0     C33853   7.313   6.617   9.632  0.9175  0.2050  0.7368
 1015MOL0     C33854   7.175   6.622   9.665 -0.6172  0.4959 -0.6174
 1015MOL0     C33855   7.135   6.628   9.798 -0.2382  0.9143  0.1704
 1015MOL0     O33856   6.997   6.646   9.814  0.3644  0.3449 -0.2546
 1015MOL0     C33857   6.944   6.626   9.945 -0.2965 -1.1901 -0.3409
 1015MOL0     C33858   6.802   6.576   9.918 -0.5511  0.0581  0.3462
 1015MOL0     C33859   6.735   6.532  10.051 -1.1233  0.6235 -0.2124
 1015MOL0     C33860   6.642   6.625  10.105  0.4605 -0.2776  0.0206
 1015MOL0     C33861   6.548   6.579  10.212  0.2931  0.4614 -0.9997
 1015MOL0     C33862   6.441   6.682  10.246  0.3105 -0.9699  0.8216
 1015MOL0     C33863   6.317   6.657  10.339 -0.0495 -1.0439  0.7621
 1015MOL0     C33864   6.220   6.771  10.342 -0.1343 -0.0289 -0.3257
 1015MOL0     N33865   6.129   6.755  10.453 -0.2974  0.0917  0.8140
 1015MOL0     C33866   6.015   6.679  10.462  0.5435  0.3748  0.1091
 1015MOL0     C33867   5.983   6.673  10.594  0.6882  0.0779 -0.4657
 1015MOL0     C33868   5.867   6.608  10.651  0.2520 -0.9196 -0.1371
 1015MOL0     C33869   5.864   6.630  10.800 -0.1341 -0.4881 -1.0564
 1015MOL0     C33870   5.762   6.542  10.874 -1.0189  0.1884  0.6212
 1015MOL0     C33871   5.629   6.604  10.885  0.3602  0.0873 -0.1586
 1015MOL0     O33872   5.620   6.686  11.007 -0.0490  0.4143 -0.3144
 1015MOL0     C33873   5.527   6.649  11.096 -0.1073 -0.1608  0.9560
 1015MOL0     C33874   5.507   6.521  11.138  0.1144  0.0734 -0.0767
 1015MOL0     C33875   5.404   6.480  11.221  0.5045  0.5123 -0.8270
 1015MOL0     C33876   5.324   6.578  11.283  1.0196 -0.4413  0.5007
 1015MOL0     C33877   5.224   6.538  11.384 -0.5513  0.5424  0.6548
 1015MOL0     O33878   5.216   6.404  11.420  0.1918 -0.5481 -0.2095
 1015MOL0     C33879   5.099   6.358  11.486  0.2113 -0.0093  0.3099
 1015MOL0     C33880   5.038   6.421  11.596 -0.0677 -0.1528  0.7497
 1015MOL0     C33881   4.929   6.365  11.666 -0.1810  0.1570 -0.0074
 1015MOL0     C33882   4.883   6.237  11.641  0.4820  0.4983 -0.7116
 1015MOL0     O33883   4.779   6.172  11.711  0.1876  0.0800 -0.3148
 1015MOL0     C33884   4.669   6.259  11.758 -0.2155  0.2631 -0.1166
 1015MOL0     C33885   4.557   6.177  11.820 -0.3400  0.9865  0.1276
 1015MOL0     C33886   4.422   6.221  11.790 -0.4764  0.0789 -0.4475
 1015MOL0     C33887   4.322   6.128  11.866  0.3494 -0.8339 -0.0009
 1015MOL0     C33888   4.183   6.185  11.862 -0.6063 -0.1544  0.6999
 1015MOL0     C33889   4.079   6.084  11.921 -0.1736  0.4932  0.2727
 1015MOL0     C33890   4.088   6.048  12.073 -0.6761 -0.1680  0.6746
 1015MOL0     C33891   3.982   5.943  12.106 -0.5499 -0.4182  0.0268
 1015MOL0    Cl33892   3.811   5.987  12.074  0.0032 -0.4985  0.1077
 1015MOL0     C33893   4.946   6.169  11.538  0.0773  0.5581 -0.6968
 1015MOL0     C33894   5.048   6.227  11.457  0.1233  0.5018 -0.0271
 1015MOL0     O33895   5.145   6.624  11.408  0.1069  0.2796 -0.4516
 1015MOL0     C33896   5.336   6.714  11.240 -0.0444  0.5412 -0.3859
 1015MOL0     C33897   5.437   6.742  11.144 -0.7792 -1.3638  0.3058
 1015MOL0     N33898   6.071   6.756  10.654  0.1177 -0.2123 -0.6010
 1015MOL0     N33899   6.153   6.810  10.573  1.3230  0.1142  0.0055
 1015MOL0     C33900   7.230   6.625   9.900 -0.5555  0.3372 -0.1624
 1015MOL0     C33901   7.363   6.617   9.872  0.1432  0.7008 -0.1435
 1015MOL0     C33902   7.763   6.527   9.715 -0.0222 -0.8105  0.5722
 1015MOL0     C33903   7.787   6.608   9.606 -0.3464 -0.2785  0.0578
 1015MOL0     C33904   7.915   6.620   9.558 -0.4385  0.0423 -0.1274
 1015MOL0     C33905   8.019   6.540   9.605 -0.0523  0.7667 -0.4881
 1015MOL0     O33906   8.140   6.549   9.534  0.4145  0.1826  0.3257
 1015MOL0     C33907   8.259   6.481   9.570 -0.8452  0.5613  0.9068
 1015MOL0     C33908   8.335   6.429   9.450 -0.9960 -0.8612 -0.6019
 1015MOL0     C33909   8.401   6.544   9.370  0.0105  0.0739 -0.1583
 1015MOL0     C33910   8.470   6.462   9.262 -0.2373  0.6477 -0.2909
 1015MOL0     C33911   8.545   6.552   9.175  0.0006  0.6291 -0.1745
 1015MOL0     C33912   8.604   6.600   9.088  0.0761  0.0545  0.2845
 1015MOL0     C33913   8.000   6.452   9.719  0.6507 -0.2091  0.2112
 1015MOL0     C33914   7.867   6.447   9.770 -0.2466 -0.2285 -0.7869
 1015MOL0     H33915   7.334   6.608   9.526  1.5539 -1.0018  0.9546
 1015MOL0     H33916   7.096   6.625   9.591 -1.5890 -0.8616  0.3192
 1015MOL0     H33917   6.955   6.728   9.985  0.3925 -1.3425 -0.1329
 1015MOL0     H33918   6.997   6.554  10.008  1.1582 -1.6327 -1.9819
 1015MOL0     H33919   6.810   6.488   9.853  3.4197 -1.1861  2.2295
 1015MOL0     H33920   6.747   6.648   9.857  1.6682  0.9323 -0.7508
 1015MOL0     H33921   6.804   6.500  10.131  1.3823  2.2479 -1.5817
 1015MOL0     H33922   6.678   6.441  10.031 -1.0950  0.8643 -1.4909
 1015MOL0     H33923   6.696   6.717  10.126 -2.0942  1.1722  0.6328
 1015MOL0     H33924   6.584   6.650  10.016  1.7980  3.3147  0.0065
 1015MOL0     H33925   6.595   6.551  10.307 -1.7578 -0.4514 -0.1962
 1015MOL0     H33926   6.496   6.491  10.172 -0.1980 -0.6890  1.8987
 1015MOL0     H33927   6.397   6.710  10.150  1.4261 -2.2234 -0.0983
 1015MOL0     H33928   6.496   6.764  10.294  2.7417 -2.6480  1.1173
 1015MOL0     H33929   6.265   6.568  10.304  0.1986 -0.2823 -1.7489
 1015MOL0     H33930   6.364   6.637  10.435  3.9969 -2.1834 -1.2413
 1015MOL0     H33931   6.170   6.786  10.246 -1.5078  0.5471  0.4611
 1015MOL0     H33932   6.274   6.864  10.365 -1.0169  0.6415 -0.8840
 1015MOL0     H33933   5.973   6.620  10.381  2.3696  1.0583 -1.3993
 1015MOL0     H33934   5.857   6.501  10.631  2.0992 -0.7477 -2.2375
 1015MOL0     H33935   5.782   6.654  10.599 -0.6226 -2.9162 -0.5505
 1015MOL0     H33936   5.847   6.734  10.830  1.6449 -0.7859  1.1887
 1015MOL0     H33937   5.961   6.607  10.844 -1.5861 -0.5565  2.4581
 1015MOL0     H33938   5.748   6.452  10.815 -0.4734  1.1575 -1.0487
 1015MOL0     H33939   5.804   6.512  10.971 -0.3232  0.7022  0.4916
 1015MOL0     H33940   5.551   6.528  10.891 -0.6643  1.0149 -1.1366
 1015MOL0     H33941   5.615   6.666  10.796  2.9595  0.5937 -0.2979
 1015MOL0     H33942   5.584   6.452  11.105 -0.8488 -1.2097  0.3115
 1015MOL0     H33943   5.406   6.376  11.251 -0.3450  0.5439 -0.6178
 1015MOL0     H33944   5.085   6.515  11.621  1.2251 -0.6018  0.0970
 1015MOL0     H33945   4.904   6.422  11.755  2.2792  0.1457  0.7707
 1015MOL0     H33946   4.628   6.309  11.669 -0.8855 -3.5961 -2.1976
 1015MOL0     H33947   4.705   6.332  11.831 -2.4488 -0.8948  2.2957
 1015MOL0     H33948   4.571   6.160  11.928 -0.3052 -2.0438 -0.2624
 1015MOL0     H33949   4.575   6.074  11.788 -0.0481  0.6702  1.2522
 1015MOL0     H33950   4.415   6.221  11.681  0.9560  2.6243 -0.6226
 1015MOL0     H33951   4.404   6.326  11.815  1.7552  1.1985 -3.0112
 1015MOL0     H33952   4.329   6.030  11.818 -1.4740 -0.8587 -0.2828
 1015MOL0     H33953   4.345   6.122  11.973  0.7723 -2.2221 -0.1469
 1015MOL0     H33954   4.161   6.196  11.756 -0.3482  1.6187  0.7929
 1015MOL0     H33955   4.176   6.286  11.904 -2.6301  1.0804 -2.2767
 1015MOL0     H33956   4.077   5.989  11.869 -2.1351 -1.3159  3.3413
 1015MOL0     H33957   3.980   6.130  11.916  0.2841  1.4939  0.2111
 1015MOL0     H33958   4.184   5.996  12.082 -2.0477 -2.8540  0.6587
 1015MOL0     H33959   4.082   6.131  12.144  1.3785  0.6222  0.0226
 1015MOL0     H33960   3.983   5.923  12.214 -3.1742 -1.2612 -0.0410
 1015MOL0     H33961   4.000   5.855  12.044  1.5041  1.1549 -1.7571
 1015MOL0     H33962   4.908   6.067  11.537 -1.2075  0.9430 -4.2489
 1015MOL0     H33963   5.094   6.165  11.380  2.4923  0.0699  1.6294
 1015MOL0     H33964   5.263   6.791  11.263  0.4305  0.8663  0.0481
 1015MOL0     H33965   5.436   6.841  11.099 -0.6023 -1.9134 -0.9666
 1015MOL0     H33966   7.204   6.645  10.004 -0.1463 -0.8935  0.1912
 1015MOL0     H33967   7.437   6.612   9.952 -1.0338 -2.8196  0.9172
 1015MOL0     H33968   7.717   6.681   9.567 -1.3768 -0.3396  1.6824
 1015MOL0     H33969   7.929   6.697   9.482  2.7514  0.7284  1.0248
 1015MOL0     H33970   8.233   6.397   9.635 -1.0787 -0.5268 -0.5289
 1015MOL0     H33971   8.330   6.554   9.610  0.3730 -0.9069  1.5791
 1015MOL0     H33972   8.415   6.372   9.498 -2.5728 -1.7476  1.0904
 1015MOL0     H33973   8.275   6.367   9.383  0.5848 -1.0095 -1.9735
 1015MOL0     H33974   8.470   6.610   9.423  0.3982 -0.7218  0.3485
 1015MOL0     H33975   8.319   6.604   9.328 -0.1113 -0.1032 -0.1722
 1015MOL0     H33976   8.543   6.400   9.315 -1.0415  0.8850  1.1746
 1015MOL0     H33977   8.396   6.401   9.210  0.1417 -0.9935  1.0102
 1015MOL0     H33978   8.673   6.624   9.009  0.4380  1.1283  0.9015
 1015MOL0     H33979   8.069   6.390   9.775  0.1931 -0.2513  0.7416
 1015MOL0     H33980   7.839   6.399   9.863 -0.6821  2.2649  0.4360
 1016MOL0     O33981   6.750   1.149   2.500 -0.2845 -0.2912  0.3052
 1016MOL0     C33982   6.690   1.167   2.397  0.9866 -1.1799  0.1305
 1016MOL0     O33983   6.684   1.076   2.297  0.1264  0.0287  0.8695
 1016MOL0     C33984   6.763   0.960   2.314  0.9533 -0.1117 -0.1954
 1016MOL0     C33985   6.703   0.836   2.314 -0.5942 -0.2676  0.5091
 1016MOL0     C33986   6.774   0.720   2.339 -0.0052 -0.5914 -0.4658
 1016MOL0     C33987   6.904   0.721   2.372 -0.0320 -0.9320 -0.4927
 1016MOL0     O33988   6.952   0.600   2.406  0.4335  0.3537 -0.1891
 1016MOL0     C33989   7.090   0.570   2.386 -0.3651 -0.0044 -0.0540
 1016MOL0     C33990   7.130   0.427   2.415 -0.0274  0.5454 -0.3931
 1016MOL0     C33991   7.137   0.389   2.565  0.3756 -0.3555  0.0242
 1016MOL0     C33992   7.163   0.236   2.594  0.1473  0.1635 -0.3574
 1016MOL0     C33993   7.305   0.193   2.576  0.5707 -0.5174  0.1900
 1016MOL0     C33994   7.344   0.064   2.654 -0.3295 -0.5367 -0.1240
 1016MOL0     C33995   7.256  -0.057   2.619 -0.7226  0.2435 -0.2588
 1016MOL0     C33996   7.264  -0.102   2.468 -0.3871  0.7299  0.7038
 1016MOL0     N33997   7.197  -0.236   2.450  0.6135 -0.0012 -0.3721
 1016MOL0     C33998   7.062  -0.238   2.433  0.1389 -0.1270  0.0619
 1016MOL0     C33999   7.040  -0.374   2.416 -0.5539  0.0148  0.2713
 1016MOL0     C34000   6.916  -0.438   2.362  0.0222  0.0109 -0.7864
 1016MOL0     C34001   6.804  -0.346   2.317  0.5757 -1.1249  0.7707
 1016MOL0     C34002   6.700  -0.435   2.248 -0.6078 -0.2984 -0.4153
 1016MOL0     C34003   6.588  -0.341   2.194 -0.1649  0.0966  0.2721
 1016MOL0     O34004   6.602  -0.285   2.063 -0.4224 -0.0735 -0.3112
 1016MOL0     C34005   6.479  -0.247   2.008 -0.2083 -0.9387 -0.4946
 1016MOL0     C34006   6.354  -0.250   2.066 -0.0121  1.1925 -0.4198
 1016MOL0     C34007   6.233  -0.233   1.997 -0.9238 -0.2714 -0.8901
 1016MOL0     C34008   6.238  -0.197   1.865  0.0013 -0.4917 -0.3169
 1016MOL0     C34009   6.115  -0.176   1.786 -1.0224  0.6327 -0.4696
 1016MOL0     O34010   6.114  -0.137   1.652 -0.6555  0.3405 -0.0709
 1016MOL0     C34011   5.994  -0.072   1.621 -0.5001  0.8041 -0.5250
 1016MOL0     C34012   5.869  -0.136   1.637 -0.4874  0.5144  0.0419
 1016MOL0     C34013   5.751  -0.056   1.628  0.4932  0.3544 -1.4689
 1016MOL0     C34014   5.763   0.085   1.598 -0.5357 -0.6643 -1.0126
 1016MOL0     O34015   5.658   0.166   1.590  0.4096 -0.3758  0.4143
 1016MOL0     C34016   5.528   0.115   1.546 -0.3797 -0.2671 -0.4796
 1016MOL0     C34017   5.431   0.233   1.553 -0.0320 -0.0693  0.1042
 1016MOL0     C34018   5.279   0.190   1.526  1.1792  0.1033  0.5359
 1016MOL0     C34019   5.185   0.309   1.515  0.5014  0.4036 -0.6832
 1016MOL0     C34020   5.042   0.263   1.481 -0.0851 -0.7137  0.1964
 1016MOL0     C34021   4.951   0.382   1.488 -0.4813  0.6784 -0.1481
 1016MOL0     C34022   4.807   0.329   1.450 -0.2609  0.5735 -0.0356
 1016MOL0     C34023   4.702   0.442   1.475  0.5139  0.4388 -0.6355
 1016MOL0    Cl34024   4.532   0.392   1.442  0.0310 -0.2723  0.3718
 1016MOL0     C34025   5.894   0.141   1.572  0.5027 -0.5356 -0.1242
 1016MOL0     C34026   6.008   0.066   1.587 -0.2116 -0.3696  0.7608
 1016MOL0     O34027   6.016  -0.172   1.858  0.8439  0.8941 -0.7803
 1016MOL0     C34028   6.362  -0.196   1.800  0.4836 -0.5751 -0.1792
 1016MOL0     C34029   6.478  -0.216   1.872 -0.8218  0.6912 -1.1101
 1016MOL0     N34030   7.163  -0.436   2.408 -0.2158 -0.4230 -0.6139
 1016MOL0     N34031   7.255  -0.354   2.426  0.3898  0.2030  0.0061
 1016MOL0     C34032   6.969   0.842   2.377  0.2084 -0.8772 -0.9040
 1016MOL0     C34033   6.903   0.963   2.346  0.3660  0.4850  0.6156
 1016MOL0     C34034   6.611   1.286   2.374  0.2574 -0.3844 -0.0698
 1016MOL0     C34035   6.640   1.406   2.437 -0.0898 -0.3359 -0.6886
 1016MOL0     C34036   6.547   1.510   2.430  0.1277 -1.2211 -0.0503
 1016MOL0     C34037   6.431   1.507   2.346  0.1635 -0.8843 -0.8568
 1016MOL0     O34038   6.341   1.617   2.340  0.2224  0.5155 -0.0436
 1016MOL0     C34039   6.378   1.741   2.405  0.1230 -0.1550  0.2369
 1016MOL0     C34040   6.499   1.804   2.332  0.3136  0.1418 -0.8841
 1016MOL0     C34041   6.456   1.852   2.194  0.1504  0.6067 -0.2752
 1016MOL0     C34042   6.569   1.912   2.109  0.6105  0.1891 -0.0525
 1016MOL0     C34043   6.501   1.965   1.984  0.3359  0.6031  0.6159
 1016MOL0     C34044   6.462   1.988   1.869  0.5189 -0.6175 -0.4086
 1016MOL0     C34045   6.409   1.386   2.280 -0.3171 -0.1113 -0.0791
 1016MOL0     C34046   6.498   1.274   2.296  0.0608  0.1636  0.4946
 1016MOL0     H34047   6.596   0.835   2.296 -0.6541 -0.3277  0.8498
 1016MOL0     H34048   6.715   0.630   2.328 -1.0509  0.0981 -0.6601
 1016MOL0     H34049   7.158   0.640   2.435  1.1327 -1.2551 -0.2751
 1016MOL0     H34050   7.113   0.568   2.279  2.1163  2.1017  0.3575
 1016MOL0     H34051   7.228   0.403   2.374  0.4915  0.2478  0.9655
 1016MOL0     H34052   7.065   0.360   2.357  1.1548 -2.2233  1.2557
 1016MOL0     H34053   7.048   0.435   2.608  0.5549  1.9005 -1.7819
 1016MOL0     H34054   7.222   0.438   2.614 -2.2398  1.3782  3.2061
 1016MOL0     H34055   7.136   0.231   2.700  0.6467  2.0385 -0.1165
 1016MOL0     H34056   7.100   0.166   2.539  0.0362 -1.4170  1.6410
 1016MOL0     H34057   7.364   0.278   2.612  1.2172 -2.0186  2.9241
 1016MOL0     H34058   7.323   0.182   2.469 -0.5772 -2.2997  0.1366
 1016MOL0     H34059   7.336   0.071   2.763  0.2933 -0.4275 -0.0780
 1016MOL0     H34060   7.448   0.034   2.638  0.7861  2.4088  0.9407
 1016MOL0     H34061   7.291  -0.138   2.683 -0.5087 -1.4936 -2.4480
 1016MOL0     H34062   7.150  -0.039   2.639 -1.2225 -1.1213 -1.4786
 1016MOL0     H34063   7.369  -0.110   2.438 -1.2360  1.9409 -3.1762
 1016MOL0     H34064   7.213  -0.026   2.409 -3.0219  1.5421  3.7623
 1016MOL0     H34065   6.990  -0.158   2.430  1.7340  1.3387 -0.8122
 1016MOL0     H34066   6.882  -0.498   2.447 -1.1803 -0.0278 -1.2781
 1016MOL0     H34067   6.933  -0.505   2.278 -0.8710  3.7689 -4.2703
 1016MOL0     H34068   6.841  -0.269   2.250  0.8447  0.6627  2.8635
 1016MOL0     H34069   6.760  -0.302   2.407 -1.3665  2.7246 -1.8124
 1016MOL0     H34070   6.732  -0.497   2.164 -0.7185  1.0682 -1.4950
 1016MOL0     H34071   6.668  -0.504   2.327 -0.4993 -0.0686 -0.1656
 1016MOL0     H34072   6.558  -0.268   2.270  1.0749 -1.7041  2.6413
 1016MOL0     H34073   6.502  -0.408   2.202 -0.9132  0.8731 -0.9717
 1016MOL0     H34074   6.337  -0.288   2.167 -0.1439  1.5893 -0.2900
 1016MOL0     H34075   6.136  -0.252   2.042 -0.0317 -0.8009  0.9235
 1016MOL0     H34076   5.859  -0.239   1.670 -0.0598 -0.3403 -2.2880
 1016MOL0     H34077   5.653  -0.101   1.645  1.5747 -0.5927  4.7304
 1016MOL0     H34078   5.475   0.036   1.600 -0.5192 -1.9101 -2.9047
 1016MOL0     H34079   5.541   0.086   1.442 -0.3246  1.1046 -0.8809
 1016MOL0     H34080   5.471   0.311   1.488 -3.5710  1.3189 -0.6277
 1016MOL0     H34081   5.430   0.284   1.650 -1.3961  1.1521 -0.5120
 1016MOL0     H34082   5.232   0.123   1.598  1.6868 -1.3958 -0.4689
 1016MOL0     H34083   5.279   0.129   1.435 -0.3452 -0.3532  0.8180
 1016MOL0     H34084   5.178   0.353   1.615  1.5826 -1.0323  0.0656
 1016MOL0     H34085   5.218   0.372   1.432  2.1721  0.7960  0.2225
 1016MOL0     H34086   5.009   0.189   1.555  0.1199 -0.8364  0.1686
 1016MOL0     H34087   5.061   0.221   1.382 -2.1259  1.4689 -1.2018
 1016MOL0     H34088   4.986   0.454   1.413 -2.3661  0.8575 -0.9102
 1016MOL0     H34089   4.948   0.421   1.591  3.7002 -0.6820  0.6482
 1016MOL0     H34090   4.818   0.306   1.343 -1.4225  2.3457 -0.5820
 1016MOL0     H34091   4.781   0.234   1.498  1.3124 -0.0416 -0.3341
 1016MOL0     H34092   4.721   0.531   1.413  3.5279  1.3626  1.3813
 1016MOL0     H34093   4.698   0.476   1.579 -2.5575  0.1709 -0.5592
 1016MOL0     H34094   5.903   0.246   1.549  0.1758 -0.4353  0.1979
 1016MOL0     H34095   6.106   0.111   1.571 -1.0341  1.5285  0.7854
 1016MOL0     H34096   6.365  -0.173   1.694 -1.0903  2.9664  0.4089
 1016MOL0     H34097   6.568  -0.221   1.812  1.3797  0.5715  1.9768
 1016MOL0     H34098   7.075   0.838   2.399 -0.1254 -0.3566  0.9174
 1016MOL0     H34099   6.953   1.059   2.353 -0.4712  0.8076  3.7436
 1016MOL0     H34100   6.728   1.420   2.498 -0.9325  2.7963 -0.0029
 1016MOL0     H34101   6.573   1.595   2.492 -0.5230 -1.7385  0.9671
 1016MOL0     H34102   6.404   1.719   2.509 -0.2954  0.3488  0.4506
 1016MOL0     H34103   6.297   1.813   2.394 -0.3305 -0.6469  0.3310
 1016MOL0     H34104   6.538   1.886   2.394  2.3701 -0.3539 -1.4718
 1016MOL0     H34105   6.580   1.732   2.325  0.9411  0.6792  0.5205
 1016MOL0     H34106   6.385   1.933   2.213 -0.5239  0.4212 -1.9023
 1016MOL0     H34107   6.415   1.767   2.138  0.8094  1.5105 -2.2106
 1016MOL0     H34108   6.603   2.005   2.154 -2.5002  2.2811 -1.6611
 1016MOL0     H34109   6.648   1.838   2.091 -0.7157 -2.4871  3.8591
 1016MOL0     H34110   6.419   2.010   1.773 -1.3995  1.0120  0.7260
 1016MOL0     H34111   6.326   1.376   2.211  1.2993 -1.5646 -1.9321
 1016MOL0     H34112   6.475   1.181   2.245 -1.6257  0.6788  0.2330
 1017MOL0     O34113   1.679   5.242   7.376 -0.0221  0.6952 -1.0912
 1017MOL0     C34114   1.679   5.145   7.302  1.4944  0.2157 -0.7961
 1017MOL0     O34115   1.567   5.081   7.257 -0.2195  0.2754 -0.0766
 1017MOL0     C34116   1.448   5.142   7.281  0.0361 -0.3334 -0.5091
 1017MOL0     C34117   1.365   5.087   7.381 -0.7770 -0.5438 -0.0807
 1017MOL0     C34118   1.253   5.158   7.424  0.9961  0.3004  0.5602
 1017MOL0     C34119   1.213   5.275   7.362 -0.1021  0.0038 -0.5637
 1017MOL0     O34120   1.096   5.335   7.402 -0.2492  0.5239  0.4253
 1017MOL0     C34121   1.063   5.456   7.349 -0.5714 -0.7932 -0.3033
 1017MOL0     C34122   0.960   5.514   7.447 -0.4747 -0.8775 -0.5568
 1017MOL0     C34123   0.895   5.641   7.401  1.1068 -0.0361 -0.2748
 1017MOL0     C34124   0.771   5.666   7.495 -0.8210  0.5181  0.2099
 1017MOL0     C34125   0.631   5.609   7.438  0.1604 -0.5533 -0.5268
 1017MOL0     C34126   0.527   5.627   7.552 -0.7518  0.5480  0.4358
 1017MOL0     C34127   0.388   5.598   7.507  0.6603  0.3195  1.1403
 1017MOL0     C34128   0.345   5.712   7.409 -0.3069 -0.0512  0.2240
 1017MOL0     N34129   0.201   5.696   7.367 -0.0730 -0.0553 -0.2389
 1017MOL0     C34130   0.093   5.770   7.410  0.1430  0.2263 -0.1521
 1017MOL0     C34131  -0.019   5.722   7.343 -1.3482 -0.5625  0.2062
 1017MOL0     C34132  -0.158   5.774   7.344  0.0475  0.3985 -0.4684
 1017MOL0     C34133  -0.177   5.881   7.248  0.0671 -0.1707  0.3749
 1017MOL0     C34134  -0.325   5.901   7.238  0.8349  0.3914  0.2937
 1017MOL0     C34135  -0.392   5.803   7.142 -0.7499  0.2756 -1.0147
 1017MOL0     O34136  -0.507   5.871   7.104 -0.0931 -0.6423 -0.7453
 1017MOL0     C34137  -0.561   5.826   6.983  0.6179  0.5264 -0.2456
 1017MOL0     C34138  -0.533   5.703   6.911  0.8361 -0.2341  0.3948
 1017MOL0     C34139  -0.613   5.656   6.805  0.0688 -0.7720  0.1953
 1017MOL0     C34140  -0.726   5.727   6.765 -0.5892 -0.5071  0.4303
 1017MOL0     C34141  -0.818   5.673   6.658  0.3151 -0.1628 -0.2944
 1017MOL0     O34142  -0.782   5.558   6.588 -0.1512 -0.3946  0.3798
 1017MOL0     C34143  -0.788   5.569   6.451 -0.3569 -0.2053 -0.6427
 1017MOL0     C34144  -0.751   5.686   6.390  0.4309 -0.3284 -0.2350
 1017MOL0     C34145  -0.731   5.690   6.253  0.6587 -0.1135 -1.2167
 1017MOL0     C34146  -0.764   5.578   6.178  0.1895 -0.6143  0.5029
 1017MOL0     O34147  -0.766   5.583   6.042  0.8064 -0.2993 -0.5766
 1017MOL0     C34148  -0.731   5.700   5.970  0.5607  0.0075  0.6056
 1017MOL0     C34149  -0.733   5.681   5.825  0.4178 -0.4835  0.7022
 1017MOL0     C34150  -0.628   5.579   5.792 -0.4136  0.7276  0.5017
 1017MOL0     C34151  -0.606   5.580   5.638  0.5557  0.2177 -0.4829
 1017MOL0     C34152  -0.491   5.492   5.604 -0.0398  1.2509 -0.0590
 1017MOL0     C34153  -0.424   5.525   5.468  0.0248  0.8084  0.2758
 1017MOL0     C34154  -0.513   5.493   5.352  0.8364 -0.1029 -0.4923
 1017MOL0     C34155  -0.502   5.336   5.330 -0.2453 -0.1717  0.1019
 1017MOL0    Cl34156  -0.591   5.300   5.181  0.0254 -0.0942  0.6148
 1017MOL0     C34157  -0.804   5.465   6.231 -0.3270  0.0310 -0.7191
 1017MOL0     C34158  -0.814   5.459   6.369 -0.2063 -0.1917 -0.0417
 1017MOL0     O34159  -0.928   5.733   6.651 -0.7301  0.5813  0.5271
 1017MOL0     C34160  -0.759   5.848   6.845 -0.3446  0.0599  0.1223
 1017MOL0     C34161  -0.679   5.897   6.949 -0.2364 -0.6082  0.4556
 1017MOL0     N34162   0.032   5.627   7.255  0.0389  0.4320  0.2127
 1017MOL0     N34163   0.162   5.608   7.273 -0.1286  0.7048  0.0223
 1017MOL0     C34164   1.297   5.327   7.257  0.3255  0.4407  0.2196
 1017MOL0     C34165   1.409   5.258   7.214  0.1969 -0.6233 -0.3604
 1017MOL0     C34166   1.803   5.086   7.270 -0.5218  0.1987  0.4427
 1017MOL0     C34167   1.813   5.000   7.154  0.6395  0.3917 -0.6367
 1017MOL0     C34168   1.928   4.924   7.139 -0.3603 -1.0069  0.7827
 1017MOL0     C34169   2.040   4.944   7.214  0.0905 -0.5246 -0.3984
 1017MOL0     O34170   2.150   4.865   7.198 -0.6908 -0.3042 -0.6346
 1017MOL0     C34171   2.235   4.941   7.116 -0.2877  0.3588 -0.3472
 1017MOL0     C34172   2.361   4.866   7.095 -0.4817 -0.4053 -0.4901
 1017MOL0     C34173   2.458   4.885   7.204 -0.0587  0.1079 -0.2849
 1017MOL0     C34174   2.588   4.807   7.177 -0.1991  0.1242  0.2253
 1017MOL0     C34175   2.703   4.867   7.257 -0.4339  0.3656  0.0514
 1017MOL0     C34176   2.797   4.902   7.318 -0.6792  0.2113 -0.7474
 1017MOL0     C34177   2.032   5.033   7.321  0.2529  0.0570  0.1613
 1017MOL0     C34178   1.917   5.108   7.346  0.4262 -0.5073 -0.4250
 1017MOL0     H34179   1.400   4.999   7.434 -0.4804 -1.4500 -1.7103
 1017MOL0     H34180   1.188   5.118   7.500  3.0164 -1.9123  1.2221
 1017MOL0     H34181   1.027   5.464   7.246  1.6344 -0.4941 -1.0989
 1017MOL0     H34182   1.150   5.522   7.352 -0.8866 -0.3952  0.8657
 1017MOL0     H34183   1.005   5.532   7.545 -0.1840 -0.8476 -0.6941
 1017MOL0     H34184   0.875   5.446   7.459 -2.1222  1.3990  2.2422
 1017MOL0     H34185   0.861   5.629   7.297 -1.8375 -1.1729  0.6965
 1017MOL0     H34186   0.960   5.729   7.407  0.2857  0.4658  2.3959
 1017MOL0     H34187   0.786   5.609   7.587 -2.3218 -2.3796 -1.2271
 1017MOL0     H34188   0.770   5.772   7.523 -0.7050  1.2603 -2.3143
 1017MOL0     H34189   0.634   5.499   7.433  0.1732 -0.5631 -0.3166
 1017MOL0     H34190   0.597   5.649   7.342 -1.4218 -2.0655 -0.6600
 1017MOL0     H34191   0.535   5.720   7.609  0.3681  1.0385 -0.4809
 1017MOL0     H34192   0.559   5.555   7.627  4.5878  2.2298  0.2113
 1017MOL0     H34193   0.386   5.502   7.454 -0.3225  0.5503  0.7363
 1017MOL0     H34194   0.327   5.589   7.597  0.7700 -1.0308  1.0957
 1017MOL0     H34195   0.399   5.704   7.315  1.3119  2.0719  0.8852
 1017MOL0     H34196   0.361   5.811   7.454  0.9380  0.0438 -0.3945
 1017MOL0     H34197   0.090   5.862   7.467 -2.4230  0.4973 -0.6192
 1017MOL0     H34198  -0.185   5.819   7.441  3.3027 -0.7054  1.0840
 1017MOL0     H34199  -0.228   5.693   7.322 -0.1835  0.9553 -1.8971
 1017MOL0     H34200  -0.131   5.858   7.152  0.9648 -3.7952  1.4980
 1017MOL0     H34201  -0.139   5.976   7.286 -0.0804 -0.5707  1.5827
 1017MOL0     H34202  -0.377   5.898   7.334 -1.0076  2.2745 -0.5471
 1017MOL0     H34203  -0.332   6.004   7.200  0.9743 -0.0704 -1.0354
 1017MOL0     H34204  -0.427   5.712   7.191 -0.9794  1.4094  1.0322
 1017MOL0     H34205  -0.327   5.793   7.054 -0.8279  0.8302 -1.1382
 1017MOL0     H34206  -0.450   5.645   6.949 -0.4412 -1.9726  0.6767
 1017MOL0     H34207  -0.590   5.568   6.746  0.3321  1.1713 -2.8377
 1017MOL0     H34208  -0.728   5.771   6.454  0.6411 -0.3203 -0.3208
 1017MOL0     H34209  -0.707   5.788   6.214 -2.2840  1.3087  0.2398
 1017MOL0     H34210  -0.625   5.720   5.990  0.9764 -1.7655  0.3220
 1017MOL0     H34211  -0.797   5.784   5.994  0.5187 -0.4734  2.3157
 1017MOL0     H34212  -0.719   5.767   5.759  2.3031 -2.0551 -1.0760
 1017MOL0     H34213  -0.830   5.642   5.793  0.7172 -0.3194 -0.4455
 1017MOL0     H34214  -0.663   5.478   5.818 -2.0772  0.1848 -3.1379
 1017MOL0     H34215  -0.529   5.602   5.831  0.7718 -0.2233 -1.7630
 1017MOL0     H34216  -0.688   5.524   5.593 -0.5204  0.2605  1.3276
 1017MOL0     H34217  -0.597   5.685   5.609  3.8054  0.1507 -0.0646
 1017MOL0     H34218  -0.525   5.388   5.607 -2.5681  2.0116  0.2392
 1017MOL0     H34219  -0.419   5.497   5.686 -2.4551 -0.8083  2.3782
 1017MOL0     H34220  -0.335   5.462   5.470  0.1019  0.9309  2.4260
 1017MOL0     H34221  -0.394   5.630   5.461 -0.7382  1.0065 -0.0935
 1017MOL0     H34222  -0.616   5.527   5.363 -0.0983 -2.7215 -0.6285
 1017MOL0     H34223  -0.481   5.541   5.258 -1.6496 -1.8872 -2.3681
 1017MOL0     H34224  -0.553   5.282   5.409 -1.6413 -0.9854 -1.2990
 1017MOL0     H34225  -0.398   5.301   5.326 -0.2541 -0.1051 -1.0727
 1017MOL0     H34226  -0.832   5.386   6.162 -0.3127  0.3092 -1.0486
 1017MOL0     H34227  -0.841   5.365   6.416 -1.2237  0.6312  1.0613
 1017MOL0     H34228  -0.850   5.904   6.826 -0.9870  0.5731  3.8604
 1017MOL0     H34229  -0.703   5.987   7.004  2.4565  1.2313 -1.1343
 1017MOL0     H34230   1.274   5.425   7.217 -2.1994  0.0921  0.6360
 1017MOL0     H34231   1.473   5.304   7.139 -2.9187  1.7616 -1.8342
 1017MOL0     H34232   1.728   4.985   7.089  0.0308 -1.4684  0.4964
 1017MOL0     H34233   1.935   4.844   7.065 -3.1278 -1.4353  0.8688
 1017MOL0     H34234   2.257   5.043   7.151  1.1631  0.0351 -0.2449
 1017MOL0     H34235   2.187   4.949   7.018 -0.5040  0.2589 -0.2495
 1017MOL0     H34236   2.324   4.765   7.074 -2.2819  0.1303 -0.0317
 1017MOL0     H34237   2.406   4.908   7.005 -0.9230  2.2585  0.4446
 1017MOL0     H34238   2.417   4.852   7.300  2.9158 -1.1091  0.7080
 1017MOL0     H34239   2.489   4.986   7.232 -1.6863  0.1696  1.4717
 1017MOL0     H34240   2.571   4.706   7.214  2.1411 -0.6397 -0.6660
 1017MOL0     H34241   2.601   4.800   7.068 -2.1749  0.8543 -0.0969
 1017MOL0     H34242   2.879   4.929   7.381 -2.0035 -1.8747  2.1036
 1017MOL0     H34243   2.121   5.040   7.382 -0.9515  2.1274  1.8037
 1017MOL0     H34244   1.914   5.170   7.436  1.3801 -0.7629 -0.2067
 1018MOL0     O34245   4.909   2.652   1.631 -0.3012  0.4151  0.3086
 1018MOL0     C34246   4.965   2.728   1.558 -0.2342 -0.2243 -0.3086
 1018MOL0     O34247   5.098   2.766   1.583  0.0472 -0.0113 -0.8474
 1018MOL0     C34248   5.161   2.705   1.691  0.4197 -0.5732  0.5640
 1018MOL0     C34249   5.212   2.576   1.681  0.3406 -0.7144  0.0455
 1018MOL0     C34250   5.288   2.511   1.779 -0.3739 -0.1907 -0.3883
 1018MOL0     C34251   5.307   2.578   1.901 -0.0426  0.1834  0.3156
 1018MOL0     O34252   5.369   2.516   2.009 -0.7655  0.4721  0.5656
 1018MOL0     C34253   5.493   2.437   1.981 -0.6079  0.1207 -0.3334
 1018MOL0     C34254   5.535   2.358   2.097  0.0594 -0.1727 -0.3922
 1018MOL0     C34255   5.430   2.259   2.151  0.5415 -0.2270 -1.1309
 1018MOL0     C34256   5.435   2.236   2.308 -0.5443 -0.1630 -0.3464
 1018MOL0     C34257   5.294   2.186   2.361  0.2004 -0.6495  0.2050
 1018MOL0     C34258   5.326   2.147   2.505 -0.4531  0.8993 -0.3079
 1018MOL0     C34259   5.197   2.106   2.589 -0.1205 -0.7677  0.4205
 1018MOL0     C34260   5.244   2.018   2.700  0.3971 -0.6806  0.4007
 1018MOL0     N34261   5.129   1.987   2.776  0.3948  0.3511  0.0827
 1018MOL0     C34262   5.078   2.079   2.863  0.0205  0.1611  0.4728
 1018MOL0     C34263   4.966   2.024   2.900  0.6910 -0.0797 -1.0290
 1018MOL0     C34264   4.865   2.076   3.014  0.4948 -0.4019 -0.6795
 1018MOL0     C34265   4.783   2.188   2.952 -0.4407 -0.2744 -0.1213
 1018MOL0     C34266   4.671   2.252   3.034 -0.6010 -0.7389 -0.0751
 1018MOL0     C34267   4.579   2.143   3.089  0.2096 -0.3919 -0.3537
 1018MOL0     O34268   4.529   2.060   2.973 -0.4276 -0.6070  0.2448
 1018MOL0     C34269   4.399   2.058   2.941 -0.0145  0.6918  0.5301
 1018MOL0     C34270   4.330   2.170   2.888  0.6753  0.9735 -0.5193
 1018MOL0     C34271   4.189   2.166   2.866 -0.0942 -0.0696  0.6243
 1018MOL0     C34272   4.111   2.055   2.893  1.2806 -0.0826 -0.3376
 1018MOL0     C34273   3.959   2.055   2.879  0.7350 -1.0364 -0.2570
 1018MOL0     O34274   3.888   1.957   2.940 -1.3688 -0.0879 -0.1430
 1018MOL0     C34275   3.761   1.967   2.988  0.3433  0.0713 -0.3089
 1018MOL0     C34276   3.678   1.858   2.997  0.5240 -0.3971  0.6114
 1018MOL0     C34277   3.547   1.859   3.042 -0.5011  0.2901 -0.9228
 1018MOL0     C34278   3.488   1.979   3.089 -0.1632 -0.3591  0.7122
 1018MOL0     O34279   3.364   1.968   3.125 -0.1706 -0.0434 -0.9015
 1018MOL0     C34280   3.319   2.060   3.233 -0.7730  0.3626 -0.5846
 1018MOL0     C34281   3.391   2.032   3.369  0.4713 -0.5601  0.0214
 1018MOL0     C34282   3.305   2.025   3.498  1.3040  0.2244  0.4782
 1018MOL0     C34283   3.202   1.905   3.497 -0.4948 -0.2475  1.3608
 1018MOL0     C34284   3.149   1.865   3.636  0.4327  0.5231  0.2545
 1018MOL0     C34285   3.063   1.978   3.694  0.2937 -0.2558  0.1151
 1018MOL0     C34286   2.928   2.017   3.622  0.4411 -0.5977 -0.2725
 1018MOL0     C34287   2.869   2.137   3.693  0.8687  0.8313  0.5822
 1018MOL0    Cl34288   2.777   2.103   3.841 -0.6933  0.2269  0.2498
 1018MOL0     C34289   3.571   2.091   3.080  0.0838 -0.4483 -0.7035
 1018MOL0     C34290   3.708   2.085   3.039  0.2779  0.4604 -0.4053
 1018MOL0     O34291   3.909   2.157   2.832  0.1373  0.5110 -0.3628
 1018MOL0     C34292   4.183   1.942   2.944 -0.0030 -0.0116 -0.0589
 1018MOL0     C34293   4.322   1.941   2.967 -0.6803 -0.1592  0.5322
 1018MOL0     N34294   4.952   1.902   2.829 -0.6867 -0.3561 -0.5322
 1018MOL0     N34295   5.050   1.877   2.753  0.7702 -0.0521  0.4628
 1018MOL0     C34296   5.254   2.710   1.915  0.0881  0.1737  0.2404
 1018MOL0     C34297   5.193   2.776   1.803 -0.4432  0.6720 -0.3842
 1018MOL0     C34298   4.904   2.771   1.435  0.2248 -0.3568 -0.6146
 1018MOL0     C34299   4.780   2.729   1.398 -0.3064 -0.6006  0.0535
 1018MOL0     C34300   4.716   2.779   1.285 -0.1142  0.1698  0.5523
 1018MOL0     C34301   4.774   2.864   1.190 -1.7923 -0.1924 -0.3945
 1018MOL0     O34302   4.720   2.903   1.076  0.4322 -0.7177 -0.1515
 1018MOL0     C34303   4.586   2.873   1.043  0.0460 -0.5180 -0.0788
 1018MOL0     C34304   4.483   2.960   1.120  0.1342  0.3763 -0.5631
 1018MOL0     C34305   4.334   2.936   1.076 -0.1543  0.0114  0.2132
 1018MOL0     C34306   4.275   3.045   0.972  0.7074  0.5262  0.7438
 1018MOL0     C34307   4.129   3.022   0.953 -0.0758 -0.0743  0.6424
 1018MOL0     C34308   4.014   3.008   0.923  0.0250  0.2897 -0.1743
 1018MOL0     C34309   4.900   2.911   1.235  0.4353  0.1352 -0.8014
 1018MOL0     C34310   4.961   2.878   1.360  0.7439  0.8922  0.8158
 1018MOL0     H34311   5.193   2.519   1.590  0.0492 -1.6202  0.6537
 1018MOL0     H34312   5.325   2.410   1.763  2.4535  0.0894  2.9760
 1018MOL0     H34313   5.574   2.508   1.962 -0.3024 -0.8126 -3.0554
 1018MOL0     H34314   5.485   2.375   1.891 -2.4601  1.8078 -1.4304
 1018MOL0     H34315   5.579   2.422   2.174  0.8855 -0.7988 -0.3300
 1018MOL0     H34316   5.621   2.295   2.069 -0.9131 -1.8919  0.3686
 1018MOL0     H34317   5.432   2.161   2.102 -4.0692 -2.3660  2.1875
 1018MOL0     H34318   5.335   2.310   2.131  0.5388 -0.5798 -2.0655
 1018MOL0     H34319   5.520   2.172   2.334 -0.6798  0.6907  2.5772
 1018MOL0     H34320   5.459   2.335   2.348  1.8922 -0.0143 -1.9505
 1018MOL0     H34321   5.246   2.105   2.305 -3.2729  1.6271 -0.4159
 1018MOL0     H34322   5.215   2.262   2.363 -1.5830 -2.2365 -2.6107
 1018MOL0     H34323   5.376   2.232   2.552  0.7044  1.2072 -2.0141
 1018MOL0     H34324   5.398   2.067   2.525  0.6017  1.6676 -0.9063
 1018MOL0     H34325   5.138   2.190   2.627 -0.4062 -0.6261 -0.3218
 1018MOL0     H34326   5.122   2.054   2.529  0.2788 -1.6399  0.6678
 1018MOL0     H34327   5.320   2.067   2.761  0.2469 -1.2791  1.0724
 1018MOL0     H34328   5.287   1.929   2.653  0.7019  0.5563 -1.8237
 1018MOL0     H34329   5.127   2.173   2.884  1.5382  0.2240 -2.7491
 1018MOL0     H34330   4.923   2.098   3.105  0.2823 -1.2928 -0.3203
 1018MOL0     H34331   4.804   1.993   3.050 -0.3105  0.7431  0.6885
 1018MOL0     H34332   4.731   2.167   2.858 -0.0893  4.1404 -1.5486
 1018MOL0     H34333   4.863   2.260   2.929 -0.8232 -0.2620 -1.5346
 1018MOL0     H34334   4.704   2.314   3.118 -0.4602 -0.8377 -0.0568
 1018MOL0     H34335   4.617   2.315   2.962  1.4926  0.5485 -0.6101
 1018MOL0     H34336   4.501   2.200   3.140 -0.0151 -0.6417 -0.4128
 1018MOL0     H34337   4.625   2.085   3.170 -0.2666  2.3409  2.0364
 1018MOL0     H34338   4.384   2.259   2.856  2.6112 -0.6748 -2.1273
 1018MOL0     H34339   4.137   2.255   2.832  0.9952 -0.7945 -3.4208
 1018MOL0     H34340   3.720   1.764   2.962 -0.9986 -0.0125 -2.6144
 1018MOL0     H34341   3.487   1.768   3.039  0.5313 -0.4130 -3.9618
 1018MOL0     H34342   3.212   2.060   3.254 -0.1594  1.7614  3.2259
 1018MOL0     H34343   3.345   2.157   3.188 -3.0076  0.7489 -1.1900
 1018MOL0     H34344   3.480   2.095   3.379  0.4721 -0.8097  1.9046
 1018MOL0     H34345   3.423   1.928   3.359  0.4628 -0.5249 -0.3899
 1018MOL0     H34346   3.249   2.116   3.522 -1.0036 -0.4858 -1.7648
 1018MOL0     H34347   3.373   2.017   3.583  0.8684  0.2983  0.8349
 1018MOL0     H34348   3.121   1.931   3.428 -0.2104  1.3262  1.5866
 1018MOL0     H34349   3.246   1.818   3.448  3.0211  2.9688 -1.8026
 1018MOL0     H34350   3.232   1.852   3.706 -0.3870 -1.6931  0.9355
 1018MOL0     H34351   3.097   1.768   3.635  2.6806 -0.8992  3.4816
 1018MOL0     H34352   3.133   2.060   3.709 -0.1613  0.9473 -3.4242
 1018MOL0     H34353   3.030   1.946   3.794  1.5081 -0.3873  0.4832
 1018MOL0     H34354   2.947   2.038   3.516  1.5755 -0.9826 -0.1630
 1018MOL0     H34355   2.848   1.943   3.617 -0.0292 -0.1311  0.1675
 1018MOL0     H34356   2.800   2.185   3.623 -0.6018  0.6866  1.8732
 1018MOL0     H34357   2.952   2.205   3.714  0.9724  0.8348  0.1619
 1018MOL0     H34358   3.537   2.192   3.106  0.5344 -0.1273 -1.3446
 1018MOL0     H34359   3.765   2.177   3.051 -0.2095  0.6350  0.6512
 1018MOL0     H34360   4.130   1.855   2.981  1.3401  0.3800  3.2081
 1018MOL0     H34361   4.375   1.852   3.000  0.8505  0.2397 -0.7098
 1018MOL0     H34362   5.272   2.758   2.011 -0.6634 -0.6027  0.7851
 1018MOL0     H34363   5.144   2.871   1.826  0.8296  0.6231  3.1349
 1018MOL0     H34364   4.734   2.645   1.449  0.0542  0.4113  2.1453
 1018MOL0     H34365   4.622   2.731   1.258 -0.1669  0.4993  0.1440
 1018MOL0     H34366   4.556   2.768   1.055 -0.1953 -0.5799 -1.1129
 1018MOL0     H34367   4.561   2.899   0.940  0.7765 -0.6366 -0.2939
 1018MOL0     H34368   4.488   2.962   1.229  0.8999  3.3186 -0.5553
 1018MOL0     H34369   4.504   3.058   1.076  0.3579  0.4136 -0.3733
 1018MOL0     H34370   4.268   2.938   1.163 -0.3386  1.1458  0.0739
 1018MOL0     H34371   4.332   2.841   1.022 -2.7108  1.1658 -1.9845
 1018MOL0     H34372   4.292   3.145   1.014 -0.2156  0.1481  2.0868
 1018MOL0     H34373   4.325   3.034   0.876 -1.7449 -1.7666 -0.3950
 1018MOL0     H34374   3.911   3.001   0.894  0.6472 -1.3447 -2.2485
 1018MOL0     H34375   4.942   2.985   1.169  3.2089  0.7817  1.4809
 1018MOL0     H34376   5.054   2.928   1.383  0.6267  0.7288  1.7032
 1019MOL0     O34377   9.454   9.309   9.889  0.2718  0.3983 -0.1620
 1019MOL0     C34378   9.506   9.398   9.956 -0.1591 -0.4769 -0.1310
 1019MOL0     O34379   9.442   9.485  10.040 -0.6655 -0.2913  0.1776
 1019MOL0     C34380   9.314   9.451  10.069  0.0810 -0.5922  0.4892
 1019MOL0     C34381   9.275   9.349  10.153 -0.7676 -0.4916 -0.0587
 1019MOL0     C34382   9.144   9.308  10.164  1.2844 -1.1201  0.4182
 1019MOL0     C34383   9.040   9.387  10.107  0.7326  0.6503  0.1017
 1019MOL0     O34384   8.907   9.351  10.128 -0.7730  0.0931  0.4707
 1019MOL0     C34385   8.865   9.284  10.246  0.5525 -0.0489  1.2896
 1019MOL0     C34386   8.711   9.258  10.227 -0.2007  0.3849 -0.0686
 1019MOL0     C34387   8.652   9.210  10.357  0.2440  0.6235  0.5843
 1019MOL0     C34388   8.717   9.073  10.409 -0.1840 -0.6348 -0.2326
 1019MOL0     C34389   8.615   9.004  10.489  0.3763 -0.0325 -0.1916
 1019MOL0     C34390   8.673   8.866  10.536 -0.8972  0.1147  0.0753
 1019MOL0     C34391   8.665   8.750  10.433  0.1899 -0.7663  0.4357
 1019MOL0     C34392   8.608   8.623  10.485  0.4285  0.9670  0.2794
 1019MOL0     N34393   8.468   8.643  10.533 -0.0048  0.5239  0.3738
 1019MOL0     C34394   8.348   8.643  10.467  0.6675  0.2559  0.5851
 1019MOL0     C34395   8.248   8.645  10.561 -0.8897 -0.8070 -0.1447
 1019MOL0     C34396   8.103   8.652  10.525  1.2972 -0.0336 -0.6031
 1019MOL0     C34397   8.039   8.517  10.495  0.2276 -0.5465 -0.3047
 1019MOL0     C34398   7.895   8.552  10.442 -0.2761  0.4850  0.3346
 1019MOL0     C34399   7.823   8.420  10.442 -0.2295 -0.3925  0.0856
 1019MOL0     O34400   7.685   8.471  10.441 -0.1877 -0.1215 -0.0564
 1019MOL0     C34401   7.588   8.372  10.439  0.7644  0.3824  0.8741
 1019MOL0     C34402   7.453   8.421  10.412  0.5046 -0.3309 -0.2096
 1019MOL0     C34403   7.344   8.339  10.405  1.1499  0.8186 -0.1401
 1019MOL0     C34404   7.356   8.197  10.408 -0.3897 -1.0935 -0.3427
 1019MOL0     C34405   7.231   8.108  10.402 -0.0964 -0.9677 -0.3569
 1019MOL0     O34406   7.246   7.980  10.436  0.5253  0.2622  0.0303
 1019MOL0     C34407   7.137   7.900  10.466  0.6676  0.3721  0.7920
 1019MOL0     C34408   7.156   7.832  10.583  1.0184 -1.1140 -0.4630
 1019MOL0     C34409   7.058   7.748  10.623  0.3468  0.5377  0.0907
 1019MOL0     C34410   6.948   7.711  10.545 -0.5769 -0.1743  0.0083
 1019MOL0     O34411   6.864   7.621  10.602  0.4657 -0.2574 -0.3711
 1019MOL0     C34412   6.762   7.570  10.518 -0.0439  0.1214 -0.2637
 1019MOL0     C34413   6.690   7.458  10.589 -0.7075 -0.5822  0.1104
 1019MOL0     C34414   6.590   7.509  10.693 -0.3083  0.5346 -0.3184
 1019MOL0     C34415   6.454   7.533  10.618  0.4636  0.1416  0.9087
 1019MOL0     C34416   6.346   7.586  10.711 -0.4366 -0.6738  0.6358
 1019MOL0     C34417   6.230   7.656  10.631  0.1204 -0.2017  0.8460
 1019MOL0     C34418   6.116   7.696  10.728  0.1648  0.9811  0.3779
 1019MOL0     C34419   5.975   7.720  10.671 -0.2660  0.9238  0.1748
 1019MOL0    Cl34420   5.915   7.566  10.608  0.0576 -0.1145 -0.4358
 1019MOL0     C34421   6.939   7.778  10.423 -0.4644 -0.8309  0.1777
 1019MOL0     C34422   7.036   7.875  10.383  1.2979 -0.2246 -0.2132
 1019MOL0     O34423   7.126   8.165  10.386 -0.5305 -0.2962  0.3364
 1019MOL0     C34424   7.485   8.146  10.431  0.4886  1.7470 -0.4030
 1019MOL0     C34425   7.597   8.229  10.437 -0.0528 -1.1475  0.2569
 1019MOL0     N34426   8.305   8.632  10.686  0.1937 -0.1629  0.4149
 1019MOL0     N34427   8.433   8.639  10.666  0.3901  0.1972 -1.2196
 1019MOL0     C34428   9.077   9.494  10.023 -0.0807 -0.1584  0.2541
 1019MOL0     C34429   9.215   9.522  10.004 -0.4422 -0.2551  0.3872
 1019MOL0     C34430   9.651   9.411   9.951  0.7054 -0.2340 -1.4692
 1019MOL0     C34431   9.729   9.359   9.850 -0.9791  0.0122 -0.3289
 1019MOL0     C34432   9.861   9.390   9.845  1.0427 -0.0411  0.3125
 1019MOL0     C34433   9.927   9.468   9.942  1.0718 -0.1473 -0.0566
 1019MOL0     O34434  10.067   9.484   9.920  0.3919  0.3009  0.4460
 1019MOL0     C34435  10.136   9.581   9.998  0.1810 -0.8694  0.0456
 1019MOL0     C34436  10.259   9.623   9.915 -0.1313 -0.3216  0.1486
 1019MOL0     C34437  10.343   9.495   9.879 -0.3963 -0.3827  0.2936
 1019MOL0     C34438  10.474   9.521   9.802 -0.1643  0.3775 -0.0165
 1019MOL0     C34439  10.523   9.394   9.743 -0.7307  0.5893  0.2950
 1019MOL0     C34440  10.567   9.293   9.696  0.2744  0.3959 -0.5772
 1019MOL0     C34441   9.848   9.517  10.043  0.0821 -0.7717 -0.1133
 1019MOL0     C34442   9.710   9.490  10.055  0.6075  0.5824 -0.0173
 1019MOL0     H34443   9.354   9.300  10.209 -2.1261 -3.4911 -0.5403
 1019MOL0     H34444   9.130   9.222  10.229 -3.3031 -1.1831 -0.3384
 1019MOL0     H34445   8.889   9.349  10.331  2.4871  0.6639  0.2626
 1019MOL0     H34446   8.923   9.192  10.260  0.8319 -0.1540 -0.3086
 1019MOL0     H34447   8.701   9.184  10.147 -0.7617  1.7836 -1.3560
 1019MOL0     H34448   8.658   9.349  10.195 -2.5921 -0.4580  1.2540
 1019MOL0     H34449   8.546   9.191  10.335  0.8530 -1.6696 -0.7181
 1019MOL0     H34450   8.651   9.288  10.433 -2.7174  0.4576  0.8567
 1019MOL0     H34451   8.733   9.003  10.325  3.0404  0.6490 -0.8065
 1019MOL0     H34452   8.807   9.101  10.463  0.5583 -0.3237 -1.5847
 1019MOL0     H34453   8.525   8.992  10.429  1.7155 -0.4042 -2.2113
 1019MOL0     H34454   8.585   9.061  10.578  1.6413 -1.4434  1.2223
 1019MOL0     H34455   8.615   8.856  10.628 -1.0915  0.4886 -0.0031
 1019MOL0     H34456   8.777   8.876  10.566 -1.0078 -1.0457  0.9030
 1019MOL0     H34457   8.613   8.780  10.342 -0.0316  2.0964  1.4137
 1019MOL0     H34458   8.767   8.722  10.405  0.5379  1.9289 -1.3700
 1019MOL0     H34459   8.670   8.598  10.571  0.7612  2.3667  0.4705
 1019MOL0     H34460   8.600   8.543  10.411 -2.5150  3.2039 -2.1110
 1019MOL0     H34461   8.331   8.633  10.361  0.6747 -0.6665  0.6631
 1019MOL0     H34462   8.091   8.716  10.438 -0.3535  1.6607  0.7674
 1019MOL0     H34463   8.057   8.704  10.611  4.2980  0.8825  0.5591
 1019MOL0     H34464   8.041   8.460  10.588  0.3989  3.1561  2.1672
 1019MOL0     H34465   8.103   8.460  10.427  1.6589  0.3133  0.2867
 1019MOL0     H34466   7.844   8.630  10.500 -0.2235 -1.5847  3.3833
 1019MOL0     H34467   7.891   8.580  10.336  0.2643 -1.3197 -0.1928
 1019MOL0     H34468   7.837   8.357  10.530  1.8885 -2.5634 -1.6665
 1019MOL0     H34469   7.854   8.360  10.356  0.0971 -0.1977  0.0639
 1019MOL0     H34470   7.441   8.528  10.405 -0.2660 -0.4883 -1.8365
 1019MOL0     H34471   7.249   8.391  10.404  0.6690  0.0788  2.1310
 1019MOL0     H34472   7.252   7.828  10.632  0.8161 -3.7837 -0.1301
 1019MOL0     H34473   7.071   7.687  10.712  0.9000 -0.7035 -0.8094
 1019MOL0     H34474   6.800   7.525  10.426  0.5849 -0.0136  0.0611
 1019MOL0     H34475   6.690   7.648  10.492 -0.6091 -1.1795 -3.0197
 1019MOL0     H34476   6.768   7.384  10.610  2.0438  1.3686 -2.3286
 1019MOL0     H34477   6.632   7.405  10.512 -1.8578 -1.3285  1.4501
 1019MOL0     H34478   6.622   7.602  10.740  3.6649  0.0996 -1.7969
 1019MOL0     H34479   6.584   7.421  10.758  2.8109  3.4199  4.5224
 1019MOL0     H34480   6.473   7.604  10.536  1.0132 -1.1055 -0.0762
 1019MOL0     H34481   6.413   7.442  10.575 -0.4774  2.0864 -2.7250
 1019MOL0     H34482   6.393   7.653  10.784 -0.8648 -2.0870  2.2970
 1019MOL0     H34483   6.304   7.502  10.768 -3.6240  0.0666 -0.4071
 1019MOL0     H34484   6.189   7.589  10.554 -0.0264 -0.2767  0.9888
 1019MOL0     H34485   6.267   7.738  10.569 -1.1672  0.5262  1.0224
 1019MOL0     H34486   6.105   7.622  10.808 -0.1819  0.5703 -0.0484
 1019MOL0     H34487   6.144   7.793  10.769 -0.2253  0.6925  1.3679
 1019MOL0     H34488   5.979   7.791  10.587  1.7238  0.0988 -0.4790
 1019MOL0     H34489   5.905   7.771  10.737  2.3750  3.1287  1.4562
 1019MOL0     H34490   6.852   7.761  10.359 -1.6945  0.2875  1.4723
 1019MOL0     H34491   7.035   7.955  10.310  0.6770 -0.8902 -0.9503
 1019MOL0     H34492   7.487   8.037  10.428 -2.1276  1.6433 -0.9679
 1019MOL0     H34493   7.700   8.195  10.434  1.2281  2.3208 -2.7306
 1019MOL0     H34494   9.006   9.554   9.967 -0.5199 -1.0458 -0.1666
 1019MOL0     H34495   9.250   9.598   9.935  1.2148 -0.9407  0.4133
 1019MOL0     H34496   9.675   9.304   9.774  0.7038 -0.0234 -1.5345
 1019MOL0     H34497   9.904   9.347   9.755 -1.1395 -1.2655 -0.2124
 1019MOL0     H34498  10.172   9.547  10.095  2.0218  1.6006  0.3381
 1019MOL0     H34499  10.081   9.675  10.011  0.3817 -0.8762  0.9700
 1019MOL0     H34500  10.233   9.673   9.821  1.0470 -0.2517 -0.1532
 1019MOL0     H34501  10.320   9.685   9.981 -1.2841 -0.0950  1.0203
 1019MOL0     H34502  10.290   9.425   9.813  1.3554 -1.7005  0.2229
 1019MOL0     H34503  10.372   9.446   9.972  0.3873 -1.0133 -0.2727
 1019MOL0     H34504  10.461   9.589   9.717 -1.2175 -1.1185 -1.1015
 1019MOL0     H34505  10.547   9.563   9.872 -0.3143 -0.8555  0.9140
 1019MOL0     H34506  10.599   9.204   9.645 -3.0845 -1.0982 -0.3096
 1019MOL0     H34507   9.901   9.574  10.119 -0.2271 -0.0952 -0.4026
 1019MOL0     H34508   9.652   9.518  10.142  1.7479  1.5181  0.4713
 1020MOL0     O34509   7.916   2.079   8.946  0.3656  0.3904 -0.1365
 1020MOL0     C34510   7.964   2.154   9.028  0.0033 -0.4433 -0.3030
 1020MOL0     O34511   7.906   2.238   9.116  1.1941 -0.1350  0.0628
 1020MOL0     C34512   7.769   2.281   9.109 -0.8243 -0.9126  1.0370
 1020MOL0     C34513   7.738   2.412   9.159  0.3634  0.4734 -0.4690
 1020MOL0     C34514   7.608   2.454   9.166 -0.1326  0.0195 -0.4762
 1020MOL0     C34515   7.504   2.380   9.109  0.4662 -0.4115 -0.4271
 1020MOL0     O34516   7.384   2.433   9.129 -0.4366 -0.2402 -0.7704
 1020MOL0     C34517   7.272   2.355   9.091 -0.1650 -0.1236 -0.4656
 1020MOL0     C34518   7.153   2.434   9.142  0.0359  0.3890 -0.4349
 1020MOL0     C34519   7.021   2.356   9.113 -0.2057  0.9880 -0.5401
 1020MOL0     C34520   6.900   2.438   9.158 -0.2052 -0.1096 -0.0148
 1020MOL0     C34521   6.767   2.382   9.092 -0.2611  0.0011 -0.1738
 1020MOL0     C34522   6.658   2.493   9.085 -0.3335  1.0375 -0.6888
 1020MOL0     C34523   6.515   2.442   9.063 -0.0148 -0.1071 -0.6109
 1020MOL0     C34524   6.497   2.351   8.940 -0.4335  0.0429  0.2164
 1020MOL0     N34525   6.363   2.296   8.951  0.2787  0.7634  0.0765
 1020MOL0     C34526   6.297   2.221   9.050  0.6207  0.2593  0.1021
 1020MOL0     C34527   6.166   2.220   9.004  0.1479  0.1896 -0.2704
 1020MOL0     C34528   6.053   2.153   9.068 -0.4653 -0.3452  0.3365
 1020MOL0     C34529   5.918   2.222   9.048 -0.0305 -0.8148  0.6948
 1020MOL0     C34530   5.804   2.152   9.123 -0.2103 -0.3886  0.2716
 1020MOL0     C34531   5.668   2.203   9.091  1.2633 -0.2377  1.0478
 1020MOL0     O34532   5.571   2.127   9.158  0.3656 -0.1556 -0.2284
 1020MOL0     C34533   5.438   2.160   9.141 -0.2017  0.2926 -0.3820
 1020MOL0     C34534   5.342   2.058   9.161 -0.8480 -0.1774 -0.2608
 1020MOL0     C34535   5.210   2.084   9.138 -0.3070  1.0394  0.2265
 1020MOL0     C34536   5.166   2.209   9.100  1.2635  0.1541  0.2386
 1020MOL0     C34537   5.018   2.223   9.079  0.5297 -0.6761 -0.1433
 1020MOL0     O34538   4.932   2.136   9.142 -0.0478  0.5322 -0.7614
 1020MOL0     C34539   4.800   2.126   9.115  0.2098  0.6074 -0.3054
 1020MOL0     C34540   4.705   2.233   9.106 -0.6622 -0.3448 -0.5793
 1020MOL0     C34541   4.567   2.215   9.085  0.4973 -0.0525 -0.0876
 1020MOL0     C34542   4.523   2.085   9.076 -0.3557 -0.1047  0.7854
 1020MOL0     O34543   4.394   2.054   9.041 -0.4198 -0.0950 -0.5038
 1020MOL0     C34544   4.287   2.105   9.128 -1.3448 -0.9662 -0.1342
 1020MOL0     C34545   4.156   2.042   9.083 -0.6371  0.0573  0.9115
 1020MOL0     C34546   4.030   2.104   9.143 -0.0512  0.3747  0.1056
 1020MOL0     C34547   3.906   2.016   9.096 -0.4547 -0.5575 -0.5785
 1020MOL0     C34548   3.758   2.048   9.140 -0.2481 -0.0275 -0.0968
 1020MOL0     C34549   3.668   1.942   9.091  0.3061 -0.5752  0.4839
 1020MOL0     C34550   3.515   1.965   9.125 -0.9064 -0.4412  0.0414
 1020MOL0     C34551   3.502   1.965   9.275  0.4789 -0.3625  0.1177
 1020MOL0    Cl34552   3.324   1.977   9.312 -0.0405 -0.2083 -0.2503
 1020MOL0     C34553   4.610   1.977   9.100  0.0411 -0.1995 -0.0796
 1020MOL0     C34554   4.747   1.995   9.120  0.2461 -0.3010 -0.7149
 1020MOL0     O34555   4.979   2.312   9.001 -0.2240  0.3312 -0.1390
 1020MOL0     C34556   5.256   2.311   9.081 -0.0371  0.2320 -0.0456
 1020MOL0     C34557   5.395   2.288   9.096 -0.4562  0.0596  0.3306
 1020MOL0     N34558   6.155   2.270   8.871 -0.5557  0.3170 -0.6891
 1020MOL0     N34559   6.277   2.315   8.849  0.3159 -0.2527  0.2138
 1020MOL0     C34560   7.531   2.250   9.057 -0.0653  0.0181  0.5498
 1020MOL0     C34561   7.667   2.209   9.058  0.5660  0.2419 -0.4883
 1020MOL0     C34562   8.111   2.135   9.064  0.7930 -0.3787  0.5182
 1020MOL0     C34563   8.164   2.223   9.154 -0.3421  1.0147  0.1388
 1020MOL0     C34564   8.299   2.220   9.180  0.7749 -0.4580  0.8172
 1020MOL0     C34565   8.381   2.144   9.110 -1.2634  0.0309  0.5013
 1020MOL0     O34566   8.511   2.163   9.129  0.3479  0.3431  0.0293
 1020MOL0     C34567   8.600   2.073   9.087 -0.4057 -0.4939 -0.5919
 1020MOL0     C34568   8.744   2.124   9.107 -0.4349  0.0898  0.5116
 1020MOL0     C34569   8.849   2.013   9.122 -0.2653 -0.8225 -0.2267
 1020MOL0     C34570   8.987   2.079   9.106 -0.1153 -0.5876 -0.3997
 1020MOL0     C34571   9.027   2.183   9.207 -0.9390  0.3551  0.4831
 1020MOL0     C34572   9.065   2.264   9.284  0.4338  0.8157  0.0133
 1020MOL0     C34573   8.329   2.058   9.012  0.1638  0.5082 -0.5845
 1020MOL0     C34574   8.193   2.050   8.990  0.7054  0.3945 -0.2852
 1020MOL0     H34575   7.814   2.469   9.210 -0.3313  0.3399  0.7536
 1020MOL0     H34576   7.580   2.551   9.206  1.5887 -0.5353  2.3772
 1020MOL0     H34577   7.270   2.253   9.130  0.9401 -0.9340 -2.4094
 1020MOL0     H34578   7.252   2.349   8.984 -1.7029 -0.4248 -0.1956
 1020MOL0     H34579   7.157   2.524   9.080  3.0746 -0.5038 -1.7620
 1020MOL0     H34580   7.166   2.465   9.246 -0.0223  1.1669 -0.6532
 1020MOL0     H34581   7.033   2.264   9.170 -0.3507  0.8949 -0.6632
 1020MOL0     H34582   7.009   2.327   9.008  1.2961  1.3242 -0.8293
 1020MOL0     H34583   6.888   2.426   9.266 -2.2563 -0.6501 -0.2533
 1020MOL0     H34584   6.902   2.543   9.128  0.7616 -1.0162 -3.6639
 1020MOL0     H34585   6.737   2.296   9.153 -1.1518  1.0577  0.9332
 1020MOL0     H34586   6.791   2.352   8.989 -0.4820  1.5800 -0.7189
 1020MOL0     H34587   6.683   2.561   9.003  1.1274  0.4718 -0.7564
 1020MOL0     H34588   6.669   2.553   9.175  2.5529 -1.7731  1.0418
 1020MOL0     H34589   6.490   2.377   9.147  0.8289  0.8611  0.4364
 1020MOL0     H34590   6.460   2.535   9.044  1.8482  0.7318 -2.2298
 1020MOL0     H34591   6.578   2.277   8.945 -0.0160  0.5677  2.0648
 1020MOL0     H34592   6.514   2.403   8.846  2.3120 -1.5640 -0.2898
 1020MOL0     H34593   6.327   2.200   9.152 -0.6976  0.5497  0.5695
 1020MOL0     H34594   6.069   2.135   9.175  0.1170  0.9291  0.4840
 1020MOL0     H34595   6.035   2.052   9.030 -1.8720  0.4320 -1.1309
 1020MOL0     H34596   5.897   2.239   8.942 -0.2810  3.2865  1.2457
 1020MOL0     H34597   5.932   2.326   9.077  0.4155  0.0242 -2.2307
 1020MOL0     H34598   5.801   2.048   9.090 -1.0817 -0.4670  0.5903
 1020MOL0     H34599   5.820   2.166   9.231 -0.7858 -0.5304  0.3766
 1020MOL0     H34600   5.656   2.201   8.982  2.7459  0.8203  0.8280
 1020MOL0     H34601   5.661   2.308   9.120 -4.3653 -0.3081  1.0569
 1020MOL0     H34602   5.368   1.965   9.211  0.0160 -0.4721 -1.2238
 1020MOL0     H34603   5.134   2.009   9.157  0.8477 -0.3192 -0.3421
 1020MOL0     H34604   4.751   2.331   9.103  0.2741 -0.7838 -1.2155
 1020MOL0     H34605   4.506   2.304   9.076  2.7550  1.4653 -1.4446
 1020MOL0     H34606   4.277   2.214   9.115 -0.7546 -0.6548  1.7878
 1020MOL0     H34607   4.308   2.083   9.233 -0.0246 -0.2089 -0.2165
 1020MOL0     H34608   4.151   1.933   9.086 -2.6942 -0.1361 -2.7485
 1020MOL0     H34609   4.148   2.050   8.974  1.0962 -3.0108  0.4438
 1020MOL0     H34610   4.027   2.208   9.109 -1.1540 -0.3766 -2.3325
 1020MOL0     H34611   4.036   2.099   9.252 -0.1687  0.0452  0.0994
 1020MOL0     H34612   3.904   2.025   8.987 -0.9588  0.0227 -0.5269
 1020MOL0     H34613   3.930   1.914   9.128  0.4316 -0.7574 -1.8231
 1020MOL0     H34614   3.731   2.150   9.111 -1.3471  0.3101  1.8830
 1020MOL0     H34615   3.754   2.064   9.248  1.3881 -2.5428  0.4215
 1020MOL0     H34616   3.698   1.838   9.105  1.2905 -0.7455 -2.2045
 1020MOL0     H34617   3.660   1.962   8.983 -3.7899 -1.4093  0.4664
 1020MOL0     H34618   3.473   2.054   9.080  2.4375  0.5440 -1.4336
 1020MOL0     H34619   3.461   1.881   9.081 -0.2904 -1.3009  0.8679
 1020MOL0     H34620   3.566   2.045   9.315  0.7575 -1.5467  2.1683
 1020MOL0     H34621   3.532   1.868   9.315  2.2522  0.7326  1.6392
 1020MOL0     H34622   4.573   1.879   9.071  1.2270 -0.2410 -1.6073
 1020MOL0     H34623   4.829   1.925   9.129 -0.8426 -1.8722 -2.3496
 1020MOL0     H34624   5.215   2.407   9.051 -0.4159 -0.0088 -0.3185
 1020MOL0     H34625   5.473   2.360   9.074 -0.9420  0.3428 -0.5032
 1020MOL0     H34626   7.453   2.184   9.021 -2.1381  3.0542 -0.9887
 1020MOL0     H34627   7.689   2.111   9.018 -1.3576 -0.0483 -0.9198
 1020MOL0     H34628   8.107   2.297   9.210 -0.8027  0.2755  0.6516
 1020MOL0     H34629   8.336   2.282   9.261 -0.5564 -0.8225  1.7493
 1020MOL0     H34630   8.582   2.050   8.982  2.0888  1.1819 -1.4799
 1020MOL0     H34631   8.595   1.972   9.129  0.5880 -1.6977 -3.1539
 1020MOL0     H34632   8.765   2.189   9.022 -0.1139 -0.1256  0.4222
 1020MOL0     H34633   8.739   2.193   9.192  1.8564  0.4539  0.4253
 1020MOL0     H34634   8.845   1.935   9.045  5.0578 -2.6347  0.9157
 1020MOL0     H34635   8.836   1.973   9.223 -0.5945  1.2945  0.6093
 1020MOL0     H34636   9.064   2.001   9.110  1.0720  0.5329 -0.8886
 1020MOL0     H34637   9.008   2.123   9.008  1.8172  0.2511  0.3396
 1020MOL0     H34638   9.100   2.346   9.344  2.0174  3.2502 -3.8416
 1020MOL0     H34639   8.388   2.003   8.939 -0.3256  1.3477 -1.6328
 1020MOL0     H34640   8.142   1.989   8.917 -0.6376  0.4394  0.5757
 1021MOL0     O34641   5.517   2.522  11.148 -0.6844 -0.2385  0.1415
 1021MOL0     C34642   5.538   2.538  11.269 -0.7908  1.1788 -0.0335
 1021MOL0     O34643   5.447   2.549  11.373 -0.1198 -0.1099 -0.7998
 1021MOL0     C34644   5.322   2.495  11.379  0.1818  0.3785  0.2931
 1021MOL0     C34645   5.254   2.506  11.499  0.1351  0.1776 -0.5435
 1021MOL0     C34646   5.114   2.457  11.512 -0.4672 -0.9394 -0.7063
 1021MOL0     C34647   5.058   2.394  11.402  0.5218  0.2020 -0.4637
 1021MOL0     O34648   4.926   2.336  11.413  1.1218  0.1090  0.5107
 1021MOL0     C34649   4.827   2.428  11.355 -0.5000  0.2501  0.3312
 1021MOL0     C34650   4.697   2.350  11.359  0.2525 -0.4695  0.4546
 1021MOL0     C34651   4.591   2.431  11.289  0.7321  0.4201 -0.6187
 1021MOL0     C34652   4.571   2.424  11.142  0.4816 -0.4674 -0.2264
 1021MOL0     C34653   4.452   2.513  11.090  0.0939  0.3705 -0.4713
 1021MOL0     C34654   4.437   2.507  10.935  0.2791 -0.6102  0.3653
 1021MOL0     C34655   4.344   2.610  10.871 -0.0770  0.1604 -0.1735
 1021MOL0     C34656   4.339   2.618  10.722 -0.4259  0.5496  0.1671
 1021MOL0     N34657   4.252   2.518  10.667  0.2451  0.3527  0.3113
 1021MOL0     C34658   4.276   2.420  10.578 -0.2999 -0.6506 -1.0015
 1021MOL0     C34659   4.160   2.357  10.562 -0.1255  0.4180 -0.1490
 1021MOL0     C34660   4.142   2.226  10.491  0.1390 -0.5169 -0.1685
 1021MOL0     C34661   4.027   2.133  10.550 -0.3177  0.4360 -0.5972
 1021MOL0     C34662   3.892   2.186  10.494  0.1865  0.9756 -0.9170
 1021MOL0     C34663   3.778   2.100  10.559  0.0404 -0.3863 -0.0318
 1021MOL0     O34664   3.664   2.066  10.472 -0.5175  0.1745  0.0013
 1021MOL0     C34665   3.557   2.013  10.539  0.0252  0.4722  0.7410
 1021MOL0     C34666   3.441   1.992  10.463  0.4816  0.8929  0.0097
 1021MOL0     C34667   3.330   1.936  10.526  0.8498 -0.0822 -0.0138
 1021MOL0     C34668   3.320   1.915  10.668  0.0977 -0.3162  0.4242
 1021MOL0     C34669   3.196   1.892  10.732  0.1151  0.5908 -0.3296
 1021MOL0     O34670   3.086   1.866  10.652 -0.2838 -0.1461  0.8205
 1021MOL0     C34671   2.976   1.822  10.716 -0.7435 -0.3377  0.2021
 1021MOL0     C34672   2.932   1.696  10.681 -0.2943  0.0191 -0.3800
 1021MOL0     C34673   2.820   1.652  10.750  0.7247 -0.3169 -0.0897
 1021MOL0     C34674   2.763   1.715  10.860  0.1854 -0.9872  0.6159
 1021MOL0     O34675   2.666   1.651  10.930  0.9116 -0.7580  0.1826
 1021MOL0     C34676   2.631   1.707  11.052 -0.3187  0.2328 -0.1251
 1021MOL0     C34677   2.510   1.622  11.096 -0.7119 -1.4734  0.3632
 1021MOL0     C34678   2.425   1.691  11.201  0.0636 -0.2779 -0.6538
 1021MOL0     C34679   2.310   1.592  11.253  0.2725  0.0068 -0.2436
 1021MOL0     C34680   2.216   1.661  11.352 -0.1059  0.2717 -0.0328
 1021MOL0     C34681   2.120   1.554  11.403  0.1199  0.1435 -0.2129
 1021MOL0     C34682   2.189   1.459  11.501  0.4568 -0.5745 -0.4897
 1021MOL0     C34683   2.084   1.394  11.596 -0.2652  0.1170 -0.2622
 1021MOL0    Cl34684   2.159   1.299  11.715 -0.0392  0.1337  0.1555
 1021MOL0     C34685   2.812   1.845  10.883  0.5138 -0.2960 -0.8942
 1021MOL0     C34686   2.919   1.900  10.815 -0.2724 -0.3914  0.4854
 1021MOL0     O34687   3.205   1.868  10.856  0.6521 -0.6013 -0.0473
 1021MOL0     C34688   3.444   1.931  10.736  0.1827  0.7359 -0.3255
 1021MOL0     C34689   3.558   1.980  10.676  0.1139  0.5321 -1.2329
 1021MOL0     N34690   4.063   2.427  10.636  0.2917 -0.1114 -0.1778
 1021MOL0     N34691   4.117   2.524  10.699 -0.2408 -0.1112  1.1246
 1021MOL0     C34692   5.125   2.380  11.280  0.0260 -0.0298 -0.4317
 1021MOL0     C34693   5.258   2.424  11.274 -0.4858  0.0266 -0.1751
 1021MOL0     C34694   5.680   2.554  11.309  0.1362 -0.8067 -0.7126
 1021MOL0     C34695   5.786   2.518  11.230 -0.3133  0.1115  0.3336
 1021MOL0     C34696   5.911   2.533  11.267 -0.9258 -0.5543 -0.3394
 1021MOL0     C34697   5.957   2.582  11.392  0.5660  0.0378 -0.1885
 1021MOL0     O34698   6.093   2.585  11.412 -1.0431 -0.8682 -0.3774
 1021MOL0     C34699   6.145   2.634  11.528 -0.2378 -0.0107 -0.1537
 1021MOL0     C34700   6.298   2.611  11.531  0.0356 -0.1683  0.7497
 1021MOL0     C34701   6.336   2.476  11.577  0.0378  0.6357 -0.3181
 1021MOL0     C34702   6.488   2.455  11.564  0.5290  0.6596 -0.2436
 1021MOL0     C34703   6.527   2.420  11.427  0.5470  0.1740  0.2732
 1021MOL0     C34704   6.570   2.399  11.314  0.0624  0.5224 -0.4612
 1021MOL0     C34705   5.857   2.635  11.470 -0.2007  0.0178 -0.4245
 1021MOL0     C34706   5.722   2.610  11.426  0.2647 -0.1955 -0.9200
 1021MOL0     H34707   5.300   2.570  11.574  0.1225 -0.0231 -0.3647
 1021MOL0     H34708   5.056   2.468  11.603  0.6284  2.0560 -0.2612
 1021MOL0     H34709   4.846   2.455  11.251 -0.1986  0.0308  0.3256
 1021MOL0     H34710   4.809   2.523  11.407 -1.2059 -0.5832  1.6487
 1021MOL0     H34711   4.680   2.354  11.467  2.9294  2.8416  0.9158
 1021MOL0     H34712   4.711   2.248  11.321 -1.6760 -1.1958  1.4986
 1021MOL0     H34713   4.598   2.539  11.307 -2.9108  0.7333 -0.3151
 1021MOL0     H34714   4.497   2.398  11.335  0.7120 -1.4724 -1.8720
 1021MOL0     H34715   4.665   2.461  11.099  1.9578 -1.9188  1.5459
 1021MOL0     H34716   4.560   2.321  11.106  2.5482 -0.2812 -1.5865
 1021MOL0     H34717   4.465   2.618  11.116  0.2357 -0.1996  2.0591
 1021MOL0     H34718   4.361   2.483  11.143  1.5254 -1.8842  0.8894
 1021MOL0     H34719   4.423   2.403  10.903  1.3037 -0.8396  0.6367
 1021MOL0     H34720   4.533   2.541  10.895  0.2914 -1.4969 -0.4039
 1021MOL0     H34721   4.240   2.598  10.904  0.2685  0.8204  1.2062
 1021MOL0     H34722   4.383   2.711  10.889 -0.5993  0.5784 -1.2462
 1021MOL0     H34723   4.442   2.623  10.686 -0.4233  1.8833  0.3147
 1021MOL0     H34724   4.294   2.708  10.681  0.0192 -0.0458 -1.7421
 1021MOL0     H34725   4.367   2.373  10.542  1.4812  0.5739  1.5221
 1021MOL0     H34726   4.238   2.178  10.512  0.8410  0.8677 -0.1595
 1021MOL0     H34727   4.124   2.243  10.385  2.3936 -2.5250 -0.9806
 1021MOL0     H34728   4.028   2.139  10.659  1.0510 -1.4711 -0.4672
 1021MOL0     H34729   4.037   2.027  10.526 -2.5000 -0.0088  0.2892
 1021MOL0     H34730   3.874   2.285  10.536  1.9145 -0.5227  4.1152
 1021MOL0     H34731   3.878   2.177  10.386 -1.7019 -3.5022 -0.5381
 1021MOL0     H34732   3.751   2.137  10.658  0.2735  0.5916 -0.3201
 1021MOL0     H34733   3.819   2.002  10.582 -0.4716 -0.1800  1.8905
 1021MOL0     H34734   3.434   2.022  10.359  0.9040  0.1318 -0.2395
 1021MOL0     H34735   3.240   1.926  10.466  1.0068  0.8212 -0.4141
 1021MOL0     H34736   2.976   1.642  10.598 -0.6757  0.3890 -0.8328
 1021MOL0     H34737   2.796   1.550  10.724  0.4788  0.2002 -2.0571
 1021MOL0     H34738   2.589   1.807  11.042 -0.8166 -0.0440 -0.8414
 1021MOL0     H34739   2.711   1.699  11.127  0.1193 -1.0930 -0.6882
 1021MOL0     H34740   2.551   1.530  11.137 -0.2257 -3.1186 -3.3815
 1021MOL0     H34741   2.448   1.604  11.007  0.1567  4.6385 -2.0324
 1021MOL0     H34742   2.380   1.785  11.168  3.9692  2.0545  0.0279
 1021MOL0     H34743   2.490   1.730  11.279 -2.3083  1.2575  0.6567
 1021MOL0     H34744   2.252   1.548  11.172  3.1586 -0.0566 -2.4327
 1021MOL0     H34745   2.353   1.507  11.307  0.1833 -0.3479 -0.7253
 1021MOL0     H34746   2.162   1.746  11.308 -1.1774 -0.0014  0.7007
 1021MOL0     H34747   2.277   1.698  11.435 -0.4431  1.5913 -0.3486
 1021MOL0     H34748   2.079   1.499  11.318  2.7632 -1.7119 -0.4045
 1021MOL0     H34749   2.037   1.603  11.455  0.4850 -1.3889  1.9456
 1021MOL0     H34750   2.241   1.379  11.448  1.1148  1.2739 -2.8231
 1021MOL0     H34751   2.248   1.516  11.574 -2.8869  1.6306  0.7659
 1021MOL0     H34752   2.008   1.337  11.542  0.3940 -1.2504  0.1942
 1021MOL0     H34753   2.020   1.473  11.636  0.5130 -0.1696  1.6324
 1021MOL0     H34754   2.775   1.901  10.968 -1.3118  0.7124 -2.2819
 1021MOL0     H34755   2.946   2.005  10.826  1.2871 -0.7177 -0.0178
 1021MOL0     H34756   3.450   1.901  10.841 -0.0513 -1.3422 -0.8672
 1021MOL0     H34757   3.639   1.981  10.749 -0.0945 -4.4562 -0.5480
 1021MOL0     H34758   5.070   2.335  11.198  0.4258 -2.3110  0.4834
 1021MOL0     H34759   5.305   2.422  11.176 -0.9875  5.5548 -0.8470
 1021MOL0     H34760   5.782   2.467  11.134 -0.4013  1.9374 -0.6623
 1021MOL0     H34761   6.000   2.500  11.213  2.4971  2.3384  2.9587
 1021MOL0     H34762   6.098   2.597  11.620 -1.5843 -0.8245 -1.1359
 1021MOL0     H34763   6.122   2.740  11.530  0.4766  0.1459  0.7167
 1021MOL0     H34764   6.342   2.650  11.438 -1.6928  1.7614  0.6563
 1021MOL0     H34765   6.342   2.673  11.609 -1.3723 -0.0615  1.4890
 1021MOL0     H34766   6.271   2.405  11.525 -0.0936  0.1344  0.5129
 1021MOL0     H34767   6.310   2.472  11.683 -0.3746  1.6030 -0.3644
 1021MOL0     H34768   6.545   2.542  11.597  0.4012  0.7542 -0.2688
 1021MOL0     H34769   6.502   2.371  11.632  0.9119  1.0981  0.2220
 1021MOL0     H34770   6.626   2.386  11.224  0.4216 -0.2512 -0.1297
 1021MOL0     H34771   5.883   2.691  11.559 -0.8949  1.2904 -0.9995
 1021MOL0     H34772   5.651   2.651  11.497  2.0169 -0.0743  0.8599
 1022MOL0     O34773   6.138   9.053  10.124 -0.0438 -0.0304  0.1163
 1022MOL0     C34774   6.089   9.166  10.157  0.2802 -0.9551 -0.0065
 1022MOL0     O34775   6.158   9.279  10.183  0.8402  0.3565  0.4913
 1022MOL0     C34776   6.301   9.277  10.175  0.8013  0.0636 -0.0879
 1022MOL0     C34777   6.371   9.205  10.074  0.0789 -0.6522  0.3384
 1022MOL0     C34778   6.517   9.206  10.071  0.6976  0.2533 -0.4434
 1022MOL0     C34779   6.598   9.275  10.158  0.1733 -0.4689  0.4520
 1022MOL0     O34780   6.735   9.268  10.139  0.5572  0.5895 -0.0184
 1022MOL0     C34781   6.813   9.312  10.249  0.6250  0.8700 -0.0145
 1022MOL0     C34782   6.958   9.331  10.203  0.0714  0.1809  0.2926
 1022MOL0     C34783   7.050   9.323  10.325 -0.3170  0.0779 -0.0863
 1022MOL0     C34784   7.191   9.351  10.276  0.5492 -0.6799 -0.0301
 1022MOL0     C34785   7.288   9.324  10.399 -0.1221 -1.0370 -0.4479
 1022MOL0     C34786   7.429   9.328  10.342  0.1619  0.1287  0.7571
 1022MOL0     C34787   7.527   9.305  10.454 -0.2509  0.4202  0.1107
 1022MOL0     C34788   7.674   9.291  10.397  0.4943 -0.5744  0.1121
 1022MOL0     N34789   7.774   9.280  10.507  0.1192  0.0953  0.9791
 1022MOL0     C34790   7.824   9.394  10.573 -0.1690  0.3017  0.1942
 1022MOL0     C34791   7.913   9.340  10.657  0.6113 -0.8109 -0.6171
 1022MOL0     C34792   7.991   9.423  10.758  0.2071 -0.4508  0.4958
 1022MOL0     C34793   7.939   9.409  10.902  0.2732  0.6064  1.0028
 1022MOL0     C34794   7.967   9.536  10.978 -0.2347 -0.1837  0.2369
 1022MOL0     C34795   7.926   9.531  11.123  0.4965 -0.4262 -0.2555
 1022MOL0     O34796   7.967   9.658  11.181 -0.0159 -0.0327 -0.2544
 1022MOL0     C34797   7.877   9.739  11.243  0.2747  0.4692  0.1635
 1022MOL0     C34798   7.749   9.705  11.294 -0.1952  0.0109 -0.3707
 1022MOL0     C34799   7.670   9.799  11.366  0.5390 -0.5424 -1.2424
 1022MOL0     C34800   7.726   9.927  11.391  0.2345  0.3675  0.2608
 1022MOL0     C34801   7.642  10.025  11.463  1.0660 -0.1259  0.1026
 1022MOL0     O34802   7.532   9.979  11.528  0.0850 -0.0651  0.0074
 1022MOL0     C34803   7.453  10.068  11.594 -0.0990 -0.2140  0.4007
 1022MOL0     C34804   7.491  10.125  11.716 -0.2355 -0.1309 -0.3056
 1022MOL0     C34805   7.399  10.204  11.791 -0.3573 -0.2583  0.4917
 1022MOL0     C34806   7.273  10.238  11.738  0.1029 -0.0709 -0.2980
 1022MOL0     O34807   7.190  10.313  11.818 -0.8009 -0.0783 -0.0925
 1022MOL0     C34808   7.051  10.335  11.784  0.3067  0.1309 -0.0769
 1022MOL0     C34809   7.031  10.468  11.701  0.6274 -0.4698 -0.7223
 1022MOL0     C34810   7.051  10.585  11.790  0.6931 -0.1350 -0.5769
 1022MOL0     C34811   7.004  10.712  11.729 -0.0005  0.1997 -1.0700
 1022MOL0     C34812   7.012  10.825  11.834 -0.0536  0.4237 -0.6179
 1022MOL0     C34813   6.965  10.955  11.774 -0.1053 -0.7280  1.1613
 1022MOL0     C34814   6.981  11.067  11.870  0.5604  1.1229 -1.0474
 1022MOL0     C34815   6.881  11.069  11.982 -0.2824 -0.1296  0.2102
 1022MOL0    Cl34816   6.911  11.198  12.102 -0.1460  0.1471 -0.0313
 1022MOL0     C34817   7.241  10.192  11.610 -0.1714  0.1044  0.4819
 1022MOL0     C34818   7.330  10.106  11.543 -0.1498  0.2540  0.4633
 1022MOL0     O34819   7.679  10.146  11.466  0.4674  0.1525  0.4363
 1022MOL0     C34820   7.853   9.963  11.351 -0.3863  1.1038  0.6721
 1022MOL0     C34821   7.922   9.867  11.273 -0.3316 -0.0349  0.5730
 1022MOL0     N34822   7.904   9.200  10.650  0.4957 -0.0141 -0.1348
 1022MOL0     N34823   7.825   9.162  10.552  0.0742 -0.2289 -0.8153
 1022MOL0     C34824   6.522   9.344  10.256 -0.1397  0.5319 -0.3280
 1022MOL0     C34825   6.381   9.349  10.262 -0.2767  1.4558 -0.5639
 1022MOL0     C34826   5.942   9.179  10.168  0.1427  0.5769 -0.5930
 1022MOL0     C34827   5.839   9.105  10.098  0.0098  0.4220 -0.4708
 1022MOL0     C34828   5.700   9.115  10.133  0.3794  0.1738 -0.2541
 1022MOL0     C34829   5.656   9.199  10.237  0.3099  0.2706 -0.3972
 1022MOL0     O34830   5.521   9.185  10.279  0.0149  0.1742 -0.3583
 1022MOL0     C34831   5.470   9.286  10.370  1.0741  0.7130 -0.2551
 1022MOL0     C34832   5.451   9.222  10.504 -0.1674  0.5007  0.0743
 1022MOL0     C34833   5.381   9.310  10.610  0.2746 -0.7172  0.5860
 1022MOL0     C34834   5.457   9.442  10.655  0.6896  0.1299 -0.1249
 1022MOL0     C34835   5.371   9.495  10.764 -0.2094 -0.4045  0.0208
 1022MOL0     C34836   5.294   9.533  10.850  0.2029  0.0760  0.3806
 1022MOL0     C34837   5.755   9.285  10.296 -0.5243  0.6214  0.7719
 1022MOL0     C34838   5.888   9.274  10.260 -1.1704  0.0971 -0.0948
 1022MOL0     H34839   6.329   9.134  10.003 -1.3819 -1.2869  1.7460
 1022MOL0     H34840   6.570   9.152   9.993  4.6593  3.9422 -0.6924
 1022MOL0     H34841   6.821   9.238  10.329  3.6607  1.2854  0.1737
 1022MOL0     H34842   6.772   9.408  10.279 -1.9724  0.2320 -1.1752
 1022MOL0     H34843   6.968   9.424  10.146  0.2967 -2.2081 -3.9386
 1022MOL0     H34844   6.988   9.249  10.137  4.2093  0.9998  0.8688
 1022MOL0     H34845   7.049   9.228  10.379 -0.5273  0.3873  0.4696
 1022MOL0     H34846   7.021   9.403  10.394  0.0905 -0.9187  1.2895
 1022MOL0     H34847   7.221   9.285  10.194  0.9907  1.0420 -1.3108
 1022MOL0     H34848   7.213   9.454  10.245 -2.0624 -0.0972 -0.1742
 1022MOL0     H34849   7.260   9.228  10.443 -1.8033 -0.1316  0.5637
 1022MOL0     H34850   7.267   9.398  10.477 -0.2348  0.4823 -1.8594
 1022MOL0     H34851   7.450   9.432  10.314 -0.8165  0.6923  2.0247
 1022MOL0     H34852   7.446   9.256  10.262 -0.9676 -1.5889  1.9858
 1022MOL0     H34853   7.518   9.377  10.536  0.0354 -0.2815  0.7812
 1022MOL0     H34854   7.505   9.213  10.510  2.0163  0.1890  0.7175
 1022MOL0     H34855   7.692   9.380  10.338 -2.1766 -1.1201 -1.7075
 1022MOL0     H34856   7.693   9.208  10.329  1.5373 -1.0180  0.9132
 1022MOL0     H34857   7.798   9.496  10.547 -1.6211 -0.4798 -1.7124
 1022MOL0     H34858   7.984   9.526  10.722 -0.5834 -0.4819  0.5278
 1022MOL0     H34859   8.099   9.406  10.761  0.4586 -0.6468 -3.5989
 1022MOL0     H34860   7.979   9.318  10.947  1.2958  0.6088  0.1389
 1022MOL0     H34861   7.832   9.386  10.895  1.0032 -2.8598 -1.0546
 1022MOL0     H34862   8.071   9.565  10.962  0.1017 -1.9506 -1.1201
 1022MOL0     H34863   7.907   9.612  10.927 -2.2123 -4.1229 -4.0271
 1022MOL0     H34864   7.960   9.443  11.179  2.4978 -0.2763 -1.1767
 1022MOL0     H34865   7.818   9.515  11.116  0.3547 -0.2324  1.0569
 1022MOL0     H34866   7.715   9.602  11.297  1.0801 -0.4825  3.9227
 1022MOL0     H34867   7.579   9.764  11.414  0.2128  1.1022 -0.6178
 1022MOL0     H34868   7.583  10.091  11.762  0.6280  2.5715  0.0921
 1022MOL0     H34869   7.427  10.228  11.893 -0.9160 -0.8293  0.7817
 1022MOL0     H34870   6.995  10.327  11.878  1.6708 -0.8579  0.7070
 1022MOL0     H34871   7.014  10.247  11.731  0.8201  0.4797 -1.0419
 1022MOL0     H34872   6.930  10.469  11.658  0.0626  1.2727  0.5265
 1022MOL0     H34873   7.095  10.470  11.612  0.0933 -1.0784 -1.1269
 1022MOL0     H34874   7.157  10.591  11.817  0.8260  0.6331 -1.2413
 1022MOL0     H34875   6.996  10.563  11.882 -1.1353 -0.4233 -1.6896
 1022MOL0     H34876   7.074  10.735  11.648  2.0278  1.4346  0.9142
 1022MOL0     H34877   6.908  10.692  11.682  0.5161 -3.3321 -0.8945
 1022MOL0     H34878   7.117  10.832  11.863  1.1943 -2.8410 -3.5887
 1022MOL0     H34879   6.953  10.789  11.918  0.4638 -0.4498 -0.6226
 1022MOL0     H34880   6.860  10.948  11.746 -0.2524  1.6471  0.8782
 1022MOL0     H34881   7.019  10.974  11.681  0.5783  0.8703  1.8464
 1022MOL0     H34882   7.074  11.062  11.926 -1.4930 -2.0669  2.5539
 1022MOL0     H34883   6.986  11.168  11.828  1.3209  2.6584  2.3780
 1022MOL0     H34884   6.889  10.969  12.026  1.7126 -0.6037 -1.1335
 1022MOL0     H34885   6.782  11.080  11.938 -0.4883 -1.0250  0.4150
 1022MOL0     H34886   7.145  10.223  11.571  0.2715 -0.9328 -1.6201
 1022MOL0     H34887   7.303  10.052  11.453  1.7318 -1.7387  0.9972
 1022MOL0     H34888   7.903  10.057  11.372 -0.1212  1.1754 -0.2547
 1022MOL0     H34889   8.019   9.897  11.235  1.0257 -3.5401  0.8763
 1022MOL0     H34890   6.573   9.410  10.326 -0.8430  1.8415 -1.0155
 1022MOL0     H34891   6.336   9.396  10.349  1.2957 -0.3757  1.3472
 1022MOL0     H34892   5.860   9.033  10.020 -2.2225  0.5677 -1.2692
 1022MOL0     H34893   5.621   9.052  10.095  1.4240 -1.2773 -0.0742
 1022MOL0     H34894   5.372   9.308  10.326  1.8062 -0.0031 -2.3598
 1022MOL0     H34895   5.523   9.382  10.373  2.6417 -0.1387  0.5776
 1022MOL0     H34896   5.389   9.133  10.488  3.3257 -1.9849 -0.8811
 1022MOL0     H34897   5.544   9.184  10.548 -0.4136 -0.4114 -0.1752
 1022MOL0     H34898   5.384   9.247  10.700 -0.5393 -2.0689 -0.2960
 1022MOL0     H34899   5.277   9.328  10.582  0.3697 -1.9547 -0.6921
 1022MOL0     H34900   5.559   9.427  10.692  0.0522  0.9058  2.0883
 1022MOL0     H34901   5.442   9.505  10.567 -5.0799 -1.3497 -0.6079
 1022MOL0     H34902   5.233   9.572  10.929  0.3396  0.5328  0.2639
 1022MOL0     H34903   5.727   9.346  10.381  2.3459 -0.8183  2.9367
 1022MOL0     H34904   5.957   9.344  10.304 -0.1926  0.2063 -1.7430
 1023MOL0     O34905   6.962   7.541   4.400 -0.1916  0.3744  0.4834
 1023MOL0     C34906   7.052   7.608   4.448 -0.1215  0.0571  0.2467
 1023MOL0     O34907   7.043   7.687   4.553  0.5642 -0.0464  0.4823
 1023MOL0     C34908   6.924   7.718   4.609  0.2170 -0.4992 -0.1564
 1023MOL0     C34909   6.870   7.648   4.717  0.2398 -0.2980  0.3922
 1023MOL0     C34910   6.751   7.690   4.780  0.7996 -0.5845  0.5222
 1023MOL0     C34911   6.682   7.805   4.737  0.0647  0.1619  0.6853
 1023MOL0     O34912   6.564   7.848   4.790 -0.0215 -0.0508  0.3147
 1023MOL0     C34913   6.466   7.744   4.803  0.2918 -0.0382  0.1121
 1023MOL0     C34914   6.333   7.800   4.859 -0.1881 -0.2679  0.2449
 1023MOL0     C34915   6.214   7.697   4.845  0.4760 -1.5414 -0.6382
 1023MOL0     C34916   6.071   7.760   4.849 -0.2519 -0.1434 -0.9540
 1023MOL0     C34917   5.982   7.642   4.823  0.9621  0.1621  0.6818
 1023MOL0     C34918   5.832   7.680   4.835 -0.8838  0.8011 -0.4603
 1023MOL0     C34919   5.740   7.562   4.796 -0.3909 -0.5368  0.6364
 1023MOL0     C34920   5.596   7.615   4.771 -0.8117  0.3819  0.0250
 1023MOL0     N34921   5.520   7.648   4.887  0.2970 -0.4126 -0.4557
 1023MOL0     C34922   5.543   7.749   4.978 -0.2993  0.4551  0.1693
 1023MOL0     C34923   5.436   7.745   5.066 -0.8657 -0.7576  0.9735
 1023MOL0     C34924   5.418   7.852   5.180  0.3992  0.8624  0.1716
 1023MOL0     C34925   5.429   7.795   5.321  0.4296  0.0337  0.5969
 1023MOL0     C34926   5.296   7.783   5.389  0.5779 -0.3535  0.6431
 1023MOL0     C34927   5.190   7.715   5.300  0.2103  1.3531  0.1603
 1023MOL0     O34928   5.097   7.642   5.386  0.0391  0.2512  0.0113
 1023MOL0     C34929   4.965   7.627   5.355  0.3294  1.0238  0.0874
 1023MOL0     C34930   4.905   7.660   5.234  1.2654 -0.6615  0.1331
 1023MOL0     C34931   4.763   7.653   5.230 -0.7096  0.1394 -0.0482
 1023MOL0     C34932   4.692   7.583   5.334  0.8410 -0.6245  0.2891
 1023MOL0     C34933   4.546   7.573   5.325 -0.3061 -0.2048  0.9109
 1023MOL0     O34934   4.467   7.502   5.414  0.4615  0.1601  0.3654
 1023MOL0     C34935   4.340   7.483   5.369  0.6422  0.2378 -0.0284
 1023MOL0     C34936   4.296   7.443   5.242  0.1480  0.8992  0.2392
 1023MOL0     C34937   4.158   7.416   5.218 -0.2151 -0.4920 -0.1958
 1023MOL0     C34938   4.064   7.423   5.325 -0.8705 -0.3283  1.0303
 1023MOL0     O34939   3.937   7.400   5.304  0.4552 -0.2728 -0.0355
 1023MOL0     C34940   3.857   7.497   5.233  0.5289 -0.7238  0.0834
 1023MOL0     C34941   3.718   7.487   5.285 -0.0036 -0.2858 -0.0645
 1023MOL0     C34942   3.614   7.545   5.185 -0.5630  0.5036  0.2837
 1023MOL0     C34943   3.470   7.541   5.222  0.6193 -0.2179 -0.6415
 1023MOL0     C34944   3.375   7.557   5.098  0.2397 -0.3974  0.0202
 1023MOL0     C34945   3.222   7.539   5.130 -0.6057  0.1773 -0.5917
 1023MOL0     C34946   3.130   7.532   5.004 -0.3900 -0.4834  0.0743
 1023MOL0     C34947   2.983   7.504   5.039 -0.1673  0.0600 -0.2479
 1023MOL0    Cl34948   2.904   7.478   4.886  0.3040  0.2717 -0.1159
 1023MOL0     C34949   4.105   7.461   5.454  0.4887  0.3810 -0.3322
 1023MOL0     C34950   4.241   7.484   5.470 -0.3132 -0.5682 -0.2263
 1023MOL0     O34951   4.507   7.632   5.224  0.4935  0.1552  0.4491
 1023MOL0     C34952   4.762   7.515   5.435 -0.1228 -0.5401  0.7705
 1023MOL0     C34953   4.900   7.545   5.449 -0.4325  0.2880 -0.3664
 1023MOL0     N34954   5.361   7.633   5.032  0.3280  0.8111 -0.2194
 1023MOL0     N34955   5.407   7.575   4.924 -0.8437 -0.4961 -0.3175
 1023MOL0     C34956   6.746   7.885   4.646 -0.7401  0.9750  0.3008
 1023MOL0     C34957   6.861   7.841   4.580  0.5027 -0.5081 -0.3954
 1023MOL0     C34958   7.188   7.590   4.393 -0.3711 -0.5464  0.5827
 1023MOL0     C34959   7.213   7.512   4.272  0.0769  0.4560  0.9396
 1023MOL0     C34960   7.342   7.479   4.224  0.5181 -0.4912 -0.0509
 1023MOL0     C34961   7.445   7.525   4.301 -0.1986 -0.0550  0.2172
 1023MOL0     O34962   7.575   7.529   4.259  0.4365 -0.3941 -0.2009
 1023MOL0     C34963   7.621   7.392   4.239  0.4082 -0.9369 -0.2223
 1023MOL0     C34964   7.633   7.296   4.364  0.1925  0.2593 -0.1029
 1023MOL0     C34965   7.685   7.153   4.315  0.8450 -0.4311 -0.0323
 1023MOL0     C34966   7.834   7.143   4.287 -0.0294 -1.1911 -0.2153
 1023MOL0     C34967   7.884   7.010   4.249 -0.1876 -0.9605  0.1660
 1023MOL0     C34968   7.938   6.906   4.216  0.2655 -0.7901 -0.5867
 1023MOL0     C34969   7.430   7.600   4.411 -0.0828  0.3473 -0.5917
 1023MOL0     C34970   7.303   7.631   4.459 -0.4445 -0.2825 -0.5034
 1023MOL0     H34971   6.920   7.555   4.741  0.8381 -0.1510 -0.2574
 1023MOL0     H34972   6.702   7.627   4.853 -1.4728  0.3208 -0.1293
 1023MOL0     H34973   6.506   7.675   4.878  0.9461  0.6104  0.3695
 1023MOL0     H34974   6.443   7.695   4.708 -0.3881  2.8651 -1.3491
 1023MOL0     H34975   6.301   7.891   4.808  3.3146  1.0326  0.0945
 1023MOL0     H34976   6.341   7.813   4.967 -1.4791 -1.6747  0.5344
 1023MOL0     H34977   6.217   7.616   4.917 -1.6610 -1.3587 -0.2737
 1023MOL0     H34978   6.223   7.645   4.749  1.3382 -1.8815 -0.3840
 1023MOL0     H34979   6.055   7.793   4.952 -0.3406 -3.6042  0.2551
 1023MOL0     H34980   6.052   7.842   4.779  1.9226  1.2511 -0.0451
 1023MOL0     H34981   6.012   7.553   4.877  2.3119 -0.3537 -0.8432
 1023MOL0     H34982   5.985   7.605   4.720 -0.2509  1.9773 -0.0682
 1023MOL0     H34983   5.813   7.773   4.780 -0.2332  0.7424 -0.7952
 1023MOL0     H34984   5.806   7.701   4.940 -0.1444 -1.0601  0.1316
 1023MOL0     H34985   5.777   7.523   4.701 -0.6878  2.1689 -0.7138
 1023MOL0     H34986   5.737   7.494   4.881 -3.6905  0.0455  1.1399
 1023MOL0     H34987   5.543   7.528   4.731  1.1858 -0.9334  0.0447
 1023MOL0     H34988   5.590   7.702   4.706  2.0229  0.0680 -0.8294
 1023MOL0     H34989   5.620   7.824   4.994  0.3204  0.0363 -0.7774
 1023MOL0     H34990   5.327   7.911   5.173  0.5446  1.2417  1.2850
 1023MOL0     H34991   5.500   7.924   5.170  0.7984  0.4866  0.6175
 1023MOL0     H34992   5.502   7.851   5.382  1.5007 -1.0481  0.3519
 1023MOL0     H34993   5.456   7.689   5.320  0.0839 -0.0511  0.0533
 1023MOL0     H34994   5.288   7.746   5.491 -0.0121  1.5224  1.3156
 1023MOL0     H34995   5.271   7.889   5.398  1.7814  0.1072 -0.8568
 1023MOL0     H34996   5.237   7.643   5.232 -1.1510 -1.5864  2.1271
 1023MOL0     H34997   5.136   7.791   5.244  1.8067  1.1175 -1.8548
 1023MOL0     H34998   4.957   7.718   5.159 -1.6471  0.4697 -1.1558
 1023MOL0     H34999   4.718   7.700   5.143  1.7558 -0.2980 -1.6650
 1023MOL0     H35000   4.364   7.435   5.158 -0.4033 -1.0210 -0.0693
 1023MOL0     H35001   4.125   7.393   5.117 -1.6469  0.8375 -0.0800
 1023MOL0     H35002   3.862   7.468   5.127  3.3093  1.1865 -0.4337
 1023MOL0     H35003   3.898   7.597   5.251 -2.2570  0.8089 -1.4534
 1023MOL0     H35004   3.712   7.546   5.376  1.9236  2.8231 -1.7912
 1023MOL0     H35005   3.686   7.383   5.303  2.4146 -1.2663 -1.0169
 1023MOL0     H35006   3.637   7.486   5.095 -0.8043  0.7697  0.0446
 1023MOL0     H35007   3.636   7.650   5.166  2.7454 -0.0706  0.4052
 1023MOL0     H35008   3.455   7.450   5.281 -2.7044  0.9394  0.5300
 1023MOL0     H35009   3.452   7.614   5.301 -0.6169  0.0970 -1.1935
 1023MOL0     H35010   3.408   7.479   5.029  0.8489  0.5603 -0.7947
 1023MOL0     H35011   3.398   7.647   5.040  0.9593 -2.3969 -3.0142
 1023MOL0     H35012   3.190   7.622   5.194 -2.8507 -1.4562  0.4961
 1023MOL0     H35013   3.207   7.461   5.205 -1.3265  2.5243  1.8518
 1023MOL0     H35014   3.139   7.630   4.955  0.8849  0.1894  1.5809
 1023MOL0     H35015   3.159   7.442   4.949 -1.1970 -1.2785  0.9268
 1023MOL0     H35016   2.937   7.580   5.103  0.5030 -0.4107  0.8193
 1023MOL0     H35017   2.974   7.408   5.090  0.5853 -1.6146 -3.0319
 1023MOL0     H35018   4.023   7.463   5.525 -0.4460  3.4937 -1.3353
 1023MOL0     H35019   4.261   7.529   5.567 -2.0453  0.7780 -0.4586
 1023MOL0     H35020   4.714   7.460   5.515 -0.0579 -2.9154 -0.7093
 1023MOL0     H35021   4.965   7.514   5.530  1.6621  0.9025 -1.7238
 1023MOL0     H35022   6.707   7.985   4.628 -4.0238 -0.0505  1.0072
 1023MOL0     H35023   6.919   7.896   4.507  1.6888  2.6964  2.6776
 1023MOL0     H35024   7.127   7.467   4.222 -0.2054  0.6417  1.2495
 1023MOL0     H35025   7.356   7.420   4.134  0.0213 -0.3960 -0.1927
 1023MOL0     H35026   7.715   7.407   4.186  0.7873  2.1715  1.0863
 1023MOL0     H35027   7.545   7.340   4.180 -1.6975 -1.1144  2.4836
 1023MOL0     H35028   7.701   7.337   4.439 -0.8530 -0.7855  1.4797
 1023MOL0     H35029   7.534   7.294   4.409  0.0657  0.1146 -0.3838
 1023MOL0     H35030   7.648   7.132   4.214  1.2364 -0.5750 -0.1453
 1023MOL0     H35031   7.665   7.071   4.385 -0.9340  1.5049  1.8656
 1023MOL0     H35032   7.871   7.207   4.206  1.1102 -1.8350 -0.2349
 1023MOL0     H35033   7.893   7.178   4.372 -0.1217 -2.5332  0.4255
 1023MOL0     H35034   7.984   6.811   4.200  2.4819  0.1177  0.0220
 1023MOL0     H35035   7.512   7.655   4.456  0.3099  0.0949 -0.9914
 1023MOL0     H35036   7.293   7.699   4.543 -0.6427 -1.5846  0.5545
 1024MOL0     O35037   3.290   0.911   1.577  0.2649 -0.5603 -0.2525
 1024MOL0     C35038   3.332   0.867   1.679  0.2854  0.1879 -0.2150
 1024MOL0     O35039   3.254   0.826   1.782  0.7362  0.1003 -0.2374
 1024MOL0     C35040   3.118   0.828   1.760  0.2110 -0.5407 -0.3087
 1024MOL0     C35041   3.036   0.930   1.813 -0.2756  0.5582  0.2112
 1024MOL0     C35042   2.902   0.940   1.789  0.4504  0.2894  0.3837
 1024MOL0     C35043   2.840   0.834   1.720  0.0290  0.7439 -0.3247
 1024MOL0     O35044   2.706   0.826   1.694  0.2480 -0.3395  0.6123
 1024MOL0     C35045   2.624   0.874   1.802  0.2373 -0.4322  0.8576
 1024MOL0     C35046   2.485   0.847   1.751  0.1936  0.3853 -0.6213
 1024MOL0     C35047   2.388   0.879   1.865 -0.2916  0.2711 -0.1006
 1024MOL0     C35048   2.247   0.876   1.817 -0.0124  0.2522  0.5918
 1024MOL0     C35049   2.140   0.924   1.928 -0.0433  0.6751  0.2147
 1024MOL0     C35050   2.132   0.820   2.038 -0.6363  0.4210  0.1887
 1024MOL0     C35051   2.003   0.844   2.118  1.0129 -0.2703 -0.4558
 1024MOL0     C35052   1.887   0.771   2.054  0.0323 -0.4613  0.0655
 1024MOL0     N35053   1.772   0.849   2.103 -0.2243 -0.1403  0.7072
 1024MOL0     C35054   1.688   0.812   2.201  0.2682  0.5224  0.5119
 1024MOL0     C35055   1.579   0.894   2.194 -0.8269  0.7043  0.3258
 1024MOL0     C35056   1.467   0.891   2.297  0.4722 -0.5121 -0.4419
 1024MOL0     C35057   1.330   0.856   2.241 -0.6874 -0.7397 -0.1498
 1024MOL0     C35058   1.211   0.840   2.343 -0.0710 -0.0700 -0.0424
 1024MOL0     C35059   1.148   0.975   2.388 -0.2102 -0.3478  0.3823
 1024MOL0     O35060   1.089   1.030   2.274 -0.4571 -0.4363 -0.2717
 1024MOL0     C35061   0.959   0.988   2.236 -0.4880  0.2344  0.1176
 1024MOL0     C35062   0.886   0.892   2.305  0.3614  0.1261  0.1060
 1024MOL0     C35063   0.762   0.849   2.257 -0.1427  0.1233  0.2937
 1024MOL0     C35064   0.705   0.894   2.134 -0.6190 -0.2450 -0.0295
 1024MOL0     C35065   0.580   0.842   2.081 -0.7203  1.3767 -0.3170
 1024MOL0     O35066   0.575   0.840   1.946  0.1739 -0.3406  0.2088
 1024MOL0     C35067   0.464   0.803   1.871  0.9722 -0.1970  0.3080
 1024MOL0     C35068   0.502   0.748   1.755  0.0122 -0.1651 -0.1913
 1024MOL0     C35069   0.406   0.697   1.657 -0.0781 -0.0811 -0.7643
 1024MOL0     C35070   0.268   0.732   1.682 -0.1582 -0.0579  0.5758
 1024MOL0     O35071   0.160   0.680   1.619 -0.0713  0.4478 -0.7441
 1024MOL0     C35072   0.176   0.576   1.528  0.2800 -0.2019 -0.0956
 1024MOL0     C35073   0.069   0.552   1.425 -0.6412  0.6878 -0.9935
 1024MOL0     C35074  -0.069   0.504   1.468 -0.2148  0.2457 -0.4078
 1024MOL0     C35075  -0.138   0.421   1.365 -1.2539 -0.3277  1.1282
 1024MOL0     C35076  -0.269   0.373   1.411 -0.3618  0.1326  0.7977
 1024MOL0     C35077  -0.343   0.282   1.310  0.2547  0.1572  0.0731
 1024MOL0     C35078  -0.478   0.228   1.361 -0.1335  0.4312 -0.2227
 1024MOL0     C35079  -0.572   0.333   1.421  0.1599  0.1845  0.4019
 1024MOL0    Cl35080  -0.741   0.283   1.390 -0.1264 -0.3470 -0.2088
 1024MOL0     C35081   0.230   0.787   1.801  0.9791 -0.5079 -0.4492
 1024MOL0     C35082   0.324   0.821   1.895 -0.2545 -0.2084  0.1438
 1024MOL0     O35083   0.491   0.801   2.159 -0.2472 -0.4098 -0.2436
 1024MOL0     C35084   0.788   0.988   2.064  1.3814  0.6755  0.1392
 1024MOL0     C35085   0.913   1.035   2.117 -0.3367  0.1079 -0.1686
 1024MOL0     N35086   1.595   0.971   2.076 -1.5076  0.3291 -0.2812
 1024MOL0     N35087   1.717   0.950   2.026 -0.0327 -0.6036 -0.3482
 1024MOL0     C35088   2.923   0.729   1.665 -0.1617  0.2116 -0.3773
 1024MOL0     C35089   3.065   0.729   1.687  0.1507  0.6216 -0.0829
 1024MOL0     C35090   3.476   0.821   1.685  0.5443  0.4298  0.1787
 1024MOL0     C35091   3.517   0.721   1.780  0.8728 -0.5997  0.1978
 1024MOL0     C35092   3.647   0.677   1.790  0.0589 -0.2212  0.3188
 1024MOL0     C35093   3.740   0.725   1.696 -0.3777  0.2505  1.4343
 1024MOL0     O35094   3.872   0.689   1.688  0.1369  0.0118 -0.0325
 1024MOL0     C35095   3.928   0.602   1.786 -0.4095 -0.3264 -0.7412
 1024MOL0     C35096   4.085   0.593   1.764  0.6562 -0.3795 -0.3565
 1024MOL0     C35097   4.121   0.566   1.617 -0.2709  0.0052 -0.5165
 1024MOL0     C35098   4.262   0.510   1.605  1.0816 -0.1762  0.2457
 1024MOL0     C35099   4.358   0.602   1.655  0.1291  0.2671 -0.0373
 1024MOL0     C35100   4.442   0.683   1.682  0.1576 -0.1000 -0.0562
 1024MOL0     C35101   3.706   0.824   1.604 -0.0941 -0.9641  0.0968
 1024MOL0     C35102   3.577   0.871   1.601  0.4739 -0.0070  0.8189
 1024MOL0     H35103   3.080   1.008   1.874  0.1957 -1.3406  2.4557
 1024MOL0     H35104   2.848   1.024   1.832 -0.8923  1.4002 -3.0957
 1024MOL0     H35105   2.643   0.981   1.811  1.6451 -0.3586 -1.9681
 1024MOL0     H35106   2.649   0.816   1.891  3.2964  1.3499  1.2847
 1024MOL0     H35107   2.477   0.739   1.736  3.2985 -0.1680  0.8890
 1024MOL0     H35108   2.469   0.902   1.658  1.3658  0.2807 -0.9008
 1024MOL0     H35109   2.408   0.983   1.891 -1.5672 -0.2461  3.6902
 1024MOL0     H35110   2.399   0.820   1.957  1.5900  0.4337 -0.1933
 1024MOL0     H35111   2.243   0.939   1.727 -0.8275  0.3334  0.6703
 1024MOL0     H35112   2.222   0.776   1.780 -3.5615  1.4621 -0.7614
 1024MOL0     H35113   2.056   0.939   1.860  1.3508 -1.0551 -2.0483
 1024MOL0     H35114   2.164   1.023   1.968 -0.9277  0.4142  1.4253
 1024MOL0     H35115   2.224   0.811   2.098 -0.9998  0.1707  0.7157
 1024MOL0     H35116   2.121   0.725   1.985  0.0236 -0.1472  1.0345
 1024MOL0     H35117   2.006   0.806   2.221 -2.4779 -1.5636 -0.6887
 1024MOL0     H35118   1.990   0.952   2.130  1.0475 -0.4628  1.7501
 1024MOL0     H35119   1.886   0.663   2.071 -1.4972 -0.7432 -1.5244
 1024MOL0     H35120   1.896   0.781   1.945  1.1166 -0.8877  0.1052
 1024MOL0     H35121   1.708   0.735   2.275 -0.3940  0.1485  0.3109
 1024MOL0     H35122   1.470   0.989   2.345  1.8889 -0.0703 -1.3958
 1024MOL0     H35123   1.484   0.822   2.380 -0.6244 -1.2236 -0.7688
 1024MOL0     H35124   1.339   0.766   2.181 -1.9111 -0.2557 -1.1066
 1024MOL0     H35125   1.314   0.931   2.163  1.4162 -1.9223 -1.8183
 1024MOL0     H35126   1.132   0.778   2.301  1.3381 -2.2497  0.3804
 1024MOL0     H35127   1.247   0.786   2.431 -2.1775 -0.5802  0.5727
 1024MOL0     H35128   1.229   1.042   2.419 -3.0986  3.3479  0.7363
 1024MOL0     H35129   1.080   0.963   2.472 -0.8173  0.1529 -0.0309
 1024MOL0     H35130   0.925   0.859   2.401  3.8803  1.9826 -0.5280
 1024MOL0     H35131   0.707   0.776   2.316 -0.1886  1.1140  1.5354
 1024MOL0     H35132   0.606   0.737   1.726 -0.5649 -1.9817 -1.8179
 1024MOL0     H35133   0.448   0.645   1.571  1.1991  0.1550 -0.3063
 1024MOL0     H35134   0.192   0.481   1.580  0.8628  0.8192  1.6922
 1024MOL0     H35135   0.261   0.607   1.467  0.4239  2.2159  1.1870
 1024MOL0     H35136   0.113   0.479   1.357  2.9068  0.9193  0.8304
 1024MOL0     H35137   0.057   0.647   1.372 -1.6210  0.5505 -1.0509
 1024MOL0     H35138  -0.126   0.593   1.497 -2.2998 -0.6593 -1.5232
 1024MOL0     H35139  -0.049   0.443   1.557  3.3682 -2.2932 -2.6489
 1024MOL0     H35140  -0.147   0.486   1.277  0.5957  1.2776  2.0462
 1024MOL0     H35141  -0.076   0.337   1.331  3.0117  2.3756  1.4572
 1024MOL0     H35142  -0.327   0.461   1.440  0.5960  1.0740 -0.0994
 1024MOL0     H35143  -0.263   0.304   1.495  1.5425 -2.1405 -1.0673
 1024MOL0     H35144  -0.269   0.209   1.274  0.6682  0.3141  0.5984
 1024MOL0     H35145  -0.368   0.344   1.223 -1.2186  2.0877  1.7818
 1024MOL0     H35146  -0.531   0.170   1.285 -0.3031 -2.5477  1.9995
 1024MOL0     H35147  -0.456   0.152   1.436  0.4640 -2.7705 -3.3463
 1024MOL0     H35148  -0.553   0.430   1.375  0.6911  0.0727  0.3874
 1024MOL0     H35149  -0.568   0.344   1.530 -2.8373  0.7618  0.5632
 1024MOL0     H35150   0.122   0.793   1.813  0.7448 -1.7233 -1.6746
 1024MOL0     H35151   0.295   0.877   1.984  0.5170  0.6050 -0.1010
 1024MOL0     H35152   0.767   1.028   1.966  0.5559  4.4192  1.6784
 1024MOL0     H35153   0.981   1.102   2.066  0.9482  0.4847  1.9344
 1024MOL0     H35154   2.874   0.637   1.635 -0.6668  0.4018 -0.1355
 1024MOL0     H35155   3.121   0.643   1.651 -1.8343 -1.5659  1.7146
 1024MOL0     H35156   3.448   0.689   1.858  2.5552  0.9139  2.4570
 1024MOL0     H35157   3.663   0.595   1.860 -3.0942 -0.6405  0.6938
 1024MOL0     H35158   3.881   0.504   1.781  0.5754 -0.9322  0.9132
 1024MOL0     H35159   3.924   0.630   1.892 -0.1446 -2.7766 -0.0289
 1024MOL0     H35160   4.131   0.684   1.802  0.3818 -0.2217 -0.4012
 1024MOL0     H35161   4.116   0.510   1.828 -0.1240  0.7305  1.5397
 1024MOL0     H35162   4.115   0.658   1.558 -0.4760  0.8422  0.7439
 1024MOL0     H35163   4.065   0.481   1.580  0.5911 -0.1347 -1.5367
 1024MOL0     H35164   4.281   0.414   1.655  2.9965  0.8078  1.5010
 1024MOL0     H35165   4.288   0.495   1.500  0.5658 -0.6405  0.1772
 1024MOL0     H35166   4.520   0.754   1.701  1.6344 -2.1464  2.1723
 1024MOL0     H35167   3.781   0.854   1.531  0.2177  1.2295  1.2379
 1024MOL0     H35168   3.548   0.948   1.529  0.8896  1.0993  1.7965
  11.24456  11.24456  11.24456
